G1.5cooh-PAMAM in water
17105
    1aaa     C1    1   4.326   3.537   4.285 -0.1219  0.0524  0.2877
    1aaa     H1    2   4.335   3.428   4.293 -3.3466 -0.1063  2.4431
    1aaa     H2    3   4.266   3.552   4.194 -1.3790 -0.0437  1.0943
    1aaa     C2    4   4.462   3.611   4.281  0.2321  0.4838 -0.3419
    1aaa     H3    5   4.511   3.593   4.185 -1.0994 -1.2769 -0.7187
    1aaa     H4    6   4.444   3.719   4.275  0.2175  0.4061 -1.8974
    1aaa     N1    7   4.551   3.584   4.393  0.1459 -0.8769 -0.2362
    1aaa     N2    8   4.238   3.588   4.389  0.0198  0.4258 -0.3063
    1aaa     C3    9   4.189   3.727   4.373 -0.0097 -0.3146 -0.5024
    1aaa     H5   10   4.268   3.798   4.401 -1.1668  0.3037  1.2972
    1aaa     H6   11   4.112   3.741   4.450  1.5824 -0.5442  1.1511
    1aaa     C4   12   4.122   3.494   4.417  0.0061 -0.5501  0.6377
    1aaa     H7   13   4.058   3.549   4.487 -0.1937  0.9759 -0.7068
    1aaa     H8   14   4.064   3.474   4.326 -0.2427 -0.2893  0.7393
    1aaa     C5   15   4.611   3.452   4.387 -0.2018 -0.4289  0.7504
    1aaa     H9   16   4.534   3.379   4.356 -0.0278  0.0673 -0.9233
    1aaa    H10   17   4.692   3.456   4.313  0.4495 -1.1215  1.4245
    1aaa     C6   18   4.659   3.689   4.401 -0.2378 -0.0239  0.2897
    1aaa    H11   19   4.697   3.698   4.298  1.6850 -0.2794  0.9480
    1aaa    H12   20   4.743   3.662   4.467  1.0592  2.6427 -0.2112
    1aaa     C7   21   4.650   3.411   4.527  1.0113 -0.5240 -0.3270
    1aaa    H13   22   4.704   3.494   4.574 -1.9188  1.4235 -0.2664
    1aaa    H14   23   4.560   3.387   4.586  0.2033 -1.1540 -1.7886
    1aaa     C8   24   4.608   3.827   4.448 -0.6012  0.7616  0.6819
    1aaa    H15   25   4.691   3.896   4.427  0.3815 -0.4193  0.6685
    1aaa    H16   26   4.522   3.862   4.390 -2.4816 -0.2824  2.7736
    1aaa     C9   27   4.174   3.370   4.496 -0.9198 -0.9352  0.2453
    1aaa    H17   28   4.232   3.301   4.434  0.1076  0.7245 -0.6858
    1aaa    H18   29   4.238   3.408   4.576 -0.3437  0.1921 -0.7352
    1aaa    C10   30   4.132   3.768   4.236  0.4373 -0.7000 -0.1860
    1aaa    H19   31   4.219   3.765   4.169 -0.5933 -1.9343 -1.5095
    1aaa    H20   32   4.054   3.698   4.204 -0.2175 -0.6140  1.1942
    1aaa    C11   33   4.055   3.295   4.554 -0.2719 -0.6753  0.1833
    1aaa    C12   34   4.081   3.900   4.236  0.0896 -0.3311  0.0326
    1aaa    C13   35   4.728   3.287   4.522  0.4156  0.3442  0.2320
    1aaa    C14   36   4.557   3.829   4.593  0.0293 -0.6666  0.1681
    1aaa     O1   37   3.950   3.283   4.493 -0.4876 -0.1865  0.5185
    1aaa     O2   38   4.668   3.183   4.536 -0.0584  0.6580 -0.0959
    1aaa     O3   39   4.612   3.901   4.676 -0.0207 -0.6220 -0.0409
    1aaa     O4   40   3.982   3.938   4.299 -0.2721 -0.3224  0.1669
    2bbb     C1   41   3.990   3.194   4.921 -0.1788 -1.1385  0.2243
    2bbb     H1   42   3.919   3.149   4.992 -1.8623  1.8533  0.5342
    2bbb     H2   43   3.985   3.301   4.944 -1.7135 -1.4031  1.2319
    2bbb     C2   44   3.963   3.186   4.766 -0.3853 -0.4120  0.1072
    2bbb     H3   45   3.952   3.079   4.746 -1.4781 -0.7216  2.1571
    2bbb     H4   46   3.870   3.244   4.757 -1.1747 -1.7323 -0.3167
    2bbb     N1   47   4.120   3.131   4.938 -1.1366 -0.1293 -1.0197
    2bbb     C3   48   4.193   3.196   5.052  0.7467 -0.2121  0.6640
    2bbb     H5   49   4.253   3.114   5.095 -0.6421 -2.1536 -1.0312
    2bbb     H6   50   4.121   3.233   5.126  1.0553  1.6397  0.0621
    2bbb     C4   51   4.111   2.984   4.962  0.0791  0.4775  0.6183
    2bbb     H7   52   4.088   2.962   5.067  0.7510 -1.0273  0.4632
    2bbb     H8   53   4.034   2.934   4.902 -0.3971  1.2583  0.5711
    2bbb     C5   54   4.242   2.914   4.914  0.0200  0.2964  0.0947
    2bbb     H9   55   4.236   2.923   4.805  1.4882  1.8070  0.1219
    2bbb    H10   56   4.334   2.961   4.952  1.4013 -3.4396  1.6635
    2bbb     C6   57   4.266   3.307   4.985  0.5749  0.3181 -0.3777
    2bbb    H11   58   4.210   3.383   4.929 -2.4990 -1.3773  0.2730
    2bbb    H12   59   4.323   3.368   5.055 -0.0137 -0.3633  0.7029
    2bbb     C7   60   4.251   2.764   4.948  0.3602 -1.1204  0.2530
    2bbb     C8   61   4.373   3.260   4.895  0.5450 -0.3538  0.7791
    2bbb     O1   62   4.192   2.682   4.886  0.0159 -0.2007  0.2336
    2bbb     O2   63   4.352   3.267   4.775  0.3899  1.0651  0.6077
    2bbb     N4   64   4.077   3.246   4.685 -0.9672  0.1228  0.2402
    2bbb    H21   65   4.167   3.264   4.728 -0.9766  1.4726 -0.2672
    3bbb     C1   66   4.208   4.202   4.286  0.3373 -0.6976  0.0923
    3bbb     H1   67   4.135   4.179   4.365  2.4023  2.4955  3.0924
    3bbb     H2   68   4.204   4.311   4.277 -3.2703 -0.4752  3.0097
    3bbb     C2   69   4.159   4.134   4.154  0.0972  0.1645  0.6355
    3bbb     H3   70   4.058   4.169   4.130 -0.2576 -1.2023  0.0495
    3bbb     H4   71   4.217   4.174   4.070 -1.6715 -1.2356 -1.2922
    3bbb     N1   72   4.335   4.161   4.328  0.9127  0.0709 -0.3097
    3bbb     C3   73   4.352   4.186   4.473 -0.1249  0.3087 -0.6414
    3bbb     H5   74   4.312   4.286   4.492  0.4832  0.6086 -0.9011
    3bbb     H6   75   4.456   4.176   4.509 -0.0657  2.2170 -0.2042
    3bbb     C4   76   4.438   4.218   4.242 -0.5799  0.5609  0.3607
    3bbb     H7   77   4.406   4.231   4.138  0.0957  2.3504  0.3516
    3bbb     H8   78   4.468   4.316   4.282  0.6589 -0.2943  1.5564
    3bbb     C5   79   4.565   4.133   4.238  0.1389  0.2965  0.5236
    3bbb     H9   80   4.604   4.112   4.339 -0.7673 -2.8747  0.2615
    3bbb    H10   81   4.546   4.037   4.188  2.5520  0.2296 -0.3109
    3bbb     C6   82   4.278   4.094   4.571 -0.3199 -0.1422 -0.3048
    3bbb    H11   83   4.173   4.067   4.557 -0.0280 -1.5635  0.1746
    3bbb    H12   84   4.335   4.001   4.556 -0.4543 -0.0951 -1.1203
    3bbb     C7   85   4.665   4.213   4.165  0.5730  0.0073  0.4930
    3bbb     C8   86   4.306   4.143   4.710 -0.9192  0.0519 -0.5011
    3bbb     O1   87   4.640   4.295   4.081 -0.5878 -0.2129 -0.2945
    3bbb     O2   88   4.220   4.193   4.782  0.0362 -0.1852  0.0150
    3bbb     N4   89   4.162   3.983   4.167 -0.1598  0.5750  0.5973
    3bbb    H21   90   4.239   3.937   4.120  0.9307  1.3154  1.6780
    4bbb     C1   91   4.979   3.185   4.299  0.3152 -0.0682  0.1325
    4bbb     H1   92   4.888   3.155   4.247 -1.7204  2.0059  2.3687
    4bbb     H2   93   5.064   3.120   4.279 -0.5750 -1.6443  1.3414
    4bbb     C2   94   4.952   3.188   4.452  0.0806 -0.5029  0.3538
    4bbb     H3   95   4.918   3.086   4.477 -2.1466 -0.2137 -1.2927
    4bbb     H4   96   5.051   3.191   4.498  0.3987 -1.3583 -0.2512
    4bbb     N1   97   5.020   3.318   4.253  0.0930 -0.1493  0.6122
    4bbb     C3   98   5.013   3.325   4.106  0.1284  0.9018  0.7652
    4bbb     H5   99   5.052   3.238   4.052 -4.4682 -0.5071 -0.5555
    4bbb     H6  100   5.065   3.418   4.081  0.5115  0.2407 -0.9669
    4bbb     C4  101   5.151   3.357   4.307  0.8915  0.1029  0.4333
    4bbb     H7  102   5.184   3.303   4.396 -0.9840 -2.3102 -0.2621
    4bbb     H8  103   5.220   3.335   4.224 -0.8581 -0.4187 -0.9310
    4bbb     C5  104   5.157   3.506   4.335 -0.1004 -0.2395 -0.2830
    4bbb     H9  105   5.175   3.557   4.239 -0.0890  2.4126  1.0640
    4bbb    H10  106   5.065   3.545   4.380  1.2137  3.3195 -0.4657
    4bbb     C6  107   4.867   3.335   4.061  1.0592 -0.5864  1.4021
    4bbb    H11  108   4.816   3.238   4.052  0.3792  0.0838 -2.8441
    4bbb    H12  109   4.814   3.404   4.129  0.5262  0.3690  0.0364
    4bbb     C7  110   5.265   3.540   4.433 -0.7000  0.3541  0.6198
    4bbb     C8  111   4.866   3.401   3.922 -0.1805 -0.4989  0.1412
    4bbb     O1  112   5.364   3.475   4.462 -0.2054 -0.7577  0.0905
    4bbb     O2  113   4.969   3.410   3.853  0.0448  0.0977  0.4658
    4bbb     N4  114   4.861   3.298   4.495  0.2548 -0.4131 -0.0670
    4bbb    H21  115   4.882   3.395   4.475 -0.4820 -0.0378  0.9167
    5bbb     C1  116   4.250   3.756   4.757 -0.1393  0.4698 -0.7249
    5bbb     H1  117   4.213   3.720   4.660  0.5132  1.1606 -1.2338
    5bbb     H2  118   4.237   3.864   4.755  1.2452  0.6633 -0.0674
    5bbb     C2  119   4.403   3.714   4.763 -0.2060  0.0690  0.1429
    5bbb     H3  120   4.455   3.780   4.834 -0.9717  1.6587 -0.7521
    5bbb     H4  121   4.413   3.610   4.796 -1.5466  0.5166  2.0525
    5bbb     N1  122   4.177   3.691   4.865 -0.3134 -0.2384  0.0268
    5bbb     C3  123   4.152   3.776   4.985 -0.3547 -0.4227 -0.0903
    5bbb     H5  124   4.075   3.726   5.044 -0.3107  1.3388  1.4840
    5bbb     H6  125   4.116   3.875   4.955  0.2245  0.1023  0.9275
    5bbb     C4  126   4.044   3.620   4.830  0.5094  0.4359 -0.2328
    5bbb     H7  127   4.072   3.542   4.760  0.2323 -0.5215  0.7104
    5bbb     H8  128   4.009   3.563   4.917  1.7076  0.9433  0.6091
    5bbb     C5  129   3.945   3.714   4.764 -1.1018  0.1301 -0.4090
    5bbb     H9  130   3.909   3.786   4.838 -1.7325  0.3627 -0.9393
    5bbb    H10  131   3.994   3.769   4.683 -0.9212 -0.2501 -0.5639
    5bbb     C6  132   4.279   3.780   5.068 -0.0356  0.2326  0.2020
    5bbb    H11  133   4.328   3.682   5.057  0.9834  0.7162  0.3013
    5bbb    H12  134   4.349   3.854   5.026 -0.0959 -0.1341 -0.5473
    5bbb     C7  135   3.833   3.638   4.706  0.2216 -0.2166  0.4346
    5bbb     C8  136   4.256   3.814   5.213  0.7048  0.6679 -0.6400
    5bbb     O1  137   3.796   3.526   4.733  0.7870  0.1905  0.0459
    5bbb     O2  138   4.153   3.803   5.274 -0.0817  0.4264 -0.4034
    5bbb     N4  139   4.463   3.733   4.629 -0.2568 -0.2220  0.1584
    5bbb    H21  140   4.453   3.655   4.566  2.2356 -1.4603  1.2512
    6ccc     N1  141   4.339   2.730   5.044 -0.0338 -0.1016  0.2838
    6ccc     H1  142   4.384   2.805   5.093  0.3412 -0.4131  0.4189
    6ccc     C1  143   4.361   2.594   5.088  0.4014 -0.5524 -0.2008
    6ccc     H2  144   4.331   2.598   5.194  0.0778 -1.6471 -0.2523
    6ccc     C2  145   4.516   2.548   5.085  0.0192 -0.3722 -0.7845
    6ccc     H3  146   4.290   2.527   5.040  0.4660 -0.1175 -0.9082
    6ccc     H4  147   4.512   2.451   5.135  0.3231  0.3415  0.6415
    6ccc     H5  148   4.581   2.600   5.156 -1.0977 -0.5873  0.4151
    6ccc     N2  149   4.572   2.522   4.949 -0.3297  0.2473 -0.3315
    6ccc     C3  150   4.679   2.418   4.950  0.1532  0.7041 -0.1331
    6ccc     C4  151   4.601   2.650   4.892  0.4207  1.0656 -0.1579
    6ccc     H6  152   4.557   2.739   4.941  1.2613  0.5195  1.6286
    6ccc     C5  153   4.567   2.654   4.746 -0.1455  0.7698 -0.5062
    6ccc     H7  154   4.708   2.672   4.899  0.3837  1.4039 -0.6295
    6ccc     H8  155   4.462   2.623   4.740 -0.5791  1.6756  1.7000
    6ccc     H9  156   4.625   2.571   4.704  1.1592  1.2512  0.2952
    6ccc     C6  157   4.599   2.780   4.673  0.5932  0.3426  0.1371
    6ccc     O1  158   4.527   2.797   4.569 -0.1283 -0.3603  0.0334
    6ccc     O2  159   4.693   2.859   4.686  0.7179  0.0248  0.2333
    6ccc    H10  160   4.740   2.426   4.859 -2.0977  2.0586 -1.6026
    6ccc    H11  161   4.739   2.432   5.040 -0.2124 -0.5454  0.3030
    6ccc     C7  162   4.618   2.275   4.951  0.8476  0.5218  0.0892
    6ccc    H12  163   4.538   2.266   4.876 -0.4636  1.8131  1.3156
    6ccc    H13  164   4.583   2.254   5.053  0.2588  0.5818 -0.0997
    6ccc     C8  165   4.714   2.172   4.917  0.3592  0.5898  0.4131
    6ccc     O3  166   4.826   2.187   4.880 -0.0936 -0.4418  0.7502
    6ccc     O4  167   4.662   2.052   4.910 -0.4380  0.0052  0.1962
    6ccc    H14  168   4.462   2.725   4.578 -0.9506  0.2548 -0.8391
    6ccc    H15  169   4.576   2.073   4.950  0.4515  1.5959  1.3344
    7ccc     N1  170   4.487   3.219   4.959 -0.0145  0.2075 -0.4675
    7ccc     H1  171   4.494   3.222   5.060 -0.5645  1.1099 -0.4589
    7ccc     C1  172   4.604   3.167   4.899  0.1662 -0.7203 -0.3165
    7ccc     H2  173   4.625   3.074   4.953  0.9619  0.9153  2.2365
    7ccc     C2  174   4.718   3.267   4.907 -0.3328  0.2649  0.0657
    7ccc     H3  175   4.577   3.152   4.793  0.3152 -0.0065 -0.4543
    7ccc     H4  176   4.715   3.343   4.828 -1.0327  1.8173  1.5537
    7ccc     H5  177   4.812   3.218   4.879 -0.6734  0.1144 -0.8343
    7ccc     N2  178   4.733   3.338   5.040 -0.2421  0.4317 -0.2579
    7ccc     C3  179   4.784   3.253   5.149 -0.0007  0.7671  0.3573
    7ccc     C4  180   4.814   3.464   5.026  0.4431 -0.0821  0.0267
    7ccc     H6  181   4.857   3.497   5.122  1.3299 -0.2327 -0.3058
    7ccc     C5  182   4.730   3.575   4.972 -0.9319 -0.0081 -0.2439
    7ccc     H7  183   4.900   3.454   4.957  0.6776 -0.9547  0.4457
    7ccc     H8  184   4.686   3.555   4.874  1.7694 -0.3071 -1.4346
    7ccc     H9  185   4.797   3.660   4.957 -2.4107  0.6742 -3.3958
    7ccc     C6  186   4.617   3.611   5.055  0.2812  0.7219 -0.0101
    7ccc     O1  187   4.525   3.512   5.060  0.0663  0.7780 -0.3701
    7ccc     O2  188   4.600   3.724   5.094 -0.1878  0.6521 -0.6313
    7ccc    H10  189   4.893   3.244   5.154  0.0097 -0.8498 -2.0809
    7ccc    H11  190   4.740   3.152   5.143  0.6803  0.3520  2.0731
    7ccc     C7  191   4.733   3.302   5.284  0.1147 -1.0454  0.2559
    7ccc    H12  192   4.769   3.405   5.291  2.0345 -1.7333  0.7741
    7ccc    H13  193   4.779   3.243   5.364  0.5998 -0.7334  0.2089
    7ccc     C8  194   4.584   3.289   5.302  0.0702 -0.1029  0.4503
    7ccc     O3  195   4.522   3.213   5.231  0.0006 -0.5031 -0.5036
    7ccc     O4  196   4.523   3.391   5.363  0.0634 -0.0145 -0.3272
    7ccc    H14  197   4.581   3.436   5.038 -0.2547  0.3441  0.3130
    7ccc    H15  198   4.593   3.420   5.425  0.3463 -2.1847  0.3855
    8ccc     N1  199   4.794   4.178   4.192  0.8145 -0.2636  0.1731
    8ccc     H1  200   4.816   4.120   4.272  0.9356 -0.5911 -0.0933
    8ccc     C1  201   4.914   4.253   4.151 -0.1435 -0.0850 -0.3117
    8ccc     H2  202   4.969   4.183   4.088  1.3897  0.7680  0.0575
    8ccc     C2  203   5.004   4.311   4.263 -0.5155  0.2930 -0.7114
    8ccc     H3  204   4.882   4.335   4.084 -2.2465 -0.4657  0.1931
    8ccc     H4  205   5.019   4.232   4.337 -0.6695 -0.7283 -1.7479
    8ccc     H5  206   4.950   4.393   4.312  2.2947  0.4939  2.2210
    8ccc     N2  207   5.137   4.353   4.208  0.2423  0.3167 -0.3525
    8ccc     C3  208   5.124   4.477   4.132 -0.9550 -0.1209  0.5809
    8ccc     C4  209   5.230   4.372   4.319  0.1484  0.8319 -0.1830
    8ccc     H6  210   5.307   4.440   4.281 -0.8026  1.6588 -0.6349
    8ccc     C5  211   5.293   4.231   4.347 -0.2421  0.2844  0.3518
    8ccc     H7  212   5.176   4.420   4.402  2.1502  1.8325  0.5819
    8ccc     H8  213   5.378   4.213   4.281  0.0161 -0.4879  0.8938
    8ccc     H9  214   5.226   4.151   4.314 -1.9999  1.4581  0.9909
    8ccc     C6  215   5.333   4.203   4.484 -0.7694  0.4420  0.3712
    8ccc     O1  216   5.391   4.086   4.495 -0.0493 -0.4554  0.8429
    8ccc     O2  217   5.301   4.267   4.584 -0.0799 -0.3494  0.0234
    8ccc    H10  218   5.038   4.477   4.065 -0.8292  4.5292  0.2291
    8ccc    H11  219   5.115   4.564   4.199 -0.8685  1.0933 -0.9538
    8ccc     C7  220   5.247   4.500   4.037  0.4500  0.0328 -1.3441
    8ccc    H12  221   5.278   4.399   4.010  0.8360  0.1909 -1.5051
    8ccc    H13  222   5.331   4.544   4.093 -1.1387 -0.2384  1.3172
    8ccc     C8  223   5.227   4.584   3.914 -0.0098 -0.1366  0.2051
    8ccc     O3  224   5.136   4.663   3.897  0.3095  0.0747  0.3392
    8ccc     O4  225   5.293   4.546   3.808  0.4658 -0.7550  0.6370
    8ccc    H14  226   5.387   4.068   4.399 -0.5299 -0.5183  0.8733
    8ccc    H15  227   5.361   4.491   3.850  0.9979 -2.0736 -1.8819
    9ccc     N1  228   4.431   4.120   4.761 -0.1910  0.0486 -0.0489
    9ccc     H1  229   4.498   4.069   4.704 -0.9933  0.3116 -1.2549
    9ccc     C1  230   4.492   4.232   4.835  0.4606  0.2657 -0.2429
    9ccc     H2  231   4.420   4.291   4.894 -1.2948 -1.9794 -0.0759
    9ccc     C2  232   4.576   4.321   4.750 -0.3034 -0.1487  0.0004
    9ccc     H3  233   4.552   4.192   4.918 -0.6342  0.6811  0.7620
    9ccc     H4  234   4.633   4.384   4.820 -0.1765  0.8340 -0.9714
    9ccc     H5  235   4.653   4.252   4.715  0.5382  1.0705 -0.5803
    9ccc     N2  236   4.522   4.405   4.637 -0.5182 -0.1654  0.5708
    9ccc     C3  237   4.417   4.496   4.687  0.2616 -0.8568 -0.1770
    9ccc     C4  238   4.623   4.460   4.541  0.2830 -0.2068  0.1447
    9ccc     H6  239   4.653   4.376   4.477  1.0863  0.8465 -0.8975
    9ccc     C5  240   4.737   4.527   4.615 -0.4409 -0.1134  0.3115
    9ccc     H7  241   4.569   4.531   4.476 -1.0256 -0.5401  0.8434
    9ccc     H8  242   4.707   4.600   4.691 -0.5377  0.0960  0.0749
    9ccc     H9  243   4.802   4.443   4.642 -0.5556 -0.2493  0.1619
    9ccc     C6  244   4.811   4.607   4.520  0.2906  0.0622 -0.2224
    9ccc     O1  245   4.921   4.666   4.571 -0.0745  0.1008 -0.1779
    9ccc     O2  246   4.797   4.605   4.398  0.1845 -0.3551  0.3790
    9ccc    H10  247   4.460   4.556   4.769  1.5919 -2.0362  0.0032
    9ccc    H11  248   4.338   4.435   4.733 -0.0576 -0.2172  0.1272
    9ccc     C7  249   4.365   4.599   4.582 -0.1215  0.7171 -0.2538
    9ccc    H12  250   4.434   4.683   4.565  0.0347  1.3859  3.1752
    9ccc    H13  251   4.339   4.553   4.486 -1.0687  0.4923  0.1048
    9ccc     C8  252   4.238   4.661   4.636  0.1317  0.3278  0.2191
    9ccc     O3  253   4.127   4.608   4.620 -0.2138 -0.2625 -0.5565
    9ccc     O4  254   4.257   4.757   4.718 -0.0357 -0.1510  0.3694
    9ccc    H14  255   4.914   4.651   4.667 -2.9302 -0.6954 -0.4487
    9ccc    H15  256   4.355   4.760   4.722 -0.0342  0.4138 -0.0779
   10ccc     N1  257   5.244   3.660   4.480 -1.0153 -0.1387 -0.9105
   10ccc     H1  258   5.160   3.706   4.448  0.4492  1.5037 -2.5728
   10ccc     C1  259   5.336   3.740   4.568  0.5550 -0.3751 -0.3953
   10ccc     H2  260   5.436   3.696   4.577  0.4941 -0.4901 -0.2822
   10ccc     C2  261   5.286   3.781   4.708  0.0492  0.9267 -0.0325
   10ccc     H3  262   5.344   3.833   4.509 -0.3442  1.4326  2.2281
   10ccc     H4  263   5.364   3.856   4.728  2.0999 -0.8803 -1.0319
   10ccc     H5  264   5.308   3.690   4.766  1.4723  0.8343 -0.7063
   10ccc     N2  265   5.154   3.848   4.734 -0.3428  0.1272  0.1613
   10ccc     C3  266   5.143   3.884   4.875 -0.4828  0.5409  0.6037
   10ccc     C4  267   5.125   3.960   4.638 -0.0118  0.3003  0.0373
   10ccc     H6  268   5.171   4.051   4.678  0.2405 -0.6974  2.1032
   10ccc     C5  269   4.968   3.965   4.628  0.6597 -0.5712  0.1732
   10ccc     H7  270   5.178   3.942   4.544  0.8914  0.9083  0.4298
   10ccc     H8  271   4.926   3.986   4.727 -0.9963  0.5749 -0.7528
   10ccc     H9  272   4.929   3.867   4.597 -0.0077  0.4210 -2.2755
   10ccc     C6  273   4.927   4.069   4.527 -0.5420 -0.3467 -0.0170
   10ccc     O1  274   4.931   4.191   4.574 -0.0534  0.4113 -0.7833
   10ccc     O2  275   4.905   4.053   4.412  0.0260  0.0182  0.3076
   10ccc    H10  276   5.050   3.938   4.897 -2.3981 -3.3693  2.6749
   10ccc    H11  277   5.224   3.945   4.918  0.0458  0.9417 -0.9313
   10ccc     C7  278   5.137   3.751   4.953  0.5948  0.4876  0.3304
   10ccc    H12  279   5.234   3.701   4.964  0.7769  0.5041 -1.1433
   10ccc    H13  280   5.071   3.682   4.898  0.1672  1.5621 -0.5279
   10ccc     C8  281   5.079   3.764   5.085 -0.3579 -0.1807 -0.6831
   10ccc     O3  282   5.053   3.868   5.144  0.4459  0.6409 -0.2031
   10ccc     O4  283   5.045   3.646   5.143 -0.4075 -0.2549 -0.3369
   10ccc    H14  284   4.973   4.196   4.662 -0.3590 -3.1716 -0.3612
   10ccc    H15  285   5.078   3.577   5.083 -1.5592 -0.7532 -0.4115
   11ccc     N1  286   4.746   3.462   3.902  0.2958  0.1466 -0.0832
   11ccc     H1  287   4.672   3.438   3.968  1.4729 -1.5208  0.6572
   11ccc     C1  288   4.720   3.578   3.815  0.1038 -0.2053  0.1043
   11ccc     H2  289   4.741   3.556   3.710  0.1124  0.8696 -0.1224
   11ccc     C2  290   4.796   3.705   3.864  0.2065 -0.3774  0.3446
   11ccc     H3  291   4.612   3.590   3.813 -0.2413 -3.0716 -1.0011
   11ccc     H4  292   4.790   3.783   3.787 -0.0286 -1.4562 -0.7519
   11ccc     H5  293   4.903   3.682   3.870  0.3142  0.0781  0.2152
   11ccc     N2  294   4.738   3.746   3.997 -0.0195  0.5134 -0.2073
   11ccc     C3  295   4.830   3.830   4.076  0.1091 -0.0507 -0.4252
   11ccc     C4  296   4.604   3.805   3.987 -0.1039  0.4372  0.4237
   11ccc     H6  297   4.566   3.830   4.087 -1.1760  0.4994  0.0102
   11ccc     C5  298   4.585   3.932   3.891 -0.2340 -0.0129 -0.3369
   11ccc     H7  299   4.537   3.726   3.953  0.7118 -1.3417  2.7415
   11ccc     H8  300   4.656   4.011   3.919 -3.1722  2.1364  1.2074
   11ccc     H9  301   4.614   3.900   3.790  0.3837  0.3794 -0.2881
   11ccc     C6  302   4.454   3.991   3.883 -0.3555 -0.1424  0.1926
   11ccc     O1  303   4.434   4.091   3.796  0.1949  0.1122  0.1288
   11ccc     O2  304   4.355   3.944   3.927  0.1672 -0.0257 -0.1097
   11ccc    H10  305   4.779   3.870   4.165  0.2226 -0.4671 -0.1750
   11ccc    H11  306   4.869   3.913   4.015 -1.4919  0.4759 -0.7454
   11ccc     C7  307   4.947   3.748   4.124  0.2586  0.5447  0.6165
   11ccc    H12  308   5.021   3.722   4.047  2.3667  1.0070  2.4158
   11ccc    H13  309   4.916   3.651   4.165 -0.5366  1.1240  1.4119
   11ccc     C8  310   5.016   3.817   4.233 -0.2208  0.2564 -0.0317
   11ccc     O3  311   4.996   3.789   4.346 -0.4885  0.1547 -0.2635
   11ccc     O4  312   5.143   3.835   4.202  0.1156  0.2120  0.0417
   11ccc    H14  313   4.529   4.101   3.774  0.5918 -2.0754  0.7583
   11ccc    H15  314   5.130   3.846   4.106 -2.7278  0.0484  0.3639
   12ccc     N1  315   3.763   3.706   4.613  0.2813 -0.5581 -0.0500
   12ccc     H1  316   3.780   3.805   4.599 -2.5106 -0.1457 -0.7161
   12ccc     C1  317   3.645   3.663   4.556  0.7282 -0.2803 -0.5340
   12ccc     H2  318   3.670   3.577   4.492  1.8946 -0.9807  0.8201
   12ccc     C2  319   3.581   3.779   4.469  0.1300  0.2190  0.3473
   12ccc     H3  320   3.572   3.618   4.623 -2.0634  1.7453 -2.1185
   12ccc     H4  321   3.489   3.742   4.421  0.7820  0.5574 -1.1709
   12ccc     H5  322   3.651   3.801   4.388 -0.1561  0.5548  0.1896
   12ccc     N2  323   3.556   3.914   4.531 -0.0538  0.0059 -0.1346
   12ccc     C3  324   3.510   4.026   4.435 -0.4270 -0.4382  0.0497
   12ccc     C4  325   3.475   3.896   4.654 -0.1825  0.0181  0.4045
   12ccc     H6  326   3.367   3.892   4.632 -0.1125 -0.6209  0.1636
   12ccc     C5  327   3.512   4.022   4.740  0.6057 -0.3771  0.5636
   12ccc     H7  328   3.502   3.804   4.706  0.5036 -0.1531 -0.2503
   12ccc     H8  329   3.622   4.024   4.751  0.5709  0.8609  0.7588
   12ccc     H9  330   3.473   4.114   4.696  1.5053  0.0184  0.5745
   12ccc     C6  331   3.461   4.025   4.881 -0.5557  0.2410 -0.2031
   12ccc     O1  332   3.486   4.142   4.943  0.1795 -0.1807  0.4156
   12ccc     O2  333   3.435   3.930   4.953 -0.2061 -0.3345 -0.2501
   12ccc    H10  334   3.505   4.120   4.491  0.1722 -1.2396  1.4604
   12ccc    H11  335   3.413   4.004   4.388 -0.7674  1.0770  0.0318
   12ccc     C7  336   3.616   4.060   4.323 -0.8575 -0.3810  0.0372
   12ccc    H12  337   3.609   3.982   4.246  0.0661 -0.2549 -0.1764
   12ccc    H13  338   3.719   4.060   4.359 -1.3795 -1.4256  1.5570
   12ccc     C8  339   3.591   4.197   4.263 -0.5596 -0.0943 -0.7095
   12ccc     O3  340   3.507   4.283   4.302 -0.0629 -0.0239 -0.7699
   12ccc     O4  341   3.665   4.228   4.150 -0.0409  0.6305  0.1334
   12ccc    H14  342   3.540   4.186   4.875  0.9443  0.0610  1.1784
   12ccc    H15  343   3.720   4.150   4.135 -0.3260  1.1842 -4.2437
   13ccc     N1  344   4.372   3.856   5.278 -0.4518  0.2460  0.7501
   13ccc     H1  345   4.453   3.856   5.218 -1.5994  0.8437 -0.8413
   13ccc     C1  346   4.385   3.883   5.426 -0.2793 -0.6183 -0.0599
   13ccc     H2  347   4.298   3.935   5.468 -0.5862 -0.8182 -0.4535
   13ccc     C2  348   4.519   3.971   5.446  0.0437  0.6752 -0.2284
   13ccc     H3  349   4.405   3.784   5.469 -0.7123 -0.8235 -0.3272
   13ccc     H4  350   4.534   3.974   5.554  0.9412  0.0350 -0.3295
   13ccc     H5  351   4.507   4.070   5.402  0.7421  1.0253  0.3668
   13ccc     N2  352   4.645   3.911   5.377 -0.4041 -0.4057  0.1472
   13ccc     C3  353   4.750   4.016   5.358 -0.0573 -0.4017 -0.0398
   13ccc     C4  354   4.680   3.775   5.399  0.2134  0.4687  0.0861
   13ccc     H6  355   4.589   3.718   5.375 -1.4998  1.9293  2.7818
   13ccc     C5  356   4.716   3.752   5.546  0.6444  0.0684 -0.0779
   13ccc     H7  357   4.763   3.741   5.336 -1.2461  1.6055 -2.5316
   13ccc     H8  358   4.812   3.803   5.563  1.1702 -1.4239  1.5851
   13ccc     H9  359   4.631   3.794   5.601  1.3901  0.0411  1.1202
   13ccc     C6  360   4.729   3.613   5.596  0.0190 -0.3628 -0.0828
   13ccc     O1  361   4.768   3.604   5.723  0.3307  0.2594 -0.2101
   13ccc     O2  362   4.685   3.517   5.535 -0.0578  0.0231  0.5572
   13ccc    H10  363   4.842   3.981   5.406 -0.0178  0.1068  0.2616
   13ccc    H11  364   4.723   4.113   5.401  5.4211  0.1935  2.5624
   13ccc     C7  365   4.757   4.023   5.206  0.5560  0.0664 -0.6545
   13ccc    H12  366   4.665   4.075   5.176 -0.4940 -0.8472  0.9459
   13ccc    H13  367   4.763   3.922   5.163 -1.3512 -0.1963 -0.3757
   13ccc     C8  368   4.876   4.101   5.154 -0.2652  0.2309 -0.9035
   13ccc     O3  369   4.937   4.183   5.218  0.0864 -0.6801 -0.2241
   13ccc     O4  370   4.875   4.118   5.017  0.3939  0.3626  0.5186
   13ccc    H14  371   4.806   3.693   5.732  1.0522  0.0302 -0.8966
   13ccc    H15  372   4.802   4.061   4.990 -0.0002 -0.0783  2.4451
   14SOL     OW  373   4.794   3.015   2.140  0.1431 -0.2666  0.7486
   14SOL    HW1  374   4.764   3.083   2.201  3.3116  1.9966 -0.0784
   14SOL    HW2  375   4.861   2.967   2.189  1.3547  0.3429 -0.3063
   15SOL     OW  376   1.070   0.044   3.338  0.3985  0.7499  0.3258
   15SOL    HW1  377   0.998   0.084   3.291 -0.7403 -0.9323  0.5832
   15SOL    HW2  378   1.100  -0.027   3.281  1.2571  0.8601  0.6192
   16SOL     OW  379   3.678   5.277   4.588 -0.1652  0.0962 -0.2388
   16SOL    HW1  380   3.744   5.209   4.574 -0.2021 -0.0120  0.1085
   16SOL    HW2  381   3.605   5.251   4.532 -0.8491 -1.0774  1.1521
   17SOL     OW  382   4.569   2.088   2.149 -0.4434  0.0229  0.2398
   17SOL    HW1  383   4.657   2.085   2.187  0.3549  2.4360 -1.3261
   17SOL    HW2  384   4.583   2.084   2.055 -1.9716  0.7827 -0.0339
   18SOL     OW  385   2.748   3.827   1.434  0.0244 -0.5252 -0.2556
   18SOL    HW1  386   2.682   3.758   1.445 -0.2966 -0.1021  0.5650
   18SOL    HW2  387   2.714   3.900   1.485  0.9930 -0.2017 -0.0653
   19SOL     OW  388   4.880   4.310   2.274  0.0936 -0.7925  0.6295
   19SOL    HW1  389   4.877   4.218   2.302  1.3155 -0.6969  1.0830
   19SOL    HW2  390   4.971   4.335   2.283  0.1989 -0.1888 -1.6609
   20SOL     OW  391   3.043   4.869   4.794 -0.4577  0.5333 -0.5605
   20SOL    HW1  392   2.975   4.815   4.753 -0.2845  0.9372 -1.3850
   20SOL    HW2  393   3.051   4.945   4.737  0.7698  0.4358 -0.5325
   21SOL     OW  394   2.972   0.745   4.994 -0.4974  0.2507 -0.1356
   21SOL    HW1  395   3.013   0.658   4.991 -0.9986  0.0595 -1.5814
   21SOL    HW2  396   2.962   0.771   4.903 -0.3508  1.8490  0.2801
   22SOL     OW  397   3.525   4.159   5.200 -0.3523  0.3802  0.2098
   22SOL    HW1  398   3.446   4.130   5.247 -1.4290  2.6698 -0.1120
   22SOL    HW2  399   3.504   4.146   5.108 -0.0106  0.1472  0.1663
   23SOL     OW  400   5.180   2.849   4.483 -0.0334  0.3780  0.2692
   23SOL    HW1  401   5.129   2.816   4.409  0.6739 -0.5527  0.1828
   23SOL    HW2  402   5.265   2.872   4.445  0.6937 -1.0783  0.9459
   24SOL     OW  403   1.954   3.911   3.655 -0.5795 -0.1000  0.5353
   24SOL    HW1  404   1.995   3.997   3.641 -0.3081 -0.5860 -1.7921
   24SOL    HW2  405   1.860   3.927   3.643 -0.5442 -0.1049  0.2580
   25SOL     OW  406   4.868   1.446   1.618  0.1781  0.0898  0.1221
   25SOL    HW1  407   4.865   1.522   1.559  1.1101  0.3423  0.4002
   25SOL    HW2  408   4.811   1.471   1.691 -0.0595  0.2497 -0.1176
   26SOL     OW  409   3.049   0.334   3.044 -0.5990 -0.0356 -0.0192
   26SOL    HW1  410   3.137   0.331   3.007 -1.1026 -1.3042 -1.1751
   26SOL    HW2  411   3.005   0.404   2.996 -0.3875  0.2061  0.1435
   27SOL     OW  412   1.195   2.748   0.480 -0.1470 -0.1391  0.4866
   27SOL    HW1  413   1.209   2.822   0.420 -0.8862 -0.0038  0.4817
   27SOL    HW2  414   1.259   2.682   0.451 -0.2112  0.0865 -0.1837
   28SOL     OW  415   0.598   4.104   2.416 -0.0801 -0.4783 -0.1488
   28SOL    HW1  416   0.613   4.061   2.332 -1.0538  0.2908 -0.7286
   28SOL    HW2  417   0.682   4.099   2.462  0.6895 -0.1205 -1.5158
   29SOL     OW  418   4.987   0.687   1.264 -0.7885 -0.5813  0.3118
   29SOL    HW1  419   5.034   0.767   1.289 -2.1875  0.0324  1.0159
   29SOL    HW2  420   4.931   0.668   1.339  0.3839 -2.9021  0.6406
   30SOL     OW  421   2.634   3.324   5.207 -0.0402 -0.0358  0.0920
   30SOL    HW1  422   2.706   3.267   5.180 -0.5223 -0.2320 -0.7929
   30SOL    HW2  423   2.605   3.287   5.290  1.7135  0.8094  1.1026
   31SOL     OW  424   2.791   4.463   5.528  0.0248  0.4573  0.8944
   31SOL    HW1  425   2.736   4.399   5.483 -1.3071  1.4531  1.0672
   31SOL    HW2  426   2.880   4.442   5.501 -0.3283 -1.8155  1.3907
   32SOL     OW  427   1.121   3.907   2.191 -0.1981  0.9401 -0.3158
   32SOL    HW1  428   1.069   3.951   2.124 -1.5606 -1.3417 -0.7934
   32SOL    HW2  429   1.161   3.833   2.145  1.1654  1.0143  0.7349
   33SOL     OW  430   1.129   0.145   2.626  0.5964 -0.5305 -0.4639
   33SOL    HW1  431   1.208   0.118   2.673  0.6495  1.0392  0.3702
   33SOL    HW2  432   1.156   0.148   2.534  1.1987 -1.0978 -0.3111
   34SOL     OW  433   2.447   4.416   1.894 -0.4269  0.5822 -0.0413
   34SOL    HW1  434   2.484   4.402   1.981 -0.6851  1.4258  0.2122
   34SOL    HW2  435   2.360   4.376   1.899 -0.8981  1.6323  0.4662
   35SOL     OW  436   3.437   2.268   3.724  0.4304  0.0827 -0.3428
   35SOL    HW1  437   3.516   2.298   3.678  0.2017 -0.7582 -1.3087
   35SOL    HW2  438   3.411   2.342   3.779  1.5541  0.5762 -0.4664
   36SOL     OW  439   5.035   5.072   1.665  0.0244 -0.2951 -0.0767
   36SOL    HW1  440   5.100   5.140   1.683 -0.7376  0.5536 -0.4809
   36SOL    HW2  441   5.065   5.031   1.584  0.5987 -0.5828  0.2806
   37SOL     OW  442   3.416   3.517   1.526 -0.4251 -0.1060  0.0372
   37SOL    HW1  443   3.415   3.441   1.468 -2.3863  0.8724 -1.2611
   37SOL    HW2  444   3.345   3.501   1.588 -0.0547  0.1093  0.5239
   38SOL     OW  445   1.018   4.031   4.838 -0.2795 -0.0651  0.1645
   38SOL    HW1  446   1.059   4.106   4.880 -3.6702  0.0202  3.5588
   38SOL    HW2  447   1.075   3.957   4.860  1.0031  0.8680  0.0382
   39SOL     OW  448   3.298   0.271   5.498 -0.4012  0.6824  0.2074
   39SOL    HW1  449   3.348   0.212   5.553 -0.3536  1.0267  0.5310
   39SOL    HW2  450   3.252   0.213   5.437 -1.3007  0.2250  1.2965
   40SOL     OW  451   5.087   3.865   1.481 -0.1389  0.2855 -0.2903
   40SOL    HW1  452   5.176   3.833   1.463 -0.0230 -0.2176  1.0863
   40SOL    HW2  453   5.100   3.946   1.530 -0.4252 -0.4614  1.0440
   41SOL     OW  454   2.190   3.564   1.074 -0.0564 -0.2048  0.2878
   41SOL    HW1  455   2.218   3.528   0.990 -0.4441 -1.2256  0.5946
   41SOL    HW2  456   2.240   3.646   1.083 -0.2785  0.0785 -1.0905
   42SOL     OW  457   3.361   2.084   5.469  0.0011 -0.6096  0.3748
   42SOL    HW1  458   3.291   2.148   5.455 -0.0736 -0.7093  0.2922
   42SOL    HW2  459   3.428   2.131   5.518  0.8459  0.1180 -1.4455
   43SOL     OW  460   2.018   1.432   4.092  0.7913  0.1124  0.1707
   43SOL    HW1  461   1.936   1.468   4.127 -0.5308  0.0553 -2.7002
   43SOL    HW2  462   2.006   1.337   4.095 -0.4354  0.1257 -2.7808
   44SOL     OW  463   5.191   1.220   5.410 -0.1354 -0.4395  0.4507
   44SOL    HW1  464   5.148   1.134   5.414 -2.5589  0.7173 -0.1828
   44SOL    HW2  465   5.122   1.280   5.383  2.2495  1.2347 -2.1390
   45SOL     OW  466   3.761   1.324   3.818  0.2336 -0.3532  0.5368
   45SOL    HW1  467   3.722   1.259   3.761 -1.4999  1.6659 -0.6323
   45SOL    HW2  468   3.856   1.313   3.806 -0.0832 -1.2405 -1.2212
   46SOL     OW  469   4.698   4.612   0.159 -0.1238  0.1806 -0.5876
   46SOL    HW1  470   4.757   4.634   0.232  0.4583 -1.6662 -0.4450
   46SOL    HW2  471   4.626   4.674   0.166  0.5509  0.8352  0.8119
   47SOL     OW  472   1.725   2.374   2.169  0.5564  0.2736 -0.3108
   47SOL    HW1  473   1.734   2.409   2.258  0.0805  1.9610 -0.8998
   47SOL    HW2  474   1.637   2.401   2.142  0.7736 -0.0500 -1.3608
   48SOL     OW  475   2.414   2.801   2.343  0.0018  0.2327 -0.2135
   48SOL    HW1  476   2.474   2.780   2.415 -1.3555 -0.0500  0.8487
   48SOL    HW2  477   2.349   2.731   2.345  1.0895 -0.9420 -3.0502
   49SOL     OW  478   2.363   0.792   4.721  0.3129 -0.4243 -0.6304
   49SOL    HW1  479   2.278   0.827   4.750 -0.5277 -1.5209 -1.7375
   49SOL    HW2  480   2.427   0.839   4.775 -0.9444  0.9451 -0.2730
   50SOL     OW  481   4.782   2.182   0.695 -0.6275  0.0454 -0.0008
   50SOL    HW1  482   4.721   2.113   0.722 -2.3871  1.3762 -0.4610
   50SOL    HW2  483   4.733   2.233   0.630  0.7847  1.4951  0.0386
   51SOL     OW  484   0.938   3.939   0.734 -0.0787  0.2035 -0.3064
   51SOL    HW1  485   0.953   3.874   0.804 -0.0429 -0.1360 -0.6267
   51SOL    HW2  486   0.843   3.952   0.735  0.0515  1.1437  0.6434
   52SOL     OW  487   1.266   1.510   4.246  0.8036  0.6875 -0.4161
   52SOL    HW1  488   1.216   1.493   4.166  1.4697 -2.3382 -0.2434
   52SOL    HW2  489   1.358   1.500   4.219  0.9972 -1.2579  0.8860
   53SOL     OW  490   0.376   2.604   4.193 -0.3931 -0.1659  0.2570
   53SOL    HW1  491   0.330   2.528   4.158  1.5797 -0.1309 -2.6492
   53SOL    HW2  492   0.465   2.572   4.209 -0.0082  1.0779  0.6613
   54SOL     OW  493   4.325   4.920   2.389 -0.2013  0.0865 -0.5211
   54SOL    HW1  494   4.354   4.887   2.474  0.1464 -0.5615 -0.8855
   54SOL    HW2  495   4.401   4.908   2.331 -0.1168  1.4032 -0.6974
   55SOL     OW  496   0.666   4.696   1.154  0.2974 -0.2596  0.1466
   55SOL    HW1  497   0.744   4.742   1.123  0.3643  1.2639  2.3930
   55SOL    HW2  498   0.698   4.640   1.225 -0.5715  0.1203  0.8551
   56SOL     OW  499   4.799   1.285   3.268  0.3289  0.1140 -0.2884
   56SOL    HW1  500   4.784   1.377   3.247 -1.2557 -0.1146 -0.2431
   56SOL    HW2  501   4.809   1.242   3.184  0.2305  0.1935 -0.3408
   57SOL     OW  502   4.844   1.427   4.564 -0.1375  0.3433 -0.2595
   57SOL    HW1  503   4.923   1.462   4.522  0.0074 -2.0902 -2.0388
   57SOL    HW2  504   4.772   1.476   4.524  0.2319  0.3695 -0.8947
   58SOL     OW  505   0.345   3.800   3.222 -0.6357  0.0293 -0.1135
   58SOL    HW1  506   0.303   3.841   3.298  0.3024  0.6092  0.1098
   58SOL    HW2  507   0.341   3.706   3.239 -0.4821  0.1572  0.6206
   59SOL     OW  508   3.700   2.654   2.984  0.0268 -0.1911 -0.2055
   59SOL    HW1  509   3.761   2.585   3.008  0.1619  0.4593  1.4006
   59SOL    HW2  510   3.674   2.634   2.894  0.2783 -2.1712  0.1455
   60SOL     OW  511   4.964   0.404   3.702 -0.0541  0.3810 -0.2038
   60SOL    HW1  512   5.018   0.458   3.644 -0.4350  1.4328  0.4099
   60SOL    HW2  513   4.912   0.467   3.752  2.0910 -0.3678  3.1317
   61SOL     OW  514   3.434   5.163   1.575  0.0689  0.6811  0.4302
   61SOL    HW1  515   3.493   5.125   1.511  1.7467  0.9780  1.7470
   61SOL    HW2  516   3.383   5.089   1.608  1.4213  0.0022  1.0341
   62SOL     OW  517   0.670   1.799   1.827 -0.1371 -0.5085 -0.1716
   62SOL    HW1  518   0.682   1.730   1.892 -0.1957  0.9632  1.4335
   62SOL    HW2  519   0.752   1.799   1.777 -0.2199 -1.8706 -0.3381
   63SOL     OW  520   4.128   4.969   3.888  0.2496 -0.2301 -0.0329
   63SOL    HW1  521   4.120   4.907   3.960 -0.4183  1.0102  0.9694
   63SOL    HW2  522   4.207   5.018   3.906  0.7229 -0.7054 -0.7762
   64SOL     OW  523   1.556   4.807   2.314 -0.1190  0.3387  0.0069
   64SOL    HW1  524   1.483   4.770   2.264 -1.3386  0.4155  1.6930
   64SOL    HW2  525   1.575   4.890   2.270  0.6734 -0.8482 -1.9988
   65SOL     OW  526   2.807   0.535   0.938 -0.6188  0.3671  0.0041
   65SOL    HW1  527   2.714   0.518   0.920 -0.8517  0.7800  0.8017
   65SOL    HW2  528   2.817   0.521   1.032  0.1552  0.2055 -0.1008
   66SOL     OW  529   5.302   4.979   0.508  0.1469  0.2460 -0.0485
   66SOL    HW1  530   5.221   5.028   0.524  1.2702  1.6775  1.4993
   66SOL    HW2  531   5.339   5.020   0.430  0.7513  1.4789  0.8596
   67SOL     OW  532   3.587   3.185   0.361 -0.6463 -0.0645 -0.4168
   67SOL    HW1  533   3.502   3.154   0.391 -0.7795  1.0870  0.4029
   67SOL    HW2  534   3.579   3.188   0.266 -1.7341  0.6319 -0.3149
   68SOL     OW  535   2.896   0.930   1.321  0.4124  0.9375 -0.4537
   68SOL    HW1  536   2.935   0.909   1.405  1.2383 -0.2690 -1.1192
   68SOL    HW2  537   2.805   0.952   1.341  0.4000 -0.0855  0.6724
   69SOL     OW  538   3.756   1.998   3.152 -0.0456 -0.7313  0.3512
   69SOL    HW1  539   3.707   2.000   3.070  0.5323 -1.5333 -0.0099
   69SOL    HW2  540   3.706   2.055   3.210 -0.3982 -0.0698 -0.5862
   70SOL     OW  541   2.840   2.314   3.341 -0.0173  0.5682  0.3259
   70SOL    HW1  542   2.792   2.294   3.421 -0.2476 -1.0655 -0.1959
   70SOL    HW2  543   2.870   2.229   3.309 -0.4506  1.1157 -1.6292
   71SOL     OW  544   0.014   5.397   1.556 -0.9189 -0.3109  1.2843
   71SOL    HW1  545  -0.062   5.437   1.515 -0.9669 -0.7543  0.9310
   71SOL    HW2  546   0.056   5.468   1.604 -1.4495 -0.0239  1.3270
   72SOL     OW  547   3.631   0.851   3.931  0.2994  0.2162 -0.9916
   72SOL    HW1  548   3.703   0.801   3.893  1.0967  0.3342  0.3723
   72SOL    HW2  549   3.552   0.812   3.892  1.1257  0.8159 -3.3494
   73SOL     OW  550   4.069   0.171   1.636 -0.3321  0.1824 -0.1974
   73SOL    HW1  551   4.160   0.144   1.627 -0.4451  0.0227 -0.9089
   73SOL    HW2  552   4.021   0.115   1.575 -0.8727  0.4474 -0.0215
   74SOL     OW  553   0.566   0.803   0.071  0.4488 -0.1182 -0.1624
   74SOL    HW1  554   0.655   0.836   0.060 -0.2179  1.4220 -1.0443
   74SOL    HW2  555   0.523   0.868   0.127 -0.4738 -0.1942 -0.7679
   75SOL     OW  556   3.924   5.455   2.654  0.4535 -0.0058 -0.8824
   75SOL    HW1  557   3.994   5.461   2.589  1.2326  2.1931  0.1028
   75SOL    HW2  558   3.880   5.540   2.649  0.0977 -0.0638  0.9620
   76SOL     OW  559   4.815   0.448   0.034  0.1193 -0.0931  0.0434
   76SOL    HW1  560   4.824   0.537   0.065 -1.6651 -0.0678  0.5819
   76SOL    HW2  561   4.720   0.435   0.027  0.3717 -1.7604 -0.5372
   77SOL     OW  562   2.180   1.487   5.465  0.6002 -0.0376 -0.0838
   77SOL    HW1  563   2.191   1.567   5.517 -0.3104 -0.9973  1.6295
   77SOL    HW2  564   2.142   1.424   5.526  1.4001 -1.8233 -1.3884
   78SOL     OW  565   3.767   1.167   4.914 -0.0912 -0.0794 -0.1957
   78SOL    HW1  566   3.696   1.222   4.881  0.3483  1.5575  1.4765
   78SOL    HW2  567   3.733   1.131   4.996  0.6374 -0.0853  0.1067
   79SOL     OW  568   3.539   0.245   2.049  0.2839 -0.5557 -0.0695
   79SOL    HW1  569   3.554   0.150   2.047  1.6076 -0.3301 -1.6580
   79SOL    HW2  570   3.615   0.280   2.095 -0.0356 -0.2332  0.2127
   80SOL     OW  571   2.751   1.578   0.963  0.1229 -0.1095 -0.2361
   80SOL    HW1  572   2.825   1.530   1.001  0.8540  0.3847 -1.0233
   80SOL    HW2  573   2.778   1.595   0.872 -0.8340  0.3268 -0.4363
   81SOL     OW  574   4.864   4.416   5.087 -0.0277 -0.3579 -0.1116
   81SOL    HW1  575   4.877   4.335   5.037 -2.3891  0.3337 -1.9330
   81SOL    HW2  576   4.806   4.392   5.159 -2.4992  0.0922 -1.8835
   82SOL     OW  577   0.910   2.810   1.414 -0.0392 -0.9197  0.1645
   82SOL    HW1  578   0.838   2.863   1.379 -0.3434 -1.1437  0.4475
   82SOL    HW2  579   0.961   2.784   1.337  0.0664 -0.2821  0.0164
   83SOL     OW  580   5.232   5.257   1.764 -0.1783  0.1217  0.5694
   83SOL    HW1  581   5.233   5.352   1.754  1.0602  0.2411  1.5964
   83SOL    HW2  582   5.312   5.238   1.814 -0.1737 -1.5023 -0.0325
   84SOL     OW  583   2.023   0.642   4.819 -0.0964  0.3872 -0.3225
   84SOL    HW1  584   2.067   0.678   4.896 -1.3175  0.0365  0.5622
   84SOL    HW2  585   1.978   0.717   4.779  0.6033  0.5844 -0.7491
   85SOL     OW  586   0.167   5.241   4.765  0.4246  0.0595 -0.6404
   85SOL    HW1  587   0.080   5.269   4.794  0.4893 -1.6516  1.3195
   85SOL    HW2  588   0.152   5.160   4.716  0.8480  0.1220 -0.8775
   86SOL     OW  589   1.279   2.523   1.922 -0.0910  0.0639 -0.3861
   86SOL    HW1  590   1.197   2.503   1.968  0.1921  2.3028  1.1690
   86SOL    HW2  591   1.258   2.602   1.872  0.7553 -0.1129 -1.0145
   87SOL     OW  592   1.594   0.016   3.454  0.2398 -0.1063  0.3988
   87SOL    HW1  593   1.609   0.023   3.359 -0.8095  0.2549  0.2515
   87SOL    HW2  594   1.597  -0.078   3.472  0.6185 -0.1662  0.0354
   88SOL     OW  595   3.275   2.710   1.613 -0.3584 -0.4168 -0.3561
   88SOL    HW1  596   3.299   2.792   1.570 -1.2325 -0.3376 -0.7046
   88SOL    HW2  597   3.290   2.643   1.546 -0.9841 -0.3818 -0.5312
   89SOL     OW  598   1.181   5.079   1.072  0.3330 -0.2111  0.1821
   89SOL    HW1  599   1.206   5.149   1.013  1.9663 -0.5096  0.5154
   89SOL    HW2  600   1.139   5.014   1.015 -0.2331  0.5514 -0.2818
   90SOL     OW  601   5.087   5.187   4.053  0.0750 -0.3689 -0.2602
   90SOL    HW1  602   5.152   5.120   4.035  0.7449 -0.2777  1.7422
   90SOL    HW2  603   5.074   5.184   4.148 -0.6264  1.6370 -0.2592
   91SOL     OW  604   4.346   2.631   4.102 -0.2305 -0.3891 -0.0062
   91SOL    HW1  605   4.364   2.684   4.180 -0.0267  0.1537 -0.4204
   91SOL    HW2  606   4.379   2.544   4.124 -0.8323 -0.4217  0.7869
   92SOL     OW  607   3.773   4.979   3.945 -0.4744 -0.0880 -0.2648
   92SOL    HW1  608   3.726   4.903   3.981 -1.4355 -0.1079 -1.5174
   92SOL    HW2  609   3.839   4.942   3.887 -1.7095  0.0382 -1.7875
   93SOL     OW  610   4.837   4.916   3.644  0.2407  0.1482 -0.1389
   93SOL    HW1  611   4.783   4.985   3.607 -0.1822  0.3886  0.9150
   93SOL    HW2  612   4.874   4.955   3.724  0.9043 -0.4594 -0.1453
   94SOL     OW  613   5.128   4.396   4.988  0.2915 -0.3271  0.8563
   94SOL    HW1  614   5.049   4.421   5.036  0.7983  1.9671  0.5393
   94SOL    HW2  615   5.193   4.462   5.012  1.4821 -0.9645 -0.5418
   95SOL     OW  616   1.715   4.248   3.553 -0.0087 -0.5618  1.0562
   95SOL    HW1  617   1.810   4.235   3.544 -0.2874 -0.7773 -2.0819
   95SOL    HW2  618   1.682   4.164   3.584  0.7816 -0.5798  1.8567
   96SOL     OW  619   0.918   3.489   2.948 -0.2511 -0.0042 -0.6351
   96SOL    HW1  620   0.947   3.477   3.039  1.7148 -0.3920 -1.2909
   96SOL    HW2  621   0.847   3.425   2.937 -0.9415  0.4783  0.7968
   97SOL     OW  622   0.538   3.440   2.542  0.6628 -0.1330 -0.3310
   97SOL    HW1  623   0.605   3.507   2.537  1.9447 -1.3741 -0.1462
   97SOL    HW2  624   0.518   3.420   2.450  1.7749 -0.9465 -0.4086
   98SOL     OW  625   1.716   3.166   4.729  0.4682 -0.6353 -0.0929
   98SOL    HW1  626   1.633   3.158   4.683  1.0092  0.3493 -1.2860
   98SOL    HW2  627   1.699   3.133   4.817 -1.0656 -0.8361 -0.4609
   99SOL     OW  628   3.190   3.621   3.095 -0.0759  0.3979  0.0352
   99SOL    HW1  629   3.148   3.702   3.123  0.1444  0.6349 -0.3204
   99SOL    HW2  630   3.162   3.609   3.005  0.3289  0.3627 -0.0845
  100SOL     OW  631   5.063   4.962   1.006  0.4530  0.0517 -0.0247
  100SOL    HW1  632   5.124   4.944   0.935  0.5136  0.4989 -0.0837
  100SOL    HW2  633   4.994   5.015   0.966 -0.1317 -0.7003 -0.0292
  101SOL     OW  634   4.951   4.455   1.574  0.4707 -0.1080 -0.0474
  101SOL    HW1  635   4.966   4.391   1.504  0.2722 -1.4645  1.1274
  101SOL    HW2  636   4.879   4.509   1.542  1.0907 -0.0383 -1.3476
  102SOL     OW  637   0.811   1.443   4.497 -0.0774  0.1366 -0.5617
  102SOL    HW1  638   0.760   1.468   4.574  1.2591 -1.4535  0.8870
  102SOL    HW2  639   0.774   1.358   4.471  0.4199 -0.0065 -0.7978
  103SOL     OW  640   0.557   1.043   1.439 -0.1208  0.3303  0.1180
  103SOL    HW1  641   0.600   1.103   1.499  0.4000  0.8707 -0.7937
  103SOL    HW2  642   0.488   1.095   1.398  0.0566  0.1854 -0.3607
  104SOL     OW  643   4.007   5.032   2.653 -0.5034 -0.2894 -0.6784
  104SOL    HW1  644   4.083   5.083   2.626 -0.0593 -2.0274 -2.8836
  104SOL    HW2  645   3.987   5.063   2.742  1.9060  1.1581 -0.6022
  105SOL     OW  646   0.640   5.200   2.258  0.1358 -0.3111  0.0497
  105SOL    HW1  647   0.549   5.223   2.238  0.7532  0.0363 -2.6360
  105SOL    HW2  648   0.682   5.284   2.277  0.7155  0.0428 -2.5179
  106SOL     OW  649   1.303   2.938   1.591  0.7302 -0.0687  0.1832
  106SOL    HW1  650   1.256   3.020   1.606  0.5641 -0.3587  1.3161
  106SOL    HW2  651   1.394   2.964   1.577  0.3050  0.4792 -1.8069
  107SOL     OW  652   2.265   0.700   0.315 -0.5874  0.0580 -0.0460
  107SOL    HW1  653   2.338   0.641   0.298 -0.7584 -0.8356  2.1058
  107SOL    HW2  654   2.305   0.786   0.329  0.0234 -0.3285  0.6212
  108SOL     OW  655   2.761   4.112   0.683 -0.0456  0.7610 -0.0784
  108SOL    HW1  656   2.688   4.076   0.733  0.3548  1.1660  0.8042
  108SOL    HW2  657   2.733   4.200   0.660 -1.3677 -0.3273 -2.9394
  109SOL     OW  658   0.385   5.357   5.554 -0.9755 -0.0304 -0.1250
  109SOL    HW1  659   0.355   5.445   5.532 -1.6094 -0.5608 -1.4936
  109SOL    HW2  660   0.311   5.300   5.530 -0.4360 -0.9633  0.4020
  110SOL     OW  661   4.102   5.202   0.503  0.5257 -0.5122 -0.1260
  110SOL    HW1  662   4.030   5.264   0.498 -0.2005 -1.4675 -1.9586
  110SOL    HW2  663   4.181   5.256   0.496 -0.0437  0.3908  0.3813
  111SOL     OW  664   3.381   5.022   4.784  0.2604  0.3255  0.8064
  111SOL    HW1  665   3.456   5.081   4.793 -0.4295  1.3431  0.0293
  111SOL    HW2  666   3.305   5.079   4.789 -0.3888 -0.3531 -1.0761
  112SOL     OW  667   0.129   1.589   2.583  0.3367 -0.2267  0.4787
  112SOL    HW1  668   0.222   1.609   2.590  0.2344  0.3593  0.1798
  112SOL    HW2  669   0.086   1.653   2.640  0.0287  0.2213 -0.2541
  113SOL     OW  670   4.962   1.232   4.714  0.1547  0.1146  0.3547
  113SOL    HW1  671   4.909   1.300   4.671  0.6366 -0.2793 -0.8937
  113SOL    HW2  672   5.020   1.200   4.644 -1.4790 -3.0343  0.3787
  114SOL     OW  673   1.117   3.550   0.698  0.1495  0.7074 -0.2157
  114SOL    HW1  674   1.131   3.493   0.774  0.8883  0.4165 -0.5636
  114SOL    HW2  675   1.165   3.630   0.720  0.3105  0.6470 -0.3436
  115SOL     OW  676   4.165   1.814   1.253 -0.2564  0.8036 -0.1357
  115SOL    HW1  677   4.101   1.863   1.201  0.2911  1.6255 -0.0358
  115SOL    HW2  678   4.235   1.877   1.270  0.3669  0.0340  0.1385
  116SOL     OW  679   2.745   1.489   3.923 -0.1172 -0.2918 -0.5675
  116SOL    HW1  680   2.693   1.504   3.844  0.0045 -1.3834 -0.8572
  116SOL    HW2  681   2.749   1.394   3.932  0.7049 -0.1931  0.2067
  117SOL     OW  682   1.094   0.999   0.216 -0.2522 -0.3911  0.0730
  117SOL    HW1  683   1.054   0.912   0.213  1.2404 -1.0698 -0.7466
  117SOL    HW2  684   1.022   1.059   0.194 -0.5939 -1.6660 -2.5606
  118SOL     OW  685   2.120   5.455   5.411  0.2784  0.2917  0.2238
  118SOL    HW1  686   2.100   5.451   5.505 -0.9782  1.2065  0.0019
  118SOL    HW2  687   2.046   5.412   5.369  1.1003 -0.6010 -0.3384
  119SOL     OW  688   4.830   0.648   0.469  0.1075  0.0035 -0.2069
  119SOL    HW1  689   4.868   0.625   0.384  2.0703 -0.6231  0.8182
  119SOL    HW2  690   4.736   0.632   0.458  0.4947 -1.2369 -1.8765
  120SOL     OW  691   2.523   3.313   2.888  0.3876  0.4107  0.2149
  120SOL    HW1  692   2.529   3.339   2.979 -0.1834 -1.3091  0.7567
  120SOL    HW2  693   2.612   3.285   2.865  0.1825 -0.6740  0.7204
  121SOL     OW  694   4.320   4.815   1.575 -0.4060  0.4206  0.1349
  121SOL    HW1  695   4.402   4.858   1.550  0.1573 -0.6438  0.0658
  121SOL    HW2  696   4.263   4.826   1.499 -0.3108  1.1410  0.1692
  122SOL     OW  697   1.344   2.589   3.186 -0.0349 -0.2934  0.3453
  122SOL    HW1  698   1.357   2.541   3.268 -0.9736  0.0290  0.6938
  122SOL    HW2  699   1.357   2.681   3.210 -0.2521 -0.2021  0.1124
  123SOL     OW  700   3.256   1.964   1.370 -0.0058 -0.1466  0.1496
  123SOL    HW1  701   3.198   2.001   1.437  0.7808 -3.0073  2.5187
  123SOL    HW2  702   3.220   1.877   1.352  0.7664 -0.0595 -1.9292
  124SOL     OW  703   0.609   1.707   3.904 -0.6453  0.2475 -0.8006
  124SOL    HW1  704   0.574   1.746   3.983 -0.4319  0.8109 -0.9828
  124SOL    HW2  705   0.645   1.781   3.854  0.9463 -0.3348 -0.5393
  125SOL     OW  706   0.709   5.010   0.881 -0.1510  0.3120 -0.1196
  125SOL    HW1  707   0.696   5.102   0.855 -0.3548  0.6794  1.2374
  125SOL    HW2  708   0.692   5.010   0.975 -0.0681 -1.1130 -0.1065
  126SOL     OW  709   5.414   3.369   3.629 -0.0487 -0.2400  0.2650
  126SOL    HW1  710   5.497   3.415   3.644 -1.2934  2.5054 -0.9698
  126SOL    HW2  711   5.350   3.417   3.680 -1.5573 -0.0333 -1.7711
  127SOL     OW  712   2.592   2.180   3.516  0.7133 -0.1625  0.2235
  127SOL    HW1  713   2.574   2.243   3.446  1.1004 -0.7474 -0.4173
  127SOL    HW2  714   2.671   2.213   3.559 -0.0057  0.6509  0.9309
  128SOL     OW  715   0.717   2.852   0.079  0.3291  0.0136  0.5455
  128SOL    HW1  716   0.731   2.924   0.017 -0.0295  0.4221  0.9383
  128SOL    HW2  717   0.648   2.799   0.040 -1.2511  1.3217  1.5017
  129SOL     OW  718   3.048   0.726   0.299  0.4941 -0.3726 -0.3222
  129SOL    HW1  719   3.000   0.696   0.221 -0.4536 -1.0182  0.4855
  129SOL    HW2  720   3.134   0.752   0.266 -0.4019  0.7705 -1.8056
  130SOL     OW  721   3.601   5.024   1.134  0.8343  0.2107  0.1015
  130SOL    HW1  722   3.578   5.117   1.127  0.2015 -0.0148 -0.9411
  130SOL    HW2  723   3.521   4.981   1.164  0.7224 -0.1772 -0.7328
  131SOL     OW  724   3.807   3.309   0.476 -0.1817 -0.1495  0.6621
  131SOL    HW1  725   3.729   3.257   0.460  0.7004 -1.3163  0.0263
  131SOL    HW2  726   3.819   3.361   0.397  0.5847 -1.1881  0.0726
  132SOL     OW  727   2.749   4.429   2.440 -0.1668 -0.0179  0.2554
  132SOL    HW1  728   2.749   4.422   2.536 -0.0037  0.8905  0.3240
  132SOL    HW2  729   2.735   4.522   2.423 -1.9415 -0.4276 -0.6216
  133SOL     OW  730   4.000   0.490   2.535  0.3307 -0.1277  0.0943
  133SOL    HW1  731   3.955   0.574   2.535  0.6896  0.0736  1.1969
  133SOL    HW2  732   3.937   0.428   2.500  0.1971  0.6721 -1.0782
  134SOL     OW  733   4.412   1.478   0.889 -0.0855 -0.0209  0.1315
  134SOL    HW1  734   4.366   1.442   0.813  1.1312  0.9985 -1.1187
  134SOL    HW2  735   4.399   1.572   0.882 -0.5890  0.0318  1.6185
  135SOL     OW  736   4.010   4.872   1.394  0.0415 -0.0060  0.4210
  135SOL    HW1  737   3.955   4.904   1.322  1.1853  2.5534  0.6529
  135SOL    HW2  738   3.974   4.785   1.413 -0.7717 -0.4403 -2.7090
  136SOL     OW  739   5.021   0.006   3.547  0.6249  0.2837  0.0147
  136SOL    HW1  740   4.926   0.014   3.549  0.7263  1.4539  0.9243
  136SOL    HW2  741   5.053   0.090   3.581  2.0053  0.5661 -1.8738
  137SOL     OW  742   2.283   2.819   3.712  0.6340 -0.1990 -0.2211
  137SOL    HW1  743   2.259   2.891   3.770  0.7763  1.0142 -1.6235
  137SOL    HW2  744   2.200   2.781   3.684  0.3852  1.9418 -2.5417
  138SOL     OW  745   0.797   5.192   5.166 -0.0060  0.0248  0.2097
  138SOL    HW1  746   0.821   5.281   5.141 -0.6968 -0.2684 -1.5485
  138SOL    HW2  747   0.701   5.191   5.163  0.0404 -1.1837 -1.2541
  139SOL     OW  748   2.075   4.861   0.691  0.1553 -0.1245 -0.3512
  139SOL    HW1  749   2.024   4.803   0.747 -0.0375 -0.5949 -1.0118
  139SOL    HW2  750   2.158   4.815   0.678  0.0763 -0.1644 -0.7156
  140SOL     OW  751   1.924   4.704   3.731  0.0497 -0.0933  0.3921
  140SOL    HW1  752   1.944   4.654   3.652  0.7251 -0.0669  0.5465
  140SOL    HW2  753   1.920   4.639   3.801  2.4101  0.2213  0.8609
  141SOL     OW  754   1.908   1.521   1.386  0.1178 -0.0638 -0.3511
  141SOL    HW1  755   1.867   1.605   1.369 -1.1673 -0.6458 -0.1769
  141SOL    HW2  756   1.974   1.539   1.453 -0.4465  0.7177 -0.0121
  142SOL     OW  757   4.396   5.553   2.488  0.2068  0.7205  0.6378
  142SOL    HW1  758   4.397   5.537   2.393 -0.2709 -3.9644  1.2954
  142SOL    HW2  759   4.488   5.568   2.511  0.5125  0.4141 -0.3631
  143SOL     OW  760   0.038   1.952   1.465  0.3360 -0.1841  0.3142
  143SOL    HW1  761  -0.018   1.915   1.533 -0.5644 -0.6657 -0.6697
  143SOL    HW2  762   0.008   1.911   1.384  0.4367  1.4285 -0.5764
  144SOL     OW  763   2.075   5.330   1.157  0.4188  0.6252  0.0222
  144SOL    HW1  764   2.000   5.289   1.114  1.0079 -0.2268 -0.2043
  144SOL    HW2  765   2.081   5.417   1.117  0.1983  0.3032 -0.7241
  145SOL     OW  766   0.518   0.170   5.385  0.4582  0.1240  0.3222
  145SOL    HW1  767   0.527   0.130   5.471 -2.0377 -0.3518  0.3942
  145SOL    HW2  768   0.438   0.222   5.390 -0.0657 -0.3915 -1.8594
  146SOL     OW  769   3.056   0.371   0.363  0.2562  0.0181 -0.5890
  146SOL    HW1  770   3.150   0.376   0.343  0.4836  0.2792  0.5303
  146SOL    HW2  771   3.053   0.346   0.455 -0.7572  2.3177  0.0289
  147SOL     OW  772   0.778   3.356   4.630  0.3516 -0.1660  0.1948
  147SOL    HW1  773   0.728   3.374   4.550 -0.1896  1.2591  0.8307
  147SOL    HW2  774   0.862   3.324   4.599  0.2727  0.7198 -0.9715
  148SOL     OW  775   0.201   3.282   4.862 -0.0577  0.2604  0.1019
  148SOL    HW1  776   0.238   3.363   4.897 -0.2770  0.6769 -0.6056
  148SOL    HW2  777   0.120   3.269   4.911  1.0698 -0.7165  1.7384
  149SOL     OW  778   2.161   2.021   3.513 -0.2715 -0.5863 -0.4682
  149SOL    HW1  779   2.251   2.054   3.523  0.2481 -2.2910  0.5754
  149SOL    HW2  780   2.114   2.056   3.589 -0.4596  0.1777 -0.9325
  150SOL     OW  781   2.687   3.172   0.803 -0.1575 -0.1878  0.3105
  150SOL    HW1  782   2.736   3.235   0.856  1.8539 -0.9925 -0.5767
  150SOL    HW2  783   2.643   3.226   0.737  0.6421  0.3946  0.2531
  151SOL     OW  784   5.249   4.633   0.350  0.3374 -0.4244 -0.1172
  151SOL    HW1  785   5.280   4.702   0.408 -0.6912 -0.4734  0.5056
  151SOL    HW2  786   5.303   4.558   0.370 -0.0175 -0.4432  0.7936
  152SOL     OW  787   0.895   2.618   2.878 -0.3389 -0.0611  0.2451
  152SOL    HW1  788   0.874   2.526   2.861  2.6636 -0.9096  0.7844
  152SOL    HW2  789   0.964   2.615   2.945 -0.6507  2.6247  0.7561
  153SOL     OW  790   0.509   0.579   5.006 -0.3214  0.5563 -0.2225
  153SOL    HW1  791   0.515   0.649   4.942 -2.0321 -1.6759 -2.9359
  153SOL    HW2  792   0.552   0.614   5.084  2.8424  2.9391 -2.8944
  154SOL     OW  793   2.897   4.997   1.719 -0.1909 -0.0776  0.0933
  154SOL    HW1  794   2.845   5.074   1.741 -1.1848 -0.6160 -0.3868
  154SOL    HW2  795   2.849   4.954   1.648  1.6207  0.2122 -1.3742
  155SOL     OW  796   4.460   5.434   5.299  0.3431 -0.3553 -0.0208
  155SOL    HW1  797   4.409   5.354   5.295 -0.5671  0.2286 -0.1254
  155SOL    HW2  798   4.501   5.432   5.385 -2.6332  0.8624  1.4918
  156SOL     OW  799   2.507   3.771   5.000  0.1086  0.0954  0.2335
  156SOL    HW1  800   2.595   3.736   4.985  0.1509 -0.3324  1.3673
  156SOL    HW2  801   2.449   3.707   4.961  0.3621  1.6447 -2.7929
  157SOL     OW  802   1.944   4.303   1.144  0.1227 -0.1928 -0.1873
  157SOL    HW1  803   1.917   4.246   1.216 -0.2753  0.5999  0.2955
  157SOL    HW2  804   1.864   4.347   1.117  0.5420  0.6177 -0.1294
  158SOL     OW  805   1.190   2.587   1.288 -0.2091 -0.2686  0.3983
  158SOL    HW1  806   1.140   2.536   1.223  2.1012  0.1660 -1.8093
  158SOL    HW2  807   1.202   2.526   1.361  0.9782 -2.3865 -1.4632
  159SOL     OW  808   5.157   0.404   0.671  0.2202  0.1097 -0.0399
  159SOL    HW1  809   5.155   0.400   0.766 -1.0642  0.8109 -0.0200
  159SOL    HW2  810   5.103   0.480   0.649 -0.0923 -0.4661 -1.3487
  160SOL     OW  811   2.433   0.820   5.526 -0.1180 -0.3088  0.1373
  160SOL    HW1  812   2.498   0.841   5.458 -1.9931 -0.5015 -1.7811
  160SOL    HW2  813   2.448   0.728   5.546 -0.5203 -0.6670 -1.1474
  161SOL     OW  814   1.515   0.288   4.670 -0.2729  0.3215 -0.1297
  161SOL    HW1  815   1.474   0.203   4.686  2.4937 -0.8621  1.0429
  161SOL    HW2  816   1.606   0.276   4.698  0.0126  3.8599  0.7127
  162SOL     OW  817   1.079   3.228   3.592  0.2712 -0.1121  0.6095
  162SOL    HW1  818   1.099   3.245   3.500 -0.2128  0.4842  0.6052
  162SOL    HW2  819   1.153   3.177   3.625  0.1776 -0.8160 -0.2567
  163SOL     OW  820   1.469   0.110   1.031  0.5066 -0.3555 -0.4920
  163SOL    HW1  821   1.488   0.083   0.941  1.6499 -2.6704  0.4133
  163SOL    HW2  822   1.517   0.193   1.041 -1.8169  1.3499 -2.8296
  164SOL     OW  823   0.641   4.235   4.944  0.0902 -0.6512  0.0076
  164SOL    HW1  824   0.719   4.262   4.993  0.7165 -0.8734 -0.8588
  164SOL    HW2  825   0.643   4.289   4.865  0.1414 -1.6549 -0.6839
  165SOL     OW  826   1.108   4.497   3.431 -0.3211  0.0068  0.5124
  165SOL    HW1  827   1.049   4.445   3.376  2.7826 -3.2675  0.0489
  165SOL    HW2  828   1.110   4.583   3.390 -1.4446 -1.0975 -1.9964
  166SOL     OW  829   4.616   4.641   4.186  0.5438 -0.1724  0.2577
  166SOL    HW1  830   4.678   4.625   4.257  0.2157 -0.1015  0.5568
  166SOL    HW2  831   4.636   4.574   4.121  0.4568 -0.5899  0.6654
  167SOL     OW  832   5.445   3.081   4.424 -0.4201 -0.1142 -0.4329
  167SOL    HW1  833   5.391   3.033   4.361 -3.1692  2.8349 -0.4810
  167SOL    HW2  834   5.505   3.132   4.370 -0.8976  0.3084 -0.5655
  168SOL     OW  835   2.036   4.997   2.759  0.5040  0.1666 -0.0889
  168SOL    HW1  836   2.028   5.044   2.842  0.4876 -0.8689  0.5042
  168SOL    HW2  837   2.112   5.036   2.717  0.2382  1.0098  0.2104
  169SOL     OW  838   2.122   0.036   5.047 -0.0439  0.1371 -0.7582
  169SOL    HW1  839   2.195  -0.025   5.055 -0.7851 -0.5012  1.6050
  169SOL    HW2  840   2.163   0.122   5.041  0.9141 -0.1308  1.5612
  170SOL     OW  841   4.303   0.080   3.177  0.0968  0.5551  0.3533
  170SOL    HW1  842   4.313  -0.014   3.161  0.6516  0.6266  0.2589
  170SOL    HW2  843   4.224   0.104   3.129  0.2284  0.2358 -0.0289
  171SOL     OW  844   2.404   0.345   1.302  0.0845  0.0307  0.2042
  171SOL    HW1  845   2.345   0.270   1.315 -0.4519  0.7967  2.6598
  171SOL    HW2  846   2.345   0.418   1.285  0.3510  0.5676  1.4763
  172SOL     OW  847   0.809   5.459   4.817  0.2708 -0.8610 -0.1055
  172SOL    HW1  848   0.732   5.406   4.840  0.5546 -1.5323 -0.6637
  172SOL    HW2  849   0.852   5.409   4.748 -0.1277  0.6915 -1.5236
  173SOL     OW  850   0.114   3.979   1.214 -0.2281  0.3885 -0.2207
  173SOL    HW1  851   0.072   4.063   1.232  1.7399  1.7079 -1.4478
  173SOL    HW2  852   0.117   3.974   1.118  0.7968 -0.4701 -0.1586
  174SOL     OW  853   0.084   2.411   1.528  0.7926  0.3430 -0.3129
  174SOL    HW1  854   0.064   2.357   1.604  1.4891  0.3933 -0.0962
  174SOL    HW2  855   0.110   2.496   1.565 -0.9746  1.0763 -0.6584
  175SOL     OW  856   1.389   5.425   1.854 -0.1000  0.1635  0.5500
  175SOL    HW1  857   1.479   5.427   1.885  0.4666 -0.7480 -0.9556
  175SOL    HW2  858   1.347   5.501   1.894  1.7182  1.4032  0.1323
  176SOL     OW  859   3.832   0.851   0.549 -0.1233 -0.0960 -0.4628
  176SOL    HW1  860   3.906   0.860   0.609  0.2797 -0.2856 -0.9355
  176SOL    HW2  861   3.759   0.823   0.606  0.8522 -2.6816 -0.4217
  177SOL     OW  862   2.176   1.683   3.151 -0.8288  0.1365  0.0152
  177SOL    HW1  863   2.232   1.606   3.155 -1.2503 -0.1337  0.8312
  177SOL    HW2  864   2.168   1.711   3.242 -0.7164  1.1169 -0.2690
  178SOL     OW  865   0.848   3.491   4.013  0.0010  0.4659  0.3628
  178SOL    HW1  866   0.845   3.423   4.080  1.1276 -0.0086 -0.0468
  178SOL    HW2  867   0.879   3.445   3.934  0.7070  1.4339  0.0673
  179SOL     OW  868   0.055   3.804   4.334 -0.2727 -0.3601 -0.1057
  179SOL    HW1  869   0.121   3.827   4.268 -0.0207 -2.4077 -0.6238
  179SOL    HW2  870  -0.016   3.865   4.319  1.4898  1.8745  0.4374
  180SOL     OW  871   2.778   0.566   4.060  0.0888 -0.1629  0.3430
  180SOL    HW1  872   2.854   0.624   4.069  0.4035 -0.1674 -1.9769
  180SOL    HW2  873   2.759   0.537   4.150  2.6967 -0.0199  0.9862
  181SOL     OW  874   1.788   0.875   3.442 -0.1776  0.3745  0.1500
  181SOL    HW1  875   1.769   0.967   3.425 -1.2611 -0.1980 -1.8290
  181SOL    HW2  876   1.705   0.839   3.476  0.2928  0.1682  1.0946
  182SOL     OW  877   3.047   0.259   4.689  0.2745 -0.0583  0.3213
  182SOL    HW1  878   3.054   0.353   4.705  0.5365 -0.3564  2.0770
  182SOL    HW2  879   3.079   0.219   4.770 -1.6101 -1.6464  0.3119
  183SOL     OW  880   0.722   3.708   3.305 -0.0977 -0.0620  0.3044
  183SOL    HW1  881   0.792   3.671   3.358 -0.7866 -0.9379  0.6240
  183SOL    HW2  882   0.748   3.799   3.290  1.7062 -0.6929 -0.6299
  184SOL     OW  883   4.082   3.049   4.160  0.2304 -0.0226 -0.1739
  184SOL    HW1  884   4.093   2.959   4.128 -1.0868 -0.5050  0.7011
  184SOL    HW2  885   3.995   3.050   4.199  0.1234  1.7181 -0.4159
  185SOL     OW  886   5.022   4.029   2.129  0.1417 -0.0879  0.3503
  185SOL    HW1  887   5.050   3.940   2.106 -0.7559  0.1202 -1.6894
  185SOL    HW2  888   5.101   4.082   2.116  0.5407 -0.5120  1.0493
  186SOL     OW  889   0.783   0.073   1.343 -0.4082 -0.0543  0.1091
  186SOL    HW1  890   0.829   0.095   1.424 -0.2982  0.9232 -0.2206
  186SOL    HW2  891   0.849   0.087   1.275 -0.3817 -1.2451 -0.1190
  187SOL     OW  892   1.878   0.233   1.812 -0.1493  0.0638 -0.0185
  187SOL    HW1  893   1.919   0.164   1.759 -0.8493 -1.6422  1.6012
  187SOL    HW2  894   1.910   0.217   1.901 -3.4778 -0.7057  1.1202
  188SOL     OW  895   3.514   2.508   1.470  0.0118  0.3118  0.7057
  188SOL    HW1  896   3.537   2.423   1.507 -1.1754  0.1141  1.0194
  188SOL    HW2  897   3.418   2.506   1.464  0.0949  0.8180 -1.2133
  189SOL     OW  898   4.724   5.354   4.738  0.0329 -0.1228  0.1405
  189SOL    HW1  899   4.717   5.392   4.650 -0.0590  1.0080  0.6226
  189SOL    HW2  900   4.794   5.404   4.780 -2.9573  2.5470  2.2661
  190SOL     OW  901   3.073   3.607   3.393 -0.9637  0.2217  0.5617
  190SOL    HW1  902   3.158   3.611   3.437 -0.5936 -0.5363 -0.0886
  190SOL    HW2  903   3.086   3.655   3.311 -0.5183 -1.8431 -0.5994
  191SOL     OW  904   1.716   1.721   1.385 -0.1014 -0.2651  0.5259
  191SOL    HW1  905   1.682   1.740   1.297 -1.4999  0.8395  1.2881
  191SOL    HW2  906   1.721   1.806   1.428 -1.6413 -1.0284  2.2893
  192SOL     OW  907   4.001   1.294   4.881 -0.0168  0.0494  0.0927
  192SOL    HW1  908   3.948   1.363   4.841  0.0332  0.5483  0.8632
  192SOL    HW2  909   3.938   1.225   4.903 -0.3970  0.7343  1.2070
  193SOL     OW  910   3.619   4.843   4.364 -0.4832 -0.1015  0.0225
  193SOL    HW1  911   3.629   4.767   4.422  0.9356 -0.8403 -1.1478
  193SOL    HW2  912   3.524   4.855   4.356 -0.7314 -1.8651  0.0981
  194SOL     OW  913   3.129   1.223   5.447  0.2146 -0.1849  0.0712
  194SOL    HW1  914   3.185   1.244   5.372  0.7731 -2.2237 -0.1039
  194SOL    HW2  915   3.187   1.177   5.508 -0.9198 -1.0203  0.5289
  195SOL     OW  916   3.653   4.356   3.256 -0.1048  0.7673 -0.3084
  195SOL    HW1  917   3.745   4.381   3.242 -0.0698 -0.0451 -1.6011
  195SOL    HW2  918   3.611   4.371   3.172 -0.8483 -0.1994 -0.1200
  196SOL     OW  919   3.081   3.902   4.387 -0.6570 -0.7966  0.4512
  196SOL    HW1  920   3.068   3.995   4.406 -2.5502 -0.5664 -1.7167
  196SOL    HW2  921   3.048   3.891   4.298  2.0493 -3.0326 -0.3527
  197SOL     OW  922   0.645   2.917   2.238  0.3846  0.8983 -0.3232
  197SOL    HW1  923   0.667   2.827   2.217  0.5593  0.6904  0.7456
  197SOL    HW2  924   0.721   2.968   2.208  1.2073  0.4612  0.9922
  198SOL     OW  925   5.118   3.233   0.199  0.1577  0.1727  0.1686
  198SOL    HW1  926   5.185   3.231   0.130 -0.1018  1.7084 -0.1309
  198SOL    HW2  927   5.043   3.275   0.158 -0.3808  0.0875  1.0633
  199SOL     OW  928   3.804   3.935   3.803  0.0613  0.4471  0.4731
  199SOL    HW1  929   3.876   3.881   3.770  0.2472  1.3152 -0.5865
  199SOL    HW2  930   3.786   3.901   3.890  0.1245 -1.3620 -0.2031
  200SOL     OW  931   3.868   1.936   3.621  0.0148  0.5796 -0.3972
  200SOL    HW1  932   3.961   1.926   3.641  0.2586  3.6081  0.2169
  200SOL    HW2  933   3.859   1.902   3.532  1.3551 -1.3331  0.1639
  201SOL     OW  934   4.991   3.861   2.908 -0.2280 -0.0225 -0.3962
  201SOL    HW1  935   4.967   3.936   2.961  0.2142  0.5354 -0.9731
  201SOL    HW2  936   4.966   3.885   2.819 -1.9104 -1.3604 -0.3123
  202SOL     OW  937   5.258   0.490   5.436  0.1035  0.0019 -0.5177
  202SOL    HW1  938   5.270   0.563   5.496  0.5932  1.3827 -2.2434
  202SOL    HW2  939   5.326   0.427   5.461 -1.2776 -0.5878  1.9597
  203SOL     OW  940   2.864   2.435   2.128 -0.3532  0.0361 -0.0210
  203SOL    HW1  941   2.799   2.499   2.099 -0.5647  0.3706  1.1598
  203SOL    HW2  942   2.869   2.447   2.223  2.2392  0.8189 -0.1951
  204SOL     OW  943   1.012   2.412   4.638  0.1340  0.3319 -0.1791
  204SOL    HW1  944   0.985   2.500   4.611  0.8188 -0.0613 -2.2701
  204SOL    HW2  945   0.938   2.356   4.614  0.6166  0.0206 -0.9540
  205SOL     OW  946   4.377   2.203   1.784  0.0254 -0.1296  0.9569
  205SOL    HW1  947   4.334   2.253   1.715  1.4219  0.1926  0.3126
  205SOL    HW2  948   4.343   2.114   1.775 -0.2446  0.0498  0.2384
  206SOL     OW  949   0.222   4.395   3.936 -0.1864  0.2993  0.0508
  206SOL    HW1  950   0.263   4.328   3.990  1.4128  0.7068 -0.6445
  206SOL    HW2  951   0.261   4.477   3.966 -2.1078  0.9527  0.8817
  207SOL     OW  952   2.751   3.769   2.542  0.1267  0.2512  0.4469
  207SOL    HW1  953   2.781   3.844   2.491  2.0639 -0.5457  0.3888
  207SOL    HW2  954   2.678   3.803   2.594 -0.6233  1.5480 -1.4015
  208SOL     OW  955   4.772   5.185   1.629  0.2772  0.1120 -0.7103
  208SOL    HW1  956   4.865   5.168   1.642 -0.0175 -0.6061  0.4828
  208SOL    HW2  957   4.728   5.105   1.660 -0.6975  0.1701 -1.8884
  209SOL     OW  958   0.999   0.512   0.437 -0.4257 -0.0637 -0.0116
  209SOL    HW1  959   0.989   0.417   0.434 -2.9922  0.1962 -0.7617
  209SOL    HW2  960   1.025   0.530   0.527 -0.9705 -1.3966  0.4242
  210SOL     OW  961   0.736   5.056   3.060  0.0694 -0.4917 -0.0921
  210SOL    HW1  962   0.732   5.017   2.973  1.9674  0.5102 -0.6456
  210SOL    HW2  963   0.752   5.149   3.044  1.5307 -0.4857  1.3472
  211SOL     OW  964   4.229   0.175   1.238  0.5273 -0.2321  0.0706
  211SOL    HW1  965   4.319   0.197   1.259  0.9291  0.8285 -2.4806
  211SOL    HW2  966   4.192   0.257   1.203 -1.1613 -0.8771  0.2837
  212SOL     OW  967   0.074   1.465   5.145  0.4784  0.1905 -0.3803
  212SOL    HW1  968   0.071   1.519   5.066  0.0266  0.8750  0.1087
  212SOL    HW2  969   0.038   1.380   5.117  2.0308 -0.1545 -1.3694
  213SOL     OW  970   0.362   3.915   3.667  0.2391 -0.2918  0.0816
  213SOL    HW1  971   0.352   3.833   3.715  0.7132 -0.3615  0.0673
  213SOL    HW2  972   0.457   3.925   3.656  0.2389  0.7341  0.9088
  214SOL     OW  973   4.041   2.617   3.858 -0.6389  0.1315 -1.0321
  214SOL    HW1  974   4.090   2.535   3.869 -0.1634  0.3901 -1.1804
  214SOL    HW2  975   3.950   2.593   3.875 -0.2983 -0.0870  0.5712
  215SOL     OW  976   3.496   5.464   3.787  0.1221  0.1310 -0.1685
  215SOL    HW1  977   3.592   5.466   3.780  0.1741 -0.3390  0.3880
  215SOL    HW2  978   3.474   5.537   3.844  0.1454  0.2536 -0.3141
  216SOL     OW  979   0.261   2.015   2.943 -0.4516 -0.5290  0.1782
  216SOL    HW1  980   0.325   1.988   3.009 -0.1681 -0.9084 -0.2526
  216SOL    HW2  981   0.285   1.966   2.865 -0.9750 -0.3065 -0.1224
  217SOL     OW  982   0.255   2.252   0.882 -0.3521  0.7997  0.1367
  217SOL    HW1  983   0.221   2.330   0.926 -1.4064  1.0481 -1.0668
  217SOL    HW2  984   0.341   2.237   0.921  0.2372  3.0710 -0.2169
  218SOL     OW  985   3.116   3.623   4.019 -0.2022  0.1525 -0.1924
  218SOL    HW1  986   3.093   3.714   4.040  0.9126  1.1326 -3.0854
  218SOL    HW2  987   3.046   3.572   4.059 -2.0344  2.4259 -0.3422
  219SOL     OW  988   3.829   4.688   2.063 -0.4825 -0.3201  0.0260
  219SOL    HW1  989   3.740   4.715   2.041 -0.2374  1.7159  1.4352
  219SOL    HW2  990   3.840   4.712   2.155  1.5131 -0.6036 -0.1121
  220SOL     OW  991   0.105   3.812   0.150  0.6742 -0.2516  0.2667
  220SOL    HW1  992   0.112   3.732   0.201  0.6661  0.5520  1.5442
  220SOL    HW2  993   0.153   3.793   0.069 -1.1952 -2.3001 -0.4246
  221SOL     OW  994   5.097   0.960   1.339  0.0995  0.4409  0.3608
  221SOL    HW1  995   5.012   1.000   1.323  0.7599  1.7118 -0.0298
  221SOL    HW2  996   5.139   0.959   1.253  0.8024  0.5902  0.7012
  222SOL     OW  997   3.503   1.840   2.617 -0.2291 -0.6591 -0.0636
  222SOL    HW1  998   3.567   1.901   2.652 -0.6540  0.2746 -0.9152
  222SOL    HW2  999   3.426   1.894   2.597 -1.6184 -1.8756  1.7483
  223SOL     OW 1000   4.906   2.769   3.030 -0.7279 -0.5748  0.7390
  223SOL    HW1 1001   4.860   2.721   2.962 -1.5299 -0.5593  1.2659
  223SOL    HW2 1002   4.978   2.712   3.056  0.3482 -0.0528 -0.9965
  224SOL     OW 1003   2.813   4.894   2.167  0.2672 -0.2786  0.0413
  224SOL    HW1 1004   2.877   4.860   2.104 -2.1696 -2.2367 -1.4633
  224SOL    HW2 1005   2.749   4.824   2.177 -1.1026  1.2356  2.3028
  225SOL     OW 1006   4.689   1.963   1.680  0.0301  0.5129 -1.0950
  225SOL    HW1 1007   4.714   2.046   1.639 -1.2087  1.3571 -0.1771
  225SOL    HW2 1008   4.759   1.946   1.744 -0.0587  1.1766 -0.8233
  226SOL     OW 1009   4.839   2.030   1.160  0.0404 -0.0520 -0.1489
  226SOL    HW1 1010   4.891   1.985   1.094 -1.2274 -0.6641 -0.7333
  226SOL    HW2 1011   4.824   2.117   1.124  0.6529  0.1256  0.0210
  227SOL     OW 1012   4.766   4.695   5.074  1.2044 -0.1197  0.0174
  227SOL    HW1 1013   4.789   4.603   5.066 -0.9991 -0.6766 -0.4564
  227SOL    HW2 1014   4.670   4.695   5.085  1.0444  2.1500 -1.0261
  228SOL     OW 1015   3.935   4.429   1.747  0.5466 -0.0787  0.2531
  228SOL    HW1 1016   3.953   4.499   1.810 -1.0363  1.1958 -0.6857
  228SOL    HW2 1017   3.872   4.373   1.791  1.3033 -0.5471  0.7459
  229SOL     OW 1018   0.959   1.869   3.045  0.3034  0.1375 -0.1571
  229SOL    HW1 1019   0.878   1.913   3.070 -0.4769 -2.1334  1.5677
  229SOL    HW2 1020   0.950   1.781   3.082  2.7638 -0.7389 -1.5406
  230SOL     OW 1021   5.057   2.707   0.313 -0.4275 -0.4010  0.3168
  230SOL    HW1 1022   5.016   2.621   0.316 -0.4930 -0.3768  0.1251
  230SOL    HW2 1023   5.064   2.734   0.405 -0.1020 -0.7523  0.3973
  231SOL     OW 1024   1.675   3.989   3.662 -0.1120  0.2749 -0.3171
  231SOL    HW1 1025   1.672   4.018   3.753 -0.9205 -0.1424 -0.2028
  231SOL    HW2 1026   1.618   3.912   3.660 -0.5799  0.6441 -1.3027
  232SOL     OW 1027   2.140   5.006   4.245  0.1949 -0.0607  0.1593
  232SOL    HW1 1028   2.106   5.058   4.317  0.4523  0.0516  0.2003
  232SOL    HW2 1029   2.063   4.985   4.192  0.0681  0.2149  0.2345
  233SOL     OW 1030   2.281   2.096   1.007  0.4805 -0.6079 -0.4661
  233SOL    HW1 1031   2.266   2.148   1.086  0.1525 -0.8205 -0.3870
  233SOL    HW2 1032   2.374   2.105   0.990  0.7109 -1.2708  0.4362
  234SOL     OW 1033   0.045   3.720   1.886  0.0629  0.8127 -0.0738
  234SOL    HW1 1034   0.084   3.647   1.934  0.0567  0.2450 -0.9205
  234SOL    HW2 1035  -0.014   3.762   1.949 -0.4294 -0.3147  0.2300
  235SOL     OW 1036   3.611   1.613   4.718 -0.6854  0.5608 -0.4783
  235SOL    HW1 1037   3.670   1.687   4.733  0.1139 -0.4835  1.8592
  235SOL    HW2 1038   3.577   1.591   4.805 -1.2830 -1.4994 -1.1885
  236SOL     OW 1039   2.706   4.165   1.955  1.2578  0.8229  0.5434
  236SOL    HW1 1040   2.773   4.233   1.960  1.6885  0.6278 -1.9773
  236SOL    HW2 1041   2.697   4.145   1.862 -0.1203 -1.3396  1.0670
  237SOL     OW 1042   1.472   1.792   1.197 -0.0031  0.0105 -0.1241
  237SOL    HW1 1043   1.555   1.839   1.188 -1.0910  1.9792 -0.0816
  237SOL    HW2 1044   1.417   1.849   1.250 -1.8659 -0.6343 -1.2981
  238SOL     OW 1045   3.626   1.580   1.134  0.0897 -0.5285  0.7391
  238SOL    HW1 1046   3.608   1.604   1.225  2.1644 -1.8806  1.5372
  238SOL    HW2 1047   3.544   1.544   1.102 -0.1399 -1.7668  2.6549
  239SOL     OW 1048   2.243   5.071   2.598  0.4761 -0.5608  0.4853
  239SOL    HW1 1049   2.272   4.995   2.546  0.7206 -0.1416 -0.0030
  239SOL    HW2 1050   2.222   5.137   2.532  3.3684  0.9234  0.9452
  240SOL     OW 1051   2.619   4.984   2.837 -0.2046  0.0110 -0.0516
  240SOL    HW1 1052   2.527   5.009   2.847 -0.0723  1.4321 -2.1387
  240SOL    HW2 1053   2.631   4.973   2.743  1.1627 -2.5872  0.3814
  241SOL     OW 1054   1.238   3.622   4.267  0.2117 -0.9715 -0.2095
  241SOL    HW1 1055   1.331   3.639   4.279  0.9213 -3.3772 -1.8870
  241SOL    HW2 1056   1.217   3.661   4.182 -0.3769 -0.2431  0.2634
  242SOL     OW 1057   0.614   2.520   4.254 -0.0806  0.0575 -0.9495
  242SOL    HW1 1058   0.702   2.519   4.215  0.6021 -0.1312  0.5506
  242SOL    HW2 1059   0.584   2.430   4.248 -0.2714  0.1681 -1.6830
  243SOL     OW 1060   4.516   1.117   2.942  0.0838 -0.2421 -0.3100
  243SOL    HW1 1061   4.602   1.140   2.908 -0.3687  0.2180 -1.1504
  243SOL    HW2 1062   4.471   1.201   2.954  0.0481 -0.4203  0.9387
  244SOL     OW 1063   3.444   4.588   4.249 -0.0274 -0.2884  0.2069
  244SOL    HW1 1064   3.446   4.506   4.299  0.3617 -0.8572 -0.7278
  244SOL    HW2 1065   3.466   4.562   4.159 -0.6938  0.7307 -0.2558
  245SOL     OW 1066   1.591   1.501   4.916 -0.3321 -0.0540  0.8996
  245SOL    HW1 1067   1.673   1.522   4.961 -1.1945  0.8344  2.0953
  245SOL    HW2 1068   1.538   1.580   4.926 -0.1663  0.5805 -2.6456
  246SOL     OW 1069   1.269   1.081   3.246  0.0955  0.3879  0.3563
  246SOL    HW1 1070   1.341   1.124   3.292 -0.6019  0.4342  1.4040
  246SOL    HW2 1071   1.193   1.097   3.301 -0.7065  0.2770 -0.7179
  247SOL     OW 1072   0.135   1.734   1.694  0.2332 -0.4517 -0.1523
  247SOL    HW1 1073   0.132   1.716   1.788 -0.2387 -2.1335 -0.4597
  247SOL    HW2 1074   0.225   1.715   1.669  1.0130  2.3220  0.3539
  248SOL     OW 1075   5.564   3.451   4.926 -0.8680 -0.0544  0.0229
  248SOL    HW1 1076   5.569   3.425   4.834 -2.1158 -1.7100  0.4143
  248SOL    HW2 1077   5.523   3.538   4.924 -0.3265  0.1929 -1.0054
  249SOL     OW 1078   0.805   3.281   4.921 -0.4470  0.0891  0.4742
  249SOL    HW1 1079   0.808   3.317   4.832 -3.7586  3.6654  1.6854
  249SOL    HW2 1080   0.727   3.227   4.922 -0.4715  0.1308  1.2339
  250SOL     OW 1081   5.064   2.151   5.043  0.0741  0.5158  0.2116
  250SOL    HW1 1082   5.053   2.057   5.027 -0.3030  0.3241  1.4934
  250SOL    HW2 1083   5.008   2.193   4.978 -2.6737 -0.2674  1.9862
  251SOL     OW 1084   1.078   3.773   3.511  0.1515  0.3833  0.7479
  251SOL    HW1 1085   1.014   3.704   3.496  1.5277 -1.2935  2.3153
  251SOL    HW2 1086   1.144   3.760   3.443 -0.3429  1.1193  0.1155
  252SOL     OW 1087   0.720   1.291   3.848 -0.0211  0.2271 -0.0438
  252SOL    HW1 1088   0.716   1.258   3.938 -1.5727 -4.4468 -1.6710
  252SOL    HW2 1089   0.632   1.324   3.831  0.4761  1.7913  0.3463
  253SOL     OW 1090   5.179   1.945   1.385 -0.2910  0.5541 -0.2627
  253SOL    HW1 1091   5.216   2.017   1.435 -1.1918  0.4970  0.4935
  253SOL    HW2 1092   5.085   1.962   1.384 -0.6301 -1.1713  0.8367
  254SOL     OW 1093   2.193   4.417   5.324  0.3626 -0.4869  0.3368
  254SOL    HW1 1094   2.287   4.418   5.341  0.1717  0.3054  1.4020
  254SOL    HW2 1095   2.159   4.352   5.384  0.6624 -3.4305 -2.5707
  255SOL     OW 1096   2.493   3.997   0.730 -0.2324  0.0009 -0.4878
  255SOL    HW1 1097   2.482   3.915   0.681 -0.5591  0.4629 -1.1944
  255SOL    HW2 1098   2.451   4.064   0.675  1.1919  0.8659 -0.5579
  256SOL     OW 1099   4.339   4.661   0.872  0.2838  0.2244  0.3503
  256SOL    HW1 1100   4.269   4.599   0.892  1.1144 -0.7997  0.1558
  256SOL    HW2 1101   4.301   4.747   0.889 -1.2661 -0.2757 -0.5307
  257SOL     OW 1102   0.612   5.190   0.090  0.5884 -0.1763  0.2848
  257SOL    HW1 1103   0.585   5.172   0.181  0.5245 -0.8281  0.1386
  257SOL    HW2 1104   0.580   5.278   0.073 -0.9852 -0.7336  0.3032
  258SOL     OW 1105   1.840   3.372   0.375  0.0010 -0.2562 -0.3240
  258SOL    HW1 1106   1.847   3.401   0.466 -0.0056 -0.6597 -0.1944
  258SOL    HW2 1107   1.922   3.325   0.360 -1.4737 -3.2056  0.5434
  259SOL     OW 1108   0.162   4.896   3.480  0.2098 -0.2105  0.4321
  259SOL    HW1 1109   0.258   4.903   3.477  0.1204  3.0579  2.6178
  259SOL    HW2 1110   0.133   4.982   3.509 -3.5991 -0.3312 -2.6291
  260SOL     OW 1111   5.533   2.452   2.886  0.3385 -0.2455  0.1606
  260SOL    HW1 1112   5.546   2.362   2.857  1.3043 -0.1517  0.2895
  260SOL    HW2 1113   5.561   2.506   2.812  2.1929 -0.0168  1.0036
  261SOL     OW 1114   0.143   3.245   0.637  0.5381  0.0702  0.5176
  261SOL    HW1 1115   0.165   3.338   0.640 -0.6859  0.3756  0.0868
  261SOL    HW2 1116   0.052   3.240   0.665 -0.1956 -0.7122 -1.8909
  262SOL     OW 1117   2.981   5.500   1.882  0.4686 -0.2586 -0.0518
  262SOL    HW1 1118   3.021   5.421   1.847 -0.4483  0.2020 -2.2102
  262SOL    HW2 1119   2.951   5.548   1.805 -0.9852  1.1300  1.3375
  263SOL     OW 1120   0.322   3.876   2.969  0.2756 -0.2687 -0.0567
  263SOL    HW1 1121   0.226   3.882   2.970  0.2164 -0.7415 -1.8979
  263SOL    HW2 1122   0.345   3.862   3.061 -1.4347 -0.4157  0.3788
  264SOL     OW 1123   3.925   3.970   4.566 -0.2233  0.2408  0.3073
  264SOL    HW1 1124   3.940   3.930   4.481  2.5647  0.7031  0.5627
  264SOL    HW2 1125   3.896   4.059   4.546 -0.6003  0.0140 -0.1667
  265SOL     OW 1126   3.038   4.835   1.026 -0.2254 -0.5904  0.3732
  265SOL    HW1 1127   3.101   4.803   0.962  1.0054 -2.1261  2.2799
  265SOL    HW2 1128   2.954   4.834   0.981  1.2264  2.4335 -2.5369
  266SOL     OW 1129   3.612   2.180   2.554  0.2217  0.4251  0.0104
  266SOL    HW1 1130   3.579   2.179   2.464  1.1158 -1.6371 -0.3304
  266SOL    HW2 1131   3.589   2.267   2.587 -2.0601  0.4301 -1.4686
  267SOL     OW 1132   1.227   2.592   4.187  0.6816  0.2952 -0.1864
  267SOL    HW1 1133   1.205   2.519   4.245  0.5814 -1.2350 -2.1085
  267SOL    HW2 1134   1.195   2.670   4.233  1.0113 -0.8329  2.0074
  268SOL     OW 1135   2.917   4.035   0.476 -0.3455 -0.2523  0.0676
  268SOL    HW1 1136   2.988   3.972   0.487 -0.6856 -0.7506 -0.5475
  268SOL    HW2 1137   2.863   4.023   0.555  0.1712  0.0292  0.4663
  269SOL     OW 1138   0.253   2.692   1.101  0.6040  0.0436 -0.6288
  269SOL    HW1 1139   0.174   2.692   1.155  0.9313  1.7246 -0.1122
  269SOL    HW2 1140   0.237   2.624   1.035  0.5491 -2.6594  2.0416
  270SOL     OW 1141   3.284   1.472   4.384 -0.0793 -0.1865 -0.0804
  270SOL    HW1 1142   3.204   1.419   4.389 -1.0045  1.3951  4.0032
  270SOL    HW2 1143   3.344   1.431   4.447  0.3236  1.7128  0.8058
  271SOL     OW 1144   1.132   2.499   0.240  0.1040  0.2069  0.9416
  271SOL    HW1 1145   1.161   2.469   0.154  1.1354  1.2658  0.8986
  271SOL    HW2 1146   1.070   2.570   0.221  0.1641  0.2947  1.0732
  272SOL     OW 1147   3.907   5.003   5.006  0.9826  0.2015 -0.0759
  272SOL    HW1 1148   3.867   5.082   5.045  1.1501  0.6708 -0.8479
  272SOL    HW2 1149   3.861   4.930   5.048  0.2897  0.7223  0.0805
  273SOL     OW 1150   2.319   5.116   4.013 -0.5340  0.0313  0.0558
  273SOL    HW1 1151   2.354   5.053   3.952  0.5410  0.7214 -0.0488
  273SOL    HW2 1152   2.293   5.064   4.089  1.1539 -0.4435  0.3294
  274SOL     OW 1153   3.500   4.321   1.812 -0.2110  0.0957  0.0886
  274SOL    HW1 1154   3.482   4.331   1.719  0.3667 -1.5130 -0.2164
  274SOL    HW2 1155   3.514   4.227   1.824  0.5446  0.3813  1.6472
  275SOL     OW 1156   5.125   3.617   0.972  0.3575  0.0029 -0.4908
  275SOL    HW1 1157   5.076   3.637   1.052  1.2337  0.3936 -0.0370
  275SOL    HW2 1158   5.214   3.602   1.002  0.6697  0.0296 -1.3863
  276SOL     OW 1159   4.038   5.471   0.231  0.4070 -0.1413 -0.1952
  276SOL    HW1 1160   3.988   5.389   0.229  0.1784 -0.0193  0.4520
  276SOL    HW2 1161   3.987   5.532   0.178  0.3916 -0.3095 -0.3749
  277SOL     OW 1162   3.990   5.145   0.778 -0.3998  0.1908  0.4137
  277SOL    HW1 1163   4.052   5.142   0.706 -0.2352 -1.1822  0.6046
  277SOL    HW2 1164   4.043   5.142   0.857 -0.5260  2.5404  0.6461
  278SOL     OW 1165   3.073   3.583   2.754  0.1299  0.5090  0.2258
  278SOL    HW1 1166   3.091   3.502   2.802  1.7340  0.5735 -0.2259
  278SOL    HW2 1167   3.105   3.565   2.665 -2.2311  0.6051 -0.6598
  279SOL     OW 1168   1.753   3.987   5.371  0.1163 -0.0723  0.0702
  279SOL    HW1 1169   1.796   3.960   5.289  0.2284 -0.2694  0.1931
  279SOL    HW2 1170   1.685   4.049   5.343  0.1636 -0.1280 -0.1716
  280SOL     OW 1171   3.434   3.782   1.635 -0.3519  0.3188 -0.4100
  280SOL    HW1 1172   3.428   3.783   1.731 -1.3464 -0.0804 -0.4572
  280SOL    HW2 1173   3.436   3.689   1.612  0.0634  0.4146 -0.7729
  281SOL     OW 1174   0.829   2.345   2.889 -0.3510 -0.2571 -0.0890
  281SOL    HW1 1175   0.880   2.281   2.838 -1.0830 -1.0903  0.2057
  281SOL    HW2 1176   0.805   2.297   2.968 -1.6533  0.1015 -0.2645
  282SOL     OW 1177   0.314   4.933   3.746  0.3707 -0.0989 -0.0062
  282SOL    HW1 1178   0.239   4.873   3.743 -0.7285  1.2187  0.4547
  282SOL    HW2 1179   0.358   4.920   3.663  1.0307 -2.6381  0.6952
  283SOL     OW 1180   4.990   0.145   2.943  0.3209  0.0317  0.0669
  283SOL    HW1 1181   4.977   0.063   2.991 -1.8290  0.3080 -0.0065
  283SOL    HW2 1182   4.968   0.213   3.006 -0.1108  0.4882 -0.5786
  284SOL     OW 1183   0.923   0.451   2.624  0.2099  0.0120 -0.1123
  284SOL    HW1 1184   0.858   0.520   2.631  1.0978  0.8481  0.0528
  284SOL    HW2 1185   1.007   0.497   2.628  0.8030 -0.9376 -1.3813
  285SOL     OW 1186   2.684   2.895   0.434 -0.0080  0.2023  0.2382
  285SOL    HW1 1187   2.637   2.886   0.351  0.1346 -2.4879  0.4009
  285SOL    HW2 1188   2.620   2.873   0.501  0.4119  0.3786  0.7041
  286SOL     OW 1189   3.315   1.117   5.216 -0.5395  0.6636  0.3690
  286SOL    HW1 1190   3.359   1.063   5.281 -0.8547  1.3069  1.1334
  286SOL    HW2 1191   3.262   1.055   5.165  1.3034 -0.1179 -0.6214
  287SOL     OW 1192   0.744   0.281   0.342 -0.0069 -0.1033 -0.2218
  287SOL    HW1 1193   0.731   0.313   0.431 -1.4206  0.3186 -0.5640
  287SOL    HW2 1194   0.789   0.198   0.353 -1.6075 -0.8458  0.9914
  288SOL     OW 1195   0.178   2.783   2.805 -0.5682 -0.1358  1.0868
  288SOL    HW1 1196   0.253   2.799   2.746 -0.5308  0.4513  1.2921
  288SOL    HW2 1197   0.124   2.862   2.796 -1.0446 -0.4619  1.1186
  289SOL     OW 1198   0.777   2.221   0.715 -0.2840 -0.1243  0.1303
  289SOL    HW1 1199   0.813   2.135   0.692  0.4629 -0.1732  1.4358
  289SOL    HW2 1200   0.695   2.227   0.666 -1.0462 -2.1614  1.1134
  290SOL     OW 1201   2.555   0.511   0.567 -0.0384  0.5956  0.3959
  290SOL    HW1 1202   2.599   0.448   0.510 -0.8578  0.0055  0.4207
  290SOL    HW2 1203   2.580   0.596   0.531  0.5525  0.2527 -0.0169
  291SOL     OW 1204   4.589   0.232   0.464 -0.6983 -0.8692  0.0506
  291SOL    HW1 1205   4.552   0.148   0.439 -2.4599 -0.0329 -0.2607
  291SOL    HW2 1206   4.605   0.278   0.381 -0.6544 -0.5232  0.2466
  292SOL     OW 1207   4.087   2.707   2.272  0.0068  0.0101  1.0170
  292SOL    HW1 1208   4.096   2.645   2.344 -1.2441  2.3089  3.2072
  292SOL    HW2 1209   4.033   2.661   2.208  0.4929 -1.7728  1.8515
  293SOL     OW 1210   1.312   4.982   2.606 -0.4905  0.2494 -0.2873
  293SOL    HW1 1211   1.390   5.021   2.566  0.4865 -1.4110 -0.0616
  293SOL    HW2 1212   1.343   4.897   2.640 -2.3134 -0.2617  0.1243
  294SOL     OW 1213   2.086   5.127   1.342  0.0809 -0.1711  0.3006
  294SOL    HW1 1214   2.093   5.187   1.268  0.8178 -0.2759  0.2838
  294SOL    HW2 1215   2.135   5.050   1.316 -3.6153 -2.1899 -1.0452
  295SOL     OW 1216   2.439   3.471   1.986  0.7258  0.2418 -0.3455
  295SOL    HW1 1217   2.473   3.382   1.988  1.5295  0.5563 -0.0539
  295SOL    HW2 1218   2.456   3.506   2.073 -0.3382  0.4107 -0.1920
  296SOL     OW 1219   2.152   4.762   5.050  0.0928  0.5028 -0.1720
  296SOL    HW1 1220   2.217   4.809   4.997 -1.4902  1.2595 -1.5187
  296SOL    HW2 1221   2.185   4.768   5.139  2.5324 -0.2810 -0.9650
  297SOL     OW 1222   1.942   4.916   2.451  0.0283  0.2436 -0.2301
  297SOL    HW1 1223   1.980   4.991   2.497  0.8332 -0.5490  0.4149
  297SOL    HW2 1224   1.859   4.900   2.497 -0.8357  1.6060 -1.2694
  298SOL     OW 1225   0.447   1.015   0.185  0.4117  0.1540 -1.1192
  298SOL    HW1 1226   0.416   1.096   0.144 -1.3608 -1.1674 -2.4781
  298SOL    HW2 1227   0.377   0.990   0.244  0.5629 -0.8512 -1.3578
  299SOL     OW 1228   0.009   1.535   2.963  0.0330 -0.5345 -0.3834
  299SOL    HW1 1229   0.093   1.575   2.988 -0.0251  0.3767 -1.6110
  299SOL    HW2 1230  -0.020   1.586   2.888 -1.1890 -1.4338 -0.5270
  300SOL     OW 1231   5.227   0.233   4.252 -0.2316 -0.2897  0.1529
  300SOL    HW1 1232   5.319   0.257   4.238 -0.2657  0.3454  0.9915
  300SOL    HW2 1233   5.225   0.199   4.341 -1.0107  0.7198  0.5288
  301SOL     OW 1234   3.484   3.992   0.081  0.3610 -0.2246 -0.1342
  301SOL    HW1 1235   3.555   3.972   0.021  1.5188  1.8074  0.4958
  301SOL    HW2 1236   3.510   3.952   0.164 -0.3029 -1.3537 -0.4567
  302SOL     OW 1237   3.897   1.064   2.428 -0.3870 -0.0177 -0.1251
  302SOL    HW1 1238   3.868   1.081   2.517  0.5561 -0.8106  0.3479
  302SOL    HW2 1239   3.989   1.091   2.428 -0.8365  1.6506 -1.3523
  303SOL     OW 1240   4.364   5.385   0.608 -0.1290  0.2148 -0.0218
  303SOL    HW1 1241   4.323   5.413   0.526 -1.3437 -0.3233  0.3822
  303SOL    HW2 1242   4.366   5.464   0.662  1.0813  0.6729 -0.7204
  304SOL     OW 1243   0.111   2.414   3.685 -0.4516 -0.2404  0.3757
  304SOL    HW1 1244   0.042   2.356   3.717 -0.9268 -0.4951 -1.0713
  304SOL    HW2 1245   0.140   2.375   3.603  1.2693 -0.0026  0.8506
  305SOL     OW 1246   5.540   4.717   4.580  0.3744  0.1953 -0.0681
  305SOL    HW1 1247   5.557   4.764   4.498 -0.4012  0.2674 -0.1985
  305SOL    HW2 1248   5.626   4.702   4.618  0.6628  1.3635 -0.2358
  306SOL     OW 1249   0.483   0.362   3.353 -0.0046  0.2898  0.4513
  306SOL    HW1 1250   0.467   0.288   3.411  0.9872  0.7139  1.2724
  306SOL    HW2 1251   0.578   0.364   3.342 -0.0480  1.2832  0.2188
  307SOL     OW 1252   5.449   1.357   4.331  0.4707 -0.1968  0.0192
  307SOL    HW1 1253   5.402   1.275   4.316  1.2236 -0.6350  0.0253
  307SOL    HW2 1254   5.540   1.337   4.309  0.6074  0.7289 -0.2915
  308SOL     OW 1255   1.452   3.969   1.312 -0.3968  0.2726  0.2172
  308SOL    HW1 1256   1.485   3.965   1.222  0.5206  1.0635  0.5052
  308SOL    HW2 1257   1.530   3.990   1.365 -1.1110  0.7943  1.0788
  309SOL     OW 1258   4.317   1.065   3.677  0.0041  0.4531 -0.0743
  309SOL    HW1 1259   4.379   0.991   3.682 -0.8541 -0.2760 -0.0185
  309SOL    HW2 1260   4.292   1.068   3.585 -0.8871 -0.1095  0.1407
  310SOL     OW 1261   0.459   0.690   2.606 -0.8567 -0.2399  0.5280
  310SOL    HW1 1262   0.408   0.768   2.588  1.5929  1.2679 -0.2057
  310SOL    HW2 1263   0.501   0.707   2.691  2.2212  0.7452 -1.0817
  311SOL     OW 1264   1.947   1.980   4.299 -0.1166 -0.2647 -0.1071
  311SOL    HW1 1265   1.945   2.070   4.334  1.0949  0.5031 -1.9462
  311SOL    HW2 1266   2.021   1.939   4.342  0.4794  0.2179 -0.6612
  312SOL     OW 1267   1.084   4.633   5.265 -0.1782 -0.0112  0.4085
  312SOL    HW1 1268   1.150   4.695   5.296  0.1758 -0.9891  1.6369
  312SOL    HW2 1269   1.106   4.620   5.173  0.2478  1.0547  0.3493
  313SOL     OW 1270   5.149   0.226   3.670 -0.0539 -0.4182 -0.0619
  313SOL    HW1 1271   5.096   0.295   3.709  0.0978 -0.5420  0.3728
  313SOL    HW2 1272   5.203   0.270   3.605 -0.8771 -0.3345 -0.6876
  314SOL     OW 1273   0.139   1.272   4.244 -0.1655  0.0646  0.2178
  314SOL    HW1 1274   0.190   1.317   4.177  0.4000 -0.3765  0.3482
  314SOL    HW2 1275   0.191   1.281   4.324 -1.9284  2.5680  1.1212
  315SOL     OW 1276   2.058   0.860   0.001 -0.1821  0.3530  0.2017
  315SOL    HW1 1277   2.118   0.790   0.027 -0.9063  0.2049  1.5366
  315SOL    HW2 1278   2.110   0.917  -0.055  0.4821 -1.1285 -0.7332
  316SOL     OW 1279   0.749   3.005   0.806 -1.1771  0.1476  0.1849
  316SOL    HW1 1280   0.736   2.910   0.803 -3.8737  0.4548  1.3277
  316SOL    HW2 1281   0.829   3.016   0.858 -0.1218 -1.5166 -1.0212
  317SOL     OW 1282   2.347   4.110   0.262  0.3200 -0.1668  0.4819
  317SOL    HW1 1283   2.268   4.064   0.234  0.0060 -0.3924  1.7238
  317SOL    HW2 1284   2.376   4.156   0.184 -1.1458  0.0686  0.0610
  318SOL     OW 1285   3.337   0.165   2.722  0.1530  0.4432 -0.7934
  318SOL    HW1 1286   3.377   0.146   2.637 -0.9850 -0.1139 -1.2138
  318SOL    HW2 1287   3.287   0.086   2.743  0.5145  0.5260  0.4563
  319SOL     OW 1288   3.743   4.092   3.580  0.1854 -0.5431 -0.3616
  319SOL    HW1 1289   3.764   4.024   3.516 -0.0071 -0.8082 -0.1448
  319SOL    HW2 1290   3.758   4.050   3.665  1.5452  0.1603 -0.2373
  320SOL     OW 1291   4.906   3.300   3.613 -0.5007 -0.4507  0.3542
  320SOL    HW1 1292   4.915   3.378   3.557  0.9991 -1.4996 -0.9037
  320SOL    HW2 1293   4.955   3.322   3.693 -1.9166  0.7181  0.9194
  321SOL     OW 1294   1.706   2.759   5.115  0.0039 -0.5359  0.5389
  321SOL    HW1 1295   1.787   2.712   5.132  0.1735 -0.5262 -0.2294
  321SOL    HW2 1296   1.720   2.803   5.031  0.0182  1.2762  1.4672
  322SOL     OW 1297   2.095   3.045   4.552 -0.2768  0.2473 -0.0710
  322SOL    HW1 1298   2.014   3.086   4.522 -0.9517 -1.2000 -0.2615
  322SOL    HW2 1299   2.151   3.042   4.475 -1.0562 -1.1559 -0.6076
  323SOL     OW 1300   0.435   2.195   1.237 -0.3464 -0.0227  0.0959
  323SOL    HW1 1301   0.343   2.213   1.256 -0.3624  1.0429 -0.9212
  323SOL    HW2 1302   0.438   2.185   1.141  0.7834  1.1576 -0.0106
  324SOL     OW 1303   0.007   5.437   2.573  0.7158 -0.0955 -0.3187
  324SOL    HW1 1304  -0.071   5.463   2.523  2.1157  1.6006 -1.6379
  324SOL    HW2 1305   0.040   5.360   2.526 -1.0515 -1.8460  1.1931
  325SOL     OW 1306   3.391   1.141   2.687 -0.3701 -0.2099 -0.4795
  325SOL    HW1 1307   3.404   1.057   2.644  1.8868 -0.6577  1.0124
  325SOL    HW2 1308   3.383   1.204   2.616 -0.4011 -1.4397 -1.5739
  326SOL     OW 1309   0.084   1.988   4.907 -0.0453 -0.0762  0.1693
  326SOL    HW1 1310   0.138   2.043   4.965  0.1970 -1.0488  0.8802
  326SOL    HW2 1311  -0.006   2.003   4.936  0.1887 -1.8285  1.9493
  327SOL     OW 1312   4.234   1.786   3.701 -0.7131  0.2712 -1.0720
  327SOL    HW1 1313   4.254   1.707   3.650  0.2696 -0.1484 -0.0522
  327SOL    HW2 1314   4.142   1.777   3.724 -0.2785 -1.2805  0.2054
  328SOL     OW 1315   0.102   4.945   1.972  0.3018 -0.4685  0.2052
  328SOL    HW1 1316   0.118   5.013   1.908  1.4950 -0.0531  0.9308
  328SOL    HW2 1317   0.082   4.867   1.920 -0.0870  0.1839 -0.6333
  329SOL     OW 1318   5.419   1.480   5.316 -0.4666  0.2544 -0.3827
  329SOL    HW1 1319   5.414   1.413   5.248 -0.9510 -0.7427  0.6265
  329SOL    HW2 1320   5.486   1.448   5.377 -0.5081  0.8100 -0.0365
  330SOL     OW 1321   4.891   3.105   0.362 -0.0147  0.1778 -0.2519
  330SOL    HW1 1322   4.921   3.088   0.452 -2.7566  1.7367  1.0209
  330SOL    HW2 1323   4.958   3.162   0.325 -0.0566  1.5156  1.6362
  331SOL     OW 1324   2.602   4.638   0.855  0.5332  0.2346  0.3822
  331SOL    HW1 1325   2.542   4.589   0.799  1.0008  1.3418 -1.1131
  331SOL    HW2 1326   2.689   4.618   0.822  0.8135  0.9628  0.6637
  332SOL     OW 1327   0.470   2.212   2.827  0.3080  0.1783 -0.5811
  332SOL    HW1 1328   0.399   2.182   2.770 -0.4368 -0.9388  0.8998
  332SOL    HW2 1329   0.428   2.226   2.912  1.6385  0.6321  0.0165
  333SOL     OW 1330   3.551   3.506   0.292 -0.1881 -0.0229  0.0893
  333SOL    HW1 1331   3.636   3.535   0.259 -0.0576  0.3460  0.7417
  333SOL    HW2 1332   3.507   3.469   0.215  0.7347 -0.6182 -0.1568
  334SOL     OW 1333   0.411   3.570   4.098  0.0033  0.1117 -0.4848
  334SOL    HW1 1334   0.338   3.515   4.127  0.2359 -0.8925 -1.7638
  334SOL    HW2 1335   0.473   3.508   4.059  2.7793  0.5843  2.9108
  335SOL     OW 1336   2.193   2.290   2.746 -0.4158  0.4501  0.3737
  335SOL    HW1 1337   2.200   2.381   2.774 -0.3772  0.1957  1.2324
  335SOL    HW2 1338   2.260   2.280   2.679  0.7367  0.6333  1.4674
  336SOL     OW 1339   5.403   2.629   1.448 -0.3769 -0.1260  0.0192
  336SOL    HW1 1340   5.479   2.599   1.498 -0.4396  0.8484  0.7232
  336SOL    HW2 1341   5.351   2.551   1.433  1.1193 -0.9452 -1.0880
  337SOL     OW 1342   3.343   0.650   1.218  0.0127  0.2110  0.1789
  337SOL    HW1 1343   3.365   0.643   1.125 -0.2355  1.2226  0.0345
  337SOL    HW2 1344   3.423   0.682   1.260 -0.1637  0.6831  0.1616
  338SOL     OW 1345   1.037   5.150   5.029 -0.2990 -0.2556 -0.5044
  338SOL    HW1 1346   0.955   5.159   5.077  0.2851 -0.4038  0.5514
  338SOL    HW2 1347   1.080   5.235   5.038  0.1652 -0.5279 -0.0787
  339SOL     OW 1348   3.089   2.545   3.810 -0.5240  0.5541 -0.1092
  339SOL    HW1 1349   3.046   2.596   3.879 -0.6792 -0.5949  0.6737
  339SOL    HW2 1350   3.047   2.459   3.816  1.0247 -0.2111 -0.1615
  340SOL     OW 1351   4.155   1.265   5.333  0.5999  0.0179 -0.0495
  340SOL    HW1 1352   4.082   1.205   5.316  0.4509  0.4160 -0.8681
  340SOL    HW2 1353   4.196   1.231   5.412 -0.7871  0.0691  0.7147
  341SOL     OW 1354   0.108   1.638   5.519  0.1667  0.8408  0.0498
  341SOL    HW1 1355   0.022   1.611   5.552 -0.6535  2.2882 -0.8357
  341SOL    HW2 1356   0.149   1.684   5.592 -0.3281  1.2488  0.0704
  342SOL     OW 1357   4.755   4.050   0.282 -0.2339 -0.2637  0.7850
  342SOL    HW1 1358   4.774   4.140   0.257  3.5605 -1.1516  0.1928
  342SOL    HW2 1359   4.774   4.047   0.376  2.2992 -1.0392  0.2864
  343SOL     OW 1360   0.118   2.386   2.001  0.6946 -0.7901 -0.1248
  343SOL    HW1 1361   0.194   2.445   2.008 -1.3471  1.9898 -0.2123
  343SOL    HW2 1362   0.136   2.333   1.924  2.5581 -0.1434 -0.1533
  344SOL     OW 1363   3.189   2.380   3.122 -0.0898 -0.4754 -0.3458
  344SOL    HW1 1364   3.103   2.356   3.088 -1.3808 -1.4502  3.3674
  344SOL    HW2 1365   3.179   2.469   3.154  0.3385 -0.5440 -0.0144
  345SOL     OW 1366   2.853   4.810   2.779  0.5216 -0.4319 -0.5653
  345SOL    HW1 1367   2.843   4.747   2.851  1.7472 -0.6422 -0.5610
  345SOL    HW2 1368   2.765   4.845   2.765 -0.2073 -2.1961 -0.6074
  346SOL     OW 1369   1.807   4.812   5.121 -0.8657 -0.1685 -0.2280
  346SOL    HW1 1370   1.860   4.743   5.079  1.7322  1.3903  0.3856
  346SOL    HW2 1371   1.779   4.773   5.204 -0.4303 -0.9141 -0.4220
  347SOL     OW 1372   2.270   3.038   5.569 -0.3850  0.0499 -0.1714
  347SOL    HW1 1373   2.332   3.006   5.504 -0.0341 -0.0190  0.1908
  347SOL    HW2 1374   2.255   2.963   5.627 -0.1463  0.3167  0.2383
  348SOL     OW 1375   3.051   5.182   2.764  0.0909 -0.3991  0.9337
  348SOL    HW1 1376   3.128   5.143   2.723 -1.3191 -0.0219 -2.2626
  348SOL    HW2 1377   3.085   5.248   2.824  2.2677 -0.9824  0.3656
  349SOL     OW 1378   1.787   3.576   4.369 -0.0001 -0.5495  0.5276
  349SOL    HW1 1379   1.788   3.672   4.368  2.0696 -0.5484  0.4518
  349SOL    HW2 1380   1.871   3.552   4.407 -0.7691 -2.3535  1.1533
  350SOL     OW 1381   0.778   3.247   3.384  0.1465  0.0964  0.0463
  350SOL    HW1 1382   0.725   3.201   3.449  0.2516 -1.0578 -0.6721
  350SOL    HW2 1383   0.867   3.215   3.399  0.1402 -0.3178 -0.7905
  351SOL     OW 1384   1.943   5.044   5.167  0.6584 -0.5370  0.0816
  351SOL    HW1 1385   1.873   5.063   5.229  0.5332  0.8514 -0.4680
  351SOL    HW2 1386   1.927   4.954   5.139 -1.1798 -0.0628 -0.4012
  352SOL     OW 1387   4.444   2.859   1.758  0.4816 -0.6873  0.2278
  352SOL    HW1 1388   4.362   2.868   1.808  0.5277  0.3877  0.1323
  352SOL    HW2 1389   4.512   2.851   1.825  0.1838 -2.7441  0.2978
  353SOL     OW 1390   3.673   2.450   4.105 -0.1692  0.4448  0.2337
  353SOL    HW1 1391   3.764   2.432   4.128 -0.3080 -0.2419  0.2672
  353SOL    HW2 1392   3.632   2.472   4.189  0.2006  1.7977  0.0627
  354SOL     OW 1393   4.456   3.188   0.398 -0.2595 -0.3605  0.3834
  354SOL    HW1 1394   4.466   3.267   0.344 -0.1516 -2.3406 -2.5871
  354SOL    HW2 1395   4.367   3.194   0.432 -0.5381  0.6321 -0.4914
  355SOL     OW 1396   0.592   3.281   3.999  0.3261  0.3347 -0.1592
  355SOL    HW1 1397   0.603   3.206   3.941 -0.6985 -1.1143  1.4844
  355SOL    HW2 1398   0.673   3.286   4.048 -0.1481 -0.5852  0.7322
  356SOL     OW 1399   1.414   0.522   1.177  0.4980  0.0952  0.0489
  356SOL    HW1 1400   1.441   0.460   1.110  2.7467 -0.4838  1.4257
  356SOL    HW2 1401   1.353   0.473   1.232  0.1933 -0.0467 -0.4135
  357SOL     OW 1402   1.879   0.340   2.676  0.1504  0.2273 -1.1220
  357SOL    HW1 1403   1.850   0.385   2.755  0.7921 -1.2031 -0.0346
  357SOL    HW2 1404   1.969   0.369   2.664  0.3932 -0.3296 -0.7150
  358SOL     OW 1405   5.402   3.030   0.751 -0.5144  0.6211 -0.2110
  358SOL    HW1 1406   5.430   2.940   0.767  0.2008  0.7637 -0.6465
  358SOL    HW2 1407   5.348   3.053   0.827 -1.2663 -0.4100 -0.4326
  359SOL     OW 1408   1.072   1.437   2.258 -0.7473  0.4246 -0.0509
  359SOL    HW1 1409   1.144   1.389   2.218 -0.3141  1.2316 -0.2489
  359SOL    HW2 1410   1.006   1.370   2.277  0.5804 -0.5081  1.3228
  360SOL     OW 1411   2.607   1.037   1.723 -0.2167  0.2019 -0.6354
  360SOL    HW1 1412   2.580   0.952   1.689  2.5884 -1.0475  0.1256
  360SOL    HW2 1413   2.548   1.053   1.797 -1.5700 -0.4676 -1.5477
  361SOL     OW 1414   2.502   1.139   5.414  0.0717  0.1753  0.0318
  361SOL    HW1 1415   2.563   1.103   5.478 -1.1218 -1.0644  0.4767
  361SOL    HW2 1416   2.530   1.101   5.331 -0.7920 -1.2891  0.4044
  362SOL     OW 1417   0.630   1.370   2.163  0.3132  0.1940 -0.3005
  362SOL    HW1 1418   0.714   1.331   2.187 -0.2598 -0.8735  0.0024
  362SOL    HW2 1419   0.568   1.297   2.165 -0.4037  0.7576 -1.6543
  363SOL     OW 1420   1.203   4.241   5.342 -0.2936  0.5614  0.4531
  363SOL    HW1 1421   1.238   4.289   5.267 -0.6731  0.6276  0.3215
  363SOL    HW2 1422   1.219   4.299   5.417 -1.6222  1.3154  0.1635
  364SOL     OW 1423   2.330   1.406   2.071 -0.1154 -0.2467 -0.1576
  364SOL    HW1 1424   2.372   1.343   2.128 -0.2904  0.0288  0.2748
  364SOL    HW2 1425   2.272   1.353   2.016  0.8993 -0.6476 -0.8606
  365SOL     OW 1426   1.528   2.559   4.591  0.3720  0.1324 -0.1116
  365SOL    HW1 1427   1.436   2.532   4.595  0.3599 -0.0267 -1.3012
  365SOL    HW2 1428   1.525   2.651   4.565  0.5845 -0.3075 -1.7662
  366SOL     OW 1429   3.384   5.344   0.339  0.3978  0.1832 -0.5117
  366SOL    HW1 1430   3.462   5.390   0.305  0.4927  1.6778  1.6122
  366SOL    HW2 1431   3.420   5.279   0.400  0.0733 -0.3920 -0.9353
  367SOL     OW 1432   4.667   1.445   4.137 -0.3821  0.3213  0.0294
  367SOL    HW1 1433   4.651   1.351   4.141  0.8045  0.1094  0.0729
  367SOL    HW2 1434   4.647   1.470   4.047  0.0690 -0.1258 -0.1962
  368SOL     OW 1435   2.214   2.819   0.166 -0.0824 -0.3952 -0.1176
  368SOL    HW1 1436   2.307   2.796   0.172 -0.0544 -0.5202 -0.9444
  368SOL    HW2 1437   2.187   2.832   0.256  0.9163  0.3467  0.0894
  369SOL     OW 1438   5.097   1.226   3.985  0.1032 -0.3143  0.2747
  369SOL    HW1 1439   5.141   1.178   3.914  0.8776 -1.8414  1.7421
  369SOL    HW2 1440   5.156   1.299   4.004  0.5462 -0.6611  0.2390
  370SOL     OW 1441   0.267   5.421   5.301 -0.5361  0.6322  0.0276
  370SOL    HW1 1442   0.237   5.499   5.348  1.9285  1.2444  0.6589
  370SOL    HW2 1443   0.263   5.445   5.209  0.5038  1.6230  0.2331
  371SOL     OW 1444   3.398   4.119   1.571  0.3495 -0.4116 -0.2146
  371SOL    HW1 1445   3.351   4.042   1.539  2.2205 -1.3937 -0.7254
  371SOL    HW2 1446   3.369   4.129   1.662 -1.7646 -0.1983 -0.8795
  372SOL     OW 1447   4.790   1.818   4.998  0.2842  0.3528 -0.0603
  372SOL    HW1 1448   4.876   1.843   4.964 -0.2070 -0.1126 -1.7087
  372SOL    HW2 1449   4.733   1.891   4.974  0.0855  0.3767  0.4741
  373SOL     OW 1450   0.847   5.027   1.303 -0.0666 -0.3483  0.0491
  373SOL    HW1 1451   0.833   4.959   1.368  1.1664 -1.7347 -1.0876
  373SOL    HW2 1452   0.890   5.098   1.351 -1.3465 -0.3653  1.2358
  374SOL     OW 1453   2.459   1.777   3.518  0.5895 -0.1298  0.1600
  374SOL    HW1 1454   2.469   1.871   3.532  0.5981 -0.3717  1.8402
  374SOL    HW2 1455   2.546   1.748   3.490  0.7411  0.2617  0.2193
  375SOL     OW 1456   2.641   2.542   2.380  0.1976 -0.5892 -0.5626
  375SOL    HW1 1457   2.649   2.603   2.454 -1.0150  1.0493 -1.7479
  375SOL    HW2 1458   2.596   2.466   2.416 -3.1887  1.4403 -0.2293
  376SOL     OW 1459   1.960   1.983   3.747 -0.0674  0.4084  0.0899
  376SOL    HW1 1460   1.960   1.894   3.711 -0.6547  0.1507  0.7297
  376SOL    HW2 1461   2.018   1.978   3.822 -1.8614  0.0142  1.4782
  377SOL     OW 1462   0.433   0.142   3.501  0.2637  0.0329  0.4428
  377SOL    HW1 1463   0.519   0.100   3.500 -0.0786 -0.6618 -1.8028
  377SOL    HW2 1464   0.377   0.082   3.453 -0.9111  1.6871 -0.2920
  378SOL     OW 1465   0.924   0.693   1.247  0.4979 -0.2503  0.4193
  378SOL    HW1 1466   0.978   0.745   1.307  2.0226 -1.9004  0.4997
  378SOL    HW2 1467   0.967   0.701   1.163 -0.4329  0.2814 -0.0197
  379SOL     OW 1468   3.852   1.310   4.462 -0.4577  0.1941  0.3790
  379SOL    HW1 1469   3.902   1.266   4.393 -1.8249  1.0736 -1.2147
  379SOL    HW2 1470   3.812   1.239   4.511 -1.4838 -0.4135 -1.2818
  380SOL     OW 1471   3.833   1.734   0.565  0.0668 -0.4790  0.1839
  380SOL    HW1 1472   3.890   1.791   0.617  1.8008  0.4695 -2.6396
  380SOL    HW2 1473   3.772   1.793   0.522  0.7311 -0.8789 -1.3542
  381SOL     OW 1474   3.322   4.970   1.169  0.2985  0.5436 -0.1922
  381SOL    HW1 1475   3.256   5.000   1.232  0.8206 -0.2071  0.7258
  381SOL    HW2 1476   3.282   4.986   1.083 -0.2553  1.9448  0.3164
  382SOL     OW 1477   0.994   2.684   5.472  0.1350  0.6874 -0.1829
  382SOL    HW1 1478   0.980   2.774   5.502 -0.5811  0.5422 -0.0657
  382SOL    HW2 1479   1.076   2.657   5.512  0.7051  1.5276 -0.7742
  383SOL     OW 1480   2.429   3.760   4.286  0.0917 -0.0264 -0.2031
  383SOL    HW1 1481   2.521   3.775   4.266  0.2210  1.6632  1.5508
  383SOL    HW2 1482   2.419   3.665   4.281  1.7942 -0.1956 -0.8844
  384SOL     OW 1483   1.121   1.907   1.198 -0.5204 -0.1060  0.2348
  384SOL    HW1 1484   1.060   1.854   1.146  0.9716 -0.7219 -0.9002
  384SOL    HW2 1485   1.164   1.964   1.134  1.4644 -0.9839  0.7591
  385SOL     OW 1486   3.973   3.556   3.138  0.1282  0.0731  0.0497
  385SOL    HW1 1487   4.021   3.624   3.186  3.5152 -0.4449 -2.4187
  385SOL    HW2 1488   4.002   3.566   3.048  0.4438 -4.4686 -0.4336
  386SOL     OW 1489   0.788   3.350   5.206 -0.4990 -0.1810 -0.1476
  386SOL    HW1 1490   0.697   3.321   5.211 -0.3975 -0.2966  1.2905
  386SOL    HW2 1491   0.811   3.342   5.114 -2.1645  0.5431 -0.6396
  387SOL     OW 1492   5.522   5.395   3.487 -0.1156  0.4390 -0.0135
  387SOL    HW1 1493   5.555   5.457   3.422 -2.2000 -0.9211 -2.4781
  387SOL    HW2 1494   5.536   5.438   3.571  1.8349  2.6442 -1.4142
  388SOL     OW 1495   5.350   4.949   4.406  0.1719  0.2647 -0.0352
  388SOL    HW1 1496   5.293   4.872   4.402  2.5079 -1.6403  2.0333
  388SOL    HW2 1497   5.303   5.010   4.463 -0.5306 -0.6912  0.4308
  389SOL     OW 1498   1.815   0.340   2.090 -1.0503 -0.2145 -0.1927
  389SOL    HW1 1499   1.794   0.429   2.120 -2.3444 -1.1692  1.8578
  389SOL    HW2 1500   1.886   0.311   2.147  0.4544  0.0556 -1.8916
  390SOL     OW 1501   2.746   1.000   2.829  0.0070  0.0244 -0.3039
  390SOL    HW1 1502   2.842   1.008   2.826 -0.1437  2.9722  1.4341
  390SOL    HW2 1503   2.730   0.917   2.873  1.7656 -0.2649 -0.1801
  391SOL     OW 1504   0.071   1.477   3.861 -0.1229 -0.7140  0.1277
  391SOL    HW1 1505   0.079   1.536   3.786  1.6873 -1.5737 -0.3613
  391SOL    HW2 1506   0.054   1.535   3.935 -1.8295  0.1517 -0.9132
  392SOL     OW 1507   5.249   0.305   3.420  0.3961 -0.1709 -0.3191
  392SOL    HW1 1508   5.263   0.211   3.410  1.6383 -0.0790  0.5835
  392SOL    HW2 1509   5.159   0.318   3.390 -0.7299 -2.0592  1.9989
  393SOL     OW 1510   1.651   1.350   0.388 -0.9955  0.0891 -0.5886
  393SOL    HW1 1511   1.596   1.329   0.313 -0.8065 -1.1428 -0.3899
  393SOL    HW2 1512   1.653   1.270   0.440  2.3858 -0.4581 -1.4538
  394SOL     OW 1513   3.676   1.768   2.056  0.3225 -0.1486  0.0982
  394SOL    HW1 1514   3.639   1.791   2.141 -0.6587  0.4273 -0.4706
  394SOL    HW2 1515   3.736   1.695   2.074  0.3068  0.1335  1.3070
  395SOL     OW 1516   2.351   1.461   3.143  0.6614  0.3722 -0.0608
  395SOL    HW1 1517   2.389   1.479   3.229 -0.9558 -1.6099  1.1312
  395SOL    HW2 1518   2.406   1.392   3.107  0.2538 -0.0977  0.2017
  396SOL     OW 1519   2.453   1.875   4.962  0.1022 -0.0044  0.0066
  396SOL    HW1 1520   2.385   1.932   4.926  0.0466 -0.6806 -0.9741
  396SOL    HW2 1521   2.516   1.864   4.891  0.2586 -0.9434  0.2866
  397SOL     OW 1522   4.872   5.093   4.702  0.8016 -0.1366 -0.6307
  397SOL    HW1 1523   4.875   5.012   4.754 -0.2813  0.0576 -0.2475
  397SOL    HW2 1524   4.794   5.139   4.734 -0.2866 -0.3396 -2.9060
  398SOL     OW 1525   4.647   5.267   2.005  0.1261  0.3418  0.3562
  398SOL    HW1 1526   4.646   5.275   1.910  2.6328  1.1655  0.3773
  398SOL    HW2 1527   4.654   5.172   2.021 -2.4388  0.0202 -0.2136
  399SOL     OW 1528   3.929   5.565   4.379 -0.0026  0.0987  0.1635
  399SOL    HW1 1529   3.869   5.632   4.410 -0.9600 -0.6517 -0.0338
  399SOL    HW2 1530   3.882   5.522   4.307  1.3112  0.3850 -0.8917
  400SOL     OW 1531   5.066   1.037   0.468 -0.2387  0.2399  0.3215
  400SOL    HW1 1532   5.013   1.023   0.389 -1.4564  1.4926  0.8882
  400SOL    HW2 1533   5.024   0.983   0.534  1.1601 -1.3058 -0.0163
  401SOL     OW 1534   4.945   4.269   5.481 -0.0144  0.6380  0.2363
  401SOL    HW1 1535   4.858   4.280   5.518 -0.0561  1.3509 -0.0612
  401SOL    HW2 1536   4.929   4.250   5.388  0.1483  0.7433  0.1866
  402SOL     OW 1537   5.344   1.005   3.798  0.9414 -0.3294 -0.9061
  402SOL    HW1 1538   5.316   1.094   3.779  1.3551 -0.2234 -1.0131
  402SOL    HW2 1539   5.262   0.955   3.804  0.6708  0.2127 -0.0233
  403SOL     OW 1540   0.545   1.885   2.510 -0.8735  0.4648 -0.3318
  403SOL    HW1 1541   0.574   1.936   2.586 -2.7100 -0.9040  1.3240
  403SOL    HW2 1542   0.505   1.950   2.452 -1.6202  1.1836  0.9671
  404SOL     OW 1543   3.797   3.592   0.643 -0.3893  0.0632 -0.7768
  404SOL    HW1 1544   3.701   3.594   0.647 -0.3575 -0.7955  0.8254
  404SOL    HW2 1545   3.825   3.590   0.735  1.1140 -1.6440 -1.2509
  405SOL     OW 1546   1.363   2.631   4.915  0.0633 -0.3648 -0.6520
  405SOL    HW1 1547   1.377   2.536   4.918 -0.6273 -0.4687 -0.7577
  405SOL    HW2 1548   1.413   2.665   4.989 -1.5343 -1.0393  0.7666
  406SOL     OW 1549   5.201   2.004   4.426 -0.7251  0.6362 -0.0282
  406SOL    HW1 1550   5.255   1.974   4.499  0.8908  1.1980 -0.9728
  406SOL    HW2 1551   5.134   1.936   4.416  1.4157 -1.4800 -0.5604
  407SOL     OW 1552   3.463   3.150   3.540 -0.2078  0.3065 -0.5112
  407SOL    HW1 1553   3.403   3.094   3.491 -0.1674  0.5799 -0.8768
  407SOL    HW2 1554   3.498   3.211   3.474 -1.6780  1.9879  0.2390
  408SOL     OW 1555   5.106   2.442   4.622 -0.6271  0.3381 -0.3879
  408SOL    HW1 1556   5.078   2.480   4.539 -0.0658  0.5996 -0.4575
  408SOL    HW2 1557   5.103   2.347   4.607  0.3305  0.3974 -0.9955
  409SOL     OW 1558   1.917   3.505   1.157 -0.4945 -0.0858  0.7230
  409SOL    HW1 1559   2.010   3.518   1.137 -0.4357 -1.4884  0.0257
  409SOL    HW2 1560   1.876   3.496   1.071 -1.3516  0.9237  1.0148
  410SOL     OW 1561   1.552   2.149   3.290 -0.3532 -0.4491  0.1677
  410SOL    HW1 1562   1.574   2.063   3.327 -2.2840 -1.3329 -0.6221
  410SOL    HW2 1563   1.462   2.164   3.320 -0.0351  1.2968  0.2673
  411SOL     OW 1564   2.690   4.515   4.433  0.0683  0.1395  0.3353
  411SOL    HW1 1565   2.668   4.604   4.459  2.4578  0.3690  1.8035
  411SOL    HW2 1566   2.677   4.513   4.339 -0.9008  1.7612  0.4189
  412SOL     OW 1567   3.122   4.886   3.111  0.4820  0.1825  0.1234
  412SOL    HW1 1568   3.079   4.854   3.032  1.0942 -0.4093  0.0183
  412SOL    HW2 1569   3.057   4.874   3.180 -0.0586  0.7160 -0.2890
  413SOL     OW 1570   4.392   1.401   5.532  0.0029  0.2823 -0.4861
  413SOL    HW1 1571   4.450   1.442   5.468  0.1999 -0.4559 -0.7780
  413SOL    HW2 1572   4.449   1.378   5.605 -0.1621  0.7975 -0.1845
  414SOL     OW 1573   1.879   1.156   0.918  0.3752 -0.0154 -0.1647
  414SOL    HW1 1574   1.949   1.219   0.936  0.4137 -0.4257  1.2058
  414SOL    HW2 1575   1.919   1.091   0.860  1.0636 -0.1165  0.4203
  415SOL     OW 1576   0.604   3.724   2.120  0.4594 -0.4497 -0.0655
  415SOL    HW1 1577   0.689   3.727   2.163  0.2972  0.6952  0.2031
  415SOL    HW2 1578   0.541   3.713   2.191  0.3387 -0.7228 -0.2124
  416SOL     OW 1579   3.352   0.489   4.999  0.0739 -0.6071  0.2493
  416SOL    HW1 1580   3.287   0.545   5.042 -0.9521 -0.9423 -0.8233
  416SOL    HW2 1581   3.408   0.458   5.070 -0.7181 -0.0191  1.1483
  417SOL     OW 1582   3.897   3.345   5.264  0.5928 -0.4551 -0.3750
  417SOL    HW1 1583   3.871   3.349   5.172  0.0956  0.5155 -0.1956
  417SOL    HW2 1584   3.939   3.430   5.281  1.7144 -1.0609 -0.0092
  418SOL     OW 1585   3.662   4.130   1.393 -0.2468 -0.6128  0.2186
  418SOL    HW1 1586   3.582   4.160   1.351  1.0160 -0.0112 -1.8425
  418SOL    HW2 1587   3.705   4.210   1.423  0.3448 -0.8078 -0.0981
  419SOL     OW 1588   5.496   0.318   4.242  0.1455  0.3117 -0.1687
  419SOL    HW1 1589   5.488   0.413   4.248  0.8289  0.4700 -1.5356
  419SOL    HW2 1590   5.578   0.304   4.195 -0.5486 -0.9322 -1.0373
  420SOL     OW 1591   4.570   5.426   3.163 -0.7111  0.8627  0.2282
  420SOL    HW1 1592   4.622   5.346   3.172 -0.5062  1.1329  1.5484
  420SOL    HW2 1593   4.480   5.395   3.156 -0.4994  0.4505 -0.8707
  421SOL     OW 1594   4.750   2.339   4.602 -0.0312  0.7141 -0.1443
  421SOL    HW1 1595   4.779   2.269   4.543  0.9646  1.2447 -0.3000
  421SOL    HW2 1596   4.812   2.335   4.675 -2.3767 -1.1828  1.8325
  422SOL     OW 1597   4.711   2.602   4.356  0.1994 -0.2876  0.4853
  422SOL    HW1 1598   4.647   2.553   4.304  1.3690 -1.6461  0.2709
  422SOL    HW2 1599   4.690   2.581   4.447 -2.6239  3.0684  0.6890
  423SOL     OW 1600   4.780   5.453   0.354 -0.6178  0.2561  0.3895
  423SOL    HW1 1601   4.777   5.436   0.448 -0.3378  2.0655  0.7432
  423SOL    HW2 1602   4.850   5.516   0.343 -1.2180  0.7128 -0.9360
  424SOL     OW 1603   1.286   3.798   0.690 -0.3520 -0.2978 -0.2499
  424SOL    HW1 1604   1.379   3.778   0.680 -0.4551 -1.2086  0.5311
  424SOL    HW2 1605   1.269   3.866   0.624  1.0766  0.5770  0.2597
  425SOL     OW 1606   4.865   0.953   0.644  0.4677 -0.2192  0.4739
  425SOL    HW1 1607   4.788   0.897   0.649  0.2521 -0.0939 -1.2614
  425SOL    HW2 1608   4.856   1.013   0.718 -0.7794 -0.6156  0.6429
  426SOL     OW 1609   0.905   0.472   5.500 -0.1408 -0.8658  0.2310
  426SOL    HW1 1610   0.885   0.409   5.431  1.4304 -1.7111  0.5333
  426SOL    HW2 1611   0.858   0.552   5.475 -2.0789 -2.1107 -0.2082
  427SOL     OW 1612   0.042   1.190   2.929 -0.5484 -0.0603  0.4532
  427SOL    HW1 1613   0.036   1.280   2.896 -0.9611 -0.1376  0.3104
  427SOL    HW2 1614   0.126   1.187   2.974 -0.1970  0.1910 -0.1709
  428SOL     OW 1615   3.823   2.016   2.203  0.3012 -0.2570  0.4259
  428SOL    HW1 1616   3.779   1.936   2.174 -0.2483 -0.1936  1.0711
  428SOL    HW2 1617   3.871   1.991   2.282  1.6464 -0.3862 -0.4281
  429SOL     OW 1618   1.340   5.459   2.238  0.2187 -0.0193 -0.4748
  429SOL    HW1 1619   1.387   5.539   2.262 -1.4468  0.3514  1.7691
  429SOL    HW2 1620   1.262   5.490   2.192 -0.4657 -0.3318  0.4557
  430SOL     OW 1621   5.272   0.147   0.034 -0.3816  0.6640  0.2986
  430SOL    HW1 1622   5.303   0.069  -0.012  2.1813  0.0638  2.8594
  430SOL    HW2 1623   5.182   0.126   0.059 -0.1056 -0.9998 -0.0249
  431SOL     OW 1624   4.427   0.813   0.263  0.5503  0.4591  0.0823
  431SOL    HW1 1625   4.495   0.818   0.330  1.8226 -0.0135 -1.1339
  431SOL    HW2 1626   4.429   0.898   0.220  0.6653  0.3035 -0.2238
  432SOL     OW 1627   2.107   3.263   4.151  0.0708 -0.0486 -0.0591
  432SOL    HW1 1628   2.171   3.334   4.157  0.5475 -0.4411 -0.4260
  432SOL    HW2 1629   2.114   3.232   4.061  0.0636 -0.7417  0.1729
  433SOL     OW 1630   4.429   2.644   3.786  0.4103 -0.2654  0.1864
  433SOL    HW1 1631   4.398   2.652   3.876 -1.2836  1.0175 -0.4835
  433SOL    HW2 1632   4.409   2.553   3.762 -0.6157 -0.1584  0.5909
  434SOL     OW 1633   1.593   4.959   0.069 -0.3077  0.0733 -0.1037
  434SOL    HW1 1634   1.608   5.025   0.002 -0.0917  1.3313  1.1566
  434SOL    HW2 1635   1.498   4.961   0.084 -0.3344 -0.0860 -0.2507
  435SOL     OW 1636   2.063   1.221   0.557  0.2040  0.0922 -0.2193
  435SOL    HW1 1637   2.036   1.289   0.495 -0.7573  0.5300  0.6618
  435SOL    HW2 1638   2.028   1.140   0.520 -2.2025  0.6335  0.8217
  436SOL     OW 1639   2.933   1.357   2.291 -0.0575  0.6130  0.1972
  436SOL    HW1 1640   3.028   1.357   2.284 -0.0905 -1.4281 -0.3800
  436SOL    HW2 1641   2.905   1.433   2.240  1.2209  0.9138 -0.0556
  437SOL     OW 1642   1.500   1.461   2.827  0.6464  0.4325 -0.0426
  437SOL    HW1 1643   1.501   1.366   2.813  1.2841  0.4741 -0.3269
  437SOL    HW2 1644   1.470   1.472   2.917  1.3102 -0.0793  0.2466
  438SOL     OW 1645   5.324   1.882   4.656 -0.4186 -0.0505  0.4961
  438SOL    HW1 1646   5.402   1.864   4.604  0.2733  0.3836  1.3611
  438SOL    HW2 1647   5.274   1.801   4.653  0.6292 -0.7254  0.8782
  439SOL     OW 1648   1.847   1.037   1.937  0.3092 -0.1475 -0.5372
  439SOL    HW1 1649   1.910   1.034   2.010 -0.2201 -0.7959 -0.1033
  439SOL    HW2 1650   1.855   1.126   1.903 -1.3700  1.0689  2.0568
  440SOL     OW 1651   0.290   1.090   1.298 -0.6104 -0.4469  0.6661
  440SOL    HW1 1652   0.249   1.004   1.285 -0.9215 -0.2884  0.5826
  440SOL    HW2 1653   0.217   1.151   1.293 -0.4487 -0.2125  1.1446
  441SOL     OW 1654   0.815   2.307   4.502 -0.4203  0.2157 -0.3276
  441SOL    HW1 1655   0.720   2.321   4.501 -0.0034  3.8454  1.6305
  441SOL    HW2 1656   0.844   2.332   4.414 -1.0860  0.9739 -0.3382
  442SOL     OW 1657   0.357   4.688   1.644  0.1566 -0.2827  0.2101
  442SOL    HW1 1658   0.293   4.734   1.698  1.8116 -1.2902  3.1699
  442SOL    HW2 1659   0.404   4.758   1.599 -1.1260  0.6113  0.2100
  443SOL     OW 1660   1.980   5.147   2.974  0.6023 -0.7344  0.4914
  443SOL    HW1 1661   1.995   5.162   3.068  1.4309  0.6629  0.1349
  443SOL    HW2 1662   1.899   5.096   2.972  0.8308 -1.1982  1.9941
  444SOL     OW 1663   2.301   0.952   3.995 -0.8497  0.5597  0.3338
  444SOL    HW1 1664   2.338   1.016   3.935  2.2996  0.9918  2.6395
  444SOL    HW2 1665   2.350   0.872   3.980 -2.1861 -0.2486  0.1433
  445SOL     OW 1666   4.558   0.765   2.337  0.2178 -0.0433 -0.4689
  445SOL    HW1 1667   4.546   0.712   2.258  0.3608  0.5181 -0.8728
  445SOL    HW2 1668   4.651   0.757   2.357 -0.1702 -1.7122  0.7419
  446SOL     OW 1669   5.140   0.843   2.410 -0.0964 -0.2610 -0.1270
  446SOL    HW1 1670   5.196   0.791   2.467  0.4321 -0.7864 -1.1279
  446SOL    HW2 1671   5.199   0.908   2.372 -0.2320 -0.6135 -0.9374
  447SOL     OW 1672   4.669   1.174   1.964  0.1047  0.0807  0.1051
  447SOL    HW1 1673   4.747   1.213   2.003 -1.9893  4.1734  0.4051
  447SOL    HW2 1674   4.613   1.153   2.038  0.3990 -1.7672 -0.1768
  448SOL     OW 1675   0.131   4.916   0.081  0.2013 -0.3929 -0.9056
  448SOL    HW1 1676   0.115   5.005   0.114 -3.5230 -1.3858  0.1691
  448SOL    HW2 1677   0.144   4.863   0.160 -0.4996 -1.3034 -1.3922
  449SOL     OW 1678   5.313   1.148   2.540  0.3669 -0.2824  0.1021
  449SOL    HW1 1679   5.376   1.087   2.578  1.3124  0.0965 -0.8153
  449SOL    HW2 1680   5.315   1.129   2.446  1.0425  1.4594 -0.2625
  450SOL     OW 1681   5.090   4.979   5.313 -0.5687 -0.2252 -0.1421
  450SOL    HW1 1682   5.100   4.994   5.407  0.2860 -2.2029  0.1101
  450SOL    HW2 1683   5.180   4.982   5.280 -0.8890  0.6741 -0.9365
  451SOL     OW 1684   1.492   3.257   3.563 -0.5379  0.3392  0.0121
  451SOL    HW1 1685   1.502   3.192   3.494  1.5469  1.0477 -0.3849
  451SOL    HW2 1686   1.429   3.218   3.624 -0.4205 -1.4145 -0.9527
  452SOL     OW 1687   0.614   3.963   3.545  0.3835  0.0653 -0.0089
  452SOL    HW1 1688   0.688   3.989   3.600  1.9753 -1.0127 -1.5707
  452SOL    HW2 1689   0.617   3.867   3.544 -0.9394  0.0141 -0.2315
  453SOL     OW 1690   4.980   0.272   2.648 -0.1237 -0.0887 -0.2994
  453SOL    HW1 1691   4.887   0.281   2.628 -0.5799  3.1403  2.7501
  453SOL    HW2 1692   4.985   0.205   2.716 -0.5513  1.3454  1.1906
  454SOL     OW 1693   1.189   2.723   1.747 -1.0211  0.3756  0.4167
  454SOL    HW1 1694   1.093   2.730   1.749 -1.0352  1.5495 -2.2385
  454SOL    HW2 1695   1.218   2.809   1.717  0.7609 -0.6163 -0.7406
  455SOL     OW 1696   3.586   0.951   0.220  0.1040  0.0636  0.2368
  455SOL    HW1 1697   3.610   1.033   0.177  0.5975 -1.1337 -1.8713
  455SOL    HW2 1698   3.581   0.973   0.313  0.2835  2.4543 -0.2813
  456SOL     OW 1699   3.064   3.404   2.327 -0.2046 -0.1366 -0.5107
  456SOL    HW1 1700   2.997   3.470   2.341 -0.4915 -0.3885 -0.6927
  456SOL    HW2 1701   3.020   3.336   2.277  0.4124  0.0792 -1.3515
  457SOL     OW 1702   4.091   1.636   4.790  0.2436 -0.3027 -0.0081
  457SOL    HW1 1703   4.009   1.602   4.755 -1.4703  0.6872  2.8953
  457SOL    HW2 1704   4.101   1.593   4.875  3.2587 -1.1257 -0.7116
  458SOL     OW 1705   1.892   5.524   1.927  0.1489  0.0411 -0.1970
  458SOL    HW1 1706   1.919   5.434   1.905  3.5427  0.8450  0.3414
  458SOL    HW2 1707   1.972   5.565   1.959 -1.7296  2.8166  1.0845
  459SOL     OW 1708   4.049   0.001   1.123  0.0405  0.2008  0.2416
  459SOL    HW1 1709   4.050  -0.081   1.173 -2.4654 -0.3985 -0.5772
  459SOL    HW2 1710   4.086   0.066   1.182 -0.5056 -0.9812  1.9420
  460SOL     OW 1711   2.216   3.441   2.692 -0.3336  0.2133  0.4805
  460SOL    HW1 1712   2.157   3.401   2.755 -0.9228 -0.4624 -0.4784
  460SOL    HW2 1713   2.268   3.368   2.658  1.1087  0.8052  1.3627
  461SOL     OW 1714   5.393   3.045   5.194 -0.7210  0.1271 -0.2203
  461SOL    HW1 1715   5.344   3.036   5.275  0.2054 -2.4561  0.0921
  461SOL    HW2 1716   5.414   2.955   5.168 -1.9151  0.7926 -3.8894
  462SOL     OW 1717   3.654   1.647   0.762 -0.3174  0.4391 -0.3520
  462SOL    HW1 1718   3.716   1.656   0.690 -1.0774  0.0497 -1.0645
  462SOL    HW2 1719   3.592   1.719   0.751 -0.5753  0.2397 -0.2354
  463SOL     OW 1720   2.377   0.684   3.935  0.1603  0.4706  0.9017
  463SOL    HW1 1721   2.380   0.600   3.981 -1.8905  0.3444  0.8588
  463SOL    HW2 1722   2.319   0.668   3.861  0.7174  1.6140  0.2043
  464SOL     OW 1723   1.321   2.255   2.675 -0.4457 -0.4215  0.0915
  464SOL    HW1 1724   1.391   2.226   2.734  1.4343 -0.8510 -2.2636
  464SOL    HW2 1725   1.311   2.348   2.695  1.0464 -0.2812  0.2535
  465SOL     OW 1726   2.945   2.029   0.036  0.3475  0.1113  0.3852
  465SOL    HW1 1727   3.033   2.034  -0.002 -0.4087 -0.1466 -1.4059
  465SOL    HW2 1728   2.950   2.085   0.114  2.3990 -0.7466  0.9126
  466SOL     OW 1729   1.827   4.727   1.444 -0.2358 -0.1797  0.2831
  466SOL    HW1 1730   1.867   4.641   1.458  0.4976  0.1814  0.4541
  466SOL    HW2 1731   1.788   4.722   1.357 -0.0082 -0.6161  0.2056
  467SOL     OW 1732   4.591   0.381   5.319 -0.3648  0.0154  0.5434
  467SOL    HW1 1733   4.593   0.302   5.263 -0.4868  1.6063 -1.7968
  467SOL    HW2 1734   4.500   0.385   5.350 -1.0377  0.6094 -1.4188
  468SOL     OW 1735   1.487   2.429   2.989  0.2478  0.0766 -0.1329
  468SOL    HW1 1736   1.441   2.501   3.033 -0.7335 -0.4956 -0.2098
  468SOL    HW2 1737   1.520   2.468   2.908  1.2180  0.8823  0.6416
  469SOL     OW 1738   1.863   0.345   3.464  0.0810 -0.2736 -0.2423
  469SOL    HW1 1739   1.788   0.401   3.448  0.4038  0.5468  1.0703
  469SOL    HW2 1740   1.930   0.375   3.402 -1.0528 -1.8233 -2.2946
  470SOL     OW 1741   1.306   0.041   0.655 -0.0878 -0.2377  0.6259
  470SOL    HW1 1742   1.228   0.068   0.703 -1.2172 -1.0672 -0.6847
  470SOL    HW2 1743   1.272  -0.005   0.578  1.5816  3.0172 -2.2084
  471SOL     OW 1744   3.358   2.703   2.842 -0.1980  0.1979 -0.2985
  471SOL    HW1 1745   3.453   2.693   2.844 -0.1411  0.8578  1.7651
  471SOL    HW2 1746   3.343   2.780   2.788  0.5111  0.6092  0.0789
  472SOL     OW 1747   4.329   0.793   0.577  0.3012 -0.4334  0.2917
  472SOL    HW1 1748   4.297   0.705   0.559 -1.3200 -0.0131  1.0213
  472SOL    HW2 1749   4.352   0.792   0.670 -1.0194  0.2904  0.6367
  473SOL     OW 1750   2.714   5.143   2.242 -0.1665 -0.2507 -0.5970
  473SOL    HW1 1751   2.640   5.125   2.299  0.8468  1.2187  1.2822
  473SOL    HW2 1752   2.756   5.058   2.229  1.0462 -0.2857  3.0094
  474SOL     OW 1753   2.404   4.448   5.032  1.1178  0.3657 -0.6220
  474SOL    HW1 1754   2.451   4.490   5.105  2.1469  0.5799 -1.3964
  474SOL    HW2 1755   2.473   4.413   4.976  0.2988 -1.3804 -0.5837
  475SOL     OW 1756   0.147   4.835   0.783 -0.8001  0.1804  0.3795
  475SOL    HW1 1757   0.203   4.760   0.762 -0.5736  0.5614 -0.3912
  475SOL    HW2 1758   0.069   4.823   0.730 -1.1297  0.0519  0.8856
  476SOL     OW 1759   4.764   1.728   0.779 -0.3992  0.1031  0.2325
  476SOL    HW1 1760   4.825   1.658   0.803 -0.1394 -0.0528 -0.8538
  476SOL    HW2 1761   4.718   1.695   0.702  1.1458  1.8886 -1.5282
  477SOL     OW 1762   0.917   3.583   2.709  0.0562 -0.5145  0.4434
  477SOL    HW1 1763   1.006   3.614   2.692  0.1494 -0.7729  0.4560
  477SOL    HW2 1764   0.923   3.540   2.795 -0.2272  0.0521  0.7446
  478SOL     OW 1765   4.877   1.834   3.104 -0.0588  0.4710 -0.5347
  478SOL    HW1 1766   4.952   1.879   3.065  0.7608 -0.8653 -0.5305
  478SOL    HW2 1767   4.813   1.903   3.119  1.0948  1.6028 -0.7231
  479SOL     OW 1768   2.114   5.563   1.058  0.4018 -0.3383  0.3032
  479SOL    HW1 1769   2.201   5.604   1.060  0.7578 -1.0160 -1.0354
  479SOL    HW2 1770   2.053   5.637   1.051  0.9629  0.0620 -0.4800
  480SOL     OW 1771   3.538   1.995   1.483  0.0833 -0.3733 -0.3476
  480SOL    HW1 1772   3.457   1.986   1.433  0.4728 -1.9281 -0.7315
  480SOL    HW2 1773   3.535   1.923   1.546 -0.3717  1.5399  1.8309
  481SOL     OW 1774   5.023   2.192   2.447  0.1174 -0.0669  0.6723
  481SOL    HW1 1775   5.013   2.172   2.540 -0.3820 -0.4103  0.5485
  481SOL    HW2 1776   5.093   2.256   2.443  0.4084 -0.3531  1.2525
  482SOL     OW 1777   0.718   4.868   4.919  0.1374  0.5589  0.4816
  482SOL    HW1 1778   0.701   4.774   4.929  0.6867  0.6012  1.8781
  482SOL    HW2 1779   0.728   4.901   5.008 -0.7383  2.0883  0.0427
  483SOL     OW 1780   0.171   4.198   4.461  0.6214  0.2048  0.6639
  483SOL    HW1 1781   0.130   4.167   4.542  0.3127 -1.4786 -0.1173
  483SOL    HW2 1782   0.224   4.124   4.432  0.5801  0.7336 -0.7652
  484SOL     OW 1783   3.003   4.333   3.755  0.0690 -0.1397 -0.2873
  484SOL    HW1 1784   3.033   4.285   3.678  1.7310  0.9513 -0.3469
  484SOL    HW2 1785   3.031   4.279   3.829 -0.1231 -0.4111 -0.4142
  485SOL     OW 1786   0.656   1.054   1.159 -0.3927 -0.2122 -0.4433
  485SOL    HW1 1787   0.636   1.043   1.252  1.7490 -0.5632  0.0116
  485SOL    HW2 1788   0.641   1.147   1.142 -1.1319 -0.2177  0.1638
  486SOL     OW 1789   3.151   2.264   5.434 -0.2661  0.5683  0.1506
  486SOL    HW1 1790   3.106   2.281   5.351 -1.3994  0.8234  0.8211
  486SOL    HW2 1791   3.209   2.341   5.445  0.0209  0.4479 -0.4829
  487SOL     OW 1792   4.854   3.279   1.027 -0.1544  0.2266  0.3434
  487SOL    HW1 1793   4.839   3.214   0.959  0.3654  0.5167 -0.0536
  487SOL    HW2 1794   4.876   3.228   1.105 -0.7183 -0.1040  0.2840
  488SOL     OW 1795   5.053   1.540   5.416 -0.1049 -0.2061  0.3099
  488SOL    HW1 1796   4.969   1.586   5.421  0.4235  1.0045 -1.3155
  488SOL    HW2 1797   5.082   1.534   5.506 -0.8134  1.5737  0.6917
  489SOL     OW 1798   1.627   1.932   2.589 -0.3193 -0.0749  0.0171
  489SOL    HW1 1799   1.588   1.962   2.507  1.4627 -3.2688 -2.1039
  489SOL    HW2 1800   1.720   1.951   2.579 -0.3279  1.1967  2.1273
  490SOL     OW 1801   1.068   2.674   5.212  0.2725 -0.4954 -0.2850
  490SOL    HW1 1802   1.013   2.685   5.289 -0.3954 -3.5379 -0.2816
  490SOL    HW2 1803   1.006   2.662   5.140  0.9132 -0.6153 -0.8205
  491SOL     OW 1804   3.428   1.982   3.063 -0.1969 -0.0106 -0.2825
  491SOL    HW1 1805   3.433   1.900   3.113  1.7088  1.1556  1.5402
  491SOL    HW2 1806   3.438   2.051   3.128 -1.5275  1.7040 -1.8257
  492SOL     OW 1807   4.559   5.000   4.971 -0.2652  0.2220  0.3831
  492SOL    HW1 1808   4.653   4.981   4.971  0.0884  1.8483  1.7043
  492SOL    HW2 1809   4.538   5.022   5.061 -1.4272  2.1316 -0.3143
  493SOL     OW 1810   1.956   5.258   1.880  0.3839 -0.0014 -0.1033
  493SOL    HW1 1811   1.936   5.231   1.791 -0.6402  0.4412 -0.0184
  493SOL    HW2 1812   2.043   5.222   1.898 -0.0458 -1.3750 -0.7397
  494SOL     OW 1813   1.104   1.388   5.123  0.3730 -0.3814  0.2964
  494SOL    HW1 1814   1.074   1.380   5.033 -2.9125  0.9046  1.1880
  494SOL    HW2 1815   1.154   1.469   5.125  0.8434 -0.6521 -0.4689
  495SOL     OW 1816   2.781   2.494   4.212 -0.0172 -0.0240 -0.2096
  495SOL    HW1 1817   2.782   2.401   4.187 -1.3810  0.0025 -0.3916
  495SOL    HW2 1818   2.695   2.526   4.184  0.4998  1.3415 -0.2895
  496SOL     OW 1819   2.410   4.272   0.042 -0.7428  0.4935  0.6038
  496SOL    HW1 1820   2.429   4.366   0.046  1.1668  0.1693 -0.3112
  496SOL    HW2 1821   2.406   4.252  -0.051 -3.1937  0.0342  0.7811
  497SOL     OW 1822   2.010   1.686   3.882  0.1443 -0.4445  0.6501
  497SOL    HW1 1823   1.981   1.605   3.924 -1.4819 -0.1499  0.1537
  497SOL    HW2 1824   2.031   1.744   3.955 -0.4310 -0.7173  1.0415
  498SOL     OW 1825   5.467   2.228   4.962 -0.0169 -0.1975 -0.1108
  498SOL    HW1 1826   5.439   2.255   4.875  0.6658  0.3814 -0.1567
  498SOL    HW2 1827   5.392   2.246   5.018  0.1014  0.9339 -0.3043
  499SOL     OW 1828   0.165   5.509   5.060  0.4072  0.4657 -0.1984
  499SOL    HW1 1829   0.080   5.551   5.073 -0.0159 -0.7025  0.9463
  499SOL    HW2 1830   0.219   5.576   5.019 -0.5322  1.8252  0.7363
  500SOL     OW 1831   4.496   0.825   4.055  0.1989 -0.0786  0.6428
  500SOL    HW1 1832   4.531   0.817   4.144  0.0687 -1.0382  0.6206
  500SOL    HW2 1833   4.461   0.913   4.051 -0.3804 -0.2419  1.7656
  501SOL     OW 1834   2.700   0.085   2.030 -0.0348 -0.7680  0.1273
  501SOL    HW1 1835   2.714   0.094   1.935 -2.5146 -0.6135 -0.2710
  501SOL    HW2 1836   2.617   0.130   2.045 -0.3802 -2.0543  2.1494
  502SOL     OW 1837   2.457   4.039   2.004  0.1628  0.0113  0.5672
  502SOL    HW1 1838   2.472   3.977   1.932 -0.2795 -0.6333  1.0202
  502SOL    HW2 1839   2.529   4.101   1.998  0.3610 -0.2852 -0.1772
  503SOL     OW 1840   5.232   4.080   3.021 -0.3235  0.4319 -0.1457
  503SOL    HW1 1841   5.268   4.165   3.045 -1.6808  1.4076 -1.4790
  503SOL    HW2 1842   5.216   4.086   2.927 -0.4353 -1.3060 -0.2612
  504SOL     OW 1843   5.460   1.189   5.352  0.5317  0.2684  0.2314
  504SOL    HW1 1844   5.518   1.232   5.415 -0.7714 -0.9079  2.3136
  504SOL    HW2 1845   5.372   1.197   5.391 -0.0088 -2.3530 -0.3630
  505SOL     OW 1846   0.280   0.616   5.382 -0.5623 -0.5869 -0.7450
  505SOL    HW1 1847   0.352   0.556   5.404 -0.4929 -0.5024 -0.7387
  505SOL    HW2 1848   0.281   0.681   5.453 -0.4443 -0.4087 -0.9088
  506SOL     OW 1849   3.453   1.712   3.185  0.0928  0.0694 -0.2550
  506SOL    HW1 1850   3.453   1.660   3.265  0.4160 -0.4807 -0.6144
  506SOL    HW2 1851   3.367   1.696   3.146 -0.1623  0.5407  0.1154
  507SOL     OW 1852   1.547   1.661   4.257  0.3792 -0.1941  0.0533
  507SOL    HW1 1853   1.502   1.686   4.177  2.8850 -0.0041 -1.3563
  507SOL    HW2 1854   1.591   1.741   4.286  0.1370 -0.4549  1.1818
  508SOL     OW 1855   1.682   1.261   0.757  0.4079  0.5190 -0.1078
  508SOL    HW1 1856   1.757   1.231   0.808  0.1703  0.9053  0.4846
  508SOL    HW2 1857   1.674   1.354   0.778  0.1215  0.6125 -0.6220
  509SOL     OW 1858   5.157   2.895   1.211 -0.3429  0.0224  0.0640
  509SOL    HW1 1859   5.135   2.975   1.259  1.9901 -0.1938  1.5709
  509SOL    HW2 1860   5.123   2.825   1.267  1.1050 -0.1662  0.7440
  510SOL     OW 1861   3.548   4.713   0.458  0.0192  1.0163  0.0947
  510SOL    HW1 1862   3.551   4.700   0.363  0.5739 -1.7998  0.4544
  510SOL    HW2 1863   3.506   4.634   0.492 -1.3786  2.5535  2.1231
  511SOL     OW 1864   0.678   4.142   0.009 -0.1211 -0.0365 -0.0871
  511SOL    HW1 1865   0.649   4.120   0.098 -1.5369  3.5514  0.4043
  511SOL    HW2 1866   0.773   4.135   0.013 -0.1728  0.0147  1.6945
  512SOL     OW 1867   0.080   4.452   4.387  0.1306  0.3079 -0.1681
  512SOL    HW1 1868   0.097   4.491   4.473  0.0967 -0.8579  0.3881
  512SOL    HW2 1869   0.109   4.361   4.397  0.9415  0.3980 -1.6682
  513SOL     OW 1870   0.147   2.110   1.160  0.0366 -0.4815  0.0048
  513SOL    HW1 1871   0.062   2.112   1.204  0.1098  1.0387  0.0892
  513SOL    HW2 1872   0.156   2.019   1.131 -1.3951 -0.7770  0.4261
  514SOL     OW 1873   1.683   2.324   1.835 -0.2647 -0.0719 -0.5248
  514SOL    HW1 1874   1.686   2.334   1.930 -0.1871  1.6060 -0.7021
  514SOL    HW2 1875   1.633   2.399   1.804  2.8642  1.4248 -2.1083
  515SOL     OW 1876   0.104   1.835   1.087  0.1077  0.1096  0.5439
  515SOL    HW1 1877   0.036   1.772   1.110  0.8171 -0.4090  1.2448
  515SOL    HW2 1878   0.168   1.784   1.037  1.7900 -0.2488  3.0125
  516SOL     OW 1879   1.988   0.459   1.668 -0.5822 -0.1429 -0.0951
  516SOL    HW1 1880   2.076   0.492   1.687 -0.3117 -0.2612 -1.1071
  516SOL    HW2 1881   1.977   0.385   1.728 -0.1208  0.0653  0.2534
  517SOL     OW 1882   1.026   3.435   5.501 -0.1822  0.0113 -0.5719
  517SOL    HW1 1883   0.940   3.468   5.476 -0.3063 -1.3507 -2.0333
  517SOL    HW2 1884   1.009   3.351   5.542  0.4417 -0.2664 -0.8721
  518SOL     OW 1885   4.130   2.574   2.512  0.1866  0.2243 -0.2632
  518SOL    HW1 1886   4.170   2.514   2.575  0.3856 -0.5067 -1.0713
  518SOL    HW2 1887   4.150   2.661   2.546 -0.1891 -0.1603  0.9798
  519SOL     OW 1888   1.006   3.010   1.722  0.3881 -0.0818 -0.1811
  519SOL    HW1 1889   0.957   2.929   1.708 -0.4869  0.3979  0.0711
  519SOL    HW2 1890   0.976   3.069   1.653 -0.5226  0.7318  0.8999
  520SOL     OW 1891   0.901   4.847   2.126  0.0678 -0.0590  0.1869
  520SOL    HW1 1892   0.993   4.820   2.123  0.0125 -0.2779  0.4184
  520SOL    HW2 1893   0.870   4.815   2.211 -1.1753 -3.0490 -1.3418
  521SOL     OW 1894   2.075   2.377   1.318  0.0856  0.2696  0.2528
  521SOL    HW1 1895   1.999   2.364   1.376  0.8876 -0.1136  1.2360
  521SOL    HW2 1896   2.087   2.472   1.314  1.0058  0.2442  2.0238
  522SOL     OW 1897   1.492   0.764   0.286  0.0453  0.3659  0.5246
  522SOL    HW1 1898   1.426   0.695   0.299 -2.1023  1.8684 -2.0182
  522SOL    HW2 1899   1.465   0.834   0.345 -0.3747  0.8113 -0.1975
  523SOL     OW 1900   3.953   2.857   3.102 -0.1451 -0.1553  0.0312
  523SOL    HW1 1901   4.001   2.830   3.180 -0.0547  0.1207  0.0719
  523SOL    HW2 1902   4.020   2.884   3.040 -0.1251 -2.0160 -0.7813
  524SOL     OW 1903   3.025   2.532   4.351  0.2727 -0.1799 -0.3323
  524SOL    HW1 1904   2.955   2.500   4.294  1.1189 -0.9506 -0.9510
  524SOL    HW2 1905   2.989   2.526   4.440 -0.7767  0.3096 -0.7118
  525SOL     OW 1906   3.101   0.235   0.660  0.6572  0.4359  0.1950
  525SOL    HW1 1907   3.024   0.261   0.711  0.0666  0.1705 -0.5552
  525SOL    HW2 1908   3.115   0.143   0.683  1.3005  0.7212  1.0090
  526SOL     OW 1909   3.976   4.073   2.789 -0.7304 -0.2259  0.1852
  526SOL    HW1 1910   3.933   4.071   2.874 -1.2828  1.8656 -0.0083
  526SOL    HW2 1911   3.904   4.081   2.726 -0.2586 -0.5022 -0.4010
  527SOL     OW 1912   1.988   3.354   2.824 -0.2403  0.1168  0.4493
  527SOL    HW1 1913   1.961   3.262   2.814 -1.6880  0.3749  1.7972
  527SOL    HW2 1914   2.029   3.357   2.911  0.1308  0.6772  0.2533
  528SOL     OW 1915   5.085   3.276   1.940 -0.1705  0.1869 -0.2923
  528SOL    HW1 1916   4.993   3.255   1.927 -0.3095  2.1772 -2.9438
  528SOL    HW2 1917   5.088   3.325   2.022 -1.0680 -2.0455  1.1252
  529SOL     OW 1918   4.198   4.216   0.609 -0.4803  0.2010  0.4711
  529SOL    HW1 1919   4.197   4.242   0.517  0.1195  0.6918  0.5974
  529SOL    HW2 1920   4.188   4.299   0.657  1.8003  0.2839  0.8850
  530SOL     OW 1921   0.374   3.539   0.401 -0.3370 -0.0399 -0.9301
  530SOL    HW1 1922   0.371   3.560   0.308  0.1348 -1.5601 -1.3055
  530SOL    HW2 1923   0.419   3.454   0.405 -1.9409 -0.8515  0.5323
  531SOL     OW 1924   2.772   0.614   2.488 -0.7458  0.2536  0.6777
  531SOL    HW1 1925   2.721   0.693   2.508 -1.4005 -0.2814  1.1378
  531SOL    HW2 1926   2.824   0.638   2.411 -2.4146  0.4816 -0.3930
  532SOL     OW 1927   0.160   0.101   3.953 -0.4131  0.2935  0.2188
  532SOL    HW1 1928   0.204   0.024   3.917 -0.9462  0.6489 -1.2204
  532SOL    HW2 1929   0.139   0.155   3.877 -2.5943  0.5065  0.9302
  533SOL     OW 1930   5.352   5.104   2.827  0.0120  0.4192  0.6572
  533SOL    HW1 1931   5.395   5.185   2.855 -0.6921  1.0676 -0.0918
  533SOL    HW2 1932   5.315   5.126   2.741  0.8487 -1.0676 -0.1022
  534SOL     OW 1933   2.295   1.048   3.210  0.4652  0.0833  0.0690
  534SOL    HW1 1934   2.258   1.104   3.142  1.4723  0.1669 -0.4162
  534SOL    HW2 1935   2.220   1.000   3.245 -0.0460 -0.0512 -1.1856
  535SOL     OW 1936   0.153   0.522   1.455 -0.1040 -0.0813 -0.1072
  535SOL    HW1 1937   0.113   0.590   1.509 -0.5386  1.5778 -2.4188
  535SOL    HW2 1938   0.237   0.559   1.429  0.8899 -1.6216  0.9408
  536SOL     OW 1939   1.394   3.867   3.976  0.0354 -0.6032  0.0703
  536SOL    HW1 1940   1.479   3.909   3.983  1.0077 -2.6997  1.3787
  536SOL    HW2 1941   1.339   3.914   4.038  0.5534  0.0102  0.0679
  537SOL     OW 1942   0.971   0.020   4.519  0.4234  0.3160  0.6272
  537SOL    HW1 1943   0.889   0.046   4.560 -0.4585 -0.9172 -0.3215
  537SOL    HW2 1944   0.994  -0.062   4.561  0.3881 -0.1020 -0.1582
  538SOL     OW 1945   1.539   5.100   5.393 -0.4859 -0.8572 -0.0430
  538SOL    HW1 1946   1.497   5.081   5.309 -1.7498 -0.5471  0.4955
  538SOL    HW2 1947   1.466   5.115   5.453  0.3931 -1.4254  1.1974
  539SOL     OW 1948   5.325   2.307   0.890 -0.3802  0.2406  0.3375
  539SOL    HW1 1949   5.268   2.232   0.903 -1.1035  0.5140 -1.1285
  539SOL    HW2 1950   5.374   2.315   0.972 -1.5205 -0.7786  1.1299
  540SOL     OW 1951   0.650   4.396   3.584  0.0819  0.1312  0.1021
  540SOL    HW1 1952   0.703   4.347   3.648  1.1272  0.9022 -0.1657
  540SOL    HW2 1953   0.660   4.487   3.610 -1.0824  0.2895  0.0058
  541SOL     OW 1954   3.797   1.694   0.992 -0.0148 -0.0837  0.3755
  541SOL    HW1 1955   3.753   1.642   1.059  1.6726 -0.6885  1.0402
  541SOL    HW2 1956   3.758   1.665   0.909  0.2590 -1.7331  0.8208
  542SOL     OW 1957   0.522   3.144   0.900 -0.1066 -0.0526  0.1027
  542SOL    HW1 1958   0.600   3.112   0.855  0.5551  0.3957  0.9173
  542SOL    HW2 1959   0.552   3.223   0.946 -1.8309  2.1851 -2.4196
  543SOL     OW 1960   3.968   2.558   0.705  0.1076  0.5834  0.1750
  543SOL    HW1 1961   3.903   2.563   0.775  0.6671 -0.4325  0.7811
  543SOL    HW2 1962   4.032   2.626   0.726  0.3639  0.1736  0.7693
  544SOL     OW 1963   2.004   0.100   1.611  0.0556 -0.1671 -0.7106
  544SOL    HW1 1964   2.055   0.024   1.585  0.7987  0.6731 -1.7677
  544SOL    HW2 1965   2.069   0.167   1.632 -0.5500 -0.4150  2.1372
  545SOL     OW 1966   0.022   0.715   1.565 -0.0846  0.0372  0.4321
  545SOL    HW1 1967  -0.046   0.687   1.627 -0.7677 -1.1931 -0.8321
  545SOL    HW2 1968  -0.026   0.732   1.484  1.0329 -0.1383 -0.2701
  546SOL     OW 1969   3.816   1.307   5.271  0.3542  0.2949  0.5141
  546SOL    HW1 1970   3.851   1.223   5.303 -0.4011 -0.8449 -1.5357
  546SOL    HW2 1971   3.727   1.310   5.306 -0.1354 -0.4886 -0.6321
  547SOL     OW 1972   3.851   5.370   1.259 -0.3294  0.1916 -0.0909
  547SOL    HW1 1973   3.830   5.278   1.244 -1.3847  0.2801  0.7621
  547SOL    HW2 1974   3.865   5.377   1.353  3.3438  0.2041 -0.5726
  548SOL     OW 1975   1.315   2.486   0.429 -0.4584  0.5682 -0.4907
  548SOL    HW1 1976   1.243   2.483   0.367 -1.5561 -2.0071  0.8560
  548SOL    HW2 1977   1.393   2.498   0.374 -1.4657 -0.9640 -2.3225
  549SOL     OW 1978   4.075   3.759   3.277  0.4393  0.0067  0.3292
  549SOL    HW1 1979   4.096   3.803   3.359 -0.9720  0.2331  0.5747
  549SOL    HW2 1980   4.150   3.780   3.220  1.8134 -0.8322  1.7869
  550SOL     OW 1981   3.726   5.002   3.204  0.0520  0.1822 -0.1842
  550SOL    HW1 1982   3.806   4.952   3.187 -0.6648 -0.7379 -0.8740
  550SOL    HW2 1983   3.756   5.078   3.254  1.2371 -0.6028  0.3258
  551SOL     OW 1984   2.886   1.415   0.382 -0.6535 -0.4502 -0.2861
  551SOL    HW1 1985   2.805   1.372   0.355  0.1714 -2.3443  0.1373
  551SOL    HW2 1986   2.900   1.484   0.318 -1.5844 -1.3837 -1.5129
  552SOL     OW 1987   4.648   0.761   4.281  0.0149 -0.2475  0.1004
  552SOL    HW1 1988   4.728   0.793   4.323  0.1384 -0.1793 -0.1826
  552SOL    HW2 1989   4.677   0.685   4.230  0.4038  1.3695 -2.1545
  553SOL     OW 1990   0.213   2.371   1.163  0.1182 -0.3710  0.2480
  553SOL    HW1 1991   0.211   2.276   1.151  0.1625 -0.0465 -2.6371
  553SOL    HW2 1992   0.121   2.395   1.172  0.0974 -0.6710  0.8556
  554SOL     OW 1993   3.784   1.149   1.900 -0.4300  0.1882  0.7585
  554SOL    HW1 1994   3.756   1.064   1.865 -0.6981  0.9805 -1.0111
  554SOL    HW2 1995   3.869   1.132   1.940  0.1383 -0.6719 -0.7587
  555SOL     OW 1996   0.611   0.199   5.008  0.0724 -0.1597  0.3721
  555SOL    HW1 1997   0.588   0.118   5.053  1.3419 -0.0438  1.2442
  555SOL    HW2 1998   0.706   0.196   4.999 -0.1446 -0.2445 -2.4463
  556SOL     OW 1999   2.760   0.206   3.885 -0.5301  0.3292  0.8483
  556SOL    HW1 2000   2.693   0.146   3.918 -1.1414  1.8362  2.3881
  556SOL    HW2 2001   2.829   0.204   3.950 -1.0220  2.0789  1.4539
  557SOL     OW 2002   0.465   2.844   4.298 -0.6659  0.7044 -0.1365
  557SOL    HW1 2003   0.554   2.870   4.273 -0.0594 -0.1979  1.0509
  557SOL    HW2 2004   0.450   2.761   4.253 -1.3605  1.4324 -1.2728
  558SOL     OW 2005   1.806   3.486   2.657  0.1322  0.7698 -0.2778
  558SOL    HW1 2006   1.840   3.437   2.582 -2.3796 -0.7194 -0.4960
  558SOL    HW2 2007   1.867   3.465   2.729  0.8836 -0.1473 -1.1691
  559SOL     OW 2008   3.413   0.687   1.536  0.2378  0.5369 -0.4888
  559SOL    HW1 2009   3.444   0.737   1.461  1.3780  0.6452  0.0401
  559SOL    HW2 2010   3.485   0.628   1.558 -1.5260 -2.2400 -1.8530
  560SOL     OW 2011   0.212   4.258   0.725 -0.1123  0.1003  0.0166
  560SOL    HW1 2012   0.132   4.292   0.685 -0.4385  0.3840  0.8918
  560SOL    HW2 2013   0.273   4.247   0.652 -0.2562  1.8348 -0.3960
  561SOL     OW 2014   5.000   2.224   0.403  0.4254  0.1585  0.0806
  561SOL    HW1 2015   5.085   2.184   0.421  0.1402  0.4549  2.2089
  561SOL    HW2 2016   4.956   2.162   0.346  1.7812 -0.3494 -0.4410
  562SOL     OW 2017   4.516   3.752   0.309  0.1747  0.2914 -0.0563
  562SOL    HW1 2018   4.506   3.826   0.368 -0.5186 -0.9182  1.3901
  562SOL    HW2 2019   4.600   3.713   0.333  0.7662  0.8591 -1.1365
  563SOL     OW 2020   3.162   1.665   2.623 -0.0944  0.4296  0.4322
  563SOL    HW1 2021   3.087   1.639   2.676  0.2340 -1.2609  0.0858
  563SOL    HW2 2022   3.177   1.756   2.647 -2.1661  0.7571  0.6090
  564SOL     OW 2023   5.399   3.164   3.996  0.1216 -0.2220  0.6183
  564SOL    HW1 2024   5.481   3.165   3.946 -0.2390 -0.1656  0.0271
  564SOL    HW2 2025   5.395   3.075   4.032  0.7496 -0.0375  1.1634
  565SOL     OW 2026   1.607   4.512   5.220  0.5847  0.6209 -0.1121
  565SOL    HW1 2027   1.632   4.541   5.133 -1.5735  0.6734 -0.7413
  565SOL    HW2 2028   1.611   4.416   5.216 -0.2369  0.6002 -0.4994
  566SOL     OW 2029   3.803   0.211   3.340  0.4379  1.0717  0.2959
  566SOL    HW1 2030   3.853   0.157   3.279  1.3082  2.1346  0.0537
  566SOL    HW2 2031   3.712   0.184   3.326  0.7376  0.5252 -0.6815
  567SOL     OW 2032   2.584   5.367   4.401 -0.6403  0.8218 -0.5404
  567SOL    HW1 2033   2.555   5.362   4.310 -1.3608 -0.1337 -0.2690
  567SOL    HW2 2034   2.618   5.279   4.419 -2.3031  0.4209  0.7080
  568SOL     OW 2035   1.132   5.193   4.018  0.4185  0.6883 -0.6813
  568SOL    HW1 2036   1.191   5.247   3.965  1.7768 -0.0716  0.0124
  568SOL    HW2 2037   1.086   5.255   4.074  2.2622  1.1487  0.3964
  569SOL     OW 2038   0.087   5.299   4.282  0.4485 -0.0824  0.7212
  569SOL    HW1 2039   0.002   5.340   4.269 -0.4104 -1.4339  1.8407
  569SOL    HW2 2040   0.070   5.229   4.345  2.0946 -1.3244 -0.1655
  570SOL     OW 2041   0.676   4.638   4.014 -0.1997  0.3133 -0.2797
  570SOL    HW1 2042   0.751   4.657   3.957 -0.3325 -0.3005 -0.6707
  570SOL    HW2 2043   0.692   4.688   4.093 -0.3321  1.6938 -1.1096
  571SOL     OW 2044   1.111   3.297   2.559 -0.0921  1.0312  0.2172
  571SOL    HW1 2045   1.077   3.371   2.508  1.1177  1.1280 -0.4532
  571SOL    HW2 2046   1.071   3.220   2.520 -0.3490  1.2303  0.0864
  572SOL     OW 2047   4.002   4.431   3.209  0.4690 -0.5002  0.3073
  572SOL    HW1 2048   4.054   4.356   3.240  1.9731  0.3026 -0.2302
  572SOL    HW2 2049   4.049   4.507   3.242  0.2394  0.2743 -1.1282
  573SOL     OW 2050   0.040   5.379   0.064 -0.0842 -0.3802 -0.0257
  573SOL    HW1 2051   0.036   5.358  -0.030  1.2725  1.1788 -0.4505
  573SOL    HW2 2052   0.035   5.474   0.067 -0.1414 -0.4336  1.4972
  574SOL     OW 2053   1.954   3.528   1.687 -0.6835  0.4651 -0.4341
  574SOL    HW1 2054   2.009   3.455   1.658 -0.6118 -0.2582  1.4421
  574SOL    HW2 2055   1.869   3.511   1.648 -0.1151  0.5065 -1.7134
  575SOL     OW 2056   4.220   1.113   4.888  0.0574 -0.3842  0.2985
  575SOL    HW1 2057   4.149   1.175   4.871 -1.4923 -1.1568  3.6036
  575SOL    HW2 2058   4.222   1.103   4.983  3.1064 -2.1521  0.1295
  576SOL     OW 2059   0.843   3.861   4.607 -0.6139 -0.2043  0.3918
  576SOL    HW1 2060   0.921   3.870   4.552 -0.4836 -1.5611  0.3519
  576SOL    HW2 2061   0.865   3.908   4.688 -0.2567  0.5372 -0.1361
  577SOL     OW 2062   5.219   3.328   2.963 -0.1077  0.3964  0.2997
  577SOL    HW1 2063   5.205   3.258   3.026 -0.7157 -0.4675 -0.7715
  577SOL    HW2 2064   5.235   3.283   2.880  0.4482  1.5158 -0.2214
  578SOL     OW 2065   0.407   3.852   4.806  0.1924 -0.4263 -0.0174
  578SOL    HW1 2066   0.329   3.808   4.771 -0.4048  1.8778 -1.6691
  578SOL    HW2 2067   0.476   3.833   4.743  0.3981 -0.5096  0.2289
  579SOL     OW 2068   2.395   1.410   3.956 -0.2950 -0.2426  0.2143
  579SOL    HW1 2069   2.357   1.343   3.900 -0.4173 -0.2182  0.2686
  579SOL    HW2 2070   2.477   1.371   3.987  0.0526 -0.0364 -0.4324
  580SOL     OW 2071   1.836   5.199   5.392  0.0887  0.9088  0.1566
  580SOL    HW1 2072   1.840   5.279   5.445  0.4000  1.6947 -1.0418
  580SOL    HW2 2073   1.744   5.172   5.397 -0.2556  1.9652 -0.3274
  581SOL     OW 2074   0.889   1.224   2.292 -0.0175 -0.1045 -0.2682
  581SOL    HW1 2075   0.853   1.170   2.362 -1.3477  0.4796 -0.4787
  581SOL    HW2 2076   0.930   1.161   2.232 -0.4610 -0.7661  0.1110
  582SOL     OW 2077   4.781   2.681   2.813 -0.2234 -0.7235 -0.2242
  582SOL    HW1 2078   4.842   2.727   2.755 -1.7438  2.0818  0.3232
  582SOL    HW2 2079   4.695   2.698   2.775 -1.1969  0.7105  2.5174
  583SOL     OW 2080   0.779   3.016   4.465  0.2699 -0.0368  0.3539
  583SOL    HW1 2081   0.745   2.977   4.384  1.2673  0.8771 -0.5284
  583SOL    HW2 2082   0.709   3.003   4.529 -2.3541  2.8991 -1.7109
  584SOL     OW 2083   3.359   2.522   3.833 -0.6109 -0.2370 -0.1436
  584SOL    HW1 2084   3.405   2.572   3.900  2.4278 -0.0761 -2.2464
  584SOL    HW2 2085   3.267   2.544   3.845  0.1416  1.7005  2.3666
  585SOL     OW 2086   2.123   2.775   0.765  0.3526 -0.6852 -0.0480
  585SOL    HW1 2087   2.215   2.749   0.761  0.1118 -1.2851 -3.5188
  585SOL    HW2 2088   2.109   2.803   0.855  4.7924  2.5775 -0.2220
  586SOL     OW 2089   4.366   5.197   2.193 -0.0788 -0.1599  0.2175
  586SOL    HW1 2090   4.319   5.172   2.272 -1.0606  1.7853  0.2732
  586SOL    HW2 2091   4.300   5.190   2.123  0.6173 -1.2622 -0.3533
  587SOL     OW 2092   1.872   1.333   4.457 -0.1821 -0.4607  0.1402
  587SOL    HW1 2093   1.786   1.294   4.472  0.4338 -2.0458 -0.3334
  587SOL    HW2 2094   1.859   1.397   4.387 -1.5164  1.3724  1.9791
  588SOL     OW 2095   1.335   5.340   3.539  0.4096  0.0106  0.0506
  588SOL    HW1 2096   1.273   5.413   3.540  0.1795 -0.1940  0.9506
  588SOL    HW2 2097   1.289   5.271   3.492  0.3303  0.1905 -0.1369
  589SOL     OW 2098   4.203   0.175   2.343  0.1683 -0.3782 -0.1438
  589SOL    HW1 2099   4.229   0.152   2.253  0.7342 -0.3115 -0.0032
  589SOL    HW2 2100   4.267   0.241   2.370 -1.0321  0.8511 -0.2924
  590SOL     OW 2101   0.955   5.367   0.504 -0.3143  0.4192 -0.4449
  590SOL    HW1 2102   1.003   5.312   0.566  0.0686  1.2280 -0.0227
  590SOL    HW2 2103   0.924   5.306   0.437  0.3434 -0.2697 -0.1249
  591SOL     OW 2104   4.266   5.383   0.353 -0.1862  0.0862 -0.2775
  591SOL    HW1 2105   4.196   5.426   0.304  0.8665  0.3411 -1.5978
  591SOL    HW2 2106   4.296   5.312   0.296  0.6810  0.0421  0.2177
  592SOL     OW 2107   3.369   3.526   4.473 -0.3838  0.2457 -0.0527
  592SOL    HW1 2108   3.369   3.515   4.378  1.6782  0.9079 -0.1518
  592SOL    HW2 2109   3.424   3.455   4.506  0.7661  1.3390  0.4482
  593SOL     OW 2110   3.113   2.792   1.363  0.3969  0.3429 -0.5886
  593SOL    HW1 2111   3.099   2.743   1.443 -1.8167  0.6294 -0.7687
  593SOL    HW2 2112   3.026   2.800   1.324  1.4685  0.0654 -3.1045
  594SOL     OW 2113   4.008   5.280   4.110 -0.0282  0.1639  0.4848
  594SOL    HW1 2114   3.991   5.372   4.092 -0.3812  0.2897  1.4747
  594SOL    HW2 2115   3.988   5.269   4.203 -1.0576 -1.1463  0.1283
  595SOL     OW 2116   0.316   0.553   0.167 -0.6808 -0.2826 -0.4379
  595SOL    HW1 2117   0.261   0.613   0.117 -0.7189  0.3504  0.3582
  595SOL    HW2 2118   0.349   0.491   0.102 -2.7766 -1.0223 -0.8478
  596SOL     OW 2119   5.495   2.322   2.184  0.2872 -0.3769 -0.2365
  596SOL    HW1 2120   5.540   2.306   2.267 -0.0800  0.2382  0.0801
  596SOL    HW2 2121   5.561   2.302   2.117  0.2659 -1.9267  0.1659
  597SOL     OW 2122   4.448   3.185   1.149  0.5263 -0.1202 -0.1268
  597SOL    HW1 2123   4.487   3.219   1.230  2.4533  1.8852 -1.8412
  597SOL    HW2 2124   4.363   3.228   1.143  1.2526  1.3500 -0.2005
  598SOL     OW 2125   3.730   2.162   3.719  0.0691  0.3341  0.9279
  598SOL    HW1 2126   3.794   2.099   3.685 -0.7986  0.6073 -1.2991
  598SOL    HW2 2127   3.749   2.243   3.671 -1.0933  0.7910  1.2185
  599SOL     OW 2128   0.048   1.050   4.135  0.1436 -0.2805 -0.0371
  599SOL    HW1 2129   0.098   1.124   4.167  0.7059 -1.0734  0.9479
  599SOL    HW2 2130   0.052   1.057   4.040 -1.2588  1.9104  0.0518
  600SOL     OW 2131   4.950   2.935   0.137  0.1049  0.7080  0.0349
  600SOL    HW1 2132   4.913   2.989   0.206  1.4708  1.3395  0.2945
  600SOL    HW2 2133   4.972   2.852   0.180  2.4649  1.6767  0.7599
  601SOL     OW 2134   1.994   2.455   4.614 -0.2088 -0.5147 -0.5440
  601SOL    HW1 2135   1.960   2.425   4.530 -1.6408  0.0913 -0.2097
  601SOL    HW2 2136   2.077   2.497   4.594 -1.7977  2.0127 -2.0331
  602SOL     OW 2137   3.186   0.647   3.330  0.0785  0.2599 -0.0190
  602SOL    HW1 2138   3.240   0.647   3.250  0.0719 -1.4877 -0.0469
  602SOL    HW2 2139   3.097   0.660   3.299 -0.1962 -2.5256 -0.5441
  603SOL     OW 2140   5.256   0.331   1.316 -0.0195 -0.6582  0.0909
  603SOL    HW1 2141   5.164   0.349   1.334 -0.1966 -0.5083 -0.9181
  603SOL    HW2 2142   5.296   0.322   1.402 -0.9859 -0.7631  0.5369
  604SOL     OW 2143   1.728   3.243   1.712 -0.1683  0.3933 -0.4696
  604SOL    HW1 2144   1.780   3.190   1.772 -1.6474 -0.9232 -0.3277
  604SOL    HW2 2145   1.718   3.327   1.758  0.9823  0.3303 -0.0774
  605SOL     OW 2146   1.560   5.029   2.082 -0.1560  0.2440  0.1019
  605SOL    HW1 2147   1.492   5.055   2.145 -0.2006 -0.0559  0.1806
  605SOL    HW2 2148   1.616   5.106   2.073 -0.0190  0.2118  0.6797
  606SOL     OW 2149   3.596   4.062   1.830  0.1243 -0.2699  0.3974
  606SOL    HW1 2150   3.612   4.010   1.751 -0.4126  0.2113 -0.0275
  606SOL    HW2 2151   3.672   4.043   1.886 -0.8164 -2.7543  0.9244
  607SOL     OW 2152   3.873   2.224   4.791  0.5151 -0.2522  0.0539
  607SOL    HW1 2153   3.940   2.167   4.829  0.9834  1.1925  1.4986
  607SOL    HW2 2154   3.792   2.174   4.798  1.0683 -1.1044  0.4444
  608SOL     OW 2155   1.410   2.582   2.334 -0.2002  0.0422  0.5172
  608SOL    HW1 2156   1.374   2.499   2.365  1.8601 -1.4855 -1.0035
  608SOL    HW2 2157   1.336   2.627   2.292 -1.1129 -1.4805  0.4672
  609SOL     OW 2158   0.788   0.407   1.875 -0.1847  0.4279  0.3105
  609SOL    HW1 2159   0.836   0.489   1.885  1.4986 -0.5074  0.1561
  609SOL    HW2 2160   0.837   0.344   1.928 -1.0785 -0.6329 -0.1011
  610SOL     OW 2161   1.767   3.275   3.491  0.1487  0.2049 -0.2302
  610SOL    HW1 2162   1.811   3.199   3.454  0.7616 -0.3419  1.5864
  610SOL    HW2 2163   1.675   3.249   3.498  0.8437 -1.6035  3.3365
  611SOL     OW 2164   2.734   0.847   5.029  0.0609  0.2673 -0.4920
  611SOL    HW1 2165   2.733   0.908   4.955  0.7391 -0.0376 -0.7496
  611SOL    HW2 2166   2.816   0.799   5.019 -0.6652 -0.9695 -0.5079
  612SOL     OW 2167   3.833   4.230   4.519  0.3474 -0.0629 -0.1781
  612SOL    HW1 2168   3.812   4.288   4.592 -0.2423 -0.5290  0.0294
  612SOL    HW2 2169   3.882   4.285   4.457 -2.3647  1.3545 -1.1389
  613SOL     OW 2170   0.408   1.661   2.569 -0.0413 -0.4914 -0.0131
  613SOL    HW1 2171   0.472   1.713   2.519 -0.1104 -0.8257 -0.4498
  613SOL    HW2 2172   0.458   1.628   2.643 -0.5022  1.8927  1.3951
  614SOL     OW 2173   2.765   3.573   1.174  0.0949  0.4119  0.3358
  614SOL    HW1 2174   2.693   3.622   1.135 -0.9479 -0.8860  0.6121
  614SOL    HW2 2175   2.742   3.564   1.266  0.4631 -0.2374  0.3713
  615SOL     OW 2176   4.199   2.693   0.748  0.1787  0.4729  0.1941
  615SOL    HW1 2177   4.290   2.694   0.779 -0.0172  0.9433  0.7624
  615SOL    HW2 2178   4.159   2.770   0.789 -0.4467  0.3269 -0.1441
  616SOL     OW 2179   3.677   0.415   4.527 -0.2241 -0.0127  0.2794
  616SOL    HW1 2180   3.716   0.453   4.605 -0.4112  0.3624  0.1925
  616SOL    HW2 2181   3.701   0.476   4.456 -0.2071 -0.2537  0.0786
  617SOL     OW 2182   4.219   4.673   1.126  0.4252 -0.0716  0.0224
  617SOL    HW1 2183   4.187   4.593   1.167  1.0229 -0.4647 -0.2656
  617SOL    HW2 2184   4.263   4.721   1.196  1.4388 -0.7391 -0.1473
  618SOL     OW 2185   2.130   1.147   2.957  0.1495 -0.2784 -0.3188
  618SOL    HW1 2186   2.060   1.146   2.892  0.5968  0.5517 -0.8172
  618SOL    HW2 2187   2.107   1.219   3.016 -0.1849 -0.9448  0.3637
  619SOL     OW 2188   5.218   2.096   1.031 -0.3170 -0.0100 -0.0674
  619SOL    HW1 2189   5.174   2.014   1.052  0.0842 -0.1608  0.1893
  619SOL    HW2 2190   5.204   2.151   1.108  0.0574 -0.1060  0.0702
  620SOL     OW 2191   1.610   3.684   5.240 -0.0179 -0.3258 -0.1805
  620SOL    HW1 2192   1.688   3.638   5.270 -0.0730  0.6844  1.6133
  620SOL    HW2 2193   1.644   3.756   5.186  0.2618 -0.3067  0.0202
  621SOL     OW 2194   0.221   3.237   3.108 -0.3830 -0.0066  0.2341
  621SOL    HW1 2195   0.142   3.291   3.113  0.4342  1.0855  1.8505
  621SOL    HW2 2196   0.285   3.293   3.066  0.1550 -0.0956  0.9279
  622SOL     OW 2197   2.975   5.566   1.603 -0.2702 -0.2425 -0.0101
  622SOL    HW1 2198   2.961   5.503   1.532  0.5108 -0.6318  0.1777
  622SOL    HW2 2199   2.925   5.643   1.576 -0.3604 -0.5530 -0.7566
  623SOL     OW 2200   1.278   4.389   1.730  0.3412 -0.4894  0.0692
  623SOL    HW1 2201   1.323   4.440   1.662 -0.9567 -0.0798 -0.5060
  623SOL    HW2 2202   1.281   4.299   1.698  0.2863 -0.3869 -0.2319
  624SOL     OW 2203   1.835   1.453   2.939 -0.6584  0.0118  0.0525
  624SOL    HW1 2204   1.781   1.427   3.014 -0.4961 -0.5954 -0.0363
  624SOL    HW2 2205   1.797   1.404   2.866  0.2703 -0.7322  0.0654
  625SOL     OW 2206   2.330   1.219   0.490  0.0226  0.1321  0.2495
  625SOL    HW1 2207   2.235   1.202   0.490 -0.3147  1.9747 -0.6085
  625SOL    HW2 2208   2.356   1.205   0.581 -1.0401 -0.5543  0.4586
  626SOL     OW 2209   0.870   3.382   0.748  0.4073 -0.6980  0.0544
  626SOL    HW1 2210   0.938   3.322   0.718  1.1537 -1.0361  2.3434
  626SOL    HW2 2211   0.875   3.379   0.843 -1.3138  0.9995  0.2382
  627SOL     OW 2212   4.862   5.125   3.889 -0.6887 -0.0681 -0.1932
  627SOL    HW1 2213   4.936   5.184   3.874 -0.0488 -0.7158  0.3701
  627SOL    HW2 2214   4.865   5.107   3.983 -0.5971 -1.3706 -0.4407
  628SOL     OW 2215   1.617   0.070   4.960  0.2545 -0.3756  0.0941
  628SOL    HW1 2216   1.697   0.104   4.999  0.9467 -0.8288 -0.8902
  628SOL    HW2 2217   1.550   0.081   5.027  1.1854 -0.1642  0.9950
  629SOL     OW 2218   2.098   4.575   2.627 -0.6228 -0.1253 -0.2794
  629SOL    HW1 2219   2.166   4.534   2.680 -1.2648 -0.7912  0.0429
  629SOL    HW2 2220   2.074   4.509   2.562  0.3106  0.7666 -1.5464
  630SOL     OW 2221   1.789   4.168   1.331 -0.1285 -0.6838  0.1594
  630SOL    HW1 2222   1.756   4.081   1.307  0.7663 -1.1059  0.4281
  630SOL    HW2 2223   1.764   4.179   1.423 -0.0415 -0.7560  0.1917
  631SOL     OW 2224   4.449   2.782   4.290 -0.6772  0.5103 -0.5681
  631SOL    HW1 2225   4.494   2.843   4.232 -3.0632  1.0186 -1.9655
  631SOL    HW2 2226   4.429   2.834   4.368 -0.0326  0.6691 -0.5125
  632SOL     OW 2227   3.254   5.054   1.995 -0.1964 -0.4119 -0.3686
  632SOL    HW1 2228   3.225   5.035   1.906  1.2696  2.2333 -1.4611
  632SOL    HW2 2229   3.176   5.088   2.038 -0.3783  0.3463 -1.2838
  633SOL     OW 2230   3.302   3.978   2.487 -0.0869 -0.1894 -0.4401
  633SOL    HW1 2231   3.396   3.990   2.496 -0.4520  1.3079  1.7506
  633SOL    HW2 2232   3.284   3.893   2.528  0.1617  0.0739  0.2196
  634SOL     OW 2233   0.158   2.214   5.037  0.1248  0.6739  0.5560
  634SOL    HW1 2234   0.085   2.259   4.994  1.1365  0.5027 -1.4402
  634SOL    HW2 2235   0.226   2.281   5.044  0.9618 -0.0196 -0.7048
  635SOL     OW 2236   1.012   3.462   0.225  0.4775  0.1105 -0.1124
  635SOL    HW1 2237   0.949   3.390   0.229 -0.4699  0.9221 -0.3389
  635SOL    HW2 2238   1.082   3.436   0.286  0.2711 -1.1082 -0.3753
  636SOL     OW 2239   3.938   1.037   0.984 -0.3113 -0.0986 -0.0478
  636SOL    HW1 2240   3.898   1.066   0.902 -0.0665 -0.5380 -0.3293
  636SOL    HW2 2241   3.935   0.941   0.979 -1.5599 -0.1285  1.0921
  637SOL     OW 2242   5.223   4.496   0.684  0.6299 -0.0234  0.0684
  637SOL    HW1 2243   5.297   4.442   0.713  0.1963  0.0502  1.3581
  637SOL    HW2 2244   5.264   4.572   0.643  1.2894  0.4577  1.5801
  638SOL     OW 2245   3.068   2.246   4.156  0.2437 -0.0501 -0.3886
  638SOL    HW1 2246   3.099   2.263   4.245 -0.6601  1.3781 -0.3256
  638SOL    HW2 2247   2.975   2.227   4.166  0.2858 -0.5800 -0.9580
  639SOL     OW 2248   2.873   4.687   3.013 -0.2748  0.5817 -0.1866
  639SOL    HW1 2249   2.949   4.643   3.052  0.0813 -0.5368 -2.0578
  639SOL    HW2 2250   2.799   4.655   3.064  0.3895  0.9971  1.0889
  640SOL     OW 2251   4.597   3.648   2.233 -0.0599 -0.1815  0.5300
  640SOL    HW1 2252   4.689   3.652   2.262 -0.0010 -0.2827  0.3623
  640SOL    HW2 2253   4.599   3.590   2.157 -0.2083  0.1246  0.2964
  641SOL     OW 2254   5.196   2.705   3.297  0.2932  0.0966 -0.1583
  641SOL    HW1 2255   5.211   2.794   3.264 -1.6072  0.7040  0.5496
  641SOL    HW2 2256   5.218   2.710   3.390  2.7963 -0.8832 -0.6552
  642SOL     OW 2257   3.129   2.222   4.464 -0.0405  0.0682 -0.0112
  642SOL    HW1 2258   3.102   2.131   4.456  0.3850 -0.0624  0.0838
  642SOL    HW2 2259   3.073   2.257   4.533 -0.7591  0.0911 -0.5878
  643SOL     OW 2260   1.638   1.977   1.510  0.5609  0.1835 -1.0599
  643SOL    HW1 2261   1.607   2.065   1.529 -1.7920 -0.0297 -3.5516
  643SOL    HW2 2262   1.603   1.923   1.580  0.9231  0.9975 -0.2380
  644SOL     OW 2263   2.644   1.931   4.748  0.2051 -0.0011 -0.0326
  644SOL    HW1 2264   2.598   1.954   4.668 -0.4371 -0.6761  0.1311
  644SOL    HW2 2265   2.686   2.012   4.776 -2.9027  1.2978  1.1423
  645SOL     OW 2266   4.306   0.078   4.630 -0.3030  0.2679  0.0112
  645SOL    HW1 2267   4.222   0.045   4.596  0.2524  0.4670 -1.6219
  645SOL    HW2 2268   4.363   0.001   4.629 -0.5183  0.0876  1.3139
  646SOL     OW 2269   0.131   2.865   0.404 -0.1958  0.7923  0.0333
  646SOL    HW1 2270   0.163   2.912   0.481  0.2214  0.5976 -0.0225
  646SOL    HW2 2271   0.139   2.928   0.332 -4.0675  2.3007  0.7841
  647SOL     OW 2272   5.472   1.992   0.929 -0.3098  0.7215 -0.4727
  647SOL    HW1 2273   5.378   2.001   0.945 -1.0237  0.8337 -4.3406
  647SOL    HW2 2274   5.510   1.979   1.016 -3.8923  0.5998  1.1479
  648SOL     OW 2275   1.048   1.100   0.841  0.5208  0.4358 -0.1197
  648SOL    HW1 2276   1.023   1.072   0.929  1.1622 -0.5767 -0.2507
  648SOL    HW2 2277   0.968   1.140   0.805 -0.2427 -0.6961  0.3022
  649SOL     OW 2278   3.318   1.367   2.553  0.6020  0.0330 -0.3886
  649SOL    HW1 2279   3.265   1.369   2.632  1.3804 -0.9653  0.1609
  649SOL    HW2 2280   3.300   1.451   2.510 -0.5773  0.1580  0.3344
  650SOL     OW 2281   4.949   2.181   3.212  0.0367  0.1364 -0.0263
  650SOL    HW1 2282   4.900   2.173   3.294 -2.2901  2.5478 -1.1412
  650SOL    HW2 2283   4.898   2.132   3.148  0.8600 -0.1575 -0.4711
  651SOL     OW 2284   2.500   2.669   3.638  0.4248 -0.1490  0.0134
  651SOL    HW1 2285   2.487   2.656   3.544 -0.4344 -0.2417  0.1414
  651SOL    HW2 2286   2.438   2.738   3.662  1.9391  1.1882  0.1656
  652SOL     OW 2287   0.448   1.546   0.043  0.4264 -0.1304 -0.5446
  652SOL    HW1 2288   0.482   1.567  -0.044  0.2190  1.2308 -0.3072
  652SOL    HW2 2289   0.517   1.493   0.083  1.5298  1.1579 -0.7024
  653SOL     OW 2290   2.276   0.240   4.777 -0.1285  0.1478  0.6977
  653SOL    HW1 2291   2.244   0.279   4.858  2.5030  2.2751  0.7766
  653SOL    HW2 2292   2.286   0.314   4.717  0.1851 -1.0744 -0.7882
  654SOL     OW 2293   2.676   2.792   4.374  1.0308  0.1443 -0.2932
  654SOL    HW1 2294   2.673   2.774   4.280  2.6394 -1.3609 -0.0816
  654SOL    HW2 2295   2.603   2.741   4.410  0.3780  0.7673 -0.7173
  655SOL     OW 2296   4.607   5.017   3.904  0.3736 -0.1564  0.2417
  655SOL    HW1 2297   4.686   5.066   3.926 -0.1287 -0.8457  3.9831
  655SOL    HW2 2298   4.622   4.930   3.941 -1.1114 -1.0679 -1.2319
  656SOL     OW 2299   2.240   3.414   5.387  0.8005 -0.1381  0.1182
  656SOL    HW1 2300   2.282   3.328   5.392 -0.6249 -0.7241  3.0950
  656SOL    HW2 2301   2.311   3.477   5.403  1.6035 -0.8066 -0.7889
  657SOL     OW 2302   0.825   4.071   1.939 -0.1091  0.3745  0.2730
  657SOL    HW1 2303   0.860   4.044   1.854 -2.1265  1.0194 -0.7997
  657SOL    HW2 2304   0.891   4.132   1.974  0.7226  0.1334 -0.8433
  658SOL     OW 2305   3.819   0.862   2.680 -0.0816  0.0024 -0.1344
  658SOL    HW1 2306   3.738   0.837   2.725  0.0625  0.5548  0.4294
  658SOL    HW2 2307   3.816   0.958   2.677  1.6238  0.1270  1.8601
  659SOL     OW 2308   2.647   0.435   5.451 -0.0052 -0.2555 -0.1188
  659SOL    HW1 2309   2.696   0.361   5.488 -1.0597 -0.5488  0.6999
  659SOL    HW2 2310   2.641   0.416   5.358 -0.2504 -1.1806  0.0900
  660SOL     OW 2311   3.545   3.001   3.094 -0.0482  0.3500 -0.5263
  660SOL    HW1 2312   3.475   3.058   3.062  0.0295  0.4533 -0.5132
  660SOL    HW2 2313   3.529   2.993   3.188 -1.7689 -2.0080 -0.9691
  661SOL     OW 2314   1.967   3.496   0.622  0.1929 -0.0359  0.5844
  661SOL    HW1 2315   2.026   3.525   0.553  0.1303  0.3763  0.7021
  661SOL    HW2 2316   1.911   3.571   0.638  0.9135  0.2440  1.8422
  662SOL     OW 2317   5.430   4.777   5.373 -0.0356 -0.1490 -0.3382
  662SOL    HW1 2318   5.406   4.836   5.445 -0.7579 -1.6951  0.7178
  662SOL    HW2 2319   5.348   4.764   5.326  0.1187 -0.3331 -0.5542
  663SOL     OW 2320   0.715   4.077   3.228 -0.9283  0.5961  0.7580
  663SOL    HW1 2321   0.673   4.142   3.284 -1.0412  1.5795 -0.4414
  663SOL    HW2 2322   0.681   4.095   3.140 -3.1380 -2.8918  0.7970
  664SOL     OW 2323   1.512   3.177   4.361 -0.0586 -0.0154 -0.3624
  664SOL    HW1 2324   1.505   3.266   4.397 -0.0628 -0.2312  0.1724
  664SOL    HW2 2325   1.522   3.121   4.438  1.0361 -0.3727 -0.7639
  665SOL     OW 2326   2.921   1.262   3.278 -0.0816  0.2649  0.0310
  665SOL    HW1 2327   2.863   1.269   3.202 -0.7806 -1.9458  0.3304
  665SOL    HW2 2328   2.905   1.174   3.313  2.2999  0.1912  1.0623
  666SOL     OW 2329   1.530   1.917   3.426 -0.2900 -0.2358  0.2461
  666SOL    HW1 2330   1.437   1.904   3.448  0.0884 -0.9208  1.4768
  666SOL    HW2 2331   1.577   1.863   3.489  1.0241  1.3795  0.6843
  667SOL     OW 2332   1.677   5.556   2.370  0.0999 -0.6447 -0.0501
  667SOL    HW1 2333   1.740   5.611   2.417 -0.2492 -0.0813 -0.2366
  667SOL    HW2 2334   1.627   5.617   2.317 -0.5917 -1.0962  0.0800
  668SOL     OW 2335   1.880   5.545   3.834  0.1442  0.0015 -0.3212
  668SOL    HW1 2336   1.880   5.617   3.897 -0.5819  0.7572 -1.1613
  668SOL    HW2 2337   1.870   5.588   3.749 -1.1812 -1.1369 -0.7752
  669SOL     OW 2338   3.976   1.689   4.012  0.1511 -0.5687  0.0767
  669SOL    HW1 2339   3.962   1.612   4.067 -1.2888  1.8166  3.1476
  669SOL    HW2 2340   4.065   1.717   4.033 -0.4712  0.4588  1.3109
  670SOL     OW 2341   0.278   4.278   5.286 -0.3648 -0.2342 -0.1605
  670SOL    HW1 2342   0.268   4.354   5.228  1.7996  1.2067  1.2317
  670SOL    HW2 2343   0.192   4.265   5.325 -1.0761  0.6904 -1.3908
  671SOL     OW 2344   0.417   0.591   3.595  0.1716  0.5075  0.6049
  671SOL    HW1 2345   0.347   0.639   3.551  1.6255  0.8893 -1.3969
  671SOL    HW2 2346   0.433   0.514   3.540  1.8415  0.8325  0.5878
  672SOL     OW 2347   5.316   1.051   0.405  0.6753 -0.6635 -0.1113
  672SOL    HW1 2348   5.320   0.959   0.432 -0.5519 -1.0838 -1.3244
  672SOL    HW2 2349   5.225   1.077   0.420  0.5023 -0.2677 -1.6918
  673SOL     OW 2350   1.359   4.891   0.890 -0.4721  0.1992 -0.0513
  673SOL    HW1 2351   1.348   4.977   0.931 -2.1730 -0.2779  0.5448
  673SOL    HW2 2352   1.453   4.881   0.880 -0.1146  1.1432  2.0323
  674SOL     OW 2353   2.802   4.583   2.005  0.0745 -0.3948 -0.0725
  674SOL    HW1 2354   2.840   4.532   1.933  0.7480 -0.5375  0.3701
  674SOL    HW2 2355   2.866   4.574   2.076  0.9400  2.2750 -0.4462
  675SOL     OW 2356   4.118   2.099   1.508 -0.6361 -0.1935  0.2261
  675SOL    HW1 2357   4.047   2.100   1.444  0.7894  0.9765 -1.3887
  675SOL    HW2 2358   4.195   2.070   1.459  0.9230  2.6750  0.8500
  676SOL     OW 2359   2.362   0.551   3.211 -0.2832 -0.3376 -0.5356
  676SOL    HW1 2360   2.293   0.533   3.148 -1.1335 -0.4514  0.4095
  676SOL    HW2 2361   2.315   0.582   3.289  0.8423  1.5287 -0.5638
  677SOL     OW 2362   2.376   1.048   3.523  0.2105  0.3587  0.1444
  677SOL    HW1 2363   2.432   1.114   3.565  0.4215  0.6528 -0.5876
  677SOL    HW2 2364   2.339   1.094   3.448 -1.3127  0.2827  0.8335
  678SOL     OW 2365   0.473   3.316   4.305 -0.2063 -0.0054  0.0974
  678SOL    HW1 2366   0.444   3.274   4.224  1.0199 -1.9602  0.6522
  678SOL    HW2 2367   0.568   3.313   4.301 -0.0974  2.0168  0.5479
  679SOL     OW 2368   5.348   0.115   0.769 -0.0195 -0.0203  0.2305
  679SOL    HW1 2369   5.401   0.073   0.837 -0.8457  1.6450  1.9540
  679SOL    HW2 2370   5.411   0.169   0.720  0.4789 -0.7665  0.0437
  680SOL     OW 2371   3.206   4.153   1.296  0.0227  0.1299  0.0249
  680SOL    HW1 2372   3.284   4.108   1.326  0.3313 -0.7769 -2.0791
  680SOL    HW2 2373   3.235   4.204   1.221 -1.2256  0.5245 -0.2027
  681SOL     OW 2374   0.238   4.732   5.477 -0.6853 -0.0248  0.2167
  681SOL    HW1 2375   0.202   4.804   5.528  0.0193  0.2125  0.3865
  681SOL    HW2 2376   0.209   4.748   5.387  0.2254  0.9798  0.0918
  682SOL     OW 2377   2.668   1.528   1.509  0.1666  0.1048  1.0091
  682SOL    HW1 2378   2.619   1.460   1.464  0.7266  0.2386  0.1720
  682SOL    HW2 2379   2.607   1.565   1.572 -0.9291  0.5080 -0.2593
  683SOL     OW 2380   4.818   4.077   0.559 -0.2060  0.5366 -0.2039
  683SOL    HW1 2381   4.862   4.012   0.613  0.2569  1.5038  0.6179
  683SOL    HW2 2382   4.748   4.112   0.615  0.5384  1.8406 -0.0542
  684SOL     OW 2383   3.836   2.256   2.071  0.3230 -0.2236  0.3172
  684SOL    HW1 2384   3.928   2.277   2.086  0.6010 -0.0907 -1.4583
  684SOL    HW2 2385   3.825   2.168   2.109  0.7229  0.4693  2.0971
  685SOL     OW 2386   1.380   2.193   1.924  0.6666 -0.9776 -0.4947
  685SOL    HW1 2387   1.289   2.216   1.943 -0.1167 -3.5366 -0.9660
  685SOL    HW2 2388   1.429   2.274   1.941 -1.7701  0.6494 -0.9463
  686SOL     OW 2389   1.681   1.155   4.586 -0.5044 -0.5759  0.4148
  686SOL    HW1 2390   1.603   1.192   4.627  0.0994  0.2587  0.8336
  686SOL    HW2 2391   1.730   1.117   4.659  0.8041  1.3324  0.5664
  687SOL     OW 2392   0.236   0.161   0.739 -0.8362 -0.5011  0.3473
  687SOL    HW1 2393   0.168   0.109   0.783 -1.8096 -0.5155 -1.1409
  687SOL    HW2 2394   0.193   0.196   0.661  0.0908  1.7813  0.8270
  688SOL     OW 2395   3.722   3.338   3.076 -0.2602 -0.1284 -0.0791
  688SOL    HW1 2396   3.634   3.301   3.070 -1.1752  1.6418  1.6778
  688SOL    HW2 2397   3.709   3.433   3.064  1.4102  0.1475  0.1839
  689SOL     OW 2398   2.884   1.609   0.210 -0.2901  0.2277 -0.0511
  689SOL    HW1 2399   2.959   1.619   0.152  0.7855  0.5422  1.3722
  689SOL    HW2 2400   2.835   1.691   0.200 -0.4360  0.0267 -0.9703
  690SOL     OW 2401   0.069   5.139   3.567 -0.3815  1.0674  0.6006
  690SOL    HW1 2402   0.065   5.171   3.657 -4.5469 -0.0980  0.9054
  690SOL    HW2 2403   0.001   5.188   3.521 -0.0809 -0.2388 -1.2865
  691SOL     OW 2404   0.982   2.793   2.211 -0.1730  0.2135 -0.3048
  691SOL    HW1 2405   1.058   2.838   2.173 -1.3741  1.4320 -1.2855
  691SOL    HW2 2406   0.962   2.843   2.290 -0.0796  0.0048 -0.1491
  692SOL     OW 2407   3.792   2.387   2.710 -0.0169  0.1394 -0.1172
  692SOL    HW1 2408   3.851   2.448   2.755  1.2490 -0.8220 -0.4571
  692SOL    HW2 2409   3.756   2.332   2.780  3.7372 -2.9027 -0.4092
  693SOL     OW 2410   2.930   4.507   3.433  0.2108  0.3070  0.1510
  693SOL    HW1 2411   2.903   4.523   3.523 -1.1009  0.3215 -0.2358
  693SOL    HW2 2412   2.950   4.593   3.397 -1.1679  0.5131 -0.1544
  694SOL     OW 2413   2.044   0.447   5.155 -0.1077  0.0315  0.0334
  694SOL    HW1 2414   1.953   0.422   5.138 -0.5203  1.8619 -0.5772
  694SOL    HW2 2415   2.038   0.536   5.189  1.5617  0.8042 -1.6338
  695SOL     OW 2416   1.050   5.322   0.216 -0.1938  0.0217 -0.3524
  695SOL    HW1 2417   1.011   5.244   0.256  0.2430 -0.7007 -1.3091
  695SOL    HW2 2418   0.976   5.365   0.172 -0.5680  0.5233  0.7495
  696SOL     OW 2419   2.982   4.592   2.654 -0.1775 -0.3968 -0.0144
  696SOL    HW1 2420   3.068   4.574   2.692  0.9554  2.7151 -1.0017
  696SOL    HW2 2421   2.952   4.672   2.698 -1.5756 -0.1976 -1.2753
  697SOL     OW 2422   3.322   3.576   4.778 -0.0883 -0.0508  0.2928
  697SOL    HW1 2423   3.340   3.484   4.760  1.7793  0.5631 -1.2790
  697SOL    HW2 2424   3.258   3.602   4.712  1.2959  0.3747 -0.9249
  698SOL     OW 2425   3.391   4.544   4.904 -0.0937 -0.3279 -0.4110
  698SOL    HW1 2426   3.333   4.512   4.835 -0.3834 -0.1082 -0.2695
  698SOL    HW2 2427   3.466   4.485   4.901 -1.0549 -1.6099  0.4956
  699SOL     OW 2428   0.903   3.045   3.755 -0.3303  0.0007 -0.2542
  699SOL    HW1 2429   0.942   3.116   3.705 -0.4969 -1.3254 -2.3492
  699SOL    HW2 2430   0.908   2.969   3.697 -0.7833 -1.5448  1.6512
  700SOL     OW 2431   4.900   3.298   0.067 -0.0305  0.2645  0.0993
  700SOL    HW1 2432   4.859   3.216   0.039  0.2287 -0.0340  0.5893
  700SOL    HW2 2433   4.828   3.360   0.073 -0.1238  0.2697 -0.9942
  701SOL     OW 2434   3.473   1.379   0.129  0.7243  0.1474  0.0093
  701SOL    HW1 2435   3.413   1.443   0.166  0.8178  0.3695 -0.2245
  701SOL    HW2 2436   3.534   1.359   0.200 -0.4944 -1.1673  0.7197
  702SOL     OW 2437   3.140   4.150   4.854  0.3105 -0.0140 -0.5990
  702SOL    HW1 2438   3.046   4.155   4.835  0.0593  0.8817  0.8197
  702SOL    HW2 2439   3.146   4.104   4.937  1.0719  0.6040 -0.3003
  703SOL     OW 2440   2.646   2.864   3.152  0.1546  0.1219  0.6460
  703SOL    HW1 2441   2.575   2.842   3.093  1.0199  2.7806 -1.4766
  703SOL    HW2 2442   2.714   2.800   3.134  0.2996  0.7504 -1.0477
  704SOL     OW 2443   5.153   0.910   2.898  0.3067 -0.9360 -0.2512
  704SOL    HW1 2444   5.123   0.838   2.954 -0.8103  0.8636  1.5572
  704SOL    HW2 2445   5.244   0.924   2.923 -0.3302  0.1894  1.5610
  705SOL     OW 2446   2.894   1.718   0.746 -0.1760 -0.4466  0.4285
  705SOL    HW1 2447   2.890   1.724   0.650  1.1725  0.8451  0.4349
  705SOL    HW2 2448   2.980   1.753   0.768  0.3239 -2.6091  1.9783
  706SOL     OW 2449   1.312   4.894   0.090  0.4700 -0.4921 -0.1787
  706SOL    HW1 2450   1.312   4.836   0.166 -2.2147 -0.7307 -0.2915
  706SOL    HW2 2451   1.221   4.926   0.085  0.6798 -0.2415 -3.0769
  707SOL     OW 2452   5.237   3.431   3.809  0.2163  0.0653 -0.1626
  707SOL    HW1 2453   5.144   3.421   3.830 -0.1235  1.6490 -0.8967
  707SOL    HW2 2454   5.279   3.449   3.893 -0.4670  1.6185 -0.1545
  708SOL     OW 2455   5.100   4.442   3.592 -0.2648 -1.0294  0.1696
  708SOL    HW1 2456   5.196   4.441   3.594 -0.0993 -0.2814 -3.3732
  708SOL    HW2 2457   5.077   4.535   3.598 -0.7489 -1.1610  0.3735
  709SOL     OW 2458   2.465   4.404   1.392 -0.6832 -0.3187 -0.2149
  709SOL    HW1 2459   2.521   4.332   1.364  0.2528  1.0700 -2.0600
  709SOL    HW2 2460   2.376   4.370   1.387 -0.3592 -0.9003 -2.5297
  710SOL     OW 2461   1.380   1.477   3.405  0.5057 -0.7811 -0.6796
  710SOL    HW1 2462   1.449   1.416   3.430  1.1687  0.5682  0.8867
  710SOL    HW2 2463   1.423   1.542   3.350  0.2144 -0.6257 -0.7273
  711SOL     OW 2464   5.114   1.023   1.662  0.3955 -0.0079  0.0780
  711SOL    HW1 2465   5.065   0.941   1.666 -0.1240  0.2498 -0.9376
  711SOL    HW2 2466   5.065   1.078   1.601  1.2011  0.7466  0.0974
  712SOL     OW 2467   5.169   1.705   1.489  0.4148 -0.4176 -0.6239
  712SOL    HW1 2468   5.199   1.794   1.469 -0.2185 -0.1987 -0.5868
  712SOL    HW2 2469   5.089   1.694   1.438  0.9079 -1.2486 -1.2448
  713SOL     OW 2470   4.499   3.416   4.027 -0.3422 -0.0777  0.1554
  713SOL    HW1 2471   4.427   3.474   4.001  1.1926  2.0815  0.6286
  713SOL    HW2 2472   4.462   3.328   4.018 -3.1715  0.9702  0.7222
  714SOL     OW 2473   1.114   3.239   3.318  0.2720 -0.0237 -0.5215
  714SOL    HW1 2474   1.157   3.160   3.286 -0.1880 -0.3976 -0.2248
  714SOL    HW2 2475   1.185   3.299   3.338  0.7121 -1.1212  1.2691
  715SOL     OW 2476   5.152   1.784   2.517 -0.2408 -0.3320 -0.3287
  715SOL    HW1 2477   5.234   1.786   2.467  0.5266  1.6303  0.9506
  715SOL    HW2 2478   5.085   1.807   2.453  0.1550 -2.2416 -1.4538
  716SOL     OW 2479   0.449   2.521   0.751  0.1934 -0.3112 -0.3926
  716SOL    HW1 2480   0.464   2.458   0.821  1.2612 -0.5272 -0.8102
  716SOL    HW2 2481   0.413   2.469   0.679 -0.5603 -0.1489 -0.1401
  717SOL     OW 2482   1.724   5.135   0.450 -0.5687  0.6206 -0.2202
  717SOL    HW1 2483   1.704   5.050   0.491 -0.1789  0.1619 -0.9684
  717SOL    HW2 2484   1.770   5.184   0.518  0.6969 -0.3922 -0.3107
  718SOL     OW 2485   5.520   5.332   5.383 -0.4673  0.3121  0.0014
  718SOL    HW1 2486   5.515   5.238   5.364 -2.3060  0.5368 -0.7789
  718SOL    HW2 2487   5.532   5.373   5.297 -0.5551  0.8324  0.2331
  719SOL     OW 2488   2.188   1.988   3.903  0.3890  0.5193 -0.0059
  719SOL    HW1 2489   2.275   1.981   3.865  1.1086 -1.2009  1.8592
  719SOL    HW2 2490   2.202   1.977   3.997 -1.7332  1.1651  0.4126
  720SOL     OW 2491   5.532   4.054   2.378  0.2526 -0.1633 -0.6816
  720SOL    HW1 2492   5.589   4.049   2.455 -0.8394 -2.1708  0.0352
  720SOL    HW2 2493   5.592   4.068   2.305  1.3645  1.1048  0.4496
  721SOL     OW 2494   2.124   1.911   1.561 -0.1040 -0.4600  0.4311
  721SOL    HW1 2495   2.146   2.003   1.545 -0.6350 -0.5044 -0.5733
  721SOL    HW2 2496   2.172   1.889   1.640 -0.0152  0.7053  0.7160
  722SOL     OW 2497   5.479   0.780   3.689 -0.1000 -0.4860 -0.5799
  722SOL    HW1 2498   5.468   0.799   3.782 -0.5652 -2.5107 -0.1859
  722SOL    HW2 2499   5.483   0.865   3.646 -0.0066  0.4571  1.2866
  723SOL     OW 2500   0.957   4.339   0.487  0.1272 -0.3647  0.2390
  723SOL    HW1 2501   0.945   4.252   0.525 -0.3233  0.3718  1.7806
  723SOL    HW2 2502   0.870   4.364   0.457  0.0462  0.0321  0.8089
  724SOL     OW 2503   2.551   4.871   4.489  0.2089 -0.1307 -0.1921
  724SOL    HW1 2504   2.528   4.841   4.578 -0.2577  0.6002 -0.0620
  724SOL    HW2 2505   2.479   4.840   4.435 -1.0546  2.0199  0.1887
  725SOL     OW 2506   4.005   5.290   3.818 -0.4896 -0.0769 -0.3531
  725SOL    HW1 2507   4.095   5.275   3.787 -0.7664 -1.2484 -0.6199
  725SOL    HW2 2508   4.008   5.267   3.911 -0.3481  0.5539 -0.2045
  726SOL     OW 2509   1.228   0.438   5.383  0.0171 -0.7227 -0.1538
  726SOL    HW1 2510   1.296   0.491   5.343 -0.2136 -0.3838 -0.1037
  726SOL    HW2 2511   1.177   0.501   5.435  0.4271 -1.1815  0.8153
  727SOL     OW 2512   0.353   0.705   0.719 -0.3192  0.3425 -0.5208
  727SOL    HW1 2513   0.445   0.714   0.745 -0.2440  0.5365 -0.8496
  727SOL    HW2 2514   0.355   0.645   0.644 -0.5615 -0.4035  0.0667
  728SOL     OW 2515   3.071   2.892   4.569 -0.1812 -0.2265  0.1063
  728SOL    HW1 2516   3.037   2.857   4.651  2.4435  1.2897  1.9260
  728SOL    HW2 2517   3.164   2.866   4.569  0.4223  1.8156 -1.2269
  729SOL     OW 2518   4.772   5.020   2.881 -0.2100  0.1107  0.1249
  729SOL    HW1 2519   4.706   4.951   2.882  0.9987 -1.1294  3.2901
  729SOL    HW2 2520   4.817   5.009   2.797 -2.1843 -0.7921 -0.8499
  730SOL     OW 2521   2.378   2.409   1.969  0.3151 -0.1441  0.7721
  730SOL    HW1 2522   2.378   2.505   1.963  2.2625 -0.1101  1.0415
  730SOL    HW2 2523   2.369   2.392   2.063  1.9922 -0.1829  0.9359
  731SOL     OW 2524   1.286   4.736   2.719 -0.0241 -0.0448 -0.1805
  731SOL    HW1 2525   1.347   4.674   2.759 -0.6104  0.4820  1.6076
  731SOL    HW2 2526   1.224   4.757   2.789 -1.1709  0.8272 -1.4262
  732SOL     OW 2527   1.766   2.510   3.607 -0.3195 -0.1735  0.0221
  732SOL    HW1 2528   1.832   2.483   3.543 -0.5701 -0.1982 -0.2268
  732SOL    HW2 2529   1.716   2.431   3.626  0.2839 -0.3554  0.8826
  733SOL     OW 2530   0.485   1.878   3.600  0.9143  0.0630 -0.1443
  733SOL    HW1 2531   0.515   1.869   3.509  3.2584 -1.5584  0.7404
  733SOL    HW2 2532   0.563   1.903   3.649 -0.0681 -0.2040  1.6116
  734SOL     OW 2533   3.153   4.327   1.836  0.0873 -0.5228  0.1215
  734SOL    HW1 2534   3.208   4.249   1.830  0.1818 -0.6448  2.3099
  734SOL    HW2 2535   3.194   4.381   1.904 -0.6013  0.9286 -0.5827
  735SOL     OW 2536   0.220   1.158   2.276 -0.4877 -0.6103  0.0019
  735SOL    HW1 2537   0.191   1.103   2.204  1.8964 -1.1746 -0.5694
  735SOL    HW2 2538   0.150   1.152   2.341 -2.4203 -0.5213 -2.0072
  736SOL     OW 2539   3.893   0.701   0.289  0.2615  0.0882  0.0672
  736SOL    HW1 2540   3.966   0.763   0.284 -0.1574  0.5377 -0.4097
  736SOL    HW2 2541   3.849   0.723   0.371 -0.9231  1.5641 -0.9595
  737SOL     OW 2542   5.390   3.677   1.057  0.0436 -0.5540 -0.5981
  737SOL    HW1 2543   5.448   3.670   0.981 -0.2616  0.1800 -0.9010
  737SOL    HW2 2544   5.429   3.619   1.122  0.9926 -0.2470 -0.8869
  738SOL     OW 2545   0.113   1.562   2.284  0.2156  0.1990 -0.2874
  738SOL    HW1 2546   0.187   1.510   2.255  0.6740  0.9987 -0.5651
  738SOL    HW2 2547   0.146   1.611   2.359 -0.3013 -0.1421  0.1647
  739SOL     OW 2548   4.433   2.450   2.339 -0.6439  0.2263 -0.5507
  739SOL    HW1 2549   4.379   2.400   2.277 -0.2065  1.2226 -1.7473
  739SOL    HW2 2550   4.441   2.392   2.415 -0.3464 -1.4317 -1.8069
  740SOL     OW 2551   5.317   3.563   5.427 -0.0845  0.1501  0.6014
  740SOL    HW1 2552   5.331   3.470   5.409 -0.0649  0.0687  1.0347
  740SOL    HW2 2553   5.399   3.605   5.398 -0.9315  0.3135 -1.6332
  741SOL     OW 2554   0.492   2.474   2.833 -0.2624  0.3707  0.4290
  741SOL    HW1 2555   0.398   2.486   2.849 -0.3375  2.1018 -1.1050
  741SOL    HW2 2556   0.506   2.380   2.847 -2.3879 -0.0669 -0.0698
  742SOL     OW 2557   5.455   3.043   1.106 -0.3304  0.0240 -0.0775
  742SOL    HW1 2558   5.403   2.975   1.063  0.0450 -1.7018  2.1241
  742SOL    HW2 2559   5.392   3.112   1.125 -0.5757  0.6911 -3.0278
  743SOL     OW 2560   4.292   1.509   0.427 -0.1178 -0.3205  0.0239
  743SOL    HW1 2561   4.346   1.588   0.438  0.2577 -0.8090  1.9087
  743SOL    HW2 2562   4.208   1.542   0.397  0.7437  0.5922 -1.4731
  744SOL     OW 2563   0.917   1.168   1.618  0.1729 -0.1210  0.0323
  744SOL    HW1 2564   0.826   1.198   1.629 -0.4299 -1.3322 -1.5008
  744SOL    HW2 2565   0.959   1.238   1.568 -0.6792 -0.7981 -1.6932
  745SOL     OW 2566   3.282   4.174   2.681 -0.0405  0.1187 -0.3397
  745SOL    HW1 2567   3.194   4.163   2.716  0.3575 -0.7443  0.4148
  745SOL    HW2 2568   3.286   4.115   2.606 -0.6996  1.5278 -1.4985
  746SOL     OW 2569   1.353   4.380   2.234  0.0510 -0.8152  1.0562
  746SOL    HW1 2570   1.401   4.374   2.151  0.6836 -0.1598  1.3690
  746SOL    HW2 2571   1.394   4.453   2.281 -0.7876 -0.7008  1.6354
  747SOL     OW 2572   0.657   3.660   0.278  0.5263  0.0552  0.1943
  747SOL    HW1 2573   0.686   3.748   0.256  1.8777 -0.6050 -0.7220
  747SOL    HW2 2574   0.697   3.642   0.363  0.7354  0.0934  0.1035
  748SOL     OW 2575   2.170   2.137   4.503  0.0739  0.0878 -0.4026
  748SOL    HW1 2576   2.214   2.055   4.478  0.5030  0.0115  0.5736
  748SOL    HW2 2577   2.092   2.108   4.550  0.8066  0.2323  0.9276
  749SOL     OW 2578   3.995   1.117   2.079 -0.2251 -0.6299 -0.6139
  749SOL    HW1 2579   3.977   1.036   2.128  1.7640 -1.1198 -0.6492
  749SOL    HW2 2580   4.020   1.181   2.146 -0.6985 -0.3594 -0.6922
  750SOL     OW 2581   0.713   3.714   4.087 -0.0777  0.3125 -0.3955
  750SOL    HW1 2582   0.739   3.625   4.065 -1.1776  0.2530 -1.4984
  750SOL    HW2 2583   0.745   3.727   4.177  1.7956 -0.4945 -0.9268
  751SOL     OW 2584   3.523   3.652   1.130  0.1284  0.0507  0.1706
  751SOL    HW1 2585   3.588   3.695   1.073 -0.2814 -1.1903 -1.2613
  751SOL    HW2 2586   3.451   3.630   1.071 -0.6195 -0.6078  1.3260
  752SOL     OW 2587   0.402   2.898   1.193 -0.2999  0.0978 -0.8147
  752SOL    HW1 2588   0.348   2.829   1.153  1.5770 -2.7397  1.3004
  752SOL    HW2 2589   0.357   2.920   1.274  0.6004 -0.7985 -0.0539
  753SOL     OW 2590   5.078   2.359   0.103  0.6000  0.0815 -0.1373
  753SOL    HW1 2591   5.099   2.266   0.092 -1.6349 -0.1934 -2.5238
  753SOL    HW2 2592   4.982   2.361   0.112  0.4951  2.2290 -1.3771
  754SOL     OW 2593   0.195   3.014   5.128 -0.0487  0.0725 -0.3358
  754SOL    HW1 2594   0.106   2.981   5.120  0.6952 -1.8557 -0.9000
  754SOL    HW2 2595   0.225   3.025   5.037  0.4675  0.1925 -0.1554
  755SOL     OW 2596   3.703   3.124   0.736  0.1574 -0.2327 -0.2392
  755SOL    HW1 2597   3.759   3.201   0.743 -1.3961  1.0250 -1.3678
  755SOL    HW2 2598   3.742   3.073   0.664  0.1315  0.4097 -0.7113
  756SOL     OW 2599   1.901   5.388   2.306 -0.1831 -0.0950 -0.0354
  756SOL    HW1 2600   1.849   5.335   2.367 -0.6239  0.3361 -0.0361
  756SOL    HW2 2601   1.842   5.458   2.279  0.1581 -0.0325 -0.6190
  757SOL     OW 2602   1.164   4.487   3.956 -0.1770 -0.6064 -0.1589
  757SOL    HW1 2603   1.071   4.466   3.948 -0.5277 -0.0996  2.1394
  757SOL    HW2 2604   1.195   4.496   3.866 -2.4357 -0.4002 -0.9367
  758SOL     OW 2605   0.231   0.334   1.074 -0.0177 -0.6693  0.3855
  758SOL    HW1 2606   0.299   0.267   1.073  0.1365 -0.4944 -1.2985
  758SOL    HW2 2607   0.271   0.409   1.119 -0.1407 -1.6244  2.1398
  759SOL     OW 2608   0.848   0.417   2.989 -0.1148  0.2677 -0.1343
  759SOL    HW1 2609   0.762   0.377   2.998  0.1016 -0.1339  0.1844
  759SOL    HW2 2610   0.877   0.394   2.901 -0.6500  1.0396 -0.5170
  760SOL     OW 2611   1.241   1.062   2.582 -0.2248 -0.2237 -0.6478
  760SOL    HW1 2612   1.173   1.011   2.626 -0.7042  0.9451 -0.0112
  760SOL    HW2 2613   1.202   1.148   2.569  1.1236  0.4614 -0.2636
  761SOL     OW 2614   0.633   4.005   2.124  0.0991 -0.0130 -0.5905
  761SOL    HW1 2615   0.630   3.910   2.110  0.7840 -0.3538  1.3460
  761SOL    HW2 2616   0.722   4.030   2.099  0.7396 -0.3302  1.2344
  762SOL     OW 2617   0.699   1.917   0.098  0.0124  0.1088 -0.1478
  762SOL    HW1 2618   0.744   1.998   0.124 -0.6190  0.9840 -1.7378
  762SOL    HW2 2619   0.668   1.934   0.009 -2.9718 -0.6728  0.6839
  763SOL     OW 2620   1.499   0.658   1.656  0.6195  0.2347 -0.0994
  763SOL    HW1 2621   1.508   0.593   1.726 -0.6128  0.8268  0.6154
  763SOL    HW2 2622   1.588   0.670   1.623  1.1785 -0.1626  1.2491
  764SOL     OW 2623   2.386   4.405   2.356 -0.1271  0.4527  0.0049
  764SOL    HW1 2624   2.416   4.442   2.439 -1.8483  0.0998  0.7991
  764SOL    HW2 2625   2.330   4.332   2.381 -1.6613  1.0930 -1.4285
  765SOL     OW 2626   2.209   0.292   2.334 -0.1437  0.4537  0.0071
  765SOL    HW1 2627   2.224   0.375   2.379 -0.6076  0.6984 -0.2840
  765SOL    HW2 2628   2.280   0.236   2.364 -0.4380  0.6117  1.0432
  766SOL     OW 2629   5.305   1.726   3.398  0.2373 -0.0936  0.6165
  766SOL    HW1 2630   5.214   1.703   3.380 -0.0979  0.3087  1.7805
  766SOL    HW2 2631   5.316   1.712   3.492  1.1477  0.6517  0.6350
  767SOL     OW 2632   5.356   2.529   2.275  0.1728 -0.3071  0.0279
  767SOL    HW1 2633   5.398   2.453   2.234  0.5843 -1.8684  3.1974
  767SOL    HW2 2634   5.426   2.594   2.283  0.7045 -0.9496  0.5936
  768SOL     OW 2635   3.203   1.737   3.091 -0.4900 -0.5843  0.0527
  768SOL    HW1 2636   3.168   1.825   3.083 -1.2043 -0.8826 -0.1773
  768SOL    HW2 2637   3.171   1.705   3.175  0.2890 -0.3972  0.4228
  769SOL     OW 2638   2.728   3.603   4.850  0.7528  0.5020  0.8250
  769SOL    HW1 2639   2.775   3.523   4.877 -0.9527 -0.8456 -0.0917
  769SOL    HW2 2640   2.773   3.632   4.771 -0.7785 -1.6246 -0.9001
  770SOL     OW 2641   2.076   2.138   2.060  0.0226  0.1268  0.2306
  770SOL    HW1 2642   2.141   2.079   2.098  0.9244  2.2346  2.0690
  770SOL    HW2 2643   1.999   2.129   2.115  1.2050  2.9050  2.4433
  771SOL     OW 2644   0.015   2.142   3.500  0.2543  0.4135 -0.0134
  771SOL    HW1 2645   0.043   2.051   3.504  0.7270  0.4820 -1.6293
  771SOL    HW2 2646  -0.074   2.141   3.536 -0.9703 -1.2139 -2.9214
  772SOL     OW 2647   0.075   1.623   4.400  0.0533 -0.9375  0.5503
  772SOL    HW1 2648   0.011   1.558   4.427 -0.0450 -1.6211 -1.2758
  772SOL    HW2 2649   0.056   1.700   4.455 -2.4025 -1.0870 -0.0423
  773SOL     OW 2650   0.506   0.111   0.138 -0.2537  0.0818 -0.1759
  773SOL    HW1 2651   0.412   0.098   0.143 -0.1311 -0.6975  0.1564
  773SOL    HW2 2652   0.539   0.088   0.225  0.2866 -0.0442 -0.4063
  774SOL     OW 2653   2.912   3.045   3.093 -0.3040  0.1853  0.1219
  774SOL    HW1 2654   2.926   2.992   3.171 -1.3166 -1.6959 -0.9370
  774SOL    HW2 2655   2.822   3.075   3.099 -0.5061 -0.2887 -0.5200
  775SOL     OW 2656   1.287   2.828   5.179 -0.1523  0.2624  0.9666
  775SOL    HW1 2657   1.284   2.909   5.230 -0.0645  1.2467 -0.5545
  775SOL    HW2 2658   1.200   2.791   5.187 -0.4896  1.0241  0.8559
  776SOL     OW 2659   4.935   5.433   4.454 -0.1338 -0.7467  0.2777
  776SOL    HW1 2660   4.875   5.504   4.477 -0.7734 -0.8503 -1.0740
  776SOL    HW2 2661   5.022   5.470   4.469 -0.4295  0.6793 -1.4064
  777SOL     OW 2662   1.158   2.502   2.979 -0.6445  0.1661  0.2968
  777SOL    HW1 2663   1.181   2.540   3.064 -0.7411  1.1376 -0.0979
  777SOL    HW2 2664   1.179   2.410   2.987 -0.3822  0.3065  1.2843
  778SOL     OW 2665   0.195   3.503   0.604  0.0770  0.0188  0.0767
  778SOL    HW1 2666   0.224   3.559   0.676 -1.7592  0.9915  0.1115
  778SOL    HW2 2667   0.246   3.532   0.528  1.1447 -0.1817  0.7111
  779SOL     OW 2668   2.818   3.357   0.962  0.8095 -0.2989  0.3078
  779SOL    HW1 2669   2.791   3.439   1.005 -2.1434  0.0973 -2.1235
  779SOL    HW2 2670   2.906   3.375   0.930  0.2815  1.8609 -0.0055
  780SOL     OW 2671   4.223   3.927   3.498 -0.5980 -0.3499  0.7429
  780SOL    HW1 2672   4.317   3.932   3.481 -0.5342 -1.3025  0.7727
  780SOL    HW2 2673   4.217   3.910   3.592 -0.8991  3.0584  1.3831
  781SOL     OW 2674   3.015   1.483   1.632 -0.3242  0.0806 -0.5837
  781SOL    HW1 2675   3.012   1.514   1.541  1.7906 -2.8292 -1.6847
  781SOL    HW2 2676   3.003   1.388   1.626  0.1649 -0.2014  2.1656
  782SOL     OW 2677   1.589   0.534   0.466 -0.3290  0.6100 -0.3383
  782SOL    HW1 2678   1.593   0.578   0.381 -1.8524  1.3014 -0.0605
  782SOL    HW2 2679   1.516   0.575   0.511  0.8102  0.6552  1.5389
  783SOL     OW 2680   2.527   2.029   1.534  0.5149 -0.0914 -0.1000
  783SOL    HW1 2681   2.551   2.063   1.447  0.7306 -1.9409 -0.7926
  783SOL    HW2 2682   2.435   2.053   1.545  1.1569  2.3979  0.2888
  784SOL     OW 2683   0.024   3.476   5.436  0.0694 -0.2509 -0.1985
  784SOL    HW1 2684  -0.020   3.392   5.445 -0.5405  0.2510  1.7845
  784SOL    HW2 2685   0.067   3.489   5.521  1.0764  0.9254 -0.8737
  785SOL     OW 2686   4.657   0.089   2.388  0.3380 -0.1971  0.1492
  785SOL    HW1 2687   4.749   0.066   2.376  0.3834  0.1565 -0.1999
  785SOL    HW2 2688   4.631   0.129   2.305 -0.1095 -0.2270  0.2715
  786SOL     OW 2689   2.607   3.535   2.481  0.4006 -0.1645 -0.4843
  786SOL    HW1 2690   2.672   3.602   2.501 -0.1844  0.3848 -0.3963
  786SOL    HW2 2691   2.523   3.575   2.505  0.0762 -1.0596 -0.1022
  787SOL     OW 2692   1.019   4.068   3.939 -0.0285  0.1706 -0.5153
  787SOL    HW1 2693   0.958   4.107   3.877 -0.2735  0.3725 -0.1491
  787SOL    HW2 2694   0.983   4.089   4.025  1.5281  1.8888 -0.2461
  788SOL     OW 2695   1.658   1.908   0.235 -0.3922  0.3336 -0.4171
  788SOL    HW1 2696   1.739   1.918   0.285 -0.0173 -1.7484 -0.5440
  788SOL    HW2 2697   1.677   1.839   0.172 -2.2639 -0.1908 -0.4449
  789SOL     OW 2698   5.406   1.636   0.577 -0.0087  0.1706  0.3120
  789SOL    HW1 2699   5.446   1.553   0.550 -0.0870 -0.2571  1.4938
  789SOL    HW2 2700   5.346   1.658   0.506 -0.2401 -0.9577  0.1538
  790SOL     OW 2701   3.493   1.578   2.701 -0.0801 -0.3689 -0.0131
  790SOL    HW1 2702   3.405   1.550   2.726 -0.4075 -0.7975 -1.6043
  790SOL    HW2 2703   3.481   1.666   2.664  0.2114 -0.2761  0.1110
  791SOL     OW 2704   4.103   5.500   4.608 -0.1170 -0.0818 -0.7903
  791SOL    HW1 2705   4.058   5.529   4.529  0.2874  0.0284 -0.9850
  791SOL    HW2 2706   4.146   5.418   4.582  1.1246  0.6461 -1.0824
  792SOL     OW 2707   0.613   2.434   2.212 -0.5600 -0.1660 -0.5988
  792SOL    HW1 2708   0.596   2.405   2.302  0.4222  0.1880 -0.2982
  792SOL    HW2 2709   0.612   2.353   2.161 -1.0430 -0.3788 -0.2557
  793SOL     OW 2710   0.506   4.482   2.488  0.1731 -0.7342  0.6427
  793SOL    HW1 2711   0.470   4.404   2.531  0.2488 -0.2122  1.6780
  793SOL    HW2 2712   0.430   4.539   2.473 -0.1716 -1.7934 -1.8554
  794SOL     OW 2713   0.680   4.812   5.222  0.4356 -0.4351  0.2863
  794SOL    HW1 2714   0.764   4.796   5.266  1.0938  0.3603 -0.6339
  794SOL    HW2 2715   0.636   4.877   5.276  0.0153 -1.5346  1.2647
  795SOL     OW 2716   2.481   2.671   4.533 -0.1303 -0.1342  0.4109
  795SOL    HW1 2717   2.463   2.590   4.581 -0.0087  0.2530  1.1256
  795SOL    HW2 2718   2.541   2.719   4.590  0.7884 -0.0926 -0.5839
  796SOL     OW 2719   5.473   2.926   2.050  0.7077  0.1342 -0.4177
  796SOL    HW1 2720   5.425   2.884   1.978 -1.4012  0.6977  0.6041
  796SOL    HW2 2721   5.557   2.950   2.012  1.2764 -3.3139 -1.5557
  797SOL     OW 2722   3.984   1.968   4.933 -0.6100  0.5926 -0.1718
  797SOL    HW1 2723   4.021   1.957   5.021 -0.7735 -2.9342 -0.4937
  797SOL    HW2 2724   4.060   1.974   4.875 -0.5117  2.0452  0.0879
  798SOL     OW 2725   0.135   0.965   5.259 -0.1027  0.5582  0.8742
  798SOL    HW1 2726   0.076   1.030   5.299 -1.2253  0.6498 -0.9104
  798SOL    HW2 2727   0.220   1.009   5.257  0.6470 -0.3401  5.4644
  799SOL     OW 2728   4.268   3.181   2.785 -0.4638 -0.2200 -0.3953
  799SOL    HW1 2729   4.346   3.237   2.788 -1.6100  1.4180 -0.7189
  799SOL    HW2 2730   4.282   3.126   2.707  0.3477  0.0886 -0.4803
  800SOL     OW 2731   4.564   1.823   1.872  0.4976  0.4485 -0.2607
  800SOL    HW1 2732   4.613   1.861   1.800  1.3960  0.9611  0.6135
  800SOL    HW2 2733   4.474   1.816   1.839  1.1262 -0.4445 -1.8344
  801SOL     OW 2734   2.476   0.228   2.045  0.2533  0.9343 -0.4501
  801SOL    HW1 2735   2.426   0.147   2.050  1.3857  0.2391 -0.2040
  801SOL    HW2 2736   2.412   0.295   2.019 -0.8973  0.1634  0.3841
  802SOL     OW 2737   3.622   0.704   0.719 -0.6934 -0.5760  0.1275
  802SOL    HW1 2738   3.676   0.636   0.760 -2.0195 -0.5260  2.0463
  802SOL    HW2 2739   3.613   0.677   0.628  2.1538 -0.8230 -0.1083
  803SOL     OW 2740   3.234   4.333   1.090 -0.3098 -0.1636 -0.1111
  803SOL    HW1 2741   3.169   4.386   1.043 -1.4454 -1.6751 -0.3068
  803SOL    HW2 2742   3.312   4.388   1.093 -1.6531  1.7862  0.3078
  804SOL     OW 2743   2.579   0.975   1.030  0.0358 -0.7414 -0.5512
  804SOL    HW1 2744   2.614   1.050   0.982  1.2362 -0.7185  0.3066
  804SOL    HW2 2745   2.657   0.924   1.054 -0.4131 -0.1603  2.3227
  805SOL     OW 2746   5.216   1.124   0.167  0.6922 -0.2595 -0.2463
  805SOL    HW1 2747   5.251   1.107   0.254  2.0559  0.3815 -0.6531
  805SOL    HW2 2748   5.130   1.082   0.166  0.5498 -0.0172  1.5034
  806SOL     OW 2749   5.195   3.066   5.011 -0.1595  0.1161  0.2300
  806SOL    HW1 2750   5.266   3.081   5.073  1.1422 -0.8914 -0.9926
  806SOL    HW2 2751   5.185   2.971   5.008  0.2859  0.1174 -1.6411
  807SOL     OW 2752   4.294   3.335   3.687  0.0998 -0.8520 -0.2113
  807SOL    HW1 2753   4.268   3.283   3.610 -1.8433  3.6059 -2.7669
  807SOL    HW2 2754   4.211   3.367   3.723  1.2270  0.1628  1.5051
  808SOL     OW 2755   2.511   0.186   3.473 -0.2093 -0.6839 -0.1476
  808SOL    HW1 2756   2.560   0.268   3.464 -0.1623 -0.4929  1.6448
  808SOL    HW2 2757   2.424   0.214   3.504  0.0220 -1.3389  1.1263
  809SOL     OW 2758   0.198   0.656   3.070 -0.3971  0.3207 -1.2023
  809SOL    HW1 2759   0.125   0.640   3.011 -1.5815  0.4762  0.2039
  809SOL    HW2 2760   0.214   0.571   3.112  0.9392  0.0210 -2.2831
  810SOL     OW 2761   1.189   3.131   1.368  0.0355  0.1173 -0.0859
  810SOL    HW1 2762   1.247   3.167   1.300  2.5209 -0.8525  1.4532
  810SOL    HW2 2763   1.190   3.037   1.353 -0.9360  0.0709  0.1290
  811SOL     OW 2764   5.262   2.646   3.619  0.2488 -0.5041 -0.2768
  811SOL    HW1 2765   5.352   2.660   3.648 -0.6203  1.0717  1.8369
  811SOL    HW2 2766   5.229   2.575   3.675 -0.8512  1.2494  1.3570
  812SOL     OW 2767   4.115   4.445   1.249  0.3597  0.1093 -0.0253
  812SOL    HW1 2768   4.076   4.432   1.335 -1.4900  1.3187 -0.6602
  812SOL    HW2 2769   4.152   4.359   1.226 -0.2847 -0.5500  1.3944
  813SOL     OW 2770   0.918   3.779   3.889  0.4486  0.1442  0.0866
  813SOL    HW1 2771   1.008   3.806   3.909  0.7575 -2.7732  2.9326
  813SOL    HW2 2772   0.876   3.769   3.974 -1.3978 -2.4350 -1.0758
  814SOL     OW 2773   3.079   4.732   5.219  0.1446 -0.2773 -0.1142
  814SOL    HW1 2774   3.145   4.800   5.225 -0.8578  0.6884  0.0237
  814SOL    HW2 2775   3.104   4.681   5.141  0.2114  0.9713 -0.9124
  815SOL     OW 2776   2.172   1.057   1.453 -0.4010 -0.5087 -0.3096
  815SOL    HW1 2777   2.248   1.025   1.404  1.3538  2.7475  0.1343
  815SOL    HW2 2778   2.128   1.117   1.393 -0.3344  0.6771  0.7983
  816SOL     OW 2779   4.223   0.944   4.330  0.2339 -0.1227 -0.2129
  816SOL    HW1 2780   4.238   0.855   4.359 -1.6824  0.0300  1.3621
  816SOL    HW2 2781   4.191   0.935   4.240  2.6797 -0.8111 -1.0605
  817SOL     OW 2782   3.402   3.279   2.534 -0.0181  0.2433  0.2331
  817SOL    HW1 2783   3.395   3.267   2.628 -2.3099 -0.5865 -0.0229
  817SOL    HW2 2784   3.414   3.190   2.499  0.9063  0.5515 -0.2713
  818SOL     OW 2785   2.699   4.938   2.550 -0.5576 -0.3777 -0.7710
  818SOL    HW1 2786   2.779   4.990   2.545 -1.1352  0.7156  0.9216
  818SOL    HW2 2787   2.725   4.851   2.519  1.3611 -0.1199  0.0494
  819SOL     OW 2788   3.806   1.793   3.359 -0.2184 -0.1491 -0.6907
  819SOL    HW1 2789   3.721   1.786   3.403 -1.1092 -1.5309 -2.5542
  819SOL    HW2 2790   3.791   1.854   3.287  0.1967 -0.8606 -1.3938
  820SOL     OW 2791   4.285   2.312   1.555  0.1285 -0.0470 -0.0744
  820SOL    HW1 2792   4.221   2.377   1.583  0.3122 -0.0090  0.2621
  820SOL    HW2 2793   4.232   2.240   1.520 -0.1208 -0.2089  0.6186
  821SOL     OW 2794   1.835   1.406   4.862 -0.8153 -0.3241 -0.0818
  821SOL    HW1 2795   1.913   1.390   4.810 -1.0851  1.8341 -1.2273
  821SOL    HW2 2796   1.763   1.373   4.808 -0.8924 -0.0647 -0.1428
  822SOL     OW 2797   2.300   3.595   2.915  0.0118 -0.0306  0.2604
  822SOL    HW1 2798   2.294   3.547   2.832 -0.6552 -0.0205  0.2996
  822SOL    HW2 2799   2.239   3.668   2.904 -1.3101 -0.9426  1.3750
  823SOL     OW 2800   4.252   1.078   2.668 -1.0857 -0.2699  0.2524
  823SOL    HW1 2801   4.345   1.057   2.673 -1.2545 -0.7941  1.1676
  823SOL    HW2 2802   4.250   1.173   2.656 -0.4777 -0.0483  1.8706
  824SOL     OW 2803   0.682   3.178   1.897  0.4154 -0.3289 -0.1452
  824SOL    HW1 2804   0.666   3.148   1.807  0.0621 -0.1069 -0.1553
  824SOL    HW2 2805   0.633   3.260   1.905  2.4718  0.9714 -0.5369
  825SOL     OW 2806   0.183   1.734   3.081 -0.7030 -0.0701 -0.2982
  825SOL    HW1 2807   0.140   1.818   3.090 -2.5714 -1.0294 -0.0392
  825SOL    HW2 2808   0.189   1.700   3.170  0.5187  0.0154 -0.3409
  826SOL     OW 2809   3.806   4.024   4.118  1.1722 -0.2243 -0.5735
  826SOL    HW1 2810   3.776   3.934   4.105 -1.5468  0.3822  1.1402
  826SOL    HW2 2811   3.872   4.017   4.187 -0.2150 -0.7169  0.7168
  827SOL     OW 2812   2.151   0.759   5.023  0.1349  0.1351  0.1381
  827SOL    HW1 2813   2.185   0.764   5.112 -0.5370  1.3902  0.3353
  827SOL    HW2 2814   2.141   0.851   4.996  1.0069 -0.2231 -1.4853
  828SOL     OW 2815   0.380   5.247   1.283  0.1549  0.4376  0.2952
  828SOL    HW1 2816   0.429   5.173   1.318  0.3635  0.9030  0.9997
  828SOL    HW2 2817   0.291   5.214   1.270  0.2827  0.0237  0.4618
  829SOL     OW 2818   3.067   4.352   2.527 -0.1824 -0.6236 -0.1189
  829SOL    HW1 2819   3.133   4.325   2.590  1.2230 -0.1780 -1.3779
  829SOL    HW2 2820   3.017   4.421   2.572  0.0146 -1.1618  0.9307
  830SOL     OW 2821   2.472   5.364   2.587 -0.1024 -0.0728 -0.2847
  830SOL    HW1 2822   2.539   5.432   2.600 -0.3923  0.1904 -0.1711
  830SOL    HW2 2823   2.510   5.306   2.522  1.2412 -1.2298  1.4838
  831SOL     OW 2824   0.061   0.271   0.558  0.2488 -0.3176  0.0632
  831SOL    HW1 2825   0.099   0.338   0.501 -1.3197  0.0292 -0.5988
  831SOL    HW2 2826   0.003   0.221   0.500 -2.1415  0.6579  1.5856
  832SOL     OW 2827   3.733   5.256   3.966 -0.0670  0.5635 -0.2965
  832SOL    HW1 2828   3.727   5.282   4.058  1.8788 -0.0958  0.0264
  832SOL    HW2 2829   3.744   5.161   3.969 -0.4464  0.4855 -1.2433
  833SOL     OW 2830   3.467   0.297   3.172  0.2010 -0.2334  0.0147
  833SOL    HW1 2831   3.427   0.325   3.254 -0.4439 -1.1255  0.0187
  833SOL    HW2 2832   3.506   0.376   3.135 -1.0115  0.5225  0.3311
  834SOL     OW 2833   4.077   1.285   0.312  0.9371 -0.3009  0.5039
  834SOL    HW1 2834   4.038   1.338   0.381 -1.9480 -1.8216  0.0999
  834SOL    HW2 2835   4.123   1.214   0.359  0.9294 -0.0369  0.9089
  835SOL     OW 2836   3.990   0.115   4.880 -0.3772 -0.2862 -0.4557
  835SOL    HW1 2837   4.085   0.128   4.878 -0.5149  0.7802 -0.3195
  835SOL    HW2 2838   3.964   0.135   4.970 -1.0655  1.9642 -1.1198
  836SOL     OW 2839   2.241   3.821   1.841 -0.0890 -0.3968 -0.1709
  836SOL    HW1 2840   2.324   3.827   1.794 -1.4282  1.3322 -2.4038
  836SOL    HW2 2841   2.224   3.909   1.873 -0.3245 -1.0762  1.6517
  837SOL     OW 2842   1.303   0.740   3.701  0.5723 -0.4561 -0.2646
  837SOL    HW1 2843   1.315   0.741   3.606  1.8195  2.5690 -0.1438
  837SOL    HW2 2844   1.389   0.763   3.736 -0.1536 -0.4616  1.5657
  838SOL     OW 2845   2.377   0.709   1.314 -0.5353 -0.0637 -0.5632
  838SOL    HW1 2846   2.326   0.650   1.259 -1.0506 -0.0374 -0.1154
  838SOL    HW2 2847   2.315   0.740   1.380 -0.4315  1.4364 -1.1464
  839SOL     OW 2848   1.669   0.514   5.428 -0.9919  0.1824  0.5448
  839SOL    HW1 2849   1.612   0.534   5.503 -1.2060 -1.1441  0.7517
  839SOL    HW2 2850   1.632   0.564   5.356 -0.1418  2.3358  1.5574
  840SOL     OW 2851   3.716   4.853   1.627 -0.6209  0.4538 -0.3481
  840SOL    HW1 2852   3.661   4.818   1.697  0.1982 -0.9171 -0.3703
  840SOL    HW2 2853   3.766   4.923   1.668 -2.7307  2.0730 -0.4514
  841SOL     OW 2854   4.122   3.638   2.821 -0.0574  0.0011 -0.0467
  841SOL    HW1 2855   4.182   3.582   2.872 -0.4540  0.4476  0.9211
  841SOL    HW2 2856   4.042   3.586   2.814 -0.0028 -0.0602 -0.2185
  842SOL     OW 2857   5.521   0.025   1.027  0.0100  0.2732 -0.2563
  842SOL    HW1 2858   5.523  -0.047   1.090 -1.0226 -0.0768 -0.6049
  842SOL    HW2 2859   5.477   0.097   1.073  2.0381  1.0634  0.4705
  843SOL     OW 2860   5.223   4.892   0.805 -0.1011  0.1743 -0.0641
  843SOL    HW1 2861   5.269   4.961   0.759  0.7955 -0.6141 -0.3544
  843SOL    HW2 2862   5.190   4.834   0.736  0.2055 -0.3522  0.2265
  844SOL     OW 2863   3.862   1.467   1.962 -0.3165  0.0483  0.6829
  844SOL    HW1 2864   3.838   1.458   2.054 -0.5414 -0.3878  0.5816
  844SOL    HW2 2865   3.904   1.385   1.939 -0.4189  0.0870  0.3478
  845SOL     OW 2866   2.578   1.163   2.674 -0.0862 -0.2413 -0.3263
  845SOL    HW1 2867   2.487   1.171   2.701  0.2346 -0.3151  0.8323
  845SOL    HW2 2868   2.613   1.093   2.729  0.8021  0.1696 -0.3590
  846SOL     OW 2869   0.354   2.500   0.111  0.1146 -0.0281 -0.0108
  846SOL    HW1 2870   0.320   2.545   0.188 -0.3963  1.0281 -0.8388
  846SOL    HW2 2871   0.294   2.427   0.096 -1.1195  1.1314 -0.7695
  847SOL     OW 2872   5.524   1.583   2.083 -0.5193 -0.4340  0.5550
  847SOL    HW1 2873   5.589   1.565   2.150  0.6431 -1.2132 -0.7586
  847SOL    HW2 2874   5.498   1.497   2.051  0.4007 -0.0235 -1.3679
  848SOL     OW 2875   2.663   3.067   4.616 -0.1127 -0.1249  0.0351
  848SOL    HW1 2876   2.594   3.116   4.661  2.0769  2.3028  0.9541
  848SOL    HW2 2877   2.687   3.123   4.542  0.7703 -0.9796 -0.3311
  849SOL     OW 2878   4.951   1.902   0.906 -0.0963 -0.0401 -0.2765
  849SOL    HW1 2879   4.874   1.855   0.872 -2.0498  3.1587 -0.4485
  849SOL    HW2 2880   4.976   1.961   0.835  1.0698  0.6142  0.6717
  850SOL     OW 2881   4.826   0.796   2.631  0.1001  0.2297  0.1799
  850SOL    HW1 2882   4.851   0.784   2.539 -0.2130 -0.8798  0.2270
  850SOL    HW2 2883   4.732   0.812   2.628  0.1460  0.5049  0.2784
  851SOL     OW 2884   0.442   1.124   5.073  0.2620  0.3118  0.6717
  851SOL    HW1 2885   0.456   1.087   4.986  1.0115 -0.2195  1.0135
  851SOL    HW2 2886   0.481   1.211   5.070  1.1088 -0.0625  0.7547
  852SOL     OW 2887   5.431   3.392   5.194  0.2207  0.2044 -0.0713
  852SOL    HW1 2888   5.505   3.400   5.134  1.6714  1.4073  1.8367
  852SOL    HW2 2889   5.429   3.299   5.218 -0.4501 -0.3110 -2.0350
  853SOL     OW 2890   5.436   1.362   3.101  0.3752  0.1719 -0.0785
  853SOL    HW1 2891   5.373   1.317   3.045  0.1959  0.5069 -0.1490
  853SOL    HW2 2892   5.468   1.435   3.047 -0.0185  0.6705  0.3557
  854SOL     OW 2893   2.589   0.021   4.941  0.6014  0.4977  0.2216
  854SOL    HW1 2894   2.618  -0.069   4.955  2.2999  0.9408 -0.3297
  854SOL    HW2 2895   2.563   0.051   5.028  0.8528 -0.2469  0.5628
  855SOL     OW 2896   1.217   0.478   3.809  1.1127 -0.7530  0.2735
  855SOL    HW1 2897   1.211   0.568   3.777  0.8446 -1.2789 -1.2089
  855SOL    HW2 2898   1.305   0.450   3.785  0.9256 -1.1374  0.0259
  856SOL     OW 2899   3.123   4.725   0.240 -0.0071 -0.3875  0.2649
  856SOL    HW1 2900   3.124   4.752   0.148 -1.1016  0.3295  0.4565
  856SOL    HW2 2901   3.034   4.742   0.269  0.7537  0.9308  1.9196
  857SOL     OW 2902   1.969   2.175   2.382 -0.6839 -0.0659  0.1236
  857SOL    HW1 2903   1.952   2.108   2.448 -0.4504 -0.3053 -0.0555
  857SOL    HW2 2904   2.049   2.145   2.338  0.1483  0.9895  0.8984
  858SOL     OW 2905   0.493   4.559   4.766 -0.4337 -0.6488 -0.2769
  858SOL    HW1 2906   0.527   4.558   4.856 -0.9311  0.5392 -0.0625
  858SOL    HW2 2907   0.553   4.503   4.717 -1.0886 -2.6547  1.1112
  859SOL     OW 2908   1.810   0.393   4.948  0.3365  0.0839  1.0505
  859SOL    HW1 2909   1.720   0.423   4.961  0.1518 -0.2793  0.6307
  859SOL    HW2 2910   1.817   0.378   4.854  0.9068  0.3289  1.0533
  860SOL     OW 2911   1.089   0.676   1.014  0.2998  0.1435 -0.2990
  860SOL    HW1 2912   1.073   0.656   0.922  0.9954 -0.3768 -0.3124
  860SOL    HW2 2913   1.158   0.742   1.013  0.4492 -0.0106 -0.1405
  861SOL     OW 2914   3.513   5.544   5.104  0.0213 -0.3307 -0.7000
  861SOL    HW1 2915   3.485   5.594   5.180  1.2104 -0.3842 -0.2152
  861SOL    HW2 2916   3.435   5.496   5.077 -0.5245  0.0222  0.2191
  862SOL     OW 2917   4.296   1.080   0.818 -0.4515 -0.4712  0.2685
  862SOL    HW1 2918   4.251   1.121   0.892 -1.2454 -0.6351 -0.1174
  862SOL    HW2 2919   4.280   1.139   0.745  0.5625 -0.1684  0.2811
  863SOL     OW 2920   1.003   1.757   0.740 -0.3777  0.4296  0.2133
  863SOL    HW1 2921   0.955   1.686   0.784 -1.4866  1.3139  0.4530
  863SOL    HW2 2922   1.092   1.749   0.773  0.0469 -2.1993 -1.4064
  864SOL     OW 2923   4.006   2.386   1.701  0.2631 -0.1478 -0.1473
  864SOL    HW1 2924   3.984   2.301   1.739 -0.9183  0.5381  0.7525
  864SOL    HW2 2925   3.949   2.392   1.624  0.5966 -0.3226 -0.4063
  865SOL     OW 2926   4.554   2.035   4.287 -0.3558  0.0084  0.6135
  865SOL    HW1 2927   4.482   1.974   4.274  0.5907 -0.7496 -1.2922
  865SOL    HW2 2928   4.623   1.983   4.329  0.9258 -0.6444 -2.1586
  866SOL     OW 2929   4.463   3.230   0.035 -0.9570  0.0049  0.1752
  866SOL    HW1 2930   4.489   3.296   0.100 -0.7963  0.5733 -0.4569
  866SOL    HW2 2931   4.545   3.187   0.011 -0.7309  1.0388 -0.9906
  867SOL     OW 2932   3.048   1.838   5.313  0.2998  0.0968  0.6848
  867SOL    HW1 2933   3.132   1.865   5.277 -0.1800 -0.6396 -1.0701
  867SOL    HW2 2934   2.985   1.862   5.245 -0.8539  0.2771  1.8173
  868SOL     OW 2935   2.843   3.488   3.476 -0.4512 -0.1396 -0.2859
  868SOL    HW1 2936   2.931   3.499   3.440 -0.2100 -2.0820 -0.3539
  868SOL    HW2 2937   2.857   3.458   3.566 -1.0515  0.3644 -0.0221
  869SOL     OW 2938   2.151   4.770   0.131 -0.5890 -0.2689 -0.6348
  869SOL    HW1 2939   2.115   4.813   0.054  0.7978 -0.8765 -1.6471
  869SOL    HW2 2940   2.134   4.830   0.203 -0.2176  1.1768 -1.7362
  870SOL     OW 2941   2.650   2.600   2.109 -1.1372 -0.0046  0.5000
  870SOL    HW1 2942   2.631   2.692   2.094  2.2076  0.4870 -1.2301
  870SOL    HW2 2943   2.634   2.586   2.202  1.2558  3.1323  1.4699
  871SOL     OW 2944   1.866   1.554   5.076  0.1185 -0.6312 -0.2729
  871SOL    HW1 2945   1.943   1.530   5.126 -0.2808 -2.5247 -0.5545
  871SOL    HW2 2946   1.875   1.508   4.993 -0.2210  0.8975 -1.1952
  872SOL     OW 2947   5.294   5.190   1.503  0.5759  0.0882  0.1979
  872SOL    HW1 2948   5.242   5.263   1.469  1.2561  0.2747 -0.4529
  872SOL    HW2 2949   5.311   5.214   1.594  0.7085  0.6985  0.0158
  873SOL     OW 2950   3.395   0.702   3.843  0.3047  0.1315 -0.0172
  873SOL    HW1 2951   3.377   0.703   3.749  1.2393  0.6756 -0.1963
  873SOL    HW2 2952   3.414   0.610   3.863 -2.3315 -0.4147  0.1281
  874SOL     OW 2953   4.029   5.280   2.397 -0.0737  0.6697  0.6409
  874SOL    HW1 2954   4.086   5.355   2.416  0.7920  0.0499  0.4717
  874SOL    HW2 2955   4.035   5.225   2.475 -0.8848  0.8788  0.8564
  875SOL     OW 2956   1.524   0.506   3.649  0.5318 -0.4816  0.3958
  875SOL    HW1 2957   1.527   0.527   3.742 -0.1947 -1.6779  0.7075
  875SOL    HW2 2958   1.513   0.411   3.647 -1.9167 -0.2036 -0.8807
  876SOL     OW 2959   2.704   0.779   4.568 -0.3953  0.0968 -0.3051
  876SOL    HW1 2960   2.769   0.738   4.511 -1.0340  0.6566 -1.4349
  876SOL    HW2 2961   2.627   0.792   4.513 -1.4247 -0.4134  0.9927
  877SOL     OW 2962   4.846   1.667   5.222  0.2338  0.1377 -0.1387
  877SOL    HW1 2963   4.827   1.578   5.191  0.3461 -0.1494  0.6080
  877SOL    HW2 2964   4.797   1.724   5.163 -0.0331 -0.4312 -0.4740
  878SOL     OW 2965   3.562   0.974   0.798 -0.4740  0.0336 -0.1574
  878SOL    HW1 2966   3.467   0.972   0.808 -0.2431 -0.4862  2.3585
  878SOL    HW2 2967   3.586   0.885   0.773 -0.6753  0.2303 -1.0446
  879SOL     OW 2968   1.549   0.768   3.844  0.1845  0.1755  0.6045
  879SOL    HW1 2969   1.626   0.801   3.891  1.6126 -0.8013 -0.9867
  879SOL    HW2 2970   1.545   0.675   3.868  0.0467  0.0164 -0.0346
  880SOL     OW 2971   2.740   1.929   0.989  0.2390 -0.2519  0.2973
  880SOL    HW1 2972   2.682   2.004   1.002  1.5966  0.6334  1.3611
  880SOL    HW2 2973   2.738   1.914   0.894 -0.0772  1.0977  0.0773
  881SOL     OW 2974   2.245   1.527   4.480 -0.1578  0.5668 -0.6712
  881SOL    HW1 2975   2.328   1.505   4.521 -0.8664  1.9232  1.5524
  881SOL    HW2 2976   2.255   1.497   4.389  2.3772 -0.1577 -0.1962
  882SOL     OW 2977   4.606   4.698   0.980 -0.0675 -0.2225  0.6062
  882SOL    HW1 2978   4.615   4.673   1.072 -0.5179 -3.2447 -0.0979
  882SOL    HW2 2979   4.512   4.692   0.963  0.0147  0.2934 -0.0504
  883SOL     OW 2980   3.347   1.082   3.576 -0.2317 -0.0160  0.0752
  883SOL    HW1 2981   3.343   1.065   3.670 -0.6053 -0.2973  0.0080
  883SOL    HW2 2982   3.265   1.128   3.557 -0.9900 -1.5764 -0.4490
  884SOL     OW 2983   4.713   3.509   1.057 -0.2434 -0.3824  0.4124
  884SOL    HW1 2984   4.754   3.423   1.044 -0.1299 -0.3012  0.2393
  884SOL    HW2 2985   4.622   3.496   1.030 -0.1093 -0.3234 -0.0651
  885SOL     OW 2986   0.075   2.548   0.780 -0.4625 -0.1869 -0.5266
  885SOL    HW1 2987   0.161   2.543   0.738 -0.0192 -0.2582  0.3813
  885SOL    HW2 2988   0.039   2.632   0.751  0.3546  0.3287 -0.0665
  886SOL     OW 2989   3.574   0.988   1.103  0.0243 -0.5381  0.3216
  886SOL    HW1 2990   3.629   0.910   1.107 -0.4907 -1.0035 -1.2994
  886SOL    HW2 2991   3.570   1.010   1.010 -2.0633 -0.1651  0.4722
  887SOL     OW 2992   4.165   5.272   1.216 -0.3069  0.4432 -0.3522
  887SOL    HW1 2993   4.259   5.287   1.208 -0.0289 -0.4427  1.1413
  887SOL    HW2 2994   4.147   5.277   1.310 -1.9478  1.7155 -0.6969
  888SOL     OW 2995   0.202   3.679   3.519  0.1007  1.2359  0.6201
  888SOL    HW1 2996   0.171   3.608   3.575  0.0735  1.3619  0.7652
  888SOL    HW2 2997   0.265   3.638   3.460 -0.8237  0.8327 -0.1195
  889SOL     OW 2998   2.929   2.953   1.161  0.1990  0.6379  0.0545
  889SOL    HW1 2999   3.011   2.969   1.114  0.3740 -0.2529  0.0549
  889SOL    HW2 3000   2.867   2.927   1.093  0.2812 -0.0320  0.2402
  890SOL     OW 3001   2.939   2.429   0.002  0.4922 -0.5465 -0.0878
  890SOL    HW1 3002   2.963   2.361  -0.060  0.0091 -1.3676  0.6166
  890SOL    HW2 3003   2.973   2.510  -0.036 -0.1009 -0.9919 -1.5831
  891SOL     OW 3004   3.741   1.855   0.095 -0.4511  0.1100  0.5373
  891SOL    HW1 3005   3.808   1.819   0.038 -2.3266  0.4414 -1.9224
  891SOL    HW2 3006   3.669   1.793   0.092 -0.6256  0.1625  2.5111
  892SOL     OW 3007   4.265   0.785   5.335 -0.4135  0.2594 -0.2935
  892SOL    HW1 3008   4.355   0.768   5.364  0.0112 -3.0920 -3.1799
  892SOL    HW2 3009   4.211   0.772   5.413  1.3573 -0.2405  0.8789
  893SOL     OW 3010   5.447   1.656   4.036 -0.2316 -0.0892 -0.8440
  893SOL    HW1 3011   5.396   1.696   4.106  0.4841  0.2605 -0.5152
  893SOL    HW2 3012   5.485   1.729   3.988  3.3900 -0.3381  1.4767
  894SOL     OW 3013   5.179   4.068   1.667  0.7744 -0.2543  0.0930
  894SOL    HW1 3014   5.218   4.032   1.746  2.2479  1.3213  0.1081
  894SOL    HW2 3015   5.106   4.122   1.698  3.1153  2.6981  0.6404
  895SOL     OW 3016   1.831   1.858   3.035 -0.7968  0.5250 -0.2869
  895SOL    HW1 3017   1.881   1.793   2.986 -1.5793  0.1721 -0.6294
  895SOL    HW2 3018   1.782   1.905   2.968 -0.3903  1.3340 -0.0216
  896SOL     OW 3019   5.488   3.951   1.582  0.0573 -0.6747  0.2771
  896SOL    HW1 3020   5.444   4.025   1.541  0.3815 -0.1352  0.8838
  896SOL    HW2 3021   5.577   3.982   1.599  0.2663 -1.2861  0.3082
  897SOL     OW 3022   4.609   0.894   1.592  0.8773  0.2924  0.2381
  897SOL    HW1 3023   4.648   0.834   1.656 -0.8597 -1.7251 -0.5409
  897SOL    HW2 3024   4.626   0.982   1.628  1.9171 -0.7144  2.2921
  898SOL     OW 3025   0.930   4.471   3.655 -0.1615 -0.1805  0.1654
  898SOL    HW1 3026   0.984   4.495   3.580  0.1169 -2.1381 -0.2671
  898SOL    HW2 3027   0.931   4.376   3.657 -1.8392 -0.2001  1.4461
  899SOL     OW 3028   0.745   1.683   1.280  0.2686 -0.3830 -0.4398
  899SOL    HW1 3029   0.653   1.683   1.304  0.4882  0.1096  0.4128
  899SOL    HW2 3030   0.783   1.755   1.329  0.8803  0.1838 -1.7068
  900SOL     OW 3031   1.580   1.026   0.606  0.5201 -0.0888 -0.4644
  900SOL    HW1 3032   1.632   1.101   0.637  0.1963  0.0146 -0.1810
  900SOL    HW2 3033   1.641   0.953   0.608 -0.1757 -0.6532  2.8704
  901SOL     OW 3034   0.224   4.351   2.410 -0.0262  0.6390  0.0120
  901SOL    HW1 3035   0.143   4.374   2.456 -0.6650 -0.6749 -0.4393
  901SOL    HW2 3036   0.283   4.320   2.479 -0.8121 -0.8602  0.0373
  902SOL     OW 3037   3.436   4.832   2.356  0.2820  0.1380 -0.0287
  902SOL    HW1 3038   3.396   4.902   2.409  0.6485  1.1904 -1.1324
  902SOL    HW2 3039   3.390   4.836   2.272  0.6200 -0.6591 -0.2567
  903SOL     OW 3040   4.080   0.556   3.574  0.2918 -0.0664  0.2570
  903SOL    HW1 3041   4.026   0.496   3.625 -3.5394  1.3543 -1.9471
  903SOL    HW2 3042   4.055   0.541   3.483  2.5007  1.7467 -0.7291
  904SOL     OW 3043   3.014   3.383   5.490  0.2098 -0.0522  0.1518
  904SOL    HW1 3044   3.036   3.454   5.429  2.7131 -0.0945  0.9252
  904SOL    HW2 3045   3.051   3.305   5.450  0.3802 -0.3609  0.9099
  905SOL     OW 3046   3.981   0.594   2.010  0.2509  0.2702 -0.5550
  905SOL    HW1 3047   3.904   0.586   1.953 -0.1189  2.6795 -0.4312
  905SOL    HW2 3048   3.946   0.591   2.099  0.2569  1.5829 -0.4984
  906SOL     OW 3049   1.458   5.160   0.342 -0.3199  0.5987 -0.1076
  906SOL    HW1 3050   1.552   5.173   0.351 -0.4775  1.1470  0.7803
  906SOL    HW2 3051   1.438   5.087   0.401 -0.4834  0.6223 -0.1335
  907SOL     OW 3052   1.369   0.993   4.945  0.2316 -0.1703  0.4082
  907SOL    HW1 3053   1.421   0.917   4.971  1.4710  0.6928  0.5324
  907SOL    HW2 3054   1.401   1.064   5.001 -2.8006 -0.1407  2.2129
  908SOL     OW 3055   2.210   4.946   1.648 -0.1852  0.1724 -0.3543
  908SOL    HW1 3056   2.162   4.876   1.603 -0.7131  0.4592 -0.2432
  908SOL    HW2 3057   2.226   4.911   1.736 -0.0019 -0.0056 -0.4565
  909SOL     OW 3058   0.756   4.882   1.509  0.6201  0.2472 -0.2310
  909SOL    HW1 3059   0.802   4.876   1.593  0.3092 -0.6049 -0.1168
  909SOL    HW2 3060   0.752   4.791   1.478  0.7082  0.5539 -1.1540
  910SOL     OW 3061   0.629   1.738   2.299  0.8676  0.1144  0.6920
  910SOL    HW1 3062   0.542   1.756   2.262  0.5218  0.0097  1.4368
  910SOL    HW2 3063   0.632   1.791   2.378  2.5251  2.1560 -0.6903
  911SOL     OW 3064   2.498   4.623   1.703 -0.3458 -0.0470  0.1417
  911SOL    HW1 3065   2.502   4.564   1.779  1.1200 -2.1557 -1.5087
  911SOL    HW2 3066   2.569   4.685   1.718  0.1029 -0.6107  0.3580
  912SOL     OW 3067   2.647   3.194   4.371 -0.6969  0.4231  0.3504
  912SOL    HW1 3068   2.573   3.254   4.358 -1.1320  0.1332  1.4168
  912SOL    HW2 3069   2.639   3.131   4.299 -2.5820 -0.6838  1.4684
  913SOL     OW 3070   2.013   5.446   4.838 -0.2804 -0.0333 -0.3675
  913SOL    HW1 3071   2.058   5.478   4.916  0.5689 -1.9558 -0.0327
  913SOL    HW2 3072   2.042   5.504   4.768 -0.3085  1.1200  0.5563
  914SOL     OW 3073   5.517   4.147   0.391 -0.0966  0.1937  0.4020
  914SOL    HW1 3074   5.466   4.084   0.339 -0.7802  1.7681 -0.8915
  914SOL    HW2 3075   5.607   4.136   0.359  0.1339 -1.5226  1.6081
  915SOL     OW 3076   4.015   5.277   5.394 -0.6145  0.0651  0.1057
  915SOL    HW1 3077   3.922   5.289   5.416 -0.6543  1.5791 -0.7651
  915SOL    HW2 3078   4.062   5.333   5.456 -0.2473 -0.9028  0.7183
  916SOL     OW 3079   0.252   0.583   3.818  0.0705 -0.0899  0.5825
  916SOL    HW1 3080   0.325   0.599   3.758 -0.4233  1.4761  0.3893
  916SOL    HW2 3081   0.220   0.670   3.842 -0.2444 -0.6946  2.5120
  917SOL     OW 3082   1.821   2.834   0.404 -0.0661  0.2853  0.0272
  917SOL    HW1 3083   1.732   2.811   0.374  0.5770 -1.1189 -0.8826
  917SOL    HW2 3084   1.825   2.929   0.396 -1.6862  0.4218  0.6206
  918SOL     OW 3085   0.677   0.361   3.675  0.3881 -0.1200 -0.3354
  918SOL    HW1 3086   0.599   0.358   3.731  1.2134  0.0730  0.8545
  918SOL    HW2 3087   0.694   0.454   3.663  0.0656 -0.1624 -1.1298
  919SOL     OW 3088   1.060   5.561   2.920 -0.3948  0.0206 -0.4353
  919SOL    HW1 3089   1.155   5.552   2.920 -0.2768  1.0924 -1.2219
  919SOL    HW2 3090   1.045   5.653   2.941 -1.2894 -0.3246  0.4671
  920SOL     OW 3091   2.461   0.033   4.717  0.1926 -0.2615  0.6679
  920SOL    HW1 3092   2.417   0.116   4.736  2.0744  0.4943  1.8432
  920SOL    HW2 3093   2.508   0.011   4.797 -0.8936 -2.8952  0.6457
  921SOL     OW 3094   4.093   3.431   3.857  0.0467 -0.1365  0.1694
  921SOL    HW1 3095   4.116   3.370   3.926  2.2937  2.3149  1.6694
  921SOL    HW2 3096   4.015   3.476   3.890  0.0561 -0.2350  0.3239
  922SOL     OW 3097   2.934   1.198   4.844 -0.1153 -0.5242  0.1434
  922SOL    HW1 3098   2.857   1.248   4.870 -0.2522 -1.1205  0.9036
  922SOL    HW2 3099   2.990   1.196   4.922  1.2837  1.0136 -0.7901
  923SOL     OW 3100   0.371   1.014   1.693  0.3391 -0.3368  0.0239
  923SOL    HW1 3101   0.441   0.954   1.667  1.1484  0.6179 -0.0309
  923SOL    HW2 3102   0.321   1.028   1.612 -1.3750 -2.9010  0.5975
  924SOL     OW 3103   4.581   1.738   1.032  0.1670 -0.0418  0.0545
  924SOL    HW1 3104   4.531   1.665   1.067  0.9956 -0.3585  0.5770
  924SOL    HW2 3105   4.521   1.781   0.971 -0.3854 -1.0370 -0.1064
  925SOL     OW 3106   0.042   2.031   2.068 -0.1277 -0.4422 -0.6789
  925SOL    HW1 3107   0.003   2.065   1.988 -0.0025  1.4475  0.0523
  925SOL    HW2 3108  -0.032   2.016   2.127  0.1078  2.3068  0.3901
  926SOL     OW 3109   3.817   3.004   3.479  0.0350  0.2037  0.0345
  926SOL    HW1 3110   3.908   3.008   3.508  0.0638  2.4670 -0.2683
  926SOL    HW2 3111   3.771   3.065   3.538 -0.4858  2.3471 -2.5147
  927SOL     OW 3112   2.271   3.804   4.757  0.2929 -0.4804 -1.0699
  927SOL    HW1 3113   2.323   3.725   4.772  1.0015 -0.1845 -1.8748
  927SOL    HW2 3114   2.324   3.856   4.696 -0.6132  0.1717 -1.3140
  928SOL     OW 3115   5.475   1.450   3.533 -0.4614 -0.1450 -0.4888
  928SOL    HW1 3116   5.439   1.509   3.599 -0.2096 -0.5285 -0.0088
  928SOL    HW2 3117   5.534   1.505   3.481 -1.6029  0.4473 -1.1757
  929SOL     OW 3118   1.281   3.708   2.111  0.3586 -0.1671 -0.3536
  929SOL    HW1 3119   1.290   3.688   2.205  0.7387  0.5849 -0.2299
  929SOL    HW2 3120   1.368   3.694   2.075  0.6530  1.3559 -0.2482
  930SOL     OW 3121   5.504   3.621   3.907  0.3591  0.0196  0.5664
  930SOL    HW1 3122   5.466   3.557   3.967  0.2870  0.0492  0.5528
  930SOL    HW2 3123   5.582   3.579   3.872 -0.0579 -0.3141  0.0510
  931SOL     OW 3124   1.530   2.021   2.341  0.6455 -0.5000  0.1322
  931SOL    HW1 3125   1.522   1.931   2.311  0.4476 -0.6572  0.6578
  931SOL    HW2 3126   1.499   2.074   2.268  1.4241 -0.8261 -0.4415
  932SOL     OW 3127   4.460   4.268   2.707 -0.3043  0.1369 -0.0320
  932SOL    HW1 3128   4.461   4.277   2.612  0.1593  1.5237  0.0979
  932SOL    HW2 3129   4.522   4.196   2.725  0.5504  0.6925 -0.7067
  933SOL     OW 3130   0.421   3.665   2.344 -0.5430 -0.2555  0.1603
  933SOL    HW1 3131   0.329   3.692   2.342 -0.4806 -0.0480  0.1219
  933SOL    HW2 3132   0.459   3.714   2.418 -0.0514  0.9711 -0.8933
  934SOL     OW 3133   4.875   4.353   3.351  0.0114  0.2776  0.0377
  934SOL    HW1 3134   4.958   4.332   3.308  0.6412  1.7837  0.4906
  934SOL    HW2 3135   4.900   4.384   3.438 -0.9588  1.7838 -0.2151
  935SOL     OW 3136   2.954   0.460   4.922  0.4426 -0.1302  0.0524
  935SOL    HW1 3137   2.883   0.395   4.913 -1.3947  1.7635  0.6116
  935SOL    HW2 3138   2.979   0.480   4.832  0.9529 -1.5105 -0.1299
  936SOL     OW 3139   2.017   1.935   5.206 -0.4279 -0.6508  0.6581
  936SOL    HW1 3140   1.962   1.965   5.278  0.5805  2.0409  0.3585
  936SOL    HW2 3141   2.092   1.894   5.248 -0.5447 -0.3952  1.1186
  937SOL     OW 3142   0.173   4.617   1.291  0.3284  0.2212 -0.0344
  937SOL    HW1 3143   0.089   4.628   1.246  1.4029 -0.3912 -2.2783
  937SOL    HW2 3144   0.213   4.704   1.286 -0.3312  0.6133  1.3916
  938SOL     OW 3145   0.267   3.834   0.507 -0.1306  0.2165  0.7663
  938SOL    HW1 3146   0.337   3.770   0.493 -1.1515 -0.8045  0.2269
  938SOL    HW2 3147   0.195   3.782   0.542 -0.7162  1.2158  1.0483
  939SOL     OW 3148   3.063   2.389   2.808 -1.2705 -0.1814  0.5519
  939SOL    HW1 3149   3.118   2.311   2.798 -1.5551 -0.2641 -0.3468
  939SOL    HW2 3150   3.030   2.382   2.898 -3.6016 -2.6044 -0.4163
  940SOL     OW 3151   0.862   1.740   4.652  0.1292 -0.1378 -0.4671
  940SOL    HW1 3152   0.850   1.832   4.675 -0.3689 -0.4220  0.4337
  940SOL    HW2 3153   0.813   1.729   4.570 -2.0936 -0.2233  0.8257
  941SOL     OW 3154   1.292   2.361   2.434  0.0760 -0.1814  0.0056
  941SOL    HW1 3155   1.225   2.425   2.456  0.1548  0.2241 -0.9115
  941SOL    HW2 3156   1.303   2.308   2.513 -2.5796 -1.3672 -0.3661
  942SOL     OW 3157   5.085   0.507   3.241  0.0207 -0.2138 -0.1057
  942SOL    HW1 3158   5.064   0.454   3.164 -1.1336  0.0788 -0.0035
  942SOL    HW2 3159   5.180   0.516   3.239  0.3484 -2.9620  0.3048
  943SOL     OW 3160   0.489   2.160   1.663  0.4491  0.1159  0.0568
  943SOL    HW1 3161   0.465   2.239   1.614  1.1135 -0.6055 -1.4657
  943SOL    HW2 3162   0.406   2.115   1.679  0.3391 -0.2643 -1.5090
  944SOL     OW 3163   0.200   2.505   5.230 -0.9435 -0.1593  0.5131
  944SOL    HW1 3164   0.151   2.547   5.159 -1.0388 -0.2994  0.4965
  944SOL    HW2 3165   0.274   2.463   5.187 -2.6222 -2.8045  0.1064
  945SOL     OW 3166   3.292   4.324   3.587  0.3147  0.4734 -0.1228
  945SOL    HW1 3167   3.378   4.312   3.544  0.7848 -1.1403  1.2317
  945SOL    HW2 3168   3.304   4.401   3.642  1.2565 -0.3507  0.8685
  946SOL     OW 3169   2.429   0.522   5.565 -0.5015  0.0791 -0.3973
  946SOL    HW1 3170   2.514   0.489   5.533 -0.2893 -0.8356  1.0802
  946SOL    HW2 3171   2.365   0.480   5.507 -0.0591 -0.8592 -0.2304
  947SOL     OW 3172   5.449   2.388   0.647 -0.2117  0.8590 -0.3949
  947SOL    HW1 3173   5.396   2.371   0.725 -0.7080  0.6744 -0.7737
  947SOL    HW2 3174   5.525   2.436   0.680 -0.9448  1.7293  0.0602
  948SOL     OW 3175   5.061   3.872   3.682  0.1810 -0.3253  0.0244
  948SOL    HW1 3176   5.016   3.867   3.597 -0.9998 -1.5092  0.7129
  948SOL    HW2 3177   5.119   3.796   3.682  2.1053  1.0898 -0.7797
  949SOL     OW 3178   3.938   2.642   5.122 -0.3692 -0.5342  0.0390
  949SOL    HW1 3179   3.867   2.705   5.138 -2.1394 -2.0225 -1.6645
  949SOL    HW2 3180   3.984   2.637   5.206 -2.6309  0.0559  1.3752
  950SOL     OW 3181   5.368   2.549   0.252  0.2571 -0.1401  0.7532
  950SOL    HW1 3182   5.438   2.506   0.300 -0.9697  0.4545  3.1329
  950SOL    HW2 3183   5.306   2.478   0.232  0.3388 -0.2339  0.8312
  951SOL     OW 3184   0.546   2.348   4.527  0.0554  0.1219  0.1448
  951SOL    HW1 3185   0.550   2.443   4.520  1.2146  0.0664 -0.0219
  951SOL    HW2 3186   0.464   2.324   4.484 -0.0214  1.0042 -0.2096
  952SOL     OW 3187   2.355   2.956   3.475  0.3511  0.6797  0.8320
  952SOL    HW1 3188   2.278   3.011   3.457 -0.3232 -0.8173 -1.0301
  952SOL    HW2 3189   2.320   2.883   3.526  0.2582 -0.6836 -1.1320
  953SOL     OW 3190   0.682   4.688   2.677  0.0231 -0.0350  0.4225
  953SOL    HW1 3191   0.597   4.657   2.708  0.3639 -0.1939  1.2114
  953SOL    HW2 3192   0.682   4.670   2.583 -0.5546 -0.6308  0.5371
  954SOL     OW 3193   3.129   4.241   2.253 -0.4176 -0.0350  0.7729
  954SOL    HW1 3194   3.042   4.256   2.216 -1.0327 -1.5192  1.5877
  954SOL    HW2 3195   3.121   4.267   2.345  0.0813  0.0786  0.7876
  955SOL     OW 3196   2.526   4.330   2.144 -0.2689 -0.0701  0.4279
  955SOL    HW1 3197   2.500   4.344   2.235  0.2450 -0.3417  0.6166
  955SOL    HW2 3198   2.584   4.253   2.147  0.4946  0.4863 -0.0039
  956SOL     OW 3199   0.703   2.536   1.689  0.1959  0.0034 -0.1747
  956SOL    HW1 3200   0.627   2.485   1.718  1.8762 -2.2340  0.5000
  956SOL    HW2 3201   0.700   2.531   1.594 -0.3460 -0.3486 -0.1436
  957SOL     OW 3202   0.086   2.876   1.522  0.6595  0.1955  0.1739
  957SOL    HW1 3203  -0.008   2.883   1.509  0.8760  3.1083 -0.2305
  957SOL    HW2 3204   0.097   2.807   1.587 -1.8093  0.5781  1.0412
  958SOL     OW 3205   0.553   2.904   4.552  0.3778 -0.1165  0.2356
  958SOL    HW1 3206   0.496   2.912   4.475  1.6410 -1.6100 -0.8878
  958SOL    HW2 3207   0.499   2.859   4.617  0.6179 -2.6582 -1.2575
  959SOL     OW 3208   3.605   1.135   5.127 -0.0350  0.5790  0.1419
  959SOL    HW1 3209   3.560   1.208   5.085 -0.6240  0.0495 -0.1416
  959SOL    HW2 3210   3.569   1.132   5.216 -1.1719 -0.3781 -0.3496
  960SOL     OW 3211   4.769   4.403   1.199  0.1495 -0.1944 -0.4172
  960SOL    HW1 3212   4.801   4.398   1.109  2.5755 -3.1476  0.5387
  960SOL    HW2 3213   4.734   4.316   1.217  0.0269  0.2604  1.6210
  961SOL     OW 3214   4.413   4.118   1.768  0.2759  0.0424 -0.1110
  961SOL    HW1 3215   4.451   4.202   1.741 -0.2484  0.1296 -0.5943
  961SOL    HW2 3216   4.324   4.120   1.733 -0.1648 -0.1705  0.9904
  962SOL     OW 3217   3.299   4.091   5.358  0.3140  0.2277 -0.1642
  962SOL    HW1 3218   3.249   4.041   5.422 -0.5771  1.2953 -0.0203
  962SOL    HW2 3219   3.236   4.116   5.291  0.9861  0.1853 -0.8292
  963SOL     OW 3220   5.480   0.965   2.013  0.5170  0.0023 -0.3639
  963SOL    HW1 3221   5.424   0.982   1.938  2.0539 -0.7841 -1.7286
  963SOL    HW2 3222   5.499   0.871   2.008  0.2471 -0.1478  1.2778
  964SOL     OW 3223   4.994   5.152   2.146 -0.0137 -0.3783 -0.0372
  964SOL    HW1 3224   4.965   5.232   2.104 -0.3256  0.2606  1.3599
  964SOL    HW2 3225   5.064   5.119   2.090 -1.9953 -0.8194 -2.3194
  965SOL     OW 3226   4.550   0.619   0.059  0.0633  0.0923  0.1186
  965SOL    HW1 3227   4.515   0.681   0.123  0.3579  0.7075 -0.3168
  965SOL    HW2 3228   4.474   0.567   0.032  0.2267 -1.3426  2.2512
  966SOL     OW 3229   3.404   2.212   4.876  0.1260  0.3199  0.2253
  966SOL    HW1 3230   3.324   2.179   4.837  0.9445 -1.2048 -0.2180
  966SOL    HW2 3231   3.376   2.278   4.940 -1.3932  0.5625 -0.6923
  967SOL     OW 3232   4.593   3.953   2.581  0.0034  0.7495 -0.3037
  967SOL    HW1 3233   4.528   3.974   2.648  1.0300  1.3873  0.5068
  967SOL    HW2 3234   4.581   3.859   2.564 -0.7568  0.7497  0.2234
  968SOL     OW 3235   3.302   1.702   4.615 -0.5864  0.0525  0.3821
  968SOL    HW1 3236   3.333   1.728   4.528  0.0965 -0.2148  0.5373
  968SOL    HW2 3237   3.293   1.607   4.610 -1.0815  0.0951  0.4387
  969SOL     OW 3238   0.276   0.432   5.048 -0.1881  0.5619  0.1927
  969SOL    HW1 3239   0.359   0.477   5.031  0.4391  0.5513  3.0241
  969SOL    HW2 3240   0.211   0.503   5.050 -0.0920  0.6940 -0.9026
  970SOL     OW 3241   3.654   2.088   0.221  0.4644  0.0346 -0.3815
  970SOL    HW1 3242   3.638   2.060   0.310 -0.4523  1.3168 -0.1203
  970SOL    HW2 3243   3.693   2.012   0.177 -1.6308 -1.4818  0.3616
  971SOL     OW 3244   1.840   0.513   1.307  0.3557  0.3156 -0.7503
  971SOL    HW1 3245   1.896   0.585   1.277  2.0010 -0.7552 -0.3034
  971SOL    HW2 3246   1.778   0.498   1.235  0.5442  1.6073 -1.1904
  972SOL     OW 3247   3.280   4.229   2.961 -0.6297 -0.1137 -0.0694
  972SOL    HW1 3248   3.244   4.170   2.895 -1.3832 -0.8052  0.9489
  972SOL    HW2 3249   3.259   4.188   3.045 -2.7913  2.4840  0.7294
  973SOL     OW 3250   1.360   2.810   2.006 -0.9893  0.2085 -0.0207
  973SOL    HW1 3251   1.343   2.899   1.977 -1.1832 -0.2460 -1.3330
  973SOL    HW2 3252   1.279   2.762   1.987 -0.7671 -0.3328  0.3642
  974SOL     OW 3253   0.700   2.338   4.756  0.4176  0.1791  0.0423
  974SOL    HW1 3254   0.639   2.325   4.683 -0.1533  1.0189  0.3664
  974SOL    HW2 3255   0.748   2.255   4.761  0.8674  0.3035 -1.6498
  975SOL     OW 3256   0.866   3.584   5.287 -0.5486  0.2272  0.4132
  975SOL    HW1 3257   0.954   3.591   5.250 -1.4576  1.6902 -1.5339
  975SOL    HW2 3258   0.843   3.492   5.278  0.6833 -0.1217  0.7183
  976SOL     OW 3259   3.912   4.048   4.843  0.1642 -0.0584  0.3614
  976SOL    HW1 3260   3.895   4.015   4.755 -3.9138  0.8136  0.7262
  976SOL    HW2 3261   3.958   4.131   4.829 -2.2931  1.1294 -1.1039
  977SOL     OW 3262   4.227   4.942   0.876  0.2703 -0.2493 -0.0483
  977SOL    HW1 3263   4.179   4.990   0.943  1.2189 -2.0691  1.9881
  977SOL    HW2 3264   4.293   5.004   0.845 -0.7358  0.8919  0.0375
  978SOL     OW 3265   1.943   1.142   2.770 -0.8811  0.0395 -0.2144
  978SOL    HW1 3266   1.918   1.052   2.751  2.3225 -0.5634 -1.8184
  978SOL    HW2 3267   1.905   1.193   2.698 -2.2926 -0.0628  0.4416
  979SOL     OW 3268   2.256   1.416   4.240 -0.5253  0.0367 -0.2065
  979SOL    HW1 3269   2.184   1.410   4.177  0.0729 -1.9706 -0.7306
  979SOL    HW2 3270   2.300   1.331   4.234  0.0532  0.1244  2.2997
  980SOL     OW 3271   5.223   4.429   2.837 -0.1066 -0.0402 -0.1093
  980SOL    HW1 3272   5.246   4.472   2.920 -0.1133 -0.3680  0.0653
  980SOL    HW2 3273   5.128   4.432   2.833 -0.0487  1.2993 -0.8226
  981SOL     OW 3274   5.379   2.793   3.923 -0.3594 -0.2091 -0.3410
  981SOL    HW1 3275   5.409   2.729   3.859 -0.1654 -1.8620  1.3721
  981SOL    HW2 3276   5.458   2.823   3.966 -0.4532  1.1912 -1.0952
  982SOL     OW 3277   0.159   3.537   2.027  0.1060 -0.3329 -0.2144
  982SOL    HW1 3278   0.122   3.453   2.001  1.1447 -0.8898  0.0877
  982SOL    HW2 3279   0.134   3.547   2.119 -0.8980  0.1799 -0.5344
  983SOL     OW 3280   1.234   3.266   4.768  0.0433  0.2441  0.3278
  983SOL    HW1 3281   1.184   3.250   4.848  0.5599  2.7159  1.1908
  983SOL    HW2 3282   1.168   3.276   4.700 -0.3741 -2.8882  0.1832
  984SOL     OW 3283   5.248   2.907   2.319  0.2402  0.0657  0.1217
  984SOL    HW1 3284   5.154   2.892   2.321  0.4469 -1.2008  0.7155
  984SOL    HW2 3285   5.265   2.961   2.396  0.0796 -0.2157  0.3561
  985SOL     OW 3286   5.486   2.215   5.485  0.2471  0.1251 -0.2309
  985SOL    HW1 3287   5.541   2.291   5.507  0.9117 -0.9622  2.0766
  985SOL    HW2 3288   5.535   2.169   5.417  1.1744  0.3493  0.2633
  986SOL     OW 3289   1.867   1.241   5.151  0.0271  0.0133 -0.2355
  986SOL    HW1 3290   1.860   1.304   5.223  1.7438  1.2108 -1.0562
  986SOL    HW2 3291   1.961   1.221   5.147 -0.2327 -1.0329 -1.3176
  987SOL     OW 3292   1.161   4.610   5.021 -0.3605  0.4938  0.2580
  987SOL    HW1 3293   1.206   4.670   4.962  0.1808  1.5863  1.7472
  987SOL    HW2 3294   1.131   4.539   4.965  1.6813  0.6339 -1.0625
  988SOL     OW 3295   1.310   0.567   4.445  0.1078 -0.2515 -0.0980
  988SOL    HW1 3296   1.308   0.507   4.370  1.1774 -0.6646  0.1911
  988SOL    HW2 3297   1.297   0.510   4.521  1.5280 -0.2048  0.2096
  989SOL     OW 3298   4.557   3.974   0.983 -0.4429 -0.7917 -0.1917
  989SOL    HW1 3299   4.505   3.908   1.028  1.1258 -2.3016 -0.5368
  989SOL    HW2 3300   4.513   3.986   0.899 -1.2807 -0.6774  0.2580
  990SOL     OW 3301   2.861   1.535   4.193 -0.3040  0.1762  0.2727
  990SOL    HW1 3302   2.811   1.485   4.128  0.1827 -1.3281  1.0232
  990SOL    HW2 3303   2.904   1.604   4.143 -2.1649  0.7605 -0.5631
  991SOL     OW 3304   3.015   1.059   2.285  0.2972 -0.0204 -0.2406
  991SOL    HW1 3305   2.945   1.068   2.220  0.7308  0.4025 -0.6524
  991SOL    HW2 3306   3.068   1.138   2.274  0.5433 -0.0927  0.4263
  992SOL     OW 3307   4.473   3.923   0.529 -0.7490  0.0096  0.3077
  992SOL    HW1 3308   4.460   3.991   0.595 -1.2952 -0.7049  0.9480
  992SOL    HW2 3309   4.529   3.858   0.572 -1.0398 -0.4219  0.0357
  993SOL     OW 3310   5.035   5.188   4.915  0.3253  0.7310 -0.1785
  993SOL    HW1 3311   5.022   5.283   4.911  1.9014  0.9152 -1.2377
  993SOL    HW2 3312   4.963   5.152   4.864 -0.3660  1.3419  0.3478
  994SOL     OW 3313   0.641   2.719   2.873 -0.2253 -0.4766  0.1277
  994SOL    HW1 3314   0.596   2.637   2.849 -0.4177 -0.6293  1.0001
  994SOL    HW2 3315   0.733   2.702   2.853 -0.2752 -0.8803  0.2219
  995SOL     OW 3316   3.544   3.284   4.309  0.2924  0.3342  0.5986
  995SOL    HW1 3317   3.538   3.307   4.402  0.2281 -2.8930  1.4457
  995SOL    HW2 3318   3.634   3.255   4.297 -0.1317 -0.7766  0.0419
  996SOL     OW 3319   5.478   3.477   1.232 -0.1682  0.3972  0.2477
  996SOL    HW1 3320   5.410   3.409   1.236 -0.1722  0.3734 -0.1414
  996SOL    HW2 3321   5.529   3.454   1.154 -0.6885  1.3274 -0.3732
  997SOL     OW 3322   3.968   4.434   4.416  0.7569  0.2986  0.3227
  997SOL    HW1 3323   3.992   4.501   4.481 -0.5627  0.3240  0.7921
  997SOL    HW2 3324   3.968   4.481   4.333  1.2652  0.5486  0.4598
  998SOL     OW 3325   2.735   5.012   0.753 -0.0032 -0.0452  0.2857
  998SOL    HW1 3326   2.756   4.948   0.821 -2.5450 -0.2000  0.9613
  998SOL    HW2 3327   2.690   4.960   0.685  0.3699  0.5329 -0.4086
  999SOL     OW 3328   3.343   2.297   4.064  0.4969  0.2275  0.1950
  999SOL    HW1 3329   3.340   2.392   4.056  0.8835  0.1805 -0.4543
  999SOL    HW2 3330   3.253   2.273   4.086 -0.0133  0.5784 -1.4498
 1000SOL     OW 3331   1.556   4.862   4.994 -0.2115  0.1178  0.0748
 1000SOL    HW1 3332   1.636   4.858   5.046  0.3724 -0.5994 -0.8502
 1000SOL    HW2 3333   1.576   4.811   4.915 -0.6172  2.2372 -1.4613
 1001SOL     OW 3334   0.570   2.780   1.933  0.1241  0.2234  0.8129
 1001SOL    HW1 3335   0.624   2.757   2.009  0.4270 -1.2425  0.1699
 1001SOL    HW2 3336   0.626   2.761   1.858 -1.1574 -0.9851  0.1465
 1002SOL     OW 3337   4.776   4.211   2.639 -0.3996 -0.4240 -0.2230
 1002SOL    HW1 3338   4.789   4.299   2.603 -1.4113 -0.7621 -1.4239
 1002SOL    HW2 3339   4.759   4.156   2.563 -1.6366 -1.3121  0.6778
 1003SOL     OW 3340   1.811   2.698   2.964 -0.2077 -0.0939 -0.6649
 1003SOL    HW1 3341   1.725   2.667   2.934 -0.3864 -0.7129  0.4766
 1003SOL    HW2 3342   1.791   2.769   3.025  0.1019 -0.1587 -0.4881
 1004SOL     OW 3343   1.128   5.486   3.953 -0.1281 -0.4569 -0.4575
 1004SOL    HW1 3344   1.120   5.525   4.040  0.5841 -0.0264 -0.5800
 1004SOL    HW2 3345   1.136   5.561   3.894  0.2504 -0.7602 -0.7950
 1005SOL     OW 3346   5.067   0.538   2.663 -0.0885  0.2451 -0.8671
 1005SOL    HW1 3347   5.034   0.449   2.646  0.2730 -0.4546  1.8699
 1005SOL    HW2 3348   4.995   0.582   2.708  0.6504  0.5193  0.0608
 1006SOL     OW 3349   1.320   2.235   1.245  0.4494 -0.3185 -0.3529
 1006SOL    HW1 3350   1.225   2.251   1.245  0.2943 -1.1229  1.4453
 1006SOL    HW2 3351   1.330   2.149   1.284  1.9265 -0.3833 -0.8348
 1007SOL     OW 3352   3.512   5.547   1.360  0.4650 -0.2519  0.4861
 1007SOL    HW1 3353   3.592   5.588   1.327  0.2405 -0.1305  0.0967
 1007SOL    HW2 3354   3.441   5.602   1.327  0.1808 -0.7667  0.2345
 1008SOL     OW 3355   1.920   4.958   4.763 -0.1113 -0.1375  0.2903
 1008SOL    HW1 3356   1.914   4.947   4.669  1.6110  0.8896  0.0338
 1008SOL    HW2 3357   1.938   4.870   4.796  0.9090 -0.2374 -0.5052
 1009SOL     OW 3358   2.571   0.698   3.148  0.0234 -0.2470 -0.0636
 1009SOL    HW1 3359   2.578   0.769   3.211  0.6957 -0.7117  0.3919
 1009SOL    HW2 3360   2.487   0.656   3.167  0.6179 -0.9299  1.1022
 1010SOL     OW 3361   4.015   0.782   1.637  0.0697  0.5971 -0.3004
 1010SOL    HW1 3362   3.932   0.746   1.669 -0.4438  0.9301 -1.2345
 1010SOL    HW2 3363   4.021   0.868   1.679  0.6889 -0.0598  0.9578
 1011SOL     OW 3364   2.450   3.891   2.243 -0.3563 -0.4629 -0.1826
 1011SOL    HW1 3365   2.405   3.945   2.308  1.1252  1.4630 -0.6852
 1011SOL    HW2 3366   2.462   3.950   2.168  1.1120 -1.5573 -0.8314
 1012SOL     OW 3367   0.510   5.160   5.178 -0.0587 -0.2033  0.0439
 1012SOL    HW1 3368   0.437   5.105   5.207 -0.9251  0.5569 -0.6899
 1012SOL    HW2 3369   0.477   5.207   5.102  0.9681  0.6824  0.1274
 1013SOL     OW 3370   4.964   0.515   3.953  0.0091  0.2900  0.8383
 1013SOL    HW1 3371   4.965   0.607   3.981  0.8780  0.7064 -0.5062
 1013SOL    HW2 3372   5.051   0.500   3.916 -0.3981 -0.8600  0.3309
 1014SOL     OW 3373   1.590   2.027   1.932 -0.2661  0.5872  0.1436
 1014SOL    HW1 3374   1.521   2.093   1.939  0.3251  1.1345  0.8905
 1014SOL    HW2 3375   1.654   2.066   1.873 -1.0964 -0.3786 -1.4436
 1015SOL     OW 3376   0.725   2.750   0.744 -0.1499 -0.5939  0.1145
 1015SOL    HW1 3377   0.676   2.702   0.811 -1.2345  0.9114  0.4291
 1015SOL    HW2 3378   0.667   2.749   0.667  0.4249 -0.9718 -0.3180
 1016SOL     OW 3379   0.842   2.433   0.867  0.0160  0.0244 -0.0305
 1016SOL    HW1 3380   0.791   2.420   0.947 -1.4935  0.1373 -0.9417
 1016SOL    HW2 3381   0.814   2.361   0.810 -0.8397  1.4043 -1.3869
 1017SOL     OW 3382   1.175   3.534   3.691  0.1151  0.9635 -0.8534
 1017SOL    HW1 3383   1.127   3.456   3.661  0.6072  0.6539 -0.8490
 1017SOL    HW2 3384   1.114   3.606   3.677 -1.0197  0.3614  0.7543
 1018SOL     OW 3385   2.405   0.372   2.963 -0.4470  0.4617 -0.1292
 1018SOL    HW1 3386   2.471   0.377   3.032 -0.3830  0.6297 -0.2014
 1018SOL    HW2 3387   2.333   0.322   3.001 -0.0862 -0.1244 -0.2015
 1019SOL     OW 3388   0.571   0.644   3.312 -0.2673  0.0755 -0.1261
 1019SOL    HW1 3389   0.499   0.587   3.339  0.5423  0.3333  2.7951
 1019SOL    HW2 3390   0.650   0.590   3.323  0.1222  0.2812 -1.8359
 1020SOL     OW 3391   5.248   1.233   3.733  0.7865 -0.5683  0.8596
 1020SOL    HW1 3392   5.268   1.327   3.727 -0.1440 -0.3545  1.0256
 1020SOL    HW2 3393   5.200   1.214   3.653  2.3482 -1.2588  0.0787
 1021SOL     OW 3394   5.299   4.125   0.749 -0.0932  0.2634  0.0199
 1021SOL    HW1 3395   5.220   4.144   0.698 -0.5949 -1.5477  0.0781
 1021SOL    HW2 3396   5.266   4.084   0.829  0.8540  0.5220  0.5511
 1022SOL     OW 3397   3.981   1.020   3.726 -0.2268 -0.9650 -0.2518
 1022SOL    HW1 3398   4.050   0.958   3.702  0.7092 -0.3755  0.8660
 1022SOL    HW2 3399   3.946   1.051   3.642  1.5667 -0.4982 -0.8341
 1023SOL     OW 3400   5.549   2.199   1.369  0.0508 -0.5755 -0.2679
 1023SOL    HW1 3401   5.587   2.278   1.408 -0.5432  0.3708 -1.5496
 1023SOL    HW2 3402   5.596   2.126   1.410 -0.5140  0.3689  2.1437
 1024SOL     OW 3403   4.831   4.906   4.892  0.0883 -0.1267 -0.6877
 1024SOL    HW1 3404   4.809   4.816   4.918 -0.4881 -0.0104 -0.7704
 1024SOL    HW2 3405   4.863   4.946   4.973 -1.3771  0.1284 -0.2077
 1025SOL     OW 3406   1.237   3.539   1.570  0.2814  0.5827 -0.3993
 1025SOL    HW1 3407   1.300   3.467   1.561 -2.3210 -1.9186  0.6946
 1025SOL    HW2 3408   1.250   3.592   1.491  1.0460 -2.0505 -2.1106
 1026SOL     OW 3409   0.462   3.350   2.987 -0.0720  0.1653 -0.4144
 1026SOL    HW1 3410   0.542   3.297   2.979  0.6675  1.5802 -2.6859
 1026SOL    HW2 3411   0.491   3.429   3.033 -0.2437  0.4922 -0.8647
 1027SOL     OW 3412   4.356   1.787   1.731  0.0613  0.2863 -0.6752
 1027SOL    HW1 3413   4.300   1.788   1.653 -0.6164 -0.2498 -0.2086
 1027SOL    HW2 3414   4.294   1.776   1.804  0.8200 -0.9485 -0.1966
 1028SOL     OW 3415   1.510   3.163   0.161  0.0747  0.3654  0.0463
 1028SOL    HW1 3416   1.444   3.098   0.136  1.0883 -0.1328 -1.4312
 1028SOL    HW2 3417   1.472   3.247   0.135  0.3649  0.0042 -1.6545
 1029SOL     OW 3418   4.960   0.437   1.136 -0.1772 -0.1030 -0.0061
 1029SOL    HW1 3419   4.962   0.372   1.206  0.9439 -1.9761 -1.7041
 1029SOL    HW2 3420   5.003   0.514   1.173 -1.9062 -0.1696  2.1820
 1030SOL     OW 3421   1.685   0.532   3.359  0.0535 -0.0028 -0.5401
 1030SOL    HW1 3422   1.594   0.506   3.365  0.1518 -0.4708 -1.0542
 1030SOL    HW2 3423   1.694   0.602   3.424 -0.3464 -0.8239  0.4180
 1031SOL     OW 3424   5.212   3.100   3.134 -0.5028  0.0989 -0.1220
 1031SOL    HW1 3425   5.132   3.082   3.182 -0.5377 -1.4186 -0.7028
 1031SOL    HW2 3426   5.262   3.018   3.139  0.8415  0.8962 -0.0834
 1032SOL     OW 3427   4.549   2.490   1.198  0.9572 -0.2980 -0.1395
 1032SOL    HW1 3428   4.559   2.577   1.237  1.5041 -0.3252 -0.2177
 1032SOL    HW2 3429   4.595   2.496   1.114  3.2002 -1.4065  0.9776
 1033SOL     OW 3430   1.096   3.787   5.209 -0.0591  0.2655  0.5982
 1033SOL    HW1 3431   1.015   3.835   5.191  0.4870  0.9853  0.0361
 1033SOL    HW2 3432   1.105   3.788   5.304  0.1401  1.6088  0.5731
 1034SOL     OW 3433   0.255   1.360   0.057  0.0584  0.2939 -0.4123
 1034SOL    HW1 3434   0.261   1.343   0.151 -1.0740 -0.7050 -0.5172
 1034SOL    HW2 3435   0.303   1.442   0.044 -0.5687  0.9232  1.1821
 1035SOL     OW 3436   0.041   4.523   1.963 -0.4001 -0.1220  0.0676
 1035SOL    HW1 3437   0.044   4.496   2.055 -0.5259  0.9013  0.3836
 1035SOL    HW2 3438   0.132   4.536   1.938 -0.4514  1.1110  0.5132
 1036SOL     OW 3439   1.470   0.963   1.325  0.5254  0.8382 -0.2038
 1036SOL    HW1 3440   1.498   0.962   1.234 -2.2094  1.5319 -1.0945
 1036SOL    HW2 3441   1.468   1.056   1.348  0.2879  0.7234  0.2508
 1037SOL     OW 3442   2.058   4.212   3.694  0.4824 -0.1719  0.2970
 1037SOL    HW1 3443   2.107   4.180   3.619 -0.4775  0.2156 -0.5129
 1037SOL    HW2 3444   2.118   4.203   3.768  1.0546 -1.6202 -0.3150
 1038SOL     OW 3445   3.219   3.946   0.002  0.4431 -0.2792  0.0873
 1038SOL    HW1 3446   3.306   3.959   0.040 -0.5359 -0.7850  2.6296
 1038SOL    HW2 3447   3.209   3.851  -0.002 -0.0590 -0.2240 -0.0061
 1039SOL     OW 3448   2.888   5.300   2.355  0.6437  0.9795 -0.4465
 1039SOL    HW1 3449   2.904   5.380   2.304 -1.7024  0.7626 -1.5754
 1039SOL    HW2 3450   2.819   5.255   2.307  0.0372 -0.4064  1.6858
 1040SOL     OW 3451   4.757   3.685   0.457  0.0951 -0.1332  0.6566
 1040SOL    HW1 3452   4.772   3.608   0.402 -2.9009  2.0628 -3.5052
 1040SOL    HW2 3453   4.839   3.735   0.452 -0.1363  0.0511 -1.9404
 1041SOL     OW 3454   5.204   2.362   4.870 -0.2514  0.1148  0.6468
 1041SOL    HW1 3455   5.170   2.408   4.793 -0.0431 -0.0003  0.4882
 1041SOL    HW2 3456   5.226   2.275   4.839 -0.4303 -0.0237  0.8995
 1042SOL     OW 3457   4.305   2.622   3.329  0.1965  0.1288  0.1228
 1042SOL    HW1 3458   4.306   2.554   3.396 -0.7737  0.4378  0.4728
 1042SOL    HW2 3459   4.359   2.693   3.365 -0.7906  0.5277  0.8450
 1043SOL     OW 3460   0.539   4.766   0.699 -0.1077 -0.3613 -0.6104
 1043SOL    HW1 3461   0.542   4.782   0.605  0.0073 -0.4476 -0.6215
 1043SOL    HW2 3462   0.498   4.844   0.735  0.7659  0.1090 -0.6273
 1044SOL     OW 3463   2.975   0.663   2.305 -0.0932 -0.7330  0.3119
 1044SOL    HW1 3464   3.050   0.723   2.307 -1.1226  0.5724  0.6004
 1044SOL    HW2 3465   2.960   0.645   2.212 -0.8565  0.8619  0.1093
 1045SOL     OW 3466   1.680   1.988   4.548 -0.1361 -0.2796 -0.0132
 1045SOL    HW1 3467   1.604   1.982   4.607  0.2031  1.3023  0.6106
 1045SOL    HW2 3468   1.696   2.081   4.538 -0.4531 -0.4941 -3.0242
 1046SOL     OW 3469   3.009   1.518   2.935 -0.3585  0.1553 -0.0020
 1046SOL    HW1 3470   2.941   1.527   2.868  0.8856 -0.1452 -1.3138
 1046SOL    HW2 3471   2.995   1.593   2.993 -1.2147  0.6171 -0.7918
 1047SOL     OW 3472   3.758   2.645   0.867  0.8118  0.2916  0.2117
 1047SOL    HW1 3473   3.728   2.563   0.906  2.0129 -0.3311 -0.1457
 1047SOL    HW2 3474   3.684   2.676   0.815  1.3752 -2.2212 -2.2251
 1048SOL     OW 3475   2.711   4.697   4.978 -0.7285 -0.0888  0.8498
 1048SOL    HW1 3476   2.659   4.639   5.034 -1.0878  0.8159  1.4574
 1048SOL    HW2 3477   2.744   4.640   4.909 -2.8838 -0.6106  0.2057
 1049SOL     OW 3478   4.949   5.530   4.854  0.2067 -0.2753 -0.0607
 1049SOL    HW1 3479   4.910   5.573   4.930 -1.0363 -0.5853 -0.5034
 1049SOL    HW2 3480   5.043   5.534   4.870 -0.0580 -0.8272  1.7556
 1050SOL     OW 3481   4.035   2.743   0.305  0.0163  0.4711  0.4124
 1050SOL    HW1 3482   4.079   2.780   0.382  0.7246  1.5649 -0.5072
 1050SOL    HW2 3483   4.105   2.734   0.240 -0.9466  1.3647 -0.7620
 1051SOL     OW 3484   2.758   0.191   4.583  0.1112  0.6976 -0.5788
 1051SOL    HW1 3485   2.845   0.214   4.617  0.4807 -0.9517 -0.3951
 1051SOL    HW2 3486   2.759   0.096   4.576 -1.2467  0.7587 -1.7903
 1052SOL     OW 3487   0.442   2.525   1.279 -0.1815  0.4596 -0.1000
 1052SOL    HW1 3488   0.393   2.446   1.255 -0.8437  0.3459  1.5301
 1052SOL    HW2 3489   0.400   2.595   1.229 -3.0197  0.5993  2.3536
 1053SOL     OW 3490   3.509   5.416   4.175 -0.0185 -0.4181  0.7870
 1053SOL    HW1 3491   3.594   5.384   4.203 -0.6480 -0.7604  2.3096
 1053SOL    HW2 3492   3.503   5.504   4.211 -0.8491 -0.8774  1.7900
 1054SOL     OW 3493   0.254   5.121   2.252  0.1031  0.3326 -0.0647
 1054SOL    HW1 3494   0.171   5.152   2.288 -0.1205 -0.8853  0.5130
 1054SOL    HW2 3495   0.318   5.187   2.278 -0.2093 -0.0709  1.8471
 1055SOL     OW 3496   0.382   3.633   2.809  0.5834 -0.2735 -0.5865
 1055SOL    HW1 3497   0.475   3.611   2.810  0.9771  1.2886 -1.2411
 1055SOL    HW2 3498   0.375   3.710   2.866 -0.3993 -0.6868 -0.1325
 1056SOL     OW 3499   1.140   2.505   3.586  0.2035 -0.3032  0.1236
 1056SOL    HW1 3500   1.142   2.473   3.676 -1.7414 -0.2294  0.2046
 1056SOL    HW2 3501   1.078   2.447   3.541 -2.3777  2.4704 -0.0434
 1057SOL     OW 3502   0.827   0.511   5.006 -0.7048 -0.1789 -0.0248
 1057SOL    HW1 3503   0.740   0.542   5.030 -0.1238  1.3142  0.1892
 1057SOL    HW2 3504   0.862   0.578   4.947 -0.6061 -1.9091 -2.0302
 1058SOL     OW 3505   4.522   5.392   4.494 -0.2803  0.1563 -0.2741
 1058SOL    HW1 3506   4.491   5.367   4.581 -1.7009  0.0042 -0.7998
 1058SOL    HW2 3507   4.584   5.324   4.470  0.3001  0.3249  0.7047
 1059SOL     OW 3508   2.915   3.623   2.372 -0.0536  0.6889 -0.0829
 1059SOL    HW1 3509   2.857   3.645   2.445  1.4620 -1.0790  1.6921
 1059SOL    HW2 3510   2.865   3.646   2.294 -2.3976  0.9634  1.4581
 1060SOL     OW 3511   4.125   4.369   1.549 -0.1665  0.4473  0.4361
 1060SOL    HW1 3512   4.180   4.435   1.589 -0.1222  0.0894  0.9711
 1060SOL    HW2 3513   4.053   4.356   1.611 -0.7160  0.7244 -0.1333
 1061SOL     OW 3514   1.720   3.870   3.234 -0.2950 -0.0695 -0.6640
 1061SOL    HW1 3515   1.646   3.812   3.215  0.0307 -0.9706  0.7821
 1061SOL    HW2 3516   1.730   3.866   3.329  0.9838  0.8303 -0.7517
 1062SOL     OW 3517   3.607   5.467   0.586  0.3856  0.1249 -0.4740
 1062SOL    HW1 3518   3.657   5.393   0.621 -0.0231  1.0216  2.1390
 1062SOL    HW2 3519   3.521   5.459   0.628  0.5834  2.4694  0.4511
 1063SOL     OW 3520   3.094   0.936   3.446 -0.1766  0.2897  0.0746
 1063SOL    HW1 3521   3.174   0.895   3.477  0.3539  0.1590 -1.4197
 1063SOL    HW2 3522   3.121   1.021   3.412 -0.7323  0.4364 -0.0120
 1064SOL     OW 3523   3.306   1.932   4.782  0.1165  0.3266 -0.0695
 1064SOL    HW1 3524   3.305   1.855   4.725  0.1986  0.3169 -0.0574
 1064SOL    HW2 3525   3.376   1.915   4.845  1.1791  1.1094 -1.0137
 1065SOL     OW 3526   1.350   3.777   5.426 -0.4072 -0.6796  0.3084
 1065SOL    HW1 3527   1.332   3.773   5.520 -2.4198 -1.7046 -0.1009
 1065SOL    HW2 3528   1.371   3.869   5.410  0.6845 -0.6313  1.8738
 1066SOL     OW 3529   0.450   1.286   4.672  0.2959 -0.2060 -0.2846
 1066SOL    HW1 3530   0.498   1.337   4.737 -0.3331 -0.4713  0.3972
 1066SOL    HW2 3531   0.365   1.268   4.713 -0.0943 -0.4182 -1.1580
 1067SOL     OW 3532   1.547   4.600   0.426 -0.3461 -0.1136  0.0241
 1067SOL    HW1 3533   1.549   4.638   0.513  2.8535 -0.1706  0.0608
 1067SOL    HW2 3534   1.570   4.508   0.440 -0.6512 -0.3148 -0.7837
 1068SOL     OW 3535   2.493   5.001   1.632 -0.7414  0.0228  0.3439
 1068SOL    HW1 3536   2.480   5.093   1.608 -0.9402 -0.2488 -0.6043
 1068SOL    HW2 3537   2.406   4.968   1.651 -0.6943 -0.0326  0.4651
 1069SOL     OW 3538   0.223   2.685   2.277 -0.3038  0.1120 -0.1757
 1069SOL    HW1 3539   0.241   2.776   2.253 -0.4811 -0.0618 -0.9768
 1069SOL    HW2 3540   0.131   2.685   2.303 -0.2985  0.1633 -0.1557
 1070SOL     OW 3541   4.771   4.525   1.841 -0.2369 -0.3838 -0.0203
 1070SOL    HW1 3542   4.845   4.586   1.831 -0.1312 -0.5302 -0.1343
 1070SOL    HW2 3543   4.795   4.470   1.915 -0.2428 -0.4177 -0.0439
 1071SOL     OW 3544   1.040   2.846   3.026 -0.1908  0.7702  0.1701
 1071SOL    HW1 3545   0.979   2.906   2.982  1.3199  1.1550 -1.4770
 1071SOL    HW2 3546   1.119   2.898   3.039  0.1143 -0.0019  1.4189
 1072SOL     OW 3547   4.212   3.014   2.553 -0.2451  0.4110  0.6515
 1072SOL    HW1 3548   4.134   3.067   2.538 -0.0952  0.5764  0.4550
 1072SOL    HW2 3549   4.229   2.972   2.468  0.9522  1.8092  0.1776
 1073SOL     OW 3550   0.860   5.316   2.974  0.7948 -0.2504 -0.1574
 1073SOL    HW1 3551   0.880   5.409   2.985 -0.5675 -0.2912  3.5616
 1073SOL    HW2 3552   0.939   5.279   2.935  2.0245  2.1703 -0.0602
 1074SOL     OW 3553   5.104   1.954   3.573 -0.4570 -0.2040 -0.5441
 1074SOL    HW1 3554   5.156   1.974   3.651  1.6275 -0.7302 -1.7433
 1074SOL    HW2 3555   5.070   1.866   3.587  0.0627 -0.3658 -0.2995
 1075SOL     OW 3556   4.382   3.906   2.183  0.4309 -0.2688  0.3072
 1075SOL    HW1 3557   4.439   3.829   2.183  1.2596  0.3333  0.1875
 1075SOL    HW2 3558   4.313   3.885   2.121  2.1156  0.1435 -1.7640
 1076SOL     OW 3559   1.876   0.598   0.554  0.3929 -0.0546  0.1225
 1076SOL    HW1 3560   1.803   0.552   0.594  1.5704 -0.8979  1.3487
 1076SOL    HW2 3561   1.874   0.571   0.462 -0.3622 -0.6733  0.3173
 1077SOL     OW 3562   5.565   2.644   1.914 -0.3125 -0.0454  0.0022
 1077SOL    HW1 3563   5.633   2.696   1.958  0.3792  0.8346 -2.0555
 1077SOL    HW2 3564   5.590   2.553   1.931  0.0838  0.2761  1.1994
 1078SOL     OW 3565   3.007   4.960   3.576 -0.1231  0.2292 -0.9764
 1078SOL    HW1 3566   3.014   4.870   3.609 -2.5970 -0.0986 -1.2790
 1078SOL    HW2 3567   3.079   4.968   3.514  2.2510 -0.4041  1.5524
 1079SOL     OW 3568   1.988   0.627   0.295 -0.4886 -0.6208 -0.2063
 1079SOL    HW1 3569   2.083   0.637   0.299 -0.7373  1.7376  0.1765
 1079SOL    HW2 3570   1.972   0.581   0.212  0.9143 -0.3581 -0.6294
 1080SOL     OW 3571   2.891   2.980   2.026 -0.6255 -0.6455  0.1429
 1080SOL    HW1 3572   2.975   2.937   2.044 -0.5716 -0.4272  0.4191
 1080SOL    HW2 3573   2.863   2.943   1.943  0.6230  0.6179 -0.8668
 1081SOL     OW 3574   3.251   5.406   5.140 -0.0318 -0.3746 -0.6108
 1081SOL    HW1 3575   3.202   5.472   5.092  2.4353  1.7599 -0.3105
 1081SOL    HW2 3576   3.254   5.437   5.230  1.8970 -0.3759 -0.6385
 1082SOL     OW 3577   4.274   1.104   0.339  0.4616 -0.0596 -0.2362
 1082SOL    HW1 3578   4.331   1.147   0.275  0.4854  0.4409  0.1191
 1082SOL    HW2 3579   4.332   1.076   0.409  0.2003  1.0039  0.4218
 1083SOL     OW 3580   0.681   0.879   3.621 -0.4671 -0.3221  0.1866
 1083SOL    HW1 3581   0.768   0.915   3.605 -0.7918  1.1316  1.5697
 1083SOL    HW2 3582   0.630   0.907   3.544 -0.5007  1.5396  0.8491
 1084SOL     OW 3583   1.556   3.521   4.080  0.0165  0.1148 -0.0203
 1084SOL    HW1 3584   1.640   3.542   4.039  0.2526 -1.0523 -0.1562
 1084SOL    HW2 3585   1.567   3.432   4.112 -2.1157 -1.0931 -2.4806
 1085SOL     OW 3586   0.843   2.434   1.905 -0.0218 -0.1765 -0.3431
 1085SOL    HW1 3587   0.824   2.345   1.935  2.1200 -0.5330  0.1152
 1085SOL    HW2 3588   0.768   2.459   1.851 -1.3013 -1.7172  0.6848
 1086SOL     OW 3589   1.684   4.244   3.002  0.1327  0.3042  0.1135
 1086SOL    HW1 3590   1.689   4.220   2.909  0.5739  0.2767  0.1409
 1086SOL    HW2 3591   1.772   4.278   3.022 -0.0469  0.5731  0.4470
 1087SOL     OW 3592   0.861   1.595   1.717 -0.8234 -0.1957 -0.0247
 1087SOL    HW1 3593   0.929   1.563   1.658  0.3689  0.2738  1.0575
 1087SOL    HW2 3594   0.852   1.688   1.694  0.4841  0.2791  1.2855
 1088SOL     OW 3595   2.039   1.804   4.116  0.0468  0.4025  0.4258
 1088SOL    HW1 3596   2.019   1.746   4.190  0.5127  1.8973  1.7463
 1088SOL    HW2 3597   1.990   1.884   4.134  0.3220  0.8588 -0.7846
 1089SOL     OW 3598   5.378   2.851   1.689  0.6742 -0.7359  0.5457
 1089SOL    HW1 3599   5.389   2.850   1.594 -0.5932  0.5587  0.3640
 1089SOL    HW2 3600   5.372   2.759   1.713  0.1650 -1.0527 -0.7378
 1090SOL     OW 3601   3.454   0.806   2.333  0.2224 -0.5463 -0.3102
 1090SOL    HW1 3602   3.384   0.784   2.271  1.7793 -0.8093 -1.9874
 1090SOL    HW2 3603   3.521   0.739   2.320  0.9762 -0.0818  1.0283
 1091SOL     OW 3604   3.172   4.804   5.537 -0.4563  0.8005  0.0516
 1091SOL    HW1 3605   3.236   4.864   5.576  1.6209  0.0247 -2.0236
 1091SOL    HW2 3606   3.115   4.861   5.485  1.1918  1.0940 -1.4955
 1092SOL     OW 3607   1.944   4.054   4.047 -0.0549 -0.0909 -0.0584
 1092SOL    HW1 3608   1.976   4.141   4.069  2.4166 -0.8863 -0.3902
 1092SOL    HW2 3609   1.938   4.009   4.131  0.2516 -0.1250 -0.0552
 1093SOL     OW 3610   3.668   3.392   1.702 -0.5330 -0.3431 -0.2508
 1093SOL    HW1 3611   3.707   3.341   1.631  0.0731  1.2910 -1.1334
 1093SOL    HW2 3612   3.688   3.483   1.680 -0.2532  0.1983  2.0799
 1094SOL     OW 3613   2.332   5.186   4.861 -0.4199  0.4080 -0.0288
 1094SOL    HW1 3614   2.300   5.210   4.774  1.1458 -0.1765 -0.7833
 1094SOL    HW2 3615   2.254   5.156   4.908 -1.7605  3.2732 -0.3174
 1095SOL     OW 3616   0.754   3.446   2.131  0.4555 -0.0197 -0.0470
 1095SOL    HW1 3617   0.829   3.388   2.130  1.3176  1.0624  0.1808
 1095SOL    HW2 3618   0.742   3.473   2.040  0.6976  0.2458 -0.0010
 1096SOL     OW 3619   4.627   2.461   3.673 -0.2380  0.3969  0.5020
 1096SOL    HW1 3620   4.582   2.393   3.724  0.1471 -0.0691  0.2258
 1096SOL    HW2 3621   4.587   2.543   3.701 -0.6177  0.0639  0.9329
 1097SOL     OW 3622   2.424   3.060   0.958  0.7500 -0.2933  0.3473
 1097SOL    HW1 3623   2.423   3.083   0.865 -0.6370 -0.2577  0.3530
 1097SOL    HW2 3624   2.422   2.964   0.958  3.6958 -0.3801  0.3376
 1098SOL     OW 3625   1.011   2.452   3.220  0.0734 -0.3406 -0.2227
 1098SOL    HW1 3626   1.017   2.441   3.125  2.1221  1.4090 -0.3406
 1098SOL    HW2 3627   0.979   2.541   3.232  1.1191 -0.0782  0.7199
 1099SOL     OW 3628   5.314   1.405   4.080 -0.0147  1.0725  0.7448
 1099SOL    HW1 3629   5.389   1.449   4.042 -0.0561  1.6248  1.2895
 1099SOL    HW2 3630   5.332   1.404   4.174 -0.0922  0.0809  0.7531
 1100SOL     OW 3631   2.628   5.227   3.471  0.0243 -0.4107  0.5130
 1100SOL    HW1 3632   2.628   5.265   3.383 -0.6314 -0.0458  0.6708
 1100SOL    HW2 3633   2.641   5.301   3.529 -2.1668 -0.2950  0.8774
 1101SOL     OW 3634   3.830   1.470   1.604  0.6454  0.4014 -0.4128
 1101SOL    HW1 3635   3.777   1.398   1.639  1.9808  0.0217  0.8879
 1101SOL    HW2 3636   3.826   1.459   1.509 -0.6342 -0.3078 -0.2904
 1102SOL     OW 3637   3.672   2.190   5.233  0.2250 -0.3508 -0.2200
 1102SOL    HW1 3638   3.691   2.144   5.151  0.3308 -1.4231  0.4036
 1102SOL    HW2 3639   3.630   2.125   5.289 -1.3565  0.8053  0.0011
 1103SOL     OW 3640   5.567   0.244   4.591  0.2600 -0.3585 -0.4546
 1103SOL    HW1 3641   5.609   0.284   4.667  1.9797 -1.8310 -0.6038
 1103SOL    HW2 3642   5.581   0.308   4.521  1.7126 -0.5422 -0.3493
 1104SOL     OW 3643   4.691   1.168   0.027 -0.1188  0.1773  0.0771
 1104SOL    HW1 3644   4.769   1.128   0.067 -2.2269 -1.4961  2.7197
 1104SOL    HW2 3645   4.692   1.258   0.060 -0.8566 -0.6808  2.5714
 1105SOL     OW 3646   0.512   2.122   2.333  0.3038  0.7626  0.0920
 1105SOL    HW1 3647   0.447   2.127   2.263  0.6819 -0.8183 -0.3766
 1105SOL    HW2 3648   0.589   2.084   2.293  0.1717 -1.1799  1.5939
 1106SOL     OW 3649   0.339   1.130   2.981 -0.1638  0.4622 -0.3096
 1106SOL    HW1 3650   0.352   1.105   3.073  1.5133  1.1190 -0.3617
 1106SOL    HW2 3651   0.305   1.050   2.940 -3.0933  0.7929  1.3117
 1107SOL     OW 3652   2.633   2.894   1.493 -0.1781 -0.3805  0.1347
 1107SOL    HW1 3653   2.665   2.947   1.566 -4.1260 -1.3775  2.7102
 1107SOL    HW2 3654   2.686   2.814   1.496  0.4056  0.0413  1.2003
 1108SOL     OW 3655   0.970   2.669   0.607 -0.0830  0.6149 -0.3527
 1108SOL    HW1 3656   1.027   2.712   0.544 -0.6485 -0.2201 -1.4636
 1108SOL    HW2 3657   0.913   2.739   0.640 -1.3672  0.6600 -2.5531
 1109SOL     OW 3658   5.290   5.030   3.507 -0.3199  0.1528 -0.2139
 1109SOL    HW1 3659   5.202   5.063   3.487 -1.3152 -3.0265 -1.5360
 1109SOL    HW2 3660   5.327   5.009   3.421  0.3901 -1.6640  0.5107
 1110SOL     OW 3661   4.675   3.551   1.529 -0.1419  0.3054 -0.1099
 1110SOL    HW1 3662   4.710   3.607   1.459 -0.0147 -0.5924 -0.7718
 1110SOL    HW2 3663   4.585   3.583   1.542 -0.4840 -0.1290 -1.3434
 1111SOL     OW 3664   5.522   2.228   3.811  0.5626  0.9460  0.2473
 1111SOL    HW1 3665   5.449   2.222   3.750 -1.5262 -0.3426  2.7715
 1111SOL    HW2 3666   5.570   2.146   3.798  0.4451  0.9209 -0.0448
 1112SOL     OW 3667   0.327   1.193   2.675  0.2613  1.0158  0.3077
 1112SOL    HW1 3668   0.325   1.157   2.764  3.2818  1.2561  0.5363
 1112SOL    HW2 3669   0.355   1.284   2.687 -0.4959  1.4090 -0.8153
 1113SOL     OW 3670   3.545   0.796   3.117 -0.0603  0.3758  0.0966
 1113SOL    HW1 3671   3.526   0.857   3.188  1.3134  0.3430  0.5101
 1113SOL    HW2 3672   3.606   0.843   3.060 -1.3123  0.4724 -1.1676
 1114SOL     OW 3673   0.986   0.745   0.278  0.0624  0.6092  0.5399
 1114SOL    HW1 3674   1.035   0.689   0.338  0.7356  0.7811  0.1574
 1114SOL    HW2 3675   0.901   0.759   0.321  0.2289  0.0412  1.0514
 1115SOL     OW 3676   3.350   0.390   2.179 -0.3835  0.2321 -0.1220
 1115SOL    HW1 3677   3.415   0.346   2.123  0.2610  0.3620  0.5174
 1115SOL    HW2 3678   3.279   0.413   2.119  0.1408  0.0458 -0.8227
 1116SOL     OW 3679   2.217   2.153   1.279 -0.3270  0.2659 -0.4265
 1116SOL    HW1 3680   2.232   2.131   1.371 -1.6140  2.0389  0.2434
 1116SOL    HW2 3681   2.185   2.243   1.281 -2.0333 -0.2514 -2.4768
 1117SOL     OW 3682   1.591   4.320   1.201 -0.6117  0.0491 -0.2915
 1117SOL    HW1 3683   1.665   4.378   1.186 -2.1331  2.7914  2.3324
 1117SOL    HW2 3684   1.614   4.270   1.279  0.1434 -2.0705 -1.8095
 1118SOL     OW 3685   5.330   2.758   0.977  0.3957 -0.2291 -0.2284
 1118SOL    HW1 3686   5.256   2.794   0.928 -0.5017  0.0379  1.3067
 1118SOL    HW2 3687   5.294   2.681   1.021  1.4568 -1.0541 -0.7786
 1119SOL     OW 3688   3.091   1.641   0.053 -0.4078 -0.2640 -0.4005
 1119SOL    HW1 3689   3.096   1.610  -0.038  1.8312 -0.8100 -0.1195
 1119SOL    HW2 3690   3.128   1.729   0.050 -0.6758 -0.1399 -0.0631
 1120SOL     OW 3691   0.225   3.648   4.529 -0.1338  0.6973 -0.1179
 1120SOL    HW1 3692   0.196   3.714   4.591 -0.0059 -0.3433  1.0564
 1120SOL    HW2 3693   0.201   3.683   4.443 -2.0917  1.2362  0.6397
 1121SOL     OW 3694   1.786   1.493   4.249  0.3854  0.2366  0.3109
 1121SOL    HW1 3695   1.725   1.567   4.241  0.5821  0.5063  1.1898
 1121SOL    HW2 3696   1.755   1.429   4.186  1.4353  1.9040 -1.9938
 1122SOL     OW 3697   0.154   3.469   2.906 -0.2559  0.0986 -0.7942
 1122SOL    HW1 3698   0.230   3.523   2.886 -0.2012 -0.3535 -1.8555
 1122SOL    HW2 3699   0.110   3.458   2.821  0.8156 -3.1644 -1.0102
 1123SOL     OW 3700   2.182   4.044   1.243  0.6495  0.2345  0.1900
 1123SOL    HW1 3701   2.145   4.076   1.161 -0.4612 -0.3513  0.4436
 1123SOL    HW2 3702   2.273   4.073   1.242  1.3056 -1.7730 -2.3217
 1124SOL     OW 3703   0.281   0.380   2.822  0.4300  0.5928 -0.2400
 1124SOL    HW1 3704   0.222   0.443   2.862 -1.2907 -0.0620 -1.6886
 1124SOL    HW2 3705   0.278   0.400   2.728  1.4345 -0.3283 -0.4862
 1125SOL     OW 3706   3.098   5.302   3.253  0.2065 -0.1277 -0.0139
 1125SOL    HW1 3707   3.152   5.225   3.236  0.9722  0.6495 -1.2317
 1125SOL    HW2 3708   3.014   5.267   3.280  0.2505 -1.4174 -1.4434
 1126SOL     OW 3709   3.299   3.116   0.037  0.2678 -0.6021  0.0346
 1126SOL    HW1 3710   3.256   3.045  -0.010 -0.1406  0.2470 -0.8966
 1126SOL    HW2 3711   3.314   3.183  -0.029  0.8537  0.0856  0.8528
 1127SOL     OW 3712   4.085   1.965   0.199  0.2821 -0.2108  0.0944
 1127SOL    HW1 3713   4.016   2.002   0.254  0.0444 -2.0945  1.0784
 1127SOL    HW2 3714   4.039   1.913   0.133  0.7692 -1.9872  1.1342
 1128SOL     OW 3715   0.870   1.771   0.411 -0.4901 -0.3233 -0.6074
 1128SOL    HW1 3716   0.867   1.825   0.333 -2.5532  1.1293  0.4212
 1128SOL    HW2 3717   0.834   1.687   0.383 -0.5728 -0.0357 -1.3740
 1129SOL     OW 3718   2.363   1.484   2.516  0.1342 -0.5069 -0.0050
 1129SOL    HW1 3719   2.336   1.489   2.424 -0.1809 -0.4795  0.0889
 1129SOL    HW2 3720   2.331   1.400   2.547 -2.2440  0.6701  0.8614
 1130SOL     OW 3721   3.116   0.005   4.973 -0.2885 -0.1264 -0.0111
 1130SOL    HW1 3722   3.149   0.091   4.948 -0.7966 -0.2640 -1.1795
 1130SOL    HW2 3723   3.078  -0.031   4.893  1.7486 -2.3075 -0.0443
 1131SOL     OW 3724   2.384   4.306   4.654  0.0650 -0.0052 -0.1512
 1131SOL    HW1 3725   2.329   4.258   4.594 -0.5743 -0.9420  1.1559
 1131SOL    HW2 3726   2.466   4.320   4.607 -0.4167 -0.7515 -1.2026
 1132SOL     OW 3727   4.126   0.431   4.787  0.1655 -0.1535 -0.3942
 1132SOL    HW1 3728   4.051   0.409   4.842  0.1320 -1.8865 -1.1273
 1132SOL    HW2 3729   4.120   0.526   4.776 -0.7102  0.0160  1.2956
 1133SOL     OW 3730   2.011   0.720   5.345  0.0540  0.2884 -0.3457
 1133SOL    HW1 3731   2.099   0.735   5.311  0.5529  0.2030  0.9093
 1133SOL    HW2 3732   2.020   0.725   5.440 -1.2847  0.2261 -0.2038
 1134SOL     OW 3733   5.158   1.112   0.786 -0.1235  0.0968 -0.0294
 1134SOL    HW1 3734   5.104   1.037   0.761 -0.2491  0.4706 -0.9136
 1134SOL    HW2 3735   5.244   1.076   0.805 -0.3344 -0.3391  0.0946
 1135SOL     OW 3736   1.753   5.341   4.733  0.3201 -0.2076 -0.1438
 1135SOL    HW1 3737   1.724   5.256   4.765 -0.6040  0.1852  0.0909
 1135SOL    HW2 3738   1.826   5.364   4.789 -0.2153 -0.2917  0.5928
 1136SOL     OW 3739   0.401   3.303   3.658 -0.3325  0.2756 -0.9573
 1136SOL    HW1 3740   0.324   3.350   3.687 -0.0379 -0.3193  0.8688
 1136SOL    HW2 3741   0.368   3.216   3.633 -0.2212 -0.0554  0.0454
 1137SOL     OW 3742   0.783   0.134   4.692 -0.5249 -0.6051 -0.0360
 1137SOL    HW1 3743   0.789   0.063   4.755 -0.3709  0.8050  1.5847
 1137SOL    HW2 3744   0.838   0.204   4.729 -1.6478  0.8004 -0.9530
 1138SOL     OW 3745   4.813   0.836   3.007  0.4711  0.3653  0.1517
 1138SOL    HW1 3746   4.848   0.844   3.096 -2.0431  0.7086  1.1327
 1138SOL    HW2 3747   4.872   0.773   2.964 -0.1842 -2.3987  3.0817
 1139SOL     OW 3748   1.229   4.341   0.633 -0.4874 -0.6146 -0.0702
 1139SOL    HW1 3749   1.170   4.283   0.680 -0.5503 -1.2151 -0.8901
 1139SOL    HW2 3750   1.205   4.331   0.541  2.6297 -2.8406 -0.6858
 1140SOL     OW 3751   0.988   3.090   2.369 -0.0258  0.3578  0.3956
 1140SOL    HW1 3752   1.061   3.047   2.325 -1.4306 -0.9430 -0.7317
 1140SOL    HW2 3753   0.934   3.126   2.299  0.9398  3.7797  1.3140
 1141SOL     OW 3754   0.835   3.051   2.078  0.0903  0.2041 -0.1842
 1141SOL    HW1 3755   0.914   3.088   2.039  0.3319  0.0825  0.1869
 1141SOL    HW2 3756   0.764   3.085   2.024  0.3846  0.4250 -0.4375
 1142SOL     OW 3757   1.588   4.170   0.270  0.1029  0.3368 -0.0963
 1142SOL    HW1 3758   1.554   4.084   0.296  0.8051 -0.1924 -0.9076
 1142SOL    HW2 3759   1.575   4.225   0.347 -0.8737 -0.3491  0.2409
 1143SOL     OW 3760   0.483   0.008   2.071  0.3827  0.2178 -0.5103
 1143SOL    HW1 3761   0.534   0.089   2.062 -0.2195  0.7534  0.7570
 1143SOL    HW2 3762   0.394   0.034   2.048  0.3271 -0.2811 -0.8697
 1144SOL     OW 3763   4.170   3.818   0.129  0.1259 -0.2507 -0.2662
 1144SOL    HW1 3764   4.141   3.866   0.051  0.0210 -1.0749 -0.7338
 1144SOL    HW2 3765   4.132   3.731   0.120  1.2161 -0.7648  0.0399
 1145SOL     OW 3766   1.616   5.462   3.794  0.3134 -0.3623  0.2746
 1145SOL    HW1 3767   1.592   5.426   3.709  0.0219 -1.0189  0.6257
 1145SOL    HW2 3768   1.711   5.474   3.790  0.1659  0.5538 -0.4916
 1146SOL     OW 3769   0.926   5.452   2.701  0.5447  0.0949 -0.4633
 1146SOL    HW1 3770   0.862   5.395   2.744 -0.4404  1.4932 -0.0462
 1146SOL    HW2 3771   0.974   5.493   2.772  0.6043  0.5231 -0.7500
 1147SOL     OW 3772   4.980   0.475   5.068  0.3392 -0.0084  0.0826
 1147SOL    HW1 3773   5.070   0.464   5.037  0.8704 -0.0669  1.6202
 1147SOL    HW2 3774   4.939   0.389   5.055  1.8645 -1.3465  3.6595
 1148SOL     OW 3775   3.167   0.521   2.666  0.0002 -0.2164 -0.2237
 1148SOL    HW1 3776   3.194   0.480   2.584 -1.5641 -1.0840 -0.3513
 1148SOL    HW2 3777   3.221   0.479   2.733  0.3122 -0.5180 -0.6640
 1149SOL     OW 3778   0.389   2.018   4.569 -0.3752 -0.3166  0.8243
 1149SOL    HW1 3779   0.446   1.943   4.586 -1.7066 -1.2310  1.3952
 1149SOL    HW2 3780   0.354   2.042   4.655 -0.3793  0.6107  0.5676
 1150SOL     OW 3781   1.862   0.152   5.117 -0.8750 -0.0859 -0.2806
 1150SOL    HW1 3782   1.936   0.107   5.078 -1.4230 -0.7514 -0.5759
 1150SOL    HW2 3783   1.897   0.193   5.196  0.0403  0.5509 -1.0251
 1151SOL     OW 3784   0.333   2.111   2.589  0.4287 -0.6480 -0.1244
 1151SOL    HW1 3785   0.288   2.056   2.525  0.3567  1.4426 -1.9028
 1151SOL    HW2 3786   0.397   2.160   2.538  1.0733  0.3202  1.5698
 1152SOL     OW 3787   1.587   2.155   4.168 -0.0332 -0.1226 -0.5096
 1152SOL    HW1 3788   1.603   2.159   4.074  0.8225 -0.5206 -0.3809
 1152SOL    HW2 3789   1.617   2.068   4.194 -1.8179 -0.6497 -0.1569
 1153SOL     OW 3790   2.101   2.799   1.041 -0.2540  0.2406  0.0824
 1153SOL    HW1 3791   2.058   2.884   1.033 -1.0155 -0.0091  1.4504
 1153SOL    HW2 3792   2.163   2.811   1.113  2.0750  0.6290 -1.9087
 1154SOL     OW 3793   0.864   5.339   2.050  0.4234  0.7908 -0.7075
 1154SOL    HW1 3794   0.910   5.264   2.012 -1.3159 -0.4522 -0.3893
 1154SOL    HW2 3795   0.909   5.355   2.133 -1.0072 -1.7389  0.5932
 1155SOL     OW 3796   0.067   4.323   0.958 -0.2295  0.4494 -0.1863
 1155SOL    HW1 3797   0.066   4.242   1.010  1.2150 -0.8020 -2.0595
 1155SOL    HW2 3798   0.084   4.294   0.868 -0.2759  2.7978 -0.9866
 1156SOL     OW 3799   2.813   1.138   2.111  0.2197 -0.4330 -0.4394
 1156SOL    HW1 3800   2.742   1.175   2.060  0.5442 -0.2225 -0.7363
 1156SOL    HW2 3801   2.845   1.211   2.164 -0.0831 -0.6377  0.0322
 1157SOL     OW 3802   3.706   2.477   0.320 -0.1910 -0.1192 -0.5591
 1157SOL    HW1 3803   3.628   2.496   0.267 -0.9555 -0.3750  0.4700
 1157SOL    HW2 3804   3.778   2.483   0.257 -0.9787  0.5840 -1.4309
 1158SOL     OW 3805   1.448   1.786   5.299  0.2016  0.1980 -0.0752
 1158SOL    HW1 3806   1.399   1.736   5.364 -3.7917 -1.5426 -4.1374
 1158SOL    HW2 3807   1.498   1.719   5.251  0.5590  1.0067 -0.8485
 1159SOL     OW 3808   2.903   0.475   0.692  0.0905  0.0717 -0.2688
 1159SOL    HW1 3809   2.856   0.393   0.676  1.0594 -0.2629 -1.5090
 1159SOL    HW2 3810   2.882   0.497   0.783 -0.1508 -1.5784  0.1054
 1160SOL     OW 3811   0.779   3.688   4.937  0.1552 -0.4230  0.1345
 1160SOL    HW1 3812   0.745   3.776   4.954 -1.1049 -1.0105  0.6805
 1160SOL    HW2 3813   0.701   3.634   4.924  0.9203 -1.4871 -0.0848
 1161SOL     OW 3814   2.558   3.824   5.265 -0.3415 -0.4306 -0.4082
 1161SOL    HW1 3815   2.508   3.807   5.185 -0.5855  0.7380 -0.5017
 1161SOL    HW2 3816   2.636   3.768   5.256 -0.4917 -0.5033 -1.3359
 1162SOL     OW 3817   4.440   3.674   1.220 -0.1387 -0.2396 -0.1739
 1162SOL    HW1 3818   4.417   3.598   1.272 -0.8675 -0.6844 -1.1370
 1162SOL    HW2 3819   4.361   3.695   1.171  1.0227 -0.8745 -2.3980
 1163SOL     OW 3820   4.124   4.532   2.382  0.3357 -0.0668  0.8212
 1163SOL    HW1 3821   4.123   4.439   2.406 -2.5127 -0.0692  0.9059
 1163SOL    HW2 3822   4.188   4.538   2.310  0.4340 -2.1111  0.7087
 1164SOL     OW 3823   4.402   3.027   2.057  0.1681 -0.2805 -0.3038
 1164SOL    HW1 3824   4.408   3.115   2.019  2.5923 -0.1478  0.2942
 1164SOL    HW2 3825   4.478   2.981   2.024 -0.6788 -1.9307 -0.0004
 1165SOL     OW 3826   2.592   3.604   0.726 -0.0813 -0.0316 -0.1624
 1165SOL    HW1 3827   2.687   3.602   0.726 -0.0881 -2.6033  0.7790
 1165SOL    HW2 3828   2.569   3.665   0.655  2.2399  0.6760 -0.3394
 1166SOL     OW 3829   1.063   3.057   4.424 -0.2412  0.2060 -0.2590
 1166SOL    HW1 3830   1.084   3.149   4.411 -0.2926  0.2917  0.2543
 1166SOL    HW2 3831   0.978   3.058   4.468 -0.1693 -0.0848 -0.1140
 1167SOL     OW 3832   3.876   2.882   3.912 -0.0575 -0.3456 -0.0129
 1167SOL    HW1 3833   3.843   2.806   3.865  2.0013 -0.6804 -0.9489
 1167SOL    HW2 3834   3.899   2.945   3.844  1.4274 -0.2042  0.5966
 1168SOL     OW 3835   4.509   0.628   3.482  0.0663 -0.4274  0.5960
 1168SOL    HW1 3836   4.528   0.561   3.548 -0.0766 -1.9216 -0.8716
 1168SOL    HW2 3837   4.451   0.585   3.419 -0.6749  1.3201  0.0618
 1169SOL     OW 3838   3.496   0.165   2.460  1.1814 -0.2359  0.5924
 1169SOL    HW1 3839   3.413   0.123   2.439  0.6157  1.4288 -0.5952
 1169SOL    HW2 3840   3.561   0.096   2.450  0.3641 -0.6661 -2.0778
 1170SOL     OW 3841   3.414   5.463   1.601  0.4746 -0.4361  0.2003
 1170SOL    HW1 3842   3.452   5.487   1.517 -1.9202 -0.5853 -0.9597
 1170SOL    HW2 3843   3.432   5.370   1.611 -3.1174 -1.4963 -2.3256
 1171SOL     OW 3844   4.067   4.558   0.109  0.3364 -0.0982 -0.1418
 1171SOL    HW1 3845   4.119   4.606   0.045  0.9925 -0.1561  0.3371
 1171SOL    HW2 3846   3.985   4.537   0.064  0.1715  1.1876 -0.4614
 1172SOL     OW 3847   1.174   3.050   5.043  0.2515  1.0447  0.1943
 1172SOL    HW1 3848   1.188   2.956   5.048  0.9084  0.9566 -2.6739
 1172SOL    HW2 3849   1.096   3.060   4.988  0.2012  2.1718  0.4546
 1173SOL     OW 3850   0.520   0.556   5.506 -0.5523 -0.1780 -0.3543
 1173SOL    HW1 3851   0.568   0.484   5.545 -2.5690  0.2160  3.0504
 1173SOL    HW2 3852   0.531   0.629   5.567 -0.4061  1.7479 -2.5971
 1174SOL     OW 3853   1.636   5.044   1.755 -0.3611  0.7545  0.4019
 1174SOL    HW1 3854   1.677   5.017   1.673 -1.9615 -1.1480  0.1704
 1174SOL    HW2 3855   1.705   5.039   1.820 -0.2363 -2.6174  0.0726
 1175SOL     OW 3856   1.764   4.716   4.126  0.0449  0.0696  0.6950
 1175SOL    HW1 3857   1.738   4.780   4.192  0.4115 -0.3418  1.2430
 1175SOL    HW2 3858   1.693   4.717   4.062 -0.1640  0.6972  0.9332
 1176SOL     OW 3859   2.818   5.265   0.641  0.8680  0.3953  0.2919
 1176SOL    HW1 3860   2.776   5.292   0.560  1.4831  1.1344  0.2143
 1176SOL    HW2 3861   2.798   5.172   0.648  0.2173  0.4789 -0.3424
 1177SOL     OW 3862   3.952   2.102   1.297 -0.1752 -0.1488 -0.0466
 1177SOL    HW1 3863   3.868   2.142   1.273  0.1855 -0.1827 -1.4433
 1177SOL    HW2 3864   3.957   2.023   1.243  1.3654  0.5812 -1.0037
 1178SOL     OW 3865   4.198   0.636   2.773  0.3192  0.6998 -0.0598
 1178SOL    HW1 3866   4.257   0.688   2.719 -0.9990 -1.3194 -3.6306
 1178SOL    HW2 3867   4.252   0.564   2.805  0.1267 -0.5529 -2.4350
 1179SOL     OW 3868   1.808   2.095   1.792  0.0438  0.4201  0.1707
 1179SOL    HW1 3869   1.896   2.112   1.826 -0.0926  0.1664  0.6620
 1179SOL    HW2 3870   1.763   2.179   1.801  0.8810  1.1407 -2.1060
 1180SOL     OW 3871   3.692   1.874   3.862 -0.4137 -0.1522  0.0097
 1180SOL    HW1 3872   3.775   1.918   3.844  0.2108 -2.1043 -2.1688
 1180SOL    HW2 3873   3.627   1.925   3.815  0.0686 -0.5905 -1.1440
 1181SOL     OW 3874   3.495   1.424   3.881 -0.5240 -0.0773 -0.0514
 1181SOL    HW1 3875   3.523   1.510   3.914 -0.2452 -0.8043  1.6818
 1181SOL    HW2 3876   3.559   1.363   3.917 -0.9551 -1.0667 -0.9364
 1182SOL     OW 3877   3.721   0.865   1.873 -0.6099 -0.0408  0.3939
 1182SOL    HW1 3878   3.757   0.785   1.835 -0.6941  0.3399 -0.5000
 1182SOL    HW2 3879   3.766   0.875   1.957 -0.0394 -0.6003  0.1539
 1183SOL     OW 3880   0.276   5.530   3.372  0.4565 -0.5582  0.3370
 1183SOL    HW1 3881   0.271   5.496   3.461  2.1066  1.7203  1.3678
 1183SOL    HW2 3882   0.327   5.465   3.324  0.5024 -1.2797  1.3361
 1184SOL     OW 3883   5.518   2.351   2.573 -0.0165  0.0269 -0.4986
 1184SOL    HW1 3884   5.593   2.307   2.531 -0.4321 -0.7828 -0.4119
 1184SOL    HW2 3885   5.549   2.439   2.592  0.9134 -0.2960 -0.4875
 1185SOL     OW 3886   0.932   2.123   2.766  0.6007  0.4083  0.2653
 1185SOL    HW1 3887   1.013   2.073   2.772  0.7409  0.9494  3.7276
 1185SOL    HW2 3888   0.864   2.056   2.754  1.2249 -0.2630  0.3962
 1186SOL     OW 3889   0.874   3.704   2.042  0.2172  0.4154  0.6297
 1186SOL    HW1 3890   0.908   3.762   2.109  1.1344  0.5667  0.0382
 1186SOL    HW2 3891   0.830   3.634   2.091 -0.8631  1.5637  1.3444
 1187SOL     OW 3892   1.118   4.658   1.224  0.5159 -0.1569  0.3920
 1187SOL    HW1 3893   1.029   4.692   1.216  0.0543 -1.2891  0.6140
 1187SOL    HW2 3894   1.158   4.676   1.139  1.2544  3.6221  1.4688
 1188SOL     OW 3895   3.005   1.930   4.822  0.4408 -0.0232  0.5974
 1188SOL    HW1 3896   2.990   1.836   4.824 -2.3590  0.3508  0.0789
 1188SOL    HW2 3897   3.092   1.940   4.784  0.7061 -2.3963  0.5120
 1189SOL     OW 3898   0.772   3.900   0.226 -0.2365 -0.3187 -0.2199
 1189SOL    HW1 3899   0.713   3.971   0.255 -0.8237 -0.6701 -0.5403
 1189SOL    HW2 3900   0.850   3.911   0.279 -0.0240  1.0404 -0.7830
 1190SOL     OW 3901   0.884   1.005   4.932  0.3475  0.7606 -0.2786
 1190SOL    HW1 3902   0.855   1.045   5.014  1.6246 -1.1002  1.1169
 1190SOL    HW2 3903   0.972   0.972   4.951  0.4981 -0.0858 -2.2918
 1191SOL     OW 3904   3.027   5.503   4.736 -0.4108 -0.0434  1.1126
 1191SOL    HW1 3905   3.055   5.412   4.735 -0.7287 -0.1374  0.7748
 1191SOL    HW2 3906   2.969   5.512   4.660  1.1048  0.9169  0.0323
 1192SOL     OW 3907   1.262   4.184   1.470  0.4200  0.1984 -0.3112
 1192SOL    HW1 3908   1.208   4.231   1.407  1.7243  1.6817 -0.3491
 1192SOL    HW2 3909   1.310   4.120   1.418 -2.3658 -2.1846 -0.0778
 1193SOL     OW 3910   4.443   0.863   0.812 -0.1867 -0.3902 -0.0451
 1193SOL    HW1 3911   4.431   0.840   0.904 -1.5396 -2.8444 -0.7787
 1193SOL    HW2 3912   4.412   0.953   0.806  0.4579 -0.0072  2.0037
 1194SOL     OW 3913   2.693   0.785   1.956 -0.6029  0.4579 -0.0342
 1194SOL    HW1 3914   2.767   0.843   1.974 -1.6119  1.8209 -0.2385
 1194SOL    HW2 3915   2.722   0.734   1.880  0.5015  0.2763  0.4854
 1195SOL     OW 3916   2.826   0.862   1.067  0.1931  0.5292 -0.3284
 1195SOL    HW1 3917   2.893   0.796   1.049  0.9769  1.1413  0.3068
 1195SOL    HW2 3918   2.841   0.887   1.158 -0.8664  0.7246 -0.1949
 1196SOL     OW 3919   0.389   5.028   4.309  0.2807 -0.2282  0.1967
 1196SOL    HW1 3920   0.428   5.095   4.365 -1.4004  0.4127  0.6325
 1196SOL    HW2 3921   0.407   5.060   4.220  0.1123  0.4340  0.3928
 1197SOL     OW 3922   3.940   0.903   5.071 -0.3159 -0.0802  0.7201
 1197SOL    HW1 3923   3.854   0.861   5.068  0.3001 -1.4636  1.6230
 1197SOL    HW2 3924   3.968   0.906   4.979 -1.6623  1.1392  0.3300
 1198SOL     OW 3925   3.750   5.139   1.744 -0.0883  0.7454  0.1926
 1198SOL    HW1 3926   3.828   5.184   1.774  0.5702 -0.6171  0.6011
 1198SOL    HW2 3927   3.697   5.128   1.823  0.8301 -1.2505  0.5760
 1199SOL     OW 3928   0.465   2.769   0.587  0.1820  0.0225  0.0606
 1199SOL    HW1 3929   0.391   2.823   0.615  1.2048  1.0416  0.8476
 1199SOL    HW2 3930   0.453   2.686   0.633 -0.7871 -0.0145 -0.2623
 1200SOL     OW 3931   2.818   0.201   3.616  0.3718 -0.0439  0.0748
 1200SOL    HW1 3932   2.757   0.268   3.585  0.8247  0.8603  1.0899
 1200SOL    HW2 3933   2.809   0.203   3.712  0.3303 -1.5032  0.1157
 1201SOL     OW 3934   3.823   1.687   5.271 -0.1399  0.4829  0.1303
 1201SOL    HW1 3935   3.904   1.695   5.322 -0.8958  0.9968  1.2906
 1201SOL    HW2 3936   3.828   1.601   5.231  0.9002  0.4400  0.3344
 1202SOL     OW 3937   2.404   2.819   4.838  0.1943  0.6734  0.0104
 1202SOL    HW1 3938   2.372   2.735   4.870 -0.0711  0.8786  0.2910
 1202SOL    HW2 3939   2.326   2.873   4.829  0.4826  1.2910  1.0485
 1203SOL     OW 3940   3.532   2.267   1.578  0.0181  0.0143  0.0266
 1203SOL    HW1 3941   3.528   2.198   1.513  0.0810  0.4323 -0.4206
 1203SOL    HW2 3942   3.455   2.253   1.633 -1.2690  0.9880 -1.4723
 1204SOL     OW 3943   0.421   4.891   3.462 -0.1683 -0.2070 -0.4530
 1204SOL    HW1 3944   0.431   4.796   3.454  0.2930 -0.1678 -0.3631
 1204SOL    HW2 3945   0.467   4.926   3.386 -0.1312 -0.0457 -0.3563
 1205SOL     OW 3946   1.292   2.903   4.114  0.0357 -0.4707  0.5053
 1205SOL    HW1 3947   1.316   2.891   4.205 -0.2108 -1.4088  0.4451
 1205SOL    HW2 3948   1.201   2.933   4.116  1.2025  3.2722  0.7428
 1206SOL     OW 3949   2.404   1.761   5.444 -0.6721  0.7144  0.0998
 1206SOL    HW1 3950   2.456   1.759   5.364 -2.1188  0.3520 -0.8427
 1206SOL    HW2 3951   2.328   1.815   5.423 -1.5129 -0.1171  0.9408
 1207SOL     OW 3952   4.446   0.769   2.667 -0.0874 -0.0605 -0.4429
 1207SOL    HW1 3953   4.431   0.789   2.759  2.0818  0.2570 -0.1466
 1207SOL    HW2 3954   4.476   0.851   2.629 -0.4767 -0.3243 -1.3347
 1208SOL     OW 3955   5.408   1.962   0.288 -0.8100 -0.0206  0.0400
 1208SOL    HW1 3956   5.467   1.930   0.356 -2.0554  1.7817  2.0285
 1208SOL    HW2 3957   5.366   1.883   0.254  0.6132 -1.0387  0.6075
 1209SOL     OW 3958   1.933   2.006   0.279  0.2707  0.4181  0.3742
 1209SOL    HW1 3959   1.952   1.999   0.373  0.4859 -1.0892  0.2315
 1209SOL    HW2 3960   1.939   2.100   0.261  0.7635  0.6745  1.7563
 1210SOL     OW 3961   3.271   4.900   0.777  0.3678  0.5926  0.2643
 1210SOL    HW1 3962   3.342   4.928   0.719 -0.6833  0.5874 -1.0489
 1210SOL    HW2 3963   3.191   4.930   0.734 -0.3644  2.1981  2.6338
 1211SOL     OW 3964   0.639   3.954   4.008 -0.5898  0.3572  0.1167
 1211SOL    HW1 3965   0.654   3.939   3.915 -0.7831 -0.1183  0.1592
 1211SOL    HW2 3966   0.656   3.869   4.049  0.2997  0.7726  0.6143
 1212SOL     OW 3967   3.084   2.885   5.214  0.0158 -0.0615 -0.0032
 1212SOL    HW1 3968   3.041   2.800   5.222 -1.4553  0.7517  1.1457
 1212SOL    HW2 3969   3.105   2.894   5.121 -3.5973  0.0828 -0.8942
 1213SOL     OW 3970   3.626   2.175   3.296 -0.3890 -0.5644  0.6025
 1213SOL    HW1 3971   3.658   2.248   3.349 -0.4795 -0.6250  0.7387
 1213SOL    HW2 3972   3.532   2.191   3.288 -0.1299  0.3986 -0.9792
 1214SOL     OW 3973   3.291   2.272   2.401 -0.4975  0.0979 -0.2603
 1214SOL    HW1 3974   3.234   2.317   2.339 -0.4245 -1.7273 -1.7052
 1214SOL    HW2 3975   3.315   2.339   2.465 -1.5085  1.7342 -1.5556
 1215SOL     OW 3976   1.916   0.739   3.704 -0.1146 -0.2772  0.1574
 1215SOL    HW1 3977   1.870   0.820   3.727  0.7713  0.1529  0.4555
 1215SOL    HW2 3978   1.984   0.767   3.643  1.5402 -0.4454  1.8775
 1216SOL     OW 3979   4.338   0.469   0.053 -0.1297 -0.1111 -0.2729
 1216SOL    HW1 3980   4.330   0.429   0.140 -0.6787 -1.2969 -0.8642
 1216SOL    HW2 3981   4.340   0.395  -0.008  0.7690  0.6896 -1.2411
 1217SOL     OW 3982   3.442   3.669   0.027 -0.1382 -0.3500 -0.0532
 1217SOL    HW1 3983   3.435   3.722   0.106  3.4660 -1.2247  0.9718
 1217SOL    HW2 3984   3.382   3.596   0.041 -1.5642  0.9435  0.6455
 1218SOL     OW 3985   3.042   0.240   2.390 -0.0079  0.4333  0.1377
 1218SOL    HW1 3986   2.960   0.283   2.413 -1.5009 -0.8266 -2.5565
 1218SOL    HW2 3987   3.031   0.215   2.298  2.4775 -1.8433  0.3939
 1219SOL     OW 3988   4.123   0.794   3.655 -0.1570  0.3045  0.5347
 1219SOL    HW1 3989   4.179   0.836   3.590 -0.2503 -0.9422 -0.3622
 1219SOL    HW2 3990   4.100   0.710   3.617 -0.1287 -0.4958  2.2292
 1220SOL     OW 3991   4.899   5.439   0.744 -0.5115  0.1329 -0.4651
 1220SOL    HW1 3992   4.881   5.531   0.765 -2.0935  0.0955 -1.5323
 1220SOL    HW2 3993   4.816   5.407   0.708  0.2897 -1.4844 -0.8819
 1221SOL     OW 3994   4.847   0.794   5.334  0.1459 -0.5556  0.1377
 1221SOL    HW1 3995   4.855   0.790   5.430 -2.1778 -0.0556  0.3641
 1221SOL    HW2 3996   4.848   0.887   5.314  1.7722 -0.6725 -0.4715
 1222SOL     OW 3997   2.031   2.174   5.058  0.3333 -0.2047  0.3706
 1222SOL    HW1 3998   2.020   2.106   5.124 -1.0622 -0.4754 -0.1220
 1222SOL    HW2 3999   1.944   2.183   5.018  1.1093  0.1120 -1.2680
 1223SOL     OW 4000   3.870   1.470   4.714  0.8122 -0.2972 -0.0644
 1223SOL    HW1 4001   3.854   1.448   4.622 -0.0642 -1.2638  0.3183
 1223SOL    HW2 4002   3.784   1.488   4.751  0.9477 -1.8296  1.0523
 1224SOL     OW 4003   4.434   1.657   5.193  0.0356  0.0084 -0.0983
 1224SOL    HW1 4004   4.401   1.567   5.190 -1.1788  0.4219  0.5759
 1224SOL    HW2 4005   4.485   1.662   5.274 -0.4461  0.1175  0.1968
 1225SOL     OW 4006   0.096   2.654   1.678 -0.1214 -0.1714  0.4600
 1225SOL    HW1 4007   0.034   2.650   1.751 -1.6770 -0.9920 -0.8642
 1225SOL    HW2 4008   0.182   2.660   1.719 -1.0546  0.5244  2.3356
 1226SOL     OW 4009   5.370   4.369   0.886  0.2461 -0.5351 -0.0273
 1226SOL    HW1 4010   5.398   4.381   0.977 -1.3319 -0.7409  0.5057
 1226SOL    HW2 4011   5.323   4.285   0.887 -0.5901 -0.0800 -0.8300
 1227SOL     OW 4012   0.178   4.014   0.311  0.1832 -0.3785  0.2815
 1227SOL    HW1 4013   0.146   3.959   0.239  0.7150 -0.3582  0.0311
 1227SOL    HW2 4014   0.203   3.951   0.379  0.4350 -0.4295  0.1410
 1228SOL     OW 4015   2.815   2.167   4.090  0.4209  0.0599 -0.3569
 1228SOL    HW1 4016   2.743   2.188   4.030  0.0442 -0.4396 -0.0870
 1228SOL    HW2 4017   2.781   2.096   4.144  1.1538 -0.2357 -0.2825
 1229SOL     OW 4018   0.506   3.854   2.575 -0.5342  0.0093 -0.2247
 1229SOL    HW1 4019   0.491   3.936   2.529  0.1820 -0.0619 -0.5978
 1229SOL    HW2 4020   0.462   3.865   2.659 -1.0658  0.4903 -0.5650
 1230SOL     OW 4021   4.025   2.396   4.887 -0.1323  0.2046 -0.2483
 1230SOL    HW1 4022   4.079   2.340   4.943  1.4826  0.4474 -1.5335
 1230SOL    HW2 4023   3.957   2.337   4.853  1.0627 -0.7886 -0.9477
 1231SOL     OW 4024   1.581   4.324   3.804  0.0877 -0.0977 -0.0867
 1231SOL    HW1 4025   1.672   4.322   3.832  0.7842  0.8137 -2.1563
 1231SOL    HW2 4026   1.585   4.314   3.708 -2.0851 -1.8613 -0.0379
 1232SOL     OW 4027   3.200   0.133   1.717  0.0243  0.4583  0.3035
 1232SOL    HW1 4028   3.131   0.067   1.728  0.4293 -0.0500 -0.1671
 1232SOL    HW2 4029   3.188   0.165   1.628 -1.2414  2.2572  1.0984
 1233SOL     OW 4030   0.895   2.346   3.489  0.2013 -0.1211 -0.3921
 1233SOL    HW1 4031   0.811   2.312   3.519 -0.2784 -0.0937 -1.6727
 1233SOL    HW2 4032   0.877   2.436   3.461  0.4059 -0.4716 -1.7051
 1234SOL     OW 4033   2.243   4.674   3.923  0.0480 -0.1201 -0.0496
 1234SOL    HW1 4034   2.280   4.732   3.856  1.8718  0.5351  1.4919
 1234SOL    HW2 4035   2.232   4.590   3.879  1.2996  0.2817 -1.1484
 1235SOL     OW 4036   1.090   3.566   2.296 -0.1074  0.1305  0.5759
 1235SOL    HW1 4037   1.171   3.537   2.337 -0.5262  0.5549  1.6971
 1235SOL    HW2 4038   1.067   3.494   2.237  1.7066  0.5148 -0.6482
 1236SOL     OW 4039   2.391   3.495   0.201 -0.2301 -0.3020 -0.1232
 1236SOL    HW1 4040   2.434   3.473   0.119  1.0618  0.2319  0.3872
 1236SOL    HW2 4041   2.310   3.539   0.176 -0.8776 -2.0351 -1.1125
 1237SOL     OW 4042   0.624   0.677   0.713 -0.5193  0.0236 -0.8785
 1237SOL    HW1 4043   0.697   0.724   0.675  0.1917 -1.1784 -1.0387
 1237SOL    HW2 4044   0.656   0.646   0.798 -0.7433 -0.7247 -1.0620
 1238SOL     OW 4045   1.058   3.827   5.513 -0.2160  0.1104 -0.2721
 1238SOL    HW1 4046   1.115   3.795   5.583 -0.6093 -1.1833 -0.5375
 1238SOL    HW2 4047   0.985   3.765   5.510 -0.4786  0.4592 -1.4580
 1239SOL     OW 4048   1.642   4.890   0.539  0.3632 -0.0048  0.5784
 1239SOL    HW1 4049   1.557   4.898   0.495  0.2635 -3.7446 -0.0504
 1239SOL    HW2 4050   1.626   4.831   0.612  2.0329  0.8474  1.6722
 1240SOL     OW 4051   5.420   4.369   5.326  0.0685  0.0744 -0.5343
 1240SOL    HW1 4052   5.481   4.440   5.346  0.6728 -0.0740 -1.8188
 1240SOL    HW2 4053   5.476   4.291   5.320 -0.3818 -0.2368 -0.6662
 1241SOL     OW 4054   3.246   0.042   2.441 -0.5384  0.1819  0.1550
 1241SOL    HW1 4055   3.206   0.000   2.517 -2.4072 -1.1686 -1.5287
 1241SOL    HW2 4056   3.180   0.104   2.410  0.1689  0.6409 -0.4501
 1242SOL     OW 4057   4.310   5.102   1.447 -0.4844  0.3091  0.1600
 1242SOL    HW1 4058   4.311   5.034   1.380 -0.4065 -0.0094  0.4846
 1242SOL    HW2 4059   4.403   5.124   1.459  0.0057 -3.1475  3.7230
 1243SOL     OW 4060   1.284   2.508   5.238  0.3355  0.4830 -0.4651
 1243SOL    HW1 4061   1.206   2.562   5.247  0.2600  0.5980 -1.8216
 1243SOL    HW2 4062   1.254   2.418   5.255 -0.5471  0.2407 -3.1219
 1244SOL     OW 4063   0.084   2.431   5.476  0.0873 -0.4030 -0.2454
 1244SOL    HW1 4064   0.137   2.447   5.398 -0.2854 -0.1472 -0.4495
 1244SOL    HW2 4065   0.039   2.514   5.491 -1.5729 -1.1242 -1.0812
 1245SOL     OW 4066   3.833   4.372   2.041 -0.3152  0.0496 -0.0397
 1245SOL    HW1 4067   3.801   4.461   2.052  0.0708  0.2678 -0.6688
 1245SOL    HW2 4068   3.802   4.325   2.118  0.7889  1.0868  1.0449
 1246SOL     OW 4069   1.189   4.867   5.395 -0.5992 -0.1096  0.0054
 1246SOL    HW1 4070   1.097   4.869   5.369 -0.9137  2.2635  1.1253
 1246SOL    HW2 4071   1.191   4.913   5.479  1.4631 -1.0944  0.5381
 1247SOL     OW 4072   0.372   1.505   2.212 -0.3230  0.4330 -0.4102
 1247SOL    HW1 4073   0.459   1.504   2.254  0.5918 -1.3373 -2.2377
 1247SOL    HW2 4074   0.386   1.459   2.129 -3.2168 -0.6717 -0.3319
 1248SOL     OW 4075   1.423   4.831   3.836 -0.1505  0.1585 -0.3630
 1248SOL    HW1 4076   1.505   4.876   3.813  0.5267 -0.1420  1.3868
 1248SOL    HW2 4077   1.449   4.740   3.847 -1.0287 -0.2090 -1.3457
 1249SOL     OW 4078   1.321   0.934   3.015 -0.2108 -0.0269 -0.3313
 1249SOL    HW1 4079   1.397   0.976   3.055 -0.2726  1.4499 -1.7008
 1249SOL    HW2 4080   1.248   0.957   3.073  0.4309 -1.8175  1.2265
 1250SOL     OW 4081   1.841   0.848   0.165  0.3228  0.2033 -0.3934
 1250SOL    HW1 4082   1.912   0.844   0.102  0.8215 -0.3134  0.1977
 1250SOL    HW2 4083   1.872   0.797   0.240 -0.5644  0.1846 -0.0318
 1251SOL     OW 4084   0.013   2.913   4.026  0.0193 -0.1143  0.2301
 1251SOL    HW1 4085   0.022   2.995   4.075  1.4123  0.0395 -0.2575
 1251SOL    HW2 4086   0.103   2.880   4.018 -0.3515 -0.8537 -1.0067
 1252SOL     OW 4087   0.137   2.991   4.847  0.3532  0.0451  0.1701
 1252SOL    HW1 4088   0.218   2.986   4.796  1.3098 -0.3476  1.6863
 1252SOL    HW2 4089   0.098   3.075   4.823  0.4999 -0.3976 -1.6154
 1253SOL     OW 4090   0.752   1.017   2.407 -0.1473  0.2135  0.4505
 1253SOL    HW1 4091   0.706   1.063   2.477  0.2902 -0.2073  1.0124
 1253SOL    HW2 4092   0.682   0.982   2.351 -0.5016  0.0436  0.9995
 1254SOL     OW 4093   3.814   3.954   1.929 -0.5160  0.1952 -0.3618
 1254SOL    HW1 4094   3.908   3.945   1.912 -0.5758  0.7175 -0.9993
 1254SOL    HW2 4095   3.779   3.865   1.919 -0.1776  0.0976 -0.7100
 1255SOL     OW 4096   1.883   4.262   4.585 -0.0897 -0.2881  0.4804
 1255SOL    HW1 4097   1.969   4.300   4.600 -0.2437  1.2665 -2.2063
 1255SOL    HW2 4098   1.825   4.338   4.572 -1.7570 -1.3117  1.7040
 1256SOL     OW 4099   0.074   2.917   3.526  0.3738  0.4404 -0.4835
 1256SOL    HW1 4100   0.006   2.983   3.544 -0.6760 -0.9508  0.7991
 1256SOL    HW2 4101   0.152   2.951   3.569 -0.8607 -0.4281  2.5997
 1257SOL     OW 4102   1.626   1.534   1.834  0.4576  0.1844  0.5003
 1257SOL    HW1 4103   1.628   1.554   1.740  2.5377  0.9835  0.6889
 1257SOL    HW2 4104   1.637   1.619   1.877 -2.1308  0.0404  1.5234
 1258SOL     OW 4105   1.257   4.435   3.683  0.7970 -0.7332 -0.6320
 1258SOL    HW1 4106   1.339   4.484   3.688 -0.4042  1.2931  0.0808
 1258SOL    HW2 4107   1.220   4.460   3.599  0.0094 -0.1320 -0.1112
 1259SOL     OW 4108   2.889   3.148   1.760 -0.0014  0.1425 -0.5528
 1259SOL    HW1 4109   2.880   3.179   1.850  3.1012  1.7873 -0.7088
 1259SOL    HW2 4110   2.882   3.053   1.766  1.2255  0.1574  1.6027
 1260SOL     OW 4111   4.310   2.899   1.093 -0.0716  0.6921 -0.5097
 1260SOL    HW1 4112   4.350   2.976   1.135 -0.2680  0.1539  0.6865
 1260SOL    HW2 4113   4.237   2.877   1.150  1.0145 -1.4358  0.0912
 1261SOL     OW 4114   1.576   0.207   2.055  0.3400  0.1138  0.2451
 1261SOL    HW1 4115   1.670   0.219   2.067  1.0690 -2.9183 -1.6794
 1261SOL    HW2 4116   1.568   0.116   2.025 -3.0043  1.0015 -1.7421
 1262SOL     OW 4117   3.241   5.089   4.412  0.6045  0.1333  0.3596
 1262SOL    HW1 4118   3.332   5.118   4.408  0.5626  0.0043 -2.9780
 1262SOL    HW2 4119   3.244   4.998   4.383 -0.5976  0.1684  0.0894
 1263SOL     OW 4120   0.638   3.183   2.560  0.3549 -0.5546  0.2308
 1263SOL    HW1 4121   0.602   3.271   2.550 -0.3740 -1.2168 -4.0717
 1263SOL    HW2 4122   0.568   3.125   2.530  1.5932 -2.4594  0.9354
 1264SOL     OW 4123   0.368   3.986   2.045 -0.1808 -0.4773 -0.1008
 1264SOL    HW1 4124   0.438   4.027   2.096  0.0611 -0.0280 -0.7896
 1264SOL    HW2 4125   0.375   4.025   1.958 -0.7523 -1.0522 -0.4137
 1265SOL     OW 4126   2.305   4.873   5.274 -0.2517  0.1640  0.0715
 1265SOL    HW1 4127   2.396   4.894   5.295  0.7516 -3.3071 -0.6078
 1265SOL    HW2 4128   2.280   4.806   5.337 -2.0616  0.4142 -0.3429
 1266SOL     OW 4129   4.928   5.028   2.661  0.3615 -0.0545 -0.3356
 1266SOL    HW1 4130   5.022   5.033   2.647  0.1008  0.5428 -1.9928
 1266SOL    HW2 4131   4.890   5.076   2.587 -1.2531 -0.7415  0.0279
 1267SOL     OW 4132   4.525   1.025   2.600 -0.2354 -0.6957 -0.5450
 1267SOL    HW1 4133   4.560   1.050   2.515  2.1119 -0.1883  0.5382
 1267SOL    HW2 4134   4.575   1.077   2.663 -0.8462 -2.2129  1.2410
 1268SOL     OW 4135   5.269   2.465   5.484  0.2917 -0.7604 -0.1383
 1268SOL    HW1 4136   5.288   2.406   5.411 -0.5474 -0.9614 -0.2092
 1268SOL    HW2 4137   5.216   2.412   5.544  1.5273 -0.8007  0.9416
 1269SOL     OW 4138   3.135   3.161   0.624  0.0891 -0.2970 -0.4623
 1269SOL    HW1 4139   3.043   3.135   0.618  0.0681 -0.7067  1.3372
 1269SOL    HW2 4140   3.134   3.240   0.678  0.8516 -0.7487  0.2249
 1270SOL     OW 4141   0.182   3.495   5.235  0.3307 -0.0208  0.0415
 1270SOL    HW1 4142   0.201   3.402   5.228  2.0150  0.2859  0.3712
 1270SOL    HW2 4143   0.120   3.502   5.307 -0.3814 -0.9501 -0.4695
 1271SOL     OW 4144   0.433   1.211   3.570  0.4002  0.1711 -0.0738
 1271SOL    HW1 4145   0.453   1.149   3.641  0.8018 -1.3352 -1.4653
 1271SOL    HW2 4146   0.341   1.234   3.585  0.7054  0.5132  1.4036
 1272SOL     OW 4147   5.207   3.120   2.685  0.4055 -0.0242  0.3444
 1272SOL    HW1 4148   5.256   3.050   2.643  2.0730 -0.1179  2.3299
 1272SOL    HW2 4149   5.265   3.197   2.679  0.0382  0.3191  1.1340
 1273SOL     OW 4150   3.320   2.554   0.430  0.1920 -0.4684 -0.0504
 1273SOL    HW1 4151   3.370   2.487   0.476  1.2926  0.8854  0.7411
 1273SOL    HW2 4152   3.229   2.524   0.435  0.1242  0.1472  3.9224
 1274SOL     OW 4153   4.968   1.208   1.538  0.1938  0.0740  0.1137
 1274SOL    HW1 4154   4.912   1.191   1.463 -0.2108  0.2591  0.3727
 1274SOL    HW2 4155   4.940   1.293   1.571 -0.5858 -0.6311  1.3243
 1275SOL     OW 4156   2.956   2.220   1.520  0.3254  0.1398 -0.2341
 1275SOL    HW1 4157   2.912   2.173   1.449 -1.5429 -0.5189  1.3253
 1275SOL    HW2 4158   3.011   2.154   1.562 -1.0924 -0.2783  0.9754
 1276SOL     OW 4159   0.150   0.554   4.247 -0.0446  0.5294  0.0295
 1276SOL    HW1 4160   0.128   0.563   4.340  0.9860  1.7980  0.1555
 1276SOL    HW2 4161   0.218   0.486   4.245 -1.4174 -0.8775 -0.0114
 1277SOL     OW 4162   2.753   3.876   0.302  0.4641  0.6449 -0.1267
 1277SOL    HW1 4163   2.820   3.920   0.353  0.5016  0.6779 -0.2043
 1277SOL    HW2 4164   2.699   3.947   0.266 -0.5899  0.5700  1.2624
 1278SOL     OW 4165   5.313   5.120   4.912 -0.1785  0.5125 -0.5533
 1278SOL    HW1 4166   5.221   5.141   4.896 -0.4355  0.0305  0.2741
 1278SOL    HW2 4167   5.360   5.199   4.887 -0.6763  0.2445 -2.4532
 1279SOL     OW 4168   5.216   1.998   3.803 -0.1242 -0.2854  0.2079
 1279SOL    HW1 4169   5.174   1.959   3.880  2.1187  0.8606  2.0815
 1279SOL    HW2 4170   5.300   1.951   3.795  1.0485  1.7230  0.3792
 1280SOL     OW 4171   4.923   2.965   1.608  0.2636  0.0155 -0.2597
 1280SOL    HW1 4172   4.941   2.899   1.676 -0.5494  0.6256  0.5516
 1280SOL    HW2 4173   5.007   3.007   1.593  0.7651 -1.1060 -0.6816
 1281SOL     OW 4174   4.615   2.644   2.278  0.0836  0.7775  0.5057
 1281SOL    HW1 4175   4.559   2.568   2.298  0.1559  0.6811  0.3432
 1281SOL    HW2 4176   4.703   2.616   2.302  0.3801  0.1683 -1.2383
 1282SOL     OW 4177   4.600   2.243   2.934 -0.2468 -0.4818 -0.3867
 1282SOL    HW1 4178   4.617   2.301   2.859  0.3822  0.1879  0.2740
 1282SOL    HW2 4179   4.526   2.283   2.979 -0.2219 -0.5482 -0.2868
 1283SOL     OW 4180   3.724   4.677   4.803 -0.1963 -0.4488  0.2582
 1283SOL    HW1 4181   3.727   4.706   4.894  0.7127 -0.3242  0.1894
 1283SOL    HW2 4182   3.641   4.711   4.770 -0.3334 -0.1379  0.9200
 1284SOL     OW 4183   1.958   0.060   0.525  0.1286 -0.0589 -0.6691
 1284SOL    HW1 4184   1.979   0.012   0.445  0.2998  1.5383 -1.6232
 1284SOL    HW2 4185   2.038   0.107   0.547  0.7312 -2.0945  1.6534
 1285SOL     OW 4186   2.060   1.341   3.631 -0.4659  0.0595 -0.1352
 1285SOL    HW1 4187   2.135   1.317   3.577 -0.7038  1.1593 -0.9618
 1285SOL    HW2 4188   2.096   1.399   3.698  0.0646 -2.3007  1.7149
 1286SOL     OW 4189   0.947   5.029   5.329  0.5316  0.2616 -0.4869
 1286SOL    HW1 4190   1.001   5.105   5.352  0.2387  0.4057 -0.2687
 1286SOL    HW2 4191   0.881   5.063   5.269  0.5740  0.1196 -0.6164
 1287SOL     OW 4192   4.500   4.813   0.646  0.2618 -0.3310  0.7735
 1287SOL    HW1 4193   4.459   4.769   0.720 -1.0592 -1.6336 -0.6904
 1287SOL    HW2 4194   4.588   4.774   0.640 -0.2504 -1.4700  0.6021
 1288SOL     OW 4195   4.727   1.523   2.275 -0.3558  0.1590 -0.2173
 1288SOL    HW1 4196   4.684   1.536   2.191  1.0995 -0.7618 -1.1326
 1288SOL    HW2 4197   4.820   1.537   2.257  0.2979 -2.7800  0.5951
 1289SOL     OW 4198   0.527   5.034   4.788 -0.1568 -0.4802  0.2592
 1289SOL    HW1 4199   0.594   4.997   4.845 -0.1244 -1.3685 -0.3407
 1289SOL    HW2 4200   0.462   4.965   4.778  0.2440 -0.6565 -1.4211
 1290SOL     OW 4201   4.745   4.510   2.161 -0.7568 -0.3511 -0.2635
 1290SOL    HW1 4202   4.757   4.586   2.219 -0.8337 -0.9667  0.5640
 1290SOL    HW2 4203   4.769   4.435   2.215 -0.5616 -0.9105 -1.1243
 1291SOL     OW 4204   4.932   1.863   2.128  0.2959 -0.3739 -0.4451
 1291SOL    HW1 4205   5.020   1.827   2.122 -0.4834 -2.6885  1.3290
 1291SOL    HW2 4206   4.905   1.846   2.218 -2.1952 -0.2502 -1.1266
 1292SOL     OW 4207   1.450   1.733   2.893 -0.4481  0.2824  0.0654
 1292SOL    HW1 4208   1.454   1.638   2.892  0.4566  0.2749 -3.7008
 1292SOL    HW2 4209   1.378   1.755   2.834  0.2576  1.9251 -0.2304
 1293SOL     OW 4210   2.860   3.239   0.080 -0.3503  0.5925 -0.4620
 1293SOL    HW1 4211   2.915   3.301   0.031 -1.3621  0.7852 -1.3699
 1293SOL    HW2 4212   2.791   3.214   0.018 -0.7813 -0.3228  0.3811
 1294SOL     OW 4213   3.389   4.986   5.548 -0.2737  0.1527 -0.3590
 1294SOL    HW1 4214   3.329   5.060   5.559  1.4793  1.4589  0.6908
 1294SOL    HW2 4215   3.445   4.989   5.625  0.7334 -1.4315 -1.0088
 1295SOL     OW 4216   2.656   4.860   0.107 -0.6147 -0.1920  0.5052
 1295SOL    HW1 4217   2.617   4.812   0.180 -0.9193 -0.2654  0.2934
 1295SOL    HW2 4218   2.735   4.810   0.086 -0.3993 -0.0321  0.9439
 1296SOL     OW 4219   0.824   2.099   4.838 -0.2404  0.0874 -0.5229
 1296SOL    HW1 4220   0.879   2.074   4.763  0.2584 -1.3026  0.2905
 1296SOL    HW2 4221   0.876   2.076   4.915  0.0512  3.2582  0.2914
 1297SOL     OW 4222   0.836   1.552   3.792  0.2326  0.5310  0.1837
 1297SOL    HW1 4223   0.765   1.600   3.835  0.3060  0.9731 -0.1878
 1297SOL    HW2 4224   0.841   1.470   3.840 -0.6532  0.4213  0.1034
 1298SOL     OW 4225   1.200   1.908   0.229  0.0266  0.5540  0.0500
 1298SOL    HW1 4226   1.150   1.949   0.159 -0.5522  3.4775  2.0531
 1298SOL    HW2 4227   1.291   1.930   0.210  0.1578 -1.0289 -1.2374
 1299SOL     OW 4228   3.721   2.391   0.955  0.4994 -0.3458 -0.0598
 1299SOL    HW1 4229   3.787   2.359   0.893  1.1910 -2.4798  1.7179
 1299SOL    HW2 4230   3.651   2.326   0.953 -0.7730  1.0142 -0.6399
 1300SOL     OW 4231   2.809   3.398   1.459 -0.1036  0.1393  0.0414
 1300SOL    HW1 4232   2.725   3.366   1.426 -0.6337  0.4037  1.1267
 1300SOL    HW2 4233   2.875   3.345   1.413 -0.8759 -0.5526 -0.2780
 1301SOL     OW 4234   0.655   5.489   0.269  0.2896  0.0471  0.1256
 1301SOL    HW1 4235   0.615   5.410   0.306  1.4026 -0.1119  0.9857
 1301SOL    HW2 4236   0.690   5.461   0.184 -1.4331  0.1952 -0.6627
 1302SOL     OW 4237   4.250   5.186   2.633 -0.1064  1.1787 -0.5206
 1302SOL    HW1 4238   4.258   5.272   2.675  1.6808  1.2812 -1.0417
 1302SOL    HW2 4239   4.313   5.131   2.680  0.6873  0.8522 -1.9579
 1303SOL     OW 4240   1.043   3.881   1.878 -0.1194  0.8889  0.0582
 1303SOL    HW1 4241   0.965   3.829   1.896 -1.6493  2.6544 -1.1980
 1303SOL    HW2 4242   1.082   3.839   1.801 -1.0521  1.2593 -0.6308
 1304SOL     OW 4243   1.434   2.034   0.122 -0.0286 -0.2280 -0.2015
 1304SOL    HW1 4244   1.444   2.122   0.158 -0.3362 -0.6018  0.8076
 1304SOL    HW2 4245   1.487   1.978   0.180 -0.1417 -0.7611 -0.6110
 1305SOL     OW 4246   3.751   5.321   4.281  0.1657 -0.0566 -0.2594
 1305SOL    HW1 4247   3.801   5.317   4.363  0.5255  0.5030 -0.4489
 1305SOL    HW2 4248   3.724   5.231   4.265  0.8814 -0.3162 -0.0153
 1306SOL     OW 4249   2.682   4.111   2.784 -0.0323 -0.0290 -0.2152
 1306SOL    HW1 4250   2.761   4.163   2.767 -1.5785  3.1733  1.7804
 1306SOL    HW2 4251   2.637   4.107   2.699  1.4039 -0.3923 -0.9717
 1307SOL     OW 4252   0.032   4.331   2.935  0.0724  0.7906  0.2695
 1307SOL    HW1 4253  -0.004   4.362   3.018 -1.1345  0.1964 -0.0193
 1307SOL    HW2 4254   0.125   4.353   2.939 -0.2571  2.0403  1.1808
 1308SOL     OW 4255   2.562   0.775   1.609 -0.0509  0.4194  0.3968
 1308SOL    HW1 4256   2.478   0.740   1.637 -0.1677  1.2072  1.0488
 1308SOL    HW2 4257   2.602   0.705   1.556 -1.8470  0.6622 -1.3404
 1309SOL     OW 4258   0.310   4.193   0.477 -0.1863 -0.0001  0.2336
 1309SOL    HW1 4259   0.278   4.133   0.410  0.0158  1.2439 -0.9761
 1309SOL    HW2 4260   0.371   4.251   0.432 -0.1809  0.9681  1.4412
 1310SOL     OW 4261   3.568   2.186   1.977  0.9067 -0.0477 -0.3095
 1310SOL    HW1 4262   3.589   2.158   1.888  0.2277 -1.3600 -0.0677
 1310SOL    HW2 4263   3.651   2.220   2.012  1.7834 -1.8690 -0.5783
 1311SOL     OW 4264   4.951   3.886   0.705 -0.6331 -0.5573 -0.0290
 1311SOL    HW1 4265   4.902   3.809   0.734 -1.2040 -0.4203 -0.6194
 1311SOL    HW2 4266   4.949   3.946   0.780  0.4971 -1.4351  0.7182
 1312SOL     OW 4267   2.222   4.761   2.214  0.0402 -0.2501 -0.2293
 1312SOL    HW1 4268   2.169   4.802   2.146  0.0099  0.4460  0.2110
 1312SOL    HW2 4269   2.231   4.669   2.186  0.5660  0.1763 -1.4934
 1313SOL     OW 4270   0.947   2.734   2.596  0.2594  0.2250  0.4603
 1313SOL    HW1 4271   0.959   2.720   2.690 -0.5714  2.1885  0.8869
 1313SOL    HW2 4272   0.903   2.819   2.590 -0.8074 -0.4492 -1.6536
 1314SOL     OW 4273   4.876   4.709   2.394 -0.2654  0.2302  0.3830
 1314SOL    HW1 4274   4.920   4.786   2.429  1.1453  0.0717 -0.9921
 1314SOL    HW2 4275   4.929   4.683   2.319 -1.1954 -1.5788  0.3215
 1315SOL     OW 4276   0.270   0.551   2.316  0.4802  0.7271 -0.1102
 1315SOL    HW1 4277   0.306   0.535   2.230 -3.3863 -1.3098 -1.4950
 1315SOL    HW2 4278   0.234   0.640   2.311  0.0304  0.5153 -0.7215
 1316SOL     OW 4279   5.076   0.019   1.467  0.0178 -0.3011  0.4279
 1316SOL    HW1 4280   4.992  -0.019   1.440  0.0055 -0.2700  0.4217
 1316SOL    HW2 4281   5.142  -0.031   1.419 -0.0623  0.5406 -0.5760
 1317SOL     OW 4282   1.854   2.640   0.096  0.3839 -0.4360 -0.1216
 1317SOL    HW1 4283   1.922   2.628   0.163  0.0533 -0.4505  0.2128
 1317SOL    HW2 4284   1.787   2.575   0.118  0.6074 -0.9252 -0.8935
 1318SOL     OW 4285   1.145   4.914   5.074 -0.6158 -0.3524  0.1631
 1318SOL    HW1 4286   1.150   4.901   5.168 -2.8334 -0.8274  0.2471
 1318SOL    HW2 4287   1.108   5.001   5.064  0.7859  0.2015 -0.2940
 1319SOL     OW 4288   3.123   0.304   1.095  0.5920 -0.1807  0.1951
 1319SOL    HW1 4289   3.111   0.253   1.015 -0.1643  0.4828 -0.1219
 1319SOL    HW2 4290   3.042   0.354   1.104  1.1007  0.5483  0.8026
 1320SOL     OW 4291   0.001   4.176   3.401  0.3629 -0.2098 -0.1447
 1320SOL    HW1 4292   0.016   4.082   3.409 -2.3163 -0.4705  3.0593
 1320SOL    HW2 4293   0.087   4.213   3.382  1.3514 -3.3247 -2.0583
 1321SOL     OW 4294   1.226   0.247   3.459  0.2918 -0.2434  0.1973
 1321SOL    HW1 4295   1.142   0.290   3.469  1.0672  1.6751 -1.3218
 1321SOL    HW2 4296   1.208   0.169   3.408 -0.6206 -0.0803  0.2736
 1322SOL     OW 4297   2.942   4.998   3.976  0.0867  0.0654 -0.2032
 1322SOL    HW1 4298   3.026   5.007   3.932 -0.6574  3.1585 -1.0872
 1322SOL    HW2 4299   2.938   5.071   4.038 -2.2039  0.3854 -0.6654
 1323SOL     OW 4300   3.785   4.001   5.499 -0.0929  0.1199  0.0298
 1323SOL    HW1 4301   3.781   3.911   5.467  1.5418  0.5547 -1.5050
 1323SOL    HW2 4302   3.769   4.054   5.421 -1.4746  1.1645  1.0102
 1324SOL     OW 4303   1.954   3.303   0.826  0.2098 -0.2264 -0.4525
 1324SOL    HW1 4304   1.945   3.367   0.755  0.4713  3.1302  2.4178
 1324SOL    HW2 4305   1.865   3.289   0.857  0.2708 -0.3700 -0.3440
 1325SOL     OW 4306   3.927   4.896   1.828  0.0781 -0.1405  0.4107
 1325SOL    HW1 4307   3.943   4.989   1.815 -1.0310 -0.2290 -1.7548
 1325SOL    HW2 4308   3.847   4.892   1.881 -1.5073  0.1478 -1.8888
 1326SOL     OW 4309   4.955   1.773   4.704 -0.3821 -0.2073  0.0003
 1326SOL    HW1 4310   4.860   1.776   4.706 -0.4330  0.5435 -2.4649
 1326SOL    HW2 4311   4.976   1.723   4.626  1.2703 -0.0700  0.3345
 1327SOL     OW 4312   0.986   0.384   3.500  0.0709  0.3885 -0.5367
 1327SOL    HW1 4313   0.966   0.384   3.593 -0.0102  0.7597 -0.5532
 1327SOL    HW2 4314   0.901   0.383   3.456  0.0902  0.9786 -0.6031
 1328SOL     OW 4315   4.246   0.649   5.104  0.0671  1.0423  0.4506
 1328SOL    HW1 4316   4.235   0.693   5.188 -1.1756  2.5548 -0.4643
 1328SOL    HW2 4317   4.157   0.626   5.078  0.5316 -0.2127 -0.0345
 1329SOL     OW 4318   5.476   3.025   0.476 -0.3048 -0.0940  0.3731
 1329SOL    HW1 4319   5.457   2.932   0.460 -0.8048  0.1335 -0.3515
 1329SOL    HW2 4320   5.451   3.039   0.567  1.4486 -1.1074  1.0508
 1330SOL     OW 4321   5.546   1.824   2.824 -0.3808 -0.1929  0.2577
 1330SOL    HW1 4322   5.527   1.912   2.794 -1.2810 -0.4744  0.0096
 1330SOL    HW2 4323   5.494   1.814   2.904 -1.3223 -0.9669 -0.4397
 1331SOL     OW 4324   4.300   2.051   1.305  0.1840 -0.5644 -0.0896
 1331SOL    HW1 4325   4.392   2.071   1.291 -0.1553  2.3538  1.5568
 1331SOL    HW2 4326   4.254   2.101   1.237 -0.2209 -1.9266 -0.8438
 1332SOL     OW 4327   1.157   4.305   1.255  0.0919 -0.5025  0.1343
 1332SOL    HW1 4328   1.149   4.395   1.222 -0.6234 -0.6100  0.0102
 1332SOL    HW2 4329   1.067   4.274   1.262  0.2750 -0.7017  1.6081
 1333SOL     OW 4330   5.103   4.150   3.513  0.1625 -0.1479  0.6344
 1333SOL    HW1 4331   5.168   4.080   3.501 -0.0034  0.0046 -1.2742
 1333SOL    HW2 4332   5.155   4.225   3.544  0.7222 -0.3770  0.2651
 1334SOL     OW 4333   3.011   1.641   4.815  0.0114  0.3057  0.2650
 1334SOL    HW1 4334   3.045   1.562   4.773  0.6343  0.5468  0.3233
 1334SOL    HW2 4335   2.939   1.610   4.870  1.3801 -0.4482  1.6479
 1335SOL     OW 4336   3.818   4.220   0.101  0.6415  0.5597 -0.1040
 1335SOL    HW1 4337   3.799   4.146   0.043  0.2738 -0.6000  1.4439
 1335SOL    HW2 4338   3.895   4.192   0.151 -0.9773  0.1323  2.2587
 1336SOL     OW 4339   0.659   4.605   4.995 -0.0071  0.2598 -0.3732
 1336SOL    HW1 4340   0.722   4.534   4.985  1.1505  1.1693  0.2596
 1336SOL    HW2 4341   0.675   4.639   5.083 -0.1909  1.6128 -0.8395
 1337SOL     OW 4342   1.733   1.352   4.026 -0.5942 -0.0944 -0.1641
 1337SOL    HW1 4343   1.760   1.320   3.940 -2.0199  1.7097 -1.2944
 1337SOL    HW2 4344   1.645   1.316   4.038  0.2994 -1.8449  1.3524
 1338SOL     OW 4345   5.115   3.908   3.949  0.0718  0.3510  0.6712
 1338SOL    HW1 4346   5.085   3.898   3.859 -1.1347  1.7478  0.8978
 1338SOL    HW2 4347   5.191   3.966   3.942 -0.9878  1.7675  0.6942
 1339SOL     OW 4348   2.458   5.231   2.030  0.0828 -0.1250 -0.0370
 1339SOL    HW1 4349   2.389   5.169   2.005 -0.7883  1.0670 -0.6446
 1339SOL    HW2 4350   2.427   5.270   2.112  0.4030 -0.1514  0.0965
 1340SOL     OW 4351   4.668   3.544   2.886 -0.2923 -0.6023  0.5427
 1340SOL    HW1 4352   4.731   3.472   2.885  1.3483  0.8030 -1.5705
 1340SOL    HW2 4353   4.701   3.604   2.952 -0.9203 -1.1338  1.3487
 1341SOL     OW 4354   3.117   1.441   4.693  0.5506 -0.2566 -0.3121
 1341SOL    HW1 4355   3.094   1.420   4.603 -0.1246 -0.5159 -0.0809
 1341SOL    HW2 4356   3.165   1.364   4.725  1.3696  0.1043 -0.6533
 1342SOL     OW 4357   4.795   5.533   2.811 -0.0141 -0.7411 -0.3422
 1342SOL    HW1 4358   4.816   5.503   2.900 -3.4388 -1.8933  0.1455
 1342SOL    HW2 4359   4.761   5.622   2.824 -0.8579 -1.0477 -0.4627
 1343SOL     OW 4360   4.715   5.513   3.406  0.0401 -0.1615  0.0526
 1343SOL    HW1 4361   4.704   5.605   3.427  0.9457 -0.2252  0.8482
 1343SOL    HW2 4362   4.658   5.498   3.330 -0.0132  1.0735 -0.1564
 1344SOL     OW 4363   4.392   0.306   2.048  0.3940  0.4662  0.1438
 1344SOL    HW1 4364   4.460   0.315   2.115  1.2218  0.5902 -0.7008
 1344SOL    HW2 4365   4.332   0.378   2.065  0.8950  0.8245  0.4164
 1345SOL     OW 4366   3.651   5.483   2.417 -0.1036  0.3566 -0.0061
 1345SOL    HW1 4367   3.709   5.538   2.470 -0.7246  1.3900 -0.3649
 1345SOL    HW2 4368   3.696   5.400   2.409  0.7731  0.7544  0.7242
 1346SOL     OW 4369   1.132   0.786   2.849 -0.1235 -0.1212 -0.0245
 1346SOL    HW1 4370   1.179   0.869   2.837 -0.2489 -0.1960 -1.0717
 1346SOL    HW2 4371   1.116   0.781   2.944 -1.3579  1.7255 -0.1190
 1347SOL     OW 4372   1.806   0.359   4.689 -0.1741 -0.0759  0.0490
 1347SOL    HW1 4373   1.765   0.437   4.652 -1.0427 -1.6430 -2.4047
 1347SOL    HW2 4374   1.835   0.309   4.613  0.0321 -2.3326  1.5677
 1348SOL     OW 4375   1.388   2.828   0.706 -0.1701 -0.1113 -0.0624
 1348SOL    HW1 4376   1.324   2.803   0.639  0.1800 -0.6438 -0.2002
 1348SOL    HW2 4377   1.457   2.874   0.658 -0.1754 -0.0279  0.0089
 1349SOL     OW 4378   3.128   3.211   2.948 -0.4111 -0.2365 -0.0876
 1349SOL    HW1 4379   3.154   3.256   3.029 -0.4381 -0.5070  0.0740
 1349SOL    HW2 4380   3.074   3.137   2.979 -1.2992  0.2734 -0.4092
 1350SOL     OW 4381   2.569   4.948   4.172  0.2485 -0.0750  0.0077
 1350SOL    HW1 4382   2.574   5.043   4.174  0.2373 -0.0686 -0.2490
 1350SOL    HW2 4383   2.578   4.921   4.263  0.4395  0.1612  0.0575
 1351SOL     OW 4384   1.744   2.532   4.006  0.3547 -0.4777 -0.2539
 1351SOL    HW1 4385   1.667   2.572   3.967  1.1875  1.6448  0.1837
 1351SOL    HW2 4386   1.712   2.491   4.086 -0.4247 -0.1925 -0.4172
 1352SOL     OW 4387   4.032   0.820   2.266 -0.0056 -0.1394 -0.0958
 1352SOL    HW1 4388   4.083   0.850   2.340 -0.2832 -2.8568  1.2645
 1352SOL    HW2 4389   4.095   0.779   2.207 -0.1403 -0.3047 -0.1261
 1353SOL     OW 4390   2.009   2.782   2.225 -0.1872 -0.1414 -0.2663
 1353SOL    HW1 4391   1.923   2.759   2.189 -0.3816  1.8383 -1.1022
 1353SOL    HW2 4392   1.994   2.798   2.318 -0.4860 -1.0002 -0.1651
 1354SOL     OW 4393   3.475   4.402   2.695  0.0958 -0.2423 -1.1124
 1354SOL    HW1 4394   3.419   4.328   2.718  0.3901 -0.1075  0.0413
 1354SOL    HW2 4395   3.415   4.466   2.656 -0.5201 -0.1733 -0.0576
 1355SOL     OW 4396   2.299   0.213   3.181 -0.3932 -0.6872 -0.3952
 1355SOL    HW1 4397   2.328   0.249   3.264  0.6726 -1.2338 -0.5169
 1355SOL    HW2 4398   2.265   0.126   3.202  2.7522 -2.1079 -0.9201
 1356SOL     OW 4399   2.104   0.170   3.925 -0.0339 -0.1729 -0.3390
 1356SOL    HW1 4400   2.110   0.124   4.009 -0.3186 -0.4629 -0.4753
 1356SOL    HW2 4401   2.157   0.248   3.937  1.5688 -1.2050 -0.5370
 1357SOL     OW 4402   1.936   4.343   3.085  0.0699 -0.4388  0.1375
 1357SOL    HW1 4403   1.980   4.400   3.148  0.8615  0.7418 -1.4328
 1357SOL    HW2 4404   1.981   4.258   3.094 -0.5919 -0.6208  1.9325
 1358SOL     OW 4405   1.904   3.931   4.841  1.0252  0.0276  0.3348
 1358SOL    HW1 4406   1.986   3.980   4.843  0.9113  0.3033 -1.1167
 1358SOL    HW2 4407   1.928   3.843   4.871  1.7480  0.2396  0.3911
 1359SOL     OW 4408   3.925   3.927   0.437  0.4892  0.3430 -0.7108
 1359SOL    HW1 4409   3.963   3.986   0.371  1.9973 -0.3869 -0.5309
 1359SOL    HW2 4410   3.883   3.857   0.387 -0.8336  1.2721 -0.9181
 1360SOL     OW 4411   3.555   0.342   0.983  0.0700 -0.0093 -0.0207
 1360SOL    HW1 4412   3.504   0.297   1.050 -1.0856  0.3036 -0.6660
 1360SOL    HW2 4413   3.517   0.429   0.978  1.1224  0.4540 -0.0463
 1361SOL     OW 4414   0.054   1.191   2.533 -0.1828 -0.3387 -0.7058
 1361SOL    HW1 4415  -0.010   1.147   2.590  1.4595 -0.5932  0.9699
 1361SOL    HW2 4416   0.132   1.201   2.587  0.9926  0.5860 -2.5224
 1362SOL     OW 4417   1.495   1.251   4.955 -0.1661  0.4933  0.7426
 1362SOL    HW1 4418   1.533   1.338   4.967  2.2168 -0.4240  0.1192
 1362SOL    HW2 4419   1.465   1.250   4.864  1.3319  0.1242  0.2326
 1363SOL     OW 4420   1.911   2.445   3.404  1.0395  0.1632  0.6702
 1363SOL    HW1 4421   1.917   2.474   3.313 -2.1122 -0.6035  0.1691
 1363SOL    HW2 4422   1.905   2.350   3.398 -2.0530  0.2641  1.4585
 1364SOL     OW 4423   3.571   5.144   0.141 -0.0892  0.3724  0.2385
 1364SOL    HW1 4424   3.566   5.240   0.134  2.3347  0.4224 -1.0822
 1364SOL    HW2 4425   3.660   5.122   0.116 -1.5526 -2.5557 -2.7583
 1365SOL     OW 4426   5.400   3.020   2.519 -0.0441 -0.1531 -0.7834
 1365SOL    HW1 4427   5.447   2.964   2.581 -1.0822 -0.9878 -0.7294
 1365SOL    HW2 4428   5.454   3.099   2.512  0.1044 -0.0408  1.1867
 1366SOL     OW 4429   1.653   3.590   0.363 -0.5179 -0.1698 -0.0079
 1366SOL    HW1 4430   1.716   3.519   0.353 -0.3281 -0.0748  0.4581
 1366SOL    HW2 4431   1.706   3.669   0.361 -0.9063  0.0591 -2.1571
 1367SOL     OW 4432   5.441   0.103   3.954  0.2041  0.4503  0.8261
 1367SOL    HW1 4433   5.454   0.100   4.049 -0.1282 -0.4382  0.8503
 1367SOL    HW2 4434   5.529   0.117   3.918  0.4409  0.0307  1.2377
 1368SOL     OW 4435   5.045   1.560   2.286 -0.0051 -0.1956  0.2894
 1368SOL    HW1 4436   5.090   1.476   2.297  0.6227  0.2189  0.8467
 1368SOL    HW2 4437   5.103   1.612   2.231  0.0644  0.2373  0.7712
 1369SOL     OW 4438   2.010   1.661   2.928  0.4738 -0.3877 -0.1957
 1369SOL    HW1 4439   2.055   1.668   3.012  1.9679  0.0612 -1.0245
 1369SOL    HW2 4440   1.960   1.579   2.935  0.3511 -0.2052  1.2280
 1370SOL     OW 4441   1.020   0.088   0.720  0.2831  0.4837  0.3733
 1370SOL    HW1 4442   0.968   0.028   0.773  0.5111  0.3695  0.4688
 1370SOL    HW2 4443   1.003   0.175   0.756  0.1857  0.4430  0.4242
 1371SOL     OW 4444   4.339   0.133   1.652 -0.1538 -0.0546  0.5456
 1371SOL    HW1 4445   4.353   0.043   1.681  0.1500  0.5227  2.2602
 1371SOL    HW2 4446   4.408   0.149   1.588 -0.8776 -1.3860 -0.6001
 1372SOL     OW 4447   3.994   0.434   1.706  0.2240 -0.4161 -0.0548
 1372SOL    HW1 4448   4.056   0.446   1.777 -1.1481  0.8713  0.9526
 1372SOL    HW2 4449   4.035   0.368   1.649  1.9805 -0.3958  1.1523
 1373SOL     OW 4450   4.166   2.005   2.866  0.5769  0.3423 -0.1516
 1373SOL    HW1 4451   4.107   2.003   2.942  2.9977  0.8342  1.8044
 1373SOL    HW2 4452   4.159   2.095   2.833 -0.8040  0.0095 -0.7968
 1374SOL     OW 4453   1.284   1.699   0.823 -0.2183 -0.2106 -0.2148
 1374SOL    HW1 4454   1.318   1.776   0.776 -0.4832  0.3664  0.5313
 1374SOL    HW2 4455   1.274   1.632   0.755 -0.7106  0.6541 -1.0130
 1375SOL     OW 4456   1.056   3.527   4.694  0.1449  0.0162 -0.3230
 1375SOL    HW1 4457   1.128   3.590   4.700  0.9530 -0.9697  0.5286
 1375SOL    HW2 4458   0.997   3.551   4.765 -1.2205  1.8519 -2.0346
 1376SOL     OW 4459   2.486   4.453   0.314  0.0688 -0.4323  0.5475
 1376SOL    HW1 4460   2.424   4.423   0.248  0.1486  0.8750 -0.1347
 1376SOL    HW2 4461   2.565   4.401   0.299  0.1197 -0.0772 -0.4525
 1377SOL     OW 4462   4.081   2.119   2.006 -0.1270 -0.2897  0.8555
 1377SOL    HW1 4463   4.053   2.125   1.914 -1.1812 -0.0197  1.1849
 1377SOL    HW2 4464   4.138   2.043   2.009  1.4497  0.8101 -0.4222
 1378SOL     OW 4465   1.457   0.283   0.131  0.1155  0.0272  0.2629
 1378SOL    HW1 4466   1.372   0.240   0.126 -0.3628  0.8100  1.3419
 1378SOL    HW2 4467   1.495   0.273   0.044 -0.5191 -1.4662  0.1444
 1379SOL     OW 4468   2.686   3.328   2.293 -0.1848  0.4412 -0.1864
 1379SOL    HW1 4469   2.710   3.398   2.353 -1.0316 -0.4012  1.1625
 1379SOL    HW2 4470   2.770   3.292   2.263  0.2679  2.4774 -1.4728
 1380SOL     OW 4471   3.654   0.375   2.286  0.0129  0.5901  0.4482
 1380SOL    HW1 4472   3.588   0.325   2.334 -0.5086  0.0065 -0.8784
 1380SOL    HW2 4473   3.736   0.328   2.302 -0.2020  0.2529  0.5489
 1381SOL     OW 4474   0.809   0.106   5.226  0.2775 -0.4298  0.1978
 1381SOL    HW1 4475   0.853   0.188   5.249 -0.2021 -0.0850 -0.0918
 1381SOL    HW2 4476   0.724   0.111   5.271  0.6457 -1.2193  0.9913
 1382SOL     OW 4477   2.454   4.727   1.362 -0.3244 -0.2171 -0.2356
 1382SOL    HW1 4478   2.472   4.695   1.273  0.1003 -1.0346  0.1391
 1382SOL    HW2 4479   2.450   4.647   1.416  1.6184  0.4081  0.8707
 1383SOL     OW 4480   1.829   5.374   2.961 -0.1656  0.3830  0.1782
 1383SOL    HW1 4481   1.897   5.312   2.934 -0.0027  0.9883 -0.8061
 1383SOL    HW2 4482   1.813   5.352   3.053  0.0554 -0.9652 -0.0882
 1384SOL     OW 4483   2.654   2.806   4.709  0.2100 -0.3815  0.2632
 1384SOL    HW1 4484   2.578   2.823   4.764  0.1182 -0.1588  0.0682
 1384SOL    HW2 4485   2.663   2.884   4.654  0.9126 -0.1735  0.6686
 1385SOL     OW 4486   3.699   0.751   0.071  0.0143 -0.6410 -0.1460
 1385SOL    HW1 4487   3.641   0.812   0.116  0.3940  0.6953 -1.4289
 1385SOL    HW2 4488   3.762   0.725   0.139  0.3824  1.0800  0.2156
 1386SOL     OW 4489   4.643   2.467   0.955  0.1225 -0.0625  0.4695
 1386SOL    HW1 4490   4.604   2.406   0.892 -2.1899  1.4192  0.3930
 1386SOL    HW2 4491   4.626   2.554   0.918 -0.2750  0.7875  2.5749
 1387SOL     OW 4492   0.308   3.027   3.644  0.1414 -0.3030  0.2220
 1387SOL    HW1 4493   0.382   2.978   3.609  1.7524  1.9115  0.4604
 1387SOL    HW2 4494   0.324   3.030   3.739 -2.0345 -2.6803  0.7318
 1388SOL     OW 4495   5.476   3.861   4.034 -0.2808 -0.3256  0.3214
 1388SOL    HW1 4496   5.483   3.912   3.953  0.1578 -2.0347 -0.7382
 1388SOL    HW2 4497   5.492   3.770   4.007 -2.6242 -1.2709  1.8815
 1389SOL     OW 4498   4.308   2.430   3.552  0.0893  0.2901 -0.3106
 1389SOL    HW1 4499   4.369   2.355   3.549  0.4970  0.5530  0.9305
 1389SOL    HW2 4500   4.232   2.396   3.599 -0.0887  0.4090 -0.5144
 1390SOL     OW 4501   5.395   2.886   3.130  0.2464  0.7370 -0.1764
 1390SOL    HW1 4502   5.396   2.793   3.105 -0.0418 -0.0339  2.5321
 1390SOL    HW2 4503   5.475   2.922   3.092  0.4588 -0.6648 -1.0989
 1391SOL     OW 4504   1.083   0.351   3.990  0.2202 -0.6084 -0.4162
 1391SOL    HW1 4505   0.996   0.322   3.963 -1.3429  2.3608  1.2606
 1391SOL    HW2 4506   1.112   0.407   3.918  0.4460 -0.9938 -0.6283
 1392SOL     OW 4507   3.138   2.942   3.519 -0.0240  0.3514 -0.0162
 1392SOL    HW1 4508   3.231   2.953   3.502 -0.2948  1.3471 -0.8413
 1392SOL    HW2 4509   3.129   2.848   3.537  1.1940  0.3128  0.4822
 1393SOL     OW 4510   0.929   2.159   5.321 -0.1949 -0.1911 -0.2453
 1393SOL    HW1 4511   0.920   2.225   5.252  0.3511  0.4525  0.2802
 1393SOL    HW2 4512   0.843   2.157   5.364  0.1194  1.0772  0.5040
 1394SOL     OW 4513   1.211   0.703   4.076  0.0283 -0.4806 -0.3974
 1394SOL    HW1 4514   1.244   0.634   4.019  1.0669 -0.4465  0.1574
 1394SOL    HW2 4515   1.147   0.659   4.132  0.1914 -0.8511 -0.4988
 1395SOL     OW 4516   0.760   0.621   3.589 -0.0751 -0.4355 -0.2338
 1395SOL    HW1 4517   0.708   0.701   3.596  0.6391 -0.0705  0.9406
 1395SOL    HW2 4518   0.851   0.650   3.589  0.1810 -1.2066 -0.4728
 1396SOL     OW 4519   3.859   4.706   3.807 -0.5277  0.4920 -0.1525
 1396SOL    HW1 4520   3.873   4.696   3.901  0.9202  1.0134 -0.3084
 1396SOL    HW2 4521   3.844   4.617   3.776 -1.9351  0.4094  0.6986
 1397SOL     OW 4522   2.927   4.060   3.394 -0.4168  0.1715  0.4930
 1397SOL    HW1 4523   2.850   4.089   3.345 -0.6589  0.8160  1.2579
 1397SOL    HW2 4524   2.970   4.141   3.422  0.9549 -0.1793 -0.5758
 1398SOL     OW 4525   3.544   5.528   4.619 -0.4891 -0.2651 -0.0380
 1398SOL    HW1 4526   3.575   5.439   4.638 -0.5006 -0.2186  0.1935
 1398SOL    HW2 4527   3.608   5.562   4.556 -1.4655 -1.0714 -1.4937
 1399SOL     OW 4528   3.648   3.516   2.516 -0.5843  0.2058  0.4126
 1399SOL    HW1 4529   3.619   3.571   2.589  1.4408 -1.1410  2.2985
 1399SOL    HW2 4530   3.579   3.451   2.508  0.0515 -0.7902  2.4621
 1400SOL     OW 4531   1.850   2.697   0.728  0.6134  0.5689 -0.4844
 1400SOL    HW1 4532   1.804   2.781   0.731  1.3019  0.9297 -0.0638
 1400SOL    HW2 4533   1.943   2.720   0.728  0.8086 -0.1503 -1.4586
 1401SOL     OW 4534   1.819   2.532   2.398 -0.1229 -0.4448 -0.0755
 1401SOL    HW1 4535   1.785   2.543   2.486 -0.0039 -1.0309  0.0466
 1401SOL    HW2 4536   1.910   2.507   2.410 -0.5547 -2.2231 -0.3096
 1402SOL     OW 4537   0.324   3.521   1.487 -0.3053 -0.0132  0.1536
 1402SOL    HW1 4538   0.251   3.494   1.542  0.4184 -0.4882  0.8861
 1402SOL    HW2 4539   0.392   3.456   1.504  0.2567  0.3769 -0.5905
 1403SOL     OW 4540   1.334   4.905   0.472  0.0503  0.4875  0.5205
 1403SOL    HW1 4541   1.338   4.837   0.405  0.6394 -0.0682  1.1085
 1403SOL    HW2 4542   1.263   4.962   0.444 -0.1747 -0.1376 -0.2004
 1404SOL     OW 4543   5.188   4.593   5.442  0.4373  0.2081 -0.3894
 1404SOL    HW1 4544   5.126   4.645   5.392  0.6039  0.3987 -0.3979
 1404SOL    HW2 4545   5.199   4.513   5.392  0.2589  0.2098 -0.4296
 1405SOL     OW 4546   2.926   4.865   4.289 -0.0732 -0.5397 -0.1620
 1405SOL    HW1 4547   2.909   4.861   4.195  0.7231 -0.8359 -0.2986
 1405SOL    HW2 4548   2.947   4.958   4.305 -0.2853 -0.4740 -0.2638
 1406SOL     OW 4549   3.416   4.035   0.815  0.2126  0.8274 -0.3754
 1406SOL    HW1 4550   3.404   4.125   0.784 -0.1432  0.5561 -1.0163
 1406SOL    HW2 4551   3.469   4.045   0.895 -1.4352  1.7606  0.6374
 1407SOL     OW 4552   2.925   4.323   4.560  0.4747 -0.0084  0.4531
 1407SOL    HW1 4553   2.922   4.267   4.637  0.7148 -0.8098 -0.1132
 1407SOL    HW2 4554   2.835   4.355   4.550  0.4387  0.0767  1.0517
 1408SOL     OW 4555   2.829   1.579   1.809 -0.6985 -0.0629  0.5631
 1408SOL    HW1 4556   2.908   1.528   1.791 -0.0047  0.9308  0.7588
 1408SOL    HW2 4557   2.784   1.583   1.724 -0.3057 -0.2507  0.3430
 1409SOL     OW 4558   1.206   3.020   5.366  0.0011  0.5006  0.5890
 1409SOL    HW1 4559   1.135   3.070   5.325  1.2256  0.3301 -1.8453
 1409SOL    HW2 4560   1.281   3.079   5.366  0.7634 -0.4482  0.0134
 1410SOL     OW 4561   4.245   5.283   4.485  0.4301  0.1678  0.3243
 1410SOL    HW1 4562   4.326   5.330   4.470  1.5428 -2.3228 -1.8444
 1410SOL    HW2 4563   4.272   5.195   4.511 -1.5830 -0.5163  0.2004
 1411SOL     OW 4564   2.980   0.546   1.195 -0.0976  0.5753 -0.3841
 1411SOL    HW1 4565   3.067   0.511   1.214 -0.6085 -1.2034 -1.1849
 1411SOL    HW2 4566   2.964   0.609   1.265  0.7941 -0.9646  1.2522
 1412SOL     OW 4567   3.010   3.668   5.350  0.3481  0.3774 -0.5549
 1412SOL    HW1 4568   2.951   3.641   5.280  1.0616  0.6482 -1.2580
 1412SOL    HW2 4569   3.060   3.741   5.313  1.0309  0.2430  0.0885
 1413SOL     OW 4570   1.962   3.311   2.443  0.5832  0.0811 -0.3368
 1413SOL    HW1 4571   1.904   3.244   2.408 -1.6137  1.2582  0.9603
 1413SOL    HW2 4572   1.995   3.357   2.365 -2.2351  1.0194 -1.0459
 1414SOL     OW 4573   1.487   4.152   1.630  0.6358  0.1606 -0.3944
 1414SOL    HW1 4574   1.535   4.205   1.694 -0.4154  0.5273  0.1038
 1414SOL    HW2 4575   1.472   4.211   1.556 -0.0427  0.3885 -0.0748
 1415SOL     OW 4576   4.061   2.348   0.944  0.0617  0.0072 -0.3529
 1415SOL    HW1 4577   4.133   2.293   0.973 -0.9338 -1.2394 -0.2177
 1415SOL    HW2 4578   4.097   2.437   0.945  1.5789 -0.5884 -0.2572
 1416SOL     OW 4579   1.828   3.575   5.491  0.1534 -0.0654 -0.3416
 1416SOL    HW1 4580   1.865   3.493   5.457 -0.1532 -0.2338 -0.2687
 1416SOL    HW2 4581   1.846   3.571   5.585 -1.0678 -0.6858 -0.1190
 1417SOL     OW 4582   3.496   4.452   2.395  0.0026  0.0368  0.6228
 1417SOL    HW1 4583   3.426   4.415   2.449 -0.7065 -0.8948 -0.9200
 1417SOL    HW2 4584   3.459   4.534   2.360 -0.8795 -1.1734 -1.3615
 1418SOL     OW 4585   4.618   2.608   3.014 -0.0038 -0.0111 -0.0613
 1418SOL    HW1 4586   4.680   2.638   2.948  0.8261  0.0022  0.7072
 1418SOL    HW2 4587   4.652   2.643   3.096 -0.1095 -1.4181  0.5856
 1419SOL     OW 4588   2.109   0.460   0.594  0.2837  0.4912  0.9726
 1419SOL    HW1 4589   2.171   0.520   0.552  0.9188 -0.5020  0.5014
 1419SOL    HW2 4590   2.031   0.514   0.608  0.3935  1.1081 -0.6060
 1420SOL     OW 4591   0.887   3.877   1.320  0.1269  0.3216 -0.2338
 1420SOL    HW1 4592   0.969   3.847   1.280  0.3912  0.8264 -0.0843
 1420SOL    HW2 4593   0.836   3.913   1.248 -0.2721 -0.6641 -0.4435
 1421SOL     OW 4594   4.721   0.275   2.583 -0.6038  0.3447 -0.0632
 1421SOL    HW1 4595   4.675   0.215   2.525 -0.2323 -0.1164  0.1119
 1421SOL    HW2 4596   4.653   0.310   2.641 -0.8311  0.1191 -0.1934
 1422SOL     OW 4597   2.545   0.686   3.655 -0.2354  0.0601 -0.2321
 1422SOL    HW1 4598   2.541   0.638   3.738 -1.5699 -1.4744 -1.1575
 1422SOL    HW2 4599   2.597   0.764   3.675  3.3688 -2.5228  0.9099
 1423SOL     OW 4600   4.032   0.881   0.746 -0.6983 -0.0377 -0.0352
 1423SOL    HW1 4601   4.081   0.816   0.796 -0.2381  1.9736  2.2422
 1423SOL    HW2 4602   4.094   0.954   0.735 -1.4401  0.3329 -1.8645
 1424SOL     OW 4603   1.251   3.590   1.124 -0.0727  0.3414 -0.6080
 1424SOL    HW1 4604   1.223   3.523   1.061 -0.8267  1.8826 -1.9301
 1424SOL    HW2 4605   1.345   3.574   1.135 -0.1253 -0.5627 -1.3792
 1425SOL     OW 4606   0.529   3.230   4.789  0.3041 -0.3358 -0.3046
 1425SOL    HW1 4607   0.568   3.285   4.721  1.0150 -0.3365  0.0986
 1425SOL    HW2 4608   0.461   3.284   4.829  0.7817  0.1355 -0.1289
 1426SOL     OW 4609   0.386   4.002   0.687 -0.1021 -0.3705 -0.2116
 1426SOL    HW1 4610   0.345   3.929   0.640 -0.8722  0.6091 -1.0739
 1426SOL    HW2 4611   0.364   4.079   0.635  1.4858  0.3729  0.1953
 1427SOL     OW 4612   0.574   0.743   1.884  0.1197  0.3146 -0.4774
 1427SOL    HW1 4613   0.551   0.769   1.795 -1.6630  1.9247  0.4027
 1427SOL    HW2 4614   0.630   0.814   1.915  0.8226 -0.2954 -0.3404
 1428SOL     OW 4615   2.810   2.089   2.875 -0.8578  0.2339  0.5596
 1428SOL    HW1 4616   2.821   2.104   2.969  0.2988  0.6615  0.3569
 1428SOL    HW2 4617   2.772   2.001   2.870  0.3598 -0.3620  1.3845
 1429SOL     OW 4618   0.678   0.600   2.844  0.1309 -0.5342  0.1014
 1429SOL    HW1 4619   0.724   0.606   2.928  0.8756 -0.2320 -0.3179
 1429SOL    HW2 4620   0.688   0.688   2.806 -0.4611 -0.5845 -0.1657
 1430SOL     OW 4621   2.408   0.026   3.013  0.0477 -0.0110  0.1514
 1430SOL    HW1 4622   2.387   0.111   3.050  0.4328  0.5016 -0.7832
 1430SOL    HW2 4623   2.334   0.006   2.955  0.6226  0.3524 -0.7232
 1431SOL     OW 4624   3.835   4.191   0.992 -0.1206  0.1581  0.5175
 1431SOL    HW1 4625   3.764   4.130   1.011 -2.4239  2.2274 -1.1720
 1431SOL    HW2 4626   3.851   4.179   0.898  1.8532 -0.3283  0.8901
 1432SOL     OW 4627   1.473   1.189   2.768 -0.0422 -0.1353  0.1321
 1432SOL    HW1 4628   1.431   1.145   2.694 -1.0101  0.4653  0.3114
 1432SOL    HW2 4629   1.401   1.213   2.826  0.7679 -1.1731  1.6026
 1433SOL     OW 4630   3.559   1.358   5.414  0.4697 -0.1684 -0.2030
 1433SOL    HW1 4631   3.607   1.276   5.424 -0.3604 -0.7568 -0.9097
 1433SOL    HW2 4632   3.508   1.366   5.495 -0.8596 -1.3154 -0.8976
 1434SOL     OW 4633   1.935   0.282   5.377 -0.5872  0.1753 -0.7374
 1434SOL    HW1 4634   1.936   0.375   5.352  0.7561  0.7818  1.4971
 1434SOL    HW2 4635   2.027   0.258   5.381 -0.8700 -0.6414  0.9455
 1435SOL     OW 4636   2.532   2.158   0.326  0.1509 -0.1954 -0.3178
 1435SOL    HW1 4637   2.577   2.086   0.370 -1.1584 -0.7805  0.0698
 1435SOL    HW2 4638   2.563   2.153   0.236 -0.3747 -1.6177 -0.4363
 1436SOL     OW 4639   4.975   2.361   1.971  0.3517 -0.3715 -0.4989
 1436SOL    HW1 4640   5.023   2.283   1.940 -0.2511 -2.0648  2.5981
 1436SOL    HW2 4641   5.044   2.424   1.992  1.0895 -1.5572  0.7309
 1437SOL     OW 4642   4.683   1.047   4.608 -0.0547 -0.5464 -0.6624
 1437SOL    HW1 4643   4.747   0.984   4.642  0.3543  0.1028 -0.2215
 1437SOL    HW2 4644   4.600   1.001   4.611 -0.1655 -0.2461  1.9454
 1438SOL     OW 4645   2.460   2.579   3.924 -0.0118 -0.1914 -0.0777
 1438SOL    HW1 4646   2.467   2.572   3.828 -0.3266  1.3179 -0.2241
 1438SOL    HW2 4647   2.365   2.578   3.941 -0.0194  1.3109  0.0527
 1439SOL     OW 4648   4.619   1.155   3.578 -0.3835 -0.3415 -0.4123
 1439SOL    HW1 4649   4.714   1.144   3.581 -0.4102 -0.6677 -0.7240
 1439SOL    HW2 4650   4.586   1.072   3.543 -0.7666 -0.1472 -0.5180
 1440SOL     OW 4651   3.790   5.014   0.065  0.2718  0.1062 -0.6618
 1440SOL    HW1 4652   3.839   4.994  -0.015 -1.4599  1.2062 -2.0460
 1440SOL    HW2 4653   3.811   4.942   0.125  0.9506 -1.1949 -2.4099
 1441SOL     OW 4654   1.377   4.090   1.928 -0.2435  0.0606 -0.1055
 1441SOL    HW1 4655   1.329   4.124   1.853  1.2251 -1.0109 -1.5688
 1441SOL    HW2 4656   1.325   4.015   1.957 -1.1980  0.9114  0.4304
 1442SOL     OW 4657   5.345   2.586   1.747 -0.0617 -0.4081 -0.2570
 1442SOL    HW1 4658   5.418   2.596   1.808  0.3997  1.5037 -1.0895
 1442SOL    HW2 4659   5.282   2.530   1.793 -0.3640  2.1603  2.5735
 1443SOL     OW 4660   1.693   4.399   0.871 -0.4774 -0.2387 -0.3267
 1443SOL    HW1 4661   1.645   4.397   0.954 -1.7978  0.1181 -1.0661
 1443SOL    HW2 4662   1.733   4.486   0.869  0.8400 -0.8086  0.6362
 1444SOL     OW 4663   3.588   2.399   3.468 -0.5386  0.7530 -0.2397
 1444SOL    HW1 4664   3.675   2.435   3.449 -0.1934  0.0446  0.0262
 1444SOL    HW2 4665   3.533   2.477   3.479 -0.1749  1.2004 -1.4969
 1445SOL     OW 4666   2.369   4.792   3.694  0.2901 -0.2025  0.0998
 1445SOL    HW1 4667   2.448   4.737   3.694 -0.1309 -0.8150 -0.2498
 1445SOL    HW2 4668   2.402   4.882   3.695  0.9892 -0.4601  1.1406
 1446SOL     OW 4669   5.484   3.964   0.625 -0.4407 -0.1738  0.1690
 1446SOL    HW1 4670   5.495   4.000   0.536 -0.0619 -0.2678  0.1755
 1446SOL    HW2 4671   5.420   4.021   0.666 -1.1930 -0.5749 -0.4165
 1447SOL     OW 4672   0.696   0.356   0.597  0.2027  0.5630  0.2583
 1447SOL    HW1 4673   0.631   0.299   0.639  2.2398 -1.9357  0.0910
 1447SOL    HW2 4674   0.723   0.416   0.667 -1.6469  1.0925  0.5499
 1448SOL     OW 4675   1.407   3.221   5.389 -0.0074  0.0040 -0.1570
 1448SOL    HW1 4676   1.485   3.204   5.442  0.1763 -0.1823 -0.4873
 1448SOL    HW2 4677   1.441   3.256   5.307 -0.3416  1.2143  0.2160
 1449SOL     OW 4678   4.147   2.400   5.543 -0.6011  0.8050  0.6005
 1449SOL    HW1 4679   4.213   2.430   5.605 -1.1776  0.8800  1.1901
 1449SOL    HW2 4680   4.137   2.307   5.563 -1.2914  0.9812  1.1004
 1450SOL     OW 4681   3.927   5.560   4.056 -0.1029 -0.8734 -0.0328
 1450SOL    HW1 4682   3.854   5.521   4.010  0.0045 -0.5846 -0.4497
 1450SOL    HW2 4683   3.914   5.654   4.046 -0.0942 -0.8100  0.5478
 1451SOL     OW 4684   4.598   3.927   1.801  0.3784 -0.2015  0.2040
 1451SOL    HW1 4685   4.531   3.995   1.792 -0.5293 -1.2066 -0.7008
 1451SOL    HW2 4686   4.664   3.967   1.859  1.1075  2.3975 -2.2844
 1452SOL     OW 4687   4.236   4.898   5.477 -0.8318  0.1674 -0.4545
 1452SOL    HW1 4688   4.229   4.804   5.459 -0.8383  0.0187  0.3209
 1452SOL    HW2 4689   4.328   4.912   5.497 -1.0392  0.1198  0.5557
 1453SOL     OW 4690   5.389   2.883   1.404 -0.1325 -0.2025 -0.0623
 1453SOL    HW1 4691   5.421   2.898   1.315  0.1395  0.4965  0.1512
 1453SOL    HW2 4692   5.373   2.789   1.408  0.0694 -0.2699 -0.7803
 1454SOL     OW 4693   4.720   4.717   3.508  0.1564  0.2126 -0.3687
 1454SOL    HW1 4694   4.790   4.667   3.466  0.2371  0.8449 -0.9975
 1454SOL    HW2 4695   4.763   4.796   3.540  0.3903 -0.9382  2.2451
 1455SOL     OW 4696   0.548   2.927   3.583  0.3035 -0.0647 -0.5551
 1455SOL    HW1 4697   0.628   2.943   3.534  0.9089 -0.4561  0.2879
 1455SOL    HW2 4698   0.577   2.885   3.664 -0.5134  1.9526  0.8445
 1456SOL     OW 4699   1.105   1.413   4.830  0.3223  0.1959  0.5388
 1456SOL    HW1 4700   1.119   1.429   4.736  0.7625  0.8291  0.7023
 1456SOL    HW2 4701   1.091   1.500   4.867  1.5428  0.1004  1.2753
 1457SOL     OW 4702   4.953   2.595   4.816  0.1635  0.2374  0.5313
 1457SOL    HW1 4703   4.983   2.560   4.900  0.7446  1.3243  0.7856
 1457SOL    HW2 4704   4.989   2.535   4.751 -0.0877 -0.4741  1.0386
 1458SOL     OW 4705   4.116   4.795   4.086  0.1430 -0.2652  0.2354
 1458SOL    HW1 4706   4.047   4.729   4.086  0.7806 -0.9389  0.4967
 1458SOL    HW2 4707   4.196   4.746   4.103  0.5657  0.6384  0.8902
 1459SOL     OW 4708   2.342   3.418   3.890 -0.2901 -0.2389 -0.1424
 1459SOL    HW1 4709   2.258   3.385   3.861 -0.8250 -0.9576  2.1200
 1459SOL    HW2 4710   2.324   3.508   3.920 -0.6309 -0.9469  1.8775
 1460SOL     OW 4711   4.014   3.722   3.689  0.2498 -0.8932  0.3367
 1460SOL    HW1 4712   3.954   3.648   3.692  0.5508 -1.0991  1.5821
 1460SOL    HW2 4713   4.096   3.685   3.656  0.2683 -1.0196  0.5245
 1461SOL     OW 4714   5.229   0.390   4.977 -0.3034  0.3270 -0.1627
 1461SOL    HW1 4715   5.257   0.477   5.005 -1.6021  0.8982 -0.6143
 1461SOL    HW2 4716   5.260   0.332   5.046 -0.4486  1.2956  0.7306
 1462SOL     OW 4717   2.391   5.376   2.254  0.5476 -0.8495 -0.7618
 1462SOL    HW1 4718   2.359   5.317   2.323 -0.0137 -0.1027 -0.3781
 1462SOL    HW2 4719   2.467   5.419   2.293 -0.1184  0.0039 -0.3936
 1463SOL     OW 4720   3.877   0.520   3.067 -0.8239 -0.2530 -0.0081
 1463SOL    HW1 4721   3.781   0.515   3.064 -0.8761  1.4211 -1.7720
 1463SOL    HW2 4722   3.901   0.560   2.984  1.3695  0.0391  0.7561
 1464SOL     OW 4723   0.940   4.411   2.302  0.4814  0.1895  0.5574
 1464SOL    HW1 4724   0.954   4.416   2.208 -0.3221  1.0732  0.4718
 1464SOL    HW2 4725   0.888   4.489   2.322  1.5191  0.5594  1.8882
 1465SOL     OW 4726   0.686   1.904   2.871 -0.3522  0.0722 -0.1409
 1465SOL    HW1 4727   0.660   1.968   2.806 -0.6762 -0.3537 -0.4307
 1465SOL    HW2 4728   0.649   1.821   2.841  0.6580 -0.3934 -0.1531
 1466SOL     OW 4729   0.510   2.190   0.976 -0.2918  0.0642 -0.2256
 1466SOL    HW1 4730   0.579   2.127   0.996 -1.0312 -1.3012 -1.8773
 1466SOL    HW2 4731   0.554   2.275   0.973  0.7315 -0.3719  1.9077
 1467SOL     OW 4732   0.518   3.418   2.264 -0.2477 -0.1443 -0.0954
 1467SOL    HW1 4733   0.481   3.504   2.287 -1.2178 -0.4818 -0.3554
 1467SOL    HW2 4734   0.605   3.437   2.232 -1.6025  1.0951 -3.2297
 1468SOL     OW 4735   2.487   5.047   5.561 -0.1022  1.1453 -0.4442
 1468SOL    HW1 4736   2.421   5.059   5.630  1.0477  1.4985  0.6127
 1468SOL    HW2 4737   2.534   4.968   5.586 -0.2694  0.7622 -1.3251
 1469SOL     OW 4738   0.269   2.716   3.094 -0.2401  0.1702  0.2118
 1469SOL    HW1 4739   0.278   2.728   3.000  2.0336 -1.0338  0.2437
 1469SOL    HW2 4740   0.221   2.633   3.103 -0.6616  0.4022  0.1187
 1470SOL     OW 4741   1.997   5.306   3.677  0.3939 -0.1497 -0.0245
 1470SOL    HW1 4742   1.965   5.386   3.719 -0.7282 -0.3768 -0.4239
 1470SOL    HW2 4743   2.092   5.312   3.683  0.2658 -0.0420  2.2792
 1471SOL     OW 4744   2.967   4.298   0.652 -0.7073 -0.6495  0.2954
 1471SOL    HW1 4745   2.995   4.320   0.563  1.1641 -1.2009  0.7071
 1471SOL    HW2 4746   2.936   4.207   0.645 -0.8863 -0.5745  0.1273
 1472SOL     OW 4747   2.565   3.369   1.339  0.6055  0.5251 -0.5537
 1472SOL    HW1 4748   2.564   3.342   1.247 -1.7901 -1.0310 -0.0818
 1472SOL    HW2 4749   2.517   3.301   1.385 -0.3410  2.5610  1.5215
 1473SOL     OW 4750   5.361   0.537   3.189 -0.5253 -0.5502  0.4622
 1473SOL    HW1 4751   5.416   0.518   3.114 -1.6955 -1.6368 -0.1508
 1473SOL    HW2 4752   5.422   0.551   3.261  0.5848 -0.1429 -0.5411
 1474SOL     OW 4753   3.674   1.443   3.523 -0.2984 -0.2970  0.5228
 1474SOL    HW1 4754   3.753   1.450   3.471 -0.8914  0.3123 -0.3117
 1474SOL    HW2 4755   3.683   1.510   3.591 -0.4501  0.3074 -0.0494
 1475SOL     OW 4756   3.669   4.491   0.683  0.1801 -0.0653  0.3412
 1475SOL    HW1 4757   3.687   4.397   0.678 -0.3617 -0.0889 -1.9709
 1475SOL    HW2 4758   3.755   4.532   0.675  0.2127 -0.3536 -1.0499
 1476SOL     OW 4759   3.325   3.569   0.903 -0.3347  0.5278 -0.4797
 1476SOL    HW1 4760   3.274   3.521   0.837  2.1350  0.0441 -2.1124
 1476SOL    HW2 4761   3.298   3.660   0.893 -2.5108 -0.0059  0.2489
 1477SOL     OW 4762   4.167   4.994   4.872  0.5250 -0.1368  0.1065
 1477SOL    HW1 4763   4.073   4.992   4.888  0.4555  2.3571  0.2371
 1477SOL    HW2 4764   4.197   4.904   4.887 -2.0872 -1.3477 -1.5726
 1478SOL     OW 4765   1.286   4.490   1.992  0.0396  0.7457 -0.1181
 1478SOL    HW1 4766   1.203   4.453   2.021  0.3705 -0.4112 -0.6242
 1478SOL    HW2 4767   1.298   4.456   1.903  1.9219 -0.5886  0.6042
 1479SOL     OW 4768   0.034   0.526   3.665 -0.1347  0.0866  0.0752
 1479SOL    HW1 4769  -0.008   0.612   3.674 -1.1961 -0.3844 -0.3020
 1479SOL    HW2 4770   0.108   0.529   3.725 -0.3332  1.1656  0.2755
 1480SOL     OW 4771   2.724   2.611   1.753  0.4227  0.9640  0.4067
 1480SOL    HW1 4772   2.676   2.678   1.801  0.6369  1.0646  0.4793
 1480SOL    HW2 4773   2.795   2.585   1.811  0.3139  0.6411  0.3975
 1481SOL     OW 4774   1.139   3.793   1.663 -0.2883 -0.2681  0.1685
 1481SOL    HW1 4775   1.182   3.714   1.628 -0.3341 -0.4888  0.6077
 1481SOL    HW2 4776   1.070   3.811   1.600  0.1923 -0.1442 -0.3312
 1482SOL     OW 4777   5.320   5.488   5.469  0.0810 -0.5382 -0.0562
 1482SOL    HW1 4778   5.402   5.442   5.455 -0.0363 -0.0275 -2.7208
 1482SOL    HW2 4779   5.254   5.419   5.480  0.4857 -0.9701 -0.3506
 1483SOL     OW 4780   2.581   4.296   4.169 -0.1915 -0.1441  0.6710
 1483SOL    HW1 4781   2.500   4.334   4.203 -0.7288  0.0230 -0.7177
 1483SOL    HW2 4782   2.564   4.287   4.075  1.3551 -0.2609  0.3974
 1484SOL     OW 4783   0.185   5.101   2.645 -0.4740 -0.5415  0.0861
 1484SOL    HW1 4784   0.134   5.094   2.726 -0.4981 -0.6083  0.0654
 1484SOL    HW2 4785   0.246   5.028   2.649  0.0263 -0.1078  0.3983
 1485SOL     OW 4786   1.271   0.701   3.437  1.0583  0.2349  0.6795
 1485SOL    HW1 4787   1.271   0.775   3.376 -0.6510 -0.5954 -0.3935
 1485SOL    HW2 4788   1.315   0.630   3.389  0.3216 -0.2176  0.6619
 1486SOL     OW 4789   4.968   3.576   3.542 -0.4837  0.1561 -0.2061
 1486SOL    HW1 4790   4.898   3.641   3.551  1.3077  2.1443 -0.0933
 1486SOL    HW2 4791   5.024   3.611   3.473  1.5004 -0.3000  1.1248
 1487SOL     OW 4792   1.678   2.095   5.540  0.3039  0.1790 -0.0926
 1487SOL    HW1 4793   1.640   2.071   5.455 -0.9475 -1.1653  0.8158
 1487SOL    HW2 4794   1.613   2.067   5.604  1.8419 -0.0716  1.3935
 1488SOL     OW 4795   4.379   5.211   3.542  0.2627  0.0292  0.2653
 1488SOL    HW1 4796   4.317   5.145   3.509  1.6575 -1.3976  0.4295
 1488SOL    HW2 4797   4.352   5.292   3.499 -1.1431 -0.7572 -0.3876
 1489SOL     OW 4798   1.264   3.740   3.314 -0.3877 -0.0976  0.0279
 1489SOL    HW1 4799   1.273   3.827   3.276  1.6326 -0.5531 -0.5728
 1489SOL    HW2 4800   1.244   3.683   3.240 -0.6379 -0.3167  0.2624
 1490SOL     OW 4801   2.091   1.900   0.045  0.4252  0.4177  0.1359
 1490SOL    HW1 4802   2.039   1.939   0.116  0.1827  2.2996 -1.0637
 1490SOL    HW2 4803   2.063   1.946  -0.034  2.5300  0.1032 -0.8215
 1491SOL     OW 4804   1.244   4.468   5.480  0.0455 -0.5851  0.1988
 1491SOL    HW1 4805   1.202   4.500   5.559  3.8675  1.4783  1.5097
 1491SOL    HW2 4806   1.213   4.527   5.411 -2.0028 -1.3598  0.4383
 1492SOL     OW 4807   1.563   3.934   0.414  0.1164  0.4162 -0.2423
 1492SOL    HW1 4808   1.632   3.874   0.384 -1.3513 -1.2452 -0.3433
 1492SOL    HW2 4809   1.545   3.908   0.504  0.9070  2.0684  0.4142
 1493SOL     OW 4810   5.369   0.403   1.100 -0.1717 -0.5587 -0.0401
 1493SOL    HW1 4811   5.460   0.386   1.124 -0.0854  0.5779  0.4920
 1493SOL    HW2 4812   5.318   0.370   1.173 -0.0146  1.2169  0.9162
 1494SOL     OW 4813   1.529   0.381   0.987  0.1420  0.4752 -0.4826
 1494SOL    HW1 4814   1.584   0.437   1.042  0.8161 -0.8059  0.1907
 1494SOL    HW2 4815   1.555   0.401   0.898 -0.4665  2.0797 -0.3114
 1495SOL     OW 4816   5.229   5.534   4.895 -0.1115 -0.5875  0.3616
 1495SOL    HW1 4817   5.257   5.499   4.980  0.8377 -4.1083 -1.3010
 1495SOL    HW2 4818   5.309   5.572   4.858 -0.2918  0.0603  0.6451
 1496SOL     OW 4819   2.071   5.448   0.330  0.3947  0.4605  0.1754
 1496SOL    HW1 4820   2.138   5.393   0.370 -0.4107  0.3787  1.4562
 1496SOL    HW2 4821   1.999   5.388   0.310 -1.0030  1.2030  2.7533
 1497SOL     OW 4822   2.861   2.013   0.401 -0.3471 -0.0877 -0.6174
 1497SOL    HW1 4823   2.907   2.086   0.361 -0.5943  0.4811  0.1240
 1497SOL    HW2 4824   2.788   2.053   0.448 -1.3428 -0.9444 -1.4195
 1498SOL     OW 4825   3.894   3.278   1.843 -0.0390 -0.1166  0.2556
 1498SOL    HW1 4826   3.865   3.222   1.915 -3.0343  0.5880 -0.3341
 1498SOL    HW2 4827   3.816   3.329   1.819  1.6141  1.5888 -1.7024
 1499SOL     OW 4828   1.577   3.427   2.402 -0.5826  0.1863  0.6399
 1499SOL    HW1 4829   1.597   3.333   2.407  0.5416  0.4713  1.5842
 1499SOL    HW2 4830   1.659   3.468   2.375 -0.5243  1.1023  2.1379
 1500SOL     OW 4831   3.476   3.689   3.456  0.7291  0.2072  0.0423
 1500SOL    HW1 4832   3.533   3.692   3.533 -0.0998 -0.0137  0.6718
 1500SOL    HW2 4833   3.404   3.632   3.482  0.9821 -0.7103 -1.2773
 1501SOL     OW 4834   0.343   1.325   4.431 -0.2370 -0.1143  0.4455
 1501SOL    HW1 4835   0.368   1.318   4.523  0.0696 -0.4216  0.3368
 1501SOL    HW2 4836   0.355   1.418   4.411  1.2686 -0.3447  0.2660
 1502SOL     OW 4837   2.397   4.427   4.296  0.3436 -0.6087  0.3900
 1502SOL    HW1 4838   2.378   4.521   4.297  1.2571 -0.4163 -0.4203
 1502SOL    HW2 4839   2.342   4.392   4.366 -0.0535  0.5180  0.6646
 1503SOL     OW 4840   3.773   1.961   1.720  0.6885 -0.8668  0.3609
 1503SOL    HW1 4841   3.721   1.890   1.757 -0.0805 -0.1606  0.6306
 1503SOL    HW2 4842   3.714   2.007   1.661  1.1931 -0.4620  0.1678
 1504SOL     OW 4843   0.327   3.040   1.493 -0.4390  0.1078 -0.6259
 1504SOL    HW1 4844   0.316   3.090   1.412  0.0060  1.2969  0.0488
 1504SOL    HW2 4845   0.241   3.003   1.510 -0.6294  0.1655 -1.4278
 1505SOL     OW 4846   4.463   3.145   3.951 -0.5248 -0.1788 -0.1992
 1505SOL    HW1 4847   4.541   3.111   3.908 -1.0161 -2.6077  0.7535
 1505SOL    HW2 4848   4.390   3.110   3.901 -1.0609 -1.3294  1.3357
 1506SOL     OW 4849   1.562   2.646   2.822  0.4642 -0.1544  0.5248
 1506SOL    HW1 4850   1.479   2.651   2.774  0.7176  0.5122  0.1522
 1506SOL    HW2 4851   1.627   2.627   2.755  0.5802 -0.9554  0.8578
 1507SOL     OW 4852   5.462   4.244   2.721  0.7444  0.2045 -0.1707
 1507SOL    HW1 4853   5.373   4.258   2.752  0.9618 -1.1976  1.1401
 1507SOL    HW2 4854   5.517   4.264   2.797  1.5073  0.3766 -0.7646
 1508SOL     OW 4855   2.282   1.190   2.665 -0.6844 -0.4749  0.3843
 1508SOL    HW1 4856   2.234   1.193   2.748 -0.8029 -0.7754  0.3311
 1508SOL    HW2 4857   2.243   1.116   2.618 -1.8810  0.8126 -0.7169
 1509SOL     OW 4858   2.487   0.676   5.071 -0.3177  0.2611 -0.8097
 1509SOL    HW1 4859   2.441   0.751   5.111 -1.2512 -0.6253 -0.1879
 1509SOL    HW2 4860   2.569   0.713   5.038  0.9641  0.8829  2.7974
 1510SOL     OW 4861   1.475   0.164   2.312 -0.4839  0.5554 -0.3924
 1510SOL    HW1 4862   1.508   0.221   2.381  0.7610 -1.0972  0.4161
 1510SOL    HW2 4863   1.493   0.211   2.231 -0.4782  1.7812  0.3085
 1511SOL     OW 4864   1.534   2.837   2.416 -0.5846  0.3586  0.1471
 1511SOL    HW1 4865   1.477   2.760   2.411  1.7223 -1.3477 -0.4648
 1511SOL    HW2 4866   1.555   2.858   2.325  1.8984 -0.6991  0.4349
 1512SOL     OW 4867   1.460   3.923   0.112 -0.3952  0.7583  0.7515
 1512SOL    HW1 4868   1.464   3.889   0.201  1.5268  0.4837  0.5684
 1512SOL    HW2 4869   1.546   3.905   0.074 -0.6116  2.3874 -0.6046
 1513SOL     OW 4870   4.791   3.637   1.833 -0.2037  0.1037 -0.3151
 1513SOL    HW1 4871   4.841   3.611   1.756 -0.4718 -0.4697 -0.2986
 1513SOL    HW2 4872   4.738   3.711   1.804 -1.0911 -0.7842 -0.9611
 1514SOL     OW 4873   2.308   2.700   0.451  0.1367  0.1836  0.4130
 1514SOL    HW1 4874   2.375   2.752   0.496 -0.2146  0.5709  0.4839
 1514SOL    HW2 4875   2.289   2.629   0.511  0.8357 -0.2019  0.1906
 1515SOL     OW 4876   3.427   2.687   2.509  0.1599 -0.0635  0.2471
 1515SOL    HW1 4877   3.480   2.743   2.451 -0.5776  0.7162  0.3171
 1515SOL    HW2 4878   3.369   2.748   2.554 -1.2489 -0.9779 -0.3063
 1516SOL     OW 4879   4.689   3.438   0.698 -0.1558  0.0526  0.3232
 1516SOL    HW1 4880   4.732   3.515   0.736  0.5794 -0.2236  0.0665
 1516SOL    HW2 4881   4.635   3.403   0.769 -1.6039  1.6114  0.0200
 1517SOL     OW 4882   2.009   0.538   3.828  0.2217 -0.6576  0.4582
 1517SOL    HW1 4883   1.967   0.603   3.772 -1.8036 -1.0069  1.5433
 1517SOL    HW2 4884   2.033   0.586   3.907 -3.3550 -1.6472  2.2334
 1518SOL     OW 4885   1.879   0.903   3.997 -0.1463 -0.0314  0.1731
 1518SOL    HW1 4886   1.840   0.943   3.920  0.8249  0.7422  0.0825
 1518SOL    HW2 4887   1.807   0.856   4.039 -0.7891 -0.0225 -0.9175
 1519SOL     OW 4888   1.774   0.571   4.218  0.0300  0.3187  0.1273
 1519SOL    HW1 4889   1.822   0.582   4.301 -0.4426 -1.2700  0.6276
 1519SOL    HW2 4890   1.738   0.658   4.200 -0.1479  0.6193  1.7844
 1520SOL     OW 4891   2.670   3.491   3.813 -0.0157  0.1367  0.0550
 1520SOL    HW1 4892   2.650   3.482   3.906 -0.1139  1.1257  0.1416
 1520SOL    HW2 4893   2.648   3.406   3.775 -0.8187  0.0073  0.7913
 1521SOL     OW 4894   1.890   4.414   1.987 -0.6253 -0.4326  0.0414
 1521SOL    HW1 4895   1.971   4.364   1.974 -0.4214 -0.6777  2.1183
 1521SOL    HW2 4896   1.821   4.358   1.953 -0.1161 -0.9853 -0.0801
 1522SOL     OW 4897   4.603   5.283   2.840  0.6707  0.5924 -0.1540
 1522SOL    HW1 4898   4.607   5.207   2.781 -0.7497  0.4494 -0.0670
 1522SOL    HW2 4899   4.685   5.330   2.823  2.4779 -1.9577  1.1551
 1523SOL     OW 4900   0.976   5.087   4.755  0.6736 -0.1431 -0.2723
 1523SOL    HW1 4901   0.890   5.054   4.729 -0.1466  1.8724 -0.1817
 1523SOL    HW2 4902   0.980   5.070   4.849 -0.7074  2.0433  0.2190
 1524SOL     OW 4903   1.500   5.394   2.490 -0.1092 -0.4252  0.0555
 1524SOL    HW1 4904   1.571   5.454   2.465 -0.8253  0.5541  0.3303
 1524SOL    HW2 4905   1.428   5.417   2.431 -0.6562 -0.4603  0.6992
 1525SOL     OW 4906   2.534   4.640   4.627 -0.4161 -0.1720  0.1822
 1525SOL    HW1 4907   2.591   4.570   4.659 -0.1371 -0.1274 -0.2176
 1525SOL    HW2 4908   2.447   4.618   4.661  0.2461  0.9565  2.6974
 1526SOL     OW 4909   0.350   4.274   3.042  0.6528  0.0228  0.5965
 1526SOL    HW1 4910   0.344   4.196   3.096  0.9759 -0.2770  0.2001
 1526SOL    HW2 4911   0.372   4.344   3.104  0.1388 -0.1545  0.9817
 1527SOL     OW 4912   4.580   5.116   0.514 -0.2700  0.3651 -0.3632
 1527SOL    HW1 4913   4.585   5.027   0.547 -0.2111  0.8782  1.0295
 1527SOL    HW2 4914   4.492   5.123   0.476  0.0769 -0.5762 -1.3654
 1528SOL     OW 4915   1.691   4.898   3.744 -0.3200 -0.3842  0.1016
 1528SOL    HW1 4916   1.761   4.832   3.745 -0.1115 -0.1509  0.7646
 1528SOL    HW2 4917   1.733   4.977   3.710 -0.5322 -0.5460 -0.5429
 1529SOL     OW 4918   0.304   4.235   1.608 -0.2372 -0.1906  0.5935
 1529SOL    HW1 4919   0.232   4.283   1.566  1.7083  1.6194 -0.8138
 1529SOL    HW2 4920   0.288   4.143   1.585 -1.0436  0.3988 -1.3554
 1530SOL     OW 4921   1.397   5.403   1.047 -0.7275 -0.3797  0.2742
 1530SOL    HW1 4922   1.435   5.362   1.125  2.0725 -0.1940 -0.9163
 1530SOL    HW2 4923   1.412   5.497   1.059  1.1546 -0.4711 -1.1728
 1531SOL     OW 4924   2.808   2.316   3.629 -0.3942  0.0657 -0.2629
 1531SOL    HW1 4925   2.794   2.405   3.660 -1.6510 -0.4839  0.8038
 1531SOL    HW2 4926   2.847   2.270   3.704  0.4981 -0.2026 -0.8935
 1532SOL     OW 4927   3.796   2.495   1.930 -1.0262 -0.5574  0.4172
 1532SOL    HW1 4928   3.813   2.460   1.842  0.3393 -1.0914  0.8791
 1532SOL    HW2 4929   3.806   2.419   1.988 -3.1013 -0.4598  0.9193
 1533SOL     OW 4930   3.002   3.209   1.338 -0.2213 -0.1819  0.0859
 1533SOL    HW1 4931   2.968   3.140   1.282 -0.9791  0.4958 -0.2995
 1533SOL    HW2 4932   3.091   3.181   1.361 -0.9736 -1.8805  0.9774
 1534SOL     OW 4933   1.863   2.361   1.544 -0.5042 -0.0169  0.2074
 1534SOL    HW1 4934   1.849   2.281   1.494 -1.2366 -0.0960  0.5384
 1534SOL    HW2 4935   1.785   2.414   1.528 -0.1105  0.5498  0.1485
 1535SOL     OW 4936   3.809   4.673   3.209 -0.1262 -0.3537 -0.0924
 1535SOL    HW1 4937   3.802   4.699   3.117  0.0607 -0.8540 -0.2500
 1535SOL    HW2 4938   3.866   4.596   3.208  1.1024  0.5289  0.6073
 1536SOL     OW 4939   0.943   4.528   3.140 -0.4974 -0.0617 -0.2149
 1536SOL    HW1 4940   0.939   4.451   3.196 -1.1177  0.0686 -0.0708
 1536SOL    HW2 4941   0.998   4.502   3.067  1.0562  0.0514  0.8851
 1537SOL     OW 4942   3.850   3.028   0.324  0.3601  0.1566  0.3849
 1537SOL    HW1 4943   3.813   2.949   0.284  1.7410 -0.3260  0.0061
 1537SOL    HW2 4944   3.777   3.089   0.330 -0.1631 -0.2186 -1.7385
 1538SOL     OW 4945   0.836   2.238   3.205 -0.6915 -0.1167  0.0612
 1538SOL    HW1 4946   0.752   2.278   3.225 -0.5793  0.1125  0.0754
 1538SOL    HW2 4947   0.901   2.300   3.239 -0.4850  0.4635 -1.3392
 1539SOL     OW 4948   2.119   5.382   2.653  0.6706 -0.0743 -0.1189
 1539SOL    HW1 4949   2.030   5.376   2.619  1.4744 -0.5219 -2.2052
 1539SOL    HW2 4950   2.159   5.454   2.603  1.7107 -0.3671  0.2788
 1540SOL     OW 4951   5.562   2.320   4.400  0.4657  0.8479  0.4742
 1540SOL    HW1 4952   5.655   2.332   4.415  0.6944 -0.4969  0.1562
 1540SOL    HW2 4953   5.556   2.265   4.323 -0.5457 -0.5408  1.5110
 1541SOL     OW 4954   3.731   1.677   3.680 -0.5341 -0.3549  0.1284
 1541SOL    HW1 4955   3.719   1.713   3.768  1.1078 -0.0948  0.2761
 1541SOL    HW2 4956   3.681   1.734   3.623 -2.0625 -0.8444  0.9533
 1542SOL     OW 4957   1.471   1.976   4.760  0.1819  0.3598 -0.4180
 1542SOL    HW1 4958   1.450   1.891   4.799  0.4576  0.6541  0.3806
 1542SOL    HW2 4959   1.390   2.003   4.716  0.8837 -1.6126 -3.1157
 1543SOL     OW 4960   4.725   2.398   2.745  0.6915 -0.4635  0.1660
 1543SOL    HW1 4961   4.805   2.373   2.792  1.1006  0.3725 -0.0884
 1543SOL    HW2 4962   4.719   2.493   2.757  0.5154 -0.3219 -1.0461
 1544SOL     OW 4963   4.128   2.275   3.037  0.1939 -0.1249  0.5298
 1544SOL    HW1 4964   4.107   2.249   2.947 -1.2843 -0.4118  0.9480
 1544SOL    HW2 4965   4.212   2.233   3.054 -0.2460 -1.3408 -0.1917
 1545SOL     OW 4966   0.725   5.362   3.286  0.4362  0.2322 -0.5366
 1545SOL    HW1 4967   0.785   5.301   3.329  1.0478 -0.5349 -2.4403
 1545SOL    HW2 4968   0.774   5.394   3.210 -1.7063 -0.7578 -2.3739
 1546SOL     OW 4969   3.676   2.694   3.628  0.0636 -0.1880 -0.1544
 1546SOL    HW1 4970   3.670   2.787   3.650  0.4365  0.2449 -1.8427
 1546SOL    HW2 4971   3.594   2.673   3.583  0.0590 -0.6277  0.0518
 1547SOL     OW 4972   4.035   3.274   2.485 -0.4516  0.4316  0.5208
 1547SOL    HW1 4973   4.121   3.299   2.519 -0.0676  0.7492 -0.6594
 1547SOL    HW2 4974   3.997   3.356   2.454 -1.1615  0.2800  0.9731
 1548SOL     OW 4975   1.528   1.663   3.261  0.2342  0.1137 -0.0293
 1548SOL    HW1 4976   1.485   1.743   3.232 -0.6503  0.3024  1.7326
 1548SOL    HW2 4977   1.622   1.684   3.259 -0.0580  1.6460  1.7167
 1549SOL     OW 4978   0.295   1.953   4.304  0.5755 -0.2217 -0.3199
 1549SOL    HW1 4979   0.340   1.979   4.385 -0.1788 -0.5140  0.2043
 1549SOL    HW2 4980   0.207   1.928   4.333  0.5883 -1.2174 -1.1085
 1550SOL     OW 4981   2.885   4.348   4.056  0.1260  0.0641  0.4822
 1550SOL    HW1 4982   2.873   4.255   4.074  0.6437  0.1336  1.1999
 1550SOL    HW2 4983   2.978   4.357   4.037  0.5047  0.7857  2.5618
 1551SOL     OW 4984   2.854   1.194   5.395  0.3183  0.1146 -0.0967
 1551SOL    HW1 4985   2.854   1.099   5.405 -0.9612 -0.0636 -1.6002
 1551SOL    HW2 4986   2.943   1.220   5.419  0.4916 -1.3873  0.9521
 1552SOL     OW 4987   1.083   1.487   1.532 -0.4014  0.4837  0.1260
 1552SOL    HW1 4988   1.132   1.461   1.610 -0.8175  0.2034  0.3033
 1552SOL    HW2 4989   1.149   1.499   1.464 -0.0242  0.8840  0.5663
 1553SOL     OW 4990   3.822   1.472   5.063 -0.6760 -0.2226  0.3889
 1553SOL    HW1 4991   3.915   1.492   5.062 -0.6292 -0.4376  0.4755
 1553SOL    HW2 4992   3.812   1.402   5.128 -0.9957  0.2725  0.8731
 1554SOL     OW 4993   4.975   4.704   2.970 -0.1817 -0.1019  0.1426
 1554SOL    HW1 4994   5.051   4.762   2.976  0.1349 -0.3793 -1.0559
 1554SOL    HW2 4995   4.901   4.762   2.950 -0.1719  0.0858  0.6393
 1555SOL     OW 4996   4.309   3.903   3.104  0.1687  0.3521  0.1333
 1555SOL    HW1 4997   4.260   3.910   3.022  0.3961 -0.0151 -0.0372
 1555SOL    HW2 4998   4.329   3.993   3.128  1.1469  0.4051 -0.8503
 1556SOL     OW 4999   4.453   2.938   5.217  0.5121 -0.0111 -0.1686
 1556SOL    HW1 5000   4.470   3.030   5.237 -2.3144 -0.1090  3.2249
 1556SOL    HW2 5001   4.494   2.890   5.289 -1.6822 -1.0795  0.4245
 1557SOL     OW 5002   2.337   5.365   2.846 -0.4445 -0.6705  0.1465
 1557SOL    HW1 5003   2.314   5.354   2.754 -0.3366 -0.9012  0.1469
 1557SOL    HW2 5004   2.429   5.389   2.846 -0.2292 -1.4927  0.2370
 1558SOL     OW 5005   3.104   5.371   2.984  0.2658  0.0053  0.3081
 1558SOL    HW1 5006   3.183   5.392   2.936 -0.6068  1.3704 -0.5514
 1558SOL    HW2 5007   3.130   5.375   3.076  1.1602  0.5977  0.0339
 1559SOL     OW 5008   0.247   3.189   0.904  0.4159  0.3285 -0.0752
 1559SOL    HW1 5009   0.342   3.186   0.910  0.5768 -0.5298 -2.3574
 1559SOL    HW2 5010   0.229   3.222   0.816 -1.3819 -1.0069 -0.2483
 1560SOL     OW 5011   1.410   1.902   3.163  0.0008 -1.0592  0.1505
 1560SOL    HW1 5012   1.480   1.966   3.149 -0.9100 -0.0377  0.2027
 1560SOL    HW2 5013   1.409   1.849   3.083 -1.2209  0.9362 -1.2074
 1561SOL     OW 5014   0.167   4.525   5.151 -0.1092  0.5413  0.5094
 1561SOL    HW1 5015   0.111   4.530   5.228  0.2075  0.6633  0.7358
 1561SOL    HW2 5016   0.114   4.482   5.084  0.1171 -0.9440  1.2524
 1562SOL     OW 5017   0.278   1.819   1.343  0.0826  0.1760 -0.4548
 1562SOL    HW1 5018   0.253   1.747   1.285  0.4933 -1.7716  1.7119
 1562SOL    HW2 5019   0.197   1.868   1.356 -0.2195  0.0616 -1.9187
 1563SOL     OW 5020   4.580   2.341   1.413  0.1156 -0.3558 -0.5161
 1563SOL    HW1 5021   4.491   2.324   1.444  0.2973  0.3667  0.4280
 1563SOL    HW2 5022   4.569   2.383   1.328 -0.4622  0.0655 -0.2337
 1564SOL     OW 5023   4.015   4.531   4.889 -0.9506  0.0358 -0.1571
 1564SOL    HW1 5024   3.935   4.564   4.929  0.8675  2.4451  1.6861
 1564SOL    HW2 5025   4.023   4.581   4.807 -1.2605 -0.0862 -0.2601
 1565SOL     OW 5026   2.195   0.156   5.389 -0.0633  0.0698 -0.0184
 1565SOL    HW1 5027   2.280   0.164   5.432  0.2575  0.6625 -0.7354
 1565SOL    HW2 5028   2.178   0.062   5.386  1.1038 -0.1362 -0.8557
 1566SOL     OW 5029   2.011   0.211   1.280  0.6415 -0.5539 -0.1978
 1566SOL    HW1 5030   1.964   0.275   1.334 -0.9365 -2.2572  0.4988
 1566SOL    HW2 5031   1.959   0.203   1.201  0.9071 -0.8665 -0.3428
 1567SOL     OW 5032   3.769   3.945   2.485 -0.1227  0.1283  0.6398
 1567SOL    HW1 5033   3.734   3.988   2.564 -0.1735  1.2402  0.0162
 1567SOL    HW2 5034   3.752   4.007   2.415 -1.7155 -1.6298 -0.5666
 1568SOL     OW 5035   4.066   1.360   2.172  0.5842  0.4676 -0.4788
 1568SOL    HW1 5036   3.976   1.371   2.204  0.3515 -0.3887 -0.8329
 1568SOL    HW2 5037   4.120   1.396   2.242  0.0554 -0.9286  0.6908
 1569SOL     OW 5038   1.067   4.955   4.503 -0.6422  0.1798 -0.0080
 1569SOL    HW1 5039   0.979   4.922   4.487 -0.9265  1.0049 -0.1128
 1569SOL    HW2 5040   1.058   5.012   4.579 -0.2888  0.6739 -0.3403
 1570SOL     OW 5041   1.454   1.966   3.907 -0.3646 -0.3699  0.2090
 1570SOL    HW1 5042   1.450   1.887   3.853 -0.8640  0.4902 -1.0482
 1570SOL    HW2 5043   1.410   2.033   3.854  1.7304  1.2261  0.4105
 1571SOL     OW 5044   3.114   3.511   1.295 -0.3514  0.2686  0.7429
 1571SOL    HW1 5045   3.031   3.520   1.247  0.5849  0.8914 -0.8284
 1571SOL    HW2 5046   3.136   3.419   1.287  0.5861  0.6530 -1.4394
 1572SOL     OW 5047   1.224   2.854   1.351 -0.4106  0.1208 -0.4176
 1572SOL    HW1 5048   1.220   2.759   1.337 -2.9121  0.2826 -1.0903
 1572SOL    HW2 5049   1.247   2.864   1.444  1.8672 -1.0908 -0.8062
 1573SOL     OW 5050   3.499   2.486   4.320  0.1618 -0.3936  0.1859
 1573SOL    HW1 5051   3.500   2.420   4.389 -2.9080  1.6099  2.2898
 1573SOL    HW2 5052   3.420   2.468   4.269  0.5518  0.2452 -0.6561
 1574SOL     OW 5053   1.581   2.958   1.844  0.4342 -0.1621  0.6517
 1574SOL    HW1 5054   1.659   2.982   1.794 -0.0199 -2.1448 -1.1167
 1574SOL    HW2 5055   1.605   2.973   1.935  1.5502  2.8339 -0.0930
 1575SOL     OW 5056   3.884   3.511   2.793 -0.1852  0.2990 -0.4337
 1575SOL    HW1 5057   3.828   3.582   2.762 -0.3063  0.4187  0.0547
 1575SOL    HW2 5058   3.828   3.433   2.790  0.1785  0.0860 -1.6926
 1576SOL     OW 5059   1.638   4.566   1.846  0.5480 -0.4603  0.0338
 1576SOL    HW1 5060   1.724   4.600   1.821  0.7205 -0.7954  0.1550
 1576SOL    HW2 5061   1.581   4.642   1.848  1.3707  0.1354  2.2356
 1577SOL     OW 5062   0.063   4.610   4.184 -0.6063  0.0848 -0.0313
 1577SOL    HW1 5063   0.147   4.650   4.207 -0.6525 -0.2382  0.7265
 1577SOL    HW2 5064   0.052   4.540   4.249 -0.5719 -1.0972 -1.2857
 1578SOL     OW 5065   4.700   3.098   5.561 -0.1407  0.1650 -0.3475
 1578SOL    HW1 5066   4.734   3.061   5.479 -1.0929  2.3160 -1.7737
 1578SOL    HW2 5067   4.698   3.025   5.622  1.4491 -1.2871 -1.9875
 1579SOL     OW 5068   3.000   1.062   4.617 -0.0267 -0.1067 -0.3695
 1579SOL    HW1 5069   3.078   1.081   4.564  1.7184 -0.3376  2.0687
 1579SOL    HW2 5070   2.998   1.132   4.683 -2.1686  0.1567 -0.6607
 1580SOL     OW 5071   5.030   3.049   5.453  0.0434 -0.2197 -0.5436
 1580SOL    HW1 5072   4.976   3.052   5.532 -3.1950  2.5656 -2.6941
 1580SOL    HW2 5073   4.980   2.997   5.391  1.4560 -0.4709 -1.4946
 1581SOL     OW 5074   3.863   0.106   0.067  0.4282  0.6050 -0.0419
 1581SOL    HW1 5075   3.795   0.147   0.121  1.3947  1.6186  0.4275
 1581SOL    HW2 5076   3.821   0.095  -0.019 -0.3362  1.1931  0.2462
 1582SOL     OW 5077   2.745   4.543   3.218  0.3787 -0.0243  0.1846
 1582SOL    HW1 5078   2.790   4.489   3.283 -1.7160 -2.5240 -0.3649
 1582SOL    HW2 5079   2.688   4.600   3.270  0.3815 -0.4344  0.6481
 1583SOL     OW 5080   0.450   0.473   1.209  0.1712 -0.4300  0.1660
 1583SOL    HW1 5081   0.444   0.561   1.245 -1.0312 -0.1909 -0.5814
 1583SOL    HW2 5082   0.473   0.418   1.284  2.7281  0.7482  0.2878
 1584SOL     OW 5083   3.352   2.846   3.857  0.4550 -0.2972 -0.2267
 1584SOL    HW1 5084   3.409   2.795   3.915  0.7826 -0.5882 -0.8021
 1584SOL    HW2 5085   3.403   2.857   3.777  0.6525  1.5266  0.1308
 1585SOL     OW 5086   2.568   3.111   1.718  0.4384  0.2110 -0.6805
 1585SOL    HW1 5087   2.483   3.152   1.730  1.2635  1.3469  1.5720
 1585SOL    HW2 5088   2.597   3.140   1.631 -1.2104  0.2806 -1.2105
 1586SOL     OW 5089   2.183   1.040   5.418  0.4876 -0.5003  0.2002
 1586SOL    HW1 5090   2.159   1.103   5.350 -1.8726 -1.2483  0.2683
 1586SOL    HW2 5091   2.240   1.088   5.477 -0.8403  1.4289 -0.0424
 1587SOL     OW 5092   3.072   2.828   0.606  0.0634 -0.5166 -0.0515
 1587SOL    HW1 5093   3.004   2.890   0.580 -1.7797 -1.4970  2.2328
 1587SOL    HW2 5094   3.071   2.830   0.702  1.9823 -1.9132  0.0211
 1588SOL     OW 5095   4.866   3.983   0.972 -0.0749  0.6307  0.1009
 1588SOL    HW1 5096   4.774   3.985   0.998  0.2935  0.4673  1.4650
 1588SOL    HW2 5097   4.882   4.071   0.937 -0.8988  0.4658 -0.7060
 1589SOL     OW 5098   0.100   4.853   1.508  0.2446  0.7024  0.1713
 1589SOL    HW1 5099   0.085   4.947   1.520  1.0205  0.9252 -0.5560
 1589SOL    HW2 5100   0.192   4.846   1.483  0.5233 -0.3601  1.4173
 1590SOL     OW 5101   1.121   0.119   3.776 -0.1039  0.2321 -0.0281
 1590SOL    HW1 5102   1.030   0.146   3.766  0.2744  0.7483 -2.3576
 1590SOL    HW2 5103   1.172   0.195   3.748  1.0049 -1.3771 -2.4973
 1591SOL     OW 5104   4.474   0.020   4.059 -0.1975  0.4394 -0.0156
 1591SOL    HW1 5105   4.478   0.027   4.154  0.9166  1.0905 -0.1054
 1591SOL    HW2 5106   4.558  -0.017   4.034 -1.6323 -2.6523 -0.5232
 1592SOL     OW 5107   5.012   2.680   2.645 -0.1375 -0.2317  0.2544
 1592SOL    HW1 5108   4.992   2.597   2.689  1.3066  0.5753  2.4777
 1592SOL    HW2 5109   5.107   2.685   2.646 -0.1862  1.0249 -0.7189
 1593SOL     OW 5110   0.382   1.097   3.253 -0.1139  0.4094  0.5330
 1593SOL    HW1 5111   0.387   1.043   3.332 -0.8702  1.0734  1.0463
 1593SOL    HW2 5112   0.350   1.182   3.284  1.3287  1.2539 -0.2186
 1594SOL     OW 5113   2.945   0.596   4.409 -0.6399 -0.5110  0.5733
 1594SOL    HW1 5114   2.923   0.659   4.340 -2.7620 -1.4540  0.3654
 1594SOL    HW2 5115   3.041   0.597   4.413 -0.5475  0.3931 -1.5972
 1595SOL     OW 5116   4.997   5.430   3.306 -0.3046  0.6579  0.1563
 1595SOL    HW1 5117   4.915   5.389   3.334 -1.2224  1.7934 -0.8213
 1595SOL    HW2 5118   5.029   5.476   3.384  0.3121 -1.2033  1.0263
 1596SOL     OW 5119   3.083   1.197   2.764 -0.5150 -0.1799 -0.6593
 1596SOL    HW1 5120   3.178   1.191   2.757 -0.6327  0.1883 -3.1203
 1596SOL    HW2 5121   3.051   1.114   2.727 -1.1255 -0.8819  1.4001
 1597SOL     OW 5122   1.998   0.767   2.765 -0.2309 -0.4007  0.0895
 1597SOL    HW1 5123   1.947   0.746   2.843 -0.0637  2.4186  0.9819
 1597SOL    HW2 5124   2.085   0.789   2.798  0.7706 -2.2630 -1.1872
 1598SOL     OW 5125   5.121   2.172   4.623 -0.1253 -0.4810 -0.0396
 1598SOL    HW1 5126   5.154   2.136   4.540  0.8940 -0.2070  0.2396
 1598SOL    HW2 5127   5.087   2.096   4.670  0.2862 -0.7973 -0.2504
 1599SOL     OW 5128   0.661   1.742   4.461 -0.5204 -0.0162 -0.3658
 1599SOL    HW1 5129   0.633   1.728   4.551  1.0278  0.5368  0.2032
 1599SOL    HW2 5130   0.643   1.659   4.417  0.7935 -1.0213  0.9776
 1600SOL     OW 5131   1.056   0.828   3.177  0.2523  0.2892 -0.1862
 1600SOL    HW1 5132   0.987   0.894   3.176  0.8176  0.9518  1.4096
 1600SOL    HW2 5133   1.026   0.763   3.241  0.7455  0.1903 -0.0513
 1601SOL     OW 5134   3.964   0.823   3.096  0.7873  0.3015 -0.2335
 1601SOL    HW1 5135   3.976   0.757   3.028  0.7944 -0.2230  0.2806
 1601SOL    HW2 5136   3.883   0.867   3.073  0.1297 -0.7200  0.1186
 1602SOL     OW 5137   1.358   2.964   0.063  0.3940  0.1802 -0.4515
 1602SOL    HW1 5138   1.287   2.983   0.002 -1.1976 -1.8173  0.7163
 1602SOL    HW2 5139   1.423   2.916   0.011  0.0197  0.3322 -1.0584
 1603SOL     OW 5140   4.552   5.264   5.568 -0.2492  0.0163 -0.7207
 1603SOL    HW1 5141   4.592   5.243   5.652 -1.4161  1.3905  0.2104
 1603SOL    HW2 5142   4.463   5.231   5.575  0.0571 -1.1280 -1.9763
 1604SOL     OW 5143   3.036   0.688   1.648 -0.5542  0.2978  0.1009
 1604SOL    HW1 5144   2.974   0.760   1.635 -0.0791  0.6421 -0.2833
 1604SOL    HW2 5145   2.985   0.620   1.694 -0.8778  1.0589  0.8867
 1605SOL     OW 5146   4.230   3.021   3.854  0.3994 -0.1465  0.4966
 1605SOL    HW1 5147   4.146   3.056   3.823 -0.2083 -0.3389  1.8496
 1605SOL    HW2 5148   4.207   2.975   3.935  1.7531 -0.5723  0.6422
 1606SOL     OW 5149   4.703   0.110   1.668 -0.2539  0.0951  0.3817
 1606SOL    HW1 5150   4.752   0.185   1.634  0.6215 -1.0745 -1.0029
 1606SOL    HW2 5151   4.723   0.110   1.762 -0.3845  1.6746  0.4244
 1607SOL     OW 5152   5.356   3.899   1.818 -0.8564 -0.5635  0.6553
 1607SOL    HW1 5153   5.294   3.828   1.799  0.4922 -1.5866 -0.0446
 1607SOL    HW2 5154   5.403   3.913   1.736  1.0414 -1.0313  1.6248
 1608SOL     OW 5155   2.880   3.879   2.991  0.1101  0.3950  0.4622
 1608SOL    HW1 5156   2.877   3.789   2.960  1.4650  0.0201  1.3715
 1608SOL    HW2 5157   2.826   3.928   2.930 -0.9670 -1.1103  0.2079
 1609SOL     OW 5158   0.834   4.409   5.062 -0.2115  0.1999  0.4020
 1609SOL    HW1 5159   0.868   4.357   5.135  1.1400  0.0335 -0.3326
 1609SOL    HW2 5160   0.911   4.432   5.011 -1.2047 -0.1532 -1.2899
 1610SOL     OW 5161   0.258   1.431   1.897 -0.3418  0.5434  0.2216
 1610SOL    HW1 5162   0.339   1.386   1.875 -0.8896 -1.4623  2.1327
 1610SOL    HW2 5163   0.203   1.421   1.820  0.2115 -0.5044 -0.0391
 1611SOL     OW 5164   1.872   4.461   0.553  0.6613 -0.0045 -0.3527
 1611SOL    HW1 5165   1.890   4.536   0.498 -1.4889  1.6168  1.0701
 1611SOL    HW2 5166   1.889   4.491   0.642  0.2321 -1.3250  0.2027
 1612SOL     OW 5167   4.633   0.950   2.142  0.0487  0.1745  0.2814
 1612SOL    HW1 5168   4.583   0.882   2.187  0.6791 -0.4681  0.0344
 1612SOL    HW2 5169   4.590   1.032   2.166  0.2054 -0.1719  1.8443
 1613SOL     OW 5170   2.449   2.527   5.036 -0.6944  0.2370 -0.1688
 1613SOL    HW1 5171   2.520   2.517   4.973 -0.9284 -0.1667 -0.3733
 1613SOL    HW2 5172   2.369   2.523   4.983 -0.8800  0.3449  0.1000
 1614SOL     OW 5173   2.034   5.188   1.623  0.0928 -0.1267 -0.0597
 1614SOL    HW1 5174   2.012   5.180   1.530 -1.3599  1.9617  0.0538
 1614SOL    HW2 5175   2.084   5.110   1.643 -1.4848 -1.7136 -2.0843
 1615SOL     OW 5176   5.052   5.133   3.448  0.5790  0.0533  1.1876
 1615SOL    HW1 5177   5.040   5.183   3.367 -0.8198 -3.4691 -0.8810
 1615SOL    HW2 5178   4.964   5.109   3.475  1.2284 -1.5755  1.9380
 1616SOL     OW 5179   3.363   2.428   0.006  0.6806  0.6047 -0.2453
 1616SOL    HW1 5180   3.321   2.389   0.083 -0.7050 -1.0970 -1.7916
 1616SOL    HW2 5181   3.436   2.370  -0.013  0.4670  0.4928 -0.7405
 1617SOL     OW 5182   3.432   0.036   1.837  0.7549  0.3282 -0.2807
 1617SOL    HW1 5183   3.414  -0.042   1.785 -1.4068  0.9559 -0.5332
 1617SOL    HW2 5184   3.353   0.089   1.829  1.5629  1.8193  1.1997
 1618SOL     OW 5185   1.330   0.535   0.257 -0.5093  0.2165  0.2630
 1618SOL    HW1 5186   1.249   0.520   0.208  0.3909  1.2319 -1.5913
 1618SOL    HW2 5187   1.358   0.447   0.284 -1.2306 -0.3246 -0.7191
 1619SOL     OW 5188   0.987   0.895   2.372 -0.2254  0.3931  0.3844
 1619SOL    HW1 5189   0.894   0.919   2.373 -0.4694 -0.5621  0.8071
 1619SOL    HW2 5190   1.032   0.976   2.347 -1.2104  0.7173 -0.3750
 1620SOL     OW 5191   0.683   1.387   1.052 -0.0859  0.3374 -0.4504
 1620SOL    HW1 5192   0.704   1.480   1.049 -1.1263  0.6318  0.8295
 1620SOL    HW2 5193   0.621   1.378   1.125 -0.7753 -1.2032 -1.1837
 1621SOL     OW 5194   2.368   1.437   0.312 -0.0515  0.3708  0.3670
 1621SOL    HW1 5195   2.359   1.357   0.364  0.0389 -0.4271 -0.8207
 1621SOL    HW2 5196   2.399   1.406   0.226 -1.6262  1.4848 -0.6356
 1622SOL     OW 5197   1.562   2.952   2.884 -0.1018  0.0660  0.5496
 1622SOL    HW1 5198   1.553   2.863   2.917  0.5190  0.3605  1.5359
 1622SOL    HW2 5199   1.614   2.997   2.950  1.3319  0.6265 -0.9207
 1623SOL     OW 5200   3.705   4.549   2.783  0.3175  0.3739 -0.1619
 1623SOL    HW1 5201   3.637   4.513   2.726 -0.2334  0.7483  0.2534
 1623SOL    HW2 5202   3.783   4.553   2.728  0.6837 -2.4479  0.0445
 1624SOL     OW 5203   4.956   1.635   2.921  0.0874  0.7013 -0.7989
 1624SOL    HW1 5204   4.903   1.688   2.980  1.5172  0.6491  0.5857
 1624SOL    HW2 5205   4.898   1.612   2.849 -1.1767  2.2790 -0.2935
 1625SOL     OW 5206   3.714   0.751   1.115 -0.2434  0.5150 -0.4239
 1625SOL    HW1 5207   3.706   0.675   1.174  0.0772  0.5370 -0.3541
 1625SOL    HW2 5208   3.808   0.767   1.108 -0.2205 -0.0838 -1.6982
 1626SOL     OW 5209   2.551   0.392   4.553  0.5694 -0.1035  0.6510
 1626SOL    HW1 5210   2.598   0.311   4.573  0.3444 -0.0905  1.2389
 1626SOL    HW2 5211   2.546   0.438   4.637  2.4878  1.4778 -0.0591
 1627SOL     OW 5212   4.555   1.932   3.289 -0.1215  0.3901  0.0984
 1627SOL    HW1 5213   4.571   1.919   3.382  0.5080 -0.0069 -0.0567
 1627SOL    HW2 5214   4.470   1.892   3.272  0.4859 -0.9605  0.1928
 1628SOL     OW 5215   1.338   4.531   4.360  0.0267  0.1475  0.1889
 1628SOL    HW1 5216   1.358   4.518   4.452 -1.2349  0.8079  0.5681
 1628SOL    HW2 5217   1.301   4.619   4.355  0.0104  0.0925 -0.9402
 1629SOL     OW 5218   0.657   1.630   2.023 -0.5306 -0.0633  0.0186
 1629SOL    HW1 5219   0.641   1.543   2.060  1.7301 -1.3764 -1.9508
 1629SOL    HW2 5220   0.677   1.685   2.099  2.6834 -2.3866  0.9767
 1630SOL     OW 5221   2.360   2.673   1.901 -0.4167 -0.4795  0.1308
 1630SOL    HW1 5222   2.428   2.739   1.913 -0.7333 -0.3706  1.4362
 1630SOL    HW2 5223   2.383   2.630   1.819  1.2452 -0.4468  0.5433
 1631SOL     OW 5224   1.173   2.051   5.569 -0.5681 -0.0623  0.0313
 1631SOL    HW1 5225   1.263   2.050   5.601 -0.0774  0.8265 -1.2729
 1631SOL    HW2 5226   1.178   2.016   5.480 -1.3068  1.1403 -0.5046
 1632SOL     OW 5227   1.821   4.811   1.857  0.2260  0.3045 -0.2899
 1632SOL    HW1 5228   1.871   4.732   1.834  2.0247  0.9909  1.1077
 1632SOL    HW2 5229   1.824   4.865   1.778  0.1217 -0.4640 -0.8255
 1633SOL     OW 5230   0.097   4.775   2.291 -0.3709 -0.4065 -0.4779
 1633SOL    HW1 5231   0.130   4.835   2.224 -0.0044 -0.9031 -0.7394
 1633SOL    HW2 5232   0.018   4.737   2.254 -1.6054  1.2153  0.3721
 1634SOL     OW 5233   1.561   0.336   4.390 -0.1309 -0.0718  0.1168
 1634SOL    HW1 5234   1.642   0.286   4.382  0.2046  0.5855 -0.6814
 1634SOL    HW2 5235   1.531   0.320   4.480  0.7050 -0.5856  0.3037
 1635SOL     OW 5236   2.849   1.705   2.430  0.2088 -0.3198 -0.0270
 1635SOL    HW1 5237   2.754   1.700   2.436  0.1923  0.9947  1.1633
 1635SOL    HW2 5238   2.881   1.632   2.484 -0.1220  1.3013  2.4626
 1636SOL     OW 5239   5.193   1.794   0.921  0.6044  0.1638 -0.4604
 1636SOL    HW1 5240   5.230   1.805   1.008  0.0130 -1.8041  0.0571
 1636SOL    HW2 5241   5.109   1.841   0.924  0.9201  0.7084 -0.1967
 1637SOL     OW 5242   3.493   3.539   2.737 -0.2336  0.2300  0.4801
 1637SOL    HW1 5243   3.457   3.451   2.751  0.9655 -0.2056  0.8462
 1637SOL    HW2 5244   3.547   3.556   2.814 -0.6117  1.3768  0.5143
 1638SOL     OW 5245   0.724   1.291   2.785  0.2177 -0.1111 -0.0096
 1638SOL    HW1 5246   0.681   1.279   2.700  1.1542  0.7749 -0.6253
 1638SOL    HW2 5247   0.815   1.265   2.769  0.2171 -0.7071  0.9366
 1639SOL     OW 5248   2.728   0.256   4.877  0.0877 -0.2698  0.4571
 1639SOL    HW1 5249   2.687   0.169   4.872  0.1356 -0.4130  2.1848
 1639SOL    HW2 5250   2.660   0.315   4.845 -0.7217 -0.7233  1.3126
 1640SOL     OW 5251   4.073   1.000   4.575 -0.1962  0.2175 -1.0955
 1640SOL    HW1 5252   4.119   1.077   4.609  0.8204 -1.2084  0.9326
 1640SOL    HW2 5253   4.133   0.964   4.509  0.9860 -0.8243  0.5152
 1641SOL     OW 5254   2.749   1.995   5.428  0.1860 -0.2387  0.2283
 1641SOL    HW1 5255   2.759   1.914   5.378 -1.1571 -0.7523  0.7646
 1641SOL    HW2 5256   2.827   2.000   5.483  1.5938  0.2456 -1.7846
 1642SOL     OW 5257   5.012   2.109   2.717  0.3336 -0.6879  0.7804
 1642SOL    HW1 5258   5.066   2.061   2.780  0.1745 -0.8006  0.8307
 1642SOL    HW2 5259   4.928   2.063   2.717  0.6101 -1.1976 -0.1530
 1643SOL     OW 5260   3.073   2.058   0.582 -0.3472 -0.1178 -0.3933
 1643SOL    HW1 5261   3.031   2.023   0.503  2.0236 -0.6552 -1.4470
 1643SOL    HW2 5262   3.095   1.981   0.634  1.1379  0.0281 -0.7894
 1644SOL     OW 5263   3.823   1.852   2.754  0.8370  0.4443  0.0202
 1644SOL    HW1 5264   3.774   1.903   2.819 -1.2361  0.7805 -1.7453
 1644SOL    HW2 5265   3.851   1.917   2.689 -2.8950 -0.6887 -2.9077
 1645SOL     OW 5266   2.311   2.456   0.266 -0.1809  0.4696 -0.1317
 1645SOL    HW1 5267   2.267   2.479   0.185  0.0759  0.3129 -0.3155
 1645SOL    HW2 5268   2.345   2.539   0.300 -1.4180  0.7398  0.4889
 1646SOL     OW 5269   3.522   1.763   1.675  0.1630 -0.1946  0.7601
 1646SOL    HW1 5270   3.539   1.688   1.618 -0.6058 -0.5263  0.9612
 1646SOL    HW2 5271   3.429   1.784   1.660  0.4433  0.8941  0.4840
 1647SOL     OW 5272   3.976   4.298   4.778  0.4267  0.0914 -0.3202
 1647SOL    HW1 5273   3.998   4.368   4.838 -1.3207  1.4822 -1.2364
 1647SOL    HW2 5274   4.060   4.269   4.741  1.1011  2.1393 -0.4139
 1648SOL     OW 5275   0.740   5.567   1.668  0.3178 -0.0469  0.6213
 1648SOL    HW1 5276   0.702   5.568   1.756 -0.3866 -2.2615  0.3748
 1648SOL    HW2 5277   0.801   5.641   1.667 -1.2970  1.3402  2.2331
 1649SOL     OW 5278   3.370   5.361   2.048 -0.3570 -0.5708 -0.1118
 1649SOL    HW1 5279   3.315   5.370   1.971  0.8336 -0.7834 -0.9918
 1649SOL    HW2 5280   3.445   5.419   2.031 -0.1825 -0.4660  0.9649
 1650SOL     OW 5281   3.383   3.730   2.583 -0.4383  0.2305  0.6903
 1650SOL    HW1 5282   3.413   3.795   2.647 -0.6204  1.3442 -0.3474
 1650SOL    HW2 5283   3.396   3.646   2.627  1.3718  0.8702  1.3995
 1651SOL     OW 5284   3.556   4.635   0.873  0.5365  0.3425  0.2706
 1651SOL    HW1 5285   3.597   4.720   0.853 -0.3131  0.6169 -0.3382
 1651SOL    HW2 5286   3.584   4.578   0.801  0.2696  0.3848  0.1352
 1652SOL     OW 5287   1.783   3.654   1.317 -0.1433 -0.3164  0.5044
 1652SOL    HW1 5288   1.843   3.616   1.253  0.3273  0.7144  0.3211
 1652SOL    HW2 5289   1.799   3.604   1.397 -1.2361 -2.0664 -0.3489
 1653SOL     OW 5290   4.232   4.647   5.404  0.2404  0.5863 -0.0652
 1653SOL    HW1 5291   4.262   4.619   5.317 -1.4483 -0.1576 -0.4391
 1653SOL    HW2 5292   4.306   4.629   5.462  1.0044  0.0858 -1.1710
 1654SOL     OW 5293   0.659   4.413   3.873 -0.0219 -0.2124  0.0013
 1654SOL    HW1 5294   0.687   4.497   3.910 -0.6850  0.4215 -0.9306
 1654SOL    HW2 5295   0.575   4.431   3.831 -1.2223 -1.8240  1.6213
 1655SOL     OW 5296   1.592   4.477   2.108  1.0120  0.3348  0.5581
 1655SOL    HW1 5297   1.651   4.543   2.144  0.9292  0.7859 -0.1119
 1655SOL    HW2 5298   1.608   4.480   2.013  1.0095 -0.6112  0.5231
 1656SOL     OW 5299   3.565   2.703   1.279 -0.0311  0.3991  0.0852
 1656SOL    HW1 5300   3.660   2.714   1.280  0.0087  0.1425 -0.4591
 1656SOL    HW2 5301   3.550   2.622   1.327  0.2293 -0.9005 -1.9519
 1657SOL     OW 5302   5.149   3.658   0.161  0.4530 -0.0694  0.5204
 1657SOL    HW1 5303   5.058   3.636   0.142  0.5458 -0.2181  0.2367
 1657SOL    HW2 5304   5.146   3.746   0.197  0.2228  0.0237  0.2726
 1658SOL     OW 5305   2.634   2.088   0.099 -0.5540 -0.1075  0.1245
 1658SOL    HW1 5306   2.626   2.040   0.017 -1.3828 -1.6040  1.0559
 1658SOL    HW2 5307   2.728   2.094   0.114 -0.4400 -1.9087  0.2494
 1659SOL     OW 5308   2.737   3.600   5.220  0.0424  0.4367 -0.3010
 1659SOL    HW1 5309   2.664   3.540   5.233 -0.2975  0.4888 -1.8405
 1659SOL    HW2 5310   2.807   3.546   5.183  0.4362  0.5814  0.2328
 1660SOL     OW 5311   4.677   3.643   2.642 -0.5737  0.4849  0.1024
 1660SOL    HW1 5312   4.586   3.651   2.615 -0.2894  0.4414 -0.9013
 1660SOL    HW2 5313   4.673   3.622   2.735 -1.5800  0.7621  0.1240
 1661SOL     OW 5314   2.756   1.699   4.643  0.1842  0.4620 -0.5150
 1661SOL    HW1 5315   2.706   1.753   4.705 -1.8904  0.2441 -1.9426
 1661SOL    HW2 5316   2.746   1.610   4.676  2.4651  0.7543  1.0705
 1662SOL     OW 5317   1.579   4.228   5.272  0.3549 -0.1857 -0.0838
 1662SOL    HW1 5318   1.523   4.153   5.289  0.8723 -0.2003  1.6549
 1662SOL    HW2 5319   1.605   4.259   5.359  1.1248  1.2548 -0.8092
 1663SOL     OW 5320   1.102   3.972   3.186 -0.5754 -0.4304 -0.0648
 1663SOL    HW1 5321   1.058   4.039   3.238 -2.5985 -2.1242  0.4686
 1663SOL    HW2 5322   1.033   3.932   3.133  0.4736 -2.4598  0.0299
 1664SOL     OW 5323   5.255   2.918   5.458 -0.5320  0.3306 -0.4882
 1664SOL    HW1 5324   5.279   2.904   5.550  0.1629  0.1814 -0.6925
 1664SOL    HW2 5325   5.170   2.961   5.462 -0.2253  0.8840  0.2401
 1665SOL     OW 5326   1.969   3.972   5.553  0.7988 -0.8251 -0.0086
 1665SOL    HW1 5327   1.905   3.975   5.482  0.2816  0.7914  0.4874
 1665SOL    HW2 5328   1.916   3.976   5.633  1.4618 -0.5798  0.4212
 1666SOL     OW 5329   1.845   1.017   2.312 -0.2594  0.1445 -0.2413
 1666SOL    HW1 5330   1.905   1.068   2.258 -0.7395 -0.1441 -1.0514
 1666SOL    HW2 5331   1.809   0.951   2.252 -0.8720 -0.1078  0.4062
 1667SOL     OW 5332   2.941   3.649   4.647  0.4929 -0.5595  0.2095
 1667SOL    HW1 5333   2.925   3.558   4.622 -0.2712 -0.2559 -0.4480
 1667SOL    HW2 5334   3.028   3.668   4.613  0.1563 -0.6785 -0.7446
 1668SOL     OW 5335   0.045   3.388   2.648 -0.2603 -0.2135  0.1306
 1668SOL    HW1 5336   0.023   3.323   2.580  0.5660  0.3249 -0.6735
 1668SOL    HW2 5337   0.040   3.472   2.602 -3.0303  0.4538  1.6006
 1669SOL     OW 5338   3.057   5.112   0.416  0.3833 -0.3687 -0.2185
 1669SOL    HW1 5339   3.117   5.038   0.406 -0.8339 -1.5683  1.2082
 1669SOL    HW2 5340   2.972   5.078   0.388  0.0838  0.9404 -0.9686
 1670SOL     OW 5341   1.137   1.045   5.185 -0.8141 -0.1149 -0.1989
 1670SOL    HW1 5342   1.058   1.055   5.239 -1.2516  0.3820 -0.9270
 1670SOL    HW2 5343   1.135   0.954   5.156 -0.5646 -0.3925  0.6409
 1671SOL     OW 5344   3.033   2.474   3.404 -0.2097 -0.4499 -0.2887
 1671SOL    HW1 5345   3.092   2.423   3.459  0.4982  0.2462 -0.4086
 1671SOL    HW2 5346   2.963   2.412   3.380 -0.9491 -0.5495  2.0152
 1672SOL     OW 5347   0.917   3.578   1.155 -0.0351  0.4765  0.4227
 1672SOL    HW1 5348   0.867   3.556   1.233  0.1712 -1.5202  0.0188
 1672SOL    HW2 5349   1.008   3.570   1.181  0.0543  0.8866  0.2552
 1673SOL     OW 5350   1.115   4.794   3.743 -0.0970 -0.8664 -0.1623
 1673SOL    HW1 5351   1.053   4.775   3.672  0.0552  0.2866 -0.6129
 1673SOL    HW2 5352   1.200   4.804   3.699 -0.3088  1.7027 -0.0807
 1674SOL     OW 5353   4.077   5.019   2.127  0.2711 -0.3101  0.5559
 1674SOL    HW1 5354   4.052   4.983   2.212  1.0032 -0.0298  0.8962
 1674SOL    HW2 5355   4.151   4.965   2.099  1.6010  1.1019  1.2307
 1675SOL     OW 5356   3.978   0.786   1.118  0.2967 -0.4330 -0.1302
 1675SOL    HW1 5357   4.000   0.756   1.207  0.7607 -0.0431 -0.1098
 1675SOL    HW2 5358   4.053   0.759   1.065 -0.2364 -1.1724 -0.5159
 1676SOL     OW 5359   4.284   3.469   3.387  0.6990 -0.3650 -0.4533
 1676SOL    HW1 5360   4.250   3.404   3.326  0.1826 -1.2036  0.7121
 1676SOL    HW2 5361   4.221   3.541   3.384  0.1972 -0.7972 -0.2429
 1677SOL     OW 5362   2.224   2.212   1.823  0.2804  0.0897 -0.1721
 1677SOL    HW1 5363   2.146   2.179   1.868 -1.7298  3.0407 -1.3321
 1677SOL    HW2 5364   2.259   2.279   1.883 -0.0268  1.1321 -1.1517
 1678SOL     OW 5365   2.312   4.000   3.978  0.1372 -0.5416  0.2529
 1678SOL    HW1 5366   2.217   4.004   3.993 -0.1559 -1.4451 -1.2028
 1678SOL    HW2 5367   2.320   3.981   3.884  1.7721 -0.1905  0.3121
 1679SOL     OW 5368   1.554   1.084   3.866 -0.1480 -0.0598  0.0484
 1679SOL    HW1 5369   1.488   1.014   3.875 -0.7075  0.6934  2.2258
 1679SOL    HW2 5370   1.518   1.156   3.917  0.4019  1.8793 -2.2443
 1680SOL     OW 5371   2.569   3.117   3.603 -0.1012 -0.1069  0.0970
 1680SOL    HW1 5372   2.499   3.070   3.557  2.1796  0.5834 -4.3306
 1680SOL    HW2 5373   2.549   3.210   3.590  0.3932  0.1081  0.8165
 1681SOL     OW 5374   1.652   1.017   1.591  0.3038  0.0051 -0.1351
 1681SOL    HW1 5375   1.676   0.997   1.501 -0.1942  0.2919 -0.3338
 1681SOL    HW2 5376   1.603   1.099   1.586 -1.1321 -0.8103  0.1932
 1682SOL     OW 5377   1.949   1.517   0.182 -0.6178  0.4191  0.7614
 1682SOL    HW1 5378   1.979   1.442   0.131  0.3590  0.0529  1.8604
 1682SOL    HW2 5379   2.021   1.580   0.176  0.0028 -0.0926  2.6433
 1683SOL     OW 5380   5.203   2.828   2.037 -0.1544 -0.0556 -0.1254
 1683SOL    HW1 5381   5.213   2.907   1.985 -0.6661  0.1579  0.0963
 1683SOL    HW2 5382   5.267   2.837   2.107 -0.8952  0.6356  0.4755
 1684SOL     OW 5383   1.803   1.269   1.394 -0.4484 -0.6873 -0.2044
 1684SOL    HW1 5384   1.843   1.233   1.473 -0.5973 -0.4607 -0.0262
 1684SOL    HW2 5385   1.835   1.360   1.391  1.1808 -1.2662 -1.4796
 1685SOL     OW 5386   1.656   4.037   3.920 -0.4021  0.7269  0.4064
 1685SOL    HW1 5387   1.748   4.060   3.929 -0.0306  0.4484 -2.1814
 1685SOL    HW2 5388   1.609   4.107   3.966  0.9449  3.3315 -2.0414
 1686SOL     OW 5389   1.800   1.810   3.567 -0.1295 -0.7744 -0.4288
 1686SOL    HW1 5390   1.814   1.756   3.645  1.1170  0.0546 -0.0717
 1686SOL    HW2 5391   1.745   1.883   3.598 -0.8695 -1.2343 -0.6580
 1687SOL     OW 5392   3.188   0.409   3.449 -0.2334 -0.1942 -0.4304
 1687SOL    HW1 5393   3.103   0.399   3.492  0.0725 -1.1908 -0.0346
 1687SOL    HW2 5394   3.178   0.485   3.391 -1.2513 -0.0437 -0.0556
 1688SOL     OW 5395   2.761   4.323   1.011 -0.3270 -0.3385 -0.1998
 1688SOL    HW1 5396   2.724   4.326   0.923  0.0582 -0.6910 -0.3775
 1688SOL    HW2 5397   2.711   4.255   1.056 -0.9575  0.2895  0.0599
 1689SOL     OW 5398   3.874   2.950   0.594  0.1097 -0.0704  0.0811
 1689SOL    HW1 5399   3.894   2.994   0.512 -1.5227 -0.5166 -0.5583
 1689SOL    HW2 5400   3.853   2.860   0.569 -2.0517  0.2216  0.7961
 1690SOL     OW 5401   2.262   0.318   0.356  0.9375  0.4086 -0.3737
 1690SOL    HW1 5402   2.224   0.307   0.443  0.1355  0.5670 -0.6983
 1690SOL    HW2 5403   2.236   0.240   0.308  1.3286  0.3504 -0.4973
 1691SOL     OW 5404   0.432   1.291   1.748 -0.9527 -0.3552  0.4633
 1691SOL    HW1 5405   0.414   1.304   1.655  0.7381  0.1480  0.1822
 1691SOL    HW2 5406   0.414   1.198   1.763 -0.5795 -0.5890 -0.5283
 1692SOL     OW 5407   4.944   2.707   0.714 -0.6133  0.0136  0.2797
 1692SOL    HW1 5408   4.992   2.642   0.766  0.0838  0.4173  0.1482
 1692SOL    HW2 5409   4.855   2.703   0.747 -0.3766 -0.3918  0.8797
 1693SOL     OW 5410   5.094   2.860   3.586  0.6430 -0.4812 -0.5335
 1693SOL    HW1 5411   5.093   2.884   3.679 -0.2522 -0.1971 -0.6084
 1693SOL    HW2 5412   5.144   2.779   3.583  0.0060 -0.9183  0.3132
 1694SOL     OW 5413   2.069   3.645   2.602  0.3560  0.0060  0.1998
 1694SOL    HW1 5414   2.092   3.561   2.642 -2.1442 -0.9573 -0.2905
 1694SOL    HW2 5415   2.032   3.696   2.674  0.1923  0.0088  0.1135
 1695SOL     OW 5416   5.197   2.363   3.082  0.0917  0.5787  0.2859
 1695SOL    HW1 5417   5.141   2.313   3.141 -0.0670 -0.4437 -0.7166
 1695SOL    HW2 5418   5.232   2.298   3.020  0.6095  1.5571 -0.4716
 1696SOL     OW 5419   3.685   3.789   4.033  0.3659  0.2808 -0.6312
 1696SOL    HW1 5420   3.595   3.819   4.020  0.4485  1.7583  1.9211
 1696SOL    HW2 5421   3.678   3.721   4.101  1.1694  0.3429 -0.4837
 1697SOL     OW 5422   0.706   0.941   4.271 -0.0307  0.1549 -0.0244
 1697SOL    HW1 5423   0.790   0.900   4.252 -0.4218 -0.3970 -0.5713
 1697SOL    HW2 5424   0.680   0.903   4.355 -0.1719 -0.3779 -0.3060
 1698SOL     OW 5425   1.507   1.210   4.146 -0.7502 -0.0955 -0.2062
 1698SOL    HW1 5426   1.515   1.121   4.180 -2.5064 -0.4171 -0.5472
 1698SOL    HW2 5427   1.521   1.267   4.222  0.4599 -0.6613 -0.0050
 1699SOL     OW 5428   3.125   5.289   3.694  0.4692 -0.0548  0.5989
 1699SOL    HW1 5429   3.037   5.280   3.730  0.1644 -0.4056 -0.2137
 1699SOL    HW2 5430   3.160   5.368   3.735  0.6654 -1.2094  2.7421
 1700SOL     OW 5431   3.427   0.293   4.624  0.4887 -0.4576 -0.6635
 1700SOL    HW1 5432   3.366   0.269   4.555 -0.3080  1.4174 -0.6571
 1700SOL    HW2 5433   3.506   0.321   4.578  0.3325 -0.2090 -0.7800
 1701SOL     OW 5434   1.311   5.330   3.834  0.6018 -0.0211 -0.1901
 1701SOL    HW1 5435   1.306   5.350   3.741 -1.3350  0.4231 -0.0040
 1701SOL    HW2 5436   1.261   5.399   3.877 -0.7545 -1.6688  0.9612
 1702SOL     OW 5437   2.012   4.638   5.325 -0.1443  0.0759  0.5603
 1702SOL    HW1 5438   2.044   4.549   5.314  0.2278  0.3999 -1.0632
 1702SOL    HW2 5439   1.918   4.632   5.307 -0.0659  0.0618  0.1519
 1703SOL     OW 5440   4.087   3.248   3.511  0.4093 -0.1909  0.2294
 1703SOL    HW1 5441   4.010   3.305   3.507  0.0243 -0.7716 -0.8400
 1703SOL    HW2 5442   4.127   3.256   3.424  1.1606 -0.4338  0.5527
 1704SOL     OW 5443   1.044   4.206   1.964 -0.0534 -0.1256  0.7231
 1704SOL    HW1 5444   1.009   4.294   1.949 -1.0717 -0.1934  2.5706
 1704SOL    HW2 5445   1.130   4.207   1.922 -0.3218  1.5368  0.1655
 1705SOL     OW 5446   4.205   1.117   1.091  0.2894 -0.0881  1.0002
 1705SOL    HW1 5447   4.248   1.203   1.093 -1.3064  0.8211 -1.5406
 1705SOL    HW2 5448   4.111   1.137   1.091 -0.1105 -1.8572  0.8898
 1706SOL     OW 5449   0.211   4.565   4.637  0.3015  0.2123 -0.3482
 1706SOL    HW1 5450   0.195   4.486   4.690 -1.6337  0.3868 -0.6408
 1706SOL    HW2 5451   0.281   4.611   4.684  0.1741 -0.7510  0.8305
 1707SOL     OW 5452   2.067   4.536   4.651 -0.2165  0.2848 -0.1739
 1707SOL    HW1 5453   2.156   4.547   4.685 -0.2866  0.0864  0.0693
 1707SOL    HW2 5454   2.080   4.508   4.560 -0.0249 -0.8840  0.2056
 1708SOL     OW 5455   0.794   1.660   2.916 -0.3593 -0.1896 -0.2642
 1708SOL    HW1 5456   0.822   1.752   2.919  2.0231 -0.8973  0.7961
 1708SOL    HW2 5457   0.766   1.640   3.005  0.5250 -0.8744 -0.1295
 1709SOL     OW 5458   5.197   4.379   1.323 -0.2788  0.7958  0.4136
 1709SOL    HW1 5459   5.242   4.340   1.248 -0.5153  1.0610  0.1295
 1709SOL    HW2 5460   5.111   4.336   1.325 -0.0247  0.3091  0.9387
 1710SOL     OW 5461   2.082   1.325   3.150 -0.6988 -0.2934  0.0461
 1710SOL    HW1 5462   2.025   1.402   3.155 -1.6770 -1.0157  0.1575
 1710SOL    HW2 5463   2.164   1.358   3.114 -1.5043  0.5970 -0.9988
 1711SOL     OW 5464   3.348   2.726   4.831  0.1172  0.0905  0.0726
 1711SOL    HW1 5465   3.317   2.678   4.754 -1.6638  1.0937  0.1377
 1711SOL    HW2 5466   3.268   2.750   4.878  1.2008 -1.2782  2.7233
 1712SOL     OW 5467   5.193   3.604   2.917 -0.4196  0.0071  0.5330
 1712SOL    HW1 5468   5.274   3.609   2.967 -0.6214  0.7483  0.7843
 1712SOL    HW2 5469   5.171   3.511   2.916  1.6030 -0.4860 -1.3873
 1713SOL     OW 5470   4.685   1.819   4.416  0.2279 -0.2789  0.2158
 1713SOL    HW1 5471   4.646   1.734   4.396 -0.9929  0.5141 -0.8341
 1713SOL    HW2 5472   4.679   1.825   4.512 -0.6332 -0.9269  0.2115
 1714SOL     OW 5473   3.964   1.763   5.520  0.0901 -0.3915  0.1842
 1714SOL    HW1 5474   4.058   1.751   5.507 -0.1085  0.2429 -2.1456
 1714SOL    HW2 5475   3.934   1.681   5.558  1.8451  0.0234  2.5600
 1715SOL     OW 5476   4.808   0.148   4.276  0.4200 -0.1297  0.1347
 1715SOL    HW1 5477   4.730   0.092   4.273  0.0421  0.3599  0.6562
 1715SOL    HW2 5478   4.842   0.147   4.187 -1.8904  2.0467 -0.8315
 1716SOL     OW 5479   2.709   1.688   3.500 -0.4620  0.0026  0.0984
 1716SOL    HW1 5480   2.719   1.656   3.589  1.7789  1.7815  0.5603
 1716SOL    HW2 5481   2.773   1.638   3.449 -1.5477 -0.8240 -0.4566
 1717SOL     OW 5482   1.320   3.888   5.086  0.0351  0.0601  0.1507
 1717SOL    HW1 5483   1.241   3.838   5.110 -0.2876  0.6629  0.3400
 1717SOL    HW2 5484   1.356   3.840   5.012 -0.0781 -0.6669  0.5530
 1718SOL     OW 5485   1.666   2.561   1.552 -0.0954 -0.0069 -0.2608
 1718SOL    HW1 5486   1.586   2.589   1.506 -0.2783  1.8768  1.1869
 1718SOL    HW2 5487   1.653   2.589   1.642  1.7186 -0.7571  0.2460
 1719SOL     OW 5488   4.475   4.390   1.754 -0.2464  0.5111 -0.3903
 1719SOL    HW1 5489   4.544   4.439   1.798 -0.2812 -1.0605  1.4639
 1719SOL    HW2 5490   4.401   4.451   1.749  0.2083  1.1394  0.5316
 1720SOL     OW 5491   1.374   1.202   5.217  0.4821 -0.6426  0.4123
 1720SOL    HW1 5492   1.283   1.174   5.207 -0.3031  1.3346  1.7901
 1720SOL    HW2 5493   1.383   1.274   5.155  1.1897 -0.9944  0.1034
 1721SOL     OW 5494   5.197   5.507   4.529  0.1627  0.4473  0.1639
 1721SOL    HW1 5495   5.277   5.459   4.551 -0.1886  0.0410  0.5719
 1721SOL    HW2 5496   5.224   5.599   4.526 -0.2394  0.8230  4.6525
 1722SOL     OW 5497   0.641   5.285   2.656 -0.0119  0.2906  0.0971
 1722SOL    HW1 5498   0.618   5.192   2.660 -0.0315  0.2360 -1.1700
 1722SOL    HW2 5499   0.556   5.330   2.653 -0.0101  0.3833  1.2912
 1723SOL     OW 5500   4.002   0.250   2.738 -0.2725 -0.4362  0.2362
 1723SOL    HW1 5501   4.092   0.217   2.744 -0.4779 -1.4482 -1.9421
 1723SOL    HW2 5502   4.012   0.341   2.709  0.0818 -0.0263  1.5709
 1724SOL     OW 5503   4.673   5.096   0.952  0.2072 -0.1020  0.2788
 1724SOL    HW1 5504   4.729   5.156   1.001 -0.4388 -0.0311  0.9250
 1724SOL    HW2 5505   4.733   5.053   0.891  0.7350  0.9590  0.0306
 1725SOL     OW 5506   0.154   1.120   4.575 -0.1454 -0.5085  0.3615
 1725SOL    HW1 5507   0.183   1.109   4.665 -0.0530 -3.2516  0.0601
 1725SOL    HW2 5508   0.074   1.172   4.582  0.7754  0.7328  1.8649
 1726SOL     OW 5509   3.416   3.923   2.797 -0.3544  0.3549 -0.0905
 1726SOL    HW1 5510   3.322   3.919   2.815  0.0910 -1.2366  2.1506
 1726SOL    HW2 5511   3.447   3.999   2.846  0.0097 -0.9528  1.7573
 1727SOL     OW 5512   4.987   0.301   1.371  0.4927 -0.5056 -0.3942
 1727SOL    HW1 5513   5.014   0.212   1.392  1.2428 -0.0938  0.4273
 1727SOL    HW2 5514   4.921   0.323   1.438  0.7845 -0.2124 -0.2026
 1728SOL     OW 5515   0.611   2.986   2.868  0.3707  0.0688  0.3334
 1728SOL    HW1 5516   0.533   2.994   2.924  0.3396  0.3494  0.2468
 1728SOL    HW2 5517   0.638   2.894   2.879  0.7548  0.2909  1.3302
 1729SOL     OW 5518   1.096   0.212   5.503 -0.1316  0.5713  0.5199
 1729SOL    HW1 5519   1.001   0.225   5.494  0.0395  1.6980  0.2568
 1729SOL    HW2 5520   1.135   0.287   5.458  0.9051 -0.3121 -0.0913
 1730SOL     OW 5521   3.641   1.959   5.415  0.2525  0.1263 -0.1779
 1730SOL    HW1 5522   3.626   1.973   5.508 -1.2480  0.9726 -0.5298
 1730SOL    HW2 5523   3.612   1.870   5.398 -2.0862  0.8815 -0.3420
 1731SOL     OW 5524   0.412   0.480   0.573 -0.0149 -0.0462  0.1869
 1731SOL    HW1 5525   0.508   0.486   0.568 -0.0020  0.3027  0.7981
 1731SOL    HW2 5526   0.396   0.414   0.641 -0.2073 -1.4129 -1.1492
 1732SOL     OW 5527   3.181   4.802   2.744 -0.1687 -0.2206 -0.0025
 1732SOL    HW1 5528   3.194   4.869   2.677  0.1796 -0.5327 -0.2479
 1732SOL    HW2 5529   3.098   4.826   2.786 -0.1357  0.2600 -0.2081
 1733SOL     OW 5530   3.218   2.487   2.174 -0.1007  0.3387  0.6319
 1733SOL    HW1 5531   3.294   2.460   2.123 -1.4574 -0.6765 -0.9137
 1733SOL    HW2 5532   3.159   2.411   2.171 -1.3977  1.2902  1.3573
 1734SOL     OW 5533   2.145   5.223   2.372  0.0232 -0.3239  0.3791
 1734SOL    HW1 5534   2.111   5.310   2.392 -0.7960 -0.5171 -0.1259
 1734SOL    HW2 5535   2.076   5.182   2.318 -0.8226 -2.2945  2.8722
 1735SOL     OW 5536   1.617   4.210   2.046  0.2870 -0.7043 -0.3454
 1735SOL    HW1 5537   1.535   4.165   2.025  0.6493 -1.6426  0.1934
 1735SOL    HW2 5538   1.594   4.273   2.114  0.2020 -1.7189  0.5838
 1736SOL     OW 5539   0.540   0.392   4.796  0.1603 -0.3866  0.1931
 1736SOL    HW1 5540   0.535   0.443   4.876  1.4673  0.4178 -0.2274
 1736SOL    HW2 5541   0.583   0.310   4.822 -0.3194 -0.5423  0.5039
 1737SOL     OW 5542   1.698   3.892   1.146  0.7430  0.0331  0.1797
 1737SOL    HW1 5543   1.739   3.866   1.228  1.0762  0.0279  0.0128
 1737SOL    HW2 5544   1.673   3.809   1.104 -0.2467  0.0684  0.6913
 1738SOL     OW 5545   4.003   4.980   3.115 -0.1138 -0.7769  0.5717
 1738SOL    HW1 5546   3.972   5.003   3.027 -1.4216  0.6486  1.3572
 1738SOL    HW2 5547   4.016   4.886   3.113  0.7534 -0.6334 -1.4166
 1739SOL     OW 5548   1.847   0.101   2.534 -0.5109  0.5122 -0.4703
 1739SOL    HW1 5549   1.880   0.029   2.586  0.0129  0.3992 -0.9496
 1739SOL    HW2 5550   1.866   0.179   2.586 -0.3675  0.3688 -0.3079
 1740SOL     OW 5551   0.132   3.843   4.733  0.4636  0.5390  0.0642
 1740SOL    HW1 5552   0.086   3.927   4.729 -2.6683 -1.1344 -1.4991
 1740SOL    HW2 5553   0.076   3.789   4.789  1.9817 -0.7665  0.3394
 1741SOL     OW 5554   2.706   1.292   4.961 -0.7246 -0.1234  0.0091
 1741SOL    HW1 5555   2.629   1.291   5.017 -0.3889  1.4890  0.5277
 1741SOL    HW2 5556   2.687   1.358   4.894 -0.4714 -0.9020 -0.8490
 1742SOL     OW 5557   1.840   3.106   4.496  0.0002  0.2987 -0.4092
 1742SOL    HW1 5558   1.836   3.173   4.427  2.1701  1.5999  0.6771
 1742SOL    HW2 5559   1.810   3.151   4.575  2.0024  0.1536  0.4493
 1743SOL     OW 5560   1.680   1.891   4.298 -0.0662  0.4644 -0.0396
 1743SOL    HW1 5561   1.685   1.919   4.389  1.1277 -1.3369  0.4583
 1743SOL    HW2 5562   1.764   1.917   4.261  0.8654 -1.9940  0.3034
 1744SOL     OW 5563   0.171   2.214   0.589  0.7572  0.1338 -0.3204
 1744SOL    HW1 5564   0.090   2.164   0.592 -0.3190  1.7640 -1.3427
 1744SOL    HW2 5565   0.207   2.206   0.677  0.0780 -1.5329 -0.1716
 1745SOL     OW 5566   0.590   5.406   4.362 -0.1594 -0.0691 -0.6006
 1745SOL    HW1 5567   0.497   5.388   4.374 -0.0652 -0.3595 -0.3077
 1745SOL    HW2 5568   0.606   5.487   4.411 -0.4017  0.3473 -1.2101
 1746SOL     OW 5569   1.474   1.073   3.542  0.4665  0.5639 -0.2041
 1746SOL    HW1 5570   1.509   1.117   3.620 -0.3000  0.6030  0.1316
 1746SOL    HW2 5571   1.379   1.073   3.556  0.4629 -1.3535 -0.1323
 1747SOL     OW 5572   0.405   0.841   1.157  0.1613 -0.1368  0.6645
 1747SOL    HW1 5573   0.486   0.815   1.112 -1.0054 -1.3557 -0.8077
 1747SOL    HW2 5574   0.388   0.930   1.126  0.5689 -0.1426  0.4216
 1748SOL     OW 5575   4.474   1.364   1.844 -0.2354  0.0133 -0.5461
 1748SOL    HW1 5576   4.541   1.296   1.845 -0.6656 -0.4038  1.0609
 1748SOL    HW2 5577   4.420   1.343   1.768 -1.9782 -3.0854  1.4509
 1749SOL     OW 5578   3.216   0.882   4.001  0.0685 -0.2085 -0.3662
 1749SOL    HW1 5579   3.146   0.908   3.941  0.3614  0.7076 -0.3139
 1749SOL    HW2 5580   3.285   0.848   3.944 -0.3209 -0.8884 -0.4348
 1750SOL     OW 5581   3.190   1.558   2.385 -0.3001 -0.1509  0.3444
 1750SOL    HW1 5582   3.188   1.629   2.321  2.1191 -0.0012  0.3877
 1750SOL    HW2 5583   3.170   1.600   2.469 -0.5577  0.1678  0.1238
 1751SOL     OW 5584   4.285   4.479   4.989  0.5694 -0.0912 -0.2488
 1751SOL    HW1 5585   4.195   4.503   4.967  0.0668 -2.9460 -1.5818
 1751SOL    HW2 5586   4.276   4.394   5.034  2.5933 -0.3373 -0.2619
 1752SOL     OW 5587   5.243   0.096   5.259  0.3242 -0.4142  0.0744
 1752SOL    HW1 5588   5.195   0.174   5.286  0.1448 -1.3290  2.5551
 1752SOL    HW2 5589   5.285   0.065   5.340  0.0068 -3.1285 -0.7606
 1753SOL     OW 5590   3.050   1.110   0.967 -0.2923  0.3631  0.6119
 1753SOL    HW1 5591   3.067   1.096   1.061  0.3043  0.5862  0.5399
 1753SOL    HW2 5592   2.959   1.083   0.955 -1.1657  2.6686  1.7572
 1754SOL     OW 5593   5.316   2.206   3.646 -0.0746 -0.4900  0.2450
 1754SOL    HW1 5594   5.232   2.181   3.684 -0.6019  3.1697  1.7244
 1754SOL    HW2 5595   5.293   2.255   3.567  0.7647 -1.3165 -0.5275
 1755SOL     OW 5596   1.430   5.562   4.256  0.3040 -0.1753  0.5213
 1755SOL    HW1 5597   1.500   5.556   4.191  1.4783  0.3244  1.7054
 1755SOL    HW2 5598   1.366   5.621   4.217  1.6695  1.2745  0.3900
 1756SOL     OW 5599   3.338   3.309   2.793  0.2175  0.2791  0.9447
 1756SOL    HW1 5600   3.402   3.288   2.862 -0.3264  0.3345  1.4650
 1756SOL    HW2 5601   3.255   3.278   2.827  0.0266 -0.2055  0.0671
 1757SOL     OW 5602   0.210   3.698   1.296  0.0293 -0.4323  0.1621
 1757SOL    HW1 5603   0.249   3.629   1.351  0.9656 -0.4369 -0.4849
 1757SOL    HW2 5604   0.116   3.687   1.307  0.1868 -1.1992  0.8261
 1758SOL     OW 5605   1.011   4.181   4.423 -0.6710  0.2281  0.0650
 1758SOL    HW1 5606   0.995   4.146   4.335  0.8873  0.9178 -0.5238
 1758SOL    HW2 5607   0.982   4.272   4.418 -1.2820  0.0552  0.4902
 1759SOL     OW 5608   5.562   5.102   1.443 -0.7408  0.3755  0.4460
 1759SOL    HW1 5609   5.469   5.120   1.455 -0.5593  0.0319  2.7246
 1759SOL    HW2 5610   5.606   5.171   1.494  0.1792 -0.6226  1.0314
 1760SOL     OW 5611   2.575   1.242   4.154  0.3752 -0.5056  0.3004
 1760SOL    HW1 5612   2.580   1.152   4.188 -0.0725 -0.6542 -0.0210
 1760SOL    HW2 5613   2.601   1.234   4.062 -1.1177 -0.5520 -0.1395
 1761SOL     OW 5614   2.675   0.156   2.994 -0.8639  0.2604  0.8461
 1761SOL    HW1 5615   2.671   0.243   3.032  1.1971  0.5813  0.3430
 1761SOL    HW2 5616   2.583   0.131   2.982 -1.4608  2.5181  0.5922
 1762SOL     OW 5617   4.824   0.339   4.472 -0.5657 -0.0605 -0.8437
 1762SOL    HW1 5618   4.841   0.277   4.543 -1.0796  0.4179 -0.3034
 1762SOL    HW2 5619   4.824   0.285   4.393  0.7273 -0.4796 -0.5639
 1763SOL     OW 5620   2.885   0.328   4.328  0.3655  0.4646  0.9554
 1763SOL    HW1 5621   2.919   0.405   4.373 -0.0966  0.1054  1.9383
 1763SOL    HW2 5622   2.793   0.349   4.311  0.6310  0.7450 -0.1550
 1764SOL     OW 5623   2.273   4.423   3.827  0.4485  0.3273  0.1374
 1764SOL    HW1 5624   2.350   4.448   3.776  0.1864 -0.8132 -0.8428
 1764SOL    HW2 5625   2.201   4.426   3.764  0.0708 -0.7896  0.5052
 1765SOL     OW 5626   4.289   0.440   2.457 -0.0089 -0.0778 -0.4683
 1765SOL    HW1 5627   4.288   0.533   2.436  0.3115 -0.4764 -2.3191
 1765SOL    HW2 5628   4.199   0.420   2.484  0.4919  1.2681  2.4327
 1766SOL     OW 5629   2.276   3.347   4.605 -0.2243  0.3900  0.3190
 1766SOL    HW1 5630   2.275   3.263   4.652 -1.6012  0.7475  0.9433
 1766SOL    HW2 5631   2.217   3.403   4.655 -1.1383  1.0077 -1.4160
 1767SOL     OW 5632   5.266   2.828   0.182 -0.1126  0.1995 -0.7635
 1767SOL    HW1 5633   5.194   2.831   0.246  0.9927  1.4222  0.4679
 1767SOL    HW2 5634   5.269   2.737   0.154 -1.7584  0.0077 -0.3909
 1768SOL     OW 5635   3.599   5.244   2.950 -0.2399 -0.0832  0.1428
 1768SOL    HW1 5636   3.578   5.262   2.858 -0.6654  0.3917  0.3362
 1768SOL    HW2 5637   3.579   5.151   2.960  0.9429 -0.4302 -0.5608
 1769SOL     OW 5638   1.248   2.410   0.004  0.0580  0.0021  0.0010
 1769SOL    HW1 5639   1.209   2.359  -0.067 -0.6965 -0.8255  0.9954
 1769SOL    HW2 5640   1.339   2.425  -0.025 -0.2034 -0.4236 -1.0759
 1770SOL     OW 5641   4.987   3.639   1.630 -0.0274  0.5679  0.2228
 1770SOL    HW1 5642   4.937   3.588   1.566  0.5566  0.2294  0.0312
 1770SOL    HW2 5643   5.007   3.721   1.584  0.3972  0.3224 -0.0327
 1771SOL     OW 5644   0.038   2.592   2.657 -0.3949 -0.3117  0.4391
 1771SOL    HW1 5645   0.118   2.567   2.610 -1.1629 -0.3823 -0.8448
 1771SOL    HW2 5646   0.063   2.672   2.704  0.2878 -0.0324 -0.3788
 1772SOL     OW 5647   3.209   2.183   1.722 -0.1005  0.6230  0.0651
 1772SOL    HW1 5648   3.211   2.140   1.808 -1.7042 -0.0865 -0.2409
 1772SOL    HW2 5649   3.186   2.273   1.741 -0.0231  0.5704  0.4132
 1773SOL     OW 5650   3.789   5.061   0.446 -0.2342 -0.7629 -0.0130
 1773SOL    HW1 5651   3.696   5.049   0.430 -0.9532  2.5303  1.3481
 1773SOL    HW2 5652   3.808   5.006   0.522 -2.0384  1.6164  2.2491
 1774SOL     OW 5653   0.678   0.004   3.448  0.4036 -0.2525  0.0039
 1774SOL    HW1 5654   0.710  -0.020   3.535 -1.3817  0.1220  0.7893
 1774SOL    HW2 5655   0.681  -0.077   3.397 -1.3934 -1.1866  1.3294
 1775SOL     OW 5656   3.472   5.106   0.405 -0.2201 -0.2723  0.0763
 1775SOL    HW1 5657   3.397   5.051   0.384 -0.4032 -0.5758  1.4894
 1775SOL    HW2 5658   3.505   5.136   0.320 -1.9007 -0.1685 -0.5436
 1776SOL     OW 5659   4.448   4.684   3.610  0.0533 -0.2657 -0.9831
 1776SOL    HW1 5660   4.479   4.597   3.634  0.6210  0.4890  1.1561
 1776SOL    HW2 5661   4.525   4.728   3.574  0.0117 -0.3160 -1.1335
 1777SOL     OW 5662   1.747   1.417   2.685  0.3681  0.2590  0.4262
 1777SOL    HW1 5663   1.684   1.485   2.707  0.8640  0.4034  1.3942
 1777SOL    HW2 5664   1.696   1.354   2.634 -0.1242  1.2762 -0.3752
 1778SOL     OW 5665   4.016   3.601   0.504 -0.2407  0.2932  0.1041
 1778SOL    HW1 5666   4.030   3.690   0.536  0.3011  0.6281 -1.0630
 1778SOL    HW2 5667   3.939   3.570   0.552 -0.0680  1.1698  0.9498
 1779SOL     OW 5668   0.066   3.241   3.467 -0.4215  0.4962 -0.0210
 1779SOL    HW1 5669   0.145   3.196   3.439  0.3381  0.9055  1.4268
 1779SOL    HW2 5670   0.097   3.326   3.499 -1.4956  0.8428  0.1122
 1780SOL     OW 5671   3.352   2.640   0.844 -0.0209 -0.0737  0.1305
 1780SOL    HW1 5672   3.414   2.692   0.792 -0.3465 -0.1861 -0.3733
 1780SOL    HW2 5673   3.290   2.704   0.878 -0.0548 -0.0546  0.0326
 1781SOL     OW 5674   2.010   2.642   0.339  0.0889  0.1807 -0.4489
 1781SOL    HW1 5675   1.947   2.700   0.380 -1.9229 -1.7708 -0.7004
 1781SOL    HW2 5676   2.040   2.585   0.410  0.1725 -0.1178 -0.7215
 1782SOL     OW 5677   1.905   5.066   3.672  0.2601  0.1379 -0.5531
 1782SOL    HW1 5678   1.977   5.003   3.661  0.4873  0.2351  0.3319
 1782SOL    HW2 5679   1.944   5.151   3.651  1.0280  0.4872  2.0700
 1783SOL     OW 5680   5.489   0.047   4.814 -1.1162  0.3140 -0.4104
 1783SOL    HW1 5681   5.535   0.077   4.737  0.8459 -1.7422 -0.0789
 1783SOL    HW2 5682   5.527   0.096   4.886 -1.5644  0.7910 -0.4936
 1784SOL     OW 5683   4.560   0.578   0.437 -0.1583 -0.1408 -0.1145
 1784SOL    HW1 5684   4.489   0.612   0.383  0.7128 -0.0416 -1.2175
 1784SOL    HW2 5685   4.531   0.491   0.463  0.5707 -1.3227 -3.0453
 1785SOL     OW 5686   0.148   1.623   3.645  0.2938  0.0843  0.3276
 1785SOL    HW1 5687   0.234   1.665   3.654  0.9700 -1.0681 -0.7504
 1785SOL    HW2 5688   0.090   1.694   3.617  1.0502  0.6995  0.2875
 1786SOL     OW 5689   4.827   1.923   3.758  0.1828 -0.2377 -0.1170
 1786SOL    HW1 5690   4.868   1.906   3.843  0.5273  1.1823  0.0231
 1786SOL    HW2 5691   4.871   2.002   3.727 -2.8431  1.6881  0.3156
 1787SOL     OW 5692   1.172   1.852   3.254  0.8159  0.1560 -0.1459
 1787SOL    HW1 5693   1.255   1.889   3.225 -0.4509  1.9484 -1.5280
 1787SOL    HW2 5694   1.121   1.841   3.174  0.1790 -2.2059  0.5267
 1788SOL     OW 5695   3.010   0.546   4.675 -0.1126  0.3009  0.2100
 1788SOL    HW1 5696   2.983   0.549   4.583 -0.4184 -0.7396  0.2528
 1788SOL    HW2 5697   3.014   0.637   4.702  0.9793  0.6622 -1.1177
 1789SOL     OW 5698   1.632   2.174   0.717 -0.3225  0.2017 -0.2210
 1789SOL    HW1 5699   1.561   2.238   0.717  0.0606  0.6382 -1.2609
 1789SOL    HW2 5700   1.589   2.090   0.725 -0.8181  0.6052  1.4884
 1790SOL     OW 5701   3.434   4.389   5.358  0.0938  0.2416  0.1389
 1790SOL    HW1 5702   3.427   4.457   5.291 -0.1868  0.4138  0.3415
 1790SOL    HW2 5703   3.502   4.330   5.326 -0.0579  0.3112 -0.3125
 1791SOL     OW 5704   5.259   2.298   1.239 -0.4043 -0.0881  0.3933
 1791SOL    HW1 5705   5.235   2.314   1.331 -1.1515 -2.2752  0.5979
 1791SOL    HW2 5706   5.351   2.275   1.243 -1.0114 -2.5956  0.9223
 1792SOL     OW 5707   2.280   5.324   3.371  0.1207  0.1997 -0.1262
 1792SOL    HW1 5708   2.239   5.242   3.396  0.1258  0.8399  2.1598
 1792SOL    HW2 5709   2.321   5.356   3.452  1.6758  1.5459 -1.3966
 1793SOL     OW 5710   0.968   0.390   4.599  0.4519  0.1050 -0.4458
 1793SOL    HW1 5711   1.023   0.455   4.642  0.2899 -1.1629  1.7463
 1793SOL    HW2 5712   0.879   0.424   4.608  0.5734  0.6505 -1.2647
 1794SOL     OW 5713   0.410   4.118   1.822  0.0881 -0.3096  0.7018
 1794SOL    HW1 5714   0.404   4.037   1.771  4.0175 -0.2198 -0.0532
 1794SOL    HW2 5715   0.389   4.188   1.760  1.4850 -0.4323  0.0829
 1795SOL     OW 5716   1.943   3.955   4.563  0.2579 -0.0212 -0.1551
 1795SOL    HW1 5717   1.972   4.046   4.557  1.5165 -0.4201 -0.1659
 1795SOL    HW2 5718   1.903   3.948   4.650  2.0323  0.0040  0.6716
 1796SOL     OW 5719   0.591   3.785   4.629  0.0865  0.2605 -0.0132
 1796SOL    HW1 5720   0.677   3.824   4.614 -0.3101  0.9405 -0.5578
 1796SOL    HW2 5721   0.608   3.691   4.636  0.7055  0.2467 -1.4518
 1797SOL     OW 5722   5.173   3.014   0.919  0.3618 -0.4248 -0.6304
 1797SOL    HW1 5723   5.178   2.967   1.001  0.1865  0.8278  0.1156
 1797SOL    HW2 5724   5.140   3.101   0.943  2.8500  0.8535 -1.6355
 1798SOL     OW 5725   5.040   0.544   0.308  0.4904  0.3603 -0.4897
 1798SOL    HW1 5726   5.123   0.504   0.334  0.4149 -1.2000 -2.4569
 1798SOL    HW2 5727   5.065   0.622   0.260  0.9007 -0.6941 -2.0333
 1799SOL     OW 5728   1.611   2.219   1.233 -0.1162 -0.4892 -0.2294
 1799SOL    HW1 5729   1.651   2.230   1.320 -1.5910  2.1352  0.1752
 1799SOL    HW2 5730   1.518   2.234   1.247 -0.3284  0.3378 -2.3226
 1800SOL     OW 5731   1.681   3.682   2.892 -0.5312 -0.6010 -0.3579
 1800SOL    HW1 5732   1.611   3.668   2.828  0.1605 -1.8251 -0.8403
 1800SOL    HW2 5733   1.665   3.616   2.959 -0.0361 -0.6424 -0.2848
 1801SOL     OW 5734   0.942   0.830   4.239 -0.8443 -0.2005  0.0159
 1801SOL    HW1 5735   0.978   0.750   4.276 -1.1613 -0.4694 -0.2581
 1801SOL    HW2 5736   1.017   0.889   4.233 -0.6186 -0.4605  0.2528
 1802SOL     OW 5737   0.256   0.640   1.957 -0.1523  0.8126  0.0579
 1802SOL    HW1 5738   0.266   0.644   1.862 -1.5561 -0.3764 -0.1512
 1802SOL    HW2 5739   0.338   0.600   1.988 -0.7673 -1.2550 -0.9012
 1803SOL     OW 5740   2.667   1.367   3.385  0.2178 -0.5424 -0.0578
 1803SOL    HW1 5741   2.740   1.429   3.388  0.0124 -0.1456 -2.3145
 1803SOL    HW2 5742   2.707   1.284   3.359 -0.2765  0.0093 -2.7692
 1804SOL     OW 5743   3.492   4.603   3.975 -1.2934  0.4214 -0.1391
 1804SOL    HW1 5744   3.513   4.524   3.925 -1.2107  0.3369  0.0315
 1804SOL    HW2 5745   3.416   4.640   3.930 -1.4788  0.1159 -0.0755
 1805SOL     OW 5746   4.073   1.633   0.753  0.2762 -0.7268 -0.1691
 1805SOL    HW1 5747   4.053   1.721   0.720 -0.4214 -1.1618 -0.9297
 1805SOL    HW2 5748   4.080   1.645   0.848  0.0073  0.1222 -0.2463
 1806SOL     OW 5749   1.191   1.148   4.756  0.6170 -0.0136 -0.4311
 1806SOL    HW1 5750   1.228   1.097   4.828 -1.3414  1.0297  1.3492
 1806SOL    HW2 5751   1.147   1.222   4.798 -2.7185 -0.7141 -2.5125
 1807SOL     OW 5752   2.010   5.092   0.177  0.5877 -0.1618 -0.0948
 1807SOL    HW1 5753   1.955   5.022   0.212  0.2865 -0.3262 -0.8848
 1807SOL    HW2 5754   1.953   5.170   0.179  0.4685 -0.2388 -0.5111
 1808SOL     OW 5755   3.532   0.502   0.084 -0.4524  0.4164 -0.3191
 1808SOL    HW1 5756   3.486   0.471   0.006 -2.1117  0.4080  0.6385
 1808SOL    HW2 5757   3.560   0.590   0.062 -2.3208  1.0201 -0.3823
 1809SOL     OW 5758   5.111   2.772   3.958  0.5441 -0.1095 -0.2960
 1809SOL    HW1 5759   5.074   2.697   3.911 -1.1095  0.3655  0.2228
 1809SOL    HW2 5760   5.205   2.768   3.938  0.2700 -1.4758 -1.4408
 1810SOL     OW 5761   5.427   0.286   0.163  0.7892 -0.4497 -0.2870
 1810SOL    HW1 5762   5.400   0.314   0.250 -0.3904  1.0411 -1.1217
 1810SOL    HW2 5763   5.356   0.230   0.132  0.2293  0.7193 -1.1286
 1811SOL     OW 5764   0.725   4.460   0.439  0.2561 -0.5547 -0.1104
 1811SOL    HW1 5765   0.711   4.516   0.362  0.5709 -0.9243 -0.4390
 1811SOL    HW2 5766   0.639   4.454   0.480  0.5815  1.6933  0.9794
 1812SOL     OW 5767   0.412   4.777   1.074 -0.0798  1.0855  0.0388
 1812SOL    HW1 5768   0.428   4.806   0.984  0.2658  0.4596 -0.1092
 1812SOL    HW2 5769   0.497   4.744   1.103 -0.0327  1.8984  0.8285
 1813SOL     OW 5770   5.551   3.612   2.226 -0.4627 -0.4416 -0.8575
 1813SOL    HW1 5771   5.503   3.533   2.202 -0.2001 -0.6209 -0.7965
 1813SOL    HW2 5772   5.505   3.683   2.182  1.6170 -1.0517 -4.1632
 1814SOL     OW 5773   3.680   1.079   3.719 -0.4606  0.3612  0.3721
 1814SOL    HW1 5774   3.636   1.027   3.652  1.2853 -0.5194 -0.1042
 1814SOL    HW2 5775   3.738   1.018   3.764  1.9299  1.9444 -0.4637
 1815SOL     OW 5776   5.171   3.775   2.047 -0.8015 -0.0412  0.5546
 1815SOL    HW1 5777   5.098   3.717   2.069 -1.1008 -0.3320 -1.1692
 1815SOL    HW2 5778   5.196   3.750   1.958  0.4725  1.0238  0.6000
 1816SOL     OW 5779   0.123   5.123   1.732 -0.5114 -0.3157  0.6404
 1816SOL    HW1 5780   0.028   5.132   1.726 -0.5484 -1.4617 -0.8383
 1816SOL    HW2 5781   0.155   5.213   1.734 -1.4457  0.1624 -2.7186
 1817SOL     OW 5782   0.564   3.361   5.555  0.4214  0.7039  0.1196
 1817SOL    HW1 5783   0.633   3.415   5.594  1.9878 -0.4725 -0.9258
 1817SOL    HW2 5784   0.536   3.410   5.477  0.7446  0.7453  0.0280
 1818SOL     OW 5785   0.458   0.780   3.119 -0.1185  0.1628  0.0783
 1818SOL    HW1 5786   0.387   0.730   3.080 -2.5352  2.1326  1.8178
 1818SOL    HW2 5787   0.487   0.726   3.194  0.5092 -0.7964 -0.8337
 1819SOL     OW 5788   1.523   4.620   3.650  0.2184 -0.0321 -0.2258
 1819SOL    HW1 5789   1.531   4.712   3.622 -0.3463  0.2715  0.5776
 1819SOL    HW2 5790   1.573   4.571   3.585  3.4575  1.1744  1.2355
 1820SOL     OW 5791   3.117   3.148   2.570  0.1728 -0.1678  0.4161
 1820SOL    HW1 5792   3.150   3.125   2.483 -2.2293 -0.5692 -0.4078
 1820SOL    HW2 5793   3.120   3.243   2.572 -0.2005 -0.1378 -0.2779
 1821SOL     OW 5794   3.467   0.670   4.275 -0.4780  0.2299  0.8845
 1821SOL    HW1 5795   3.558   0.643   4.278 -0.6679 -0.3911  1.0747
 1821SOL    HW2 5796   3.469   0.754   4.229 -0.0111 -0.7128 -0.8928
 1822SOL     OW 5797   2.838   0.901   5.489  0.2334  0.1826  0.0499
 1822SOL    HW1 5798   2.771   0.842   5.455  3.4067 -2.4865 -1.8598
 1822SOL    HW2 5799   2.883   0.851   5.556  1.2457  1.4154  0.3211
 1823SOL     OW 5800   5.519   2.826   5.066  0.1920  0.3967 -0.2469
 1823SOL    HW1 5801   5.503   2.738   5.100 -3.9249  1.1708  0.0218
 1823SOL    HW2 5802   5.501   2.820   4.972  0.4079  0.8573 -0.3220
 1824SOL     OW 5803   1.291   3.666   4.550 -0.3180  0.5584  0.0426
 1824SOL    HW1 5804   1.297   3.630   4.461  1.0750  0.6996  0.0625
 1824SOL    HW2 5805   1.338   3.602   4.605  0.5334  1.4532  0.3637
 1825SOL     OW 5806   3.409   2.141   0.697 -0.3536  0.3743 -0.0241
 1825SOL    HW1 5807   3.410   2.217   0.640 -0.9834  1.3312  1.2100
 1825SOL    HW2 5808   3.329   2.152   0.750 -0.3007 -0.9857  0.3577
 1826SOL     OW 5809   2.665   0.748   0.461  0.4291  0.1116 -0.0941
 1826SOL    HW1 5810   2.753   0.733   0.497 -0.0398 -0.9678  0.6451
 1826SOL    HW2 5811   2.638   0.832   0.498  0.8360  0.0656  0.3096
 1827SOL     OW 5812   1.259   4.651   0.986 -0.2405 -0.5625  0.3779
 1827SOL    HW1 5813   1.308   4.727   0.953  1.9236 -0.9600  2.5282
 1827SOL    HW2 5814   1.276   4.582   0.923 -0.6073  0.1602 -0.5350
 1828SOL     OW 5815   3.507   0.448   2.575 -0.2112  0.2526 -0.2889
 1828SOL    HW1 5816   3.553   0.370   2.547 -0.5865  0.0312 -0.2946
 1828SOL    HW2 5817   3.418   0.437   2.542 -0.2253  0.7542 -0.4262
 1829SOL     OW 5818   4.711   5.099   2.252  0.2387 -0.0430 -0.0706
 1829SOL    HW1 5819   4.803   5.117   2.232  0.3821  0.2848  0.8582
 1829SOL    HW2 5820   4.691   5.156   2.327 -0.5928 -0.4407  0.0170
 1830SOL     OW 5821   0.719   2.669   2.142  0.4404  0.2396 -0.2829
 1830SOL    HW1 5822   0.814   2.677   2.156  0.3284  0.1056  0.5962
 1830SOL    HW2 5823   0.698   2.582   2.177  0.2098 -0.2913 -1.7057
 1831SOL     OW 5824   5.282   3.915   3.396  0.7080  0.5883 -0.0159
 1831SOL    HW1 5825   5.223   3.913   3.320  0.8304  0.4851 -0.1091
 1831SOL    HW2 5826   5.341   3.841   3.382 -0.3633 -0.5093  1.0682
 1832SOL     OW 5827   1.813   0.667   5.006 -0.4219  0.4461  0.4542
 1832SOL    HW1 5828   1.872   0.732   5.044 -0.7272  2.2922 -2.0759
 1832SOL    HW2 5829   1.869   0.607   4.958 -0.4176  1.1138 -0.3948
 1833SOL     OW 5830   5.487   4.631   2.880 -0.2710 -0.0053  0.4344
 1833SOL    HW1 5831   5.496   4.550   2.830 -0.8318  0.2069 -0.0141
 1833SOL    HW2 5832   5.410   4.616   2.935 -0.7993  0.4858 -0.1620
 1834SOL     OW 5833   5.420   0.085   0.497  0.0606  0.1421 -0.0604
 1834SOL    HW1 5834   5.334   0.059   0.532 -0.3313 -0.6907 -1.5662
 1834SOL    HW2 5835   5.477   0.010   0.516  0.5444  0.8215  1.2127
 1835SOL     OW 5836   1.386   4.733   2.084 -0.5427  0.5658  0.4611
 1835SOL    HW1 5837   1.443   4.780   2.023 -0.7683  0.2673  0.0097
 1835SOL    HW2 5838   1.362   4.652   2.037  0.0270 -0.1073  1.3197
 1836SOL     OW 5839   1.895   2.993   1.301  0.2212 -0.0367  0.1293
 1836SOL    HW1 5840   1.869   3.078   1.336  1.5247  0.5312 -0.2312
 1836SOL    HW2 5841   1.866   2.930   1.366  0.0690  0.7748  0.8508
 1837SOL     OW 5842   3.378   3.263   4.998 -0.4343  0.1197  0.5643
 1837SOL    HW1 5843   3.284   3.268   5.014 -0.7139  0.8281 -1.2524
 1837SOL    HW2 5844   3.391   3.302   4.912  1.1710 -2.4617 -0.4361
 1838SOL     OW 5845   5.206   3.543   2.520 -0.3515  0.0148 -0.0052
 1838SOL    HW1 5846   5.186   3.626   2.565 -0.3916  0.9670 -1.7240
 1838SOL    HW2 5847   5.245   3.570   2.437  2.3420 -1.7467  0.6419
 1839SOL     OW 5848   3.751   4.936   5.315 -0.9131 -0.1382 -0.1514
 1839SOL    HW1 5849   3.731   5.016   5.265 -1.4907 -0.2501 -0.1031
 1839SOL    HW2 5850   3.834   4.955   5.358 -1.9440  1.1502  1.3305
 1840SOL     OW 5851   3.783   1.815   4.800 -0.2875  0.3243 -0.1599
 1840SOL    HW1 5852   3.743   1.901   4.816  0.0017  0.5509 -0.6387
 1840SOL    HW2 5853   3.851   1.809   4.867  0.5323  1.0215 -0.9153
 1841SOL     OW 5854   4.969   0.762   3.540  0.5017  0.4765 -0.3501
 1841SOL    HW1 5855   5.054   0.804   3.553  0.8974  0.2320 -2.0365
 1841SOL    HW2 5856   4.924   0.773   3.624  2.1838  0.6203  0.5560
 1842SOL     OW 5857   1.983   2.601   2.711 -0.2621  0.0495 -0.2273
 1842SOL    HW1 5858   1.905   2.634   2.755  0.1327  0.4681  0.1563
 1842SOL    HW2 5859   1.970   2.506   2.708 -0.0800 -0.0216  1.1870
 1843SOL     OW 5860   2.653   0.849   2.575 -0.1800 -0.1901 -0.4123
 1843SOL    HW1 5861   2.586   0.853   2.644  0.3781  0.1068  0.1178
 1843SOL    HW2 5862   2.729   0.893   2.613  0.0240  0.2842 -1.3453
 1844SOL     OW 5863   5.247   2.367   2.492  0.3683  0.4578  0.2487
 1844SOL    HW1 5864   5.330   2.367   2.539  1.4862 -1.1859 -1.6835
 1844SOL    HW2 5865   5.260   2.426   2.418 -0.1758  0.2021 -0.0632
 1845SOL     OW 5866   3.568   3.522   3.251 -0.5093 -0.1098 -0.5634
 1845SOL    HW1 5867   3.597   3.454   3.313 -1.9911 -0.1363  0.1271
 1845SOL    HW2 5868   3.551   3.598   3.306  0.1992  0.5233 -1.2164
 1846SOL     OW 5869   4.817   2.194   5.505 -0.4313 -0.9286 -0.2795
 1846SOL    HW1 5870   4.725   2.169   5.510 -0.6699  0.0266  0.3661
 1846SOL    HW2 5871   4.826   2.263   5.571  0.8990 -1.4844  0.1295
 1847SOL     OW 5872   0.579   1.574   0.620  0.0557  0.2725 -0.5264
 1847SOL    HW1 5873   0.563   1.486   0.653  1.2322 -0.4463 -1.8030
 1847SOL    HW2 5874   0.570   1.630   0.697  0.3071 -1.0838  0.5213
 1848SOL     OW 5875   0.165   4.604   3.009 -0.1789 -0.0634  0.2966
 1848SOL    HW1 5876   0.082   4.600   2.960 -0.1242 -1.1358  0.2670
 1848SOL    HW2 5877   0.153   4.675   3.071 -1.2366 -0.3965  0.4851
 1849SOL     OW 5878   0.044   0.459   1.202  0.1588 -0.5602 -0.5344
 1849SOL    HW1 5879   0.106   0.400   1.159 -0.1696  0.6451 -2.7292
 1849SOL    HW2 5880   0.072   0.461   1.294  2.9870 -0.5020 -1.3642
 1850SOL     OW 5881   5.010   4.689   0.221 -0.0344  0.7257 -0.5086
 1850SOL    HW1 5882   5.097   4.667   0.253  1.0204  0.9715 -3.1012
 1850SOL    HW2 5883   4.988   4.618   0.160 -0.4189  2.1122 -2.0342
 1851SOL     OW 5884   4.233   0.546   0.666 -0.1112  0.5189  0.3777
 1851SOL    HW1 5885   4.297   0.476   0.658  0.2661  0.7237  1.5338
 1851SOL    HW2 5886   4.158   0.515   0.615  0.1180 -0.6379  0.7262
 1852SOL     OW 5887   0.479   0.725   0.358 -0.3032 -0.0162  0.0379
 1852SOL    HW1 5888   0.467   0.637   0.395  0.3953 -0.0414  0.2057
 1852SOL    HW2 5889   0.460   0.715   0.265 -0.7660 -0.2323  0.1559
 1853SOL     OW 5890   4.891   3.153   1.269  0.5318  0.3198  0.3140
 1853SOL    HW1 5891   4.819   3.118   1.321  1.1720 -1.4780  0.0215
 1853SOL    HW2 5892   4.945   3.200   1.332  1.0297 -1.4186  1.1972
 1854SOL     OW 5893   1.479   2.453   2.088  0.3577  0.4375 -0.3324
 1854SOL    HW1 5894   1.426   2.494   2.019 -0.4856  0.2988  0.2364
 1854SOL    HW2 5895   1.459   2.504   2.167  2.6926  1.7649 -0.5469
 1855SOL     OW 5896   4.304   4.261   3.246  0.1107 -0.1075 -0.4301
 1855SOL    HW1 5897   4.371   4.215   3.195  1.7811  1.1817  0.5299
 1855SOL    HW2 5898   4.347   4.341   3.275 -2.2415  1.3095 -0.7364
 1856SOL     OW 5899   3.326   0.682   3.580 -0.0559  0.6202 -0.4338
 1856SOL    HW1 5900   3.245   0.671   3.531  0.0668  1.4724 -0.8239
 1856SOL    HW2 5901   3.394   0.646   3.523 -0.3814 -1.7988  0.6542
 1857SOL     OW 5902   1.817   1.297   3.769 -0.1936 -0.9295  0.0442
 1857SOL    HW1 5903   1.910   1.310   3.755 -0.1015 -1.2758  0.3402
 1857SOL    HW2 5904   1.775   1.342   3.695  0.0706  1.7973  1.4539
 1858SOL     OW 5905   0.591   1.715   0.246 -0.4471  0.2586  0.2209
 1858SOL    HW1 5906   0.644   1.637   0.225 -0.2436 -0.3232  2.6779
 1858SOL    HW2 5907   0.627   1.784   0.191  0.0208 -1.1704 -1.3012
 1859SOL     OW 5908   5.395   4.340   3.588  0.7967  0.1079  0.1686
 1859SOL    HW1 5909   5.432   4.267   3.539  0.6961 -0.3919  0.8373
 1859SOL    HW2 5910   5.430   4.331   3.676 -0.9913 -0.4316  0.8432
 1860SOL     OW 5911   5.109   0.168   1.682  0.6074 -0.3627 -0.7156
 1860SOL    HW1 5912   5.065   0.130   1.605 -0.9270  0.5291 -0.3068
 1860SOL    HW2 5913   5.196   0.128   1.682  0.2067 -1.2904 -2.2282
 1861SOL     OW 5914   4.697   5.198   3.063 -0.0089  0.6347 -0.4698
 1861SOL    HW1 5915   4.733   5.125   3.011  2.2795  1.3994 -0.0123
 1861SOL    HW2 5916   4.650   5.251   2.999 -1.0159 -0.8101 -0.9581
 1862SOL     OW 5917   0.667   4.026   1.695 -0.2246  0.1162 -0.0535
 1862SOL    HW1 5918   0.618   3.967   1.637 -2.8368  0.8076  1.4003
 1862SOL    HW2 5919   0.655   3.990   1.782  2.5524 -0.1262  0.2718
 1863SOL     OW 5920   1.706   0.607   1.081 -0.6240  0.7546  0.0488
 1863SOL    HW1 5921   1.785   0.640   1.038 -0.9898  0.6435 -0.7164
 1863SOL    HW2 5922   1.691   0.667   1.154  0.6299  0.2954  0.6887
 1864SOL     OW 5923   1.726   1.645   2.378 -0.3762 -0.4129  0.0368
 1864SOL    HW1 5924   1.691   1.690   2.455  0.0720  0.3670 -0.2072
 1864SOL    HW2 5925   1.821   1.661   2.383 -0.0523 -2.2776  0.5582
 1865SOL     OW 5926   5.368   5.058   3.241  0.2594  0.4325 -0.6697
 1865SOL    HW1 5927   5.408   5.107   3.169  0.0135 -0.8556 -1.7046
 1865SOL    HW2 5928   5.280   5.094   3.249 -0.0515 -0.0703 -1.6839
 1866SOL     OW 5929   4.060   2.261   2.477  0.1843  0.4857  0.0895
 1866SOL    HW1 5930   4.131   2.197   2.475  0.7764  1.1511 -0.8669
 1866SOL    HW2 5931   4.083   2.324   2.409 -1.3871  0.6373 -0.3382
 1867SOL     OW 5932   0.209   3.697   5.060 -0.0810 -0.6648  0.1532
 1867SOL    HW1 5933   0.195   3.618   5.113 -0.5292 -0.4955  0.2870
 1867SOL    HW2 5934   0.304   3.700   5.046  0.0343 -0.7231  0.9214
 1868SOL     OW 5935   1.980   2.714   5.243  0.6040 -0.1471 -0.4622
 1868SOL    HW1 5936   1.989   2.619   5.250  1.7449  0.0152  0.2725
 1868SOL    HW2 5937   1.992   2.746   5.332 -2.3870  0.4867 -0.2424
 1869SOL     OW 5938   1.223   2.822   4.787  0.1114  0.1060  0.1601
 1869SOL    HW1 5939   1.288   2.835   4.718  1.2398 -1.7521  0.8432
 1869SOL    HW2 5940   1.266   2.764   4.849 -1.9400 -0.5070  1.0246
 1870SOL     OW 5941   2.781   1.977   4.267 -0.3043 -0.0917 -0.2351
 1870SOL    HW1 5942   2.868   1.999   4.299 -0.4499  0.8085 -0.4529
 1870SOL    HW2 5943   2.764   1.889   4.302  0.5599 -0.1441  0.0592
 1871SOL     OW 5944   1.965   3.121   4.845 -0.2018 -0.1406  0.3985
 1871SOL    HW1 5945   1.931   3.066   4.916  0.5134  1.3794  1.9655
 1871SOL    HW2 5946   1.894   3.126   4.782 -1.2136 -0.7229  1.4749
 1872SOL     OW 5947   5.025   1.327   0.279 -0.4800 -0.2872 -0.1041
 1872SOL    HW1 5948   5.001   1.241   0.244 -1.4196  0.0776 -0.3672
 1872SOL    HW2 5949   5.064   1.373   0.205 -0.4266 -0.3073 -0.0890
 1873SOL     OW 5950   4.570   2.774   5.411 -0.2178  0.7240 -0.6495
 1873SOL    HW1 5951   4.584   2.810   5.499  1.5110 -1.2357 -0.0913
 1873SOL    HW2 5952   4.538   2.685   5.426 -0.6824  0.6488 -2.0153
 1874SOL     OW 5953   0.427   2.841   5.041 -0.2213  0.2771  0.6128
 1874SOL    HW1 5954   0.352   2.845   5.100  0.3346  1.9765  1.2484
 1874SOL    HW2 5955   0.493   2.791   5.088 -0.4463  0.0165  0.6498
 1875SOL     OW 5956   3.022   1.737   4.527  0.4248  0.6719  0.2550
 1875SOL    HW1 5957   2.940   1.718   4.573  0.1721 -0.3641 -0.5898
 1875SOL    HW2 5958   3.087   1.683   4.571  0.3887  0.4933  0.0937
 1876SOL     OW 5959   2.804   0.195   0.726  0.0673 -0.4331  0.2982
 1876SOL    HW1 5960   2.774   0.136   0.796  0.7136 -1.8732 -0.6162
 1876SOL    HW2 5961   2.791   0.145   0.646  2.5102 -0.1062 -0.3345
 1877SOL     OW 5962   4.268   4.442   2.774  0.0012 -0.5024 -0.0220
 1877SOL    HW1 5963   4.196   4.438   2.711  0.8098  0.3783 -1.0210
 1877SOL    HW2 5964   4.333   4.381   2.739  0.2792 -0.3204  0.1773
 1878SOL     OW 5965   0.540   4.208   1.106  0.0978 -0.4931 -0.2826
 1878SOL    HW1 5966   0.580   4.233   1.190 -0.7721 -0.5086  0.1460
 1878SOL    HW2 5967   0.466   4.153   1.131 -0.7888  0.3485 -1.0074
 1879SOL     OW 5968   1.821   4.076   0.206  0.3191 -0.0260 -0.3896
 1879SOL    HW1 5969   1.731   4.106   0.213 -0.0797 -1.5700  1.7875
 1879SOL    HW2 5970   1.870   4.130   0.267  0.1068 -1.8210  1.4240
 1880SOL     OW 5971   4.368   0.421   3.404  0.3221  0.1147 -0.9324
 1880SOL    HW1 5972   4.412   0.397   3.486 -1.0318 -1.1701 -0.5548
 1880SOL    HW2 5973   4.277   0.393   3.417 -0.3524  1.6593 -2.1425
 1881SOL     OW 5974   4.450   4.371   1.068 -0.1148  0.4170 -0.2252
 1881SOL    HW1 5975   4.472   4.302   1.130  0.5314  1.4357  0.7052
 1881SOL    HW2 5976   4.470   4.452   1.114  1.7983  1.1691 -2.2657
 1882SOL     OW 5977   3.268   0.405   2.432 -0.3501 -0.9276  0.0025
 1882SOL    HW1 5978   3.196   0.348   2.404 -0.4524  0.4825 -2.7215
 1882SOL    HW2 5979   3.325   0.412   2.356  0.7381  0.9558  0.9505
 1883SOL     OW 5980   1.762   2.380   2.903  0.4092  0.0242 -0.1489
 1883SOL    HW1 5981   1.752   2.385   2.998 -1.3319  0.5354 -0.3377
 1883SOL    HW2 5982   1.837   2.323   2.890  1.0542  0.4461  1.5471
 1884SOL     OW 5983   2.359   4.721   3.299 -0.2350 -0.3820  0.0630
 1884SOL    HW1 5984   2.398   4.723   3.386  0.2082 -1.3506 -0.1048
 1884SOL    HW2 5985   2.407   4.787   3.250  0.0256 -0.3589  0.3461
 1885SOL     OW 5986   3.251   4.382   4.736  0.6050  0.0918  0.7311
 1885SOL    HW1 5987   3.280   4.359   4.648 -0.1293  2.0676 -0.0511
 1885SOL    HW2 5988   3.205   4.304   4.768 -0.6308 -0.0322 -1.2884
 1886SOL     OW 5989   0.255   1.465   0.587 -0.2083  0.2974  0.0763
 1886SOL    HW1 5990   0.171   1.458   0.541 -0.6657 -1.2128  1.1001
 1886SOL    HW2 5991   0.321   1.464   0.518 -1.0208  1.8460 -0.7644
 1887SOL     OW 5992   5.459   2.781   5.355 -0.1996  0.1950 -0.9310
 1887SOL    HW1 5993   5.450   2.721   5.428 -0.4233  0.9974 -0.2960
 1887SOL    HW2 5994   5.376   2.830   5.353  0.6126  1.6214 -0.4119
 1888SOL     OW 5995   4.054   4.286   2.616  0.0030 -0.4990  0.4993
 1888SOL    HW1 5996   4.055   4.211   2.676  0.1028 -1.1350 -0.2949
 1888SOL    HW2 5997   4.085   4.251   2.533  0.7498  0.5921  0.3149
 1889SOL     OW 5998   1.374   3.632   0.327  0.0012 -0.5106 -0.2951
 1889SOL    HW1 5999   1.464   3.621   0.358 -0.6150 -0.8578  1.4108
 1889SOL    HW2 6000   1.343   3.711   0.372 -1.6249 -2.2496  1.7622
 1890SOL     OW 6001   2.176   3.153   2.452 -0.6453  0.5672  0.1874
 1890SOL    HW1 6002   2.094   3.186   2.488 -0.7444  1.6564 -0.9739
 1890SOL    HW2 6003   2.237   3.226   2.462 -0.2979  0.3803 -0.5278
 1891SOL     OW 6004   3.871   1.076   0.106 -0.2793  1.0617 -0.0862
 1891SOL    HW1 6005   3.956   1.119   0.097 -0.0977  0.6000 -0.5918
 1891SOL    HW2 6006   3.859   1.067   0.201  0.8879 -0.1452 -0.0329
 1892SOL     OW 6007   5.493   0.492   3.430 -0.2705  0.0293 -0.0991
 1892SOL    HW1 6008   5.465   0.401   3.418  0.3047 -0.1179 -0.3603
 1892SOL    HW2 6009   5.541   0.492   3.513 -2.7461  0.6941  1.3865
 1893SOL     OW 6010   3.445   0.120   3.930  0.2885  0.2202  0.5631
 1893SOL    HW1 6011   3.382   0.139   3.999 -0.3097 -1.2676  0.4494
 1893SOL    HW2 6012   3.415   0.170   3.855  0.1060  0.6980  0.9571
 1894SOL     OW 6013   1.780   3.020   0.817  0.4955 -0.4597 -0.0513
 1894SOL    HW1 6014   1.810   2.967   0.891  3.0357  0.6481 -0.2434
 1894SOL    HW2 6015   1.796   3.110   0.845 -0.7670  0.0651 -1.0128
 1895SOL     OW 6016   3.531   4.643   0.201 -0.1530 -0.5346 -0.0696
 1895SOL    HW1 6017   3.586   4.602   0.135 -0.8314 -0.3214 -0.7887
 1895SOL    HW2 6018   3.456   4.584   0.210 -0.0678 -0.5557  0.4952
 1896SOL     OW 6019   4.123   0.112   0.869  0.5004 -0.3047  0.1483
 1896SOL    HW1 6020   4.111   0.046   0.938 -1.0632  0.4074  0.6010
 1896SOL    HW2 6021   4.164   0.186   0.914 -0.1295 -0.0025  0.2433
 1897SOL     OW 6022   2.645   0.979   4.208  0.3860  0.3333 -0.6609
 1897SOL    HW1 6023   2.633   0.885   4.227  1.1163  0.4837  0.6151
 1897SOL    HW2 6024   2.664   0.982   4.114 -0.6232 -0.7069 -0.9135
 1898SOL     OW 6025   1.842   3.593   3.984 -0.0428 -0.1924 -0.2801
 1898SOL    HW1 6026   1.860   3.635   3.900  0.2821  0.5691  0.1578
 1898SOL    HW2 6027   1.833   3.501   3.964 -0.5603  0.0687 -1.2363
 1899SOL     OW 6028   4.136   3.464   0.127  0.0015 -0.0845 -0.2302
 1899SOL    HW1 6029   4.086   3.533   0.084 -0.1160  0.2985  0.5183
 1899SOL    HW2 6030   4.172   3.412   0.055 -1.7668 -0.5852 -0.7647
 1900SOL     OW 6031   1.429   4.627   3.320 -0.3846 -0.2084  0.3196
 1900SOL    HW1 6032   1.464   4.605   3.234  0.1113 -1.0491  0.7323
 1900SOL    HW2 6033   1.414   4.543   3.363 -2.1983  0.1731  0.4458
 1901SOL     OW 6034   0.292   4.870   1.293 -0.1798  1.0022 -0.6904
 1901SOL    HW1 6035   0.374   4.884   1.341 -0.1811  1.4701 -0.8251
 1901SOL    HW2 6036   0.319   4.850   1.203 -0.2002  0.7141 -0.6347
 1902SOL     OW 6037   1.112   1.416   4.526 -0.1080 -0.6883 -0.3472
 1902SOL    HW1 6038   1.170   1.487   4.500  1.1030 -1.5418  0.0035
 1902SOL    HW2 6039   1.024   1.448   4.506  0.3348  1.3637  0.8671
 1903SOL     OW 6040   1.832   5.446   5.499  0.0867 -0.0174 -0.7696
 1903SOL    HW1 6041   1.824   5.518   5.563  2.4031 -0.6579  0.2849
 1903SOL    HW2 6042   1.778   5.475   5.425 -1.0862  1.6366  0.6666
 1904SOL     OW 6043   5.311   1.140   2.992 -0.7470  1.0103  0.5609
 1904SOL    HW1 6044   5.400   1.158   2.963 -0.3884 -1.9711 -0.3568
 1904SOL    HW2 6045   5.256   1.177   2.923 -0.1749  1.5541  0.3896
 1905SOL     OW 6046   1.761   5.513   1.647 -0.5469  0.6056 -0.1102
 1905SOL    HW1 6047   1.761   5.512   1.743  0.1762  0.6308 -0.1126
 1905SOL    HW2 6048   1.822   5.583   1.624  0.4102 -0.3795 -0.6054
 1906SOL     OW 6049   3.645   0.271   5.069  0.7166 -0.2718  0.3909
 1906SOL    HW1 6050   3.587   0.252   4.996  1.7058 -0.5434 -0.3397
 1906SOL    HW2 6051   3.691   0.188   5.086  1.5395  0.1674  0.3571
 1907SOL     OW 6052   1.968   0.870   1.714  0.3887 -0.7620  0.3125
 1907SOL    HW1 6053   1.900   0.912   1.768  0.5231  0.8672 -0.7496
 1907SOL    HW2 6054   1.920   0.811   1.656 -0.2922  1.2457 -1.2466
 1908SOL     OW 6055   2.674   0.640   0.211 -0.1165 -0.2681  0.7575
 1908SOL    HW1 6056   2.587   0.604   0.225 -1.1537  1.4894 -0.9761
 1908SOL    HW2 6057   2.691   0.692   0.289 -0.7325 -0.3581  0.9545
 1909SOL     OW 6058   0.027   2.377   0.333 -0.3158  0.0309  0.1156
 1909SOL    HW1 6059   0.072   2.348   0.412  1.1502  0.1775 -0.6529
 1909SOL    HW2 6060  -0.038   2.309   0.316  2.0154 -2.0420 -0.7641
 1910SOL     OW 6061   3.827   0.851   2.115 -0.3410 -0.4062  0.0172
 1910SOL    HW1 6062   3.782   0.775   2.151 -1.1965  0.9004  1.7539
 1910SOL    HW2 6063   3.907   0.859   2.167  0.4394 -0.9077 -1.0695
 1911SOL     OW 6064   4.609   2.964   0.385  0.9386  0.3911  0.2673
 1911SOL    HW1 6065   4.691   3.012   0.398  0.4181  1.1324  0.8954
 1911SOL    HW2 6066   4.541   3.032   0.390  0.3931  0.0253 -1.8464
 1912SOL     OW 6067   2.120   0.010   2.241  0.7381 -0.1214  0.4856
 1912SOL    HW1 6068   2.176   0.015   2.318 -0.2818 -0.7178  1.2798
 1912SOL    HW2 6069   2.069  -0.070   2.254  1.0574 -0.6248 -1.1550
 1913SOL     OW 6070   4.994   4.732   1.136  0.4105 -0.5535  0.1573
 1913SOL    HW1 6071   5.046   4.806   1.105 -0.9306  0.1740 -0.4193
 1913SOL    HW2 6072   5.040   4.655   1.105 -0.7589  0.1350 -3.5699
 1914SOL     OW 6073   0.250   5.163   5.382  0.1936  0.5629  0.3264
 1914SOL    HW1 6074   0.160   5.163   5.347 -0.0885 -0.8753  1.0017
 1914SOL    HW2 6075   0.289   5.243   5.348 -0.8365  0.3971 -1.3266
 1915SOL     OW 6076   0.032   3.941   0.876  0.2883 -0.4913 -0.2305
 1915SOL    HW1 6077  -0.001   3.958   0.787  0.0778 -1.1498 -0.2798
 1915SOL    HW2 6078  -0.004   3.856   0.899 -0.8214  0.3150  1.0597
 1916SOL     OW 6079   4.480   3.005   1.522  0.2747  0.0367  0.4583
 1916SOL    HW1 6080   4.417   3.074   1.543 -0.7282 -0.0198 -2.1634
 1916SOL    HW2 6081   4.458   2.933   1.582 -1.2663  0.5253  0.5005
 1917SOL     OW 6082   2.214   3.604   1.592  0.7421  0.0246  0.1311
 1917SOL    HW1 6083   2.204   3.516   1.554  0.5932  0.0609  0.0889
 1917SOL    HW2 6084   2.273   3.649   1.532 -1.8784  1.1050 -1.7505
 1918SOL     OW 6085   1.671   0.251   5.507  0.1717  0.1239 -0.1483
 1918SOL    HW1 6086   1.687   0.332   5.459 -2.7517  0.3403 -0.8122
 1918SOL    HW2 6087   1.753   0.202   5.499  0.8632  1.6025 -2.5085
 1919SOL     OW 6088   5.246   4.953   4.033 -0.0525  0.3657 -0.2528
 1919SOL    HW1 6089   5.313   4.913   4.087  0.7622  0.8123 -0.9220
 1919SOL    HW2 6090   5.272   4.932   3.943  0.8684  3.0854 -0.6735
 1920SOL     OW 6091   2.340   2.602   1.310 -0.4733 -0.3484  0.4322
 1920SOL    HW1 6092   2.266   2.661   1.297  0.0646  0.2630  0.0651
 1920SOL    HW2 6093   2.398   2.620   1.235  0.4062 -0.2426  1.1240
 1921SOL     OW 6094   1.802   5.310   5.064  0.2979 -0.1378 -0.4555
 1921SOL    HW1 6095   1.863   5.263   5.121  0.1817 -1.6851 -1.5832
 1921SOL    HW2 6096   1.858   5.345   4.994  0.0313 -0.7729 -0.9910
 1922SOL     OW 6097   1.080   2.789   4.338 -0.4394 -0.1540 -0.1735
 1922SOL    HW1 6098   1.053   2.746   4.420  3.6807  0.5671  1.7269
 1922SOL    HW2 6099   1.072   2.883   4.356 -1.0372 -0.0026 -1.1888
 1923SOL     OW 6100   1.064   4.979   0.544  0.6789 -0.2987  0.0745
 1923SOL    HW1 6101   1.024   4.912   0.599 -1.7034 -1.3976 -2.8801
 1923SOL    HW2 6102   1.075   5.054   0.603  0.1082 -2.0724  2.5302
 1924SOL     OW 6103   1.575   5.539   2.773 -0.1956  0.0196  0.2369
 1924SOL    HW1 6104   1.598   5.515   2.683 -0.1637  0.6402  0.0785
 1924SOL    HW2 6105   1.546   5.630   2.767 -0.6546 -0.0862  0.7771
 1925SOL     OW 6106   1.378   5.299   3.210 -0.4021  0.9397  0.5489
 1925SOL    HW1 6107   1.414   5.215   3.240 -0.6322  1.2359  1.6722
 1925SOL    HW2 6108   1.448   5.336   3.155  0.5166  0.9245  1.6801
 1926SOL     OW 6109   2.015   3.090   3.735  0.1089  0.4731 -0.1403
 1926SOL    HW1 6110   2.042   3.054   3.819  0.2450  0.3900 -0.2187
 1926SOL    HW2 6111   1.981   3.015   3.687 -3.0869  1.0719  1.0655
 1927SOL     OW 6112   4.403   3.063   4.549 -0.0561  0.1870  0.5750
 1927SOL    HW1 6113   4.392   3.118   4.627 -0.7105  0.8635  0.0035
 1927SOL    HW2 6114   4.315   3.038   4.524  0.1308  0.2379 -0.1468
 1928SOL     OW 6115   5.271   0.746   2.669  0.1131 -0.4478 -0.1184
 1928SOL    HW1 6116   5.199   0.685   2.654 -0.1396 -0.6319  1.8181
 1928SOL    HW2 6117   5.250   0.790   2.751  1.8158  0.0731  0.0652
 1929SOL     OW 6118   1.975   2.474   0.539 -0.2278 -0.5817 -0.0318
 1929SOL    HW1 6119   1.918   2.504   0.610 -1.8906  0.1157 -1.6120
 1929SOL    HW2 6120   1.936   2.392   0.509  1.3716 -1.6883  0.8901
 1930SOL     OW 6121   5.570   3.936   5.401  0.4258 -0.6405  0.1642
 1930SOL    HW1 6122   5.655   3.892   5.399  0.1974 -1.0466 -1.0567
 1930SOL    HW2 6123   5.528   3.902   5.479  1.8581  0.4756  1.4528
 1931SOL     OW 6124   0.891   3.750   3.080 -0.1466 -0.0220  0.3944
 1931SOL    HW1 6125   0.838   3.767   3.002  2.4464  0.3458 -1.3567
 1931SOL    HW2 6126   0.850   3.674   3.120 -0.3657 -1.5101 -2.4890
 1932SOL     OW 6127   0.066   2.089   4.631 -0.3580  0.2720 -0.6600
 1932SOL    HW1 6128   0.046   2.037   4.709 -0.4434 -0.7864 -1.3739
 1932SOL    HW2 6129   0.129   2.154   4.661  2.2320 -2.2548 -0.4299
 1933SOL     OW 6130   2.116   5.258   4.615 -0.0128 -0.2379  0.7485
 1933SOL    HW1 6131   2.092   5.309   4.693 -0.5544  0.4963  0.1146
 1933SOL    HW2 6132   2.197   5.297   4.584 -0.8147  0.7515 -0.1659
 1934SOL     OW 6133   3.070   2.741   2.199 -0.9753 -0.1091  0.0420
 1934SOL    HW1 6134   3.118   2.658   2.209 -0.1578  0.3269 -0.2327
 1934SOL    HW2 6135   3.020   2.749   2.280  1.9881  1.0483  1.8606
 1935SOL     OW 6136   3.734   0.054   1.241 -0.1389  0.4441 -0.0174
 1935SOL    HW1 6137   3.821   0.092   1.229  0.5038  0.0773  3.2412
 1935SOL    HW2 6138   3.744  -0.038   1.216  0.4682  0.3338  0.6366
 1936SOL     OW 6139   0.862   5.361   0.869  0.3187 -0.6610 -0.5933
 1936SOL    HW1 6140   0.776   5.324   0.886 -0.2622  0.3741 -1.2247
 1936SOL    HW2 6141   0.870   5.433   0.933  1.0099 -1.1989 -0.0641
 1937SOL     OW 6142   4.706   2.888   4.093 -0.1697 -0.1409 -0.0320
 1937SOL    HW1 6143   4.702   2.922   4.003 -0.7119  0.3786  0.1824
 1937SOL    HW2 6144   4.696   2.793   4.083 -0.9990 -0.0152 -0.4712
 1938SOL     OW 6145   3.622   1.950   4.534 -0.6084  0.3629 -0.6966
 1938SOL    HW1 6146   3.649   1.977   4.446 -0.1843  1.7013 -0.1557
 1938SOL    HW2 6147   3.660   1.863   4.545 -1.2567 -0.1138 -2.1114
 1939SOL     OW 6148   5.387   3.265   3.268 -0.0683  0.1341 -0.1974
 1939SOL    HW1 6149   5.334   3.206   3.215  0.5137 -0.6405  0.0736
 1939SOL    HW2 6150   5.450   3.303   3.206  0.7238 -0.8986 -0.0621
 1940SOL     OW 6151   0.414   3.011   1.949  0.2442  0.7589  0.5315
 1940SOL    HW1 6152   0.472   2.934   1.950  0.4591  0.9013 -0.8006
 1940SOL    HW2 6153   0.474   3.086   1.951  0.0532  0.9057  0.8580
 1941SOL     OW 6154   5.410   1.261   2.205  0.3311  0.0597 -0.3894
 1941SOL    HW1 6155   5.474   1.274   2.135 -0.9930  0.4795 -1.5424
 1941SOL    HW2 6156   5.443   1.312   2.278  1.7869 -0.4576 -0.6698
 1942SOL     OW 6157   5.362   1.208   1.303 -0.2609  0.5498 -1.2409
 1942SOL    HW1 6158   5.273   1.222   1.336 -0.2251 -1.3631 -0.3075
 1942SOL    HW2 6159   5.417   1.266   1.357 -0.4869 -0.9237  0.6043
 1943SOL     OW 6160   1.498   0.507   3.940 -0.1792  0.4452 -0.5952
 1943SOL    HW1 6161   1.442   0.526   4.016  0.3019 -1.3918  0.2339
 1943SOL    HW2 6162   1.561   0.443   3.972  0.9837  0.7805 -2.1566
 1944SOL     OW 6163   2.493   4.194   1.711 -0.1874 -0.2649 -0.5359
 1944SOL    HW1 6164   2.506   4.276   1.758 -0.2233 -0.1989 -0.6410
 1944SOL    HW2 6165   2.401   4.196   1.685 -0.1617 -0.2909 -0.6289
 1945SOL     OW 6166   0.027   1.848   3.520 -0.3106  0.5960 -0.4669
 1945SOL    HW1 6167   0.001   1.865   3.610  1.0191 -1.1785  0.2906
 1945SOL    HW2 6168  -0.049   1.875   3.468 -2.0839 -0.6862  1.3602
 1946SOL     OW 6169   1.222   1.105   4.018 -0.1200  0.0714  0.1803
 1946SOL    HW1 6170   1.170   1.144   3.948  1.1055 -0.3861 -1.0138
 1946SOL    HW2 6171   1.285   1.173   4.042 -0.9229  0.4362  1.2485
 1947SOL     OW 6172   5.406   3.957   4.253  0.2149 -0.1112 -0.5962
 1947SOL    HW1 6173   5.322   3.916   4.234  0.9199 -2.7390  1.6376
 1947SOL    HW2 6174   5.458   3.942   4.175 -1.1490  0.8839 -1.7082
 1948SOL     OW 6175   2.764   3.279   0.559  0.2044  0.4924 -0.1937
 1948SOL    HW1 6176   2.790   3.370   0.575  1.0905  0.3047 -0.5110
 1948SOL    HW2 6177   2.723   3.281   0.472  2.4926  0.1732 -1.3135
 1949SOL     OW 6178   4.980   2.625   1.623  0.3269 -0.0702  0.3530
 1949SOL    HW1 6179   4.985   2.685   1.697 -2.3457  1.9543 -1.0257
 1949SOL    HW2 6180   4.928   2.552   1.655  0.4886  0.0694  0.9381
 1950SOL     OW 6181   2.012   1.865   0.892 -0.1295  0.3161 -0.5449
 1950SOL    HW1 6182   2.105   1.848   0.903  0.0999  1.6109 -0.3836
 1950SOL    HW2 6183   1.972   1.832   0.973  0.2000 -0.0774 -0.5413
 1951SOL     OW 6184   2.848   3.365   4.628  0.3143 -0.1139  0.2666
 1951SOL    HW1 6185   2.883   3.282   4.659  0.8213  0.0222  0.0682
 1951SOL    HW2 6186   2.754   3.360   4.646  0.4608 -0.4127  0.9555
 1952SOL     OW 6187   1.410   5.182   2.253  0.4287  0.6705  0.4614
 1952SOL    HW1 6188   1.338   5.144   2.304  0.6257  0.8293  0.8591
 1952SOL    HW2 6189   1.387   5.274   2.244  0.6913  0.7645  0.7727
 1953SOL     OW 6190   1.583   2.478   1.114 -0.6332  0.6735  0.4055
 1953SOL    HW1 6191   1.562   2.471   1.021 -1.0046  0.3295  0.5103
 1953SOL    HW2 6192   1.581   2.387   1.146 -1.6521  0.8851  0.9871
 1954SOL     OW 6193   2.962   5.378   5.518  0.2056 -0.3304 -0.4185
 1954SOL    HW1 6194   2.954   5.383   5.613 -1.4830 -1.6668 -0.4626
 1954SOL    HW2 6195   2.936   5.465   5.487  0.6239  0.0628  0.3207
 1955SOL     OW 6196   1.060   4.048   2.447  0.4877 -0.1388 -0.4164
 1955SOL    HW1 6197   1.062   3.956   2.420  0.7026  0.1288 -1.3122
 1955SOL    HW2 6198   1.079   4.097   2.367  0.7335  0.6734  0.1388
 1956SOL     OW 6199   1.614   3.248   4.126  0.1840  0.0270 -0.3915
 1956SOL    HW1 6200   1.691   3.193   4.113  0.7762  0.2287  2.0117
 1956SOL    HW2 6201   1.578   3.220   4.210  0.5637  3.3194  0.9527
 1957SOL     OW 6202   0.401   2.323   3.808 -0.3604  0.1824  0.1497
 1957SOL    HW1 6203   0.381   2.395   3.749 -2.1887 -0.9220 -0.6237
 1957SOL    HW2 6204   0.358   2.247   3.769 -1.3455 -0.6472  2.7261
 1958SOL     OW 6205   1.047   0.888   3.821  0.0102 -0.5815  0.1425
 1958SOL    HW1 6206   0.970   0.906   3.876 -0.0639 -1.8603  0.4738
 1958SOL    HW2 6207   1.093   0.818   3.867  0.9078 -0.4360 -0.5212
 1959SOL     OW 6208   0.249   1.154   5.457 -0.0711  0.2245  0.3177
 1959SOL    HW1 6209   0.266   1.231   5.512 -0.1790  0.2375  0.3343
 1959SOL    HW2 6210   0.187   1.101   5.508 -0.4327  0.3990  0.0677
 1960SOL     OW 6211   4.830   0.705   1.472 -0.1161 -0.1421  0.0899
 1960SOL    HW1 6212   4.777   0.637   1.515 -1.8926  0.3711 -1.2466
 1960SOL    HW2 6213   4.778   0.785   1.479  0.9002  0.5814 -0.4449
 1961SOL     OW 6214   4.869   0.240   5.009  0.0341 -0.2578 -0.1051
 1961SOL    HW1 6215   4.801   0.250   4.943 -0.9805  2.7328  1.2847
 1961SOL    HW2 6216   4.852   0.155   5.049 -1.5364 -0.5100 -1.2762
 1962SOL     OW 6217   4.017   5.200   1.829 -0.1487 -0.1854 -0.3182
 1962SOL    HW1 6218   4.006   5.279   1.883  0.5960  0.2296 -0.7639
 1962SOL    HW2 6219   4.070   5.230   1.754 -1.8862 -0.5578 -1.7177
 1963SOL     OW 6220   1.253   5.188   1.595  0.1186 -0.0433 -0.0395
 1963SOL    HW1 6221   1.324   5.179   1.531  0.2894  0.6674  0.0502
 1963SOL    HW2 6222   1.173   5.195   1.542  0.0462 -1.3765 -0.1308
 1964SOL     OW 6223   4.209   2.565   1.105  0.0519  0.0197  0.2889
 1964SOL    HW1 6224   4.133   2.620   1.089  0.1943  0.1747  0.1460
 1964SOL    HW2 6225   4.234   2.584   1.196  1.3156  1.6978 -0.3834
 1965SOL     OW 6226   1.475   1.018   0.877  0.9206  0.1396 -0.0344
 1965SOL    HW1 6227   1.416   0.945   0.893  0.8727 -0.0948 -1.2002
 1965SOL    HW2 6228   1.520   0.995   0.796  0.4787  1.6682 -0.7318
 1966SOL     OW 6229   4.612   1.599   3.877  0.5933 -0.7224  0.0970
 1966SOL    HW1 6230   4.609   1.571   3.785 -0.0044 -0.7558  0.1271
 1966SOL    HW2 6231   4.539   1.661   3.886  0.1398 -1.3506  0.7590
 1967SOL     OW 6232   2.580   3.219   1.098 -0.4589 -0.3330 -0.2477
 1967SOL    HW1 6233   2.545   3.156   1.035  0.5274 -1.6290  0.4593
 1967SOL    HW2 6234   2.661   3.251   1.058 -1.7379  1.6965 -1.3057
 1968SOL     OW 6235   4.114   3.671   1.516 -0.7235  0.1717  0.4790
 1968SOL    HW1 6236   4.069   3.756   1.514 -2.4137 -0.6904  0.3809
 1968SOL    HW2 6237   4.045   3.607   1.497  0.9247 -1.0755 -1.6790
 1969SOL     OW 6238   2.052   1.110   2.126 -0.0360 -0.4113 -0.1411
 1969SOL    HW1 6239   2.084   1.181   2.069  0.9870 -0.2285  0.6360
 1969SOL    HW2 6240   2.132   1.075   2.166 -0.4951 -2.3230 -0.8848
 1970SOL     OW 6241   4.129   1.025   2.957 -0.5465  0.0031  0.3167
 1970SOL    HW1 6242   4.216   0.999   2.926 -0.8457  1.3505 -1.7589
 1970SOL    HW2 6243   4.089   0.944   2.988 -0.4894 -1.6260 -3.5377
 1971SOL     OW 6244   1.519   0.709   0.894 -0.3251  0.6555 -0.3529
 1971SOL    HW1 6245   1.510   0.658   0.814  1.0122  0.9739 -0.7304
 1971SOL    HW2 6246   1.595   0.671   0.938  0.0165  1.5999 -0.1081
 1972SOL     OW 6247   4.623   4.607   2.728 -0.2641  0.1725 -0.2426
 1972SOL    HW1 6248   4.700   4.578   2.679  0.4400 -0.7449  1.3492
 1972SOL    HW2 6249   4.581   4.526   2.757 -1.1108  0.6875 -0.0217
 1973SOL     OW 6250   3.168   3.834   5.219 -0.0171  0.2642 -0.0643
 1973SOL    HW1 6251   3.159   3.929   5.210 -0.0740  0.1981 -0.6871
 1973SOL    HW2 6252   3.185   3.803   5.130  2.6730 -0.0216  0.4964
 1974SOL     OW 6253   1.174   3.635   3.983 -0.0837 -0.0897 -0.2797
 1974SOL    HW1 6254   1.220   3.609   3.903  0.7110 -0.1177  0.1780
 1974SOL    HW2 6255   1.086   3.600   3.973  0.2441 -0.7787 -0.7928
 1975SOL     OW 6256   2.263   2.052   4.912 -0.5296 -0.4929  0.4778
 1975SOL    HW1 6257   2.212   2.098   4.977 -0.4738 -0.3727  0.4372
 1975SOL    HW2 6258   2.207   2.049   4.834  0.1014  0.9920 -0.0634
 1976SOL     OW 6259   1.940   3.905   3.088  0.0111 -0.7360 -0.0483
 1976SOL    HW1 6260   1.900   3.843   3.026 -0.0397  1.1440 -1.9490
 1976SOL    HW2 6261   1.873   3.919   3.154 -0.5706 -1.4951 -0.4547
 1977SOL     OW 6262   4.242   5.107   3.199  0.4366 -0.1181  0.7246
 1977SOL    HW1 6263   4.204   5.090   3.285 -0.0793  2.1170  0.9709
 1977SOL    HW2 6264   4.174   5.081   3.137  0.6913 -1.4408  0.9783
 1978SOL     OW 6265   1.165   1.553   1.053 -0.3458  0.1142  0.8574
 1978SOL    HW1 6266   1.212   1.590   0.978 -0.7087  1.7802  1.4336
 1978SOL    HW2 6267   1.206   1.467   1.067  1.1017  0.6464  0.0291
 1979SOL     OW 6268   4.440   1.035   0.100  0.3157  0.0811  0.6597
 1979SOL    HW1 6269   4.379   1.086   0.048  0.4024 -1.0553 -0.5724
 1979SOL    HW2 6270   4.526   1.055   0.063  0.4895  0.1103  1.0730
 1980SOL     OW 6271   1.037   3.608   4.943  0.2238 -0.3621  0.2101
 1980SOL    HW1 6272   0.944   3.630   4.939  0.0486 -0.8380  1.3539
 1980SOL    HW2 6273   1.081   3.691   4.962  0.0987 -0.0325 -0.8828
 1981SOL     OW 6274   2.319   4.874   4.880  0.2826  0.0072 -0.9831
 1981SOL    HW1 6275   2.255   4.935   4.844 -0.6844  0.2024  1.0080
 1981SOL    HW2 6276   2.398   4.926   4.891  0.0082  0.4381 -1.0504
 1982SOL     OW 6277   0.951   0.985   1.071 -0.3567  0.0447  0.4681
 1982SOL    HW1 6278   0.984   1.058   1.124 -0.6959  0.1892  0.4824
 1982SOL    HW2 6279   0.864   1.014   1.042  0.4970  0.6769 -1.5487
 1983SOL     OW 6280   4.704   0.825   1.898 -0.5496 -0.7885  0.1723
 1983SOL    HW1 6281   4.609   0.815   1.899 -0.8063  1.4551  1.6958
 1983SOL    HW2 6282   4.724   0.877   1.976  1.5919  1.4039 -1.7388
 1984SOL     OW 6283   2.710   2.198   0.618 -0.0268  0.6399  0.2783
 1984SOL    HW1 6284   2.674   2.270   0.566 -0.2291  0.1673 -0.2439
 1984SOL    HW2 6285   2.636   2.138   0.630  0.8079 -0.8414 -1.6739
 1985SOL     OW 6286   0.703   1.373   3.325 -0.1912 -0.1364  0.0622
 1985SOL    HW1 6287   0.692   1.313   3.399  0.2648  0.1413  0.3639
 1985SOL    HW2 6288   0.671   1.325   3.249  0.1101 -0.7345  0.3148
 1986SOL     OW 6289   3.392   0.971   3.303  0.1625  0.2646 -0.4103
 1986SOL    HW1 6290   3.407   0.959   3.396  0.8205 -0.9608 -0.6630
 1986SOL    HW2 6291   3.409   1.064   3.288  1.4337  0.1903  0.4498
 1987SOL     OW 6292   1.956   4.251   0.382  0.0037 -0.0958  0.0569
 1987SOL    HW1 6293   1.937   4.319   0.446  0.4659  0.7109 -0.6396
 1987SOL    HW2 6294   2.034   4.283   0.336  0.3216 -1.1735 -0.1710
 1988SOL     OW 6295   0.409   5.060   1.613  0.2762 -0.1340 -0.1956
 1988SOL    HW1 6296   0.471   5.091   1.679 -0.4202 -0.9558  0.8481
 1988SOL    HW2 6297   0.323   5.071   1.653 -0.1266 -1.0066 -0.8025
 1989SOL     OW 6298   1.106   1.607   3.793  0.3268  0.1288 -0.0374
 1989SOL    HW1 6299   1.022   1.630   3.754 -0.0670 -1.3824 -0.1245
 1989SOL    HW2 6300   1.084   1.566   3.877  1.0277  0.7781  0.4710
 1990SOL     OW 6301   2.361   4.280   0.720  0.8521 -0.5633  0.0682
 1990SOL    HW1 6302   2.295   4.331   0.768  1.3702 -1.6788  2.0284
 1990SOL    HW2 6303   2.310   4.221   0.664  0.1389 -1.7711  1.9505
 1991SOL     OW 6304   1.164   0.409   4.238 -0.2202  0.6721  0.3511
 1991SOL    HW1 6305   1.179   0.326   4.283  1.5139  0.9004  0.1946
 1991SOL    HW2 6306   1.115   0.385   4.160  0.5095 -0.2387  0.1671
 1992SOL     OW 6307   0.279   3.139   1.234 -0.5240 -0.0469  0.0215
 1992SOL    HW1 6308   0.199   3.129   1.181 -0.7199  2.1365 -0.1390
 1992SOL    HW2 6309   0.350   3.144   1.170 -0.5623  0.6978  0.0281
 1993SOL     OW 6310   0.595   2.180   3.956  0.4213 -0.2585 -0.6246
 1993SOL    HW1 6311   0.649   2.140   3.888  1.7132  2.4144 -1.2309
 1993SOL    HW2 6312   0.530   2.232   3.909 -0.0253 -0.1151  0.1384
 1994SOL     OW 6313   1.572   0.973   1.846  0.0376  0.2498  0.3061
 1994SOL    HW1 6314   1.656   0.989   1.889 -0.5317  0.4118  1.3620
 1994SOL    HW2 6315   1.596   0.941   1.759  1.1941  0.4122  0.5536
 1995SOL     OW 6316   5.254   0.935   4.760 -0.3690 -0.1502  0.4634
 1995SOL    HW1 6317   5.202   0.912   4.682 -0.7858 -0.0304  0.7041
 1995SOL    HW2 6318   5.189   0.961   4.825 -0.0448 -0.6040  0.9715
 1996SOL     OW 6319   1.806   5.483   1.262  0.1571 -0.2160 -0.7619
 1996SOL    HW1 6320   1.745   5.553   1.286 -1.1314 -1.3202 -0.7266
 1996SOL    HW2 6321   1.765   5.441   1.187 -0.7849 -3.0134  1.2124
 1997SOL     OW 6322   4.287   2.710   4.628  0.3013 -0.2629 -0.4665
 1997SOL    HW1 6323   4.214   2.708   4.566 -0.5846  0.9212  0.5248
 1997SOL    HW2 6324   4.248   2.689   4.713  1.2791 -0.5352 -0.0694
 1998SOL     OW 6325   1.138   0.559   1.442 -0.3263 -0.3966  0.0348
 1998SOL    HW1 6326   1.162   0.640   1.398 -0.6143 -0.2417  0.1644
 1998SOL    HW2 6327   1.060   0.528   1.395 -0.2300 -0.5862 -0.0001
 1999SOL     OW 6328   3.674   2.294   2.955 -0.1059 -0.5218  0.2438
 1999SOL    HW1 6329   3.594   2.340   2.982 -0.4722 -0.8309 -0.3047
 1999SOL    HW2 6330   3.743   2.335   3.006 -0.7188 -0.7513  1.2758
 2000SOL     OW 6331   0.909   4.325   3.337  0.5834  0.0985 -0.3398
 2000SOL    HW1 6332   0.917   4.230   3.330  1.3582  0.0324  1.2059
 2000SOL    HW2 6333   0.821   4.340   3.370  0.7714 -0.1528  0.3009
 2001SOL     OW 6334   3.718   3.411   5.469 -0.7661  0.5815 -0.3406
 2001SOL    HW1 6335   3.795   3.372   5.427  0.1660 -0.1940  2.0069
 2001SOL    HW2 6336   3.660   3.432   5.397 -0.3975 -3.2613 -1.8622
 2002SOL     OW 6337   4.095   0.811   3.354 -0.0352 -0.2656  0.2860
 2002SOL    HW1 6338   4.072   0.820   3.261 -1.4760 -0.0248  0.6483
 2002SOL    HW2 6339   4.096   0.717   3.370  0.8757 -0.3295 -0.1290
 2003SOL     OW 6340   0.901   3.555   3.468  0.2212  0.0819  0.3084
 2003SOL    HW1 6341   0.946   3.495   3.408  0.6960  0.1877  0.5501
 2003SOL    HW2 6342   0.851   3.497   3.526  0.9179 -0.1038  0.7326
 2004SOL     OW 6343   2.254   5.291   0.424 -0.1771  0.0705  0.0466
 2004SOL    HW1 6344   2.272   5.197   0.422  0.8119  0.2716 -1.7441
 2004SOL    HW2 6345   2.279   5.319   0.511  1.1023 -1.0285  0.0442
 2005SOL     OW 6346   3.309   1.421   0.467 -0.2021  0.3027  0.6007
 2005SOL    HW1 6347   3.396   1.394   0.498  0.1254  0.9827  0.2887
 2005SOL    HW2 6348   3.255   1.422   0.546 -0.3733 -1.7801  0.5542
 2006SOL     OW 6349   5.452   4.448   2.261  0.0264 -0.6865  0.0590
 2006SOL    HW1 6350   5.489   4.427   2.347 -2.2168 -2.1877  0.7153
 2006SOL    HW2 6351   5.412   4.366   2.232  2.1037 -0.6066 -3.1529
 2007SOL     OW 6352   0.097   5.488   0.773 -0.3393 -0.2817 -0.0138
 2007SOL    HW1 6353   0.073   5.515   0.862 -0.6163 -0.0948 -0.1436
 2007SOL    HW2 6354   0.016   5.452   0.737 -0.3547  0.0987 -0.3641
 2008SOL     OW 6355   2.971   2.843   3.291  0.3151 -0.1768  0.4908
 2008SOL    HW1 6356   2.994   2.891   3.370  1.0319  0.7047 -0.2458
 2008SOL    HW2 6357   2.899   2.786   3.317 -2.3857  3.2004  0.7513
 2009SOL     OW 6358   3.161   0.843   1.129  0.0309 -0.6105  0.5505
 2009SOL    HW1 6359   3.186   0.765   1.178  1.1825 -0.8763 -0.4376
 2009SOL    HW2 6360   3.156   0.814   1.038 -2.1346 -0.1355  0.4970
 2010SOL     OW 6361   1.495   2.624   1.320  0.2054 -0.2651 -0.3924
 2010SOL    HW1 6362   1.530   2.608   1.233 -1.6237  1.6574 -1.5335
 2010SOL    HW2 6363   1.400   2.610   1.311 -0.2755  1.9353  0.7266
 2011SOL     OW 6364   1.775   0.366   3.176  0.8985  0.4529  0.4181
 2011SOL    HW1 6365   1.717   0.374   3.100  1.0327 -2.1214 -0.0111
 2011SOL    HW2 6366   1.742   0.431   3.239 -1.4395  0.1531 -0.4499
 2012SOL     OW 6367   4.244   4.311   0.006 -0.4740  0.2884 -0.4557
 2012SOL    HW1 6368   4.309   4.268   0.061  0.9697  1.9451 -0.8352
 2012SOL    HW2 6369   4.160   4.291   0.048  0.1832 -2.3092 -0.2519
 2013SOL     OW 6370   2.532   4.668   2.447  0.2594  0.3173  0.1582
 2013SOL    HW1 6371   2.467   4.735   2.469 -0.7144 -1.1316  1.8057
 2013SOL    HW2 6372   2.543   4.676   2.352 -1.8581  0.9971 -0.0572
 2014SOL     OW 6373   2.079   3.749   1.384  0.5525  0.2088 -1.0443
 2014SOL    HW1 6374   2.169   3.747   1.353  0.7638 -1.8661 -0.3836
 2014SOL    HW2 6375   2.084   3.726   1.476 -0.5779  0.9493 -0.7802
 2015SOL     OW 6376   4.629   4.198   0.701  0.3955  0.2722  0.1114
 2015SOL    HW1 6377   4.552   4.147   0.726  0.1638  0.2674 -0.5870
 2015SOL    HW2 6378   4.626   4.275   0.758  0.3917 -0.1772  0.7279
 2016SOL     OW 6379   4.524   2.422   4.480  0.5020  1.1484  0.0053
 2016SOL    HW1 6380   4.445   2.412   4.534  0.0336  1.5292 -0.6053
 2016SOL    HW2 6381   4.596   2.402   4.540 -0.1314 -0.9687  0.1205
 2017SOL     OW 6382   2.599   2.662   2.868 -0.0679 -0.0331  0.0823
 2017SOL    HW1 6383   2.592   2.567   2.867  0.8340 -0.1088  0.3530
 2017SOL    HW2 6384   2.694   2.679   2.869 -0.2200  0.8632 -0.0931
 2018SOL     OW 6385   1.913   0.731   3.276  0.7983 -0.2178  0.6156
 2018SOL    HW1 6386   1.842   0.773   3.324 -1.2839 -1.4256 -1.2820
 2018SOL    HW2 6387   1.925   0.647   3.320  0.9388 -0.0675  0.8610
 2019SOL     OW 6388   1.441   4.410   4.601  0.1133 -0.6436  0.0082
 2019SOL    HW1 6389   1.531   4.435   4.624  0.1596 -1.3445  0.6169
 2019SOL    HW2 6390   1.425   4.330   4.652 -0.5622 -0.9941 -0.7514
 2020SOL     OW 6391   1.636   1.578   1.112 -0.0682 -0.0201  0.0403
 2020SOL    HW1 6392   1.569   1.523   1.152  1.0734 -0.8887  0.8233
 2020SOL    HW2 6393   1.590   1.655   1.082 -1.4014 -0.5774  0.6263
 2021SOL     OW 6394   2.869   3.174   5.156 -0.3572 -0.0437 -0.1168
 2021SOL    HW1 6395   2.935   3.178   5.226  0.5799  3.0087 -1.0882
 2021SOL    HW2 6396   2.832   3.087   5.163  0.6837 -0.2877  3.3236
 2022SOL     OW 6397   0.337   0.925   3.491  0.3838  0.0033 -0.3655
 2022SOL    HW1 6398   0.337   0.953   3.583  0.1943  0.9989 -0.6624
 2022SOL    HW2 6399   0.271   0.856   3.487 -1.0987  1.3714 -0.1557
 2023SOL     OW 6400   2.884   5.259   4.613  0.1181  0.4935 -0.8129
 2023SOL    HW1 6401   2.814   5.223   4.669 -0.5853  0.4456 -1.7071
 2023SOL    HW2 6402   2.844   5.334   4.569  1.4912  2.2109  0.7926
 2024SOL     OW 6403   3.586   2.235   0.000 -0.6336 -0.6157 -0.2457
 2024SOL    HW1 6404   3.595   2.200   0.089 -0.7144  0.2593  0.1198
 2024SOL    HW2 6405   3.676   2.242  -0.032 -0.7178 -3.3911 -1.2433
 2025SOL     OW 6406   4.329   1.328   0.647 -0.4781  0.7893 -0.2300
 2025SOL    HW1 6407   4.391   1.277   0.594 -1.7501 -0.7068 -0.3099
 2025SOL    HW2 6408   4.308   1.403   0.592  0.5286  0.8215 -0.5918
 2026SOL     OW 6409   0.151   5.406   2.214  0.0344 -0.0171 -0.2102
 2026SOL    HW1 6410   0.099   5.374   2.288 -1.3475  1.2219 -0.6046
 2026SOL    HW2 6411   0.134   5.501   2.213  1.6521  0.2694 -0.8744
 2027SOL     OW 6412   2.307   0.596   2.586 -0.4575 -0.5903  0.5905
 2027SOL    HW1 6413   2.352   0.668   2.629 -1.6035 -0.0864  0.9737
 2027SOL    HW2 6414   2.320   0.612   2.492 -0.4757 -0.0361  0.6802
 2028SOL     OW 6415   1.759   3.470   4.774  0.1364  0.6547 -0.0770
 2028SOL    HW1 6416   1.710   3.480   4.855  0.4364  0.5559  0.1186
 2028SOL    HW2 6417   1.750   3.377   4.752  2.3974  0.0458  1.3607
 2029SOL     OW 6418   4.553   2.418   1.714  0.0773 -0.0617 -0.3743
 2029SOL    HW1 6419   4.504   2.495   1.686  0.1846 -0.8997 -3.0534
 2029SOL    HW2 6420   4.486   2.349   1.721  0.5167 -0.6586 -1.8411
 2030SOL     OW 6421   4.568   0.911   4.942 -0.2361  0.8197 -0.3278
 2030SOL    HW1 6422   4.484   0.887   4.902 -0.2097 -0.4050  0.3120
 2030SOL    HW2 6423   4.544   0.947   5.027 -0.1574  1.1928 -0.4637
 2031SOL     OW 6424   1.100   2.433   0.696  0.0005  0.1680  0.3107
 2031SOL    HW1 6425   1.118   2.475   0.612  0.0027 -1.0264 -0.2921
 2031SOL    HW2 6426   1.093   2.340   0.676 -2.3699  0.0970  1.2332
 2032SOL     OW 6427   0.427   5.148   0.595 -0.6518 -0.2649 -0.0525
 2032SOL    HW1 6428   0.392   5.230   0.629 -1.2425 -0.0254 -1.2084
 2032SOL    HW2 6429   0.418   5.086   0.667 -1.4350  0.3581  0.3899
 2033SOL     OW 6430   1.116   5.203   0.698  0.4139 -0.5971  0.0968
 2033SOL    HW1 6431   1.204   5.193   0.734  1.1265  0.9680 -1.0930
 2033SOL    HW2 6432   1.069   5.255   0.763  1.9252  2.8959 -1.4498
 2034SOL     OW 6433   2.990   0.290   3.985 -0.0420 -0.1226  0.6165
 2034SOL    HW1 6434   3.063   0.237   4.016  0.9423  0.2177 -1.0833
 2034SOL    HW2 6435   2.973   0.351   4.058  0.9578 -0.5999  1.2612
 2035SOL     OW 6436   4.950   2.932   2.615 -0.0279  0.4818  0.1827
 2035SOL    HW1 6437   4.981   2.842   2.612 -0.7137  0.2585 -0.0686
 2035SOL    HW2 6438   4.948   2.960   2.523 -0.7970  0.4238  0.1834
 2036SOL     OW 6439   3.335   1.802   0.455  0.4242 -0.1171 -0.2169
 2036SOL    HW1 6440   3.372   1.717   0.431  2.5875  0.3939  1.1488
 2036SOL    HW2 6441   3.267   1.782   0.519 -0.1171 -0.9114 -1.0258
 2037SOL     OW 6442   2.816   2.920   0.900  0.1233  0.4824 -0.0546
 2037SOL    HW1 6443   2.732   2.873   0.903 -0.7638  2.0823  1.2472
 2037SOL    HW2 6444   2.796   3.001   0.853  0.3443  1.9499  2.2978
 2038SOL     OW 6445   1.027   1.224   1.200  0.2501  0.4982 -0.4862
 2038SOL    HW1 6446   0.975   1.303   1.213 -1.2889 -0.2385 -1.9953
 2038SOL    HW2 6447   1.117   1.256   1.189 -0.1827  1.9365  0.0990
 2039SOL     OW 6448   1.151   4.858   1.915  0.1349  0.4578 -0.2495
 2039SOL    HW1 6449   1.102   4.784   1.877  0.2249 -0.1201  0.7492
 2039SOL    HW2 6450   1.192   4.822   1.994 -0.5554  1.8093  0.7403
 2040SOL     OW 6451   0.440   0.977   4.767 -0.5862 -0.7607 -0.2966
 2040SOL    HW1 6452   0.483   1.034   4.704 -0.7024 -0.8985 -0.5021
 2040SOL    HW2 6453   0.508   0.914   4.792 -0.7561 -1.1761 -0.8656
 2041SOL     OW 6454   3.874   1.056   3.476 -0.5036 -0.5454  0.5238
 2041SOL    HW1 6455   3.798   1.108   3.450  0.3218 -0.0702 -0.9699
 2041SOL    HW2 6456   3.851   0.966   3.453 -0.6346 -0.4119  0.1373
 2042SOL     OW 6457   5.230   3.204   1.225  0.4271 -0.5922  0.2205
 2042SOL    HW1 6458   5.193   3.250   1.150  0.1003 -0.1740  0.6385
 2042SOL    HW2 6459   5.160   3.203   1.290  0.3625 -1.8363  0.1522
 2043SOL     OW 6460   3.028   4.951   2.348 -0.0880  0.2599 -0.0256
 2043SOL    HW1 6461   2.999   5.011   2.416 -1.2861  1.9860 -1.9931
 2043SOL    HW2 6462   2.975   4.973   2.271 -0.1899 -2.9835 -0.9768
 2044SOL     OW 6463   3.339   4.427   2.006 -0.0589 -0.2256 -0.3823
 2044SOL    HW1 6464   3.316   4.344   2.049  1.2442 -1.3939 -1.8913
 2044SOL    HW2 6465   3.409   4.404   1.945  1.0911  2.2022 -0.0476
 2045SOL     OW 6466   4.421   0.446   1.134  0.0894  0.3175  0.3887
 2045SOL    HW1 6467   4.483   0.519   1.130 -1.0397  1.2765  0.1432
 2045SOL    HW2 6468   4.459   0.386   1.198 -0.8745  2.9434  3.5676
 2046SOL     OW 6469   2.518   3.626   2.204  0.1725 -0.3288 -0.0236
 2046SOL    HW1 6470   2.522   3.569   2.280  1.2274 -0.3439 -0.0747
 2046SOL    HW2 6471   2.524   3.714   2.240  0.1124 -0.3139 -0.0504
 2047SOL     OW 6472   3.968   5.233   4.402  0.1115  0.1204 -0.3570
 2047SOL    HW1 6473   4.047   5.281   4.426  0.0751 -1.0731  2.3479
 2047SOL    HW2 6474   3.997   5.142   4.394 -0.5796 -0.0029 -1.5400
 2048SOL     OW 6475   3.890   0.597   1.440  0.0262 -0.0822  0.0864
 2048SOL    HW1 6476   3.927   0.602   1.529 -1.5873 -0.3053  0.7895
 2048SOL    HW2 6477   3.840   0.515   1.440 -0.8469  0.4479 -0.6819
 2049SOL     OW 6478   0.808   1.127   4.680 -0.2145  0.5172 -0.8982
 2049SOL    HW1 6479   0.897   1.123   4.645  0.3084  0.1739  0.4331
 2049SOL    HW2 6480   0.818   1.104   4.773 -2.0165 -2.0687 -1.3051
 2050SOL     OW 6481   5.030   2.096   0.734 -0.1209 -0.3430 -0.6076
 2050SOL    HW1 6482   4.940   2.121   0.713  0.6674  1.7670 -1.5197
 2050SOL    HW2 6483   5.079   2.111   0.653  0.9249 -2.2349 -0.3621
 2051SOL     OW 6484   3.900   3.640   0.020 -0.7239 -0.4383 -0.2940
 2051SOL    HW1 6485   3.959   3.598  -0.042  2.0413 -0.3816  2.2002
 2051SOL    HW2 6486   3.814   3.636  -0.022  0.1141 -5.0189 -1.8696
 2052SOL     OW 6487   5.513   0.984   2.664 -0.2657  0.0058  0.2962
 2052SOL    HW1 6488   5.514   0.960   2.757  0.8276 -0.8919  0.0719
 2052SOL    HW2 6489   5.534   0.902   2.619  1.4047  0.9177 -0.6264
 2053SOL     OW 6490   4.206   3.269   4.033  0.1121 -0.2450  0.2971
 2053SOL    HW1 6491   4.267   3.213   3.984 -0.1007  0.6691 -1.0217
 2053SOL    HW2 6492   4.157   3.208   4.088  0.5919 -1.2467 -0.3680
 2054SOL     OW 6493   2.772   2.672   3.376 -0.0655 -0.2453  0.0149
 2054SOL    HW1 6494   2.682   2.701   3.360 -0.2497 -0.3252  0.8705
 2054SOL    HW2 6495   2.768   2.577   3.372 -0.1211 -0.2672  0.5597
 2055SOL     OW 6496   5.089   3.441   2.158 -0.0531  0.0465  0.0866
 2055SOL    HW1 6497   5.060   3.413   2.245  3.8265  1.1509  1.8475
 2055SOL    HW2 6498   5.030   3.512   2.135  0.3918  1.4112  2.9452
 2056SOL     OW 6499   2.583   3.706   1.002 -0.1800 -0.1127 -0.1853
 2056SOL    HW1 6500   2.510   3.766   0.990  0.4093  0.4531 -0.9885
 2056SOL    HW2 6501   2.591   3.659   0.919 -0.5473 -1.2140  0.3880
 2057SOL     OW 6502   3.080   4.322   5.291 -0.0341 -0.4491  0.6676
 2057SOL    HW1 6503   3.158   4.343   5.239 -1.4585  0.0376 -1.3471
 2057SOL    HW2 6504   3.073   4.392   5.355  0.4760  0.2053  0.0131
 2058SOL     OW 6505   1.381   0.590   5.208 -0.4587 -0.2779 -0.5002
 2058SOL    HW1 6506   1.328   0.602   5.129 -1.2701 -0.6959 -0.0265
 2058SOL    HW2 6507   1.410   0.678   5.231  0.7740 -0.2818 -1.9353
 2059SOL     OW 6508   1.467   4.650   2.965 -0.4896 -0.3744  0.0469
 2059SOL    HW1 6509   1.531   4.637   2.896 -1.5890 -3.2291 -0.4900
 2059SOL    HW2 6510   1.498   4.596   3.038 -1.9096 -1.2387  0.0284
 2060SOL     OW 6511   2.647   5.484   3.592 -0.0837 -0.2947  0.4974
 2060SOL    HW1 6512   2.706   5.484   3.668  0.1314  2.2717  0.3782
 2060SOL    HW2 6513   2.669   5.564   3.545 -1.3409 -1.0428 -1.4148
 2061SOL     OW 6514   3.449   1.010   4.696 -0.9025 -0.6272 -0.3347
 2061SOL    HW1 6515   3.522   1.028   4.756 -2.0190 -0.1538  0.9028
 2061SOL    HW2 6516   3.461   0.918   4.672 -1.1399 -1.1878  1.5982
 2062SOL     OW 6517   0.062   1.019   0.028  0.2237  0.0216  0.2558
 2062SOL    HW1 6518   0.030   1.100   0.069  1.7417  0.0672  1.4061
 2062SOL    HW2 6519  -0.015   0.963   0.024 -0.8186  1.4508 -0.3894
 2063SOL     OW 6520   2.162   4.569   2.953  0.0598 -0.1548  0.0208
 2063SOL    HW1 6521   2.236   4.631   2.952  0.9228 -1.1821 -1.1561
 2063SOL    HW2 6522   2.086   4.624   2.971  1.2552  0.7466  2.6461
 2064SOL     OW 6523   2.068   3.933   0.764  0.3099  0.5178  0.4354
 2064SOL    HW1 6524   1.975   3.933   0.784  0.4636 -0.5252  1.1820
 2064SOL    HW2 6525   2.086   4.021   0.730 -0.9391  0.7110  0.2753
 2065SOL     OW 6526   2.011   3.622   3.270  0.7482 -0.1892 -0.1735
 2065SOL    HW1 6527   2.083   3.562   3.253  0.1437 -1.3210  1.1970
 2065SOL    HW2 6528   2.032   3.663   3.353  0.9828  1.2632 -0.9287
 2066SOL     OW 6529   3.558   3.702   3.749 -0.4976  0.2078 -0.1857
 2066SOL    HW1 6530   3.606   3.759   3.809  0.1086 -0.3974 -0.0893
 2066SOL    HW2 6531   3.466   3.713   3.773 -0.3984  1.2473 -0.2595
 2067SOL     OW 6532   0.438   4.651   0.078  0.0328  0.0853  0.1949
 2067SOL    HW1 6533   0.502   4.583   0.058 -1.2233 -1.2581  0.6286
 2067SOL    HW2 6534   0.366   4.634   0.017 -0.2176  1.1275  0.1933
 2068SOL     OW 6535   4.073   3.664   1.792  0.0643  0.1693 -0.0346
 2068SOL    HW1 6536   4.134   3.651   1.719  0.7668 -1.4617  0.8243
 2068SOL    HW2 6537   4.071   3.580   1.837 -0.4161  1.1390  1.7935
 2069SOL     OW 6538   5.456   1.821   3.176 -0.4778  0.2206  0.1650
 2069SOL    HW1 6539   5.417   1.784   3.255  0.9224 -0.9484  0.3168
 2069SOL    HW2 6540   5.411   1.776   3.104  1.1238 -1.7359  0.3451
 2070SOL     OW 6541   3.458   3.911   3.969  0.0187 -0.3310  0.1021
 2070SOL    HW1 6542   3.474   4.000   3.938  0.1542 -0.9162 -1.5523
 2070SOL    HW2 6543   3.364   3.908   3.986  0.3073  0.6719  1.9622
 2071SOL     OW 6544   5.224   0.556   3.860 -0.1671  0.4439 -0.0913
 2071SOL    HW1 6545   5.297   0.498   3.880 -0.6416 -0.2173 -0.2464
 2071SOL    HW2 6546   5.221   0.559   3.764 -0.4719  0.3062 -0.0858
 2072SOL     OW 6547   2.112   1.660   2.026 -0.1896 -0.4938 -0.2307
 2072SOL    HW1 6548   2.039   1.630   2.080 -0.1501  3.1931  1.9900
 2072SOL    HW2 6549   2.071   1.691   1.946 -0.8176 -0.6110  0.0446
 2073SOL     OW 6550   2.572   2.861   4.078 -0.1525  0.4931  0.2940
 2073SOL    HW1 6551   2.481   2.855   4.106 -0.0334  1.4776  0.9146
 2073SOL    HW2 6552   2.570   2.837   3.985 -0.9061 -0.3458  0.5152
 2074SOL     OW 6553   1.740   5.259   3.233  0.0770  0.0331 -0.1477
 2074SOL    HW1 6554   1.712   5.301   3.314  3.2681 -0.4495  1.2977
 2074SOL    HW2 6555   1.717   5.167   3.245 -0.9269  0.2365 -0.4923
 2075SOL     OW 6556   4.302   5.070   4.653  0.7038  0.2254 -0.3984
 2075SOL    HW1 6557   4.239   5.020   4.704  1.4176 -2.4311 -2.0117
 2075SOL    HW2 6558   4.361   5.108   4.719 -0.2049 -0.5995  0.9108
 2076SOL     OW 6559   4.542   5.157   2.590 -0.5619 -0.0465  0.0380
 2076SOL    HW1 6560   4.576   5.222   2.529 -0.7876  0.4172  0.4038
 2076SOL    HW2 6561   4.501   5.091   2.535 -0.6240  0.2926 -0.3166
 2077SOL     OW 6562   0.293   1.522   5.309  0.1073  0.4404  0.2359
 2077SOL    HW1 6563   0.236   1.502   5.235 -0.7825 -0.3478  1.1245
 2077SOL    HW2 6564   0.234   1.557   5.376  0.9104  1.1920  0.5692
 2078SOL     OW 6565   3.082   2.254   2.161 -0.0475  0.8719 -0.0909
 2078SOL    HW1 6566   2.996   2.282   2.128  0.3889  1.9954 -0.3001
 2078SOL    HW2 6567   3.063   2.205   2.241 -1.0327 -0.7535 -1.3065
 2079SOL     OW 6568   1.585   3.659   1.034  0.2168  0.0832  0.0072
 2079SOL    HW1 6569   1.579   3.595   1.105 -0.9943 -0.2447 -0.3748
 2079SOL    HW2 6570   1.572   3.608   0.955 -0.9742  0.8373 -0.2891
 2080SOL     OW 6571   1.824   2.285   0.466  0.6697 -0.3970 -0.2130
 2080SOL    HW1 6572   1.734   2.317   0.474  0.8673  0.2652 -0.6050
 2080SOL    HW2 6573   1.823   2.198   0.507 -0.4226 -0.9065 -1.2928
 2081SOL     OW 6574   2.186   5.428   1.639  0.1084  0.0812 -0.3189
 2081SOL    HW1 6575   2.136   5.352   1.670  0.3979 -0.3805 -0.9827
 2081SOL    HW2 6576   2.163   5.436   1.547  1.8989 -0.6565 -0.8458
 2082SOL     OW 6577   3.020   2.637   5.445 -0.0812  0.3192  0.2331
 2082SOL    HW1 6578   3.057   2.709   5.497 -0.1199 -0.3376  1.1802
 2082SOL    HW2 6579   3.095   2.598   5.400  0.0455  0.4903  0.2960
 2083SOL     OW 6580   4.637   2.674   3.267  0.8620  0.4710  0.1275
 2083SOL    HW1 6581   4.731   2.677   3.284  0.8683  2.2044 -0.1154
 2083SOL    HW2 6582   4.597   2.701   3.350  0.6312  1.3130 -0.2602
 2084SOL     OW 6583   1.349   2.202   3.483 -0.0781 -0.3933  0.3493
 2084SOL    HW1 6584   1.314   2.142   3.549 -1.9823  1.6098  1.2212
 2084SOL    HW2 6585   1.284   2.202   3.413  0.0401  0.4132  0.2282
 2085SOL     OW 6586   0.400   4.072   0.165  0.2021 -0.1850  0.2477
 2085SOL    HW1 6587   0.321   4.038   0.205 -0.7898 -0.5841 -1.9776
 2085SOL    HW2 6588   0.383   4.069   0.071  0.9833  4.2606 -0.1296
 2086SOL     OW 6589   3.776   2.420   4.557 -0.0766  0.0508 -0.1242
 2086SOL    HW1 6590   3.804   2.344   4.607 -0.3621 -0.0856 -0.1706
 2086SOL    HW2 6591   3.807   2.403   4.468 -0.6859 -0.3022 -0.2685
 2087SOL     OW 6592   0.102   1.509   3.256  0.4407  0.4213 -0.4890
 2087SOL    HW1 6593   0.145   1.430   3.289 -0.9052  0.7712  2.2638
 2087SOL    HW2 6594   0.040   1.476   3.190 -1.1365 -1.0549  1.6366
 2088SOL     OW 6595   4.847   0.768   0.057  0.3850  0.0950 -0.7978
 2088SOL    HW1 6596   4.758   0.759   0.092  0.4213  0.3005 -0.6535
 2088SOL    HW2 6597   4.877   0.854   0.088  0.5902  0.0776 -0.9443
 2089SOL     OW 6598   4.464   3.902   1.545  0.1319 -0.3255 -0.8880
 2089SOL    HW1 6599   4.451   3.808   1.531  2.7806 -0.6229 -1.5803
 2089SOL    HW2 6600   4.509   3.908   1.629 -1.2811  0.4545 -0.1555
 2090SOL     OW 6601   3.006   0.791   4.164 -0.5086  0.4740 -0.0678
 2090SOL    HW1 6602   3.071   0.827   4.103 -0.5794  1.3676  0.3783
 2090SOL    HW2 6603   2.940   0.859   4.170 -0.3369  0.5211  1.2744
 2091SOL     OW 6604   2.965   4.996   5.506  0.8241  0.0160  0.5975
 2091SOL    HW1 6605   2.976   5.056   5.432 -1.9935 -0.4116 -0.2505
 2091SOL    HW2 6606   2.894   5.035   5.557 -1.0536 -2.5510  0.0308
 2092SOL     OW 6607   0.782   2.534   5.390 -0.9532  0.2075  0.0127
 2092SOL    HW1 6608   0.846   2.596   5.426 -0.9692 -0.5727  1.4038
 2092SOL    HW2 6609   0.723   2.515   5.462 -2.5972  0.6765 -1.1866
 2093SOL     OW 6610   2.267   1.840   1.803 -0.3915 -0.2864 -0.0873
 2093SOL    HW1 6611   2.350   1.889   1.798 -0.1538 -0.5974  0.6842
 2093SOL    HW2 6612   2.260   1.815   1.895 -2.1541  1.1108  0.1844
 2094SOL     OW 6613   1.936   3.066   2.699  0.0094  0.0495 -0.3462
 2094SOL    HW1 6614   1.843   3.078   2.681  0.4432  2.2051 -1.3272
 2094SOL    HW2 6615   1.967   3.009   2.628 -0.1094  1.2067 -1.3433
 2095SOL     OW 6616   3.557   3.115   3.915 -0.3300 -0.1426  0.5887
 2095SOL    HW1 6617   3.599   3.200   3.926  0.3974 -0.2797 -1.0269
 2095SOL    HW2 6618   3.541   3.085   4.005  1.9928  0.4328  1.2485
 2096SOL     OW 6619   1.341   5.387   5.422 -0.0104  0.7030 -0.4742
 2096SOL    HW1 6620   1.381   5.351   5.501  1.2131  1.5624 -0.6690
 2096SOL    HW2 6621   1.324   5.479   5.444  0.3577  0.9512 -1.1964
 2097SOL     OW 6622   1.481   5.035   3.292 -0.2059  0.9012 -0.4425
 2097SOL    HW1 6623   1.415   4.976   3.256  0.2031 -0.0104  0.2539
 2097SOL    HW2 6624   1.535   4.978   3.348  0.8786  1.7244 -0.6447
 2098SOL     OW 6625   2.122   3.145   1.348 -0.0230  0.1938  0.1461
 2098SOL    HW1 6626   2.185   3.157   1.277  0.5567 -0.0129  0.6205
 2098SOL    HW2 6627   2.066   3.072   1.319 -2.6564  2.9845 -2.1003
 2099SOL     OW 6628   2.230   1.320   3.417 -0.4084  0.3056 -0.4621
 2099SOL    HW1 6629   2.189   1.316   3.331 -1.5732  0.2564  0.0734
 2099SOL    HW2 6630   2.300   1.384   3.408 -1.0534  0.9158 -1.2355
 2100SOL     OW 6631   1.657   0.815   4.149 -0.2512  0.5130 -0.1996
 2100SOL    HW1 6632   1.563   0.829   4.134 -0.1342  1.7172  0.1467
 2100SOL    HW2 6633   1.683   0.886   4.207  1.1934  1.0716 -1.4902
 2101SOL     OW 6634   1.276   1.916   1.844 -0.2428  0.0595  0.0398
 2101SOL    HW1 6635   1.328   1.994   1.865 -0.6361 -0.0623  1.4838
 2101SOL    HW2 6636   1.187   1.948   1.834 -0.3103 -0.1185  0.0696
 2102SOL     OW 6637   2.514   3.861   1.807 -0.7787  0.2142  0.2411
 2102SOL    HW1 6638   2.515   3.881   1.713  1.8251  0.2620  0.2531
 2102SOL    HW2 6639   2.587   3.800   1.819 -0.8700  0.4919  2.2987
 2103SOL     OW 6640   0.306   4.656   2.755 -0.0547 -0.4573 -0.2445
 2103SOL    HW1 6641   0.257   4.613   2.825 -1.1160  0.5782 -0.3271
 2103SOL    HW2 6642   0.277   4.613   2.675 -0.6363 -0.0336 -0.2660
 2104SOL     OW 6643   3.389   4.438   0.438  0.4139  0.4768  0.8157
 2104SOL    HW1 6644   3.382   4.445   0.533  0.4733  0.3225  0.8317
 2104SOL    HW2 6645   3.298   4.432   0.408  0.4356 -0.7116  0.9621
 2105SOL     OW 6646   3.370   0.215   1.197 -0.4970 -0.3018 -0.6899
 2105SOL    HW1 6647   3.299   0.278   1.187 -0.5546 -0.5154 -1.6449
 2105SOL    HW2 6648   3.333   0.132   1.167 -0.2892 -0.7126  0.1680
 2106SOL     OW 6649   3.854   2.465   3.374  0.5198  0.3620 -0.4185
 2106SOL    HW1 6650   3.871   2.545   3.325 -1.5418 -0.3351 -2.3836
 2106SOL    HW2 6651   3.906   2.398   3.329  0.5669  0.2046 -0.1272
 2107SOL     OW 6652   1.487   4.965   2.902 -0.9165  0.1605  0.1079
 2107SOL    HW1 6653   1.493   4.876   2.867  1.7759  0.1872  0.3990
 2107SOL    HW2 6654   1.437   4.955   2.983 -0.4944 -1.1455  0.2301
 2108SOL     OW 6655   1.562   4.688   0.704  0.3242  0.0679  0.5821
 2108SOL    HW1 6656   1.649   4.671   0.741  0.1201 -0.7170  0.7157
 2108SOL    HW2 6657   1.503   4.634   0.758  0.0286 -1.1897 -0.9605
 2109SOL     OW 6658   4.118   0.852   2.555 -0.0079  0.0198  0.0503
 2109SOL    HW1 6659   4.051   0.826   2.619  0.6223 -0.8924  0.3461
 2109SOL    HW2 6660   4.165   0.923   2.598 -0.9827  0.8937 -0.2897
 2110SOL     OW 6661   3.405   1.875   1.124  0.4342 -0.3711  0.4978
 2110SOL    HW1 6662   3.349   1.924   1.183 -0.8058  0.4190 -1.2993
 2110SOL    HW2 6663   3.449   1.811   1.180 -0.7529  0.3152  2.2454
 2111SOL     OW 6664   1.878   5.248   0.664  0.3725 -0.5979 -0.0243
 2111SOL    HW1 6665   1.960   5.290   0.690  0.7870 -1.1300 -0.4671
 2111SOL    HW2 6666   1.821   5.320   0.638  1.3972 -0.3666 -1.6846
 2112SOL     OW 6667   1.363   3.867   2.863  0.8851 -0.3853  0.4346
 2112SOL    HW1 6668   1.421   3.908   2.927  0.3433 -0.0285  0.6975
 2112SOL    HW2 6669   1.295   3.932   2.847  0.3973 -0.9118  0.3402
 2113SOL     OW 6670   3.252   3.291   0.270  0.4103  0.4273  0.2862
 2113SOL    HW1 6671   3.279   3.220   0.212  1.5517  0.3198  0.9431
 2113SOL    HW2 6672   3.291   3.269   0.355 -1.7684  0.2617  1.2643
 2114SOL     OW 6673   0.249   2.392   4.030  0.2270  0.3495 -0.5324
 2114SOL    HW1 6674   0.315   2.376   3.963 -1.7708  0.8643 -2.6606
 2114SOL    HW2 6675   0.226   2.304   4.061  0.0871  0.0177 -1.5630
 2115SOL     OW 6676   2.546   1.997   4.520  0.7403  0.1932  0.3436
 2115SOL    HW1 6677   2.574   2.088   4.509  0.0635  0.2904 -0.6264
 2115SOL    HW2 6678   2.541   1.962   4.431 -1.0332 -0.1673  0.5700
 2116SOL     OW 6679   4.949   0.827   1.762  0.1224 -0.1534 -0.5959
 2116SOL    HW1 6680   4.857   0.803   1.775 -0.2581  0.6910 -1.6447
 2116SOL    HW2 6681   4.963   0.901   1.822  1.0657 -2.3615  2.0227
 2117SOL     OW 6682   1.978   0.199   3.074  0.3993  0.1160  0.5729
 2117SOL    HW1 6683   1.903   0.246   3.108  1.0181  1.1553  0.5062
 2117SOL    HW2 6684   2.015   0.152   3.149  1.7102  2.3293  1.3451
 2118SOL     OW 6685   3.624   3.499   2.034  0.0733 -0.0943 -0.5155
 2118SOL    HW1 6686   3.573   3.483   2.113  0.8231  1.1026  0.2221
 2118SOL    HW2 6687   3.630   3.414   1.991 -0.5902 -0.6849  0.5518
 2119SOL     OW 6688   3.131   0.730   0.896  0.0811  0.1706  0.1495
 2119SOL    HW1 6689   3.065   0.667   0.926  0.5032  0.4927  1.8060
 2119SOL    HW2 6690   3.149   0.705   0.805 -1.8191 -0.3367 -0.1045
 2120SOL     OW 6691   1.094   1.592   5.352  0.5025  0.3264  0.4149
 2120SOL    HW1 6692   1.065   1.592   5.443  0.4529 -1.0363  0.4094
 2120SOL    HW2 6693   1.055   1.514   5.314 -1.2290  2.0067 -1.3645
 2121SOL     OW 6694   5.114   4.012   2.472  0.1642  0.3232  0.1893
 2121SOL    HW1 6695   5.022   3.992   2.487  0.0028  1.4452  0.7086
 2121SOL    HW2 6696   5.132   3.978   2.384 -0.2250 -1.6409  0.8553
 2122SOL     OW 6697   1.318   0.409   2.856 -0.2274  0.0388  0.5348
 2122SOL    HW1 6698   1.301   0.475   2.923  1.2684  0.0425  0.9313
 2122SOL    HW2 6699   1.251   0.423   2.790 -0.8488  0.9611  1.3505
 2123SOL     OW 6700   3.204   0.597   4.459 -0.5402  0.5084 -0.2810
 2123SOL    HW1 6701   3.228   0.592   4.551  0.8833 -0.0395 -0.6681
 2123SOL    HW2 6702   3.282   0.632   4.415 -1.3928  1.3049 -1.2037
 2124SOL     OW 6703   3.041   4.995   0.684 -0.1576  0.5495 -0.1133
 2124SOL    HW1 6704   2.951   5.007   0.713 -0.1025  1.3141 -0.2629
 2124SOL    HW2 6705   3.058   5.069   0.625  0.5428  0.3701 -0.1410
 2125SOL     OW 6706   2.234   1.900   4.355 -0.1229 -0.2209 -0.9526
 2125SOL    HW1 6707   2.317   1.905   4.308 -0.6451 -1.6977 -2.1116
 2125SOL    HW2 6708   2.194   1.819   4.323 -1.3759 -0.2607  0.6345
 2126SOL     OW 6709   0.561   0.343   2.259  0.1443  0.4557 -0.4343
 2126SOL    HW1 6710   0.519   0.369   2.341 -0.8591  1.0447 -1.1307
 2126SOL    HW2 6711   0.640   0.296   2.286  0.0539  1.0485  0.8619
 2127SOL     OW 6712   4.766   5.362   3.632 -0.4691  0.4288 -0.1495
 2127SOL    HW1 6713   4.759   5.385   3.540 -1.2375  1.5757  0.1801
 2127SOL    HW2 6714   4.681   5.326   3.655  0.1637 -1.1651 -0.2179
 2128SOL     OW 6715   3.350   1.016   1.251  0.6144  0.2465  0.6307
 2128SOL    HW1 6716   3.434   1.006   1.205  0.3307  0.9574 -0.0585
 2128SOL    HW2 6717   3.290   0.959   1.203  0.1096  1.6404 -0.4359
 2129SOL     OW 6718   1.674   4.892   4.318  0.2686  0.1971 -0.1488
 2129SOL    HW1 6719   1.702   4.931   4.401  0.4684  1.6151 -0.8639
 2129SOL    HW2 6720   1.606   4.952   4.286 -0.2468 -0.6856 -0.7047
 2130SOL     OW 6721   2.256   1.729   4.716  0.0039  0.2815  0.0398
 2130SOL    HW1 6722   2.258   1.710   4.622 -1.2983 -1.2111  0.2877
 2130SOL    HW2 6723   2.187   1.796   4.725  1.2003  1.5776 -0.2355
 2131SOL     OW 6724   4.546   0.036   4.315 -0.4448 -0.1520  0.2821
 2131SOL    HW1 6725   4.485   0.106   4.337 -1.9275 -1.1152 -0.6385
 2131SOL    HW2 6726   4.530  -0.032   4.380 -1.2183 -0.8970 -0.6671
 2132SOL     OW 6727   1.457   5.265   1.263  0.6090  0.1478  0.2835
 2132SOL    HW1 6728   1.536   5.258   1.317  1.3815 -0.1661 -0.8602
 2132SOL    HW2 6729   1.438   5.176   1.236 -0.9255  0.0430  1.6083
 2133SOL     OW 6730   1.015   2.693   4.599 -0.5773  0.1602  0.2927
 2133SOL    HW1 6731   0.940   2.715   4.654 -0.9883  1.8994 -0.9162
 2133SOL    HW2 6732   1.091   2.708   4.656 -1.0271  1.2605  0.6315
 2134SOL     OW 6733   4.446   4.178   0.133 -0.2189 -0.4170  0.3003
 2134SOL    HW1 6734   4.511   4.206   0.198 -1.1945  1.9713  0.2804
 2134SOL    HW2 6735   4.384   4.126   0.183  0.2185 -0.4265  0.8433
 2135SOL     OW 6736   3.654   4.909   0.867 -0.6579 -0.2177 -0.1486
 2135SOL    HW1 6737   3.595   4.938   0.936  0.0290  1.8009 -0.3840
 2135SOL    HW2 6738   3.608   4.929   0.786 -0.4536 -0.4066 -0.3127
 2136SOL     OW 6739   1.181   2.564   3.889 -0.1611  0.1817  0.2450
 2136SOL    HW1 6740   1.127   2.639   3.865  1.8396  1.7737  0.5879
 2136SOL    HW2 6741   1.178   2.561   3.985 -0.1678 -0.1441  0.2365
 2137SOL     OW 6742   3.323   5.352   2.310  0.0072 -0.1526 -0.0003
 2137SOL    HW1 6743   3.351   5.357   2.219 -0.9451 -0.1772 -0.2951
 2137SOL    HW2 6744   3.346   5.437   2.348  0.3043 -0.1053 -0.2901
 2138SOL     OW 6745   4.112   3.809   0.895 -0.2425  0.0904 -0.2788
 2138SOL    HW1 6746   4.117   3.827   0.802 -0.7500 -1.0468 -0.5385
 2138SOL    HW2 6747   4.090   3.893   0.936  1.6940  0.9841 -0.9952
 2139SOL     OW 6748   3.587   4.081   1.026  0.0919 -0.1079  0.4765
 2139SOL    HW1 6749   3.554   4.170   1.042 -1.7538 -1.2624  3.4111
 2139SOL    HW2 6750   3.560   4.031   1.102  2.3183 -2.9167 -0.4823
 2140SOL     OW 6751   0.122   4.779   3.219  0.4080 -0.0559  0.0312
 2140SOL    HW1 6752   0.117   4.826   3.302 -1.0580  0.8163 -0.5257
 2140SOL    HW2 6753   0.187   4.827   3.168  0.1277  0.3659  0.0735
 2141SOL     OW 6754   2.288   3.511   3.566 -0.0039  0.2615  0.5874
 2141SOL    HW1 6755   2.242   3.594   3.575  0.2952  0.3641  1.2308
 2141SOL    HW2 6756   2.219   3.446   3.558 -0.2747  0.3837  1.8283
 2142SOL     OW 6757   3.979   0.595   5.122  0.0970  0.0340  0.2020
 2142SOL    HW1 6758   4.010   0.636   5.203 -0.0515  1.3140 -0.3752
 2142SOL    HW2 6759   3.895   0.637   5.105 -0.0888 -0.5718 -0.3636
 2143SOL     OW 6760   0.300   0.250   2.266 -0.1298 -0.0900 -0.6239
 2143SOL    HW1 6761   0.386   0.281   2.237 -0.6953  0.3462 -1.8614
 2143SOL    HW2 6762   0.273   0.313   2.333 -0.5165  1.1382 -1.9134
 2144SOL     OW 6763   2.913   4.458   1.789  0.1179 -0.6043  0.2390
 2144SOL    HW1 6764   2.988   4.406   1.758 -0.4109 -0.4268 -1.3827
 2144SOL    HW2 6765   2.847   4.448   1.720 -0.0773  2.0273  0.0201
 2145SOL     OW 6766   3.999   5.258   2.826  0.0811 -0.3258  0.0385
 2145SOL    HW1 6767   4.090   5.285   2.837  0.2639 -0.3055 -1.4057
 2145SOL    HW2 6768   3.961   5.325   2.769 -1.0529  0.0839  1.2521
 2146SOL     OW 6769   3.062   3.587   1.561 -0.3512  0.5843 -0.2845
 2146SOL    HW1 6770   3.103   3.596   1.474  1.3108 -0.2530  0.3841
 2146SOL    HW2 6771   2.997   3.517   1.549 -0.2964  0.6305 -0.9055
 2147SOL     OW 6772   0.483   4.123   5.176 -0.3348 -0.1882 -0.2497
 2147SOL    HW1 6773   0.531   4.174   5.111  0.8442 -0.9113  0.0376
 2147SOL    HW2 6774   0.400   4.169   5.187  1.1441  2.2829  0.8105
 2148SOL     OW 6775   2.385   1.013   1.921  0.2280  0.5563 -0.5135
 2148SOL    HW1 6776   2.351   0.961   1.848  0.2930  1.1519 -0.9734
 2148SOL    HW2 6777   2.421   0.948   1.981 -0.4865  0.0091 -0.6627
 2149SOL     OW 6778   3.100   2.568   2.593  0.0782 -0.2499 -0.2207
 2149SOL    HW1 6779   3.171   2.625   2.623  0.1417  0.0894 -1.0109
 2149SOL    HW2 6780   3.073   2.521   2.672  1.8285 -1.0878 -0.1074
 2150SOL     OW 6781   3.445   4.606   5.193  0.5586  0.0650 -0.0530
 2150SOL    HW1 6782   3.474   4.662   5.265 -2.0025  0.1046  0.9926
 2150SOL    HW2 6783   3.410   4.667   5.128  0.7837 -0.1109 -0.3367
 2151SOL     OW 6784   1.648   3.726   1.973 -0.2919 -0.0233 -0.7839
 2151SOL    HW1 6785   1.698   3.807   1.985 -3.3122  2.0013 -1.1803
 2151SOL    HW2 6786   1.613   3.707   2.059  0.1222 -0.7280 -0.7705
 2152SOL     OW 6787   0.318   2.734   5.320  0.0800 -0.1371  0.3193
 2152SOL    HW1 6788   0.247   2.786   5.359 -1.2216  0.3928 -2.6363
 2152SOL    HW2 6789   0.274   2.664   5.273  1.6821 -1.5515  0.8624
 2153SOL     OW 6790   0.753   1.974   3.200 -0.0113 -0.0939  0.0966
 2153SOL    HW1 6791   0.797   2.059   3.195 -0.9017  0.4060  0.6702
 2153SOL    HW2 6792   0.746   1.955   3.294  0.4412 -0.9429 -0.0326
 2154SOL     OW 6793   5.448   1.859   1.680 -0.1704  0.6279  0.4196
 2154SOL    HW1 6794   5.525   1.806   1.699  1.0263  1.2907 -2.3561
 2154SOL    HW2 6795   5.377   1.796   1.668  0.7401 -0.2116 -0.6038
 2155SOL     OW 6796   1.181   0.209   0.203  0.0872 -0.4580  0.3113
 2155SOL    HW1 6797   1.137   0.285   0.165  2.1094  1.5203  1.7809
 2155SOL    HW2 6798   1.166   0.217   0.297  2.7862 -0.2043  0.7655
 2156SOL     OW 6799   1.695   5.077   3.495  0.0140 -0.0918 -0.3592
 2156SOL    HW1 6800   1.785   5.077   3.530 -0.9853  0.3105  2.3259
 2156SOL    HW2 6801   1.667   4.986   3.502  0.3559 -0.3112 -1.6643
 2157SOL     OW 6802   3.619   4.105   2.941 -0.1109  0.2603 -0.2698
 2157SOL    HW1 6803   3.685   4.062   2.995 -2.4678 -0.9582  1.8094
 2157SOL    HW2 6804   3.603   4.189   2.984  0.6608  0.9204 -1.2500
 2158SOL     OW 6805   0.681   3.938   5.028  0.2846 -0.1973  0.2215
 2158SOL    HW1 6806   0.726   4.011   4.986 -0.0089  0.7036  1.4412
 2158SOL    HW2 6807   0.611   3.979   5.079 -0.5265 -1.4173  0.0982
 2159SOL     OW 6808   0.134   2.984   1.041 -0.3642  0.9143  1.0143
 2159SOL    HW1 6809   0.158   3.060   0.987  1.5794 -0.5973 -0.2756
 2159SOL    HW2 6810   0.043   3.002   1.067  0.1483  3.8196  0.9753
 2160SOL     OW 6811   5.201   2.504   0.603  0.3447  0.0811 -0.1339
 2160SOL    HW1 6812   5.189   2.544   0.689  1.1117  1.7544 -0.7972
 2160SOL    HW2 6813   5.286   2.460   0.609  1.3215  1.8353 -0.6285
 2161SOL     OW 6814   5.336   4.136   3.896  0.1994  0.5771  0.2672
 2161SOL    HW1 6815   5.351   4.107   3.807  0.3504 -0.1553  0.5321
 2161SOL    HW2 6816   5.423   4.138   3.936  0.2252  1.6408  0.1757
 2162SOL     OW 6817   3.901   0.786   3.849  0.7311  0.8324  0.0933
 2162SOL    HW1 6818   3.969   0.758   3.910  0.2337  1.0851  0.7662
 2162SOL    HW2 6819   3.949   0.825   3.776  1.3340  0.3409  0.2247
 2163SOL     OW 6820   1.881   2.924   1.836 -0.6755  0.0310  0.4293
 2163SOL    HW1 6821   1.884   2.832   1.862 -0.4924 -0.2843 -0.6793
 2163SOL    HW2 6822   1.959   2.936   1.780  0.3557  1.3354  2.0990
 2164SOL     OW 6823   5.551   2.437   1.055 -0.2329  0.3505  0.3569
 2164SOL    HW1 6824   5.519   2.497   1.122 -3.8849 -0.6197 -0.4019
 2164SOL    HW2 6825   5.585   2.494   0.986 -1.3379  1.4776  0.7260
 2165SOL     OW 6826   4.842   5.562   5.093 -0.2821 -0.1573 -0.2855
 2165SOL    HW1 6827   4.919   5.545   5.147 -1.0628  0.2644  0.9753
 2165SOL    HW2 6828   4.793   5.479   5.095  1.0406 -1.0369 -2.6146
 2166SOL     OW 6829   5.213   3.344   1.681 -0.2883 -0.1950 -0.1442
 2166SOL    HW1 6830   5.167   3.336   1.764  0.6834  0.2399  0.4336
 2166SOL    HW2 6831   5.171   3.280   1.624 -1.9313  0.5132  0.2374
 2167SOL     OW 6832   5.518   2.087   0.684 -0.6822  0.2033 -0.2997
 2167SOL    HW1 6833   5.454   2.155   0.666 -1.9246 -0.4592  1.4426
 2167SOL    HW2 6834   5.501   2.062   0.775  3.0451  1.0338  0.6918
 2168SOL     OW 6835   2.834   4.602   0.772  0.7351  0.7003  0.1106
 2168SOL    HW1 6836   2.889   4.535   0.812  0.4737  1.0591  1.0757
 2168SOL    HW2 6837   2.896   4.661   0.728  0.9792 -0.0350 -0.5497
 2169SOL     OW 6838   4.895   2.907   1.080 -0.1073  0.5423  0.2909
 2169SOL    HW1 6839   4.845   2.972   1.131 -1.5595 -1.2536  1.2180
 2169SOL    HW2 6840   4.977   2.899   1.128 -0.7409  0.2014  1.3491
 2170SOL     OW 6841   3.675   4.487   5.030 -0.5729 -0.0851  0.2540
 2170SOL    HW1 6842   3.642   4.573   5.059 -1.0348  0.0097 -0.5210
 2170SOL    HW2 6843   3.726   4.455   5.104  0.6322  1.4058  0.1036
 2171SOL     OW 6844   1.585   0.893   0.060  0.3718 -0.2513  0.3220
 2171SOL    HW1 6845   1.546   0.863   0.143  1.7010 -1.6056  0.4743
 2171SOL    HW2 6846   1.678   0.903   0.080  0.5728  0.1377 -0.8207
 2172SOL     OW 6847   5.120   1.008   5.012 -0.3367 -0.1261  0.1794
 2172SOL    HW1 6848   5.054   1.058   4.964 -1.1999 -0.1460  1.3150
 2172SOL    HW2 6849   5.091   0.917   5.005  0.0551 -0.2345 -0.0584
 2173SOL     OW 6850   0.645   2.382   1.094  0.0999  0.4314 -0.0317
 2173SOL    HW1 6851   0.558   2.378   1.135 -1.0203  1.9993 -2.1645
 2173SOL    HW2 6852   0.694   2.445   1.146  0.0794 -0.7111  1.3857
 2174SOL     OW 6853   2.947   0.694   3.156  0.1096 -0.8861  0.2241
 2174SOL    HW1 6854   2.860   0.663   3.179  0.3730 -1.5147  0.3912
 2174SOL    HW2 6855   2.971   0.643   3.078 -0.2711  0.3366 -0.6961
 2175SOL     OW 6856   1.492   2.133   5.129 -0.4590 -0.1406 -0.1241
 2175SOL    HW1 6857   1.554   2.065   5.102 -0.6148 -0.6294  0.7258
 2175SOL    HW2 6858   1.413   2.084   5.153 -1.3711  0.5123 -1.7390
 2176SOL     OW 6859   1.140   1.680   4.621 -0.0278  0.0308  0.4826
 2176SOL    HW1 6860   1.184   1.715   4.543 -0.7567 -2.4459 -1.0970
 2176SOL    HW2 6861   1.050   1.709   4.613 -0.5057 -1.6254 -0.5486
 2177SOL     OW 6862   0.491   0.494   3.935  0.4457 -0.0121  0.1007
 2177SOL    HW1 6863   0.538   0.575   3.918 -1.0038  0.7777 -0.1837
 2177SOL    HW2 6864   0.406   0.505   3.892  0.0468 -1.4754  0.4705
 2178SOL     OW 6865   4.484   4.394   2.470  0.3493 -0.1021  0.4095
 2178SOL    HW1 6866   4.538   4.330   2.425  0.5848 -0.1199  0.7148
 2178SOL    HW2 6867   4.466   4.461   2.404  0.8180 -0.0538  0.3291
 2179SOL     OW 6868   5.513   3.157   4.684 -0.4849 -1.2006 -0.3965
 2179SOL    HW1 6869   5.482   3.127   4.598  1.0962 -0.4129 -1.2782
 2179SOL    HW2 6870   5.552   3.243   4.666  0.2234 -1.2146  1.0372
 2180SOL     OW 6871   4.998   3.650   5.465  0.6667  0.0230  0.3812
 2180SOL    HW1 6872   4.963   3.695   5.388  0.6242  0.2907  0.5540
 2180SOL    HW2 6873   5.084   3.619   5.438 -0.2590 -1.8575 -0.5067
 2181SOL     OW 6874   0.092   4.000   1.834 -0.1310 -0.1886 -0.3785
 2181SOL    HW1 6875   0.182   3.989   1.805  0.2194 -1.1601  0.9799
 2181SOL    HW2 6876   0.055   3.911   1.834 -1.2865  0.2698 -1.5105
 2182SOL     OW 6877   5.538   4.329   0.644 -0.0107 -0.5070 -0.1670
 2182SOL    HW1 6878   5.487   4.346   0.723 -1.2153  0.7617 -1.1860
 2182SOL    HW2 6879   5.492   4.258   0.600  0.6357 -1.1856  0.2587
 2183SOL     OW 6880   1.568   3.852   0.696 -0.2663 -0.0407 -0.6772
 2183SOL    HW1 6881   1.555   3.943   0.670  2.1426 -0.0291 -1.9244
 2183SOL    HW2 6882   1.587   3.856   0.790  0.0323  0.7594 -0.7725
 2184SOL     OW 6883   2.587   3.128   3.223  0.2668 -0.8179 -0.0402
 2184SOL    HW1 6884   2.595   3.111   3.316  1.0561 -0.8895 -0.1142
 2184SOL    HW2 6885   2.603   3.043   3.181  1.5779 -0.4645 -0.2972
 2185SOL     OW 6886   3.851   2.709   0.490  0.3182 -0.2129  0.3407
 2185SOL    HW1 6887   3.905   2.720   0.412  0.0860  0.5867  0.2932
 2185SOL    HW2 6888   3.887   2.630   0.533  0.7634 -0.3619 -0.3023
 2186SOL     OW 6889   4.225   4.438   4.055 -0.2432 -0.1781  0.0132
 2186SOL    HW1 6890   4.132   4.453   4.074 -0.4533 -1.8119  0.2792
 2186SOL    HW2 6891   4.227   4.406   3.965  0.1892  1.1263 -0.4544
 2187SOL     OW 6892   1.831   3.822   0.351  0.2452 -0.3528 -0.5882
 2187SOL    HW1 6893   1.911   3.853   0.392 -0.1575  0.6230 -0.5330
 2187SOL    HW2 6894   1.805   3.892   0.291 -2.1842  0.7350  1.5955
 2188SOL     OW 6895   1.638   0.408   1.844 -0.3750 -0.0971  0.2161
 2188SOL    HW1 6896   1.618   0.349   1.917  2.0567  0.9405  1.7923
 2188SOL    HW2 6897   1.705   0.363   1.793 -1.7865 -0.6470 -1.2095
 2189SOL     OW 6898   1.823   3.316   3.800 -0.5270  0.1309 -0.2076
 2189SOL    HW1 6899   1.789   3.327   3.712 -0.7201  1.1825 -0.0110
 2189SOL    HW2 6900   1.808   3.224   3.820 -1.0651  0.0314 -1.0322
 2190SOL     OW 6901   3.839   1.140   2.697  0.0566  0.0989 -0.3445
 2190SOL    HW1 6902   3.766   1.198   2.677 -0.6562 -1.0851 -1.2517
 2190SOL    HW2 6903   3.868   1.166   2.784 -1.7228  0.2655  0.2001
 2191SOL     OW 6904   0.678   4.687   4.387  0.2201 -0.0375 -0.0787
 2191SOL    HW1 6905   0.765   4.681   4.348  0.2767  2.3404 -0.4322
 2191SOL    HW2 6906   0.620   4.711   4.315 -0.2008  1.3090  0.6655
 2192SOL     OW 6907   0.984   0.616   3.341  0.6254 -0.6926  0.4852
 2192SOL    HW1 6908   0.952   0.662   3.419 -0.6379 -0.7375  0.0150
 2192SOL    HW2 6909   0.988   0.524   3.368 -1.2214 -0.9137  0.0783
 2193SOL     OW 6910   1.005   2.953   3.997 -0.1300  0.7016  0.5069
 2193SOL    HW1 6911   0.957   2.975   3.917  1.0267 -1.0541 -0.7091
 2193SOL    HW2 6912   0.956   2.881   4.036  0.5183  0.0713  0.1800
 2194SOL     OW 6913   5.463   5.233   1.899 -0.6444 -0.0030  0.7575
 2194SOL    HW1 6914   5.541   5.285   1.881 -1.6685  0.7020 -1.7609
 2194SOL    HW2 6915   5.449   5.244   1.994  1.8209  0.5014  1.0987
 2195SOL     OW 6916   5.379   1.955   5.248  0.7405  0.6436 -0.3542
 2195SOL    HW1 6917   5.378   1.930   5.156  2.5569  0.6676 -0.4030
 2195SOL    HW2 6918   5.460   2.007   5.258  0.2240  1.1987  1.0978
 2196SOL     OW 6919   2.648   0.724   5.382 -0.5547  0.7778 -0.1646
 2196SOL    HW1 6920   2.686   0.724   5.294  0.8859 -0.2361  0.4350
 2196SOL    HW2 6921   2.637   0.632   5.403 -2.2369  1.0466  0.1641
 2197SOL     OW 6922   3.358   3.525   4.222  0.0222 -0.0971  0.4612
 2197SOL    HW1 6923   3.265   3.547   4.233  0.0781  0.1401  0.4782
 2197SOL    HW2 6924   3.363   3.487   4.135 -0.3460 -1.5567  1.0652
 2198SOL     OW 6925   0.452   4.052   5.461  0.4987 -0.4740 -0.3525
 2198SOL    HW1 6926   0.540   4.086   5.480  0.6925 -0.9845 -0.3211
 2198SOL    HW2 6927   0.447   4.050   5.366  0.5047 -0.4099 -0.3544
 2199SOL     OW 6928   0.490   1.780   4.136 -0.0067  0.2865 -0.1163
 2199SOL    HW1 6929   0.426   1.737   4.193 -1.0687  1.9557 -0.0179
 2199SOL    HW2 6930   0.476   1.874   4.150  1.1843  0.6964 -1.5145
 2200SOL     OW 6931   2.941   2.166   2.379 -0.1685 -0.0272 -0.4536
 2200SOL    HW1 6932   2.853   2.196   2.356 -0.2380  0.7140  0.7152
 2200SOL    HW2 6933   2.949   2.187   2.472 -0.0814 -3.2567  0.3480
 2201SOL     OW 6934   0.102   5.145   0.222  0.1881  0.8035  0.3786
 2201SOL    HW1 6935   0.099   5.223   0.167 -0.6074  2.3199  2.5055
 2201SOL    HW2 6936   0.159   5.169   0.295  0.0088 -0.6393  1.0138
 2202SOL     OW 6937   5.547   5.021   4.742 -0.1236  0.5486  0.1930
 2202SOL    HW1 6938   5.456   4.992   4.749 -0.3472  1.4802  1.2106
 2202SOL    HW2 6939   5.598   4.947   4.774 -0.4354 -0.4523 -1.5366
 2203SOL     OW 6940   2.972   3.458   4.162  0.1393 -0.1947 -0.4588
 2203SOL    HW1 6941   2.891   3.479   4.207  1.1616  1.7858  0.4975
 2203SOL    HW2 6942   2.995   3.370   4.193 -0.6212  0.0304  0.7479
 2204SOL     OW 6943   0.253   2.626   3.496  0.7296 -0.1148  0.2564
 2204SOL    HW1 6944   0.195   2.680   3.443 -0.8352  0.1032  2.1343
 2204SOL    HW2 6945   0.224   2.536   3.480  0.5969 -0.0870  0.3389
 2205SOL     OW 6946   2.055   3.972   5.235  0.4324 -0.3216 -0.2203
 2205SOL    HW1 6947   1.979   4.010   5.277 -0.3828 -0.0094 -1.9315
 2205SOL    HW2 6948   2.044   3.992   5.142  1.9161 -1.4245 -0.6626
 2206SOL     OW 6949   0.602   0.080   4.500 -0.3411  0.5811 -0.5021
 2206SOL    HW1 6950   0.535   0.045   4.559 -0.1615  0.4427 -0.3816
 2206SOL    HW2 6951   0.664   0.125   4.557 -0.2231  0.5382 -0.5965
 2207SOL     OW 6952   3.754   0.156   4.496  0.0255 -0.2636  0.1491
 2207SOL    HW1 6953   3.700   0.233   4.478  3.2928  1.5308 -2.6076
 2207SOL    HW2 6954   3.827   0.190   4.548  1.3885 -1.5481 -0.9035
 2208SOL     OW 6955   4.086   4.090   3.309 -0.2349 -0.4311  0.1510
 2208SOL    HW1 6956   4.129   4.020   3.358 -2.0754 -0.5653  1.6113
 2208SOL    HW2 6957   4.158   4.149   3.284  1.0184 -1.5609  1.0062
 2209SOL     OW 6958   4.261   5.380   2.868 -0.4972  0.5486 -0.4724
 2209SOL    HW1 6959   4.304   5.460   2.838 -0.0416  0.2570 -0.6001
 2209SOL    HW2 6960   4.300   5.363   2.954 -3.1235  2.4071  1.1335
 2210SOL     OW 6961   0.812   1.939   0.661 -0.3528 -0.0895  0.6328
 2210SOL    HW1 6962   0.886   1.886   0.689 -0.7598 -0.3778  1.1765
 2210SOL    HW2 6963   0.785   1.900   0.577 -0.5683 -0.6648  0.9655
 2211SOL     OW 6964   2.007   2.004   1.213 -0.2948 -0.2935  0.4513
 2211SOL    HW1 6965   2.086   2.057   1.203 -0.3898 -0.2764 -0.1868
 2211SOL    HW2 6966   2.040   1.917   1.236  0.0182 -0.8338 -1.8998
 2212SOL     OW 6967   1.665   4.483   3.427 -0.0879 -0.3049  0.1889
 2212SOL    HW1 6968   1.663   4.395   3.463 -2.4788  0.2276  1.4552
 2212SOL    HW2 6969   1.633   4.474   3.338 -0.9245 -0.6643  0.5171
 2213SOL     OW 6970   4.259   4.955   1.816  0.0195 -0.5845 -0.0100
 2213SOL    HW1 6971   4.167   4.978   1.802  0.1631 -1.1341 -2.0448
 2213SOL    HW2 6972   4.286   4.913   1.734  2.4161  0.6490  0.0995
 2214SOL     OW 6973   0.481   3.258   0.415  0.2328  0.5901 -0.6165
 2214SOL    HW1 6974   0.532   3.240   0.335  0.8386  1.1420 -0.3572
 2214SOL    HW2 6975   0.484   3.176   0.464  1.0213  0.6646 -0.5284
 2215SOL     OW 6976   1.566   2.322   3.643  0.0928  0.0108 -0.1598
 2215SOL    HW1 6977   1.547   2.267   3.567 -0.7781 -0.8960  0.6894
 2215SOL    HW2 6978   1.482   2.333   3.687  0.2431  2.0920 -0.3324
 2216SOL     OW 6979   2.332   0.600   3.486 -0.0353 -0.3063  0.5851
 2216SOL    HW1 6980   2.409   0.615   3.540  0.2721  1.6972 -0.3587
 2216SOL    HW2 6981   2.265   0.656   3.525 -0.7964 -1.4431  0.9282
 2217SOL     OW 6982   3.513   4.807   5.365  0.3589  0.3585 -0.0023
 2217SOL    HW1 6983   3.458   4.848   5.432 -0.0044  0.4095 -0.3266
 2217SOL    HW2 6984   3.583   4.869   5.350  0.1991  0.5453  0.0206
 2218SOL     OW 6985   1.806   4.911   2.095 -0.1368 -0.5559 -0.0643
 2218SOL    HW1 6986   1.715   4.938   2.110  0.1956  0.2221  0.5297
 2218SOL    HW2 6987   1.802   4.859   2.015 -1.2719 -1.3762  0.5075
 2219SOL     OW 6988   4.977   5.196   2.936  0.1480  0.1147 -0.1860
 2219SOL    HW1 6989   5.052   5.176   2.881  1.0346  1.4196  0.5405
 2219SOL    HW2 6990   4.904   5.149   2.895  0.8968  0.6594 -2.1650
 2220SOL     OW 6991   1.130   3.828   1.193 -0.0567 -0.0011  0.3882
 2220SOL    HW1 6992   1.169   3.886   1.128 -0.6860 -0.4706 -0.4244
 2220SOL    HW2 6993   1.138   3.740   1.156 -2.0329 -0.0920  0.0957
 2221SOL     OW 6994   3.151   2.007   3.483  0.4318  0.2337 -0.0921
 2221SOL    HW1 6995   3.185   2.030   3.569  0.1944  1.2749 -0.2656
 2221SOL    HW2 6996   3.117   2.090   3.448 -1.4145 -0.5814 -0.3130
 2222SOL     OW 6997   4.062   4.925   2.380  0.0148  0.5499  0.0237
 2222SOL    HW1 6998   4.049   4.914   2.474  1.9699  2.1253  0.5101
 2222SOL    HW2 6999   4.157   4.929   2.369 -0.1580 -0.3829 -2.1286
 2223SOL     OW 7000   0.414   4.618   3.968  0.1430  0.2212  0.7437
 2223SOL    HW1 7001   0.377   4.678   4.032  0.7394  0.5569  0.7791
 2223SOL    HW2 7002   0.506   4.609   3.994  0.5150  0.7603 -0.3644
 2224SOL     OW 7003   3.569   3.069   2.692 -0.2336  0.0038 -0.3267
 2224SOL    HW1 7004   3.491   3.026   2.659  0.6487 -0.6017 -1.6973
 2224SOL    HW2 7005   3.641   3.012   2.665  0.6125 -0.0843  1.9447
 2225SOL     OW 7006   0.269   2.254   4.708  0.2356  0.1668 -0.3642
 2225SOL    HW1 7007   0.267   2.331   4.766 -0.3176  0.7754 -1.1879
 2225SOL    HW2 7008   0.342   2.201   4.741 -0.1399  0.4603  0.9596
 2226SOL     OW 7009   0.932   4.076   5.515 -0.5837  0.2859  0.2972
 2226SOL    HW1 7010   0.966   4.141   5.576  0.1647  1.2376 -1.1027
 2226SOL    HW2 7011   0.993   4.003   5.520  0.9842  1.4468 -1.2275
 2227SOL     OW 7012   3.179   1.361   3.123  0.4820  0.1958  0.6765
 2227SOL    HW1 7013   3.138   1.420   3.060  0.6154  0.0099  0.4145
 2227SOL    HW2 7014   3.107   1.332   3.178  0.4640  0.8285  0.9892
 2228SOL     OW 7015   3.732   2.879   2.614  0.2133  0.1496 -0.3979
 2228SOL    HW1 7016   3.687   2.802   2.650 -1.9929  1.9716  0.9028
 2228SOL    HW2 7017   3.791   2.844   2.548 -1.0557 -2.6237 -0.1284
 2229SOL     OW 7018   3.370   5.275   3.982 -0.2047  0.2285  0.2642
 2229SOL    HW1 7019   3.397   5.328   3.906 -0.7988 -1.5421 -1.2146
 2229SOL    HW2 7020   3.416   5.315   4.056  2.1543  0.6490 -1.3621
 2230SOL     OW 7021   2.073   0.942   3.313 -0.3937 -0.3060 -0.1474
 2230SOL    HW1 7022   2.022   0.864   3.293 -2.1720 -0.0203  2.9450
 2230SOL    HW2 7023   2.012   1.000   3.359  1.5354  1.9105 -0.2910
 2231SOL     OW 7024   0.508   3.710   5.024  0.2213  0.0018 -0.1682
 2231SOL    HW1 7025   0.491   3.786   4.969  2.5911 -0.3459 -1.4587
 2231SOL    HW2 7026   0.562   3.745   5.095  0.8997 -0.3781 -0.4967
 2232SOL     OW 7027   2.217   4.608   4.208  0.0894  0.6614 -0.0886
 2232SOL    HW1 7028   2.141   4.566   4.249  0.8911  0.4426  1.1971
 2232SOL    HW2 7029   2.186   4.635   4.122 -1.1220 -0.4569 -0.0154
 2233SOL     OW 7030   0.363   0.462   4.401  0.0813  0.1090  0.4092
 2233SOL    HW1 7031   0.376   0.557   4.410 -1.7939  0.5233 -1.0155
 2233SOL    HW2 7032   0.413   0.439   4.323  1.4873 -0.3049  1.4088
 2234SOL     OW 7033   4.111   1.489   5.034  0.9406  0.1665  0.1677
 2234SOL    HW1 7034   4.189   1.447   5.069  0.2371  0.0180  1.5593
 2234SOL    HW2 7035   4.074   1.424   4.974  0.7681 -0.5504  1.0500
 2235SOL     OW 7036   4.374   4.113   1.372 -0.4423  0.7980 -0.3228
 2235SOL    HW1 7037   4.430   4.188   1.391 -0.1004  0.2971  0.6825
 2235SOL    HW2 7038   4.405   4.044   1.431 -0.9650 -0.0357 -0.9980
 2236SOL     OW 7039   1.819   2.155   1.391  0.2086  0.1440  0.1408
 2236SOL    HW1 7040   1.884   2.104   1.341  0.5606  0.4150  0.3222
 2236SOL    HW2 7041   1.755   2.090   1.419  0.3934 -0.1251 -0.0514
 2237SOL     OW 7042   5.040   3.507   1.222 -0.2194 -0.1931 -0.1945
 2237SOL    HW1 7043   5.103   3.519   1.294 -0.4823  0.1392 -0.0164
 2237SOL    HW2 7044   5.048   3.415   1.198  0.5760 -0.0697 -0.4003
 2238SOL     OW 7045   4.896   5.247   2.462 -0.5057  0.1600 -0.1473
 2238SOL    HW1 7046   4.821   5.293   2.423 -0.4566 -0.4809 -1.0276
 2238SOL    HW2 7047   4.950   5.316   2.500 -1.8607  0.5754  1.0622
 2239SOL     OW 7048   4.436   2.827   2.982 -0.4889 -0.0466  0.8462
 2239SOL    HW1 7049   4.479   2.781   3.054 -0.2196 -0.0709  0.6698
 2239SOL    HW2 7050   4.469   2.785   2.903 -0.7326  0.0251  0.7063
 2240SOL     OW 7051   0.634   4.673   3.656  0.5802 -0.8470 -0.4539
 2240SOL    HW1 7052   0.565   4.700   3.717  1.0941 -2.6710  0.9906
 2240SOL    HW2 7053   0.590   4.662   3.572 -1.3156 -3.7432  0.8286
 2241SOL     OW 7054   0.886   3.201   5.565  0.0136 -0.1184 -0.3041
 2241SOL    HW1 7055   0.881   3.204   5.660 -0.1216 -1.4793 -0.2627
 2241SOL    HW2 7056   0.797   3.176   5.537  0.2359 -0.4189 -0.7511
 2242SOL     OW 7057   3.527   5.057   3.631 -0.2080 -0.0829 -0.5259
 2242SOL    HW1 7058   3.480   5.112   3.569 -0.6300 -1.1108 -1.1093
 2242SOL    HW2 7059   3.567   4.989   3.578  1.5878  0.5149  0.0046
 2243SOL     OW 7060   3.136   2.762   2.956  0.5391 -0.1615 -0.3808
 2243SOL    HW1 7061   3.214   2.723   2.917  1.2732  0.7213  0.1675
 2243SOL    HW2 7062   3.113   2.834   2.898 -0.5036 -1.0654 -1.1092
 2244SOL     OW 7063   3.813   2.965   2.882  0.1438 -0.2008  0.6833
 2244SOL    HW1 7064   3.790   2.950   2.790 -1.7512  2.2755  0.6944
 2244SOL    HW2 7065   3.877   3.036   2.879  2.1561 -1.9472  1.1541
 2245SOL     OW 7066   5.154   2.134   1.893 -0.1790  0.0346 -0.2435
 2245SOL    HW1 7067   5.155   2.042   1.919 -0.2606  0.1077  0.0288
 2245SOL    HW2 7068   5.136   2.133   1.799 -1.7701 -0.1694  0.0535
 2246SOL     OW 7069   1.534   5.343   4.979  0.4106  0.4955  0.7897
 2246SOL    HW1 7070   1.616   5.296   4.993  0.4549  0.1240 -0.6122
 2246SOL    HW2 7071   1.559   5.420   4.928 -0.2289 -0.1110 -0.4604
 2247SOL     OW 7072   3.762   3.441   4.975 -0.0719 -0.2840  0.1120
 2247SOL    HW1 7073   3.743   3.448   4.882  3.3809 -0.5354 -0.6939
 2247SOL    HW2 7074   3.768   3.532   5.005  1.8446 -0.1444 -0.6283
 2248SOL     OW 7075   0.848   4.455   2.687  0.5281  0.7059 -0.1717
 2248SOL    HW1 7076   0.848   4.544   2.651  1.4857  1.1888  0.9871
 2248SOL    HW2 7077   0.764   4.448   2.733  0.9728  1.4396  0.7579
 2249SOL     OW 7078   3.096   4.691   1.780 -0.1660 -0.0108  0.0113
 2249SOL    HW1 7079   3.058   4.603   1.775  0.9079 -0.5041  0.4052
 2249SOL    HW2 7080   3.158   4.695   1.707 -0.2229  0.4323 -0.0178
 2250SOL     OW 7081   5.110   0.916   5.517  0.1781 -0.2514  0.2877
 2250SOL    HW1 7082   5.047   0.923   5.590  0.0771 -2.8675  0.4896
 2250SOL    HW2 7083   5.058   0.935   5.439  0.2814  2.5603  0.8183
 2251SOL     OW 7084   2.230   0.428   5.382  0.2241 -0.5181 -0.4568
 2251SOL    HW1 7085   2.273   0.436   5.297  1.7075  0.5665  0.3803
 2251SOL    HW2 7086   2.192   0.340   5.382 -0.7590 -0.1089 -2.6765
 2252SOL     OW 7087   4.967   1.175   2.489 -1.1580  0.1625 -0.0448
 2252SOL    HW1 7088   5.024   1.250   2.509 -1.5882  0.4832 -0.0043
 2252SOL    HW2 7089   4.974   1.120   2.567  0.1765 -0.4924 -0.6047
 2253SOL     OW 7090   1.532   1.224   3.307 -0.1491  0.3723  0.0625
 2253SOL    HW1 7091   1.539   1.168   3.383 -0.9121 -0.5694 -0.5438
 2253SOL    HW2 7092   1.595   1.188   3.244 -0.2215  0.5503 -0.1138
 2254SOL     OW 7093   3.778   5.317   0.734 -0.4006 -0.2854  0.3338
 2254SOL    HW1 7094   3.806   5.382   0.799 -0.8752  1.0448 -0.7550
 2254SOL    HW2 7095   3.831   5.239   0.754  0.5249  0.5807  1.3710
 2255SOL     OW 7096   0.699   3.352   1.423  0.0181 -0.3626 -0.0126
 2255SOL    HW1 7097   0.768   3.361   1.488 -0.0158  0.1265 -0.0450
 2255SOL    HW2 7098   0.688   3.440   1.387 -0.7187 -0.4081  0.0891
 2256SOL     OW 7099   2.415   3.384   0.685 -0.2549  0.2279 -0.2841
 2256SOL    HW1 7100   2.475   3.450   0.721 -0.8477  0.3312  0.5413
 2256SOL    HW2 7101   2.412   3.403   0.592  0.4975  0.6326 -0.2328
 2257SOL     OW 7102   1.223   2.102   3.796  0.0823 -0.1278  0.3668
 2257SOL    HW1 7103   1.155   2.070   3.855 -0.0129 -1.4467 -0.4479
 2257SOL    HW2 7104   1.182   2.099   3.709  0.9467 -0.2475 -0.0367
 2258SOL     OW 7105   2.117   2.920   1.700 -0.1318  0.2011  0.4701
 2258SOL    HW1 7106   2.137   2.841   1.749 -0.2955  0.9365  1.7489
 2258SOL    HW2 7107   2.163   2.909   1.617  1.0661 -0.5666  1.2159
 2259SOL     OW 7108   4.296   2.149   3.197 -0.1159 -0.1604  0.2481
 2259SOL    HW1 7109   4.255   2.133   3.283 -0.3007 -2.2298 -0.1929
 2259SOL    HW2 7110   4.378   2.193   3.218 -0.1856 -0.5919  1.4970
 2260SOL     OW 7111   3.338   0.515   5.423 -0.7573 -0.2323  0.0588
 2260SOL    HW1 7112   3.398   0.486   5.355 -1.6562 -1.7954 -0.0959
 2260SOL    HW2 7113   3.306   0.434   5.462 -3.2197  0.5523 -0.2657
 2261SOL     OW 7114   4.214   0.125   4.053 -0.6726  0.1149 -0.0762
 2261SOL    HW1 7115   4.295   0.076   4.070 -1.2048  0.0739  2.6457
 2261SOL    HW2 7116   4.147   0.079   4.105 -2.4323  0.2063 -2.1960
 2262SOL     OW 7117   0.924   0.362   5.229 -0.3937  0.0882 -0.5380
 2262SOL    HW1 7118   0.998   0.318   5.187  0.6461  1.1115  0.2094
 2262SOL    HW2 7119   0.891   0.422   5.163  0.5408  0.8917 -0.2774
 2263SOL     OW 7120   0.349   4.748   4.198 -0.9562 -0.1092 -0.0473
 2263SOL    HW1 7121   0.361   4.688   4.272  0.0098 -1.2142 -1.0826
 2263SOL    HW2 7122   0.384   4.832   4.230 -1.7031 -0.2505  1.1752
 2264SOL     OW 7123   4.798   0.501   3.355  0.4462  0.4014  0.4555
 2264SOL    HW1 7124   4.739   0.557   3.406  1.4926  1.8117  0.1348
 2264SOL    HW2 7125   4.877   0.553   3.342  0.2429  0.0888 -2.5736
 2265SOL     OW 7126   5.117   0.491   4.235 -0.2065 -0.0814 -0.3805
 2265SOL    HW1 7127   5.074   0.512   4.153 -0.3227 -2.2600 -0.8965
 2265SOL    HW2 7128   5.154   0.404   4.222  0.4930 -0.1118  1.5875
 2266SOL     OW 7129   5.186   0.929   1.081 -0.5963  0.2181 -0.1002
 2266SOL    HW1 7130   5.235   0.847   1.085  0.3955  0.7727 -0.6872
 2266SOL    HW2 7131   5.229   0.980   1.013 -0.9708  1.3772  0.5053
 2267SOL     OW 7132   2.578   4.112   5.154 -0.4540 -0.6338 -0.6743
 2267SOL    HW1 7133   2.609   4.039   5.101 -1.1111 -0.5884 -1.1349
 2267SOL    HW2 7134   2.616   4.097   5.241  0.1112 -1.0537 -0.9901
 2268SOL     OW 7135   2.059   1.646   4.342  0.5033  0.2214  0.1813
 2268SOL    HW1 7136   2.114   1.612   4.413  1.3117 -1.0196 -0.9998
 2268SOL    HW2 7137   1.979   1.594   4.347  0.5251  0.1933  0.2454
 2269SOL     OW 7138   1.538   3.518   3.138 -0.2788  0.8224  0.0139
 2269SOL    HW1 7139   1.613   3.472   3.176 -1.3294 -0.6178  0.3762
 2269SOL    HW2 7140   1.511   3.580   3.206 -0.8866 -0.3119  0.8105
 2270SOL     OW 7141   2.102   2.403   1.652  0.1497 -0.7511 -0.4602
 2270SOL    HW1 7142   2.096   2.364   1.739  0.0044 -0.8992 -0.5363
 2270SOL    HW2 7143   2.023   2.373   1.606 -0.7227  0.8599 -0.0314
 2271SOL     OW 7144   0.539   3.265   5.183  0.4111 -0.0197  0.2254
 2271SOL    HW1 7145   0.564   3.195   5.123 -0.2400 -1.5740  1.7339
 2271SOL    HW2 7146   0.450   3.243   5.211  1.0935  0.1062  2.5792
 2272SOL     OW 7147   2.948   1.752   1.113 -0.0195  0.5551 -0.5975
 2272SOL    HW1 7148   2.876   1.723   1.168 -0.3897  1.5026 -0.5722
 2272SOL    HW2 7149   2.906   1.780   1.031  0.2517  1.6347 -0.3785
 2273SOL     OW 7150   0.783   1.606   3.513  0.0048 -0.1101 -0.4197
 2273SOL    HW1 7151   0.758   1.527   3.465  0.8844 -0.0444 -1.0019
 2273SOL    HW2 7152   0.814   1.573   3.597  1.4819 -0.4964 -1.0991
 2274SOL     OW 7153   4.198   5.556   4.315  0.1616  0.3109 -0.0383
 2274SOL    HW1 7154   4.109   5.559   4.350  0.5600  0.3038  1.0056
 2274SOL    HW2 7155   4.232   5.645   4.325  0.2125  0.3517 -0.5819
 2275SOL     OW 7156   4.780   1.597   2.702  0.2757 -0.3722 -0.0946
 2275SOL    HW1 7157   4.699   1.585   2.751  0.7227 -0.9792  0.5087
 2275SOL    HW2 7158   4.796   1.513   2.660  0.5454 -0.2286 -0.2862
 2276SOL     OW 7159   1.349   4.264   2.873 -0.0723 -0.3357  0.2506
 2276SOL    HW1 7160   1.329   4.188   2.818 -1.4237 -0.0572  0.3518
 2276SOL    HW2 7161   1.318   4.240   2.960 -0.4985  0.3264  0.2869
 2277SOL     OW 7162   4.269   5.341   4.155 -0.2340 -0.5888  0.2929
 2277SOL    HW1 7163   4.183   5.317   4.121  0.1749 -2.3674  0.4627
 2277SOL    HW2 7164   4.251   5.412   4.217 -1.9939 -3.0039  2.6788
 2278SOL     OW 7165   4.644   1.546   4.394  0.4122 -0.4844  0.1016
 2278SOL    HW1 7166   4.663   1.513   4.307  0.0634  0.2634 -0.2587
 2278SOL    HW2 7167   4.556   1.583   4.388  1.5284  2.2983 -0.0280
 2279SOL     OW 7168   0.377   2.175   0.374  0.0906 -0.2673  0.5055
 2279SOL    HW1 7169   0.374   2.114   0.301 -1.8672  0.6248 -0.1971
 2279SOL    HW2 7170   0.295   2.160   0.421  0.0139  1.1609  0.8548
 2280SOL     OW 7171   4.418   1.786   0.809  0.6221 -0.1159 -0.3820
 2280SOL    HW1 7172   4.415   1.772   0.714  0.6524 -1.2233 -0.2212
 2280SOL    HW2 7173   4.345   1.845   0.826  0.4333 -0.1463 -1.0544
 2281SOL     OW 7174   2.038   0.288   4.224 -0.0468 -0.7980 -0.0039
 2281SOL    HW1 7175   2.071   0.206   4.188  0.5880 -0.2527 -0.7113
 2281SOL    HW2 7176   1.977   0.320   4.158  0.0957 -0.4567  0.0278
 2282SOL     OW 7177   4.903   2.439   1.358  0.3729  0.3041 -0.2691
 2282SOL    HW1 7178   4.900   2.466   1.266  0.8857 -1.5795 -0.8653
 2282SOL    HW2 7179   4.813   2.412   1.379  0.3720  0.2074 -0.3957
 2283SOL     OW 7180   1.534   3.526   1.270  0.2674 -0.4032 -0.3926
 2283SOL    HW1 7181   1.474   3.552   1.341 -1.4124 -1.0971 -1.5186
 2283SOL    HW2 7182   1.617   3.567   1.293 -0.6557  0.6563  1.1863
 2284SOL     OW 7183   4.792   1.842   2.375  0.7034  0.0069  0.1112
 2284SOL    HW1 7184   4.769   1.856   2.467 -0.2577 -0.2450 -0.0825
 2284SOL    HW2 7185   4.741   1.765   2.349  0.8576  0.1640 -0.6713
 2285SOL     OW 7186   2.701   2.253   2.026  0.1735 -0.4721 -0.2636
 2285SOL    HW1 7187   2.675   2.199   2.101  0.1211 -0.6150 -0.3845
 2285SOL    HW2 7188   2.737   2.333   2.065 -1.4381  0.1918 -0.1124
 2286SOL     OW 7189   1.721   4.754   5.376  0.0813 -0.7036  0.3332
 2286SOL    HW1 7190   1.673   4.798   5.446 -0.3215 -0.0967 -0.3095
 2286SOL    HW2 7191   1.673   4.673   5.361 -0.3652 -0.4109  0.1499
 2287SOL     OW 7192   1.451   1.740   2.315  0.0765 -1.0037  0.1185
 2287SOL    HW1 7193   1.397   1.709   2.243  0.6283 -0.4031 -0.5579
 2287SOL    HW2 7194   1.541   1.719   2.290  0.3055 -0.4131  0.4240
 2288SOL     OW 7195   1.334   1.973   1.372 -0.3314 -0.8388  0.2464
 2288SOL    HW1 7196   1.252   1.928   1.349 -1.4440  0.3640  1.6971
 2288SOL    HW2 7197   1.347   1.954   1.464  0.8756 -0.7756  0.0965
 2289SOL     OW 7198   0.973   3.148   5.243  0.3017  0.5068  0.0855
 2289SOL    HW1 7199   0.967   3.227   5.297  2.0082  0.5949  0.1899
 2289SOL    HW2 7200   1.053   3.160   5.191  0.1484 -0.7892 -0.4891
 2290SOL     OW 7201   1.828   3.062   4.152 -0.3717  0.5923  0.6710
 2290SOL    HW1 7202   1.913   3.082   4.192  0.5499 -2.2110  0.2017
 2290SOL    HW2 7203   1.843   3.070   4.058 -0.2421 -1.1775  0.5169
 2291SOL     OW 7204   3.256   1.524   2.867  0.8763 -0.2075  0.3045
 2291SOL    HW1 7205   3.163   1.523   2.889  0.5642 -1.8784 -0.9974
 2291SOL    HW2 7206   3.286   1.611   2.892 -0.8323  0.0275  1.5717
 2292SOL     OW 7207   4.460   0.886   4.616 -0.1704  0.2109  0.4999
 2292SOL    HW1 7208   4.438   0.805   4.572 -1.1910  1.5817 -1.5912
 2292SOL    HW2 7209   4.419   0.879   4.702 -0.3939 -1.3828  0.2725
 2293SOL     OW 7210   3.926   3.122   1.183 -0.4293  0.2340  0.3890
 2293SOL    HW1 7211   3.949   3.176   1.108  0.8470 -0.1876  0.4560
 2293SOL    HW2 7212   3.839   3.151   1.209  0.1641  2.1395  0.3186
 2294SOL     OW 7213   3.165   5.029   3.837  0.0299 -0.2121 -0.0012
 2294SOL    HW1 7214   3.131   5.083   3.765  2.9230  0.4945 -0.8973
 2294SOL    HW2 7215   3.260   5.041   3.833  0.1869  0.7911  4.7209
 2295SOL     OW 7216   2.476   2.701   2.609 -0.0996  0.5294 -0.0494
 2295SOL    HW1 7217   2.420   2.624   2.596  0.7670  0.1713 -1.6818
 2295SOL    HW2 7218   2.490   2.703   2.704  1.2804 -2.3457 -0.1467
 2296SOL     OW 7219   2.838   0.213   1.535  0.5550  0.8023  0.4450
 2296SOL    HW1 7220   2.781   0.209   1.612  1.5534  2.2513  1.3064
 2296SOL    HW2 7221   2.779   0.228   1.461 -0.4385 -0.8087  0.8856
 2297SOL     OW 7222   4.526   4.995   2.047 -0.0045 -0.0952 -0.1387
 2297SOL    HW1 7223   4.453   4.934   2.055 -0.4707  0.3830 -0.7459
 2297SOL    HW2 7224   4.524   5.046   2.128 -0.7392  0.3453 -0.4289
 2298SOL     OW 7225   4.875   5.419   4.027 -0.1743  0.1671  0.2141
 2298SOL    HW1 7226   4.800   5.458   3.981 -1.0563 -0.5579  1.0353
 2298SOL    HW2 7227   4.837   5.352   4.084  1.2418 -1.3152 -0.5259
 2299SOL     OW 7228   0.206   0.868   2.905  0.3740 -0.5238 -0.3506
 2299SOL    HW1 7229   0.213   0.808   2.980 -1.5285 -0.2079  0.1057
 2299SOL    HW2 7230   0.184   0.812   2.831  1.0059 -0.6859 -0.4148
 2300SOL     OW 7231   0.732   3.281   2.878  0.2341 -0.1431  0.2910
 2300SOL    HW1 7232   0.714   3.266   2.785 -2.1691 -1.5658  0.9374
 2300SOL    HW2 7233   0.782   3.205   2.906  1.3048  0.4791  0.0714
 2301SOL     OW 7234   4.027   2.747   4.447 -0.3151 -0.6028 -0.4568
 2301SOL    HW1 7235   4.007   2.681   4.380 -0.2800  0.4584 -1.5323
 2301SOL    HW2 7236   3.941   2.776   4.478 -0.3508 -0.4567 -0.6875
 2302SOL     OW 7237   0.366   1.748   5.084 -0.3259  0.1412  0.3209
 2302SOL    HW1 7238   0.301   1.725   5.017 -0.9974  0.1924  0.9494
 2302SOL    HW2 7239   0.315   1.760   5.164  0.4332  0.4245  0.7683
 2303SOL     OW 7240   4.588   2.970   3.375  0.0115  0.4823  0.0938
 2303SOL    HW1 7241   4.620   3.037   3.434 -0.1377 -1.1045  2.0193
 2303SOL    HW2 7242   4.576   2.892   3.430 -2.2832 -0.4127 -1.5719
 2304SOL     OW 7243   1.983   3.360   5.448  0.1019 -0.1948 -0.0458
 2304SOL    HW1 7244   2.008   3.308   5.524 -0.3244  0.5847  0.6272
 2304SOL    HW2 7245   2.065   3.371   5.399  0.5815  0.1869  0.8285
 2305SOL     OW 7246   2.520   4.546   0.585 -0.2799  0.8625  0.1306
 2305SOL    HW1 7247   2.534   4.638   0.567  0.9577  0.7497  0.4487
 2305SOL    HW2 7248   2.459   4.516   0.517  0.1362  1.6621 -0.5927
 2306SOL     OW 7249   4.858   1.095   2.177 -0.0825 -0.1958 -0.2709
 2306SOL    HW1 7250   4.893   1.095   2.266  0.1709 -1.0017 -0.3632
 2306SOL    HW2 7251   4.773   1.053   2.185 -0.9558  1.5691 -0.0825
 2307SOL     OW 7252   0.007   3.042   3.018  0.5182 -0.7440 -0.3980
 2307SOL    HW1 7253   0.069   3.076   3.083 -1.1011  0.3415  0.6027
 2307SOL    HW2 7254  -0.016   3.118   2.965 -0.3463 -1.0382 -0.4454
 2308SOL     OW 7255   1.786   4.671   2.304  0.6062 -0.6053 -0.1352
 2308SOL    HW1 7256   1.840   4.738   2.263 -0.8240 -0.7118 -2.2701
 2308SOL    HW2 7257   1.702   4.715   2.320 -0.2589 -1.8036 -1.3198
 2309SOL     OW 7258   0.251   0.603   4.741 -0.4208  0.0207 -0.2654
 2309SOL    HW1 7259   0.296   0.525   4.772 -0.6083  1.4325  3.9234
 2309SOL    HW2 7260   0.174   0.571   4.694  1.4341 -2.2974 -1.8083
 2310SOL     OW 7261   4.699   0.688   5.065 -0.5208 -0.2221 -0.1468
 2310SOL    HW1 7262   4.626   0.629   5.080 -0.2844 -1.3429 -3.1159
 2310SOL    HW2 7263   4.659   0.768   5.032 -0.3694 -1.3769 -3.2738
 2311SOL     OW 7264   1.162   2.236   3.288  0.4167  0.5639  0.1294
 2311SOL    HW1 7265   1.162   2.228   3.193 -1.6694  0.8892  0.0743
 2311SOL    HW2 7266   1.101   2.307   3.306 -2.0704 -1.8744  1.8431
 2312SOL     OW 7267   3.830   0.557   0.875 -0.2116  0.2709 -0.1082
 2312SOL    HW1 7268   3.752   0.561   0.930 -0.5971  1.9899 -0.7760
 2312SOL    HW2 7269   3.898   0.600   0.928 -0.2379  0.6645 -0.3942
 2313SOL     OW 7270   4.263   3.431   1.071  0.2260  0.0459 -0.0229
 2313SOL    HW1 7271   4.244   3.524   1.082  0.2853  0.0377  0.1488
 2313SOL    HW2 7272   4.269   3.397   1.160  1.1052  0.0641 -0.0637
 2314SOL     OW 7273   0.893   1.474   4.219  0.1693 -0.7466  0.3137
 2314SOL    HW1 7274   0.920   1.421   4.295 -0.3032 -2.5209 -0.7271
 2314SOL    HW2 7275   0.800   1.455   4.208  0.7355 -2.3380 -2.1154
 2315SOL     OW 7276   0.852   0.202   2.694 -0.2794  0.5170  0.0872
 2315SOL    HW1 7277   0.941   0.171   2.712  0.6011  2.6446 -0.5256
 2315SOL    HW2 7278   0.863   0.291   2.663 -2.3258 -0.3950 -3.5753
 2316SOL     OW 7279   4.258   5.219   0.035  0.2600 -0.1965 -0.1855
 2316SOL    HW1 7280   4.221   5.297  -0.005 -0.8317  1.0387  3.1171
 2316SOL    HW2 7281   4.206   5.147   0.000  0.3342  0.6565 -2.1296
 2317SOL     OW 7282   5.198   3.130   3.819  0.2548 -0.0397 -0.4503
 2317SOL    HW1 7283   5.210   3.205   3.759 -2.8224 -0.2652 -1.4060
 2317SOL    HW2 7284   5.255   3.150   3.893 -0.3047  3.1412 -0.8122
 2318SOL     OW 7285   2.458   2.059   2.914  0.0650  0.2405  0.1695
 2318SOL    HW1 7286   2.511   2.060   2.835  0.3453  0.0170  0.3515
 2318SOL    HW2 7287   2.417   1.973   2.914  1.0261 -0.2393  0.8895
 2319SOL     OW 7288   0.726   4.599   1.402  0.3197 -0.0159  0.2882
 2319SOL    HW1 7289   0.667   4.553   1.462  0.8191  0.8153  1.4526
 2319SOL    HW2 7290   0.807   4.548   1.404  0.1793 -0.2538 -0.0532
 2320SOL     OW 7291   3.143   0.324   1.914  0.7372 -0.0476  0.0634
 2320SOL    HW1 7292   3.169   0.284   1.831  0.6803  0.4822 -0.2143
 2320SOL    HW2 7293   3.171   0.415   1.906  0.4445  0.0799  0.4948
 2321SOL     OW 7294   2.755   1.996   1.673 -0.3160  0.5424  0.2209
 2321SOL    HW1 7295   2.803   2.076   1.696 -0.6527  0.0761  2.6753
 2321SOL    HW2 7296   2.676   2.028   1.629  0.7038  1.4438 -0.9850
 2322SOL     OW 7297   0.337   2.121   3.290  0.0929 -0.2110 -0.5856
 2322SOL    HW1 7298   0.247   2.089   3.299  1.5139 -3.6270  2.5959
 2322SOL    HW2 7299   0.382   2.053   3.242  1.3591  0.7454 -0.7736
 2323SOL     OW 7300   0.860   2.006   4.198  0.8172 -0.2737  0.1015
 2323SOL    HW1 7301   0.791   2.017   4.264  0.0815 -1.7691 -0.3934
 2323SOL    HW2 7302   0.886   1.915   4.206  2.5928  0.2240  0.1076
 2324SOL     OW 7303   0.457   3.573   5.394 -0.0498  0.2989  0.1341
 2324SOL    HW1 7304   0.499   3.630   5.330 -0.5763  1.1299  0.5075
 2324SOL    HW2 7305   0.379   3.540   5.348 -0.2284  0.6026  0.2117
 2325SOL     OW 7306   3.648   2.079   4.775  0.1797  0.4330 -0.0910
 2325SOL    HW1 7307   3.561   2.114   4.792  0.0220  0.2754 -0.5582
 2325SOL    HW2 7308   3.646   2.054   4.683  0.3999 -0.4808  0.1462
 2326SOL     OW 7309   4.802   4.919   4.199 -0.0131 -0.1278 -0.2439
 2326SOL    HW1 7310   4.740   4.852   4.172 -0.5973  1.0619 -1.9581
 2326SOL    HW2 7311   4.887   4.889   4.166 -0.3402  0.1667 -1.3653
 2327SOL     OW 7312   2.158   2.596   2.106  0.0258 -0.4605  0.2042
 2327SOL    HW1 7313   2.225   2.651   2.066  0.1820 -0.4661  0.4559
 2327SOL    HW2 7314   2.107   2.656   2.160 -0.1746 -0.4558  0.0111
 2328SOL     OW 7315   2.638   1.479   4.784 -0.1394 -0.4712 -0.0067
 2328SOL    HW1 7316   2.596   1.436   4.709 -1.3748  1.9278 -0.7370
 2328SOL    HW2 7317   2.566   1.510   4.837  0.7483 -1.1483  1.6192
 2329SOL     OW 7318   4.407   0.870   3.217 -0.5182  0.3750 -0.9483
 2329SOL    HW1 7319   4.481   0.854   3.275 -1.1373 -1.9249 -0.7563
 2329SOL    HW2 7320   4.376   0.957   3.243 -0.3331 -0.3039  1.7257
 2330SOL     OW 7321   2.989   0.666   2.046  0.0112  0.4012  0.5259
 2330SOL    HW1 7322   2.956   0.752   2.019  0.4086 -0.1627 -1.8265
 2330SOL    HW2 7323   3.066   0.652   1.992  1.4789 -0.3368  2.7247
 2331SOL     OW 7324   1.865   3.288   4.307 -0.2537  0.6420  0.2229
 2331SOL    HW1 7325   1.934   3.296   4.242  0.0278 -0.2839  0.3934
 2331SOL    HW2 7326   1.840   3.378   4.329 -0.1903  0.9528 -0.9919
 2332SOL     OW 7327   3.278   5.089   2.348 -0.6390 -0.1018  0.4567
 2332SOL    HW1 7328   3.291   5.182   2.335  0.9440 -0.2876  0.5222
 2332SOL    HW2 7329   3.208   5.065   2.288  1.9924  0.2812 -2.9410
 2333SOL     OW 7330   3.626   3.156   4.810 -0.4758 -0.1349 -0.8752
 2333SOL    HW1 7331   3.594   3.068   4.792 -1.2883  0.0297 -0.2457
 2333SOL    HW2 7332   3.652   3.155   4.902  0.5656 -0.0292 -1.1573
 2334SOL     OW 7333   4.055   4.761   0.938 -0.3363  0.7522  0.4358
 2334SOL    HW1 7334   4.112   4.751   1.014  1.0666  0.2704 -0.6508
 2334SOL    HW2 7335   4.100   4.824   0.882 -1.5177  1.3572  0.1510
 2335SOL     OW 7336   2.646   5.049   1.868  0.3170 -0.0105 -0.6396
 2335SOL    HW1 7337   2.577   5.034   1.803 -0.5935 -1.7800  0.6869
 2335SOL    HW2 7338   2.616   5.127   1.916 -0.2567 -0.1700 -0.7288
 2336SOL     OW 7339   5.570   3.229   2.419  0.1104 -0.4746  0.2759
 2336SOL    HW1 7340   5.529   3.245   2.334  2.5462  3.7795 -0.2585
 2336SOL    HW2 7341   5.662   3.215   2.398  0.6227  0.0356  2.1333
 2337SOL     OW 7342   4.275   0.745   3.917 -0.1808 -0.4677 -0.0064
 2337SOL    HW1 7343   4.365   0.768   3.940 -1.3772  1.9401  2.5870
 2337SOL    HW2 7344   4.263   0.783   3.830  1.4528 -1.2301 -0.5887
 2338SOL     OW 7345   2.593   3.377   4.028  0.2421  0.6732  0.0457
 2338SOL    HW1 7346   2.498   3.378   4.017  0.1950  2.1157  0.4208
 2338SOL    HW2 7347   2.615   3.285   4.042 -0.9526  0.1763 -1.2332
 2339SOL     OW 7348   4.627   0.216   4.851  0.0142  0.2350  0.0419
 2339SOL    HW1 7349   4.637   0.311   4.845 -0.1928  0.1104 -3.0468
 2339SOL    HW2 7350   4.533   0.202   4.854 -0.1837 -0.0076 -4.2964
 2340SOL     OW 7351   0.516   1.111   5.362  0.3558  0.4418 -0.0120
 2340SOL    HW1 7352   0.423   1.130   5.367  0.1051 -0.6064 -0.5943
 2340SOL    HW2 7353   0.531   1.083   5.272  1.1337  0.1312  0.2004
 2341SOL     OW 7354   4.564   1.189   1.256 -0.2283  0.0522 -0.0674
 2341SOL    HW1 7355   4.602   1.240   1.328 -0.2236 -1.0091  0.6922
 2341SOL    HW2 7356   4.498   1.246   1.218  0.4743  1.0086  0.1377
 2342SOL     OW 7357   3.785   0.884   1.416 -0.6225 -0.5071 -0.1208
 2342SOL    HW1 7358   3.824   0.801   1.446 -1.1734 -0.9067 -0.4906
 2342SOL    HW2 7359   3.859   0.943   1.407 -0.2137 -0.9779  0.1081
 2343SOL     OW 7360   1.152   1.727   5.118 -0.2024 -0.0136 -0.1847
 2343SOL    HW1 7361   1.138   1.689   5.205  1.1910 -1.3862 -0.5470
 2343SOL    HW2 7362   1.080   1.692   5.065  1.5956 -3.0328 -0.7670
 2344SOL     OW 7363   2.748   1.167   4.468 -0.7777  0.1643 -0.0304
 2344SOL    HW1 7364   2.835   1.177   4.507 -1.1197 -2.8837  1.7444
 2344SOL    HW2 7365   2.760   1.101   4.399 -1.2166  1.5625 -1.4570
 2345SOL     OW 7366   0.902   3.056   2.900 -0.2625  0.3392 -0.4540
 2345SOL    HW1 7367   0.973   3.109   2.864  0.6872 -0.5907  0.0384
 2345SOL    HW2 7368   0.865   3.011   2.824  0.9162 -0.6407 -0.4591
 2346SOL     OW 7369   2.513   3.375   3.522 -0.0587  0.4459  0.0558
 2346SOL    HW1 7370   2.578   3.444   3.504  0.8874 -0.2900  0.6495
 2346SOL    HW2 7371   2.432   3.423   3.537  1.1407  1.6473  3.1946
 2347SOL     OW 7372   5.175   4.130   2.735 -0.1549  0.5478 -0.4489
 2347SOL    HW1 7373   5.159   4.092   2.649 -2.3837 -0.3425  0.3330
 2347SOL    HW2 7374   5.128   4.213   2.733 -0.6720  0.2669  0.1071
 2348SOL     OW 7375   0.267   0.130   4.417  0.2427  0.6258  0.3146
 2348SOL    HW1 7376   0.273   0.200   4.352 -2.2060  0.5633 -0.0120
 2348SOL    HW2 7377   0.309   0.166   4.495  3.5495  0.5795 -1.3464
 2349SOL     OW 7378   2.568   0.456   1.837  0.2871  0.1554 -0.4384
 2349SOL    HW1 7379   2.489   0.500   1.805 -1.0783 -1.9238  0.0085
 2349SOL    HW2 7380   2.554   0.445   1.931  0.9753 -0.4778 -0.4028
 2350SOL     OW 7381   1.073   2.255   1.362  0.1773 -0.8352  0.0650
 2350SOL    HW1 7382   1.001   2.229   1.304  1.1603 -0.6034 -1.2867
 2350SOL    HW2 7383   1.040   2.240   1.451 -1.1634 -1.6819 -0.5747
 2351SOL     OW 7384   2.251   4.124   4.494 -0.4787  0.1604  0.0072
 2351SOL    HW1 7385   2.290   4.071   4.564  2.0081  1.5623 -0.2702
 2351SOL    HW2 7386   2.284   4.085   4.413  0.9104  1.7763 -0.2134
 2352SOL     OW 7387   1.068   4.340   2.712 -0.0121 -0.4354 -0.5327
 2352SOL    HW1 7388   0.980   4.376   2.702 -1.0383 -2.3802  1.0486
 2352SOL    HW2 7389   1.113   4.364   2.632 -1.6396  1.5127 -0.9239
 2353SOL     OW 7390   0.888   0.257   2.091  0.2195 -0.1550  0.2055
 2353SOL    HW1 7391   0.888   0.203   2.170 -1.5338 -0.0684  0.2788
 2353SOL    HW2 7392   0.898   0.346   2.122  0.8770 -0.2342  0.2311
 2354SOL     OW 7393   1.568   1.370   2.140  0.0713 -0.2468 -0.1547
 2354SOL    HW1 7394   1.623   1.443   2.112  0.5213 -0.8545 -0.8866
 2354SOL    HW2 7395   1.607   1.294   2.098 -0.4306 -0.9025  0.5548
 2355SOL     OW 7396   3.831   4.098   0.718  0.0843  0.2098 -0.2588
 2355SOL    HW1 7397   3.755   4.067   0.670  0.2332 -0.0222 -0.3414
 2355SOL    HW2 7398   3.903   4.042   0.689 -0.3508 -1.7209  2.2231
 2356SOL     OW 7399   3.929   3.747   2.330  0.1696  0.0422  0.2500
 2356SOL    HW1 7400   3.992   3.810   2.296 -0.8173 -0.8002 -3.2958
 2356SOL    HW2 7401   3.876   3.796   2.393  2.9558  1.2777  1.7068
 2357SOL     OW 7402   3.625   3.883   0.362 -0.1238  0.0760  0.4402
 2357SOL    HW1 7403   3.653   3.945   0.429 -2.3243  0.9632  0.5582
 2357SOL    HW2 7404   3.693   3.815   0.363  1.7325  1.8984  1.0572
 2358SOL     OW 7405   4.284   5.420   1.427  0.5709 -0.3720 -0.7350
 2358SOL    HW1 7406   4.372   5.438   1.396  1.0452 -0.8835  0.2843
 2358SOL    HW2 7407   4.296   5.387   1.516 -0.7025  0.4144 -0.2563
 2359SOL     OW 7408   2.899   2.351   4.628 -0.1421  0.1008 -0.6848
 2359SOL    HW1 7409   2.863   2.440   4.626  1.8077  0.9115 -1.1467
 2359SOL    HW2 7410   2.864   2.309   4.550  0.8707  1.2662 -1.7735
 2360SOL     OW 7411   0.375   2.504   4.823 -0.5907  0.2771  0.7056
 2360SOL    HW1 7412   0.294   2.547   4.797 -0.5807 -0.7900 -1.1896
 2360SOL    HW2 7413   0.422   2.489   4.741 -0.1784 -2.4782  1.3821
 2361SOL     OW 7414   2.893   0.649   0.061 -0.0579  0.2331 -0.3234
 2361SOL    HW1 7415   2.805   0.655   0.098 -0.5581  2.0470 -1.7373
 2361SOL    HW2 7416   2.912   0.555   0.058 -1.4670 -0.1205  1.0586
 2362SOL     OW 7417   2.548   5.281   3.821  0.5100  0.0188  0.2750
 2362SOL    HW1 7418   2.463   5.315   3.847 -0.1855 -0.0678 -1.8100
 2362SOL    HW2 7419   2.599   5.360   3.799  0.2814 -0.0369 -0.4717
 2363SOL     OW 7420   0.627   3.757   1.087 -0.0898 -0.1905  0.0261
 2363SOL    HW1 7421   0.548   3.794   1.126  1.1228  0.1427  2.2287
 2363SOL    HW2 7422   0.686   3.832   1.075  0.1443 -0.5295 -0.9726
 2364SOL     OW 7423   3.476   1.456   4.572 -0.2521 -0.1179  0.3780
 2364SOL    HW1 7424   3.514   1.526   4.625 -1.2480  0.3979  0.4101
 2364SOL    HW2 7425   3.521   1.463   4.488 -0.0877  0.3200  0.5011
 2365SOL     OW 7426   0.309   4.559   0.435  0.4781  0.2305  0.3521
 2365SOL    HW1 7427   0.346   4.645   0.417  1.7596 -0.4067 -0.0930
 2365SOL    HW2 7428   0.363   4.498   0.384 -0.8487 -0.7659  0.1146
 2366SOL     OW 7429   2.322   2.837   4.156  0.2415 -0.1794  0.3603
 2366SOL    HW1 7430   2.272   2.758   4.175 -2.1149  0.6666 -2.0593
 2366SOL    HW2 7431   2.297   2.899   4.225 -3.1462  0.6522 -1.5022
 2367SOL     OW 7432   3.288   2.013   2.525 -0.1305  0.1612 -0.3038
 2367SOL    HW1 7433   3.220   1.952   2.496 -1.6026  1.2720  0.7611
 2367SOL    HW2 7434   3.275   2.091   2.471  0.2196  0.4248 -0.0106
 2368SOL     OW 7435   5.461   3.713   3.348 -0.2147 -0.0620  0.2948
 2368SOL    HW1 7436   5.485   3.712   3.255  0.0265 -1.5189  0.3689
 2368SOL    HW2 7437   5.444   3.622   3.370  2.1848 -0.0979  2.3024
 2369SOL     OW 7438   3.605   3.334   4.569 -0.3966 -0.4594  0.1258
 2369SOL    HW1 7439   3.684   3.386   4.581 -1.1211  0.8018 -0.4726
 2369SOL    HW2 7440   3.591   3.290   4.653 -0.6877  1.6022  1.1736
 2370SOL     OW 7441   1.759   3.658   0.713 -0.5052 -0.0529 -0.2459
 2370SOL    HW1 7442   1.709   3.723   0.664  1.3791  1.2912 -0.4253
 2370SOL    HW2 7443   1.794   3.706   0.788  0.5825 -0.9530 -0.1689
 2371SOL     OW 7444   2.697   4.905   1.472 -0.4014 -0.1164 -0.3744
 2371SOL    HW1 7445   2.632   4.924   1.540  0.1025  0.3498 -0.0147
 2371SOL    HW2 7446   2.657   4.836   1.419 -0.2518 -1.4592  1.2055
 2372SOL     OW 7447   1.914   1.406   0.434  0.1180 -0.3737  0.0322
 2372SOL    HW1 7448   1.824   1.375   0.427  0.3481 -1.0876  0.1145
 2372SOL    HW2 7449   1.932   1.447   0.349  0.5204 -2.4966 -0.9702
 2373SOL     OW 7450   1.560   1.388   2.419 -0.0068 -0.0790 -0.0289
 2373SOL    HW1 7451   1.590   1.471   2.456  0.0723  0.0944 -0.4761
 2373SOL    HW2 7452   1.579   1.396   2.325  1.3633 -1.1938  0.1427
 2374SOL     OW 7453   3.865   2.843   2.387  0.2285  0.5757 -0.3549
 2374SOL    HW1 7454   3.876   2.934   2.360  0.0880  0.5287 -0.5722
 2374SOL    HW2 7455   3.946   2.800   2.359 -0.4799  0.2313 -1.9564
 2375SOL     OW 7456   0.733   0.884   0.353  0.6459 -0.2716 -0.0775
 2375SOL    HW1 7457   0.656   0.828   0.345  0.3019  0.0033  1.1621
 2375SOL    HW2 7458   0.766   0.866   0.441  1.2930  0.5065 -0.1578
 2376SOL     OW 7459   2.818   5.364   2.988 -0.0160  0.9367  0.2774
 2376SOL    HW1 7460   2.906   5.327   2.975 -1.6735 -3.1486 -0.0033
 2376SOL    HW2 7461   2.817   5.392   3.079  1.2929  0.2575  0.5171
 2377SOL     OW 7462   4.900   5.531   0.055 -0.1984 -0.0678  0.4319
 2377SOL    HW1 7463   4.891   5.614   0.009  0.6742 -0.1153  0.1680
 2377SOL    HW2 7464   4.963   5.549   0.125 -2.1554  0.2228  2.1544
 2378SOL     OW 7465   3.699   4.315   2.501 -0.2875 -0.5739 -0.4017
 2378SOL    HW1 7466   3.767   4.375   2.533  0.7479 -1.4265 -0.9844
 2378SOL    HW2 7467   3.628   4.373   2.473  0.3868  0.3524 -0.2215
 2379SOL     OW 7468   3.663   3.353   4.001  0.1757 -0.4886 -0.4645
 2379SOL    HW1 7469   3.690   3.346   4.093  1.0003 -0.6752 -0.7161
 2379SOL    HW2 7470   3.576   3.394   4.004  0.1479 -0.6079  0.4034
 2380SOL     OW 7471   2.931   3.174   4.202 -0.4787  0.7495 -0.1847
 2380SOL    HW1 7472   2.970   3.088   4.217  0.8671  1.4293  0.2602
 2380SOL    HW2 7473   2.918   3.210   4.290 -0.0177  1.4505 -0.4007
 2381SOL     OW 7474   2.686   5.129   4.445  0.3300 -0.1262  0.3041
 2381SOL    HW1 7475   2.628   5.055   4.464  0.0076  0.3880  1.3356
 2381SOL    HW2 7476   2.747   5.132   4.518 -0.9008  1.8401  1.3166
 2382SOL     OW 7477   4.306   5.366   3.188  0.3877  0.3116  0.1978
 2382SOL    HW1 7478   4.292   5.271   3.180  0.5653  0.2460  0.6397
 2382SOL    HW2 7479   4.238   5.395   3.248  0.0218  0.5440 -0.3375
 2383SOL     OW 7480   2.627   3.899   3.631 -0.1386 -0.7083  0.4238
 2383SOL    HW1 7481   2.622   3.939   3.718 -0.9946  0.8015 -0.3064
 2383SOL    HW2 7482   2.555   3.835   3.630  0.0631 -0.9433  0.9313
 2384SOL     OW 7483   2.278   4.057   5.369 -0.0026  0.2692 -0.4681
 2384SOL    HW1 7484   2.235   4.119   5.428 -0.5533 -1.4753  0.9828
 2384SOL    HW2 7485   2.206   4.016   5.321  0.2179 -0.6619 -0.0138
 2385SOL     OW 7486   5.195   3.682   1.793 -0.1103 -0.2734 -0.2049
 2385SOL    HW1 7487   5.121   3.669   1.734  0.9767 -0.8202 -1.4599
 2385SOL    HW2 7488   5.246   3.602   1.786  0.4714 -0.0024  0.8539
 2386SOL     OW 7489   3.212   5.223   4.941 -0.5293  0.0424 -0.6183
 2386SOL    HW1 7490   3.124   5.189   4.957 -0.1995 -0.4877  0.0802
 2386SOL    HW2 7491   3.226   5.287   5.011  0.1554 -0.8557  0.0814
 2387SOL     OW 7492   1.910   2.973   2.960  0.3395  0.2167 -0.3444
 2387SOL    HW1 7493   1.888   3.062   2.985  2.5595  0.2592  1.6568
 2387SOL    HW2 7494   1.931   2.978   2.867  2.3059  2.1596  0.1722
 2388SOL     OW 7495   2.767   4.864   0.969  0.1163  0.0188  0.0302
 2388SOL    HW1 7496   2.733   4.775   0.956 -0.1110 -0.0571  1.0795
 2388SOL    HW2 7497   2.699   4.908   1.021  0.6150  0.5461  0.2374
 2389SOL     OW 7498   3.226   3.768   1.272  0.1945  0.1316 -0.5633
 2389SOL    HW1 7499   3.206   3.676   1.257 -0.9632  0.3502 -0.4075
 2389SOL    HW2 7500   3.181   3.814   1.201 -1.2229  0.7668  0.7416
 2390SOL     OW 7501   2.581   1.917   0.468 -0.2411 -0.3779  0.4381
 2390SOL    HW1 7502   2.572   1.952   0.556 -0.8797 -0.3315  0.3522
 2390SOL    HW2 7503   2.537   1.832   0.471  0.2912 -0.6618  0.3338
 2391SOL     OW 7504   3.217   3.519   0.640  0.2359  0.0655  0.4893
 2391SOL    HW1 7505   3.153   3.553   0.578 -0.9357 -1.9909  0.5470
 2391SOL    HW2 7506   3.302   3.536   0.598 -0.4677  0.3422 -0.8353
 2392SOL     OW 7507   0.867   5.201   3.483  0.0617 -0.4982  0.3115
 2392SOL    HW1 7508   0.962   5.207   3.474 -0.2971  2.8435 -2.1626
 2392SOL    HW2 7509   0.843   5.275   3.540 -1.2838  0.3978 -1.3773
 2393SOL     OW 7510   4.748   2.891   4.377  0.6765 -0.4896  0.0157
 2393SOL    HW1 7511   4.752   2.916   4.284 -1.7583  0.0704  0.0338
 2393SOL    HW2 7512   4.745   2.795   4.375 -0.9648 -0.4472 -0.5887
 2394SOL     OW 7513   0.192   4.316   4.782  0.0132 -0.3618  0.1103
 2394SOL    HW1 7514   0.261   4.266   4.826 -0.8815 -1.4257  0.3416
 2394SOL    HW2 7515   0.143   4.250   4.733 -1.8596  0.1079  1.2981
 2395SOL     OW 7516   2.716   1.409   0.076  0.1119  0.0527  0.9048
 2395SOL    HW1 7517   2.655   1.481   0.062  0.5233 -0.1286 -2.0273
 2395SOL    HW2 7518   2.797   1.451   0.105 -0.4524  0.5234  1.8348
 2396SOL     OW 7519   2.578   5.446   2.872 -0.1022 -0.4090 -0.4343
 2396SOL    HW1 7520   2.658   5.416   2.917  0.2785 -0.0504 -0.8636
 2396SOL    HW2 7521   2.524   5.483   2.942  0.0523 -0.7640 -0.1200
 2397SOL     OW 7522   1.719   2.827   2.617 -0.6024  0.2000  0.4394
 2397SOL    HW1 7523   1.642   2.824   2.560  0.8596  0.9849 -1.6527
 2397SOL    HW2 7524   1.686   2.861   2.701 -2.3693  1.3481 -0.6836
 2398SOL     OW 7525   4.114   3.940   3.808 -0.0352 -0.1992  0.0546
 2398SOL    HW1 7526   4.194   3.911   3.851  1.5590 -0.0421 -2.7323
 2398SOL    HW2 7527   4.079   3.862   3.766 -1.4965 -0.3153  1.4171
 2399SOL     OW 7528   1.098   3.930   4.515  0.4496 -0.3872 -0.1051
 2399SOL    HW1 7529   1.095   4.020   4.485  0.4636 -1.2008 -2.6609
 2399SOL    HW2 7530   1.189   3.916   4.543  0.7649  0.0017 -0.9449
 2400SOL     OW 7531   0.177   1.192   0.360  0.2438 -0.0269  0.3884
 2400SOL    HW1 7532   0.241   1.250   0.399  0.7062  0.3844 -0.9626
 2400SOL    HW2 7533   0.206   1.104   0.384 -0.1800  0.2586  2.0031
 2401SOL     OW 7534   4.395   4.856   1.283  0.2498  0.0266 -0.1803
 2401SOL    HW1 7535   4.451   4.867   1.360 -0.0128 -0.3342  0.0656
 2401SOL    HW2 7536   4.422   4.926   1.223  1.0140 -0.1916 -0.0944
 2402SOL     OW 7537   0.872   1.848   1.645 -0.0274 -0.5520  0.0646
 2402SOL    HW1 7538   0.880   1.864   1.550 -1.1271 -0.3888 -0.0041
 2402SOL    HW2 7539   0.922   1.919   1.685  1.7724 -1.5275 -0.4221
 2403SOL     OW 7540   3.325   3.906   3.203  0.0844 -0.0315 -0.3100
 2403SOL    HW1 7541   3.411   3.865   3.207  0.1923 -0.2848 -3.4041
 2403SOL    HW2 7542   3.264   3.835   3.222  0.4392 -0.7024 -1.6080
 2404SOL     OW 7543   2.346   5.040   2.859 -0.2901 -0.2802  0.3225
 2404SOL    HW1 7544   2.349   5.129   2.892 -0.1993  0.4466 -1.5677
 2404SOL    HW2 7545   2.296   5.046   2.778  0.4016 -1.7868 -0.2405
 2405SOL     OW 7546   4.016   2.866   0.844 -0.0097  0.2706  0.4970
 2405SOL    HW1 7547   3.985   2.892   0.757  0.4496 -0.6568  0.0497
 2405SOL    HW2 7548   3.949   2.897   0.904  0.3262  2.1369 -0.0543
 2406SOL     OW 7549   0.281   4.042   0.951 -0.0336  0.1511 -0.0163
 2406SOL    HW1 7550   0.323   4.047   0.864  1.2676 -0.5863  0.5499
 2406SOL    HW2 7551   0.196   4.003   0.934 -0.1582  0.8425 -1.0824
 2407SOL     OW 7552   4.400   0.690   1.319  0.0466 -0.0586  0.2340
 2407SOL    HW1 7553   4.407   0.742   1.239  3.1759 -0.0483  0.4715
 2407SOL    HW2 7554   4.419   0.752   1.389 -3.2252  0.0609  1.0854
 2408SOL     OW 7555   1.955   4.400   4.216  0.3089 -0.6177 -0.8713
 2408SOL    HW1 7556   1.865   4.381   4.246  0.8340 -2.4309 -0.3810
 2408SOL    HW2 7557   1.985   4.318   4.178  1.1615  0.4886 -2.6486
 2409SOL     OW 7558   5.352   3.392   2.156 -0.5180  0.5562 -0.0389
 2409SOL    HW1 7559   5.357   3.303   2.190 -0.2492  0.9706  1.0215
 2409SOL    HW2 7560   5.258   3.409   2.146 -0.6604  0.8999  1.7682
 2410SOL     OW 7561   4.171   3.906   2.396 -0.1295 -0.2140  0.3561
 2410SOL    HW1 7562   4.238   3.910   2.327 -1.0612  0.3438 -0.5356
 2410SOL    HW2 7563   4.172   3.814   2.424  2.3864  0.1972  1.7664
 2411SOL     OW 7564   1.099   5.238   5.437  0.3255  0.2356 -0.1677
 2411SOL    HW1 7565   1.051   5.321   5.446  0.6642  0.2443  1.8557
 2411SOL    HW2 7566   1.188   5.265   5.414  0.8170  0.5682  1.9399
 2412SOL     OW 7567   1.018   3.009   4.830  0.5468 -0.0535  0.3203
 2412SOL    HW1 7568   0.967   2.932   4.804 -1.0771  1.0420  0.1657
 2412SOL    HW2 7569   1.109   2.984   4.813  0.0688 -1.9814  0.4030
 2413SOL     OW 7570   5.303   5.237   1.070 -0.3158  0.3315 -0.0823
 2413SOL    HW1 7571   5.218   5.196   1.086  0.3177 -0.0371  2.6153
 2413SOL    HW2 7572   5.367   5.173   1.102  0.8811  1.5886  0.0983
 2414SOL     OW 7573   1.045   2.944   0.001  0.4291 -0.3463 -0.2686
 2414SOL    HW1 7574   0.991   3.016  -0.031  2.0899  1.2700  0.5265
 2414SOL    HW2 7575   1.101   2.921  -0.073 -1.1776 -1.9317 -1.0469
 2415SOL     OW 7576   0.156   4.859   4.875 -0.5646  0.0812 -0.0693
 2415SOL    HW1 7577   0.223   4.817   4.929 -0.5091  1.4043  0.9067
 2415SOL    HW2 7578   0.205   4.896   4.801 -0.5466 -1.0971 -0.6564
 2416SOL     OW 7579   0.110   0.695   2.722 -0.4286 -0.0950 -0.0560
 2416SOL    HW1 7580   0.043   0.699   2.653 -0.6868  0.5097  0.2208
 2416SOL    HW2 7581   0.074   0.634   2.786 -0.8110  0.3804  0.1868
 2417SOL     OW 7582   5.242   1.688   2.123 -0.2555 -0.4793  0.1340
 2417SOL    HW1 7583   5.313   1.653   2.070 -0.4276 -1.8363  0.7916
 2417SOL    HW2 7584   5.281   1.706   2.208 -0.2836  0.5051 -0.0455
 2418SOL     OW 7585   3.268   5.034   2.618 -0.2672  0.3005 -0.0636
 2418SOL    HW1 7586   3.360   5.031   2.641 -0.2900  1.2245  0.1843
 2418SOL    HW2 7587   3.267   5.062   2.526 -0.3125  1.1009  0.1695
 2419SOL     OW 7588   3.569   4.297   3.523  0.2568  0.2188  0.2389
 2419SOL    HW1 7589   3.598   4.208   3.542 -0.1473  0.1311  0.4616
 2419SOL    HW2 7590   3.584   4.308   3.429 -1.1444 -0.6394 -0.1054
 2420SOL     OW 7591   2.315   3.304   3.336 -0.4067  0.0919  0.8432
 2420SOL    HW1 7592   2.323   3.388   3.291 -1.7447 -0.5713 -0.6687
 2420SOL    HW2 7593   2.373   3.312   3.412 -1.3161  2.7744  1.3172
 2421SOL     OW 7594   2.023   1.522   0.667  0.4513 -0.1792  0.6266
 2421SOL    HW1 7595   1.982   1.465   0.602  0.2529 -1.3705  1.7823
 2421SOL    HW2 7596   2.079   1.580   0.616  2.0959 -2.6056 -0.4163
 2422SOL     OW 7597   1.029   1.678   2.360 -0.1529 -0.1002  0.2087
 2422SOL    HW1 7598   1.075   1.755   2.326  0.0192 -0.0750  0.4953
 2422SOL    HW2 7599   1.068   1.604   2.313 -0.3897 -0.0063 -0.1412
 2423SOL     OW 7600   2.439   1.263   0.113  0.2572  0.4268  0.5580
 2423SOL    HW1 7601   2.468   1.268   0.022  0.9879  1.2441  0.8203
 2423SOL    HW2 7602   2.398   1.177   0.122 -1.9637  1.2606 -1.1643
 2424SOL     OW 7603   1.075   5.419   1.792  0.0462  0.4546  0.5705
 2424SOL    HW1 7604   1.001   5.412   1.732  0.3581 -0.1758  0.2564
 2424SOL    HW2 7605   1.068   5.508   1.827  0.3109  1.1173 -0.9870
 2425SOL     OW 7606   4.493   0.463   2.633  0.3557  0.6485 -0.0230
 2425SOL    HW1 7607   4.416   0.448   2.578  0.8036  0.1720 -0.5311
 2425SOL    HW2 7608   4.497   0.559   2.642 -0.9023  0.6228  0.9006
 2426SOL     OW 7609   5.127   1.970   3.085  0.4303  0.5392 -0.0978
 2426SOL    HW1 7610   5.183   1.919   3.145  0.1414 -0.7506 -0.9013
 2426SOL    HW2 7611   5.095   2.043   3.138  0.3025 -0.5069  1.2938
 2427SOL     OW 7612   3.411   2.584   3.553 -0.3317 -0.2495 -0.1664
 2427SOL    HW1 7613   3.323   2.621   3.551  0.2230  1.2868  2.0681
 2427SOL    HW2 7614   3.405   2.512   3.616  0.2464  0.6155  0.9076
 2428SOL     OW 7615   0.385   0.684   1.415 -0.0601  0.2070  0.4015
 2428SOL    HW1 7616   0.434   0.729   1.484 -1.7308  1.1830  1.0017
 2428SOL    HW2 7617   0.395   0.740   1.338  2.3851 -1.2415 -0.3751
 2429SOL     OW 7618   2.530   3.965   1.509  0.4703  0.6709 -0.6861
 2429SOL    HW1 7619   2.540   4.028   1.580 -0.5661  0.2661 -0.1669
 2429SOL    HW2 7620   2.479   4.012   1.443 -1.4883 -0.0330  0.2734
 2430SOL     OW 7621   3.066   2.809   0.899 -0.6951  0.1869  0.1992
 2430SOL    HW1 7622   2.979   2.846   0.889 -0.2142  1.1368 -0.6174
 2430SOL    HW2 7623   3.118   2.879   0.938 -0.1756 -0.1803  0.1836
 2431SOL     OW 7624   0.463   1.130   4.277  0.1038  0.4549 -0.3279
 2431SOL    HW1 7625   0.403   1.193   4.315 -0.6550 -0.5010  0.0721
 2431SOL    HW2 7626   0.504   1.086   4.352 -0.2135 -0.3140 -0.5944
 2432SOL     OW 7627   0.572   2.675   3.170  0.2827  0.3470 -0.0942
 2432SOL    HW1 7628   0.506   2.698   3.105  0.1895 -1.4830 -0.6687
 2432SOL    HW2 7629   0.524   2.673   3.253  0.2135  1.7793 -0.0890
 2433SOL     OW 7630   2.578   4.887   1.175  0.6377 -0.0142  0.1453
 2433SOL    HW1 7631   2.640   4.814   1.176 -0.7046 -1.3449 -3.5970
 2433SOL    HW2 7632   2.510   4.863   1.238  0.4314 -1.8042 -0.7542
 2434SOL     OW 7633   2.089   0.339   3.650 -0.0563 -0.2275  0.0123
 2434SOL    HW1 7634   1.997   0.330   3.623 -0.8397  1.0518  2.1578
 2434SOL    HW2 7635   2.087   0.404   3.720  2.3272 -1.1274  0.9532
 2435SOL     OW 7636   2.868   4.043   3.999  0.0153 -0.0182  0.1808
 2435SOL    HW1 7637   2.909   4.057   3.914  0.2125  0.6139  0.3748
 2435SOL    HW2 7638   2.775   4.034   3.980 -0.0678  1.1493 -0.0013
 2436SOL     OW 7639   5.447   0.264   2.079 -0.0043 -0.2314 -0.5405
 2436SOL    HW1 7640   5.439   0.358   2.090 -2.1458 -0.4153 -0.3278
 2436SOL    HW2 7641   5.514   0.238   2.142  1.3994  1.2829 -1.3922
 2437SOL     OW 7642   3.512   1.270   4.866  0.3042 -0.0608  0.6617
 2437SOL    HW1 7643   3.496   1.312   4.781 -0.0043 -2.8579 -0.7348
 2437SOL    HW2 7644   3.434   1.292   4.918  0.3937  1.4981  0.1687
 2438SOL     OW 7645   3.665   4.766   4.080 -0.5067  0.4414 -0.3850
 2438SOL    HW1 7646   3.593   4.731   4.029  0.0418  0.6658 -1.3286
 2438SOL    HW2 7647   3.634   4.764   4.171 -0.6925 -1.9749 -0.4564
 2439SOL     OW 7648   0.220   2.601   4.445 -0.4824 -0.1177  0.6393
 2439SOL    HW1 7649   0.267   2.625   4.366 -2.1638  1.1451 -0.0190
 2439SOL    HW2 7650   0.242   2.509   4.460  2.1832  0.4579  0.3921
 2440SOL     OW 7651   4.655   2.534   1.981  0.4643  0.0123 -0.0080
 2440SOL    HW1 7652   4.575   2.497   1.944  0.6143  1.6302 -2.0372
 2440SOL    HW2 7653   4.682   2.470   2.048 -2.5004 -0.5365  0.7386
 2441SOL     OW 7654   2.399   4.552   0.041  0.2133 -0.6610 -0.2257
 2441SOL    HW1 7655   2.462   4.604  -0.010 -0.7051 -0.2210 -0.9324
 2441SOL    HW2 7656   2.314   4.591   0.020 -0.1514 -0.2227  1.9573
 2442SOL     OW 7657   1.085   0.228   3.121 -0.4153 -0.2439  0.0474
 2442SOL    HW1 7658   1.015   0.192   3.176  0.4686 -0.0117  1.3324
 2442SOL    HW2 7659   1.062   0.321   3.113  0.3563  0.0805  1.4359
 2443SOL     OW 7660   5.337   4.922   3.758  0.0125  0.4046 -0.4560
 2443SOL    HW1 7661   5.423   4.881   3.769 -0.0184  0.5235  0.2588
 2443SOL    HW2 7662   5.336   4.952   3.667  0.9010  0.7869 -0.3490
 2444SOL     OW 7663   0.906   2.748   4.135 -0.1006  0.3364  0.1348
 2444SOL    HW1 7664   0.945   2.770   4.220 -1.2117  1.3150  0.4130
 2444SOL    HW2 7665   0.881   2.656   4.143  1.6398 -0.1525  0.1389
 2445SOL     OW 7666   0.100   1.065   4.937 -0.3557 -0.0279 -0.1983
 2445SOL    HW1 7667   0.146   1.019   4.867  2.1470  1.4077  0.4411
 2445SOL    HW2 7668   0.107   1.006   5.012 -0.0134 -0.0563 -0.2507
 2446SOL     OW 7669   1.960   2.846   2.499  0.2231 -0.0953  0.5363
 2446SOL    HW1 7670   2.004   2.775   2.546 -0.7816 -0.4849  0.9212
 2446SOL    HW2 7671   1.869   2.840   2.528 -0.5944 -0.8510 -2.0772
 2447SOL     OW 7672   1.363   0.062   4.567  0.6765 -0.3146  0.0912
 2447SOL    HW1 7673   1.297   0.125   4.537 -0.9358 -1.4912  1.0945
 2447SOL    HW2 7674   1.322   0.018   4.641  2.0717 -2.0561 -0.1431
 2448SOL     OW 7675   2.540   1.819   5.214  0.1175  0.0320 -0.5898
 2448SOL    HW1 7676   2.629   1.850   5.230  0.1257  0.3440 -1.2109
 2448SOL    HW2 7677   2.523   1.841   5.122 -0.4026 -0.5156 -0.6277
 2449SOL     OW 7678   2.094   3.851   0.418 -0.6713  0.3222  0.0200
 2449SOL    HW1 7679   2.122   3.767   0.455  1.1906  1.0381  0.2500
 2449SOL    HW2 7680   2.143   3.860   0.337  0.6824  2.1394  1.0126
 2450SOL     OW 7681   4.638   1.310   1.480  0.2858  0.2388 -0.4512
 2450SOL    HW1 7682   4.686   1.354   1.550  1.3643  1.3045 -1.8367
 2450SOL    HW2 7683   4.552   1.291   1.518  0.3877  2.0060  0.7183
 2451SOL     OW 7684   1.148   1.385   3.240  0.4785  0.4405  0.2137
 2451SOL    HW1 7685   1.101   1.467   3.254 -1.1167  0.0150 -2.3093
 2451SOL    HW2 7686   1.192   1.368   3.323 -0.5145  2.9743  1.3134
 2452SOL     OW 7687   0.241   4.545   0.822  0.4522 -0.8436  0.2919
 2452SOL    HW1 7688   0.202   4.458   0.816 -0.6592 -0.3128 -0.2946
 2452SOL    HW2 7689   0.291   4.543   0.904 -0.7855 -1.5396  1.0363
 2453SOL     OW 7690   4.957   3.410   0.733 -0.4596 -0.2504  0.5521
 2453SOL    HW1 7691   4.875   3.368   0.708 -0.7849  0.5271  0.2941
 2453SOL    HW2 7692   5.013   3.404   0.656 -0.7768  0.4462  0.2595
 2454SOL     OW 7693   2.567   1.336   4.562 -0.1431  0.0724 -0.3666
 2454SOL    HW1 7694   2.553   1.373   4.475  0.9030  1.6597  0.1208
 2454SOL    HW2 7695   2.633   1.267   4.549 -0.8549 -0.4934 -1.0069
 2455SOL     OW 7696   1.739   0.040   0.137 -0.8569  0.2564 -0.0916
 2455SOL    HW1 7697   1.667   0.090   0.098 -2.2571  0.1321  2.2364
 2455SOL    HW2 7698   1.696  -0.032   0.183  0.9555 -1.3985 -0.9213
 2456SOL     OW 7699   0.123   2.658   4.741  0.2033  0.0275 -0.2488
 2456SOL    HW1 7700   0.051   2.720   4.753  0.8956  0.8839 -0.5177
 2456SOL    HW2 7701   0.116   2.630   4.650  1.6018  1.8759 -0.9506
 2457SOL     OW 7702   3.689   4.743   2.509  0.0967 -0.0193 -0.1562
 2457SOL    HW1 7703   3.631   4.761   2.435 -1.1751  1.4055  1.1460
 2457SOL    HW2 7704   3.763   4.696   2.471 -0.5578  0.6599 -2.3253
 2458SOL     OW 7705   2.575   0.379   3.175  0.7010 -0.4064  0.1191
 2458SOL    HW1 7706   2.511   0.448   3.194  1.9473  1.0524 -0.7686
 2458SOL    HW2 7707   2.653   0.405   3.224  1.2761 -1.0171 -0.4583
 2459SOL     OW 7708   1.502   0.021   1.517  0.0226 -0.1545 -0.8936
 2459SOL    HW1 7709   1.578  -0.012   1.566 -1.7919 -2.1691  0.6529
 2459SOL    HW2 7710   1.504   0.116   1.532  2.3424 -0.1337 -1.0749
 2460SOL     OW 7711   3.587   4.104   0.559  0.0771  0.2820  0.4275
 2460SOL    HW1 7712   3.645   4.164   0.512  1.6998 -0.9192  0.8434
 2460SOL    HW2 7713   3.534   4.160   0.615  1.6178  1.3192  0.8590
 2461SOL     OW 7714   5.528   3.760   4.943  0.6454 -0.2797 -0.2858
 2461SOL    HW1 7715   5.486   3.809   5.014 -0.1533  0.7353 -1.4150
 2461SOL    HW2 7716   5.605   3.721   4.982  0.8167  1.1846  0.8891
 2462SOL     OW 7717   1.145   3.051   0.752 -0.1808 -0.2589  1.2270
 2462SOL    HW1 7718   1.229   3.033   0.710 -0.9014  0.1979 -0.4595
 2462SOL    HW2 7719   1.086   2.983   0.719 -0.9735  0.6110  0.8186
 2463SOL     OW 7720   1.474   0.527   4.208 -0.3661  0.0933  0.1716
 2463SOL    HW1 7721   1.499   0.609   4.250  1.9349 -0.4870 -0.0049
 2463SOL    HW2 7722   1.511   0.459   4.264  0.1869 -0.7525 -1.1923
 2464SOL     OW 7723   1.491   0.864   5.245 -0.5509 -0.6098 -0.1662
 2464SOL    HW1 7724   1.530   0.943   5.281 -0.3590 -0.7071 -0.1593
 2464SOL    HW2 7725   1.535   0.853   5.160  0.2111 -1.3094  0.3034
 2465SOL     OW 7726   3.468   0.448   3.889  0.0590 -0.0311 -0.1789
 2465SOL    HW1 7727   3.437   0.375   3.836  1.4009  0.1155 -1.2024
 2465SOL    HW2 7728   3.553   0.418   3.923  0.5502  0.9729 -0.4889
 2466SOL     OW 7729   2.450   2.820   0.650 -0.3726  0.2799 -0.7099
 2466SOL    HW1 7730   2.439   2.911   0.676  0.8242  1.1925 -3.2977
 2466SOL    HW2 7731   2.506   2.782   0.718 -0.7173  1.4981  0.2753
 2467SOL     OW 7732   0.868   3.225   0.269 -0.0908  0.4178  0.9570
 2467SOL    HW1 7733   0.882   3.171   0.346 -1.8875  0.5915  1.4149
 2467SOL    HW2 7734   0.773   3.230   0.259  0.1052  0.5154 -1.1805
 2468SOL     OW 7735   2.458   5.097   1.094 -0.4235 -0.0567 -0.3924
 2468SOL    HW1 7736   2.388   5.083   1.158 -0.0914 -2.8669 -0.5733
 2468SOL    HW2 7737   2.510   5.017   1.097  0.3632  0.2766 -3.2347
 2469SOL     OW 7738   0.151   4.125   2.205 -0.2371  0.1413  0.3490
 2469SOL    HW1 7739   0.176   4.214   2.231 -0.6919 -0.2992  2.3344
 2469SOL    HW2 7740   0.210   4.104   2.132  1.4138  1.2000  1.3639
 2470SOL     OW 7741   4.687   3.146   3.550  0.4177  0.0319 -0.4351
 2470SOL    HW1 7742   4.634   3.224   3.566  0.3976 -0.0160 -0.2725
 2470SOL    HW2 7743   4.776   3.172   3.573  0.2589 -0.2934  0.5729
 2471SOL     OW 7744   0.826   0.154   5.540  0.1860  0.0596  0.3684
 2471SOL    HW1 7745   0.770   0.227   5.565 -2.4451 -2.0674  0.9826
 2471SOL    HW2 7746   0.820   0.093   5.615  1.2783 -1.3438 -0.6564
 2472SOL     OW 7747   3.922   4.358   0.600  0.3480 -0.1974 -0.4289
 2472SOL    HW1 7748   3.860   4.313   0.543  0.5633 -1.6864  0.4832
 2472SOL    HW2 7749   3.931   4.300   0.676  3.3130 -0.2849 -0.8086
 2473SOL     OW 7750   0.685   3.655   2.587  0.5014 -0.0518 -0.2868
 2473SOL    HW1 7751   0.758   3.658   2.649  0.7935  0.7732 -0.6620
 2473SOL    HW2 7752   0.647   3.743   2.591 -1.8414 -1.0867  1.5355
 2474SOL     OW 7753   0.659   0.062   1.105 -0.2900  0.2758 -0.0088
 2474SOL    HW1 7754   0.693   0.068   1.194 -0.6405  2.3499  0.0186
 2474SOL    HW2 7755   0.573   0.021   1.115 -0.4087  0.6743  0.6306
 2475SOL     OW 7756   4.753   1.120   1.704  0.5035  0.0470 -0.0786
 2475SOL    HW1 7757   4.842   1.139   1.675  0.7247 -0.5291  0.2066
 2475SOL    HW2 7758   4.758   1.123   1.800  0.5720 -1.4777 -0.0120
 2476SOL     OW 7759   2.811   2.225   2.630 -0.3056  0.0371 -0.8066
 2476SOL    HW1 7760   2.830   2.182   2.713 -2.4878  1.7581  0.6283
 2476SOL    HW2 7761   2.716   2.224   2.623 -0.2416  1.6453 -2.3205
 2477SOL     OW 7762   0.537   4.520   0.601  0.2699  0.0894 -0.4623
 2477SOL    HW1 7763   0.443   4.509   0.614  0.7007 -1.3831  1.5894
 2477SOL    HW2 7764   0.559   4.598   0.653  0.3450 -0.1435 -0.1431
 2478SOL     OW 7765   4.507   0.050   1.074  0.2695 -0.1659  0.1712
 2478SOL    HW1 7766   4.599   0.074   1.082 -0.0923  1.7281 -1.0963
 2478SOL    HW2 7767   4.463   0.104   1.140  0.0722 -1.1943  0.8956
 2479SOL     OW 7768   5.561   1.904   0.010  0.0097  0.1653 -0.0091
 2479SOL    HW1 7769   5.511   1.842  -0.043  1.0188 -0.0454 -0.7042
 2479SOL    HW2 7770   5.495   1.945   0.066 -0.7651 -1.0139 -0.0515
 2480SOL     OW 7771   4.690   1.302   0.972 -0.1716 -0.3588 -0.6812
 2480SOL    HW1 7772   4.687   1.293   1.067  0.3023 -1.9639 -0.8010
 2480SOL    HW2 7773   4.602   1.330   0.948 -0.2934  0.0483  0.2337
 2481SOL     OW 7774   0.877   2.022   0.977 -0.0676  0.1384  0.3550
 2481SOL    HW1 7775   0.946   2.041   0.914  0.2036  2.0222  1.2048
 2481SOL    HW2 7776   0.883   1.927   0.992  0.7477 -0.0930 -1.3872
 2482SOL     OW 7777   4.311   2.990   3.557 -0.0696 -0.4269 -0.7679
 2482SOL    HW1 7778   4.255   2.973   3.632 -0.2788 -1.8872 -1.2331
 2482SOL    HW2 7779   4.267   3.061   3.509 -0.8798 -0.7398 -0.4879
 2483SOL     OW 7780   0.933   2.017   4.580  0.4591  0.6521  0.1393
 2483SOL    HW1 7781   0.984   2.005   4.500  1.3113  0.5960  0.6928
 2483SOL    HW2 7782   0.877   2.092   4.561  0.0428  0.1150 -0.8218
 2484SOL     OW 7783   4.177   0.789   2.006  0.3752  0.6165  0.2933
 2484SOL    HW1 7784   4.098   0.736   1.991  2.2099 -2.1307 -0.0597
 2484SOL    HW2 7785   4.167   0.864   1.948 -2.1614  0.5509  0.5604
 2485SOL     OW 7786   2.618   4.153   3.526 -0.1172  0.3851 -0.3211
 2485SOL    HW1 7787   2.638   4.151   3.432  0.6593  0.8959 -0.1636
 2485SOL    HW2 7788   2.631   4.062   3.554 -2.3518 -0.2301 -1.1118
 2486SOL     OW 7789   2.681   0.320   1.344 -0.0816 -0.2184  0.9048
 2486SOL    HW1 7790   2.728   0.336   1.262  0.6280  0.3376  1.4122
 2486SOL    HW2 7791   2.589   0.331   1.321  0.1938  1.5178  0.5337
 2487SOL     OW 7792   4.044   0.429   0.452 -0.2250 -0.3503 -0.2378
 2487SOL    HW1 7793   3.949   0.421   0.458 -0.3230  0.0672 -1.2739
 2487SOL    HW2 7794   4.074   0.343   0.421 -0.0883 -1.0911  1.8350
 2488SOL     OW 7795   0.662   0.601   2.407  0.1184 -0.1496  0.2419
 2488SOL    HW1 7796   0.608   0.526   2.430  1.6526 -0.6124  2.5364
 2488SOL    HW2 7797   0.619   0.676   2.449 -0.9597  0.1671 -1.3673
 2489SOL     OW 7798   0.818   0.381   0.854 -0.1400  0.2668  0.2340
 2489SOL    HW1 7799   0.859   0.458   0.814  0.2288 -0.0158  0.0659
 2489SOL    HW2 7800   0.756   0.417   0.918 -1.9960  0.7403 -1.8018
 2490SOL     OW 7801   0.649   4.296   1.384  0.0274 -0.6082  1.1369
 2490SOL    HW1 7802   0.686   4.290   1.472 -0.6321  1.4335  1.5738
 2490SOL    HW2 7803   0.577   4.358   1.392  1.4304  1.4524 -1.3166
 2491SOL     OW 7804   2.869   2.186   1.829 -0.2391  0.5220  0.0695
 2491SOL    HW1 7805   2.881   2.096   1.859 -2.2476 -0.2512 -1.2686
 2491SOL    HW2 7806   2.815   2.227   1.896 -1.1206  0.0714 -0.3521
 2492SOL     OW 7807   0.625   0.816   4.905 -0.5605  0.1096  0.5103
 2492SOL    HW1 7808   0.718   0.830   4.884 -0.6957  0.1585 -0.0503
 2492SOL    HW2 7809   0.617   0.846   4.996  0.3209 -1.4463  1.1136
 2493SOL     OW 7810   4.263   0.161   2.710  0.1715  0.2456 -0.2695
 2493SOL    HW1 7811   4.287   0.178   2.619 -1.6736 -1.6505 -1.1355
 2493SOL    HW2 7812   4.327   0.096   2.740  0.8711  0.9804 -0.1393
 2494SOL     OW 7813   4.189   0.728   0.063 -0.6559  0.0705  0.0945
 2494SOL    HW1 7814   4.229   0.774   0.136 -0.7432  1.0932 -0.4860
 2494SOL    HW2 7815   4.210   0.636   0.077  2.2329  0.6301 -0.4002
 2495SOL     OW 7816   0.215   1.724   3.353  0.1540  0.3696  1.2612
 2495SOL    HW1 7817   0.152   1.775   3.404 -1.2944 -0.7866  0.6265
 2495SOL    HW2 7818   0.178   1.636   3.348  0.5093  0.3335 -1.3785
 2496SOL     OW 7819   3.657   2.484   2.292 -0.0493  0.2199  0.1736
 2496SOL    HW1 7820   3.632   2.398   2.325  1.5285 -0.0840  0.5993
 2496SOL    HW2 7821   3.739   2.505   2.336 -0.1986  1.7713 -0.2275
 2497SOL     OW 7822   5.009   2.828   1.812 -0.4191  0.2518 -0.3405
 2497SOL    HW1 7823   4.968   2.778   1.884 -0.9330 -1.3389 -1.7102
 2497SOL    HW2 7824   5.061   2.895   1.856  0.9931 -2.0491  1.5714
 2498SOL     OW 7825   3.186   3.944   3.969  0.1461 -0.4656 -0.5830
 2498SOL    HW1 7826   3.091   3.936   3.967 -0.0123  0.3558  1.5950
 2498SOL    HW2 7827   3.205   4.018   3.910 -0.3378 -2.0278 -2.7504
 2499SOL     OW 7828   1.445   5.350   4.486  0.0162 -0.6367 -0.0912
 2499SOL    HW1 7829   1.388   5.325   4.558  0.4289  2.3074  1.3357
 2499SOL    HW2 7830   1.412   5.300   4.411 -1.8595 -2.0328  1.6147
 2500SOL     OW 7831   3.131   4.983   1.413 -0.1843 -0.5581  0.1014
 2500SOL    HW1 7832   3.042   4.964   1.383  0.3136  0.1039 -1.9082
 2500SOL    HW2 7833   3.120   5.026   1.498 -1.8946  1.2072 -0.9749
 2501SOL     OW 7834   5.528   0.006   4.440  0.3733  0.2212 -0.0999
 2501SOL    HW1 7835   5.571  -0.005   4.355  2.3403  0.1164  0.8946
 2501SOL    HW2 7836   5.580   0.072   4.485 -0.0291 -0.4891  1.4376
 2502SOL     OW 7837   2.780   0.355   2.378  0.2160  0.4749  0.1750
 2502SOL    HW1 7838   2.777   0.439   2.423 -0.6419  0.7180 -0.3212
 2502SOL    HW2 7839   2.785   0.378   2.285  1.7705 -0.0214  0.1069
 2503SOL     OW 7840   0.595   2.632   2.504  0.2668 -0.2908 -0.1909
 2503SOL    HW1 7841   0.649   2.565   2.545  0.2358 -1.7204 -2.3599
 2503SOL    HW2 7842   0.657   2.700   2.476  0.9526 -1.7326 -2.3045
 2504SOL     OW 7843   1.573   5.441   0.251  0.3387  0.0424 -0.5338
 2504SOL    HW1 7844   1.525   5.511   0.296 -0.0191 -0.8838  0.5484
 2504SOL    HW2 7845   1.505   5.383   0.217  0.6537 -0.1351 -0.8756
 2505SOL     OW 7846   0.113   4.393   1.462  0.7206  0.4368  0.1369
 2505SOL    HW1 7847   0.137   4.479   1.427 -1.3547  1.4262  1.0786
 2505SOL    HW2 7848   0.029   4.407   1.506  0.5710 -1.9808  0.6998
 2506SOL     OW 7849   2.966   3.279   3.903  0.5454  0.1754 -0.2178
 2506SOL    HW1 7850   3.033   3.346   3.920  0.3006  0.1717  0.7705
 2506SOL    HW2 7851   2.917   3.273   3.984 -0.0099 -0.5690 -0.6055
 2507SOL     OW 7852   3.233   0.867   1.654 -0.5665 -0.0303 -0.1649
 2507SOL    HW1 7853   3.188   0.793   1.613  1.0374  0.0316 -2.1682
 2507SOL    HW2 7854   3.326   0.845   1.645 -0.1457  0.9811  1.6435
 2508SOL     OW 7855   2.960   1.652   3.691  0.5284 -0.3381  0.6029
 2508SOL    HW1 7856   2.890   1.675   3.752 -1.4463 -0.8557 -1.4288
 2508SOL    HW2 7857   3.019   1.728   3.693 -0.1115  0.1487  2.2213
 2509SOL     OW 7858   3.770   4.985   4.588  0.3629 -0.1267  0.5902
 2509SOL    HW1 7859   3.714   4.941   4.524 -1.1359  0.7850  1.2438
 2509SOL    HW2 7860   3.847   4.929   4.595  0.8869  0.1091 -2.5563
 2510SOL     OW 7861   3.257   1.250   0.866 -0.5519  0.4732  0.1313
 2510SOL    HW1 7862   3.180   1.200   0.893  0.0648  0.3710  1.7730
 2510SOL    HW2 7863   3.329   1.186   0.868  0.2684  1.4086  2.3582
 2511SOL     OW 7864   0.420   3.433   4.975  0.2220  0.0778 -0.3475
 2511SOL    HW1 7865   0.470   3.390   5.044 -1.4986  0.5302  1.2144
 2511SOL    HW2 7866   0.435   3.527   4.989  0.8438  0.1326 -1.3425
 2512SOL     OW 7867   0.934   4.859   3.112 -0.6910 -0.2654  0.7826
 2512SOL    HW1 7868   0.997   4.922   3.147  0.4990 -0.6624 -0.6347
 2512SOL    HW2 7869   0.857   4.912   3.090  0.0061  0.5704  0.3384
 2513SOL     OW 7870   3.217   2.545   4.141 -0.0791 -0.2204 -0.0975
 2513SOL    HW1 7871   3.216   2.641   4.137  0.1058 -0.2168 -0.0584
 2513SOL    HW2 7872   3.169   2.524   4.221  0.3523 -0.1428  0.1855
 2514SOL     OW 7873   4.441   0.637   4.458 -0.4053  0.5188 -0.1850
 2514SOL    HW1 7874   4.455   0.556   4.410 -0.9428  1.6571 -2.3467
 2514SOL    HW2 7875   4.481   0.704   4.403 -1.8252  1.9896  0.5285
 2515SOL     OW 7876   2.961   2.506   1.435 -0.3877  0.1062  0.0242
 2515SOL    HW1 7877   2.995   2.503   1.345  0.6796  1.8175  0.3557
 2515SOL    HW2 7878   2.963   2.415   1.464  1.1421 -0.2109 -1.0026
 2516SOL     OW 7879   2.564   3.693   2.934 -1.0015 -0.7113 -0.0861
 2516SOL    HW1 7880   2.478   3.651   2.940 -0.3610 -1.9633  0.4492
 2516SOL    HW2 7881   2.623   3.635   2.983  0.1672  0.0850 -0.5296
 2517SOL     OW 7882   0.122   4.091   3.684 -0.1319 -0.2057 -0.0259
 2517SOL    HW1 7883   0.058   4.039   3.636 -1.1200  0.5649  0.4443
 2517SOL    HW2 7884   0.206   4.048   3.667 -1.0345 -2.5069  1.0778
 2518SOL     OW 7885   3.133   4.570   3.081  0.3467 -0.1220  0.5224
 2518SOL    HW1 7886   3.167   4.544   3.167  0.4183 -2.0872 -0.0862
 2518SOL    HW2 7887   3.203   4.622   3.042  1.4372 -1.5915  0.5086
 2519SOL     OW 7888   2.577   4.671   5.451  0.1328  0.3818 -0.4503
 2519SOL    HW1 7889   2.659   4.689   5.496  0.6479 -2.1029 -0.3027
 2519SOL    HW2 7890   2.573   4.735   5.380  2.3730  0.3147 -0.6646
 2520SOL     OW 7891   1.582   5.078   0.914  0.3970 -0.2548 -0.5331
 2520SOL    HW1 7892   1.564   5.053   1.005 -2.1046 -2.2905 -1.5442
 2520SOL    HW2 7893   1.671   5.046   0.897  0.0122 -1.8773  0.4910
 2521SOL     OW 7894   4.537   2.753   2.744  0.0023 -0.7765  0.0169
 2521SOL    HW1 7895   4.562   2.845   2.750  0.4223 -0.9140  0.3973
 2521SOL    HW2 7896   4.495   2.745   2.658  0.7158 -0.4156 -0.3659
 2522SOL     OW 7897   0.969   1.822   2.018  0.4996 -0.2795 -0.3591
 2522SOL    HW1 7898   1.023   1.829   2.096  0.7328  0.7515 -0.6077
 2522SOL    HW2 7899   0.961   1.728   2.002  0.1783 -0.5079  1.0844
 2523SOL     OW 7900   0.774   3.866   5.515  0.1948  0.2306  0.3188
 2523SOL    HW1 7901   0.748   3.875   5.606  0.5879  0.8566  0.3705
 2523SOL    HW2 7902   0.815   3.949   5.493 -0.1639  0.1980 -0.5154
 2524SOL     OW 7903   2.947   1.438   2.550 -0.0735 -0.0268  0.4373
 2524SOL    HW1 7904   2.922   1.387   2.474  0.5046  1.6273 -0.8941
 2524SOL    HW2 7905   3.012   1.384   2.595  0.8691 -0.2894 -1.2006
 2525SOL     OW 7906   4.784   4.058   2.410 -0.2034 -0.2250 -0.2631
 2525SOL    HW1 7907   4.713   4.074   2.347 -0.0248  0.7010 -0.2319
 2525SOL    HW2 7908   4.770   3.967   2.438 -0.6096 -0.4758 -1.2262
 2526SOL     OW 7909   0.338   5.295   4.968 -0.6980  0.3581  0.0863
 2526SOL    HW1 7910   0.299   5.241   4.899 -2.0702  0.1145  1.0393
 2526SOL    HW2 7911   0.272   5.361   4.988  0.0330  0.9503  0.5757
 2527SOL     OW 7912   2.204   0.931   2.473 -0.0243  0.0122 -0.1263
 2527SOL    HW1 7913   2.119   0.904   2.438 -0.0053  1.0635 -1.0208
 2527SOL    HW2 7914   2.252   0.963   2.397  0.8977  0.1285  0.4941
 2528SOL     OW 7915   0.202   1.446   1.241 -0.1213  0.3586 -0.3266
 2528SOL    HW1 7916   0.197   1.535   1.206  1.2147  0.2686 -0.7880
 2528SOL    HW2 7917   0.178   1.389   1.167  0.7383  0.2709 -0.5569
 2529SOL     OW 7918   4.774   1.871   2.647 -0.4701  0.1123  0.1254
 2529SOL    HW1 7919   4.736   1.909   2.726 -2.3813 -2.1830  0.3939
 2529SOL    HW2 7920   4.767   1.776   2.661 -2.0612 -0.3680 -3.3217
 2530SOL     OW 7921   1.596   1.132   5.334 -0.0182 -0.0014  0.3176
 2530SOL    HW1 7922   1.653   1.205   5.311 -0.1833  0.3784  1.1002
 2530SOL    HW2 7923   1.509   1.159   5.305  0.2361 -0.7184 -1.1767
 2531SOL     OW 7924   0.700   3.437   3.638  0.0924  0.6408  0.6037
 2531SOL    HW1 7925   0.657   3.520   3.615 -0.4404  0.5709  1.3492
 2531SOL    HW2 7926   0.629   3.373   3.640  0.6263 -0.0146 -0.7989
 2532SOL     OW 7927   5.388   5.085   0.298  0.7362  0.3133  0.1952
 2532SOL    HW1 7928   5.376   5.043   0.213 -1.0157  0.3068  0.4173
 2532SOL    HW2 7929   5.482   5.090   0.310  0.9836 -0.8319 -1.1862
 2533SOL     OW 7930   3.871   4.967   1.124  0.2878 -0.0320 -0.1480
 2533SOL    HW1 7931   3.777   4.955   1.134  0.5988  0.3427  4.4561
 2533SOL    HW2 7932   3.905   4.879   1.110 -0.4799 -0.6127  1.5061
 2534SOL     OW 7933   4.495   2.356   3.198 -0.0993 -0.2493 -0.4448
 2534SOL    HW1 7934   4.415   2.408   3.204 -1.7591 -2.6358 -1.1406
 2534SOL    HW2 7935   4.565   2.420   3.189 -1.5619  2.0320  3.3106
 2535SOL     OW 7936   2.667   2.399   1.591  0.1749 -0.2696  0.0200
 2535SOL    HW1 7937   2.644   2.334   1.657  1.6741 -0.4277  0.4071
 2535SOL    HW2 7938   2.684   2.479   1.640 -0.3459  0.0517 -0.3270
 2536SOL     OW 7939   4.807   2.378   2.165  0.2600  0.5217 -0.3343
 2536SOL    HW1 7940   4.789   2.293   2.204  2.1102 -0.3719 -1.3389
 2536SOL    HW2 7941   4.868   2.359   2.093 -0.2942  2.5394 -1.3837
 2537SOL     OW 7942   2.574   3.610   1.463  0.6270  0.0676 -0.1625
 2537SOL    HW1 7943   2.590   3.539   1.401 -0.0585  0.1555 -0.4464
 2537SOL    HW2 7944   2.562   3.566   1.548 -2.1860 -0.3764 -0.7413
 2538SOL     OW 7945   3.675   3.943   1.596 -0.3046  0.2003  0.4504
 2538SOL    HW1 7946   3.610   3.876   1.577  1.7745 -1.5219 -0.7825
 2538SOL    HW2 7947   3.640   4.023   1.555 -2.1787 -0.3920  0.8357
 2539SOL     OW 7948   1.647   0.154   1.260  0.3877  0.0186 -0.2355
 2539SOL    HW1 7949   1.566   0.102   1.259  1.1651 -1.3104  2.4962
 2539SOL    HW2 7950   1.621   0.238   1.297  0.1602 -0.2374  0.1902
 2540SOL     OW 7951   1.941   4.599   0.073 -0.1549 -0.2388 -0.2531
 2540SOL    HW1 7952   1.863   4.618   0.125 -0.1763  1.4230 -0.8598
 2540SOL    HW2 7953   1.967   4.684   0.038  1.5674 -0.8855 -0.5684
 2541SOL     OW 7954   3.214   1.174   1.455 -0.1704 -0.7131  0.2983
 2541SOL    HW1 7955   3.279   1.119   1.412 -1.0806 -1.0346 -0.7160
 2541SOL    HW2 7956   3.264   1.231   1.513  1.1193 -0.1615 -1.3154
 2542SOL     OW 7957   4.142   4.374   0.830 -0.5294  0.2612 -0.1491
 2542SOL    HW1 7958   4.067   4.409   0.877 -0.9690 -0.1763 -0.5152
 2542SOL    HW2 7959   4.163   4.292   0.874 -0.4185  0.2644 -0.1961
 2543SOL     OW 7960   4.479   0.284   3.202  0.3069 -0.1436  0.1399
 2543SOL    HW1 7961   4.415   0.213   3.199 -0.1614  0.3221 -1.7005
 2543SOL    HW2 7962   4.441   0.348   3.262 -0.7109 -0.1050 -0.5311
 2544SOL     OW 7963   0.228   2.776   1.968  0.0681  0.2615 -0.3578
 2544SOL    HW1 7964   0.301   2.818   1.922  1.5437 -0.3348  1.4051
 2544SOL    HW2 7965   0.220   2.824   2.050  0.6010 -1.7384  0.8929
 2545SOL     OW 7966   5.524   5.366   3.850 -0.2916 -0.2896 -0.5551
 2545SOL    HW1 7967   5.498   5.290   3.901 -0.5815 -0.6629 -1.2512
 2545SOL    HW2 7968   5.444   5.418   3.841 -0.3027 -0.3609 -0.8636
 2546SOL     OW 7969   4.173   1.090   2.364 -0.4324 -0.4883 -0.0640
 2546SOL    HW1 7970   4.207   1.055   2.447 -1.0416 -0.1777  0.3153
 2546SOL    HW2 7971   4.251   1.124   2.319  0.1517 -2.2577 -0.4051
 2547SOL     OW 7972   3.948   4.814   4.669  0.2849 -0.5020  0.5115
 2547SOL    HW1 7973   4.022   4.755   4.654 -0.2634 -1.1308  0.2640
 2547SOL    HW2 7974   3.888   4.764   4.725 -1.0334 -0.8672 -1.2010
 2548SOL     OW 7975   3.116   3.614   2.054 -0.3864  0.6231  0.5706
 2548SOL    HW1 7976   3.197   3.579   2.093 -2.1870 -2.5804  1.6158
 2548SOL    HW2 7977   3.088   3.682   2.115  0.6429  0.6317  1.0563
 2549SOL     OW 7978   4.926   3.208   2.667  0.1884 -0.1644 -0.3144
 2549SOL    HW1 7979   5.018   3.189   2.687  0.3468 -0.0349 -0.9089
 2549SOL    HW2 7980   4.884   3.122   2.665  0.0518 -0.1420  1.1234
 2550SOL     OW 7981   3.195   5.554   0.435  0.0866  0.2609  1.0801
 2550SOL    HW1 7982   3.139   5.534   0.510  1.0864  0.4322  1.8757
 2550SOL    HW2 7983   3.228   5.468   0.407 -1.2161  0.0597  0.0774
 2551SOL     OW 7984   3.805   4.624   0.447 -0.3677  0.7500  0.2720
 2551SOL    HW1 7985   3.724   4.669   0.469 -0.6625  0.4447 -0.1825
 2551SOL    HW2 7986   3.845   4.678   0.379 -0.1859  0.9054  0.5022
 2552SOL     OW 7987   1.756   5.298   1.468  0.0078  0.7240  0.2079
 2552SOL    HW1 7988   1.777   5.352   1.544 -0.0390  1.2739 -0.1704
 2552SOL    HW2 7989   1.788   5.348   1.393  0.0276  0.1958 -0.1366
 2553SOL     OW 7990   2.959   2.887   2.444  0.2613  0.1888  0.3553
 2553SOL    HW1 7991   2.903   2.829   2.494 -0.0543 -0.0556 -0.2690
 2553SOL    HW2 7992   3.003   2.941   2.509  1.1594 -1.2838  0.9777
 2554SOL     OW 7993   5.296   0.195   4.538  0.0590  0.9273  0.2957
 2554SOL    HW1 7994   5.390   0.193   4.518 -0.3769  1.2437 -1.9155
 2554SOL    HW2 7995   5.284   0.275   4.588  0.8626  1.2765 -0.0591
 2555SOL     OW 7996   2.512   0.960   0.675 -0.0485 -0.4908 -0.0477
 2555SOL    HW1 7997   2.582   1.013   0.636 -0.1283  0.5832  1.2230
 2555SOL    HW2 7998   2.459   1.023   0.723 -1.0373 -1.5229  0.2338
 2556SOL     OW 7999   5.290   0.062   2.907  0.1847  0.5419  0.2711
 2556SOL    HW1 8000   5.363   0.124   2.903 -0.8178  1.8589  1.6550
 2556SOL    HW2 8001   5.212   0.117   2.898 -0.7922 -0.2932  3.0993
 2557SOL     OW 8002   1.521   5.116   4.290 -0.0067  0.6305  0.2143
 2557SOL    HW1 8003   1.426   5.113   4.279  0.1420  1.6380 -1.5762
 2557SOL    HW2 8004   1.548   5.195   4.243  1.7271  0.3168  0.6356
 2558SOL     OW 8005   2.272   1.702   5.117  0.0075  0.4374  0.2650
 2558SOL    HW1 8006   2.272   1.760   5.041  0.7457 -0.8832 -0.7602
 2558SOL    HW2 8007   2.364   1.691   5.139 -0.0751 -0.8714  0.0277
 2559SOL     OW 8008   4.389   1.356   1.129  0.6345  0.3339  0.7726
 2559SOL    HW1 8009   4.395   1.423   1.197  1.1180  0.1594  0.9074
 2559SOL    HW2 8010   4.385   1.405   1.047 -1.1316  0.5731  0.9884
 2560SOL     OW 8011   4.006   3.174   2.867 -0.1676 -0.0364 -0.1648
 2560SOL    HW1 8012   4.099   3.181   2.845  0.3374  2.3103  2.4401
 2560SOL    HW2 8013   3.966   3.247   2.820 -0.1996  0.7531  1.0803
 2561SOL     OW 8014   5.215   1.842   0.652 -0.1018  0.0553 -0.8990
 2561SOL    HW1 8015   5.204   1.825   0.746 -0.6207  0.4983 -0.8768
 2561SOL    HW2 8016   5.296   1.796   0.628  1.4695  2.0579  0.3263
 2562SOL     OW 8017   1.944   0.221   0.177  0.5599  0.3849 -0.0434
 2562SOL    HW1 8018   1.885   0.146   0.172  0.6457  0.3379 -0.4045
 2562SOL    HW2 8019   1.891   0.296   0.148  1.0043  0.1458 -1.5294
 2563SOL     OW 8020   4.122   1.784   3.184 -0.4682  0.3550 -0.1185
 2563SOL    HW1 8021   4.062   1.711   3.165 -0.1516  0.0359  0.0964
 2563SOL    HW2 8022   4.070   1.863   3.169 -1.3438  0.0741  1.3775
 2564SOL     OW 8023   2.263   1.982   5.394 -0.0200 -0.5899  0.5064
 2564SOL    HW1 8024   2.350   2.017   5.372 -0.1477 -0.6223 -0.0364
 2564SOL    HW2 8025   2.214   2.059   5.425 -0.4708 -0.1858 -1.1908
 2565SOL     OW 8026   0.821   2.695   4.784  0.8201 -0.3290  0.4220
 2565SOL    HW1 8027   0.732   2.665   4.799  0.3265 -0.1617 -2.0421
 2565SOL    HW2 8028   0.871   2.659   4.857 -0.7859 -2.4750  0.5037
 2566SOL     OW 8029   2.675   1.008   4.796  0.8829 -0.6783  0.0068
 2566SOL    HW1 8030   2.684   0.957   4.716  0.1785  0.5494 -0.8648
 2566SOL    HW2 8031   2.746   1.072   4.792  0.2974 -0.0384 -0.0581
 2567SOL     OW 8032   0.401   4.234   2.575 -0.1268 -0.5833  0.0727
 2567SOL    HW1 8033   0.378   4.169   2.641 -0.1018  0.3253  0.9928
 2567SOL    HW2 8034   0.469   4.193   2.522  0.2037 -1.1359  0.9238
 2568SOL     OW 8035   1.500   3.670   3.382 -0.5747 -0.0466  0.2666
 2568SOL    HW1 8036   1.514   3.640   3.472  0.2024 -0.5362 -0.0120
 2568SOL    HW2 8037   1.413   3.709   3.383 -1.8223 -2.7473  0.5291
 2569SOL     OW 8038   4.052   4.771   2.708  0.1800  0.9267  0.0547
 2569SOL    HW1 8039   4.030   4.862   2.691  1.0436  1.0582 -0.3606
 2569SOL    HW2 8040   4.135   4.774   2.755  0.0211  0.3737  0.3777
 2570SOL     OW 8041   4.270   4.289   3.821  0.2277  0.4926  0.5245
 2570SOL    HW1 8042   4.285   4.315   3.730  0.3020  0.1559  0.4420
 2570SOL    HW2 8043   4.312   4.204   3.829  0.6984  0.7747  1.0246
 2571SOL     OW 8044   3.952   4.145   3.051  0.4222  0.5503  0.0393
 2571SOL    HW1 8045   4.010   4.146   3.128  0.8356  1.9062 -0.2766
 2571SOL    HW2 8046   3.975   4.224   3.003 -1.0671  0.6312 -0.5681
 2572SOL     OW 8047   3.118   2.482   4.747  0.1598  0.1215 -0.2737
 2572SOL    HW1 8048   3.101   2.536   4.825 -0.3008  0.7013 -0.7679
 2572SOL    HW2 8049   3.047   2.419   4.745  1.6649 -1.7023  1.3104
 2573SOL     OW 8050   4.361   4.602   0.071 -0.1178  0.1644  0.3666
 2573SOL    HW1 8051   4.363   4.608   0.167  1.7578 -0.1548  0.3712
 2573SOL    HW2 8052   4.334   4.511   0.053 -1.1397  0.4232  0.5796
 2574SOL     OW 8053   1.296   2.521   2.739  0.1211  0.3142 -0.1236
 2574SOL    HW1 8054   1.262   2.526   2.828 -0.1671  0.8213 -0.2641
 2574SOL    HW2 8055   1.227   2.558   2.684  0.4122  0.2615 -0.5300
 2575SOL     OW 8056   1.505   2.275   0.196 -0.0361 -0.2259  0.3793
 2575SOL    HW1 8057   1.586   2.311   0.231  1.0770 -1.3852 -0.9443
 2575SOL    HW2 8058   1.464   2.349   0.150  0.7568  0.1228  0.2196
 2576SOL     OW 8059   1.452   3.637   1.829  0.2327 -0.1772 -0.4439
 2576SOL    HW1 8060   1.520   3.677   1.884 -0.0688 -0.1308 -0.1074
 2576SOL    HW2 8061   1.451   3.692   1.750  1.0083 -0.5377 -0.7154
 2577SOL     OW 8062   3.230   0.731   0.000  0.3485 -0.0421 -0.0810
 2577SOL    HW1 8063   3.151   0.733  -0.055  0.9152  1.9815 -0.8646
 2577SOL    HW2 8064   3.262   0.641  -0.007 -0.4708 -0.2174 -1.8309
 2578SOL     OW 8065   2.482   3.030   5.025 -0.3806  0.1966 -0.2190
 2578SOL    HW1 8066   2.461   2.949   4.977 -1.1524  0.5116 -0.4275
 2578SOL    HW2 8067   2.551   3.071   4.973 -1.3275  0.6158 -1.1701
 2579SOL     OW 8068   0.980   2.107   2.426  0.3283  0.1257 -0.0284
 2579SOL    HW1 8069   0.957   2.034   2.483  1.4875 -0.6200 -0.4956
 2579SOL    HW2 8070   1.064   2.138   2.458  0.2255  0.7343 -0.3369
 2580SOL     OW 8071   2.800   5.558   1.215 -0.1696 -0.0439 -0.3055
 2580SOL    HW1 8072   2.778   5.542   1.307 -1.1129  0.3477 -0.4556
 2580SOL    HW2 8073   2.866   5.492   1.194  0.6884  0.4143  0.8943
 2581SOL     OW 8074   1.410   3.498   4.723 -0.1677  0.1207 -0.3567
 2581SOL    HW1 8075   1.346   3.434   4.752 -1.5915  1.6365 -0.0652
 2581SOL    HW2 8076   1.480   3.446   4.683 -1.5867 -1.5621 -0.7052
 2582SOL     OW 8077   3.225   4.166   3.210  0.0462 -0.0159 -0.0404
 2582SOL    HW1 8078   3.248   4.073   3.204  0.3757  0.0817 -0.3319
 2582SOL    HW2 8079   3.168   4.172   3.287 -2.3911 -0.9361 -1.7070
 2583SOL     OW 8080   0.774   2.021   2.276  0.4739  0.2589  0.0541
 2583SOL    HW1 8081   0.774   1.926   2.265  0.3363  0.2541  0.0953
 2583SOL    HW2 8082   0.863   2.042   2.303  1.2242  0.4125 -2.3926
 2584SOL     OW 8083   1.213   1.997   4.635 -0.3590 -0.8621 -0.4475
 2584SOL    HW1 8084   1.118   1.993   4.643 -0.2636 -1.7614  0.3356
 2584SOL    HW2 8085   1.229   2.017   4.542 -1.3170  0.2408 -0.3937
 2585SOL     OW 8086   5.198   4.723   3.324  0.1879  0.5266 -0.1068
 2585SOL    HW1 8087   5.161   4.752   3.407 -1.4621 -1.8717  0.0459
 2585SOL    HW2 8088   5.274   4.670   3.348 -0.0042  0.2271 -0.1645
 2586SOL     OW 8089   2.800   0.072   4.236 -0.2865  0.7432  0.3409
 2586SOL    HW1 8090   2.712   0.099   4.211 -0.8725 -0.5470  0.9638
 2586SOL    HW2 8091   2.846   0.154   4.253 -1.0826  1.4585 -0.9223
 2587SOL     OW 8092   2.175   5.511   4.399 -0.0575 -0.4770  0.2683
 2587SOL    HW1 8093   2.126   5.512   4.481 -0.3453 -1.0652  0.1047
 2587SOL    HW2 8094   2.265   5.495   4.425 -0.0979 -0.3436  0.4942
 2588SOL     OW 8095   5.208   3.724   2.313 -0.0204  0.2144  0.4394
 2588SOL    HW1 8096   5.245   3.812   2.326  0.2245  0.2855 -0.6966
 2588SOL    HW2 8097   5.209   3.712   2.218 -0.1596 -0.9800  0.5892
 2589SOL     OW 8098   4.833   4.075   3.486  0.3191 -0.3156  0.6141
 2589SOL    HW1 8099   4.797   4.126   3.413 -0.0884 -0.0206  1.0217
 2589SOL    HW2 8100   4.924   4.106   3.494  0.3199 -0.2396  0.3362
 2590SOL     OW 8101   1.854   2.656   1.920  0.1775  0.3565  0.0136
 2590SOL    HW1 8102   1.909   2.578   1.915  0.9298  0.6938  2.4151
 2590SOL    HW2 8103   1.816   2.653   2.008 -0.2893  2.3494 -0.0905
 2591SOL     OW 8104   3.240   4.915   0.415  0.7186  0.1831 -0.0906
 2591SOL    HW1 8105   3.290   4.860   0.475  0.7668 -0.1600 -0.4470
 2591SOL    HW2 8106   3.195   4.854   0.357 -1.5914  0.4122  1.3939
 2592SOL     OW 8107   5.411   3.912   2.857  0.3656  0.0608  0.3827
 2592SOL    HW1 8108   5.319   3.931   2.873 -0.1260  0.6943 -2.9610
 2592SOL    HW2 8109   5.411   3.840   2.794  2.1833 -0.8956  1.4342
 2593SOL     OW 8110   1.200   0.144   1.015 -0.3245  0.3119 -0.1792
 2593SOL    HW1 8111   1.291   0.120   1.031 -0.6069 -0.8696 -0.2611
 2593SOL    HW2 8112   1.202   0.194   0.933  0.0580 -1.1194 -1.0586
 2594SOL     OW 8113   1.335   0.317   0.480  0.1445 -0.2616 -0.3641
 2594SOL    HW1 8114   1.255   0.266   0.495  0.3920 -0.5578 -0.0399
 2594SOL    HW2 8115   1.331   0.387   0.545  0.1802 -0.3144 -0.3049
 2595SOL     OW 8116   2.729   1.046   3.319 -0.2014  0.1277 -0.4874
 2595SOL    HW1 8117   2.694   0.969   3.363  2.7705 -0.2571  1.4052
 2595SOL    HW2 8118   2.707   1.034   3.227 -2.0932 -1.6470  0.1754
 2596SOL     OW 8119   0.051   3.908   3.480 -0.3465  0.2384  0.2097
 2596SOL    HW1 8120  -0.002   3.833   3.454 -0.5141  0.4648 -0.1034
 2596SOL    HW2 8121   0.134   3.870   3.510 -0.1583 -0.0234 -0.6300
 2597SOL     OW 8122   1.142   0.206   1.366 -0.0461 -0.4096 -0.3687
 2597SOL    HW1 8123   1.218   0.155   1.337  1.4989  0.6962  1.6143
 2597SOL    HW2 8124   1.143   0.284   1.310 -0.0769 -0.6830 -0.7509
 2598SOL     OW 8125   4.956   2.978   3.835 -0.4018  0.0994  0.2461
 2598SOL    HW1 8126   4.998   2.932   3.908 -1.5606  1.2427  1.6817
 2598SOL    HW2 8127   5.015   3.050   3.815 -0.2128 -0.0554  0.2444
 2599SOL     OW 8128   0.977   1.284   1.937  0.0687 -0.5483  0.3326
 2599SOL    HW1 8129   0.961   1.218   2.005 -0.8352 -1.0085 -0.3105
 2599SOL    HW2 8130   0.892   1.295   1.894  0.3018  0.7811  0.1947
 2600SOL     OW 8131   2.273   3.187   2.806  0.0188  0.0359 -0.4282
 2600SOL    HW1 8132   2.361   3.211   2.835 -0.0151  0.3734 -0.6003
 2600SOL    HW2 8133   2.281   3.095   2.781  0.1646 -0.1245  0.1837
 2601SOL     OW 8134   1.385   4.023   5.302 -0.1507  0.5924  0.3089
 2601SOL    HW1 8135   1.321   4.091   5.323  1.8910  2.9899 -0.9111
 2601SOL    HW2 8136   1.355   3.987   5.218  0.0000  1.6400 -0.2092
 2602SOL     OW 8137   4.074   0.270   5.544 -0.2560 -0.1105 -0.2036
 2602SOL    HW1 8138   4.065   0.354   5.589  0.9416  0.6852 -1.4073
 2602SOL    HW2 8139   4.022   0.209   5.596 -2.5545  1.7308 -0.2651
 2603SOL     OW 8140   1.005   1.320   0.478 -0.0056 -0.2226 -0.3283
 2603SOL    HW1 8141   1.100   1.322   0.489 -0.2580 -3.2539  3.8574
 2603SOL    HW2 8142   0.990   1.243   0.423 -0.0336  0.8179 -1.8031
 2604SOL     OW 8143   4.434   2.055   5.378  0.1854  0.4912 -0.7887
 2604SOL    HW1 8144   4.491   2.072   5.452  1.3973  1.0432 -1.8200
 2604SOL    HW2 8145   4.416   1.961   5.382 -0.5461  0.6887  0.7420
 2605SOL     OW 8146   2.200   3.732   0.666  0.1546 -0.1532  0.0487
 2605SOL    HW1 8147   2.205   3.655   0.724  1.6091  1.2107  1.7937
 2605SOL    HW2 8148   2.164   3.801   0.721  0.5960  0.9080 -0.9898
 2606SOL     OW 8149   5.557   3.419   4.647 -0.3252 -0.2290 -0.0339
 2606SOL    HW1 8150   5.494   3.422   4.575 -0.8678 -1.0436  0.4053
 2606SOL    HW2 8151   5.637   3.459   4.611 -0.4434 -1.0713 -1.2305
 2607SOL     OW 8152   1.256   3.059   3.175  0.5232 -0.2666  0.3189
 2607SOL    HW1 8153   1.319   2.990   3.194  0.7803 -0.9002 -2.4923
 2607SOL    HW2 8154   1.306   3.124   3.126 -0.1051  1.1445  1.5167
 2608SOL     OW 8155   2.847   2.842   3.586  0.1630  0.0229 -0.5648
 2608SOL    HW1 8156   2.817   2.755   3.561 -0.0860  0.3471 -1.4117
 2608SOL    HW2 8157   2.939   2.830   3.610  0.4725 -0.2654 -1.8397
 2609SOL     OW 8158   0.241   5.128   3.911  0.4383  0.3378  0.2728
 2609SOL    HW1 8159   0.275   5.054   3.861 -2.5644 -0.8419 -0.1298
 2609SOL    HW2 8160   0.193   5.088   3.984 -0.2194  1.8989  0.7188
 2610SOL     OW 8161   0.762   0.401   3.280  0.3128 -0.1566 -0.2560
 2610SOL    HW1 8162   0.809   0.437   3.205  0.2420 -0.9727 -0.7005
 2610SOL    HW2 8163   0.749   0.309   3.258  1.7382 -0.7993  1.4595
 2611SOL     OW 8164   2.227   2.503   0.641 -0.4044 -0.4719  0.0449
 2611SOL    HW1 8165   2.141   2.493   0.600  0.3555  1.2319 -2.0506
 2611SOL    HW2 8166   2.209   2.492   0.735 -2.8009 -0.7779 -0.3980
 2612SOL     OW 8167   1.530   3.996   0.960 -0.3352  0.1931 -0.1730
 2612SOL    HW1 8168   1.575   3.952   1.032  0.5730 -0.6381 -1.2412
 2612SOL    HW2 8169   1.506   4.082   0.995  1.3982  0.3482  0.6474
 2613SOL     OW 8170   1.067   3.259   0.581 -0.3353  0.0070  0.1124
 2613SOL    HW1 8171   1.092   3.325   0.516 -2.2106  0.9479  0.3172
 2613SOL    HW2 8172   1.138   3.195   0.579  0.3410  0.7896 -1.8088
 2614SOL     OW 8173   4.829   1.110   0.862 -0.4007 -0.2324  0.0363
 2614SOL    HW1 8174   4.773   1.178   0.901  0.7604  0.3735  0.6707
 2614SOL    HW2 8175   4.835   1.043   0.930  0.4487  0.1559  0.3412
 2615SOL     OW 8176   3.751   0.294   2.879 -0.0331  0.2878  0.4774
 2615SOL    HW1 8177   3.842   0.281   2.854 -0.3369 -0.8559 -0.0266
 2615SOL    HW2 8178   3.734   0.386   2.858  0.8441  0.3634  0.0733
 2616SOL     OW 8179   3.490   5.288   1.203 -0.0434  0.4167 -0.8040
 2616SOL    HW1 8180   3.409   5.255   1.241 -0.1795  1.2454 -0.3716
 2616SOL    HW2 8181   3.517   5.358   1.262  0.9837  0.1494 -0.9465
 2617SOL     OW 8182   5.453   2.099   1.818 -0.2126  0.8825  0.1309
 2617SOL    HW1 8183   5.461   2.012   1.779  1.1225 -0.1322  2.5466
 2617SOL    HW2 8184   5.361   2.108   1.840 -0.0211 -0.7767  1.7081
 2618SOL     OW 8185   4.454   0.373   0.658 -0.1287  0.0484  0.0611
 2618SOL    HW1 8186   4.525   0.367   0.722  1.3917 -0.5309 -1.6211
 2618SOL    HW2 8187   4.487   0.325   0.582 -2.4262 -0.4178 -0.6769
 2619SOL     OW 8188   4.023   0.145   3.580 -0.2183 -0.0220  0.3608
 2619SOL    HW1 8189   4.091   0.111   3.638 -0.6604  0.3377  1.0986
 2619SOL    HW2 8190   3.961   0.073   3.571  0.2779 -0.3610 -0.3378
 2620SOL     OW 8191   4.703   1.530   1.791 -0.0166 -0.0251 -0.3027
 2620SOL    HW1 8192   4.609   1.516   1.797  0.1405 -0.7928  0.5291
 2620SOL    HW2 8193   4.724   1.584   1.867  0.5212 -1.6672  0.7668
 2621SOL     OW 8194   5.571   1.576   1.035  0.4185 -0.4681  0.2003
 2621SOL    HW1 8195   5.613   1.612   0.957  0.5461  1.1621  1.0020
 2621SOL    HW2 8196   5.499   1.522   1.001  0.5610  0.1095 -1.0375
 2622SOL     OW 8197   2.217   0.890   2.882 -0.4813 -0.3111  0.1090
 2622SOL    HW1 8198   2.174   0.971   2.909  0.1483  0.4132 -1.0243
 2622SOL    HW2 8199   2.251   0.852   2.963  1.1557  1.6790  0.3851
 2623SOL     OW 8200   1.024   3.709   0.379  0.3729  0.1151  0.2965
 2623SOL    HW1 8201   1.034   3.632   0.323  0.1449  0.7760 -0.6726
 2623SOL    HW2 8202   0.952   3.688   0.437 -1.6347  0.7209 -1.9129
 2624SOL     OW 8203   2.149   1.673   0.460  0.8948 -0.3905 -0.0652
 2624SOL    HW1 8204   2.080   1.730   0.428  0.9834 -0.4544 -0.3819
 2624SOL    HW2 8205   2.192   1.641   0.380  1.4814 -0.1116  0.1355
 2625SOL     OW 8206   4.957   5.194   0.917  0.1830 -0.2463 -0.4551
 2625SOL    HW1 8207   4.929   5.239   0.838 -0.6563  0.1769  0.0824
 2625SOL    HW2 8208   4.980   5.264   0.978  2.3033 -0.5728 -0.8341
 2626SOL     OW 8209   4.101   1.544   2.806  0.4105 -0.5885  0.0031
 2626SOL    HW1 8210   4.008   1.562   2.796  0.2685 -1.8762 -1.1797
 2626SOL    HW2 8211   4.105   1.450   2.825  1.3837 -0.2676  1.4137
 2627SOL     OW 8212   0.217   0.483   2.577  0.9952 -0.1112  0.2688
 2627SOL    HW1 8213   0.168   0.560   2.604  0.2434 -0.6884  0.5651
 2627SOL    HW2 8214   0.241   0.500   2.486  0.3305  0.2189  0.1574
 2628SOL     OW 8215   5.396   1.573   4.515 -0.1561  0.2290  0.6241
 2628SOL    HW1 8216   5.410   1.496   4.459  0.6477  0.5052  0.4448
 2628SOL    HW2 8217   5.301   1.575   4.529 -0.2704 -0.3287 -0.0385
 2629SOL     OW 8218   2.335   0.002   2.055 -0.7991 -0.1984 -0.0279
 2629SOL    HW1 8219   2.243   0.024   2.070 -0.7048  0.3789 -0.2649
 2629SOL    HW2 8220   2.355  -0.066   2.120 -1.5503 -0.7349 -0.3601
 2630SOL     OW 8221   5.404   4.202   1.490  0.0046  0.0960 -0.2701
 2630SOL    HW1 8222   5.325   4.167   1.532  0.6784 -0.4917  0.5117
 2630SOL    HW2 8223   5.393   4.297   1.494  0.0918  0.0509  1.3099
 2631SOL     OW 8224   2.843   4.718   5.561 -0.1067 -0.1760  0.5941
 2631SOL    HW1 8225   2.852   4.623   5.552 -1.5541 -0.0459 -2.8513
 2631SOL    HW2 8226   2.927   4.753   5.531  0.6202 -0.3618  2.3667
 2632SOL     OW 8227   2.683   4.234   1.260  0.5016 -0.6843 -0.2711
 2632SOL    HW1 8228   2.759   4.183   1.290  1.1395 -0.2966 -1.2284
 2632SOL    HW2 8229   2.718   4.321   1.242 -0.3977 -0.1843  0.3838
 2633SOL     OW 8230   1.265   1.563   1.329 -0.0379 -0.4768  0.0675
 2633SOL    HW1 8231   1.307   1.646   1.307  0.0516 -0.2154  1.1876
 2633SOL    HW2 8232   1.205   1.547   1.257  2.5008 -1.2363 -1.9589
 2634SOL     OW 8233   0.593   3.028   0.553 -0.2497  0.3157 -0.3548
 2634SOL    HW1 8234   0.664   3.030   0.617  0.6572  0.7495 -1.3776
 2634SOL    HW2 8235   0.530   2.965   0.590  0.5426  0.1093  0.6642
 2635SOL     OW 8236   3.762   4.261   0.403 -0.4219  0.4455 -0.1821
 2635SOL    HW1 8237   3.762   4.348   0.363  1.6043  1.0755  1.1510
 2635SOL    HW2 8238   3.756   4.201   0.328 -1.1856  1.7052 -1.1478
 2636SOL     OW 8239   4.661   5.378   0.618  0.9196 -0.5028 -0.3431
 2636SOL    HW1 8240   4.616   5.307   0.573  1.5365 -1.8040  1.0658
 2636SOL    HW2 8241   4.590   5.432   0.655  0.4341  0.0778 -2.0472
 2637SOL     OW 8242   2.017   3.984   2.399  0.4394 -0.2250 -0.0261
 2637SOL    HW1 8243   2.100   4.031   2.408  0.8775 -1.1900  1.1228
 2637SOL    HW2 8244   2.035   3.915   2.335  0.4089 -0.1850 -0.0779
 2638SOL     OW 8245   1.140   4.758   2.930  0.7519  0.5444  0.2772
 2638SOL    HW1 8246   1.126   4.666   2.951 -0.9954  0.3934 -1.4612
 2638SOL    HW2 8247   1.069   4.804   2.973 -0.1980  0.7231 -1.4505
 2639SOL     OW 8248   5.333   5.067   2.402  0.0432 -0.1516 -0.0679
 2639SOL    HW1 8249   5.390   5.006   2.449 -0.3125 -0.5503 -0.1599
 2639SOL    HW2 8250   5.364   5.063   2.311 -0.4148 -0.6907 -0.1991
 2640SOL     OW 8251   2.194   2.034   2.294 -0.0026 -0.0156  0.3373
 2640SOL    HW1 8252   2.190   1.987   2.377 -0.0388  0.9161  0.8753
 2640SOL    HW2 8253   2.287   2.042   2.275 -0.0342 -3.3710 -1.5530
 2641SOL     OW 8254   5.453   5.393   0.633 -0.5648 -0.3050 -0.5070
 2641SOL    HW1 8255   5.451   5.338   0.554  0.4462  0.5582 -1.1460
 2641SOL    HW2 8256   5.365   5.386   0.669 -1.9229  1.5939 -3.3188
 2642SOL     OW 8257   3.550   0.817   1.340  0.0414 -0.1925 -0.2324
 2642SOL    HW1 8258   3.637   0.848   1.365 -0.4952  0.6198  0.6639
 2642SOL    HW2 8259   3.507   0.894   1.302 -0.8823 -0.1270  0.9051
 2643SOL     OW 8260   3.949   4.262   3.493  0.0312  0.1287  0.0769
 2643SOL    HW1 8261   3.866   4.226   3.523  0.4573 -1.3624 -0.4681
 2643SOL    HW2 8262   3.982   4.197   3.430  1.5916  0.6913  0.2808
 2644SOL     OW 8263   4.778   1.447   5.091 -0.2918 -0.1271  0.4954
 2644SOL    HW1 8264   4.692   1.405   5.086 -0.2748 -0.1457  0.3431
 2644SOL    HW2 8265   4.802   1.463   4.999 -0.9431  1.5556  0.6052
 2645SOL     OW 8266   0.319   4.189   4.065 -0.2801 -0.0346 -0.3516
 2645SOL    HW1 8267   0.414   4.188   4.057 -0.3448 -1.7019 -1.3944
 2645SOL    HW2 8268   0.297   4.106   4.108 -1.1719  1.0080  1.2437
 2646SOL     OW 8269   1.350   5.225   2.919  0.4083  0.5130 -0.3939
 2646SOL    HW1 8270   1.387   5.148   2.875 -0.6067 -0.5739  0.6317
 2646SOL    HW2 8271   1.419   5.255   2.978  0.9585  0.6640 -1.0933
 2647SOL     OW 8272   3.135   4.583   4.035  0.4436  0.0910  0.5700
 2647SOL    HW1 8273   3.201   4.636   3.990 -0.2097  1.1794  0.8921
 2647SOL    HW2 8274   3.053   4.629   4.022 -0.2932 -1.3343  0.0743
 2648SOL     OW 8275   3.646   2.948   1.504 -0.0915  0.1114 -0.4517
 2648SOL    HW1 8276   3.633   2.889   1.578  2.5912 -0.2478 -0.2508
 2648SOL    HW2 8277   3.633   2.893   1.427 -1.0225  0.0752 -0.2858
 2649SOL     OW 8278   0.192   2.271   0.111 -0.0909  0.3560 -0.3065
 2649SOL    HW1 8279   0.152   2.292   0.195 -0.3074  2.7675 -0.9941
 2649SOL    HW2 8280   0.146   2.325   0.047  0.5133 -0.9605 -1.9087
 2650SOL     OW 8281   0.782   4.404   4.275  0.0986 -0.0966 -0.1847
 2650SOL    HW1 8282   0.786   4.500   4.274 -0.1075 -0.0920 -0.9053
 2650SOL    HW2 8283   0.696   4.384   4.313  0.7205 -0.0184  1.3008
 2651SOL     OW 8284   3.067   1.432   3.902  0.0958  0.2051 -0.3517
 2651SOL    HW1 8285   3.045   1.496   3.834 -0.6344  0.6901  0.3242
 2651SOL    HW2 8286   3.076   1.485   3.982 -0.9001 -0.5629  0.2882
 2652SOL     OW 8287   2.084   1.129   1.701  0.1282 -0.2103  0.0733
 2652SOL    HW1 8288   2.105   1.130   1.608 -1.6085 -1.2364 -0.3490
 2652SOL    HW2 8289   2.042   1.045   1.716  1.4392 -0.5557  2.0461
 2653SOL     OW 8290   0.373   0.963   2.522 -0.0453 -0.2186 -0.1016
 2653SOL    HW1 8291   0.280   0.962   2.497 -0.4162 -1.4432  1.2328
 2653SOL    HW2 8292   0.383   1.045   2.570 -0.9970 -1.0842  1.6480
 2654SOL     OW 8293   5.109   5.390   2.005 -0.4304 -0.5715  0.2101
 2654SOL    HW1 8294   5.067   5.469   1.971  0.4690 -0.4673 -0.6871
 2654SOL    HW2 8295   5.113   5.331   1.930  0.6876 -0.7139  0.3771
 2655SOL     OW 8296   5.279   4.545   2.588  0.2884 -0.3192  0.3010
 2655SOL    HW1 8297   5.252   4.637   2.599  3.1165  0.7014 -0.7834
 2655SOL    HW2 8298   5.298   4.515   2.677  0.1579  0.4130  0.5825
 2656SOL     OW 8299   1.303   3.436   2.389 -0.6185  0.1146  0.9323
 2656SOL    HW1 8300   1.277   3.359   2.438  0.3190 -1.8038 -1.4659
 2656SOL    HW2 8301   1.399   3.432   2.386 -0.4388  2.3650  2.2996
 2657SOL     OW 8302   3.218   3.104   2.330 -0.0100 -0.3549 -0.3325
 2657SOL    HW1 8303   3.308   3.073   2.315  0.0125  0.6661 -2.4422
 2657SOL    HW2 8304   3.172   3.083   2.248 -1.5081 -0.1693  0.4487
 2658SOL     OW 8305   5.538   2.466   3.992  0.3265 -0.0148 -0.0303
 2658SOL    HW1 8306   5.539   2.395   3.927  0.7420 -1.1083  1.1407
 2658SOL    HW2 8307   5.629   2.474   4.020  0.0806  0.1576  0.7269
 2659SOL     OW 8308   4.688   3.064   3.818  0.3047  0.1983  0.0595
 2659SOL    HW1 8309   4.682   3.078   3.724 -0.2714 -1.9289 -0.2648
 2659SOL    HW2 8310   4.769   3.014   3.830 -0.5296 -1.1197  0.4456
 2660SOL     OW 8311   2.195   5.078   0.606  0.0566  0.2943 -0.2988
 2660SOL    HW1 8312   2.135   5.020   0.652 -0.7040  0.6448 -0.8365
 2660SOL    HW2 8313   2.171   5.166   0.634 -0.3795  0.5090 -1.3052
 2661SOL     OW 8314   3.630   3.748   1.906  0.5224  0.2550 -0.3991
 2661SOL    HW1 8315   3.635   3.659   1.941  1.3705  0.5095  0.1399
 2661SOL    HW2 8316   3.553   3.786   1.948  0.8925  0.1861  0.3507
 2662SOL     OW 8317   4.985   3.057   0.604 -0.2333  0.2490  0.1691
 2662SOL    HW1 8318   4.950   3.050   0.693  1.4425 -0.4715  0.8023
 2662SOL    HW2 8319   5.045   3.131   0.607 -1.8168  1.6146 -0.9621
 2663SOL     OW 8320   1.120   0.430   1.159 -1.3433  0.0068 -0.1340
 2663SOL    HW1 8321   1.104   0.358   1.098  1.5428 -0.6181 -0.2495
 2663SOL    HW2 8322   1.081   0.506   1.117 -2.1893 -1.0246 -1.2469
 2664SOL     OW 8323   3.222   0.611   1.902  0.0281  0.5578  0.2699
 2664SOL    HW1 8324   3.197   0.648   1.818 -2.1327 -0.1692  0.5583
 2664SOL    HW2 8325   3.317   0.616   1.904  0.0116  1.7970 -1.6460
 2665SOL     OW 8326   1.651   4.842   4.689 -0.2253  0.9640  0.3872
 2665SOL    HW1 8327   1.638   4.935   4.670 -0.1917  0.5822 -1.5351
 2665SOL    HW2 8328   1.584   4.798   4.637  0.2004 -0.1402  0.7752
 2666SOL     OW 8329   3.975   4.977   5.437  0.1104  0.2990  0.4010
 2666SOL    HW1 8330   4.056   4.928   5.449  0.8868  1.3696 -0.3853
 2666SOL    HW2 8331   4.003   5.065   5.412 -1.2943  0.6642  0.0562
 2667SOL     OW 8332   5.325   2.731   2.684 -0.0765 -0.0129  0.0908
 2667SOL    HW1 8333   5.388   2.674   2.640 -0.2418  1.1426 -1.6852
 2667SOL    HW2 8334   5.363   2.745   2.771  0.8742 -1.3132 -0.0949
 2668SOL     OW 8335   5.372   4.551   3.430  0.7074 -0.3445 -0.6175
 2668SOL    HW1 8336   5.414   4.617   3.486 -2.5810 -0.2847  1.9376
 2668SOL    HW2 8337   5.365   4.474   3.485 -3.5355  0.0241 -0.4917
 2669SOL     OW 8338   5.114   1.880   4.030 -0.0968  0.2510 -0.6426
 2669SOL    HW1 8339   5.111   1.785   4.041 -1.1490  0.2788 -0.6949
 2669SOL    HW2 8340   5.113   1.914   4.119  0.9802  0.1962 -0.6061
 2670SOL     OW 8341   1.363   1.536   4.617 -0.1961  0.0897  0.1585
 2670SOL    HW1 8342   1.425   1.602   4.587  0.3359 -1.2616 -1.8038
 2670SOL    HW2 8343   1.278   1.581   4.615  0.3528  1.1778  0.4460
 2671SOL     OW 8344   1.287   1.233   0.836 -0.0526  0.2583 -0.3264
 2671SOL    HW1 8345   1.202   1.192   0.822 -0.4113  0.8362  0.1418
 2671SOL    HW2 8346   1.346   1.160   0.853 -0.2948 -0.2004 -1.4255
 2672SOL     OW 8347   4.408   0.225   3.613 -0.3372 -0.3346  0.2545
 2672SOL    HW1 8348   4.371   0.197   3.529 -0.6864  0.2086  0.2207
 2672SOL    HW2 8349   4.358   0.176   3.678 -1.4815  0.7818  0.2295
 2673SOL     OW 8350   3.771   0.456   3.468  0.4194  0.1881  0.0890
 2673SOL    HW1 8351   3.822   0.494   3.397 -1.9477  0.0165 -1.7769
 2673SOL    HW2 8352   3.776   0.362   3.454 -0.1994  0.1602  0.0247
 2674SOL     OW 8353   3.518   1.298   1.920 -0.1232 -1.3238  0.1557
 2674SOL    HW1 8354   3.486   1.387   1.930 -0.1260 -0.9998 -2.4771
 2674SOL    HW2 8355   3.613   1.305   1.935  0.0456 -0.6745 -1.1955
 2675SOL     OW 8356   1.767   4.967   2.940  0.1093 -0.0061 -0.7082
 2675SOL    HW1 8357   1.793   4.915   2.864 -0.7049 -0.4682 -0.6759
 2675SOL    HW2 8358   1.673   4.981   2.929 -0.2005 -0.8534  0.6632
 2676SOL     OW 8359   1.294   4.146   3.099 -0.2156 -0.0736 -0.0805
 2676SOL    HW1 8360   1.364   4.080   3.102 -1.1735 -1.2351 -2.3701
 2676SOL    HW2 8361   1.218   4.101   3.135 -1.1259 -0.5887 -2.5685
 2677SOL     OW 8362   4.654   0.941   1.295  0.1489 -0.2693 -0.6785
 2677SOL    HW1 8363   4.641   0.924   1.388  1.5743 -0.5801 -0.5176
 2677SOL    HW2 8364   4.619   1.030   1.281 -0.8415 -0.5570 -0.0353
 2678SOL     OW 8365   2.483   0.452   4.823 -0.8506 -0.1391 -0.2163
 2678SOL    HW1 8366   2.491   0.539   4.862  0.1251 -0.9676  1.4915
 2678SOL    HW2 8367   2.390   0.431   4.827 -1.0667  0.7738 -0.5092
 2679SOL     OW 8368   3.481   5.201   4.377  0.7178 -0.4884 -0.1137
 2679SOL    HW1 8369   3.552   5.148   4.341 -0.4157 -0.6039 -2.2622
 2679SOL    HW2 8370   3.460   5.264   4.307 -1.6518 -0.8250  0.2454
 2680SOL     OW 8371   0.419   3.042   5.359 -0.5476 -0.0439 -0.1940
 2680SOL    HW1 8372   0.364   3.117   5.382  0.2455  0.5655 -0.2232
 2680SOL    HW2 8373   0.365   2.990   5.299 -1.5072 -0.0785  0.6879
 2681SOL     OW 8374   0.326   4.606   3.650 -0.2266 -0.0698  0.3894
 2681SOL    HW1 8375   0.307   4.513   3.641  0.5570 -0.0729 -1.5078
 2681SOL    HW2 8376   0.330   4.621   3.745  0.4164 -2.1205  0.7051
 2682SOL     OW 8377   5.463   2.621   0.012  0.0666  0.9915 -0.3364
 2682SOL    HW1 8378   5.457   2.600   0.106  2.8825  0.9154 -0.1267
 2682SOL    HW2 8379   5.398   2.564  -0.029 -0.7834  0.5863  1.5128
 2683SOL     OW 8380   3.510   5.488   2.685 -0.2908  0.3167 -0.2573
 2683SOL    HW1 8381   3.573   5.525   2.747 -1.8292  4.1127 -0.8461
 2683SOL    HW2 8382   3.557   5.485   2.602  0.6671 -1.5668  0.3213
 2684SOL     OW 8383   2.315   0.646   2.318 -0.0837 -0.6429 -0.1554
 2684SOL    HW1 8384   2.373   0.720   2.302 -1.6515  0.7192  0.3228
 2684SOL    HW2 8385   2.257   0.643   2.242 -1.0326 -0.3992  0.5484
 2685SOL     OW 8386   5.294   4.602   3.061  0.0055 -0.3943 -0.4000
 2685SOL    HW1 8387   5.347   4.673   3.096 -0.8949  1.0427 -1.8975
 2685SOL    HW2 8388   5.211   4.608   3.108  0.5197 -1.5388  0.6826
 2686SOL     OW 8389   2.505   0.848   2.126  0.6288  0.3403 -0.1981
 2686SOL    HW1 8390   2.559   0.859   2.205  0.4404  2.1672 -0.2971
 2686SOL    HW2 8391   2.566   0.821   2.058  0.8972 -0.6451  0.4288
 2687SOL     OW 8392   2.880   1.646   2.741 -0.2748  0.3289 -0.2519
 2687SOL    HW1 8393   2.831   1.586   2.685 -2.8624  1.2404  0.9529
 2687SOL    HW2 8394   2.828   1.727   2.742  1.4226  1.4481  0.8016
 2688SOL     OW 8395   2.464   3.967   4.612 -0.0277  0.1612 -1.0054
 2688SOL    HW1 8396   2.514   4.045   4.635  0.3068 -0.2326 -0.3711
 2688SOL    HW2 8397   2.531   3.902   4.588 -0.1604 -0.6766  0.7965
 2689SOL     OW 8398   3.616   2.644   0.617 -0.0540 -0.0969 -0.2613
 2689SOL    HW1 8399   3.689   2.660   0.557 -0.0117 -0.1124 -0.2139
 2689SOL    HW2 8400   3.598   2.729   0.657  0.6690 -0.3300  0.5538
 2690SOL     OW 8401   2.657   3.642   4.195 -0.0890 -0.6696 -0.4747
 2690SOL    HW1 8402   2.696   3.597   4.270  1.3680  0.2861 -0.6284
 2690SOL    HW2 8403   2.650   3.575   4.127 -0.9880 -1.4259  0.3537
 2691SOL     OW 8404   1.183   0.313   0.814  0.0125  0.6534 -0.0103
 2691SOL    HW1 8405   1.264   0.362   0.830 -0.1930  1.2981 -0.9419
 2691SOL    HW2 8406   1.126   0.374   0.767  0.1583 -0.7721 -2.1433
 2692SOL     OW 8407   3.358   0.043   0.146 -0.1265 -0.1209 -0.5547
 2692SOL    HW1 8408   3.288  -0.022   0.139  1.3854 -2.0331  1.2030
 2692SOL    HW2 8409   3.354   0.073   0.237  1.4553 -0.4426 -0.3565
 2693SOL     OW 8410   2.481   3.133   0.141  0.4189 -0.3710  0.1146
 2693SOL    HW1 8411   2.395   3.117   0.101 -0.7316  1.9014  1.5858
 2693SOL    HW2 8412   2.543   3.130   0.068 -1.3202  1.2058 -1.4568
 2694SOL     OW 8413   0.020   0.652   0.560  0.5980  0.2898  0.2020
 2694SOL    HW1 8414  -0.039   0.610   0.622 -0.0099 -0.1025 -0.6230
 2694SOL    HW2 8415   0.042   0.583   0.498  1.4376  0.5964  0.1588
 2695SOL     OW 8416   4.820   3.069   0.817 -0.7311  0.0722  0.4929
 2695SOL    HW1 8417   4.784   2.995   0.866  0.1010  0.3014  1.4764
 2695SOL    HW2 8418   4.751   3.095   0.757 -0.8754 -1.7896 -0.1645
 2696SOL     OW 8419   3.229   2.157   2.786 -0.2583 -0.0544 -0.0237
 2696SOL    HW1 8420   3.233   2.098   2.710  0.7903  0.0563 -0.0561
 2696SOL    HW2 8421   3.313   2.201   2.786 -0.0162 -0.5168  1.5825
 2697SOL     OW 8422   0.628   1.544   1.577  0.7689 -1.3806  0.2323
 2697SOL    HW1 8423   0.708   1.569   1.622  1.5220  2.7022 -3.1212
 2697SOL    HW2 8424   0.559   1.560   1.642  2.3085 -1.4780  1.9434
 2698SOL     OW 8425   5.409   0.540   0.721  0.3130  0.0741 -0.0622
 2698SOL    HW1 8426   5.326   0.494   0.730 -0.1689  1.0868  0.8396
 2698SOL    HW2 8427   5.475   0.479   0.753 -0.2440 -0.2337  0.5030
 2699SOL     OW 8428   4.490   1.972   3.982 -0.6021 -0.3880  0.0803
 2699SOL    HW1 8429   4.543   2.044   4.014  0.9539 -0.5502 -2.0604
 2699SOL    HW2 8430   4.518   1.897   4.034 -0.2051 -0.0375  0.3777
 2700SOL     OW 8431   5.107   1.261   4.418 -0.1459  0.0575 -0.2768
 2700SOL    HW1 8432   5.124   1.355   4.422 -1.5521  0.3353 -0.6005
 2700SOL    HW2 8433   5.182   1.225   4.371  0.3805  1.0174 -0.1875
 2701SOL     OW 8434   2.137   2.538   0.946 -0.7224 -0.1249  0.0123
 2701SOL    HW1 8435   2.097   2.622   0.971  2.8499  0.8639  2.8287
 2701SOL    HW2 8436   2.084   2.472   0.990 -1.7746  0.8619  0.2478
 2702SOL     OW 8437   4.256   2.905   2.278 -0.1347 -1.1488  0.2897
 2702SOL    HW1 8438   4.191   2.835   2.264  0.0939 -1.3376  0.1620
 2702SOL    HW2 8439   4.280   2.932   2.190 -0.8332 -0.3365  0.3429
 2703SOL     OW 8440   1.969   4.712   4.869 -0.0226  0.1979 -0.1138
 2703SOL    HW1 8441   2.009   4.676   4.790 -0.1917 -1.2908  0.4690
 2703SOL    HW2 8442   2.042   4.732   4.927  0.1901  2.5913 -1.1703
 2704SOL     OW 8443   4.019   3.148   1.601 -0.3870 -0.5817 -0.2301
 2704SOL    HW1 8444   3.951   3.168   1.537 -0.3678 -0.1523 -0.1163
 2704SOL    HW2 8445   3.978   3.161   1.686 -0.5765 -1.6933 -0.1395
 2705SOL     OW 8446   4.895   1.067   3.609 -0.5669 -0.1449  0.1186
 2705SOL    HW1 8447   4.961   1.111   3.556 -0.9213  0.0459 -0.1670
 2705SOL    HW2 8448   4.927   0.978   3.618 -0.4760 -0.1611 -0.3618
 2706SOL     OW 8449   4.602   5.522   1.449  0.9315 -0.1013 -0.3724
 2706SOL    HW1 8450   4.644   5.576   1.516 -1.2818  1.2379 -0.0377
 2706SOL    HW2 8451   4.561   5.584   1.390 -1.0956 -1.3788 -0.3598
 2707SOL     OW 8452   2.158   3.176   1.828 -0.0063 -0.3359  0.6981
 2707SOL    HW1 8453   2.128   3.087   1.809 -2.0638  0.1433  1.5208
 2707SOL    HW2 8454   2.240   3.164   1.877  0.6066 -1.7266 -0.6395
 2708SOL     OW 8455   1.178   1.370   1.778  0.3595  0.2784  1.3310
 2708SOL    HW1 8456   1.206   1.284   1.745  1.6370  1.2750 -0.3093
 2708SOL    HW2 8457   1.113   1.351   1.845 -0.1600 -1.9408  0.2322
 2709SOL     OW 8458   4.078   2.767   3.313 -0.3279  0.0615 -0.1990
 2709SOL    HW1 8459   4.025   2.766   3.393 -1.8902 -0.0380 -1.2038
 2709SOL    HW2 8460   4.148   2.704   3.330  0.9974  2.0925  2.1429
 2710SOL     OW 8461   1.693   2.468   2.658  0.5173  0.1263 -0.3719
 2710SOL    HW1 8462   1.671   2.399   2.595  1.8539  0.8026 -1.6026
 2710SOL    HW2 8463   1.693   2.424   2.743 -3.8632 -0.2873 -0.4567
 2711SOL     OW 8464   0.021   3.731   0.578  0.1574  0.3177  0.2345
 2711SOL    HW1 8465  -0.060   3.686   0.556  0.0181 -0.0079  1.4076
 2711SOL    HW2 8466  -0.006   3.820   0.601  0.0247 -0.0279  1.4601
 2712SOL     OW 8467   1.284   1.286   2.958 -0.0329  0.4155 -0.0788
 2712SOL    HW1 8468   1.273   1.247   3.044  0.1934  1.7036  0.5526
 2712SOL    HW2 8469   1.212   1.349   2.951 -0.2220  0.1183 -0.9505
 2713SOL     OW 8470   3.709   1.515   3.129 -0.0638  0.2936  1.0180
 2713SOL    HW1 8471   3.654   1.484   3.202  0.8989 -1.0174  1.2113
 2713SOL    HW2 8472   3.647   1.555   3.068 -0.9075  1.3167  2.4981
 2714SOL     OW 8473   3.874   2.294   5.465  0.1657  0.2826  0.6339
 2714SOL    HW1 8474   3.893   2.212   5.419  0.6102  1.1916 -0.7983
 2714SOL    HW2 8475   3.959   2.333   5.483 -0.0459  0.4370  1.3355
 2715SOL     OW 8476   4.352   4.564   2.232  0.0724  0.4520  0.5692
 2715SOL    HW1 8477   4.421   4.627   2.253  2.1514 -2.1948  1.9787
 2715SOL    HW2 8478   4.378   4.527   2.148  0.1038 -0.1897  0.8580
 2716SOL     OW 8479   2.700   4.567   4.130 -0.3104  0.4983  0.0149
 2716SOL    HW1 8480   2.610   4.553   4.101 -0.3322  0.2862  0.1840
 2716SOL    HW2 8481   2.744   4.484   4.112  0.1491  0.9798 -1.1658
 2717SOL     OW 8482   3.248   3.755   4.963  0.5320 -0.5269 -0.5315
 2717SOL    HW1 8483   3.280   3.698   4.893 -1.9426 -0.0380 -2.0944
 2717SOL    HW2 8484   3.318   3.819   4.976  1.7530 -1.6779 -1.3038
 2718SOL     OW 8485   0.605   3.153   0.196  0.0698  0.1517  0.3928
 2718SOL    HW1 8486   0.592   3.212   0.121  1.1667  0.3297  0.3299
 2718SOL    HW2 8487   0.607   3.066   0.157  2.2293  0.3489 -0.0181
 2719SOL     OW 8488   2.316   5.006   1.313 -0.1244 -0.0410  0.3429
 2719SOL    HW1 8489   2.311   5.071   1.384  2.2210  0.8361 -0.2568
 2719SOL    HW2 8490   2.356   4.929   1.354  0.0212  0.0076  0.2932
 2720SOL     OW 8491   4.050   5.087   1.562  0.4129  0.0229 -0.1668
 2720SOL    HW1 8492   4.140   5.091   1.529  0.6816 -1.8033  0.2753
 2720SOL    HW2 8493   4.013   5.010   1.518 -0.6229  0.1945  0.4092
 2721SOL     OW 8494   3.523   4.380   2.993  0.3213 -0.3735  0.3634
 2721SOL    HW1 8495   3.437   4.339   2.989  0.6377 -1.0737  0.6283
 2721SOL    HW2 8496   3.527   4.437   2.916 -0.2987 -0.4872  0.2463
 2722SOL     OW 8497   3.820   5.272   0.257  0.2917 -0.1671  0.0124
 2722SOL    HW1 8498   3.763   5.345   0.283  0.0044 -0.0381 -0.9560
 2722SOL    HW2 8499   3.830   5.220   0.337 -1.4099 -0.3377  0.1355
 2723SOL     OW 8500   3.290   5.456   0.949  0.1716  0.1117  0.2414
 2723SOL    HW1 8501   3.384   5.458   0.964  0.5159 -0.7860 -1.7669
 2723SOL    HW2 8502   3.266   5.364   0.954 -0.2739  0.1408 -1.2682
 2724SOL     OW 8503   2.660   0.202   1.744 -0.1848  0.0394  0.0319
 2724SOL    HW1 8504   2.636   0.294   1.757  0.5111  0.1574  0.5468
 2724SOL    HW2 8505   2.584   0.153   1.775 -0.9525  0.4582 -1.1696
 2725SOL     OW 8506   2.958   4.031   3.703 -0.1263  0.5135 -0.5871
 2725SOL    HW1 8507   2.915   4.046   3.619  0.0441 -0.5286 -0.8734
 2725SOL    HW2 8508   3.010   3.951   3.689 -0.5159  0.0313  0.6695
 2726SOL     OW 8509   2.383   4.734   2.933  0.4528  0.3960 -0.0236
 2726SOL    HW1 8510   2.447   4.736   2.862  1.1387  2.0134  0.6147
 2726SOL    HW2 8511   2.348   4.823   2.935 -1.1961 -0.2473  0.1979
 2727SOL     OW 8512   2.045   3.444   2.230 -0.1497  0.0742  0.1081
 2727SOL    HW1 8513   2.119   3.406   2.182 -0.5413 -0.8353  0.2048
 2727SOL    HW2 8514   2.073   3.532   2.253  0.7676 -0.1454 -0.1654
 2728SOL     OW 8515   4.349   0.427   2.872  0.1643  0.5178  0.8613
 2728SOL    HW1 8516   4.433   0.460   2.839  0.9930 -1.3836  1.0289
 2728SOL    HW2 8517   4.341   0.340   2.835 -2.1625  0.9894  0.1746
 2729SOL     OW 8518   2.599   4.707   3.454  0.7005 -0.0825 -0.6373
 2729SOL    HW1 8519   2.622   4.800   3.458 -0.0672  0.0678  0.3186
 2729SOL    HW2 8520   2.621   4.673   3.541  0.0583 -0.5833 -0.6682
 2730SOL     OW 8521   5.380   0.977   2.324 -0.2554  0.0476  0.5109
 2730SOL    HW1 8522   5.415   0.965   2.236 -2.8528  2.4532 -0.9377
 2730SOL    HW2 8523   5.456   0.999   2.378  1.1560 -0.0043 -1.4280
 2731SOL     OW 8524   0.205   5.246   3.143  0.0517  0.4166 -0.3173
 2731SOL    HW1 8525   0.240   5.264   3.230  1.3545  0.7032 -0.8943
 2731SOL    HW2 8526   0.220   5.327   3.094 -1.6920  0.6577 -0.5005
 2732SOL     OW 8527   4.143   3.397   1.892  0.6281  0.1065  0.0740
 2732SOL    HW1 8528   4.062   3.347   1.883  0.5723  0.3835 -1.0420
 2732SOL    HW2 8529   4.139   3.434   1.981 -0.4027  0.0230  0.0684
 2733SOL     OW 8530   0.349   2.282   3.058 -0.4325 -0.3879 -0.1816
 2733SOL    HW1 8531   0.329   2.253   3.148  0.5460 -0.1058  0.1301
 2733SOL    HW2 8532   0.267   2.320   3.027 -0.9512 -1.0148  0.3848
 2734SOL     OW 8533   3.096   3.877   2.678  0.5292  0.3978 -0.3705
 2734SOL    HW1 8534   3.084   3.960   2.632 -0.2303  0.7773  0.4914
 2734SOL    HW2 8535   3.018   3.826   2.656  0.8908 -0.0050 -0.7243
 2735SOL     OW 8536   3.285   3.165   4.318 -0.1168  0.1479  0.0600
 2735SOL    HW1 8537   3.361   3.215   4.287  0.4311 -0.6882  0.0096
 2735SOL    HW2 8538   3.283   3.088   4.260 -0.0858 -0.5975  1.0350
 2736SOL     OW 8539   4.590   2.095   0.033 -0.2389 -0.0788  0.1790
 2736SOL    HW1 8540   4.618   2.032   0.100  0.2313 -0.4064 -0.3241
 2736SOL    HW2 8541   4.579   2.177   0.081  0.3495 -0.2488  0.6198
 2737SOL     OW 8542   4.079   3.939   0.642  0.2737 -0.4098 -0.1341
 2737SOL    HW1 8543   4.136   4.015   0.636  0.1574 -0.3825 -0.8619
 2737SOL    HW2 8544   4.039   3.931   0.556 -2.6025  0.9429  1.0062
 2738SOL     OW 8545   2.349   3.270   0.417 -0.0442  0.0301  0.2144
 2738SOL    HW1 8546   2.396   3.189   0.400  0.9563  0.6671 -0.0477
 2738SOL    HW2 8547   2.365   3.325   0.340 -1.1197  0.2915  0.1667
 2739SOL     OW 8548   4.554   3.798   3.189  0.0808 -0.1738 -0.1125
 2739SOL    HW1 8549   4.493   3.856   3.144  0.2844 -1.0802 -1.5897
 2739SOL    HW2 8550   4.626   3.787   3.128 -0.3485 -2.6594 -0.2314
 2740SOL     OW 8551   5.002   2.505   5.058  0.2680 -0.2810 -0.2633
 2740SOL    HW1 8552   5.079   2.451   5.040  0.0541 -0.0878 -1.8717
 2740SOL    HW2 8553   4.960   2.462   5.133  1.0217 -1.3771 -0.4485
 2741SOL     OW 8554   3.105   0.153   4.325  0.2981 -0.2654 -0.6774
 2741SOL    HW1 8555   3.110   0.112   4.411  0.8554  0.7774 -0.2055
 2741SOL    HW2 8556   3.031   0.213   4.332  2.3464  2.2526  0.1589
 2742SOL     OW 8557   4.310   3.015   0.198 -0.5027  0.1213 -0.5975
 2742SOL    HW1 8558   4.221   3.051   0.195 -0.2502  0.8837  0.5541
 2742SOL    HW2 8559   4.363   3.088   0.230  0.2210 -0.9381  0.6235
 2743SOL     OW 8560   3.020   4.711   0.570  0.2971 -0.1992  0.5313
 2743SOL    HW1 8561   2.962   4.702   0.494  2.6619  0.9039 -1.4474
 2743SOL    HW2 8562   3.025   4.805   0.585  2.1178 -0.2368  0.2299
 2744SOL     OW 8563   0.037   2.094   5.252 -0.7431  0.2171  0.4062
 2744SOL    HW1 8564   0.053   2.140   5.170 -1.0288 -0.5924 -0.1004
 2744SOL    HW2 8565   0.121   2.095   5.297 -0.4308  0.0887 -0.1787
 2745SOL     OW 8566   0.494   1.265   1.243  0.2099 -0.5198  0.2056
 2745SOL    HW1 8567   0.407   1.224   1.234  0.3311 -0.9325  0.8574
 2745SOL    HW2 8568   0.484   1.326   1.316  0.0065  0.7004 -0.8173
 2746SOL     OW 8569   3.468   1.832   4.994 -0.3905 -0.3645  0.0352
 2746SOL    HW1 8570   3.502   1.743   4.989  0.3914 -0.0398 -0.6741
 2746SOL    HW2 8571   3.545   1.888   4.978 -0.8886  0.4266  0.3881
 2747SOL     OW 8572   5.198   0.477   2.892  0.6296  0.2476  0.7463
 2747SOL    HW1 8573   5.170   0.492   2.802  0.6592 -0.6541  0.5815
 2747SOL    HW2 8574   5.291   0.459   2.886  0.4682 -0.6484  0.8604
 2748SOL     OW 8575   0.588   1.085   4.543  0.8497  0.4488 -0.2728
 2748SOL    HW1 8576   0.539   1.165   4.566  0.2038  0.2781 -1.0238
 2748SOL    HW2 8577   0.664   1.087   4.600 -0.6140  0.1403  1.7645
 2749SOL     OW 8578   1.782   3.540   2.197 -0.4996 -0.7330  0.3177
 2749SOL    HW1 8579   1.856   3.484   2.171 -0.3150 -1.5020  2.3915
 2749SOL    HW2 8580   1.822   3.606   2.255 -1.3728 -0.9311  1.1508
 2750SOL     OW 8581   3.728   2.899   5.517 -0.3611 -0.0080  0.7692
 2750SOL    HW1 8582   3.805   2.852   5.483 -0.4654  0.2043  0.2297
 2750SOL    HW2 8583   3.732   2.887   5.612  0.9529  0.9342  0.8394
 2751SOL     OW 8584   3.684   4.094   2.675  0.3526  0.5240 -0.8159
 2751SOL    HW1 8585   3.664   4.173   2.624 -1.6571  1.2151  0.9546
 2751SOL    HW2 8586   3.653   4.114   2.763 -0.3561 -2.2907 -0.3709
 2752SOL     OW 8587   1.046   3.361   2.105  0.4972  0.7954 -0.2443
 2752SOL    HW1 8588   1.079   3.427   2.044 -1.9905 -0.2835 -2.8709
 2752SOL    HW2 8589   1.057   3.278   2.058  0.9879 -0.3628  1.8807
 2753SOL     OW 8590   5.329   1.737   4.264 -0.0224  0.0470 -1.0272
 2753SOL    HW1 8591   5.258   1.696   4.314 -0.4027  2.0610  0.1632
 2753SOL    HW2 8592   5.403   1.741   4.325  0.9325 -1.4920 -2.0701
 2754SOL     OW 8593   0.974   4.902   4.116  0.4213 -0.1699 -0.3006
 2754SOL    HW1 8594   1.069   4.914   4.122  0.3585  0.4187 -0.4412
 2754SOL    HW2 8595   0.949   4.946   4.035  0.0786 -0.6520 -0.4569
 2755SOL     OW 8596   2.932   3.845   4.176  0.1532 -0.1984  0.0575
 2755SOL    HW1 8597   2.898   3.924   4.134 -0.4317  0.4112  1.6365
 2755SOL    HW2 8598   2.861   3.781   4.168 -0.4248  0.2905  1.1389
 2756SOL     OW 8599   0.387   5.542   1.183  0.0815  0.3511  0.3626
 2756SOL    HW1 8600   0.366   5.460   1.228  1.5981  0.4545  1.2907
 2756SOL    HW2 8601   0.335   5.539   1.103 -0.4069 -1.2044  0.7121
 2757SOL     OW 8602   4.174   2.940   0.480  0.8119  0.2474 -0.6302
 2757SOL    HW1 8603   4.147   3.024   0.444  0.0125 -0.1139 -0.8789
 2757SOL    HW2 8604   4.198   2.959   0.571 -0.2661  0.5758 -0.4045
 2758SOL     OW 8605   3.330   3.276   3.731 -0.2048 -0.5290  0.3610
 2758SOL    HW1 8606   3.379   3.213   3.679 -0.0787  0.6821 -1.0372
 2758SOL    HW2 8607   3.264   3.224   3.776 -0.2197 -1.6432 -0.8977
 2759SOL     OW 8608   0.595   5.270   0.934  0.1543  0.2325 -0.7484
 2759SOL    HW1 8609   0.499   5.278   0.930  0.2076  1.6479  0.3373
 2759SOL    HW2 8610   0.611   5.226   1.018  0.4402 -0.2206 -1.0452
 2760SOL     OW 8611   2.323   3.836   0.947 -0.0673 -0.0009  0.4876
 2760SOL    HW1 8612   2.233   3.851   0.975 -0.4275 -1.2144  0.0059
 2760SOL    HW2 8613   2.330   3.883   0.864 -0.0537  0.6176  0.8281
 2761SOL     OW 8614   1.235   4.113   0.338  0.6622 -0.3540  0.4179
 2761SOL    HW1 8615   1.283   4.139   0.260  0.4943 -0.2020  0.3655
 2761SOL    HW2 8616   1.149   4.153   0.328  0.6247 -0.3737  0.6562
 2762SOL     OW 8617   3.702   4.712   1.124 -0.3945 -1.0669 -0.1273
 2762SOL    HW1 8618   3.689   4.770   1.049  2.7576  0.4210  0.4085
 2762SOL    HW2 8619   3.750   4.637   1.090 -2.0740 -2.1095 -0.2655
 2763SOL     OW 8620   1.445   4.435   1.515 -0.1220  0.0930 -0.2119
 2763SOL    HW1 8621   1.515   4.488   1.554  0.4054 -1.5252  1.0968
 2763SOL    HW2 8622   1.458   4.445   1.420  2.2257 -0.5685 -0.0088
 2764SOL     OW 8623   0.681   1.299   1.484 -0.3437  0.2430 -0.7876
 2764SOL    HW1 8624   0.652   1.384   1.518 -0.0165  0.0492 -0.0195
 2764SOL    HW2 8625   0.751   1.321   1.423  0.6690  0.4518  0.4261
 2765SOL     OW 8626   2.931   0.748   0.564  0.5042 -0.2567  0.1345
 2765SOL    HW1 8627   2.990   0.724   0.492  0.2957  0.0680 -0.1464
 2765SOL    HW2 8628   2.933   0.672   0.623  0.6903 -0.5183 -0.2044
 2766SOL     OW 8629   2.666   1.529   0.634 -0.4116 -0.5064 -0.4707
 2766SOL    HW1 8630   2.746   1.480   0.653  0.1371 -0.1703 -1.8844
 2766SOL    HW2 8631   2.692   1.621   0.638 -0.9078 -0.3722 -0.1728
 2767SOL     OW 8632   0.623   4.103   0.307  0.0129 -0.2811 -0.1895
 2767SOL    HW1 8633   0.536   4.097   0.270  0.1831  0.2504 -0.6815
 2767SOL    HW2 8634   0.609   4.118   0.400 -0.4145 -0.8051 -0.1665
 2768SOL     OW 8635   0.245   0.812   2.160 -0.3831 -0.3301  0.0533
 2768SOL    HW1 8636   0.234   0.891   2.106 -1.0935 -0.6042 -0.2101
 2768SOL    HW2 8637   0.249   0.741   2.097  2.2479 -0.3208  0.1861
 2769SOL     OW 8638   1.718   1.960   1.176 -0.3906  0.4492 -0.1039
 2769SOL    HW1 8639   1.811   1.965   1.153  0.0858 -1.5739  1.2131
 2769SOL    HW2 8640   1.692   2.051   1.190  2.2894  0.8560  2.7299
 2770SOL     OW 8641   2.996   0.716   2.642 -0.3340 -0.3162 -0.8643
 2770SOL    HW1 8642   3.057   0.642   2.636  1.0025  0.9515 -3.7087
 2770SOL    HW2 8643   2.913   0.682   2.609 -0.4057 -1.2148  0.2031
 2771SOL     OW 8644   0.286   4.962   3.097  0.1573  0.0406  0.3549
 2771SOL    HW1 8645   0.250   5.042   3.056  0.2775 -0.4140 -0.6512
 2771SOL    HW2 8646   0.339   4.994   3.170 -1.6354  0.7751  1.3702
 2772SOL     OW 8647   5.366   5.368   4.273 -0.2243  0.6222  0.2002
 2772SOL    HW1 8648   5.384   5.399   4.362 -0.4155 -1.8874  1.1733
 2772SOL    HW2 8649   5.282   5.324   4.280  0.2523 -0.5159 -0.9816
 2773SOL     OW 8650   3.979   1.567   3.115 -0.0524  0.2522 -0.0443
 2773SOL    HW1 8651   3.887   1.585   3.135 -0.2392 -0.2029 -0.4904
 2773SOL    HW2 8652   3.976   1.495   3.053  0.6720 -0.8633  1.2049
 2774SOL     OW 8653   2.272   5.353   0.714 -0.4065  0.2211 -0.4374
 2774SOL    HW1 8654   2.186   5.396   0.723 -0.3570  0.1832  0.2156
 2774SOL    HW2 8655   2.279   5.297   0.791  0.3987  0.5600 -0.2575
 2775SOL     OW 8656   4.300   0.303   0.933  0.5000  0.2223  0.3085
 2775SOL    HW1 8657   4.334   0.327   0.847 -1.9111  1.4586 -0.3648
 2775SOL    HW2 8658   4.348   0.357   0.995  1.5518  0.0541 -0.3627
 2776SOL     OW 8659   0.437   0.965   0.848 -0.2676  0.3905  0.4736
 2776SOL    HW1 8660   0.426   1.060   0.850  0.5502  0.5746 -2.1557
 2776SOL    HW2 8661   0.377   0.935   0.780 -0.6284 -1.0149  1.3773
 2777SOL     OW 8662   1.156   0.274   5.143 -0.4293 -0.5839 -0.0430
 2777SOL    HW1 8663   1.153   0.181   5.164 -0.5460 -0.8433 -1.2024
 2777SOL    HW2 8664   1.212   0.312   5.211 -1.7918 -1.2080  1.4699
 2778SOL     OW 8665   3.816   0.793   3.425  0.2595 -0.3531 -0.0897
 2778SOL    HW1 8666   3.890   0.801   3.365 -0.7523 -1.3342 -1.4930
 2778SOL    HW2 8667   3.835   0.713   3.475  1.5720  0.9797  1.5858
 2779SOL     OW 8668   2.266   3.916   3.719  0.0336 -0.1470 -0.2874
 2779SOL    HW1 8669   2.309   3.847   3.668  1.6652  0.3379  0.4049
 2779SOL    HW2 8670   2.231   3.976   3.653  0.6733 -0.4085 -0.8731
 2780SOL     OW 8671   4.470   5.346   1.117  0.0011  0.3910  0.5356
 2780SOL    HW1 8672   4.558   5.339   1.080 -0.1501 -0.4831  0.3379
 2780SOL    HW2 8673   4.445   5.437   1.102  0.7567  0.5698  0.3375
 2781SOL     OW 8674   3.865   2.424   1.170 -0.3138  0.2171 -0.0446
 2781SOL    HW1 8675   3.818   2.423   1.087  0.0553 -1.1258 -0.2562
 2781SOL    HW2 8676   3.843   2.340   1.210 -0.8504  1.0385  1.4317
 2782SOL     OW 8677   0.032   5.455   1.863 -0.3756  0.4424 -0.5779
 2782SOL    HW1 8678   0.125   5.458   1.841 -0.7385 -0.9309 -2.4693
 2782SOL    HW2 8679   0.012   5.543   1.895  1.9255  0.2732  1.4447
 2783SOL     OW 8680   0.973   4.208   3.661  0.4515  0.4214 -0.2552
 2783SOL    HW1 8681   0.953   4.128   3.612 -0.4167 -0.1852  1.0700
 2783SOL    HW2 8682   1.066   4.199   3.685  0.3065 -0.2793  0.0508
 2784SOL     OW 8683   0.679   4.425   5.318  0.0382 -0.2576  0.1326
 2784SOL    HW1 8684   0.606   4.433   5.379  0.5797 -0.2461  0.7893
 2784SOL    HW2 8685   0.713   4.336   5.332  1.6736  0.5527  1.6013
 2785SOL     OW 8686   2.217   2.518   3.518  0.1363 -0.0422  0.5094
 2785SOL    HW1 8687   2.230   2.448   3.455 -0.9069  0.1059  0.1204
 2785SOL    HW2 8688   2.227   2.476   3.604  0.0725 -0.5463  0.2717
 2786SOL     OW 8689   3.433   1.468   3.362  0.1467 -0.2759 -0.3092
 2786SOL    HW1 8690   3.487   1.421   3.425  0.5390  0.4261 -0.1184
 2786SOL    HW2 8691   3.415   1.404   3.293 -1.4226 -1.4478  1.1832
 2787SOL     OW 8692   4.765   4.928   5.537 -0.0658  0.4130 -0.2040
 2787SOL    HW1 8693   4.775   4.903   5.445 -0.8255 -0.8835  0.0614
 2787SOL    HW2 8694   4.854   4.926   5.572 -0.1045 -1.8968 -0.1997
 2788SOL     OW 8695   0.375   1.552   2.960 -0.0211  0.1312  0.0437
 2788SOL    HW1 8696   0.449   1.569   2.901  1.0554  2.0522  1.9213
 2788SOL    HW2 8697   0.347   1.639   2.989 -2.5947 -0.6172 -0.0900
 2789SOL     OW 8698   4.488   4.141   3.094 -0.1153 -0.0767 -0.0183
 2789SOL    HW1 8699   4.565   4.122   3.148 -0.0797 -1.6679 -0.5834
 2789SOL    HW2 8700   4.524   4.175   3.012 -0.0451 -0.2240 -0.0482
 2790SOL     OW 8701   3.171   4.995   1.729 -0.3544  0.2634 -0.3044
 2790SOL    HW1 8702   3.194   4.916   1.680 -0.5942  0.8663 -1.4203
 2790SOL    HW2 8703   3.079   5.010   1.707 -0.7272  0.0244  1.0748
 2791SOL     OW 8704   3.942   2.584   2.812  0.6361  0.0613 -0.2029
 2791SOL    HW1 8705   3.991   2.624   2.741  1.4133  0.0753  0.3325
 2791SOL    HW2 8706   4.007   2.533   2.861  0.3674  0.9847  1.1703
 2792SOL     OW 8707   4.757   4.424   3.877 -0.9045 -0.2755 -0.3606
 2792SOL    HW1 8708   4.852   4.409   3.870 -1.0785 -0.7146 -1.9928
 2792SOL    HW2 8709   4.734   4.392   3.965  0.9236  2.4936  1.2117
 2793SOL     OW 8710   3.522   0.455   5.238 -0.7240 -0.2253  0.6350
 2793SOL    HW1 8711   3.585   0.516   5.278  0.8913 -2.5544  1.7384
 2793SOL    HW2 8712   3.576   0.391   5.193 -2.4096 -0.9414 -0.3854
 2794SOL     OW 8713   2.707   5.245   1.094  0.1230 -0.2296  0.1062
 2794SOL    HW1 8714   2.622   5.218   1.059 -0.2973  1.0396  0.1246
 2794SOL    HW2 8715   2.686   5.316   1.155  1.3050  0.8662 -0.7386
 2795SOL     OW 8716   4.104   0.011   2.090 -0.4004  0.3097 -0.4378
 2795SOL    HW1 8717   4.077  -0.081   2.082  0.2798  0.1785 -1.3344
 2795SOL    HW2 8718   4.038   0.060   2.039 -1.8218  0.5291  1.5557
 2796SOL     OW 8719   3.942   4.766   0.248 -0.1895  0.0958  0.0545
 2796SOL    HW1 8720   4.010   4.715   0.204 -0.4446 -0.0472 -0.1735
 2796SOL    HW2 8721   3.989   4.840   0.286 -0.1135  0.7988 -1.3733
 2797SOL     OW 8722   0.561   0.805   1.598 -0.2287  0.0830 -0.2554
 2797SOL    HW1 8723   0.574   0.887   1.551 -1.2816  0.3815 -0.0522
 2797SOL    HW2 8724   0.646   0.762   1.597  1.3409  2.9030  2.9252
 2798SOL     OW 8725   0.537   5.040   3.251  0.2749 -0.1718 -0.4857
 2798SOL    HW1 8726   0.585   5.061   3.171  1.4237 -1.2590 -0.0981
 2798SOL    HW2 8727   0.584   5.088   3.320 -1.8087  2.2700 -0.6695
 2799SOL     OW 8728   2.407   3.182   1.472 -0.4709  0.0369  0.2260
 2799SOL    HW1 8729   2.379   3.093   1.450  0.2411  0.2196 -1.5047
 2799SOL    HW2 8730   2.326   3.233   1.473 -0.8908 -0.6337  1.3065
 2800SOL     OW 8731   4.467   2.135   0.964  0.1172 -0.6521  0.4080
 2800SOL    HW1 8732   4.556   2.102   0.974  1.0694  2.3133  2.2276
 2800SOL    HW2 8733   4.468   2.182   0.880  0.0113 -1.3746  0.0003
 2801SOL     OW 8734   4.076   1.234   4.307  0.5682  0.2976  0.4051
 2801SOL    HW1 8735   4.136   1.177   4.356  0.6747 -0.0458 -0.1260
 2801SOL    HW2 8736   4.060   1.187   4.225  0.9104  1.1846 -0.1739
 2802SOL     OW 8737   1.991   5.044   2.222  0.5493 -0.4805 -0.1469
 2802SOL    HW1 8738   1.975   4.989   2.299 -1.7059  1.1954  0.6204
 2802SOL    HW2 8739   1.934   5.007   2.154  1.5350 -1.1121 -0.6622
 2803SOL     OW 8740   2.521   0.175   2.305 -0.3083  0.1718 -0.1146
 2803SOL    HW1 8741   2.506   0.211   2.218  1.9300  0.0567 -0.5897
 2803SOL    HW2 8742   2.556   0.248   2.356 -0.2153 -0.1395  0.2721
 2804SOL     OW 8743   2.454   2.645   3.092  0.4488 -0.7372  0.0218
 2804SOL    HW1 8744   2.477   2.654   2.999  0.6907 -1.6539 -0.0123
 2804SOL    HW2 8745   2.375   2.591   3.092 -1.0557  1.4108  0.2075
 2805SOL     OW 8746   2.507   5.145   2.428  0.4842  0.5868 -0.0853
 2805SOL    HW1 8747   2.534   5.101   2.508  0.6418 -0.3417 -0.6411
 2805SOL    HW2 8748   2.448   5.083   2.385  0.6450  0.9468 -0.8389
 2806SOL     OW 8749   4.763   5.187   4.162  0.3251 -0.3718  0.0199
 2806SOL    HW1 8750   4.671   5.214   4.166  0.5775  0.3946  0.9358
 2806SOL    HW2 8751   4.762   5.093   4.181 -0.3205 -0.4920 -0.5833
 2807SOL     OW 8752   0.882   3.720   2.307  0.0816 -0.3582  0.0511
 2807SOL    HW1 8753   0.850   3.726   2.397  1.2230 -1.4874  0.5542
 2807SOL    HW2 8754   0.956   3.659   2.312  1.9345  1.7019 -1.1708
 2808SOL     OW 8755   3.477   3.797   5.173  0.2571  0.0733  0.1441
 2808SOL    HW1 8756   3.468   3.853   5.096 -0.4973  0.5651  0.5776
 2808SOL    HW2 8757   3.392   3.804   5.218  0.9804  0.4805  1.4730
 2809SOL     OW 8758   0.159   1.710   4.903 -0.0299 -0.0132 -0.0363
 2809SOL    HW1 8759   0.078   1.671   4.870 -0.5823  1.3316 -0.2988
 2809SOL    HW2 8760   0.142   1.804   4.904  1.0478  0.1938  1.2043
 2810SOL     OW 8761   1.660   1.536   1.569 -0.2252 -0.5239  0.5860
 2810SOL    HW1 8762   1.650   1.592   1.491  0.3416 -0.2238  0.7297
 2810SOL    HW2 8763   1.753   1.515   1.572 -0.3282 -0.9344  0.9138
 2811SOL     OW 8764   2.686   1.165   2.407 -1.1177  0.3923 -0.2066
 2811SOL    HW1 8765   2.778   1.151   2.428 -1.4895 -2.4347 -0.2477
 2811SOL    HW2 8766   2.641   1.159   2.492 -1.3740  0.9302 -0.2977
 2812SOL     OW 8767   5.557   1.760   0.774  0.5845  0.0775 -0.0557
 2812SOL    HW1 8768   5.489   1.708   0.731  1.2907 -1.8772  1.1117
 2812SOL    HW2 8769   5.509   1.829   0.819 -0.7614 -1.8757  1.6086
 2813SOL     OW 8770   5.335   3.819   5.537 -0.5711 -0.6869  0.1054
 2813SOL    HW1 8771   5.317   3.873   5.461  1.1404 -1.7780 -1.1255
 2813SOL    HW2 8772   5.313   3.730   5.510  0.3119 -1.1282  0.7696
 2814SOL     OW 8773   5.549   2.654   3.708 -0.4345  0.2596 -0.5719
 2814SOL    HW1 8774   5.585   2.566   3.722  0.5044  0.8186  0.5993
 2814SOL    HW2 8775   5.623   2.705   3.677 -0.9385  0.6937 -1.0708
 2815SOL     OW 8776   1.045   4.182   0.750  0.3148  0.5648  0.4735
 2815SOL    HW1 8777   1.014   4.092   0.760 -1.7255  0.9948 -1.6829
 2815SOL    HW2 8778   0.974   4.236   0.787  1.9030  1.2946  2.5672
 2816SOL     OW 8779   2.142   0.419   2.725 -0.1381 -0.7982 -0.1478
 2816SOL    HW1 8780   2.182   0.498   2.689 -0.1993 -0.9323 -0.5139
 2816SOL    HW2 8781   2.211   0.353   2.721 -0.1584 -0.8251 -0.0583
 2817SOL     OW 8782   2.545   1.925   2.368  0.1876 -0.1456  0.2403
 2817SOL    HW1 8783   2.564   1.894   2.279  2.1818 -0.2446  0.6692
 2817SOL    HW2 8784   2.567   1.851   2.424  1.0471  0.6501  0.9645
 2818SOL     OW 8785   1.822   1.338   1.946  0.5049  0.1119  0.5914
 2818SOL    HW1 8786   1.864   1.417   1.978 -0.0276  0.4723  0.4135
 2818SOL    HW2 8787   1.733   1.366   1.922  0.9163 -0.1405 -1.2868
 2819SOL     OW 8788   4.812   5.182   3.317 -0.2187 -0.0344 -0.0239
 2819SOL    HW1 8789   4.726   5.186   3.360 -0.2733 -2.5826  0.1959
 2819SOL    HW2 8790   4.791   5.186   3.223 -0.3180  2.5277  0.0817
 2820SOL     OW 8791   2.175   2.493   3.908 -0.2460  0.5885  0.1339
 2820SOL    HW1 8792   2.138   2.538   3.984 -0.6853 -0.0424  0.3070
 2820SOL    HW2 8793   2.103   2.491   3.845 -0.0740  0.5740 -0.0612
 2821SOL     OW 8794   0.862   5.466   5.089  0.6231  0.5008  0.2402
 2821SOL    HW1 8795   0.836   5.477   4.998  0.6242 -1.6614 -0.0380
 2821SOL    HW2 8796   0.811   5.532   5.137 -0.2167  0.8797 -1.1585
 2822SOL     OW 8797   0.976   2.289   0.336 -0.8459 -0.1260  0.0903
 2822SOL    HW1 8798   0.899   2.335   0.369 -1.3534  0.2120 -1.5309
 2822SOL    HW2 8799   1.034   2.359   0.305 -0.6770 -0.4764 -0.3860
 2823SOL     OW 8800   2.050   3.342   3.542 -0.0032 -0.5750  0.2308
 2823SOL    HW1 8801   2.063   3.270   3.603  1.5044  0.8404  1.6549
 2823SOL    HW2 8802   1.957   3.340   3.521  0.1720 -3.4275 -0.4315
 2824SOL     OW 8803   1.661   2.258   3.918  0.2456 -0.0234 -0.4633
 2824SOL    HW1 8804   1.732   2.322   3.921  0.5293 -0.2470 -1.7920
 2824SOL    HW2 8805   1.588   2.303   3.876 -0.3458  0.1451  0.7278
 2825SOL     OW 8806   1.847   3.660   2.463 -0.2816  0.2444  0.3140
 2825SOL    HW1 8807   1.934   3.623   2.474 -0.5009 -0.5118 -0.3866
 2825SOL    HW2 8808   1.806   3.653   2.549 -0.8913 -2.6907 -0.1607
 2826SOL     OW 8809   4.024   1.902   2.331  0.3574  0.0126  0.1544
 2826SOL    HW1 8810   4.075   1.878   2.408  1.8496 -2.5670 -1.5222
 2826SOL    HW2 8811   4.057   1.989   2.306  1.9264 -0.3841  0.7709
 2827SOL     OW 8812   2.642   3.466   0.054 -0.1177 -0.1899 -0.8437
 2827SOL    HW1 8813   2.667   3.556   0.073  2.0152 -0.9460  0.1170
 2827SOL    HW2 8814   2.725   3.422   0.034 -0.8784 -2.3385  0.5272
 2828SOL     OW 8815   2.605   0.938   1.329  0.2678 -0.3410 -0.1451
 2828SOL    HW1 8816   2.524   0.989   1.324 -0.3317 -0.9693  2.6366
 2828SOL    HW2 8817   2.577   0.851   1.356  1.8241 -0.7018  0.3268
 2829SOL     OW 8818   1.497   1.486   3.703 -0.2624 -0.5983  0.0814
 2829SOL    HW1 8819   1.411   1.454   3.676 -0.7122  1.0687 -0.4776
 2829SOL    HW2 8820   1.557   1.453   3.637 -0.4994 -1.5083  0.3069
 2830SOL     OW 8821   3.894   3.437   3.364 -0.1422  0.3101 -0.0028
 2830SOL    HW1 8822   3.933   3.440   3.277  0.8030 -1.1601  0.3665
 2830SOL    HW2 8823   3.877   3.529   3.386  1.1996  0.8044 -1.0216
 2831SOL     OW 8824   1.061   5.006   2.728  0.0426 -0.1437 -0.4408
 2831SOL    HW1 8825   1.154   5.002   2.706 -0.1731 -0.8506 -1.2261
 2831SOL    HW2 8826   1.016   5.000   2.644 -0.7154  0.3362 -0.0756
 2832SOL     OW 8827   3.156   2.956   2.094 -0.6502 -0.5194 -0.1248
 2832SOL    HW1 8828   3.230   2.937   2.036  0.0567 -0.2233  0.6719
 2832SOL    HW2 8829   3.145   2.876   2.146 -1.2557 -0.7692 -0.6345
 2833SOL     OW 8830   0.507   0.402   4.190 -0.7457 -0.2195  0.0213
 2833SOL    HW1 8831   0.498   0.433   4.100  0.7993  0.1738 -0.0182
 2833SOL    HW2 8832   0.543   0.314   4.181 -0.3061 -0.0650  0.2579
 2834SOL     OW 8833   0.115   4.739   0.283  0.0339 -0.2656  0.2612
 2834SOL    HW1 8834   0.095   4.703   0.369  0.7428  0.5775  0.7909
 2834SOL    HW2 8835   0.206   4.767   0.290  0.4844 -1.3093 -1.1494
 2835SOL     OW 8836   4.057   1.952   5.186  0.5202  0.6752 -0.2595
 2835SOL    HW1 8837   4.099   1.877   5.228 -2.7345 -1.7326 -1.1348
 2835SOL    HW2 8838   4.029   2.007   5.260  2.1359  0.6365  0.4090
 2836SOL     OW 8839   5.351   0.763   0.476 -0.3124 -0.0365 -0.0315
 2836SOL    HW1 8840   5.403   0.706   0.532 -0.1746 -0.3062 -0.4317
 2836SOL    HW2 8841   5.262   0.754   0.509 -0.2250 -0.1654  0.1710
 2837SOL     OW 8842   2.907   1.537   3.373  0.4642  0.6730  0.4421
 2837SOL    HW1 8843   2.981   1.597   3.385  1.0303  0.3371 -1.1246
 2837SOL    HW2 8844   2.947   1.450   3.373 -0.1451  0.3915  1.1727
 2838SOL     OW 8845   4.137   2.271   3.709  0.1940 -0.1862 -0.0028
 2838SOL    HW1 8846   4.199   2.197   3.715 -1.9338 -1.9744  0.5326
 2838SOL    HW2 8847   4.082   2.262   3.786 -1.4244  0.7674 -1.0291
 2839SOL     OW 8848   0.871   1.039   3.267 -0.2652 -0.3471  0.4790
 2839SOL    HW1 8849   0.778   1.017   3.275 -0.5318  0.1804 -1.0490
 2839SOL    HW2 8850   0.876   1.094   3.189  1.4448 -0.9934  0.1091
 2840SOL     OW 8851   1.143   0.220   4.485  0.4765 -0.5089 -0.6227
 2840SOL    HW1 8852   1.062   0.172   4.497  0.8707 -0.7132  1.2918
 2840SOL    HW2 8853   1.127   0.305   4.525  1.4787 -0.8566  0.5554
 2841SOL     OW 8854   2.968   5.069   4.995 -0.3919 -0.1385 -1.0949
 2841SOL    HW1 8855   2.996   4.983   4.964 -1.3387 -0.7087 -0.3903
 2841SOL    HW2 8856   2.930   5.052   5.081 -0.3921  1.0179 -0.8641
 2842SOL     OW 8857   2.110   5.072   4.970 -0.4808  0.2752  0.6455
 2842SOL    HW1 8858   2.038   5.058   4.908  0.2908 -2.8070  0.3563
 2842SOL    HW2 8859   2.068   5.071   5.056 -1.0941  0.9714  0.3556
 2843SOL     OW 8860   0.199   1.387   3.527 -0.4511  0.3119 -0.0101
 2843SOL    HW1 8861   0.291   1.408   3.510 -0.4171 -0.1186 -0.3480
 2843SOL    HW2 8862   0.170   1.456   3.587  0.2832  0.0638  0.6490
 2844SOL     OW 8863   0.741   3.010   3.146  0.4147 -0.2534  0.2173
 2844SOL    HW1 8864   0.665   3.033   3.092  1.0008  1.6109  0.1503
 2844SOL    HW2 8865   0.814   3.007   3.085  0.6075 -0.8957  0.4741
 2845SOL     OW 8866   3.313   1.917   4.231  0.7072  0.0496  0.3370
 2845SOL    HW1 8867   3.406   1.938   4.238  0.7949  0.8088 -2.5001
 2845SOL    HW2 8868   3.310   1.821   4.236  1.5801  0.0474  0.9505
 2846SOL     OW 8869   2.370   0.021   1.766 -0.3776  0.1529 -0.1782
 2846SOL    HW1 8870   2.350   0.050   1.856 -0.9852  0.1343 -0.3093
 2846SOL    HW2 8871   2.289  -0.018   1.735  0.0538 -0.4961 -0.4832
 2847SOL     OW 8872   2.715   1.280   1.726  0.5332 -0.7236 -0.1433
 2847SOL    HW1 8873   2.688   1.189   1.715  1.2474 -0.8539 -0.9120
 2847SOL    HW2 8874   2.789   1.290   1.666  0.2625  0.4527 -0.2921
 2848SOL     OW 8875   3.024   4.381   0.904 -0.2261  0.0508 -0.0027
 2848SOL    HW1 8876   2.954   4.334   0.949 -1.0696  0.7104 -0.6186
 2848SOL    HW2 8877   3.028   4.340   0.818 -0.8493  0.9769 -0.4820
 2849SOL     OW 8878   4.298   2.503   0.169  0.3705  0.0241 -0.0856
 2849SOL    HW1 8879   4.287   2.594   0.141  1.6195 -0.4329 -2.1271
 2849SOL    HW2 8880   4.327   2.510   0.260  2.4046  1.7699 -0.8097
 2850SOL     OW 8881   4.119   4.272   2.102 -0.3700 -0.5154 -0.4651
 2850SOL    HW1 8882   4.111   4.224   2.185  0.0258 -2.2183 -1.3819
 2850SOL    HW2 8883   4.032   4.308   2.087 -0.0395  1.2178  1.4926
 2851SOL     OW 8884   3.456   2.432   2.057  0.2788  0.3498 -0.0296
 2851SOL    HW1 8885   3.534   2.448   2.111  0.1764  0.6806  0.0223
 2851SOL    HW2 8886   3.481   2.359   2.001 -0.9818 -2.6663  3.2048
 2852SOL     OW 8887   1.644   0.309   4.111  0.2296 -0.0347  0.4880
 2852SOL    HW1 8888   1.726   0.355   4.126  0.1044  0.3738 -0.0503
 2852SOL    HW2 8889   1.592   0.325   4.189  0.1421  0.8396  0.2495
 2853SOL     OW 8890   1.499   3.707   4.278 -0.0072 -0.3622 -0.5443
 2853SOL    HW1 8891   1.582   3.729   4.320 -0.0570  0.9522 -1.1204
 2853SOL    HW2 8892   1.524   3.658   4.200  0.2477  0.4167 -0.9548
 2854SOL     OW 8893   4.145   1.245   0.056  0.1425  0.3019 -0.4630
 2854SOL    HW1 8894   4.123   1.250   0.149  0.5136 -2.0462 -0.2143
 2854SOL    HW2 8895   4.201   1.321   0.040  0.5920  0.3718  1.3933
 2855SOL     OW 8896   4.786   0.205   3.706 -0.6502  0.5851  1.1844
 2855SOL    HW1 8897   4.715   0.232   3.647  0.8978 -0.6147 -1.3250
 2855SOL    HW2 8898   4.855   0.271   3.692  1.7086 -2.4320 -2.2375
 2856SOL     OW 8899   0.787   5.368   1.504  0.5964  0.1282  0.3662
 2856SOL    HW1 8900   0.796   5.404   1.416  0.2121 -0.3527  0.1262
 2856SOL    HW2 8901   0.763   5.442   1.559 -4.3447 -0.4637 -0.8297
 2857SOL     OW 8902   0.687   3.043   5.425 -0.8597 -0.4510 -0.1401
 2857SOL    HW1 8903   0.591   3.047   5.426 -0.9643 -1.6635 -2.2174
 2857SOL    HW2 8904   0.708   3.011   5.338  1.4833  0.4027  0.0942
 2858SOL     OW 8905   1.840   3.138   2.233 -0.1343 -0.6229  0.0894
 2858SOL    HW1 8906   1.822   3.200   2.162  2.1320  0.3739  0.3645
 2858SOL    HW2 8907   1.900   3.074   2.195 -0.2811 -1.0731  0.6115
 2859SOL     OW 8908   2.485   4.979   3.240  0.0504 -0.2947 -0.0081
 2859SOL    HW1 8909   2.457   5.038   3.310 -2.1632  0.4155 -1.4370
 2859SOL    HW2 8910   2.446   5.016   3.160 -1.2724 -3.5795 -0.9716
 2860SOL     OW 8911   3.340   3.494   2.215  0.2545 -0.3131  0.4914
 2860SOL    HW1 8912   3.267   3.478   2.275 -1.1773 -0.5280 -1.2514
 2860SOL    HW2 8913   3.378   3.576   2.245 -0.7013 -0.1942  1.4326
 2861SOL     OW 8914   3.141   4.657   4.968 -0.5810  0.1631  0.1991
 2861SOL    HW1 8915   3.129   4.742   4.927 -2.0203 -0.1442 -0.0656
 2861SOL    HW2 8916   3.232   4.634   4.951  0.0633  2.0130  0.9979
 2862SOL     OW 8917   5.090   4.942   2.370  0.1986  0.3027 -0.2255
 2862SOL    HW1 8918   5.175   4.942   2.414 -1.2699 -0.7528  2.6965
 2862SOL    HW2 8919   5.072   5.035   2.353  1.0460  0.6922  0.9264
 2863SOL     OW 8920   0.918   1.763   1.070  1.0856 -0.1743 -0.4331
 2863SOL    HW1 8921   0.857   1.724   1.133  1.1155  2.1698  1.1005
 2863SOL    HW2 8922   0.932   1.694   1.005 -1.9320 -1.3430  0.0492
 2864SOL     OW 8923   1.829   3.954   2.610  0.3736  0.0870  0.2578
 2864SOL    HW1 8924   1.901   3.937   2.549 -1.1218 -1.7828 -1.0334
 2864SOL    HW2 8925   1.750   3.927   2.562 -0.8843 -0.8582  2.7898
 2865SOL     OW 8926   4.633   1.983   0.782  0.0602  0.4598 -0.1558
 2865SOL    HW1 8927   4.599   1.898   0.812 -1.4043  0.8862 -0.5375
 2865SOL    HW2 8928   4.630   1.977   0.687  1.6856  0.2850 -0.2115
 2866SOL     OW 8929   0.623   3.444   0.683  0.9844 -0.6313 -0.5981
 2866SOL    HW1 8930   0.607   3.381   0.612  0.8466 -0.3372 -0.8272
 2866SOL    HW2 8931   0.708   3.418   0.718  0.4535 -1.5987 -0.0034
 2867SOL     OW 8932   4.849   0.918   1.044  0.1445  0.0922  0.0188
 2867SOL    HW1 8933   4.901   0.838   1.058  0.0291 -0.0950 -0.5865
 2867SOL    HW2 8934   4.762   0.896   1.076  0.3674  0.3222  0.8031
 2868SOL     OW 8935   2.099   4.128   3.124 -0.0445 -0.2082 -0.2300
 2868SOL    HW1 8936   2.070   4.054   3.071  0.4860 -0.5296 -0.0743
 2868SOL    HW2 8937   2.144   4.088   3.199 -1.2764  0.2193  0.7648
 2869SOL     OW 8938   4.302   3.207   1.595  0.1183 -0.2903  0.3338
 2869SOL    HW1 8939   4.341   3.247   1.673 -0.1489  2.1873 -0.7556
 2869SOL    HW2 8940   4.208   3.219   1.608  0.1147  0.9671 -0.7783
 2870SOL     OW 8941   3.914   1.729   1.676  0.1423  0.2699  0.1065
 2870SOL    HW1 8942   3.840   1.790   1.670 -0.7135 -0.7579 -0.0175
 2870SOL    HW2 8943   3.877   1.645   1.648  2.2138  0.4518 -3.4428
 2871SOL     OW 8944   1.891   4.426   2.284  0.0968 -0.1024 -0.2182
 2871SOL    HW1 8945   1.851   4.510   2.305  0.0651  0.2088 -1.4933
 2871SOL    HW2 8946   1.877   4.416   2.190  0.5198 -1.3122 -0.1545
 2872SOL     OW 8947   3.131   3.159   5.017  0.3831 -0.0961 -0.0148
 2872SOL    HW1 8948   3.140   3.083   4.960  1.1894 -0.9260  1.2129
 2872SOL    HW2 8949   3.040   3.156   5.047  0.0913  0.0758 -0.8566
 2873SOL     OW 8950   3.633   1.029   4.135  0.1696  0.3446 -0.3399
 2873SOL    HW1 8951   3.686   0.982   4.199 -2.7277 -1.2929  0.9408
 2873SOL    HW2 8952   3.631   0.971   4.058 -0.1496  0.2087 -0.2272
 2874SOL     OW 8953   3.827   1.285   2.951  0.2892 -0.2514  0.3983
 2874SOL    HW1 8954   3.792   1.215   3.007  1.0102  1.1775  2.7434
 2874SOL    HW2 8955   3.787   1.365   2.986  3.7348  1.1101  1.3917
 2875SOL     OW 8956   2.064   5.385   3.996  0.3540  0.1122  0.2227
 2875SOL    HW1 8957   1.991   5.425   3.949  0.9891 -0.4473 -1.3064
 2875SOL    HW2 8958   2.029   5.303   4.031 -0.0250  0.3369  0.3654
 2876SOL     OW 8959   0.817   5.414   3.649  0.7411 -0.0480  0.0381
 2876SOL    HW1 8960   0.911   5.431   3.645  0.4338  1.3639 -1.6262
 2876SOL    HW2 8961   0.794   5.430   3.741  1.7786  1.5995  0.0286
 2877SOL     OW 8962   3.918   2.751   4.767 -0.6398 -0.5458  0.1057
 2877SOL    HW1 8963   3.860   2.790   4.833 -0.4896 -0.3585  0.1270
 2877SOL    HW2 8964   3.890   2.788   4.684  1.0712  1.4928  0.3938
 2878SOL     OW 8965   4.694   3.084   1.696  0.0354 -0.3984  0.1119
 2878SOL    HW1 8966   4.620   3.096   1.637  0.4723  0.9400 -0.1723
 2878SOL    HW2 8967   4.762   3.044   1.642 -0.6367 -2.1232  0.5002
 2879SOL     OW 8968   1.697   3.110   0.357  0.7249 -0.0826  0.0475
 2879SOL    HW1 8969   1.739   3.196   0.358 -1.7510  1.1705  0.0878
 2879SOL    HW2 8970   1.638   3.113   0.282  0.5728 -1.7470  0.0786
 2880SOL     OW 8971   3.013   3.107   5.366 -0.3996 -0.0641  0.3942
 2880SOL    HW1 8972   2.951   3.091   5.438  0.3765  1.1498  1.3413
 2880SOL    HW2 8973   3.029   3.020   5.329 -0.3004 -0.8005  2.1194
 2881SOL     OW 8974   4.468   3.742   3.441 -0.0382 -0.1219 -0.1746
 2881SOL    HW1 8975   4.498   3.713   3.355  0.5142  0.6666 -0.2453
 2881SOL    HW2 8976   4.524   3.815   3.463 -1.6738  1.1598 -0.1637
 2882SOL     OW 8977   1.082   5.024   0.058  0.2423  0.4762 -0.2768
 2882SOL    HW1 8978   1.083   5.100  -0.000 -1.0733  1.4524  0.9326
 2882SOL    HW2 8979   0.990   5.007   0.073  0.5539  0.4244  1.7186
 2883SOL     OW 8980   4.322   1.618   2.949 -0.2268  0.6754  0.1024
 2883SOL    HW1 8981   4.306   1.704   2.988  0.0186  1.2043 -0.9253
 2883SOL    HW2 8982   4.252   1.607   2.885  0.3003  0.5488 -0.4599
 2884SOL     OW 8983   2.971   2.612   1.915  0.4251  0.2432 -0.0231
 2884SOL    HW1 8984   3.032   2.675   1.877  0.5175  1.2745  1.7796
 2884SOL    HW2 8985   3.002   2.600   2.005 -1.9707  0.7567  0.9124
 2885SOL     OW 8986   4.345   0.841   1.542  0.2594 -0.0954 -0.1890
 2885SOL    HW1 8987   4.338   0.764   1.598 -1.5324 -0.4758 -0.9037
 2885SOL    HW2 8988   4.433   0.874   1.558  1.1791 -2.4711 -0.0934
 2886SOL     OW 8989   0.899   2.447   4.892 -0.1169  0.1953 -0.3246
 2886SOL    HW1 8990   0.808   2.425   4.872 -0.5137  0.9534  0.5966
 2886SOL    HW2 8991   0.944   2.440   4.808 -0.5940 -2.2288 -0.4188
 2887SOL     OW 8992   1.306   3.757   1.405  0.2177  0.2642 -0.7930
 2887SOL    HW1 8993   1.362   3.822   1.362  0.6539  0.2991 -0.1786
 2887SOL    HW2 8994   1.219   3.771   1.368  0.4373  0.7945 -1.1094
 2888SOL     OW 8995   1.913   1.341   1.683 -0.8088 -0.2306  0.0038
 2888SOL    HW1 8996   1.890   1.375   1.770  2.9006  1.1579  0.5580
 2888SOL    HW2 8997   1.960   1.260   1.701 -1.3967 -0.7488 -0.7916
 2889SOL     OW 8998   4.509   4.587   2.000  0.1020 -0.1348  0.5443
 2889SOL    HW1 8999   4.522   4.681   1.983 -1.5515  0.3429  1.8252
 2889SOL    HW2 9000   4.595   4.556   2.028  0.3768  1.2806  1.3318
 2890SOL     OW 9001   5.369   3.966   3.643 -0.0475 -0.1843 -0.6430
 2890SOL    HW1 9002   5.351   3.879   3.680  0.1054  0.4342  0.9128
 2890SOL    HW2 9003   5.354   3.955   3.549 -0.9852 -1.6520 -0.3426
 2891SOL     OW 9004   2.681   3.267   0.298  0.3240 -0.3208  0.0978
 2891SOL    HW1 9005   2.622   3.196   0.273 -0.4920  0.7934 -1.2119
 2891SOL    HW2 9006   2.730   3.287   0.219  1.5140 -0.3117  0.8182
 2892SOL     OW 9007   4.134   2.213   0.578 -0.4899  0.1870 -0.1821
 2892SOL    HW1 9008   4.066   2.168   0.529 -0.4787 -0.8344  0.7239
 2892SOL    HW2 9009   4.215   2.195   0.530 -0.6158 -0.0107 -0.3200
 2893SOL     OW 9010   1.284   0.177   4.129  0.7763 -0.0046 -0.6071
 2893SOL    HW1 9011   1.207   0.201   4.078 -0.8138 -1.1659  1.2062
 2893SOL    HW2 9012   1.356   0.225   4.087 -0.9612  1.3428 -2.1287
 2894SOL     OW 9013   3.506   1.333   2.952 -0.8632 -0.2663 -0.5796
 2894SOL    HW1 9014   3.439   1.382   2.903  1.2912  3.5349  0.0849
 2894SOL    HW2 9015   3.569   1.306   2.885 -0.9527 -0.2330 -0.6782
 2895SOL     OW 9016   0.048   4.133   3.950 -0.1014 -0.7444  0.1946
 2895SOL    HW1 9017   0.088   4.101   3.869  0.4170 -0.5999  0.3851
 2895SOL    HW2 9018   0.121   4.176   3.996 -1.2025  2.5822 -1.0235
 2896SOL     OW 9019   0.720   5.553   3.877 -0.0131 -0.3801 -0.1709
 2896SOL    HW1 9020   0.627   5.578   3.880  0.2793  0.6533  0.9966
 2896SOL    HW2 9021   0.737   5.519   3.965  0.2030 -2.4969 -1.0233
 2897SOL     OW 9022   3.832   0.430   3.909  0.0811 -0.6117 -0.1583
 2897SOL    HW1 9023   3.862   0.517   3.932 -0.5444 -0.2924 -0.5212
 2897SOL    HW2 9024   3.905   0.391   3.861  0.3866 -0.3120  0.0619
 2898SOL     OW 9025   3.846   5.250   1.528 -0.6222 -0.4826  0.4698
 2898SOL    HW1 9026   3.923   5.194   1.526  0.2161  0.5397  2.8770
 2898SOL    HW2 9027   3.784   5.204   1.585  0.0429  0.9457  2.3958
 2899SOL     OW 9028   1.175   4.403   2.436  0.1133  0.4334  0.4418
 2899SOL    HW1 9029   1.106   4.357   2.389  0.0907 -0.2020  1.0758
 2899SOL    HW2 9030   1.243   4.418   2.370 -0.2373  0.2414  0.0336
 2900SOL     OW 9031   4.144   4.165   1.205  0.3207 -0.6680  0.0329
 2900SOL    HW1 9032   4.209   4.138   1.270 -1.0609  1.7316  2.5443
 2900SOL    HW2 9033   4.064   4.121   1.232 -0.5752  1.3534  0.7811
 2901SOL     OW 9034   1.341   0.840   2.273  0.2248 -0.1654  0.0710
 2901SOL    HW1 9035   1.255   0.819   2.237 -0.0173 -1.0324  1.1494
 2901SOL    HW2 9036   1.356   0.775   2.341  1.5018  0.3136  0.2700
 2902SOL     OW 9037   0.830   1.589   0.885  0.9765 -0.0196 -0.0149
 2902SOL    HW1 9038   0.769   1.660   0.864 -0.6916 -1.3142  0.3020
 2902SOL    HW2 9039   0.817   1.525   0.814  2.5526  0.0357 -0.3724
 2903SOL     OW 9040   4.887   1.958   1.868  0.7134 -0.2337 -1.0451
 2903SOL    HW1 9041   4.880   1.964   1.964 -1.6658  0.1219 -1.2218
 2903SOL    HW2 9042   4.967   1.907   1.854  0.8209 -0.7488  1.1350
 2904SOL     OW 9043   3.682   0.612   5.397 -0.0151  0.2268 -0.2440
 2904SOL    HW1 9044   3.775   0.597   5.383  0.2563  1.5243  0.0657
 2904SOL    HW2 9045   3.678   0.665   5.477 -1.0853 -0.8141  0.4111
 2905SOL     OW 9046   5.236   2.287   3.392 -0.5650  0.2332 -0.5686
 2905SOL    HW1 9047   5.157   2.242   3.360 -1.0965  0.1684  0.8213
 2905SOL    HW2 9048   5.208   2.377   3.406 -0.4188  0.1845  0.0251
 2906SOL     OW 9049   5.137   0.487   0.942  0.4121  0.4715 -0.5473
 2906SOL    HW1 9050   5.203   0.459   1.005  0.7143  2.6531  0.1289
 2906SOL    HW2 9051   5.053   0.468   0.984  0.5099 -3.1616 -1.7746
 2907SOL     OW 9052   0.659   0.558   0.976  0.3486 -0.0524  0.3332
 2907SOL    HW1 9053   0.662   0.639   1.026  0.6476 -0.6655  1.3082
 2907SOL    HW2 9054   0.591   0.506   1.017  1.5406 -1.1308  0.9917
 2908SOL     OW 9055   1.670   3.147   4.995  0.4333 -0.0751 -0.0910
 2908SOL    HW1 9056   1.593   3.159   5.051  1.1113 -0.1260  0.8840
 2908SOL    HW2 9057   1.742   3.186   5.045  1.4659 -2.1621  0.1156
 2909SOL     OW 9058   4.987   2.732   1.359  0.7269 -0.2361 -0.3717
 2909SOL    HW1 9059   4.984   2.719   1.453  0.2360  0.0238 -0.3458
 2909SOL    HW2 9060   4.941   2.657   1.322 -0.4175  0.4260 -0.3208
 2910SOL     OW 9061   3.590   1.181   3.454  0.3995 -0.2963  0.1523
 2910SOL    HW1 9062   3.611   1.255   3.511 -1.3120  1.2962 -1.2470
 2910SOL    HW2 9063   3.504   1.151   3.485  1.6082 -2.5439  1.5172
 2911SOL     OW 9064   2.368   1.539   4.860 -0.0971 -0.0828 -0.3120
 2911SOL    HW1 9065   2.325   1.592   4.793 -2.2147  0.5017  1.4099
 2911SOL    HW2 9066   2.356   1.589   4.941 -0.2895 -2.1800  1.0006
 2912SOL     OW 9067   1.996   2.808   5.508  0.1336 -0.2116 -0.6229
 2912SOL    HW1 9068   1.954   2.762   5.580 -1.3068  3.0706  0.7516
 2912SOL    HW2 9069   2.085   2.826   5.539  0.4185 -1.2389 -0.8210
 2913SOL     OW 9070   1.252   1.212   4.398  0.5549  0.0619  0.4883
 2913SOL    HW1 9071   1.332   1.251   4.361  1.2386 -0.2740  1.5785
 2913SOL    HW2 9072   1.211   1.284   4.447  1.0205 -0.1704  1.2329
 2914SOL     OW 9073   1.143   5.102   3.453 -0.5817 -0.0105 -0.1705
 2914SOL    HW1 9074   1.078   5.033   3.443  1.1543 -1.8309  0.6481
 2914SOL    HW2 9075   1.193   5.077   3.531  0.0682  2.2010  0.1744
 2915SOL     OW 9076   4.351   2.152   0.389  0.1624  0.0393  0.2598
 2915SOL    HW1 9077   4.436   2.108   0.397  0.2615  0.2088  0.1413
 2915SOL    HW2 9078   4.354   2.195   0.304 -0.6637 -1.2742 -0.4518
 2916SOL     OW 9079   0.898   2.701   0.223  0.2877  0.1083 -0.1916
 2916SOL    HW1 9080   0.856   2.754   0.154  0.4278 -0.1606 -0.4859
 2916SOL    HW2 9081   0.829   2.642   0.253  0.1587  0.3916  0.0682
 2917SOL     OW 9082   1.013   1.434   3.011  0.4510 -0.2166 -0.1374
 2917SOL    HW1 9083   0.939   1.492   3.033  1.5942  0.8418  1.0363
 2917SOL    HW2 9084   1.049   1.408   3.096  1.4506 -0.6853 -0.6922
 2918SOL     OW 9085   4.919   3.440   3.134 -0.6613 -0.1232 -0.1588
 2918SOL    HW1 9086   4.864   3.385   3.191  1.9608 -1.0379  1.6043
 2918SOL    HW2 9087   4.909   3.402   3.047  0.0894 -2.6632  0.8128
 2919SOL     OW 9088   1.510   1.026   2.496  0.0372 -0.4789  0.4528
 2919SOL    HW1 9089   1.415   1.018   2.504 -0.1486  0.9525 -0.2265
 2919SOL    HW2 9090   1.527   1.025   2.402  0.7965 -1.6533  0.5802
 2920SOL     OW 9091   0.802   2.618   3.456 -0.0994 -0.0456  0.3878
 2920SOL    HW1 9092   0.707   2.609   3.464 -0.2047  0.5029 -0.1656
 2920SOL    HW2 9093   0.816   2.648   3.366  0.7865 -2.5329 -0.3563
 2921SOL     OW 9094   2.422   0.091   5.178 -0.0927 -0.1142 -0.0112
 2921SOL    HW1 9095   2.365   0.160   5.213  0.8711  1.8508 -2.1798
 2921SOL    HW2 9096   2.370   0.011   5.186 -1.2816  0.8423  2.4771
 2922SOL     OW 9097   3.922   1.365   3.334  0.0451  0.0348  0.0227
 2922SOL    HW1 9098   3.989   1.324   3.388  1.0664  1.9762  0.2506
 2922SOL    HW2 9099   3.963   1.445   3.300 -0.9700 -0.5481 -2.6831
 2923SOL     OW 9100   2.048   3.079   0.970 -0.3609 -0.6244  1.1297
 2923SOL    HW1 9101   2.135   3.098   1.006  0.6966 -1.9426 -0.6155
 2923SOL    HW2 9102   2.015   3.164   0.942  0.2547 -0.0742  2.0475
 2924SOL     OW 9103   4.346   1.560   4.321 -0.0255  0.0517 -0.2879
 2924SOL    HW1 9104   4.334   1.543   4.414 -0.6944  0.6901 -0.2562
 2924SOL    HW2 9105   4.350   1.473   4.281 -2.4562 -0.2114 -0.0081
 2925SOL     OW 9106   0.627   1.542   4.239 -0.4611 -0.1101  0.4774
 2925SOL    HW1 9107   0.543   1.499   4.224 -0.4148  0.0327 -0.2031
 2925SOL    HW2 9108   0.607   1.636   4.237 -0.0750 -0.0440 -1.0237
 2926SOL     OW 9109   3.218   2.880   5.464 -0.3887  0.3731 -0.5482
 2926SOL    HW1 9110   3.171   2.871   5.382  0.4414  0.6145 -1.0512
 2926SOL    HW2 9111   3.297   2.827   5.453 -0.4255  0.1541  0.2035
 2927SOL     OW 9112   4.424   5.343   4.746 -0.2217  0.0093  0.2919
 2927SOL    HW1 9113   4.371   5.303   4.814 -0.0011  0.6495  0.8399
 2927SOL    HW2 9114   4.515   5.323   4.771 -0.1904 -1.0128 -0.5980
 2928SOL     OW 9115   0.529   0.167   2.684  0.3617  0.2342  0.3487
 2928SOL    HW1 9116   0.576   0.114   2.620  1.8832  0.7892  0.9918
 2928SOL    HW2 9117   0.597   0.211   2.734 -0.8732  2.7662 -0.1294
 2929SOL     OW 9118   5.351   1.603   1.689  0.1924 -0.0985 -0.3780
 2929SOL    HW1 9119   5.300   1.579   1.611 -0.0440  0.5802 -0.4394
 2929SOL    HW2 9120   5.307   1.558   1.761 -1.3065  1.5390 -0.2398
 2930SOL     OW 9121   1.461   3.710   4.887 -0.3113  0.0967  0.0930
 2930SOL    HW1 9122   1.445   3.655   4.810 -0.4991  0.8665 -0.4208
 2930SOL    HW2 9123   1.526   3.775   4.858  1.1113 -0.8101  1.1448
 2931SOL     OW 9124   1.702   2.877   3.170 -0.1631 -0.3767  0.1707
 2931SOL    HW1 9125   1.723   2.819   3.243  1.8632  0.0166 -0.0666
 2931SOL    HW2 9126   1.772   2.943   3.171  0.1740 -0.6447 -2.3769
 2932SOL     OW 9127   3.939   3.544   4.033  0.0388  0.2431  0.1992
 2932SOL    HW1 9128   3.877   3.608   3.998 -0.9287 -1.5457 -1.4996
 2932SOL    HW2 9129   3.896   3.511   4.112  0.0009  0.8509  0.4326
 2933SOL     OW 9130   4.631   4.796   3.198 -0.0078 -0.2451  0.1536
 2933SOL    HW1 9131   4.672   4.741   3.265  0.9906 -1.7329 -1.5984
 2933SOL    HW2 9132   4.703   4.851   3.165 -0.2189 -0.3398 -0.4806
 2934SOL     OW 9133   3.281   1.620   4.168 -0.4062 -0.0466 -0.2662
 2934SOL    HW1 9134   3.288   1.555   4.238  2.7125  3.0559  2.5216
 2934SOL    HW2 9135   3.344   1.591   4.102 -1.2052 -1.4058 -0.4497
 2935SOL     OW 9136   4.864   2.729   3.459  0.3441  0.4447  0.4530
 2935SOL    HW1 9137   4.863   2.650   3.513  2.5609 -1.0133 -1.5337
 2935SOL    HW2 9138   4.916   2.792   3.508 -1.1432  0.5852  1.8874
 2936SOL     OW 9139   5.343   1.697   3.657  0.0542  0.5024 -0.2353
 2936SOL    HW1 9140   5.305   1.653   3.733 -0.3432  0.9233 -0.1832
 2936SOL    HW2 9141   5.417   1.746   3.692  0.1693  0.3006 -0.2002
 2937SOL     OW 9142   2.335   5.327   0.049  0.2533  0.3994  0.0255
 2937SOL    HW1 9143   2.333   5.253   0.110  0.3712 -1.0672 -1.6842
 2937SOL    HW2 9144   2.273   5.302  -0.020  1.7568  0.9939 -1.5773
 2938SOL     OW 9145   1.144   1.630   0.242 -0.2002  0.5575 -0.2079
 2938SOL    HW1 9146   1.151   1.725   0.245  0.8820  0.5381 -1.6640
 2938SOL    HW2 9147   1.225   1.598   0.282  1.1302  0.2805 -3.0296
 2939SOL     OW 9148   2.450   4.739   0.250  0.4864  0.0907  0.1362
 2939SOL    HW1 9149   2.354   4.734   0.246  0.3508  1.4417  1.2968
 2939SOL    HW2 9150   2.479   4.648   0.252 -0.9562 -0.3373  3.1516
 2940SOL     OW 9151   4.327   0.989   2.133 -0.5444 -0.8222 -0.2159
 2940SOL    HW1 9152   4.236   0.961   2.119 -0.3947 -0.8651 -1.1802
 2940SOL    HW2 9153   4.335   1.070   2.082 -0.0807 -0.7380 -0.0096
 2941SOL     OW 9154   2.200   0.770   0.830  0.1430  0.7315  0.0933
 2941SOL    HW1 9155   2.193   0.678   0.857 -1.1364  0.8603  0.2602
 2941SOL    HW2 9156   2.292   0.792   0.840  0.5290 -0.6532 -0.3218
 2942SOL     OW 9157   3.615   0.341   0.692  0.1370  0.1094  0.5523
 2942SOL    HW1 9158   3.645   0.359   0.782 -2.4672  1.8888  1.1175
 2942SOL    HW2 9159   3.521   0.330   0.700 -0.1717  0.5535 -2.0047
 2943SOL     OW 9160   4.912   3.612   4.690  0.2677 -0.1706 -0.4115
 2943SOL    HW1 9161   4.968   3.686   4.667  0.6085  0.0250  0.9826
 2943SOL    HW2 9162   4.962   3.535   4.662  1.3683 -0.0110  1.0540
 2944SOL     OW 9163   4.057   2.499   1.411 -0.4714  0.0573 -0.6177
 2944SOL    HW1 9164   4.022   2.481   1.323  0.3091  2.4127 -1.4332
 2944SOL    HW2 9165   4.143   2.538   1.396 -0.3137  0.4734  1.2075
 2945SOL     OW 9166   2.083   2.834   3.141  0.1072 -0.6637 -0.3818
 2945SOL    HW1 9167   2.039   2.855   3.059  0.6855  0.6969 -0.3593
 2945SOL    HW2 9168   2.168   2.878   3.134 -0.0355 -0.1151  1.1532
 2946SOL     OW 9169   0.793   5.478   4.130 -0.6918 -0.3981 -0.5320
 2946SOL    HW1 9170   0.856   5.531   4.179  0.7033 -1.6745 -0.9249
 2946SOL    HW2 9171   0.721   5.464   4.191 -1.0256  1.8325 -0.3718
 2947SOL     OW 9172   0.353   1.365   3.148 -0.5822  0.2851 -0.1629
 2947SOL    HW1 9173   0.375   1.442   3.096  1.2707  0.3761  0.7330
 2947SOL    HW2 9174   0.333   1.297   3.083  0.4058  0.7656 -0.9770
 2948SOL     OW 9175   2.537   2.256   1.803  0.2842 -0.1075 -0.6471
 2948SOL    HW1 9176   2.602   2.257   1.874  0.0052 -1.9752 -0.3323
 2948SOL    HW2 9177   2.455   2.280   1.845  0.5596  1.1564 -0.8229
 2949SOL     OW 9178   4.810   3.653   2.388 -0.2838 -0.1014  0.2201
 2949SOL    HW1 9179   4.892   3.605   2.401 -0.0638 -0.3661 -2.0642
 2949SOL    HW2 9180   4.770   3.656   2.476  1.8805 -0.4550  1.2539
 2950SOL     OW 9181   1.409   3.584   2.868  0.6191 -0.2713 -0.6320
 2950SOL    HW1 9182   1.418   3.576   2.963  2.3014  1.6666 -0.5804
 2950SOL    HW2 9183   1.397   3.678   2.854  1.7322 -0.3841 -2.4333
 2951SOL     OW 9184   3.501   0.940   1.747  0.0777 -0.4573  0.0944
 2951SOL    HW1 9185   3.590   0.938   1.782  0.1917 -0.8415 -0.2168
 2951SOL    HW2 9186   3.448   0.975   1.819  0.8992  2.5992 -0.6899
 2952SOL     OW 9187   3.235   2.841   3.208 -0.6032 -0.1849  0.8440
 2952SOL    HW1 9188   3.149   2.848   3.250 -0.9104 -1.9134  0.5547
 2952SOL    HW2 9189   3.215   2.819   3.117  0.1276  0.6906  0.4623
 2953SOL     OW 9190   0.315   2.295   4.400 -0.2994  0.0951 -0.6285
 2953SOL    HW1 9191   0.358   2.267   4.320 -0.2119  0.6291 -0.7714
 2953SOL    HW2 9192   0.310   2.216   4.454 -0.4328 -0.2818 -1.1889
 2954SOL     OW 9193   1.370   3.540   5.110  0.1249  0.4611  0.0084
 2954SOL    HW1 9194   1.358   3.450   5.078 -0.4026  0.2822  0.6968
 2954SOL    HW2 9195   1.395   3.590   5.032 -1.4472  0.0917 -0.7520
 2955SOL     OW 9196   2.503   2.009   2.634  0.1715  0.1421  0.1715
 2955SOL    HW1 9197   2.504   1.990   2.540  2.8602 -0.4023  0.2508
 2955SOL    HW2 9198   2.465   2.097   2.640 -0.6616 -0.0941 -1.3760
 2956SOL     OW 9199   1.344   3.120   0.562  0.4856  0.4122  0.3194
 2956SOL    HW1 9200   1.323   3.070   0.483 -2.9148 -1.4514  2.2872
 2956SOL    HW2 9201   1.426   3.081   0.594 -0.2922 -1.6148 -0.0727
 2957SOL     OW 9202   2.552   1.942   3.951 -0.2550 -0.0016 -0.0946
 2957SOL    HW1 9203   2.550   1.922   3.857  0.2296  0.5390 -0.2250
 2957SOL    HW2 9204   2.621   1.886   3.986 -0.3416 -0.1036 -0.0893
 2958SOL     OW 9205   4.321   5.026   0.232 -0.0283 -0.2130  0.0829
 2958SOL    HW1 9206   4.285   5.066   0.153  2.0804 -1.0575 -1.3668
 2958SOL    HW2 9207   4.246   4.990   0.279 -1.3641  0.8754 -1.2188
 2959SOL     OW 9208   0.578   4.250   4.650 -1.0040 -0.0104 -0.1329
 2959SOL    HW1 9209   0.618   4.168   4.680  1.7016  0.8418 -1.2453
 2959SOL    HW2 9210   0.553   4.233   4.560  2.0242  1.1525 -1.2517
 2960SOL     OW 9211   4.004   1.683   3.738  0.1050 -0.2627 -0.2351
 2960SOL    HW1 9212   3.981   1.695   3.830  0.8500 -1.1549  0.0818
 2960SOL    HW2 9213   3.920   1.683   3.691 -0.4008 -1.5508  0.6588
 2961SOL     OW 9214   0.734   4.298   1.669  0.6532  0.3051  0.8133
 2961SOL    HW1 9215   0.659   4.336   1.715 -0.3235  1.5244 -1.6641
 2961SOL    HW2 9216   0.717   4.204   1.670 -0.7993  0.5490  0.5217
 2962SOL     OW 9217   3.427   1.348   1.283  0.1682 -0.2935  0.0808
 2962SOL    HW1 9218   3.372   1.271   1.271  0.3435 -0.3740 -0.2097
 2962SOL    HW2 9219   3.422   1.395   1.200  2.2258 -1.3946 -0.7202
 2963SOL     OW 9220   0.255   2.475   0.561  0.2420  0.1646 -0.3300
 2963SOL    HW1 9221   0.250   2.510   0.472  0.7828  0.0436 -0.4119
 2963SOL    HW2 9222   0.240   2.381   0.551 -1.6980  0.4201 -0.0523
 2964SOL     OW 9223   4.922   2.581   1.113  0.4165 -0.8093  0.1360
 2964SOL    HW1 9224   4.898   2.526   1.039  0.2541  0.4703 -0.7704
 2964SOL    HW2 9225   4.874   2.663   1.099  0.1188 -0.6698  1.8224
 2965SOL     OW 9226   2.142   3.333   1.539  0.1850 -0.2945 -0.6798
 2965SOL    HW1 9227   2.118   3.290   1.457 -0.9679  0.6228 -0.8400
 2965SOL    HW2 9228   2.139   3.263   1.605 -1.2418 -0.5403 -1.0026
 2966SOL     OW 9229   5.363   2.029   4.062 -0.3197 -0.3459 -0.4384
 2966SOL    HW1 9230   5.414   2.001   3.985 -0.9535  0.5924 -1.2031
 2966SOL    HW2 9231   5.275   1.995   4.045 -0.8345  1.1759 -0.8676
 2967SOL     OW 9232   3.834   3.373   0.214 -0.3188 -0.4757 -0.3956
 2967SOL    HW1 9233   3.821   3.320   0.135 -1.8863 -0.2023 -0.3181
 2967SOL    HW2 9234   3.926   3.399   0.209 -0.1672 -1.1931 -1.6805
 2968SOL     OW 9235   0.019   1.496   1.611  0.0264  0.0790  0.1185
 2968SOL    HW1 9236   0.078   1.568   1.635  0.7005 -1.4998  3.4482
 2968SOL    HW2 9237  -0.068   1.525   1.637  0.3791 -0.4976  2.0110
 2969SOL     OW 9238   1.377   1.794   4.105 -0.2709 -0.9342  0.1075
 2969SOL    HW1 9239   1.380   1.757   4.017  0.1177  0.1651 -0.3469
 2969SOL    HW2 9240   1.397   1.887   4.093  2.4956 -1.2872  1.6822
 2970SOL     OW 9241   2.806   2.808   2.653 -0.2986  0.1461 -0.5138
 2970SOL    HW1 9242   2.719   2.806   2.692  0.3812  0.5288  1.0657
 2970SOL    HW2 9243   2.836   2.717   2.654 -1.0073 -0.1138 -1.8481
 2971SOL     OW 9244   5.083   2.524   0.864  0.4031 -0.2733  0.1556
 2971SOL    HW1 9245   5.111   2.534   0.955 -1.9642 -1.2348  1.0135
 2971SOL    HW2 9246   5.049   2.435   0.859  1.0789 -0.4338 -1.8405
 2972SOL     OW 9247   0.333   4.041   2.740 -0.2524  0.2535  0.3086
 2972SOL    HW1 9248   0.248   4.033   2.697  0.1762  1.6962 -0.8401
 2972SOL    HW2 9249   0.324   3.991   2.822 -0.9254 -2.9613 -1.6295
 2973SOL     OW 9250   0.075   4.057   2.634 -0.2223 -0.4519 -0.0240
 2973SOL    HW1 9251   0.049   3.965   2.644 -1.0118 -0.1723  0.5336
 2973SOL    HW2 9252   0.002   4.106   2.670 -0.5831  0.4490 -1.9127
 2974SOL     OW 9253   1.690   2.875   4.597 -0.3677  0.0697 -0.5614
 2974SOL    HW1 9254   1.755   2.944   4.583  2.0651 -1.8851  0.6920
 2974SOL    HW2 9255   1.653   2.859   4.510  0.3421  1.6586 -1.1801
 2975SOL     OW 9256   2.984   4.605   3.736 -0.4282 -0.2293  0.0253
 2975SOL    HW1 9257   2.958   4.633   3.823  0.6687  2.0067 -0.3477
 2975SOL    HW2 9258   2.988   4.509   3.742 -2.3138 -0.2327  1.8428
 2976SOL     OW 9259   0.599   4.288   3.323 -0.0968 -0.2248  0.0694
 2976SOL    HW1 9260   0.563   4.362   3.274 -1.3829 -0.2033  1.0565
 2976SOL    HW2 9261   0.603   4.318   3.413  1.8862 -0.4232  0.0807
 2977SOL     OW 9262   1.104   1.224   3.814  0.2936  0.0251 -0.7702
 2977SOL    HW1 9263   1.166   1.274   3.762  1.1504 -0.6100 -0.3801
 2977SOL    HW2 9264   1.054   1.173   3.750 -0.5401  1.3081 -1.1608
 2978SOL     OW 9265   3.311   5.374   2.833  0.7665 -0.0287 -0.0931
 2978SOL    HW1 9266   3.357   5.370   2.917  0.1812 -2.4356  0.1526
 2978SOL    HW2 9267   3.377   5.401   2.770  1.4148  0.9602  0.9846
 2979SOL     OW 9268   4.511   0.332   4.017  0.1828 -0.0651  0.1813
 2979SOL    HW1 9269   4.606   0.321   4.009  0.0786 -0.5456 -0.3657
 2979SOL    HW2 9270   4.475   0.244   4.009 -0.2548 -0.0021  1.3057
 2980SOL     OW 9271   2.687   3.890   4.495 -0.4473  0.8978  0.2069
 2980SOL    HW1 9272   2.777   3.870   4.523 -0.3034  0.0615 -0.8119
 2980SOL    HW2 9273   2.698   3.951   4.423 -0.7028  0.8939  0.1663
 2981SOL     OW 9274   2.963   4.543   2.242  0.1787  0.1598  0.2502
 2981SOL    HW1 9275   2.984   4.473   2.304 -1.2823 -2.3358 -1.9523
 2981SOL    HW2 9276   2.900   4.598   2.289  0.6583 -0.4971  1.7115
 2982SOL     OW 9277   0.699   4.682   0.246 -0.3737 -0.4396 -0.2127
 2982SOL    HW1 9278   0.790   4.711   0.258 -0.3985 -1.1208  1.7677
 2982SOL    HW2 9279   0.670   4.728   0.167  0.4192  2.9319  1.3380
 2983SOL     OW 9280   1.330   3.110   1.891 -0.2860 -0.2299 -0.5625
 2983SOL    HW1 9281   1.350   3.203   1.883  0.9671 -0.5379 -1.0459
 2983SOL    HW2 9282   1.413   3.066   1.874 -0.2380 -1.3504  2.2983
 2984SOL     OW 9283   2.932   2.995   3.956 -0.0054 -0.0163 -0.2420
 2984SOL    HW1 9284   2.862   2.970   3.894  0.4892  0.2413 -0.9118
 2984SOL    HW2 9285   2.951   3.086   3.935  2.2620 -0.7944 -1.7576
 2985SOL     OW 9286   3.971   3.230   3.131 -0.6906 -0.2696 -0.4481
 2985SOL    HW1 9287   3.882   3.265   3.127 -0.3423  0.5766 -0.7905
 2985SOL    HW2 9288   3.988   3.198   3.043 -0.1631  0.7870 -0.7345
 2986SOL     OW 9289   5.515   3.580   4.240  0.4944  0.1031  0.0890
 2986SOL    HW1 9290   5.571   3.655   4.262  0.2484 -0.3190  2.3338
 2986SOL    HW2 9291   5.467   3.562   4.321 -1.2688 -0.9435 -1.1486
 2987SOL     OW 9292   4.484   3.069   3.147  0.4012  0.1885 -0.4756
 2987SOL    HW1 9293   4.467   2.984   3.107  1.8024  0.1396 -1.0034
 2987SOL    HW2 9294   4.512   3.049   3.236 -2.2822  0.2748  0.4248
 2988SOL     OW 9295   1.933   1.632   1.086  0.7290  0.2746 -0.6899
 2988SOL    HW1 9296   1.964   1.684   1.161  1.1713  0.2155 -0.8278
 2988SOL    HW2 9297   1.843   1.609   1.108 -0.0162  2.4378 -1.3157
 2989SOL     OW 9298   3.957   4.184   3.855 -0.0109 -0.5384  0.3579
 2989SOL    HW1 9299   4.041   4.154   3.820  0.1514 -0.6992  0.8714
 2989SOL    HW2 9300   3.897   4.110   3.839 -0.0888 -0.3711 -0.1292
 2990SOL     OW 9301   5.366   4.570   1.890 -0.8752  0.3134  0.3925
 2990SOL    HW1 9302   5.325   4.514   1.823 -2.2605 -1.1831  2.3959
 2990SOL    HW2 9303   5.455   4.538   1.897 -0.4296  1.1119 -1.3842
 2991SOL     OW 9304   1.343   1.089   1.934  0.1012 -0.3734 -0.3757
 2991SOL    HW1 9305   1.318   1.122   1.847  1.5762  2.2170  0.1330
 2991SOL    HW2 9306   1.419   1.033   1.918  0.4466  0.1998 -0.7543
 2992SOL     OW 9307   1.306   4.887   3.109 -0.3738 -0.4006  0.6508
 2992SOL    HW1 9308   1.262   4.835   3.042 -0.1569  1.6705 -1.1394
 2992SOL    HW2 9309   1.237   4.942   3.147 -0.0161  0.3319  0.2637
 2993SOL     OW 9310   1.797   1.020   3.745  0.4808 -0.2099  0.1136
 2993SOL    HW1 9311   1.712   1.046   3.780  0.7430 -0.8851  1.2890
 2993SOL    HW2 9312   1.840   1.102   3.720 -0.3253  0.1628 -0.0689
 2994SOL     OW 9313   2.391   2.907   2.861 -0.0403  0.3742  0.0514
 2994SOL    HW1 9314   2.424   2.936   2.776  0.0802 -0.5653 -0.2216
 2994SOL    HW2 9315   2.347   2.824   2.843  0.2224  0.0352  0.9474
 2995SOL     OW 9316   0.237   2.945   0.643 -0.2061  0.2917  0.2403
 2995SOL    HW1 9317   0.249   2.923   0.736 -0.0422  1.1139  0.4134
 2995SOL    HW2 9318   0.241   3.040   0.640  1.3813  0.2105 -0.8471
 2996SOL     OW 9319   1.428   3.356   1.908 -0.1079  0.2337  0.3421
 2996SOL    HW1 9320   1.404   3.449   1.900 -0.7018  0.1943  1.5470
 2996SOL    HW2 9321   1.522   3.357   1.925 -0.5658  0.7943  3.1842
 2997SOL     OW 9322   2.174   5.064   3.454 -0.1438  0.2522 -0.0141
 2997SOL    HW1 9323   2.201   5.120   3.526  1.2249 -0.2598 -0.0963
 2997SOL    HW2 9324   2.150   4.981   3.495  1.0547 -0.1847 -0.1532
 2998SOL     OW 9325   5.482   3.330   0.802  0.0703  0.2552 -0.7747
 2998SOL    HW1 9326   5.413   3.394   0.819  0.5990  0.5491  0.2963
 2998SOL    HW2 9327   5.437   3.245   0.806 -0.2543  0.4527 -0.1736
 2999SOL     OW 9328   2.033   5.466   0.732 -0.1977  0.0774  0.2073
 2999SOL    HW1 9329   1.972   5.490   0.801  0.0237 -1.5427  1.0018
 2999SOL    HW2 9330   2.017   5.530   0.662 -1.8586  0.4782  0.9250
 3000SOL     OW 9331   1.402   1.527   3.078  0.3737 -1.4596 -0.3213
 3000SOL    HW1 9332   1.338   1.488   3.138  0.4807 -1.2834 -0.0914
 3000SOL    HW2 9333   1.462   1.575   3.135 -0.2920 -0.1951 -0.6782
 3001SOL     OW 9334   4.586   4.125   2.197 -0.7645 -0.1908  0.5125
 3001SOL    HW1 9335   4.535   4.200   2.164  0.0196 -0.3539 -1.1186
 3001SOL    HW2 9336   4.526   4.051   2.192 -0.7504 -0.1495 -0.2399
 3002SOL     OW 9337   3.364   0.345   0.586 -0.0837  0.1505 -0.3430
 3002SOL    HW1 9338   3.288   0.290   0.569  0.8553 -1.6735  1.0870
 3002SOL    HW2 9339   3.429   0.317   0.521 -0.0378  0.4579 -0.4294
 3003SOL     OW 9340   3.449   1.712   1.354 -0.1799  0.3672  0.2952
 3003SOL    HW1 9341   3.357   1.738   1.360 -1.0310 -2.1970 -0.6970
 3003SOL    HW2 9342   3.461   1.650   1.426  1.3084  2.0516  1.5468
 3004SOL     OW 9343   3.939   0.667   2.854  0.6963  0.2371 -0.0923
 3004SOL    HW1 9344   3.912   0.744   2.804 -0.9837 -0.6035 -0.5042
 3004SOL    HW2 9345   4.028   0.649   2.823  0.8786  1.6454 -0.4338
 3005SOL     OW 9346   1.292   0.307   4.920  0.1002  0.0164 -0.1934
 3005SOL    HW1 9347   1.374   0.324   4.968  1.4188 -2.5198 -1.4639
 3005SOL    HW2 9348   1.224   0.311   4.987  1.4717  0.3161  1.2119
 3006SOL     OW 9349   0.158   0.696   3.439  0.1815 -0.2607 -0.0516
 3006SOL    HW1 9350   0.101   0.650   3.500  0.0729 -1.2001 -0.8577
 3006SOL    HW2 9351   0.108   0.701   3.358 -0.6483  3.0686  0.5614
 3007SOL     OW 9352   3.350   3.144   0.466 -0.8797  0.0912 -0.0382
 3007SOL    HW1 9353   3.370   3.053   0.444 -1.2573 -0.0824  0.3152
 3007SOL    HW2 9354   3.279   3.138   0.530 -0.2237  0.5969  0.7521
 3008SOL     OW 9355   4.301   1.262   2.040  0.2248 -0.7619  0.0391
 3008SOL    HW1 9356   4.224   1.313   2.063  0.3659 -0.6393  0.2520
 3008SOL    HW2 9357   4.358   1.324   1.994  1.9219  0.2624  3.3641
 3009SOL     OW 9358   0.680   2.062   1.294 -0.5686 -0.3178 -0.4479
 3009SOL    HW1 9359   0.639   2.000   1.233  0.4472  1.3982 -2.9845
 3009SOL    HW2 9360   0.616   2.133   1.302 -0.1147  0.1150 -0.6433
 3010SOL     OW 9361   3.419   3.438   3.916 -0.1177 -0.0099 -0.1510
 3010SOL    HW1 9362   3.389   3.525   3.888 -0.4736  0.5877  2.0149
 3010SOL    HW2 9363   3.390   3.379   3.846 -2.8754  1.1354 -0.0583
 3011SOL     OW 9364   0.388   4.017   3.374 -0.0253 -0.0425 -0.0958
 3011SOL    HW1 9365   0.457   4.020   3.441  0.7776  1.6875 -0.9540
 3011SOL    HW2 9366   0.434   3.987   3.295 -0.7400 -1.0226 -0.1445
 3012SOL     OW 9367   2.983   1.208   1.652  0.2985 -0.6137  0.1859
 3012SOL    HW1 9368   3.022   1.176   1.733  1.7426  2.2371  0.6607
 3012SOL    HW2 9369   3.029   1.160   1.583  0.0763 -1.9812  0.9587
 3013SOL     OW 9370   3.951   0.644   5.392  0.5933 -0.1113  0.0272
 3013SOL    HW1 9371   3.974   0.587   5.466 -2.1217 -0.6015  0.5489
 3013SOL    HW2 9372   3.945   0.732   5.430  0.3548 -0.1764  0.1368
 3014SOL     OW 9373   2.786   2.525   2.635 -0.1344 -0.0288  0.0300
 3014SOL    HW1 9374   2.821   2.436   2.632 -0.3288 -0.0788 -1.2902
 3014SOL    HW2 9375   2.707   2.519   2.689  0.8124 -0.2942  1.4130
 3015SOL     OW 9376   4.763   2.206   1.585 -0.0910  0.2108 -0.3298
 3015SOL    HW1 9377   4.682   2.237   1.543  0.4742  1.8388 -0.2441
 3015SOL    HW2 9378   4.805   2.286   1.617  0.8101 -0.7690  0.9684
 3016SOL     OW 9379   0.389   4.966   0.800  0.1657  0.3718  1.0031
 3016SOL    HW1 9380   0.308   4.918   0.784 -0.2886  1.3045  0.4710
 3016SOL    HW2 9381   0.371   5.019   0.877  0.2743  0.5576  0.9015
 3017SOL     OW 9382   0.349   4.500   1.070 -0.3561 -0.5636 -0.0158
 3017SOL    HW1 9383   0.372   4.448   1.146  1.8782  1.0484  0.4666
 3017SOL    HW2 9384   0.363   4.591   1.098 -2.6545  0.2330 -1.3136
 3018SOL     OW 9385   2.827   0.559   1.798 -0.3880 -0.0312  0.2971
 3018SOL    HW1 9386   2.862   0.479   1.837 -0.8518 -0.0724  0.6290
 3018SOL    HW2 9387   2.732   0.546   1.798 -0.3842 -0.1049 -1.0111
 3019SOL     OW 9388   3.248   2.359   5.068  0.1601  0.0027 -0.1939
 3019SOL    HW1 9389   3.188   2.286   5.085  1.6912 -1.4245 -0.7012
 3019SOL    HW2 9390   3.193   2.437   5.067 -1.7708 -1.3394 -1.2420
 3020SOL     OW 9391   2.274   1.859   0.909 -0.0529 -0.2012 -0.2856
 3020SOL    HW1 9392   2.358   1.827   0.942 -0.7638 -0.3757  1.3902
 3020SOL    HW2 9393   2.258   1.941   0.957 -0.2957  0.4279 -1.4266
 3021SOL     OW 9394   3.607   3.516   1.338  0.0613  0.4206  0.4080
 3021SOL    HW1 9395   3.608   3.586   1.274  4.3138  1.0299  0.9576
 3021SOL    HW2 9396   3.543   3.544   1.404  0.7552  3.1952 -0.0299
 3022SOL     OW 9397   0.161   3.479   0.102 -0.2086  0.1148 -0.1349
 3022SOL    HW1 9398   0.237   3.531   0.074 -0.7089  1.8592  1.5579
 3022SOL    HW2 9399   0.153   3.499   0.196 -2.4102 -0.5037 -0.1797
 3023SOL     OW 9400   4.754   5.179   4.455 -0.2137 -0.9024  0.4219
 3023SOL    HW1 9401   4.830   5.129   4.485  0.3373 -0.0627  0.4179
 3023SOL    HW2 9402   4.782   5.220   4.374 -1.1181 -1.6810 -0.3065
 3024SOL     OW 9403   3.120   0.292   1.500 -0.1991  0.4745 -0.6494
 3024SOL    HW1 9404   3.025   0.285   1.512  0.0799 -0.2232  1.3091
 3024SOL    HW2 9405   3.133   0.378   1.459 -1.5810  1.0687  0.1589
 3025SOL     OW 9406   1.469   3.533   3.608 -0.5242  0.2412  0.6984
 3025SOL    HW1 9407   1.513   3.447   3.613 -0.5614  0.1191 -0.9458
 3025SOL    HW2 9408   1.384   3.518   3.648  0.4113  0.1449  2.7161
 3026SOL     OW 9409   2.368   3.627   2.538  0.4830  0.4131 -0.1622
 3026SOL    HW1 9410   2.374   3.687   2.613  1.7124  0.5800 -0.3848
 3026SOL    HW2 9411   2.323   3.550   2.573  0.6508  0.6707  0.6361
 3027SOL     OW 9412   2.801   1.879   3.256  0.0837 -0.0542  0.3736
 3027SOL    HW1 9413   2.732   1.833   3.207 -0.0823 -0.4964  1.0097
 3027SOL    HW2 9414   2.794   1.843   3.345 -0.3335  1.5173  0.9938
 3028SOL     OW 9415   4.539   1.212   2.215  0.1715  0.3305  0.5252
 3028SOL    HW1 9416   4.458   1.253   2.183 -0.0964  0.5386  1.4686
 3028SOL    HW2 9417   4.554   1.251   2.300  0.7684 -0.3913  0.7573
 3029SOL     OW 9418   5.017   5.362   3.757 -0.4764  0.5442 -0.6082
 3029SOL    HW1 9419   5.068   5.369   3.675 -1.4145 -1.5330 -1.4026
 3029SOL    HW2 9420   4.926   5.356   3.728 -0.8215 -0.1574  0.5978
 3030SOL     OW 9421   2.885   3.555   0.672 -0.3886  0.1793  0.3828
 3030SOL    HW1 9422   2.912   3.644   0.695  0.1019  0.1364 -0.0193
 3030SOL    HW2 9423   2.844   3.564   0.586  0.9957 -0.2063 -0.3287
 3031SOL     OW 9424   0.312   1.579   4.271 -0.0623 -0.2556  0.1187
 3031SOL    HW1 9425   0.228   1.593   4.313  0.1497  0.3980  0.3294
 3031SOL    HW2 9426   0.294   1.516   4.201 -0.5122 -0.9457  0.8468
 3032SOL     OW 9427   2.589   2.143   4.986  0.0905 -0.5783  0.2190
 3032SOL    HW1 9428   2.582   2.051   5.009 -0.0977 -0.9408 -1.2145
 3032SOL    HW2 9429   2.676   2.152   4.948 -0.8003 -0.7247 -1.9532
 3033SOL     OW 9430   5.293   0.962   3.224  0.0487  0.3495 -0.1172
 3033SOL    HW1 9431   5.275   1.017   3.148 -0.2954  1.6482  0.8966
 3033SOL    HW2 9432   5.369   0.909   3.197 -0.8266 -0.1039 -1.7982
 3034SOL     OW 9433   1.859   3.039   3.380  0.2275 -0.3331 -0.4946
 3034SOL    HW1 9434   1.893   2.966   3.432 -1.1186  0.7290  1.9605
 3034SOL    HW2 9435   1.937   3.080   3.342  1.1442 -1.8581 -0.2750
 3035SOL     OW 9436   4.173   3.626   2.533 -0.3227 -0.2274  0.1815
 3035SOL    HW1 9437   4.187   3.533   2.517 -0.4019 -0.3341  0.7364
 3035SOL    HW2 9438   4.142   3.631   2.624  0.1140  0.3768  0.2991
 3036SOL     OW 9439   1.930   2.535   3.804  0.5330 -0.0194  0.1136
 3036SOL    HW1 9440   1.872   2.544   3.880  0.1815 -1.8440  0.0769
 3036SOL    HW2 9441   1.871   2.527   3.729  0.7870 -2.7447  0.1727
 3037SOL     OW 9442   4.986   5.480   2.598  0.6783 -0.0386  0.2159
 3037SOL    HW1 9443   4.923   5.488   2.670 -0.9167  2.1225 -1.3741
 3037SOL    HW2 9444   5.071   5.487   2.641 -0.2299  0.9626  1.9455
 3038SOL     OW 9445   4.756   1.409   0.332  0.4549 -0.2313  0.0426
 3038SOL    HW1 9446   4.802   1.492   0.323  1.3409 -0.8118 -0.9546
 3038SOL    HW2 9447   4.825   1.342   0.332 -0.1744 -0.9104  1.9336
 3039SOL     OW 9448   1.091   5.491   3.580  0.1908  0.0872  0.8711
 3039SOL    HW1 9449   1.104   5.569   3.634  3.1883  0.2647  0.0027
 3039SOL    HW2 9450   1.079   5.525   3.491  1.0473 -0.4133  0.5591
 3040SOL     OW 9451   0.328   3.691   3.859 -0.5772 -0.0386 -0.4582
 3040SOL    HW1 9452   0.351   3.646   3.940  1.5074  1.4030 -0.2013
 3040SOL    HW2 9453   0.261   3.636   3.818 -0.8464 -1.3480  1.6909
 3041SOL     OW 9454   2.431   2.436   4.625 -0.3300 -0.2196  0.2759
 3041SOL    HW1 9455   2.439   2.368   4.558 -0.7553 -0.6779  0.6820
 3041SOL    HW2 9456   2.392   2.391   4.700 -1.4923  0.6827  0.2335
 3042SOL     OW 9457   0.943   1.749   4.300 -1.0757 -0.2937  0.1363
 3042SOL    HW1 9458   0.934   1.655   4.284 -0.7616 -0.3078  0.0175
 3042SOL    HW2 9459   1.036   1.760   4.320 -0.5761  0.3323 -2.3420
 3043SOL     OW 9460   2.359   5.459   3.581 -0.0382 -0.0750  0.2791
 3043SOL    HW1 9461   2.299   5.531   3.601 -0.7696 -0.2088 -1.3808
 3043SOL    HW2 9462   2.445   5.501   3.571 -0.7169  0.8010 -2.1705
 3044SOL     OW 9463   4.748   1.848   3.494 -0.0271  0.2807 -0.0360
 3044SOL    HW1 9464   4.765   1.848   3.588 -0.0967 -1.4086 -0.0052
 3044SOL    HW2 9465   4.835   1.849   3.454  0.0167  0.0570  0.0529
 3045SOL     OW 9466   1.887   5.139   3.963 -0.3617 -0.4088 -0.6281
 3045SOL    HW1 9467   1.914   5.135   3.871  1.5592  1.3372 -0.1775
 3045SOL    HW2 9468   1.908   5.052   3.998  1.3635 -0.2598 -1.2177
 3046SOL     OW 9469   2.391   5.248   1.554  0.3445  0.4726 -1.0009
 3046SOL    HW1 9470   2.442   5.294   1.487 -2.4985  1.9454 -2.2451
 3046SOL    HW2 9471   2.354   5.317   1.608 -0.1356 -0.5560  0.0135
 3047SOL     OW 9472   0.640   0.367   0.095  0.4293 -0.1213 -0.2559
 3047SOL    HW1 9473   0.612   0.276   0.088  0.3399 -0.2395  1.3281
 3047SOL    HW2 9474   0.673   0.375   0.185  0.4821  1.3966 -0.3897
 3048SOL     OW 9475   2.191   3.004   3.975  0.1072 -0.7349 -0.0312
 3048SOL    HW1 9476   2.259   2.961   4.028 -0.8726 -4.2362 -1.4855
 3048SOL    HW2 9477   2.112   2.954   3.992 -1.1950  0.7552 -1.5407
 3049SOL     OW 9478   1.431   1.283   4.666  0.0290  0.3831  0.2358
 3049SOL    HW1 9479   1.386   1.368   4.673 -1.0370 -0.2946  1.9085
 3049SOL    HW2 9480   1.362   1.222   4.640  0.6479 -0.0996 -0.2772
 3050SOL     OW 9481   4.553   4.312   1.495  0.3135  0.8155  0.4144
 3050SOL    HW1 9482   4.531   4.323   1.587  1.6027  1.4744  0.6691
 3050SOL    HW2 9483   4.630   4.368   1.483  1.1848 -0.5978 -0.6496
 3051SOL     OW 9484   2.188   0.111   0.186 -0.1689  0.1161  0.5337
 3051SOL    HW1 9485   2.110   0.162   0.162 -0.3147 -0.1063  0.5373
 3051SOL    HW2 9486   2.155   0.023   0.203  0.4263 -0.5819 -1.8007
 3052SOL     OW 9487   2.648   0.463   3.826  0.1012  0.1476  0.6976
 3052SOL    HW1 9488   2.707   0.388   3.821  1.7898  1.3879  1.3884
 3052SOL    HW2 9489   2.678   0.512   3.903 -1.8181  0.8324  1.0392
 3053SOL     OW 9490   5.306   2.163   2.975 -0.2733  0.2603  0.2193
 3053SOL    HW1 9491   5.400   2.146   2.982 -0.0740  1.4535  0.6185
 3053SOL    HW2 9492   5.268   2.078   2.955  0.7594 -0.4972  1.3441
 3054SOL     OW 9493   4.294   2.406   0.675  0.0342 -0.0645 -0.2619
 3054SOL    HW1 9494   4.222   2.455   0.715 -0.0318  0.1964 -0.6925
 3054SOL    HW2 9495   4.257   2.319   0.660  0.1860 -0.2766  0.5964
 3055SOL     OW 9496   5.229   0.547   3.587  0.3065 -0.2670  0.1456
 3055SOL    HW1 9497   5.258   0.488   3.518 -0.3624 -0.3905 -0.0294
 3055SOL    HW2 9498   5.250   0.635   3.555 -0.6398 -0.2804 -0.5187
 3056SOL     OW 9499   4.146   3.653   1.147  0.2489  0.3197  0.4774
 3056SOL    HW1 9500   4.060   3.618   1.173 -0.0006  0.9187  0.4571
 3056SOL    HW2 9501   4.128   3.742   1.119  0.4999 -0.3074 -1.7558
 3057SOL     OW 9502   4.718   0.470   4.247 -0.2382  0.6312 -0.0232
 3057SOL    HW1 9503   4.729   0.402   4.181 -0.6464 -0.3441  0.8994
 3057SOL    HW2 9504   4.771   0.440   4.321  0.5077  1.8917 -0.0350
 3058SOL     OW 9505   3.440   4.828   4.979 -0.0361 -0.0770  0.1379
 3058SOL    HW1 9506   3.420   4.753   4.922  0.6435 -0.4021  0.3172
 3058SOL    HW2 9507   3.427   4.905   4.924  0.7242 -0.3939 -0.4976
 3059SOL     OW 9508   5.307   4.517   5.129 -0.6167 -0.1510  0.6688
 3059SOL    HW1 9509   5.359   4.446   5.168 -0.9107 -1.6003 -1.4720
 3059SOL    HW2 9510   5.371   4.570   5.082 -0.7661 -0.7441 -0.2278
 3060SOL     OW 9511   5.119   5.376   2.273 -0.1457 -0.5767  0.0426
 3060SOL    HW1 9512   5.072   5.294   2.282  1.9759 -1.8530 -0.1113
 3060SOL    HW2 9513   5.124   5.391   2.179  1.9189 -1.7729 -0.0647
 3061SOL     OW 9514   4.818   0.032   1.078 -0.0332 -0.0738 -0.3691
 3061SOL    HW1 9515   4.812   0.001   0.988  2.3896  1.6780 -1.1920
 3061SOL    HW2 9516   4.821   0.127   1.070  1.8356  0.0401  1.4249
 3062SOL     OW 9517   2.957   0.199   2.088 -0.0858  0.1269 -0.0334
 3062SOL    HW1 9518   3.030   0.234   2.037 -0.1485  0.2132 -0.0642
 3062SOL    HW2 9519   2.889   0.266   2.083 -0.5686 -0.4151 -0.9083
 3063SOL     OW 9520   2.560   0.064   4.034 -0.0654  0.1392  0.2261
 3063SOL    HW1 9521   2.489   0.118   4.067  0.4982  2.3266 -1.9611
 3063SOL    HW2 9522   2.518  -0.018   4.008 -1.2224  0.1721  1.9182
 3064SOL     OW 9523   2.956   4.268   2.054 -0.1064  0.3696 -0.2870
 3064SOL    HW1 9524   2.956   4.185   2.006 -2.3508  1.4717 -2.3194
 3064SOL    HW2 9525   2.994   4.332   1.993 -0.4824  1.2748  0.4051
 3065SOL     OW 9526   2.230   0.292   5.033 -0.1376  0.0763 -0.4099
 3065SOL    HW1 9527   2.151   0.336   5.065 -0.6860 -0.2058 -1.3628
 3065SOL    HW2 9528   2.300   0.356   5.048 -0.7950  0.9514 -1.0209
 3066SOL     OW 9529   4.897   4.640   3.309  0.6216  0.5311 -0.5683
 3066SOL    HW1 9530   4.971   4.683   3.268  1.6970 -0.5822  0.1605
 3066SOL    HW2 9531   4.894   4.553   3.268  0.9238 -0.1303  0.8046
 3067SOL     OW 9532   2.589   4.875   5.293 -0.2768 -0.0269 -0.1474
 3067SOL    HW1 9533   2.671   4.828   5.278  0.1415  1.4222 -2.7344
 3067SOL    HW2 9534   2.615   4.953   5.343 -0.3930 -0.5197  0.7005
 3068SOL     OW 9535   1.545   1.295   1.257 -0.0458  0.3521  0.5449
 3068SOL    HW1 9536   1.625   1.281   1.308  0.1776  0.8968  0.3464
 3068SOL    HW2 9537   1.567   1.268   1.168  0.0978  1.0646  0.3642
 3069SOL     OW 9538   4.633   4.489   3.627 -0.0471  0.1493  0.2420
 3069SOL    HW1 9539   4.695   4.534   3.570 -0.7951  1.8212  0.6946
 3069SOL    HW2 9540   4.682   4.471   3.707  0.1541  0.5360  0.2082
 3070SOL     OW 9541   1.602   3.167   1.198 -0.0836 -0.1370  0.0989
 3070SOL    HW1 9542   1.587   3.095   1.259 -0.1349  0.7837  1.1862
 3070SOL    HW2 9543   1.667   3.222   1.240  1.6150 -0.6980 -1.7253
 3071SOL     OW 9544   5.115   0.031   0.257  0.8884  0.3938  0.5397
 3071SOL    HW1 9545   5.088   0.122   0.269 -0.3857 -0.0557  1.1095
 3071SOL    HW2 9546   5.157   0.008   0.340  1.3944  0.5154  0.3217
 3072SOL     OW 9547   3.410   3.749   0.280 -0.1178 -0.5264  0.5411
 3072SOL    HW1 9548   3.427   3.658   0.303  2.6569 -0.1074  0.3918
 3072SOL    HW2 9549   3.484   3.798   0.317  0.5557  1.1198 -2.7665
 3073SOL     OW 9550   5.199   0.192   2.084  0.4606 -0.0521  0.3692
 3073SOL    HW1 9551   5.176   0.274   2.127  1.1943  0.4851 -0.2371
 3073SOL    HW2 9552   5.292   0.202   2.063 -0.2123  0.3362 -2.6662
 3074SOL     OW 9553   0.912   1.469   1.330  0.7061 -0.5069 -0.1235
 3074SOL    HW1 9554   0.859   1.548   1.323 -0.1911 -0.8057  2.7012
 3074SOL    HW2 9555   0.969   1.485   1.406  1.6765 -1.8856 -0.5513
 3075SOL     OW 9556   3.771   5.479   5.223  0.2653 -0.3759 -0.1867
 3075SOL    HW1 9557   3.764   5.431   5.305  1.8020 -1.2679 -0.5556
 3075SOL    HW2 9558   3.681   5.489   5.193 -0.3759  0.8562  2.1088
 3076SOL     OW 9559   1.352   0.880   5.454 -0.3148 -0.7302 -0.1293
 3076SOL    HW1 9560   1.421   0.875   5.521 -0.3508 -0.3839 -0.0688
 3076SOL    HW2 9561   1.398   0.867   5.371 -0.2384 -0.9314 -0.0565
 3077SOL     OW 9562   4.146   2.812   4.048  0.1884  0.2822 -0.7044
 3077SOL    HW1 9563   4.212   2.744   4.055 -0.4831 -0.2963  0.0419
 3077SOL    HW2 9564   4.080   2.776   3.989 -0.3286  0.1584 -0.0472
 3078SOL     OW 9565   1.364   1.388   0.354 -0.1587 -0.3907 -0.3902
 3078SOL    HW1 9566   1.335   1.297   0.360 -1.3518  0.0896  1.5245
 3078SOL    HW2 9567   1.413   1.402   0.435 -1.7863  1.2723  0.3408
 3079SOL     OW 9568   4.296   0.368   0.333 -0.4555 -0.0354  0.2741
 3079SOL    HW1 9569   4.289   0.280   0.370  0.4835  0.2815  1.2378
 3079SOL    HW2 9570   4.227   0.418   0.377 -1.5497 -0.4926 -0.9017
 3080SOL     OW 9571   4.307   4.840   2.056 -0.0043  0.3213 -0.0925
 3080SOL    HW1 9572   4.309   4.746   2.072 -0.7886  0.4324  0.7253
 3080SOL    HW2 9573   4.301   4.848   1.960  1.8718 -0.4088 -0.2891
 3081SOL     OW 9574   0.922   0.936   1.778  0.1257  0.3862  0.9738
 3081SOL    HW1 9575   0.999   0.942   1.835  0.4557 -0.4192  0.6152
 3081SOL    HW2 9576   0.924   1.015   1.726  0.4232  0.6124  1.3268
 3082SOL     OW 9577   1.171   3.553   1.917 -0.2698 -0.1494  0.1107
 3082SOL    HW1 9578   1.186   3.587   1.829 -1.4197  1.4816  0.5255
 3082SOL    HW2 9579   1.190   3.627   1.975  0.9114 -1.3433  1.2611
 3083SOL     OW 9580   2.072   0.166   2.022 -0.3186 -0.7744  0.4527
 3083SOL    HW1 9581   2.138   0.235   2.029 -0.9953 -0.0476 -0.3105
 3083SOL    HW2 9582   2.055   0.141   2.113 -1.1408  1.0839  0.8318
 3084SOL     OW 9583   4.634   1.484   1.258  0.0123  0.0904 -0.4105
 3084SOL    HW1 9584   4.668   1.460   1.344 -1.3163  0.5997  0.2727
 3084SOL    HW2 9585   4.575   1.557   1.275 -1.3708 -0.7228 -1.5581
 3085SOL     OW 9586   2.540   1.758   1.068 -0.1404  1.0538 -0.6141
 3085SOL    HW1 9587   2.598   1.830   1.091  0.5831 -0.7108  3.4968
 3085SOL    HW2 9588   2.598   1.683   1.056 -1.3511 -0.6076  3.0594
 3086SOL     OW 9589   2.257   1.643   2.727  0.1695 -0.1058  0.0847
 3086SOL    HW1 9590   2.164   1.628   2.743 -0.0006  0.0133 -0.7602
 3086SOL    HW2 9591   2.275   1.593   2.647  1.0177 -0.7875  0.6947
 3087SOL     OW 9592   2.762   0.418   0.345  0.2271  0.0081 -0.6942
 3087SOL    HW1 9593   2.739   0.488   0.284 -0.7859  1.7703  1.6342
 3087SOL    HW2 9594   2.858   0.417   0.345  0.2581  1.4999 -0.6809
 3088SOL     OW 9595   3.306   0.943   0.778 -0.4136 -0.1409 -0.2464
 3088SOL    HW1 9596   3.272   0.950   0.689 -0.6961 -0.7406 -0.1866
 3088SOL    HW2 9597   3.256   0.872   0.818 -0.7527  0.5577  0.6018
 3089SOL     OW 9598   0.423   5.337   2.227  0.2979  0.1660 -0.1453
 3089SOL    HW1 9599   0.333   5.346   2.194  0.3377 -1.3983 -0.7252
 3089SOL    HW2 9600   0.460   5.425   2.219 -1.0934  0.7708 -0.1529
 3090SOL     OW 9601   4.488   3.441   3.138 -0.4179 -0.2228 -0.0063
 3090SOL    HW1 9602   4.578   3.464   3.157 -0.7058  0.6523  0.3534
 3090SOL    HW2 9603   4.441   3.456   3.220 -0.9941 -0.0403 -0.3611
 3091SOL     OW 9604   3.169   1.995   0.241  0.4801 -0.6643  0.6452
 3091SOL    HW1 9605   3.169   1.948   0.158 -1.3273 -0.4148  0.4721
 3091SOL    HW2 9606   3.217   1.938   0.301 -1.0330 -2.4134  0.2428
 3092SOL     OW 9607   2.381   3.308   4.354  0.1577  0.2490  0.0322
 3092SOL    HW1 9608   2.332   3.365   4.295  0.5270  1.4986  0.9146
 3092SOL    HW2 9609   2.347   3.328   4.441  1.0310 -0.1108  0.4698
 3093SOL     OW 9610   2.808   5.497   4.473 -0.4204 -0.2174  0.1729
 3093SOL    HW1 9611   2.832   5.553   4.399 -0.5947 -0.4358 -0.0470
 3093SOL    HW2 9612   2.720   5.466   4.453 -0.7488  0.2854  0.8077
 3094SOL     OW 9613   1.366   3.941   4.604 -0.2518 -0.3316 -0.2059
 3094SOL    HW1 9614   1.375   3.969   4.513 -1.4266  0.1744 -0.1746
 3094SOL    HW2 9615   1.373   3.846   4.600  2.6318 -0.1444 -0.4481
 3095SOL     OW 9616   3.289   2.482   1.063 -0.3504  0.1680  0.3028
 3095SOL    HW1 9617   3.317   2.539   0.991  0.0454  0.6541  0.8403
 3095SOL    HW2 9618   3.339   2.401   1.049 -0.2535  0.2685  0.0465
 3096SOL     OW 9619   3.397   2.746   2.073 -0.2920 -0.7979 -0.4460
 3096SOL    HW1 9620   3.473   2.687   2.070  0.1711 -0.1931 -0.9255
 3096SOL    HW2 9621   3.337   2.705   2.135  0.3076 -1.4331 -0.2748
 3097SOL     OW 9622   3.205   4.852   2.196 -0.0189 -0.1271 -0.2503
 3097SOL    HW1 9623   3.131   4.883   2.247  0.8438  1.0919  0.2938
 3097SOL    HW2 9624   3.217   4.918   2.128  1.0817  0.1293  0.1768
 3098SOL     OW 9625   2.241   0.384   1.993  0.6426  0.0577  0.3547
 3098SOL    HW1 9626   2.179   0.453   2.017  0.7764  0.6771 -1.0811
 3098SOL    HW2 9627   2.267   0.405   1.904  0.5196 -1.9736 -0.1812
 3099SOL     OW 9628   2.357   5.409   4.578  0.0089  0.0802 -0.3936
 3099SOL    HW1 9629   2.438   5.410   4.527 -0.7098  0.8010 -1.5490
 3099SOL    HW2 9630   2.369   5.479   4.643 -0.0356  0.7598 -1.1167
 3100SOL     OW 9631   1.633   5.566   4.657  0.4491 -0.0844 -0.4542
 3100SOL    HW1 9632   1.625   5.620   4.736  0.2986  1.3137 -1.4014
 3100SOL    HW2 9633   1.677   5.487   4.687  1.5804  0.9859  0.7861
 3101SOL     OW 9634   1.544   3.505   0.829  0.0278  0.1715  0.2865
 3101SOL    HW1 9635   1.484   3.443   0.787 -0.3556  0.8104 -0.1145
 3101SOL    HW2 9636   1.597   3.540   0.756 -1.4722  2.2053  0.1468
 3102SOL     OW 9637   2.800   0.474   2.106  0.2135 -0.2666  0.1979
 3102SOL    HW1 9638   2.708   0.501   2.102  0.3764  0.1338 -1.0240
 3102SOL    HW2 9639   2.848   0.550   2.072  0.9328 -0.8142 -0.0114
 3103SOL     OW 9640   5.284   5.197   3.805 -0.0033  0.4679  0.0960
 3103SOL    HW1 9641   5.298   5.109   3.770  1.4992  1.1564 -1.1526
 3103SOL    HW2 9642   5.245   5.246   3.732  1.1597  1.3654  0.0483
 3104SOL     OW 9643   1.334   4.208   3.542 -0.2008  0.1502 -0.1627
 3104SOL    HW1 9644   1.313   4.289   3.588 -0.1975  0.0418  0.0331
 3104SOL    HW2 9645   1.301   4.139   3.600 -2.2531  0.0763 -1.3730
 3105SOL     OW 9646   3.629   1.296   1.663 -0.2003 -0.4373 -0.0419
 3105SOL    HW1 9647   3.581   1.275   1.743  0.2834 -0.6775  0.1859
 3105SOL    HW2 9648   3.620   1.218   1.609  0.4099 -0.6957  0.2306
 3106SOL     OW 9649   4.866   0.555   0.819  0.0748  0.1979 -0.2929
 3106SOL    HW1 9650   4.955   0.577   0.847 -0.1371  0.4735  0.1619
 3106SOL    HW2 9651   4.846   0.617   0.749  0.5741 -0.4386 -1.0119
 3107SOL     OW 9652   1.300   1.164   1.668 -0.8388  0.2269  0.0238
 3107SOL    HW1 9653   1.314   1.072   1.644 -0.2353 -0.1738  1.7924
 3107SOL    HW2 9654   1.368   1.212   1.622  0.4862 -0.5471  1.1354
 3108SOL     OW 9655   4.097   1.276   2.898  0.1595 -0.0839 -0.0943
 3108SOL    HW1 9656   4.105   1.181   2.892  0.7207 -0.0242 -0.2251
 3108SOL    HW2 9657   4.005   1.290   2.922 -0.2962 -0.5991 -1.4613
 3109SOL     OW 9658   2.615   3.398   3.121  0.5727  0.2671 -0.1056
 3109SOL    HW1 9659   2.602   3.316   3.169 -2.6649  0.6382 -0.2616
 3109SOL    HW2 9660   2.644   3.460   3.187  0.7380 -0.4048  0.4634
 3110SOL     OW 9661   2.447   3.178   4.776  0.1368 -0.2593 -0.0143
 3110SOL    HW1 9662   2.421   3.244   4.839  0.0773  0.8138 -1.1445
 3110SOL    HW2 9663   2.379   3.110   4.782 -1.0141  0.8450 -0.4389
 3111SOL     OW 9664   5.247   5.217   5.202  0.4282  0.2254 -0.5262
 3111SOL    HW1 9665   5.158   5.221   5.167  0.9337 -0.0772 -1.8970
 3111SOL    HW2 9666   5.278   5.130   5.177  1.3434  0.5848 -0.6611
 3112SOL     OW 9667   1.614   2.899   4.260  0.4273 -0.5450  0.0901
 3112SOL    HW1 9668   1.577   2.987   4.265 -0.8646 -1.1572  1.5544
 3112SOL    HW2 9669   1.688   2.907   4.199  0.2332  1.5132  0.1141
 3113SOL     OW 9670   2.465   2.052   2.115  0.7146  0.2010  0.0302
 3113SOL    HW1 9671   2.466   2.023   2.024 -0.9543  1.2587 -0.3418
 3113SOL    HW2 9672   2.496   2.142   2.112  1.1101  0.0861  0.5682
 3114SOL     OW 9673   2.544   1.650   2.767  0.1613 -0.2681 -0.1050
 3114SOL    HW1 9674   2.449   1.648   2.754  0.2538 -1.0484 -0.7445
 3114SOL    HW2 9675   2.562   1.575   2.824  0.0698  1.6109  2.4422
 3115SOL     OW 9676   4.746   4.699   0.635 -0.2451 -0.3416 -0.0807
 3115SOL    HW1 9677   4.798   4.639   0.580  0.7002 -0.0962  0.5236
 3115SOL    HW2 9678   4.804   4.720   0.708 -1.0878  0.2178  0.4345
 3116SOL     OW 9679   2.515   2.443   3.362 -0.2956  0.0171 -0.4191
 3116SOL    HW1 9680   2.511   2.514   3.297 -0.0781 -1.3019 -1.9252
 3116SOL    HW2 9681   2.459   2.472   3.434  0.8891  2.3310 -0.3779
 3117SOL     OW 9682   4.920   5.454   3.044 -0.6443 -0.1873  0.0928
 3117SOL    HW1 9683   4.925   5.446   3.139 -0.8972 -0.1003  0.1115
 3117SOL    HW2 9684   4.965   5.376   3.012  2.4229  1.4236  0.2745
 3118SOL     OW 9685   3.329   1.360   5.046 -0.4533 -0.1364  0.4585
 3118SOL    HW1 9686   3.300   1.449   5.065 -0.9080 -0.0785 -0.4848
 3118SOL    HW2 9687   3.307   1.310   5.124 -4.8026 -0.4876 -0.8835
 3119SOL     OW 9688   3.993   3.343   0.652 -0.4331 -0.2162 -0.4972
 3119SOL    HW1 9689   3.926   3.320   0.588 -3.0892  0.9987  1.7231
 3119SOL    HW2 9690   4.010   3.436   0.636 -1.9607  0.3980  1.2104
 3120SOL     OW 9691   2.042   3.705   2.079  0.4137 -0.2768 -0.1299
 3120SOL    HW1 9692   2.121   3.757   2.097 -0.1177  0.3421  0.4258
 3120SOL    HW2 9693   1.971   3.754   2.122 -0.4451 -0.2530 -1.5616
 3121SOL     OW 9694   2.729   2.609   5.409 -0.3948  0.2300  0.0204
 3121SOL    HW1 9695   2.820   2.620   5.435 -0.1651 -0.7403 -0.3474
 3121SOL    HW2 9696   2.678   2.648   5.480  0.2621 -0.7715  1.0421
 3122SOL     OW 9697   0.831   0.859   0.589 -0.4560 -0.4978  0.4789
 3122SOL    HW1 9698   0.830   0.897   0.676  0.9637 -1.1847  0.8225
 3122SOL    HW2 9699   0.919   0.822   0.580 -0.3056  0.2733 -1.5566
 3123SOL     OW 9700   2.650   0.446   4.280  0.3227  0.2033 -0.3657
 3123SOL    HW1 9701   2.591   0.515   4.248 -1.0135 -0.6793  0.1318
 3123SOL    HW2 9702   2.631   0.441   4.374  0.2662 -0.9770 -0.4365
 3124SOL     OW 9703   1.596   4.440   3.169 -0.0423 -0.0548  0.5483
 3124SOL    HW1 9704   1.636   4.394   3.096  0.7152 -0.3017  1.1151
 3124SOL    HW2 9705   1.536   4.376   3.208 -1.1497  0.3828 -0.4268
 3125SOL     OW 9706   0.019   4.161   5.269 -0.6227 -0.3903  0.5708
 3125SOL    HW1 9707   0.023   4.082   5.322 -0.4585 -0.3648  0.5966
 3125SOL    HW2 9708   0.066   4.139   5.188 -2.8791 -1.1981 -0.5699
 3126SOL     OW 9709   0.930   3.384   3.763 -0.2033 -0.6521 -0.4629
 3126SOL    HW1 9710   0.972   3.328   3.698 -0.0819 -0.5573 -0.4662
 3126SOL    HW2 9711   0.843   3.401   3.727  0.1393  0.0396 -0.9764
 3127SOL     OW 9712   4.368   0.012   0.796 -0.1197 -0.3225  0.1668
 3127SOL    HW1 9713   4.404   0.012   0.885 -1.2435 -3.4441  0.6893
 3127SOL    HW2 9714   4.289   0.065   0.801  0.9105  1.2202  0.5114
 3128SOL     OW 9715   2.958   4.259   0.343  0.0219  0.4987 -0.7780
 3128SOL    HW1 9716   2.958   4.173   0.384 -1.6376  0.2454 -1.2722
 3128SOL    HW2 9717   2.995   4.245   0.256 -0.5754  0.2028 -0.9900
 3129SOL     OW 9718   1.227   1.115   5.557  0.3226 -0.1792  0.2917
 3129SOL    HW1 9719   1.209   1.093   5.648  1.1776 -1.0503  0.2710
 3129SOL    HW2 9720   1.263   1.034   5.520  1.2056  0.5449 -0.4645
 3130SOL     OW 9721   0.920   3.667   1.523 -0.0972  1.2842  0.0930
 3130SOL    HW1 9722   0.871   3.703   1.449 -2.0169 -0.7023  0.3173
 3130SOL    HW2 9723   0.857   3.666   1.595  1.0715  1.1105  1.1237
 3131SOL     OW 9724   4.007   2.108   1.756  0.3865  0.3504  0.2988
 3131SOL    HW1 9725   3.931   2.051   1.756 -0.8040  1.8916 -0.7132
 3131SOL    HW2 9726   4.050   2.092   1.672 -0.4903  1.6311 -0.4010
 3132SOL     OW 9727   0.044   1.251   1.734 -1.2120  1.1357 -0.2494
 3132SOL    HW1 9728   0.030   1.332   1.685  0.0461  1.2279 -0.4656
 3132SOL    HW2 9729   0.046   1.183   1.667 -0.6000  1.1303 -0.2299
 3133SOL     OW 9730   4.351   0.261   5.095 -0.1884  0.0456 -0.3309
 3133SOL    HW1 9731   4.422   0.202   5.120 -0.7039 -0.3627  0.1795
 3133SOL    HW2 9732   4.335   0.242   5.003  0.0817 -0.1586 -0.3366
 3134SOL     OW 9733   1.349   1.606   5.540 -0.1847 -0.7954 -0.2344
 3134SOL    HW1 9734   1.283   1.541   5.512 -1.7462  0.4431  0.4853
 3134SOL    HW2 9735   1.303   1.660   5.604  0.6295  2.0291 -1.9856
 3135SOL     OW 9736   1.959   1.985   0.562 -0.2337 -0.0122  0.1589
 3135SOL    HW1 9737   1.908   1.942   0.631  0.2039 -0.1700  0.3870
 3135SOL    HW2 9738   2.031   2.027   0.609  0.3421 -0.5367 -0.2517
 3136SOL     OW 9739   2.195   2.956   4.772  0.4087  0.0673 -0.2920
 3136SOL    HW1 9740   2.129   2.907   4.822  0.4616  2.8404  2.6488
 3136SOL    HW2 9741   2.147   2.992   4.698 -0.8487  0.1015  0.5276
 3137SOL     OW 9742   2.049   3.609   4.412  0.4940  0.4170  0.1825
 3137SOL    HW1 9743   2.038   3.699   4.381 -0.3463 -0.0557 -0.9202
 3137SOL    HW2 9744   2.088   3.618   4.499  0.7775  1.8319 -0.0849
 3138SOL     OW 9745   4.827   3.005   3.247  0.1133 -0.1307 -0.4342
 3138SOL    HW1 9746   4.751   2.985   3.302 -0.3588  2.0842 -0.2439
 3138SOL    HW2 9747   4.828   2.936   3.181 -0.8835 -1.3047  0.7413
 3139SOL     OW 9748   0.553   2.226   4.231 -0.3274 -0.4792 -0.1719
 3139SOL    HW1 9749   0.560   2.200   4.139  0.5394  1.1158 -0.5788
 3139SOL    HW2 9750   0.595   2.156   4.280  3.0095  0.6542 -1.3171
 3140SOL     OW 9751   4.869   1.674   3.903 -0.1104  0.6784  0.2927
 3140SOL    HW1 9752   4.784   1.636   3.881 -0.5207  1.3041  0.7514
 3140SOL    HW2 9753   4.897   1.626   3.981 -0.4403  1.0389  0.6364
 3141SOL     OW 9754   2.608   4.058   0.966  0.0492  0.0092  0.5553
 3141SOL    HW1 9755   2.554   4.049   0.886 -0.0854  0.5336  0.5865
 3141SOL    HW2 9756   2.688   4.010   0.945 -0.3262 -0.5812  0.4179
 3142SOL     OW 9757   4.274   4.019   0.276  0.4610  0.1628  0.0812
 3142SOL    HW1 9758   4.239   3.944   0.229 -1.4180  0.6122  0.7335
 3142SOL    HW2 9759   4.327   3.981   0.345 -0.2594 -0.5675  0.2419
 3143SOL     OW 9760   3.090   2.574   5.033 -0.0896  0.4606 -0.6891
 3143SOL    HW1 9761   3.018   2.579   5.097 -1.3205 -0.6763 -1.9605
 3143SOL    HW2 9762   3.101   2.664   5.003 -0.8784  0.6707 -0.3742
 3144SOL     OW 9763   0.749   5.092   4.197  0.3853 -0.5566 -0.0356
 3144SOL    HW1 9764   0.756   5.158   4.266 -1.1519 -0.5533  0.1494
 3144SOL    HW2 9765   0.839   5.072   4.172  0.9011  0.4912  0.9792
 3145SOL     OW 9766   4.382   1.811   4.257 -0.3617  0.2428  0.8603
 3145SOL    HW1 9767   4.321   1.787   4.188  0.6790  0.2165 -0.0618
 3145SOL    HW2 9768   4.398   1.730   4.305 -1.2119  0.2963  1.2391
 3146SOL     OW 9769   2.775   3.682   2.142 -0.3694 -0.3669  0.4429
 3146SOL    HW1 9770   2.788   3.703   2.050  2.0467 -1.3533  0.5172
 3146SOL    HW2 9771   2.680   3.680   2.153 -0.6857  1.4961 -1.6016
 3147SOL     OW 9772   5.026   0.670   2.974  0.3209  0.3958  0.0739
 3147SOL    HW1 9773   5.030   0.666   3.070 -0.1472 -0.2643  0.0717
 3147SOL    HW2 9774   5.092   0.607   2.945 -0.7836 -0.7363 -0.0236
 3148SOL     OW 9775   0.698   1.493   5.158 -0.1618  0.1982  0.7129
 3148SOL    HW1 9776   0.653   1.529   5.234 -0.5378 -0.8240  0.9818
 3148SOL    HW2 9777   0.694   1.564   5.093 -1.1480  0.5324  1.1262
 3149SOL     OW 9778   3.292   4.336   4.460  0.0415  0.4571 -0.4116
 3149SOL    HW1 9779   3.360   4.305   4.399 -2.9792 -0.4358 -3.4680
 3149SOL    HW2 9780   3.228   4.380   4.404 -2.1497  0.8883  2.3257
 3150SOL     OW 9781   5.239   5.353   3.565 -0.2133 -0.4115 -0.3233
 3150SOL    HW1 9782   5.331   5.351   3.539 -0.1403  2.0157 -0.3161
 3150SOL    HW2 9783   5.201   5.276   3.522  2.0691 -2.2210  0.7885
 3151SOL     OW 9784   5.192   2.759   5.118  0.0692 -0.1655 -0.5610
 3151SOL    HW1 9785   5.267   2.715   5.079  1.0613  1.3746 -0.4386
 3151SOL    HW2 9786   5.132   2.688   5.143  1.6956 -1.4334 -0.2163
 3152SOL     OW 9787   4.302   3.331   1.336  0.1020 -0.1220 -0.0208
 3152SOL    HW1 9788   4.269   3.248   1.370 -1.4204  0.7013  0.6099
 3152SOL    HW2 9789   4.302   3.389   1.412 -1.4619  1.2034 -0.9888
 3153SOL     OW 9790   2.325   1.829   2.942  0.6142  0.2535 -0.3591
 3153SOL    HW1 9791   2.323   1.786   2.856 -0.6498  2.0371 -1.2443
 3153SOL    HW2 9792   2.258   1.784   2.993  1.6753 -1.1148 -0.1126
 3154SOL     OW 9793   1.969   4.562   1.733  0.7534 -0.5710 -0.3268
 3154SOL    HW1 9794   2.063   4.570   1.718  1.4060 -0.1012  3.3983
 3154SOL    HW2 9795   1.962   4.539   1.826 -2.8236  0.2140 -0.3279
 3155SOL     OW 9796   2.502   2.102   5.335 -0.5915  0.4869  0.5808
 3155SOL    HW1 9797   2.526   2.162   5.264 -0.8107 -0.1877 -0.0666
 3155SOL    HW2 9798   2.584   2.088   5.383 -0.2514  0.2889 -0.0437
 3156SOL     OW 9799   4.440   3.398   2.319 -0.1092 -0.2837  0.0763
 3156SOL    HW1 9800   4.503   3.326   2.322 -0.2571 -0.4634 -1.0848
 3156SOL    HW2 9801   4.493   3.476   2.301 -0.2027 -0.4211 -0.8060
 3157SOL     OW 9802   3.576   1.811   3.491  0.7051 -0.8836 -0.3122
 3157SOL    HW1 9803   3.528   1.871   3.433  2.5309  0.0857 -0.8541
 3157SOL    HW2 9804   3.508   1.767   3.542 -0.7645  0.3055 -1.2173
 3158SOL     OW 9805   2.423   2.350   0.542  0.2068  0.0988  0.2483
 3158SOL    HW1 9806   2.359   2.415   0.570  1.9578  2.0374 -0.1063
 3158SOL    HW2 9807   2.504   2.377   0.585  1.0317 -1.7087 -0.1286
 3159SOL     OW 9808   1.303   0.027   4.853  0.0839 -1.0044  0.2372
 3159SOL    HW1 9809   1.271   0.022   4.943 -1.2271  0.0695 -0.1529
 3159SOL    HW2 9810   1.294   0.119   4.829  0.2907 -1.3076 -1.0337
 3160SOL     OW 9811   1.620   4.346   0.499  0.2312 -0.0911  0.6066
 3160SOL    HW1 9812   1.711   4.369   0.521  0.4100 -0.7637  0.5853
 3160SOL    HW2 9813   1.600   4.271   0.556 -0.0105 -0.5108 -0.0256
 3161SOL     OW 9814   2.423   4.298   5.335 -0.7311 -0.5561  0.2076
 3161SOL    HW1 9815   2.363   4.224   5.326  1.5612 -2.5488  0.7559
 3161SOL    HW2 9816   2.492   4.280   5.272  0.2557  0.7362  0.9097
 3162SOL     OW 9817   5.367   0.511   2.108 -0.1531  0.4329  0.7125
 3162SOL    HW1 9818   5.380   0.493   2.201 -0.0712 -1.2101  0.3997
 3162SOL    HW2 9819   5.393   0.603   2.097  0.1988  0.5259  2.2311
 3163SOL     OW 9820   1.661   3.193   5.472  0.0271  0.4439  0.4154
 3163SOL    HW1 9821   1.735   3.147   5.431 -1.1121 -0.1299 -1.0368
 3163SOL    HW2 9822   1.684   3.195   5.566  2.7139  1.8726 -0.2097
 3164SOL     OW 9823   5.536   4.420   2.509  0.5112  0.4365  0.3967
 3164SOL    HW1 9824   5.533   4.334   2.551 -0.0122  0.1273 -0.2762
 3164SOL    HW2 9825   5.455   4.462   2.536 -0.8227 -0.5496 -1.9795
 3165SOL     OW 9826   0.342   4.730   5.015  0.0635  0.3802  0.0274
 3165SOL    HW1 9827   0.327   4.642   5.050 -0.7236  0.2175 -0.7107
 3165SOL    HW2 9828   0.404   4.717   4.944  1.4177  0.6721  1.1278
 3166SOL     OW 9829   3.974   2.711   3.566  0.0048 -0.7270 -0.2312
 3166SOL    HW1 9830   4.025   2.721   3.646 -0.3910 -0.6676  0.0179
 3166SOL    HW2 9831   3.886   2.690   3.597 -1.1821  3.4107 -0.5205
 3167SOL     OW 9832   4.573   4.278   0.351  0.3456 -0.1428  0.6204
 3167SOL    HW1 9833   4.634   4.214   0.388  1.1831  0.0903 -0.3197
 3167SOL    HW2 9834   4.605   4.362   0.383 -0.0389 -0.1014  0.8896
 3168SOL     OW 9835   3.293   1.649   3.554  0.4754 -0.6698 -0.0313
 3168SOL    HW1 9836   3.330   1.585   3.492  0.0127 -1.3237  0.3625
 3168SOL    HW2 9837   3.253   1.596   3.622 -1.3531  0.0274 -0.5386
 3169SOL     OW 9838   5.091   4.368   0.400  0.0471 -0.2161 -0.3553
 3169SOL    HW1 9839   5.071   4.358   0.306  1.2670 -1.0662 -0.5344
 3169SOL    HW2 9840   5.177   4.410   0.402  1.2864 -2.6655  0.3375
 3170SOL     OW 9841   2.955   1.184   3.950  0.3950 -0.3524 -0.5392
 3170SOL    HW1 9842   2.864   1.192   3.921  1.1986 -0.2049 -3.1858
 3170SOL    HW2 9843   2.996   1.266   3.921  1.0019  0.3491  2.1792
 3171SOL     OW 9844   1.605   3.163   2.409  0.1210 -0.2320  0.0944
 3171SOL    HW1 9845   1.594   3.126   2.497  0.0935 -0.4850 -0.0144
 3171SOL    HW2 9846   1.668   3.105   2.367  0.5910  0.2367  0.1483
 3172SOL     OW 9847   0.465   4.375   0.291 -0.6899  0.2024 -0.1626
 3172SOL    HW1 9848   0.438   4.359   0.201 -1.1446 -2.3336  0.3548
 3172SOL    HW2 9849   0.560   4.364   0.290 -0.6066  0.9356 -0.4678
 3173SOL     OW 9850   3.726   0.751   5.002  0.1294  0.2013  0.0833
 3173SOL    HW1 9851   3.734   0.683   4.935  1.2230  1.2833 -0.9115
 3173SOL    HW2 9852   3.646   0.798   4.979  0.1691  0.1819 -0.0953
 3174SOL     OW 9853   1.958   2.350   4.366 -0.5240 -0.7903  0.1638
 3174SOL    HW1 9854   2.040   2.345   4.317 -0.0172 -0.0292  0.9135
 3174SOL    HW2 9855   1.890   2.342   4.300  0.1563 -0.8003 -0.5409
 3175SOL     OW 9856   3.810   0.539   4.746  0.1686 -0.3020  0.4105
 3175SOL    HW1 9857   3.836   0.473   4.811  1.4608  1.9401  2.2517
 3175SOL    HW2 9858   3.892   0.581   4.721 -0.6557  0.7124 -0.6388
 3176SOL     OW 9859   0.265   4.258   3.339 -0.0894 -0.0122  0.3269
 3176SOL    HW1 9860   0.267   4.171   3.378  0.0034  0.1586  0.6994
 3176SOL    HW2 9861   0.356   4.286   3.339 -0.1128  0.0658  0.1588
 3177SOL     OW 9862   4.351   4.669   4.211 -0.8309  0.1126  0.0694
 3177SOL    HW1 9863   4.438   4.675   4.170 -0.9061  2.0451  0.1491
 3177SOL    HW2 9864   4.308   4.597   4.166  0.4856 -0.2411 -0.6332
 3178SOL     OW 9865   1.070   0.021   4.271 -0.3824  0.1265  0.1764
 3178SOL    HW1 9866   1.041   0.012   4.362 -1.8206  0.6740 -0.2347
 3178SOL    HW2 9867   1.142   0.084   4.275 -0.2380 -0.0809  0.9706
 3179SOL     OW 9868   4.647   4.388   5.264 -0.3001 -0.2431 -0.1390
 3179SOL    HW1 9869   4.648   4.442   5.343  0.1469  0.4480 -0.6140
 3179SOL    HW2 9870   4.563   4.342   5.268 -0.2361 -0.2883  0.7896
 3180SOL     OW 9871   3.802   5.185   3.651 -0.2140  0.4148 -0.3527
 3180SOL    HW1 9872   3.717   5.146   3.673 -0.2440 -0.1530 -1.3976
 3180SOL    HW2 9873   3.854   5.175   3.730 -0.5792 -0.7811 -0.2437
 3181SOL     OW 9874   3.345   2.895   1.258  0.2787  0.4505 -0.5674
 3181SOL    HW1 9875   3.266   2.870   1.306  1.4431  2.3916  2.5290
 3181SOL    HW2 9876   3.404   2.820   1.267 -0.0861  0.1921 -0.3304
 3182SOL     OW 9877   0.428   5.530   4.677 -0.7281  0.0211  0.6654
 3182SOL    HW1 9878   0.433   5.546   4.771 -2.8172  1.7883  0.5102
 3182SOL    HW2 9879   0.342   5.492   4.663 -0.2129 -0.7557 -0.4742
 3183SOL     OW 9880   3.579   1.585   4.967 -0.2016 -0.2611  0.0102
 3183SOL    HW1 9881   3.533   1.501   4.967 -0.7201  0.0087  1.1204
 3183SOL    HW2 9882   3.658   1.570   5.018 -1.7590  0.6709  2.7870
 3184SOL     OW 9883   0.035   0.219   2.354  0.0126 -1.0547 -0.0358
 3184SOL    HW1 9884  -0.049   0.203   2.398 -0.3280 -0.0249 -0.2907
 3184SOL    HW2 9885   0.101   0.190   2.416 -0.4966 -0.5633  0.7426
 3185SOL     OW 9886   1.004   4.463   2.043 -0.0426 -0.0158  0.4208
 3185SOL    HW1 9887   0.920   4.475   1.999 -0.6824 -0.4009  1.5268
 3185SOL    HW2 9888   1.037   4.551   2.057 -0.0864  0.1250 -0.3591
 3186SOL     OW 9889   1.934   2.861   3.580 -0.3893  0.5589  0.2932
 3186SOL    HW1 9890   1.849   2.822   3.601 -0.8980  0.2960 -2.1901
 3186SOL    HW2 9891   1.979   2.794   3.528  1.4883  0.5776  1.8283
 3187SOL     OW 9892   0.628   0.753   3.883  0.1145 -0.7275 -0.1059
 3187SOL    HW1 9893   0.622   0.764   3.788 -0.7923 -1.0023 -0.0845
 3187SOL    HW2 9894   0.717   0.783   3.905  0.9899 -2.3336 -1.2850
 3188SOL     OW 9895   5.444   4.711   2.162 -0.2291  0.5451 -0.2908
 3188SOL    HW1 9896   5.444   4.697   2.068  0.4107  0.6703 -0.3125
 3188SOL    HW2 9897   5.427   4.625   2.200  0.3391  0.3433 -0.4981
 3189SOL     OW 9898   0.768   0.445   4.313 -0.2290  0.7005 -0.4146
 3189SOL    HW1 9899   0.680   0.451   4.276 -0.6051  2.3006  0.6771
 3189SOL    HW2 9900   0.754   0.417   4.404  0.4736 -0.1908 -0.5721
 3190SOL     OW 9901   2.576   5.438   1.871 -0.4557  0.1982  0.0093
 3190SOL    HW1 9902   2.508   5.493   1.833  0.8374  0.6773 -1.6423
 3190SOL    HW2 9903   2.528   5.368   1.917 -2.0578 -0.3501 -2.4323
 3191SOL     OW 9904   0.173   3.790   2.689  0.1643 -0.0373  0.8325
 3191SOL    HW1 9905   0.260   3.760   2.714  0.4540  0.8464  0.8932
 3191SOL    HW2 9906   0.146   3.729   2.620  0.5328 -0.7469  1.3160
 3192SOL     OW 9907   3.259   0.239   4.867 -0.0298 -0.3057  0.1580
 3192SOL    HW1 9908   3.315   0.250   4.790 -0.3791  0.3185 -0.0126
 3192SOL    HW2 9909   3.283   0.312   4.924 -1.5764  0.7278 -0.4755
 3193SOL     OW 9910   1.178   4.556   0.462  0.0390  0.5350  0.2600
 3193SOL    HW1 9911   1.115   4.485   0.470  2.1515 -1.3608  0.6648
 3193SOL    HW2 9912   1.198   4.580   0.553  2.4436 -1.2690  0.2686
 3194SOL     OW 9913   3.385   4.697   2.032 -0.6820 -0.6806  0.5908
 3194SOL    HW1 9914   3.358   4.606   2.022 -2.1629  0.0353 -2.4309
 3194SOL    HW2 9915   3.320   4.735   2.091 -2.0955 -0.7688 -0.8715
 3195SOL     OW 9916   4.188   2.986   4.424 -0.1556 -0.5518  0.2714
 3195SOL    HW1 9917   4.127   2.917   4.449 -0.6501  0.1691  1.0650
 3195SOL    HW2 9918   4.163   3.009   4.335 -0.7511 -0.5766  0.4296
 3196SOL     OW 9919   0.139   3.442   4.069  0.4166 -0.0705 -0.7103
 3196SOL    HW1 9920   0.129   3.459   3.975  0.8791  0.3620 -0.6808
 3196SOL    HW2 9921   0.062   3.484   4.109 -0.4266 -1.3042 -1.0132
 3197SOL     OW 9922   5.094   5.305   5.478  0.9604 -0.0880 -0.6513
 3197SOL    HW1 9923   5.134   5.218   5.482  2.3973  0.5811 -0.0129
 3197SOL    HW2 9924   5.017   5.299   5.534  1.8002 -0.5965  0.4896
 3198SOL     OW 9925   0.031   0.571   4.529  0.3439 -0.0726  0.0593
 3198SOL    HW1 9926   0.012   0.665   4.529  0.5926 -0.0208  0.6466
 3198SOL    HW2 9927  -0.028   0.534   4.595 -0.6929 -0.5269 -1.1068
 3199SOL     OW 9928   1.024   5.320   4.665 -0.5030  0.4370  0.1594
 3199SOL    HW1 9929   1.091   5.295   4.601 -2.3546  1.1478 -2.1166
 3199SOL    HW2 9930   1.001   5.238   4.709 -1.1392 -0.5844 -1.9917
 3200SOL     OW 9931   0.903   1.196   0.226 -0.0104 -0.2128  0.0062
 3200SOL    HW1 9932   0.817   1.186   0.266  0.2798  1.7358  1.1804
 3200SOL    HW2 9933   0.885   1.224   0.137 -0.6063 -1.4421 -0.2713
 3201SOL     OW 9934   0.054   3.368   1.032 -0.3339  0.6459 -0.5101
 3201SOL    HW1 9935   0.010   3.363   0.946 -1.7600  0.2248  0.2230
 3201SOL    HW2 9936   0.112   3.292   1.033 -2.1553 -0.7809 -0.1321
 3202SOL     OW 9937   5.015   2.577   3.815  0.1445 -0.7103 -0.2070
 3202SOL    HW1 9938   5.083   2.526   3.860  0.6143 -0.2480 -0.3795
 3202SOL    HW2 9939   4.986   2.520   3.743 -0.5868 -1.4357  0.6545
 3203SOL     OW 9940   4.381   1.050   3.975  0.6091  0.3093 -0.3126
 3203SOL    HW1 9941   4.470   1.084   3.970  1.2687 -1.3793 -0.6039
 3203SOL    HW2 9942   4.341   1.074   3.892  1.7953 -1.5469 -1.4680
 3204SOL     OW 9943   0.879   0.212   3.752 -0.8071 -0.3029  0.0189
 3204SOL    HW1 9944   0.806   0.264   3.721 -1.7552 -1.5033  0.2131
 3204SOL    HW2 9945   0.839   0.135   3.792  0.5044 -0.3808  1.2373
 3205SOL     OW 9946   3.170   3.434   2.558  0.2292 -0.1881 -0.3325
 3205SOL    HW1 9947   3.124   3.418   2.475 -0.2938 -2.7368  0.4162
 3205SOL    HW2 9948   3.254   3.391   2.547  1.2620  1.8019 -0.5131
 3206SOL     OW 9949   2.942   3.707   0.030 -0.2064 -0.6559  0.0133
 3206SOL    HW1 9950   2.936   3.616   0.059  1.5564 -0.8015 -0.0102
 3206SOL    HW2 9951   2.950   3.702  -0.066 -1.2840 -0.4189 -0.0889
 3207SOL     OW 9952   1.142   4.471   2.934  0.0315 -0.2547  0.0080
 3207SOL    HW1 9953   1.235   4.467   2.912 -0.0386  1.7786 -0.7801
 3207SOL    HW2 9954   1.105   4.393   2.894  1.2773 -0.7371 -0.2484
 3208SOL     OW 9955   1.318   3.883   2.538 -0.1775 -0.3465 -0.5484
 3208SOL    HW1 9956   1.336   3.938   2.462  1.2438 -0.2806 -0.1914
 3208SOL    HW2 9957   1.370   3.923   2.608 -0.4021 -1.2080  0.1128
 3209SOL     OW 9958   0.417   1.685   1.743 -0.2431  0.8143  0.3246
 3209SOL    HW1 9959   0.399   1.644   1.827  3.1949 -1.3731  0.1003
 3209SOL    HW2 9960   0.504   1.725   1.753  0.6972 -0.3790 -2.4090
 3210SOL     OW 9961   2.250   4.840   1.892 -0.2649  0.1219  0.1277
 3210SOL    HW1 9962   2.239   4.744   1.891  0.5249 -0.0108  2.2304
 3210SOL    HW2 9963   2.339   4.854   1.923 -0.9796  1.5567  1.6360
 3211SOL     OW 9964   2.111   3.061   0.625 -0.3907  0.5253  0.1711
 3211SOL    HW1 9965   2.100   2.968   0.642  0.6334  0.6202  1.4869
 3211SOL    HW2 9966   2.071   3.105   0.700  3.0412  0.9964  1.8297
 3212SOL     OW 9967   2.762   1.739   4.370 -0.1911  0.4047 -0.6853
 3212SOL    HW1 9968   2.803   1.658   4.341  2.1566  0.7002  1.5736
 3212SOL    HW2 9969   2.740   1.723   4.462 -1.2760  1.7647 -0.6755
 3213SOL     OW 9970   2.145   1.540   2.278  0.3526  0.1973 -0.7627
 3213SOL    HW1 9971   2.096   1.460   2.297 -0.5549  1.0430  0.5253
 3213SOL    HW2 9972   2.169   1.532   2.186 -1.6119 -0.5534 -1.2383
 3214SOL     OW 9973   5.277   1.663   0.355 -0.0132 -0.0411 -0.2143
 3214SOL    HW1 9974   5.277   1.570   0.329  0.4520  0.2868 -1.4168
 3214SOL    HW2 9975   5.250   1.709   0.276  0.7123  0.9275  0.1007
 3215SOL     OW 9976   5.375   2.044   2.611  0.4201 -0.4558 -0.2447
 3215SOL    HW1 9977   5.320   2.004   2.678  0.1451 -1.8879 -1.2950
 3215SOL    HW2 9978   5.363   2.138   2.623 -0.9851 -0.7204  0.5887
 3216SOL     OW 9979   0.542   4.477   1.830 -0.1396 -0.4615 -0.2736
 3216SOL    HW1 9980   0.462   4.523   1.857  0.5197  0.4266  0.1922
 3216SOL    HW2 9981   0.562   4.419   1.902 -0.3311 -0.6392 -0.3634
 3217SOL     OW 9982   2.767   3.650   3.242 -0.1444  0.2372  0.3511
 3217SOL    HW1 9983   2.853   3.674   3.207  0.3311  0.6060  1.7287
 3217SOL    HW2 9984   2.784   3.630   3.334 -1.3168 -0.9925  0.3216
 3218SOL     OW 9985   0.532   2.116   4.815 -0.1244  0.7770 -0.3257
 3218SOL    HW1 9986   0.625   2.093   4.815 -0.2660  0.1878 -0.5881
 3218SOL    HW2 9987   0.497   2.076   4.894 -0.5162 -0.5238 -1.1464
 3219SOL     OW 9988   2.997   2.203   3.851  0.1909  0.0599  0.2082
 3219SOL    HW1 9989   3.020   2.110   3.847  0.0397  0.0752 -1.2487
 3219SOL    HW2 9990   2.982   2.220   3.944  2.5929 -0.8007  0.7873
 3220SOL     OW 9991   3.938   0.477   0.071 -0.4646 -0.5067  0.7707
 3220SOL    HW1 9992   3.862   0.419   0.067 -0.5648 -0.3575  0.4945
 3220SOL    HW2 9993   3.912   0.547   0.132 -0.0322 -1.1976  1.7662
 3221SOL     OW 9994   5.546   5.068   5.293  0.3179 -0.3844 -0.3818
 3221SOL    HW1 9995   5.554   5.102   5.204  1.0973 -0.6755 -0.4292
 3221SOL    HW2 9996   5.546   4.973   5.282 -1.2016 -0.4204 -0.1971
 3222SOL     OW 9997   3.487   2.381   0.594 -0.0991 -0.1937  0.1497
 3222SOL    HW1 9998   3.527   2.441   0.657  0.7557 -2.0878  1.4650
 3222SOL    HW2 9999   3.560   2.350   0.541 -0.6069  0.2957 -0.8395
 3223SOL     OW10000   3.008   5.127   2.108  0.0073  0.6481  0.2309
 3223SOL    HW110001   3.008   5.201   2.169  0.4215  0.7520  0.1097
 3223SOL    HW210002   2.920   5.127   2.071  0.5800  2.3261 -1.2283
 3224SOL     OW10003   1.003   0.734   3.596 -0.2475 -0.2384 -0.3788
 3224SOL    HW110004   1.098   0.718   3.591 -0.3007 -0.8889  0.5592
 3224SOL    HW210005   0.992   0.793   3.670 -0.5073  0.5023 -0.9977
 3225SOL     OW10006   3.335   0.120   3.039  0.0039  0.5595  0.3610
 3225SOL    HW110007   3.358   0.139   2.948 -1.2625  2.0674  0.3335
 3225SOL    HW210008   3.388   0.182   3.089  1.2181 -0.7361  0.7100
 3226SOL     OW10009   4.655   0.863   0.395  0.4410  0.4369 -0.8551
 3226SOL    HW110010   4.672   0.814   0.476  0.3872  0.6400 -0.7216
 3226SOL    HW210011   4.736   0.910   0.378 -0.3420  2.2979  0.3976
 3227SOL     OW10012   1.097   2.236   2.010 -0.6908  0.0665  0.4396
 3227SOL    HW110013   1.072   2.328   2.008 -1.6848 -0.1999  0.4739
 3227SOL    HW210014   1.123   2.219   2.100 -1.3000  0.1089  0.6255
 3228SOL     OW10015   3.490   5.293   5.300 -0.5375 -0.3792  0.5383
 3228SOL    HW110016   3.457   5.284   5.211  1.2762 -0.7285 -0.1230
 3228SOL    HW210017   3.413   5.313   5.353 -1.6924 -0.6205 -1.0359
 3229SOL     OW10018   3.224   1.729   2.181 -0.4366 -0.3823 -0.2099
 3229SOL    HW110019   3.272   1.722   2.099  0.6278 -0.2179  0.3915
 3229SOL    HW210020   3.206   1.823   2.191 -0.5590 -0.4014 -0.2423
 3230SOL     OW10021   2.545   5.569   3.262  0.3666  0.1434  0.3092
 3230SOL    HW110022   2.527   5.610   3.346 -0.0319  1.6098 -0.4659
 3230SOL    HW210023   2.461   5.574   3.215  1.2988  1.9730 -1.2368
 3231SOL     OW10024   0.020   4.568   5.381  0.2652  0.0072 -0.5933
 3231SOL    HW110025   0.052   4.558   5.470  1.5397 -0.2451 -1.0559
 3231SOL    HW210026  -0.026   4.652   5.381 -1.4843 -0.9204  0.7740
 3232SOL     OW10027   2.570   3.109   2.570  0.0646  0.0875 -0.6317
 3232SOL    HW110028   2.635   3.069   2.512 -0.4768 -2.4798  0.4467
 3232SOL    HW210029   2.497   3.048   2.569 -0.5803  0.7803  1.5227
 3233SOL     OW10030   4.307   2.307   5.276  0.2081  0.8170  0.0521
 3233SOL    HW110031   4.216   2.286   5.297  0.0166 -0.2562 -1.7049
 3233SOL    HW210032   4.356   2.228   5.301  0.7195  1.5060  1.2780
 3234SOL     OW10033   0.579   3.068   4.981 -0.2118  0.1857 -0.1005
 3234SOL    HW110034   0.515   2.997   4.977 -1.0092  0.8301  1.1152
 3234SOL    HW210035   0.558   3.124   4.907 -1.9675  1.1582  1.1152
 3235SOL     OW10036   4.713   0.130   1.955 -0.0560 -0.4847  0.0438
 3235SOL    HW110037   4.673   0.079   2.026 -1.1402  1.4555  0.8634
 3235SOL    HW210038   4.804   0.100   1.952  0.3135  0.2180  3.0314
 3236SOL     OW10039   1.940   1.539   3.458 -0.1946  0.6494  0.3454
 3236SOL    HW110040   2.005   1.609   3.466 -0.5168  1.0053 -0.1154
 3236SOL    HW210041   1.971   1.471   3.518 -0.0048  1.2811  0.9792
 3237SOL     OW10042   0.132   4.869   4.395  0.2300 -0.0130 -0.1278
 3237SOL    HW110043   0.187   4.912   4.330  2.2981 -2.7894 -0.3182
 3237SOL    HW210044   0.153   4.914   4.478 -1.0404  2.2838 -0.9936
 3238SOL     OW10045   2.286   4.599   4.768  0.3713 -0.1365  0.2411
 3238SOL    HW110046   2.302   4.566   4.857 -0.5245  1.3445  0.9617
 3238SOL    HW210047   2.270   4.693   4.779 -1.0636 -0.1662 -1.3355
 3239SOL     OW10048   5.069   0.755   0.864  0.5143  0.2917  0.4642
 3239SOL    HW110049   5.164   0.744   0.874  0.3178 -1.9337  0.2105
 3239SOL    HW210050   5.037   0.776   0.952  1.2584  1.1633  0.5263
 3240SOL     OW10051   0.483   1.765   3.344 -0.2301  0.4710  0.4040
 3240SOL    HW110052   0.510   1.673   3.354  0.7862  0.3729 -2.7113
 3240SOL    HW210053   0.387   1.761   3.344 -0.1996 -0.6740 -0.0763
 3241SOL     OW10054   1.598   4.581   3.908 -0.4552  0.7079 -0.2360
 3241SOL    HW110055   1.553   4.496   3.914  0.9842  0.0325  1.2494
 3241SOL    HW210056   1.580   4.611   3.819 -0.8295 -1.2388 -0.8370
 3242SOL     OW10057   4.091   5.462   1.728  0.2405 -0.4407  0.1694
 3242SOL    HW110058   4.183   5.443   1.744  0.5347  0.3289 -0.5297
 3242SOL    HW210059   4.074   5.543   1.777  0.4639  0.4957 -1.2611
 3243SOL     OW10060   0.977   2.037   3.937  0.2517 -0.3001  0.1192
 3243SOL    HW110061   0.926   2.038   3.856 -2.1820  2.3006  1.6132
 3243SOL    HW210062   0.920   1.994   4.001  0.6898  0.9246  1.3416
 3244SOL     OW10063   5.053   5.311   1.361 -0.0625 -0.1873  0.1599
 3244SOL    HW110064   4.959   5.325   1.353 -0.2844 -1.3981  0.4721
 3244SOL    HW210065   5.069   5.228   1.315  0.9731  0.4179 -0.5776
 3245SOL     OW10066   0.742   4.677   3.233 -0.1501  0.2573  0.1552
 3245SOL    HW110067   0.810   4.616   3.203 -2.4660 -1.6633 -1.3565
 3245SOL    HW210068   0.761   4.759   3.187  0.5897 -0.5553 -1.0116
 3246SOL     OW10069   4.095   0.891   0.364 -0.0896 -0.1399 -0.2821
 3246SOL    HW110070   4.138   0.976   0.352  1.1067 -0.5507  1.0171
 3246SOL    HW210071   4.118   0.865   0.453 -2.3834 -0.7505  0.1474
 3247SOL     OW10072   2.395   1.445   0.674 -0.1416 -0.0280  0.2719
 3247SOL    HW110073   2.353   1.465   0.591 -0.4879 -0.5885  0.3095
 3247SOL    HW210074   2.487   1.468   0.661 -0.1186 -0.5095 -0.3954
 3248SOL     OW10075   4.377   3.364   0.652 -0.7684  0.2983  0.4721
 3248SOL    HW110076   4.420   3.430   0.597 -0.2683 -0.7549 -0.4225
 3248SOL    HW210077   4.296   3.343   0.606 -0.9683  0.3546  0.7989
 3249SOL     OW10078   5.364   1.985   3.425 -0.3689 -0.1257 -0.4758
 3249SOL    HW110079   5.351   1.895   3.394  1.8766  0.1007 -2.2017
 3249SOL    HW210080   5.280   2.009   3.464 -0.9533 -3.0443  0.2295
 3250SOL     OW10081   5.431   4.821   3.127  0.5247 -0.3585  0.0996
 3250SOL    HW110082   5.520   4.799   3.156  0.7775 -0.9596 -1.0712
 3250SOL    HW210083   5.398   4.882   3.192  2.2269  0.7584 -0.0569
 3251SOL     OW10084   3.120   5.324   4.151  0.2317  0.0475 -0.0992
 3251SOL    HW110085   3.183   5.284   4.091  0.5488  0.1220  0.1838
 3251SOL    HW210086   3.172   5.348   4.228  0.2194  1.8162 -0.6318
 3252SOL     OW10087   5.173   5.538   0.509  0.5782 -0.3403 -0.0750
 3252SOL    HW110088   5.107   5.545   0.578  1.7620  0.1516  1.0109
 3252SOL    HW210089   5.180   5.445   0.492 -1.2010 -0.3373 -0.9910
 3253SOL     OW10090   3.814   3.647   1.663  0.3759  0.0338  0.1129
 3253SOL    HW110091   3.900   3.663   1.702  0.7100 -0.5742 -0.3809
 3253SOL    HW210092   3.786   3.733   1.631  0.9695  0.1505 -0.0873
 3254SOL     OW10093   2.206   2.268   4.279 -0.2024  0.4852  0.1345
 3254SOL    HW110094   2.195   2.221   4.362 -1.2208 -0.8157 -0.7115
 3254SOL    HW210095   2.291   2.239   4.247  0.1534  0.9210  0.6862
 3255SOL     OW10096   3.672   2.660   2.090 -0.0925 -0.0461 -0.1763
 3255SOL    HW110097   3.725   2.618   2.022 -1.2228 -3.0303  0.7118
 3255SOL    HW210098   3.672   2.598   2.163 -2.3154  1.2388  0.9782
 3256SOL     OW10099   2.214   3.473   1.845 -0.6519 -0.8150 -0.2810
 3256SOL    HW110100   2.202   3.379   1.829  2.3629 -1.0753 -1.2803
 3256SOL    HW210101   2.296   3.478   1.894 -1.0741  1.2820  0.2427
 3257SOL     OW10102   2.997   2.151   1.083  0.7040 -0.1492  0.6247
 3257SOL    HW110103   2.942   2.124   1.010  2.3629  0.3998 -0.8540
 3257SOL    HW210104   2.947   2.125   1.161 -2.3778  1.7094 -0.6103
 3258SOL     OW10105   3.839   5.076   2.905  0.6197  0.6096  0.0213
 3258SOL    HW110106   3.762   5.109   2.950  0.1052  1.5678 -1.5212
 3258SOL    HW210107   3.880   5.153   2.866 -0.0926 -0.4059 -2.8787
 3259SOL     OW10108   0.244   3.895   4.122  0.0005  0.5721  0.0874
 3259SOL    HW110109   0.220   3.832   4.053  2.2347  0.4866 -0.6628
 3259SOL    HW210110   0.320   3.855   4.165  0.6918  2.1933  0.4015
 3260SOL     OW10111   4.133   2.790   2.680 -0.2979 -0.1859  0.2136
 3260SOL    HW110112   4.166   2.873   2.646 -0.7000 -0.0649  0.1197
 3260SOL    HW210113   4.122   2.805   2.774  0.0171 -0.2588  0.2616
 3261SOL     OW10114   2.273   4.811   2.478  0.3264  0.3930 -0.6609
 3261SOL    HW110115   2.208   4.792   2.547 -0.1973 -1.1105 -1.5566
 3261SOL    HW210116   2.229   4.785   2.397  2.1428 -0.8663 -1.2568
 3262SOL     OW10117   0.761   2.572   1.265  0.1810 -0.2031  0.1202
 3262SOL    HW110118   0.692   2.617   1.314  0.0726 -0.9257  0.6427
 3262SOL    HW210119   0.812   2.526   1.331  0.7931 -0.1692 -0.3247
 3263SOL     OW10120   3.838   1.408   1.325 -0.0118  0.4390 -0.3197
 3263SOL    HW110121   3.805   1.331   1.278 -1.1251  1.3275 -1.0236
 3263SOL    HW210122   3.809   1.483   1.272 -0.3274  1.4126  1.2023
 3264SOL     OW10123   3.343   2.191   3.241  0.4055  0.4936 -0.6149
 3264SOL    HW110124   3.301   2.270   3.208  0.1195  0.5424 -0.1394
 3264SOL    HW210125   3.301   2.175   3.325 -1.1395 -1.4255 -1.7018
 3265SOL     OW10126   3.871   4.441   3.705 -0.3524 -0.5036  0.3561
 3265SOL    HW110127   3.843   4.406   3.620  0.2416 -0.1534  0.0162
 3265SOL    HW210128   3.933   4.376   3.739  0.1304 -0.1808  0.0936
 3266SOL     OW10129   0.821   0.203   2.390 -0.0564 -0.3199  0.0178
 3266SOL    HW110130   0.757   0.132   2.397  1.4113 -1.4945  1.9021
 3266SOL    HW210131   0.859   0.210   2.477  2.9252 -0.1950 -1.2215
 3267SOL     OW10132   0.465   3.283   1.595 -0.6096  0.3443 -0.3453
 3267SOL    HW110133   0.532   3.274   1.527 -0.6174  0.3557 -0.3545
 3267SOL    HW210134   0.416   3.200   1.592  2.1190 -1.5321  2.5857
 3268SOL     OW10135   0.625   0.924   3.310 -0.5636  0.1034  0.4546
 3268SOL    HW110136   0.611   0.831   3.324  0.6380 -0.5308 -2.1743
 3268SOL    HW210137   0.541   0.956   3.275 -0.4150 -0.3771 -0.3467
 3269SOL     OW10138   2.634   3.966   4.852  0.6890 -0.0549  0.3024
 3269SOL    HW110139   2.567   3.912   4.809  0.7615  0.3044 -0.2740
 3269SOL    HW210140   2.635   3.936   4.943  0.5652 -0.8670  0.0436
 3270SOL     OW10141   2.989   4.591   4.626  0.5407  0.3380 -0.0361
 3270SOL    HW110142   2.968   4.500   4.604  1.4292  0.4808 -1.5283
 3270SOL    HW210143   2.931   4.643   4.570 -0.9724  0.7087  1.8265
 3271SOL     OW10144   5.325   3.347   2.670 -0.0128 -0.0438 -0.0703
 3271SOL    HW110145   5.412   3.370   2.639  0.6286 -2.0828  0.1116
 3271SOL    HW210146   5.267   3.410   2.628  1.4761  0.9359 -0.7044
 3272SOL     OW10147   4.443   0.458   4.252  0.8252 -0.3967 -0.3965
 3272SOL    HW110148   4.426   0.425   4.163  0.6558 -0.9943 -0.1500
 3272SOL    HW210149   4.537   0.471   4.255  0.7946 -0.0738 -0.7695
 3273SOL     OW10150   2.492   1.905   4.244  0.4194 -0.3565 -0.2304
 3273SOL    HW110151   2.554   1.941   4.181  0.6378 -2.1070 -1.0694
 3273SOL    HW210152   2.533   1.824   4.274 -0.0102  0.1016  1.6594
 3274SOL     OW10153   1.886   0.422   4.036 -0.4202  0.4151  0.2219
 3274SOL    HW110154   1.923   0.449   3.952  0.3814 -1.9484 -0.2244
 3274SOL    HW210155   1.872   0.503   4.084 -0.0269  1.7293 -1.8427
 3275SOL     OW10156   1.251   0.738   4.766 -0.6835 -0.3830 -0.3052
 3275SOL    HW110157   1.182   0.751   4.701 -0.4810 -1.4515 -0.7430
 3275SOL    HW210158   1.326   0.784   4.730 -0.3866 -1.5039 -1.1451
 3276SOL     OW10159   5.254   0.841   3.532 -0.2010  0.5513 -0.5636
 3276SOL    HW110160   5.331   0.832   3.588 -0.5700  0.4565 -0.0754
 3276SOL    HW210161   5.278   0.911   3.470 -0.4586  1.8973  0.8272
 3277SOL     OW10162   3.995   4.890   3.657 -0.6648  0.1583  0.6957
 3277SOL    HW110163   4.046   4.940   3.720 -1.4148 -0.1731  1.5785
 3277SOL    HW210164   3.951   4.823   3.709 -0.6799 -0.6109 -0.2906
 3278SOL     OW10165   5.461   0.454   2.367  0.0600 -0.2564  0.0986
 3278SOL    HW110166   5.406   0.389   2.411 -0.1064 -1.3202 -1.6205
 3278SOL    HW210167   5.550   0.429   2.388 -0.0343 -0.2320  0.5414
 3279SOL     OW10168   2.189   3.832   2.894  0.6742 -0.1810  0.0581
 3279SOL    HW110169   2.226   3.890   2.828  0.8274  0.6070  0.8261
 3279SOL    HW210170   2.095   3.852   2.894  0.6956 -0.0802  0.1781
 3280SOL     OW10171   2.175   5.104   1.999  0.0589  0.2243  0.2067
 3280SOL    HW110172   2.139   5.105   2.088  0.1962  0.1127  0.2636
 3280SOL    HW210173   2.152   5.018   1.965 -0.0946  0.3092  0.0929
 3281SOL     OW10174   2.530   0.382   2.689 -0.3270  0.5537 -0.6309
 3281SOL    HW110175   2.467   0.453   2.674 -0.4833  0.8875  1.4761
 3281SOL    HW210176   2.496   0.336   2.766 -0.2092 -1.8130 -1.9377
 3282SOL     OW10177   2.937   1.526   1.368  0.1300 -0.2616 -0.4783
 3282SOL    HW110178   2.842   1.530   1.379 -0.0942 -0.7913 -2.0659
 3282SOL    HW210179   2.950   1.487   1.281  1.7915  0.0334 -0.3901
 3283SOL     OW10180   3.614   2.535   5.374 -0.2624 -0.3337  0.1252
 3283SOL    HW110181   3.684   2.484   5.414 -1.1667 -1.7476 -0.0820
 3283SOL    HW210182   3.558   2.471   5.330 -2.9605  0.5106  2.1655
 3284SOL     OW10183   5.082   2.700   4.235  0.1202 -0.2465 -0.1720
 3284SOL    HW110184   5.063   2.752   4.157 -1.2214  0.5153  0.6418
 3284SOL    HW210185   5.170   2.666   4.221  0.7107  1.6317 -1.0578
 3285SOL     OW10186   3.519   0.561   2.811 -0.3865  0.5033 -0.2473
 3285SOL    HW110187   3.510   0.526   2.723  1.9323  0.2594 -0.4140
 3285SOL    HW210188   3.545   0.652   2.799 -1.6088  0.9298  0.2025
 3286SOL     OW10189   0.046   4.533   0.091  0.2567 -0.0352  0.2416
 3286SOL    HW110190   0.132   4.556   0.057 -0.7169  1.8896 -1.0339
 3286SOL    HW210191   0.036   4.589   0.169  0.0875 -0.1002  0.2655
 3287SOL     OW10192   1.959   2.671   4.141  0.4545 -0.0571 -0.1807
 3287SOL    HW110193   1.918   2.715   4.216  0.4569  1.4393 -1.0459
 3287SOL    HW210194   1.890   2.617   4.104 -0.0909  0.6891 -0.2531
 3288SOL     OW10195   3.752   2.798   4.137  0.0409  0.3186 -0.3816
 3288SOL    HW110196   3.808   2.720   4.138  0.4081  0.5366 -1.9417
 3288SOL    HW210197   3.773   2.841   4.054 -2.5821  0.2893 -1.1117
 3289SOL     OW10198   4.049   4.791   0.515  0.2128 -0.5288  0.2955
 3289SOL    HW110199   4.136   4.826   0.533 -0.1456  0.1225  0.7616
 3289SOL    HW210200   3.989   4.861   0.540 -0.4448 -0.9434 -0.1059
 3290SOL     OW10201   3.601   2.700   1.662  0.1674 -0.3569  0.1623
 3290SOL    HW110202   3.547   2.640   1.611  0.1991  0.3423 -0.7223
 3290SOL    HW210203   3.691   2.682   1.634  0.0813  0.9007 -1.0067
 3291SOL     OW10204   0.276   0.657   1.693  0.3813 -0.9567 -0.1478
 3291SOL    HW110205   0.197   0.702   1.663 -0.2104  0.8011  3.7417
 3291SOL    HW210206   0.326   0.639   1.613 -2.4472  0.7409 -2.3820
 3292SOL     OW10207   2.333   2.571   1.627 -0.1034  0.6308 -0.5987
 3292SOL    HW110208   2.264   2.515   1.662  1.8987 -1.7974 -0.4798
 3292SOL    HW210209   2.333   2.553   1.533 -0.0852  1.1431 -0.6975
 3293SOL     OW10210   2.304   1.044   2.227  0.0504 -0.1187  0.6977
 3293SOL    HW110211   2.361   1.116   2.199 -0.1203  0.1896  1.1241
 3293SOL    HW210212   2.352   0.965   2.206  0.4105  0.1313  0.5743
 3294SOL     OW10213   4.114   0.995   1.811  0.1449 -0.6547  0.8340
 3294SOL    HW110214   4.065   1.069   1.846 -0.9619 -1.1494  0.3283
 3294SOL    HW210215   4.162   1.031   1.737  1.0736 -0.0223  1.7230
 3295SOL     OW10216   3.643   2.008   2.843  0.2575  0.1977 -0.0371
 3295SOL    HW110217   3.557   1.969   2.858 -0.0248  0.7072 -0.2972
 3295SOL    HW210218   3.632   2.100   2.867  0.8199  0.1925  0.2390
 3296SOL     OW10219   4.004   0.033   0.655 -0.0173  0.1015  0.1057
 3296SOL    HW110220   3.919   0.066   0.683  0.6018  2.3146 -0.5539
 3296SOL    HW210221   4.066   0.065   0.720  0.5278 -0.2245 -0.2453
 3297SOL     OW10222   0.135   0.901   2.407 -0.0976 -0.2983  0.5424
 3297SOL    HW110223   0.189   0.885   2.330  0.6378  0.4408  0.8983
 3297SOL    HW210224   0.075   0.826   2.410  0.2462 -0.6229 -0.4135
 3298SOL     OW10225   2.410   4.304   1.043  0.0168 -0.3238  0.0638
 3298SOL    HW110226   2.437   4.221   1.004  1.7882 -0.1666  0.9305
 3298SOL    HW210227   2.315   4.307   1.029  0.1824 -1.6889 -1.4847
 3299SOL     OW10228   2.442   4.521   3.092 -0.3886 -0.2049 -0.2754
 3299SOL    HW110229   2.445   4.547   3.184 -2.1707  2.2974 -0.8518
 3299SOL    HW210230   2.416   4.601   3.046 -0.2144 -1.5959 -2.8748
 3300SOL     OW10231   0.220   1.929   2.437  0.0487  0.7044  0.8406
 3300SOL    HW110232   0.234   1.921   2.342  1.6863 -0.8084  1.1898
 3300SOL    HW210233   0.125   1.934   2.447 -0.1045  1.9269 -0.9478
 3301SOL     OW10234   0.495   3.318   3.290  0.0822  0.1481 -0.0265
 3301SOL    HW110235   0.575   3.308   3.341  1.0524  1.1931 -1.3115
 3301SOL    HW210236   0.439   3.245   3.318  2.0052 -1.3804 -0.1065
 3302SOL     OW10237   2.965   4.456   4.887  0.1185  0.1280 -0.0027
 3302SOL    HW110238   2.983   4.500   4.805 -2.3775  0.1174 -0.5889
 3302SOL    HW210239   3.018   4.502   4.952  0.6340  1.3562 -1.2833
 3303SOL     OW10240   5.417   3.548   0.185 -0.4402 -0.0726 -1.1199
 3303SOL    HW110241   5.433   3.489   0.110  0.4803  0.9862 -1.7775
 3303SOL    HW210242   5.335   3.592   0.164  0.6961  1.5195 -2.3936
 3304SOL     OW10243   3.575   0.161   4.816 -0.1024  0.5455 -0.0249
 3304SOL    HW110244   3.611   0.074   4.798  1.5141  1.1815  0.0435
 3304SOL    HW210245   3.528   0.185   4.736 -2.3276 -1.2262  0.7008
 3305SOL     OW10246   0.953   4.911   2.498  0.2365 -0.0903  0.3717
 3305SOL    HW110247   0.881   4.869   2.449 -1.0559  0.6188  1.6374
 3305SOL    HW210248   1.015   4.840   2.513 -1.3121 -1.2826  1.3421
 3306SOL     OW10249   3.176   0.056   4.069 -0.1330  0.2855 -0.6739
 3306SOL    HW110250   3.167   0.087   4.159  0.8271  1.1334 -0.8628
 3306SOL    HW210251   3.230  -0.023   4.076  1.4113  1.3110 -0.6650
 3307SOL     OW10252   0.351   1.434   0.333 -0.1550 -0.1438  0.2271
 3307SOL    HW110253   0.344   1.520   0.292  1.6126 -0.6538 -1.2145
 3307SOL    HW210254   0.444   1.413   0.328 -0.6460 -2.3703  0.1104
 3308SOL     OW10255   4.907   2.864   4.855  0.3858 -0.0722 -0.2354
 3308SOL    HW110256   4.843   2.867   4.784  1.7395 -0.9069 -1.4820
 3308SOL    HW210257   4.943   2.776   4.853 -0.0453 -0.3405  1.9325
 3309SOL     OW10258   4.461   1.343   3.730  0.2064  0.3691 -0.6224
 3309SOL    HW110259   4.478   1.267   3.674  1.1544  1.3610 -1.7290
 3309SOL    HW210260   4.548   1.378   3.749 -0.1527  0.4157  0.9546
 3310SOL     OW10261   3.589   1.337   0.542  0.3499  0.1369 -0.0534
 3310SOL    HW110262   3.595   1.351   0.637  2.3421 -1.2613  0.0610
 3310SOL    HW210263   3.660   1.275   0.523 -1.0868 -0.8910 -2.2031
 3311SOL     OW10264   3.841   3.042   5.249 -0.2478 -0.5619 -0.2748
 3311SOL    HW110265   3.915   3.038   5.309  0.4218 -1.5933 -1.1536
 3311SOL    HW210266   3.775   2.985   5.288 -0.1614 -0.5143 -0.0596
 3312SOL     OW10267   4.634   5.516   5.493 -0.4166  0.0243  0.3187
 3312SOL    HW110268   4.725   5.493   5.511  0.1733  0.3664 -2.0160
 3312SOL    HW210269   4.583   5.443   5.529  0.8284 -0.5685  0.9054
 3313SOL     OW10270   0.493   4.953   5.487 -0.0052 -0.3405 -0.0779
 3313SOL    HW110271   0.403   4.933   5.462 -0.1951 -0.4608  0.6722
 3313SOL    HW210272   0.487   5.040   5.528 -0.0291 -0.9625  1.2744
 3314SOL     OW10273   0.274   0.829   0.034  0.0860  0.1228  0.3474
 3314SOL    HW110274   0.200   0.886   0.013 -0.4455 -0.1713  1.3964
 3314SOL    HW210275   0.350   0.888   0.030 -0.2720  0.5622 -0.1185
 3315SOL     OW10276   3.627   0.028   2.903 -0.1739  0.4678  0.2310
 3315SOL    HW110277   3.674  -0.022   2.970  0.5762  2.6987  1.4191
 3315SOL    HW210278   3.651   0.119   2.920 -0.4664  1.1256 -2.7169
 3316SOL     OW10279   1.816   5.023   0.807  0.3027 -0.9217 -0.1891
 3316SOL    HW110280   1.841   4.931   0.792  1.6576 -0.2527 -2.1741
 3316SOL    HW210281   1.846   5.069   0.729 -2.1055  0.9113 -0.0923
 3317SOL     OW10282   3.446   3.917   1.210  0.2725 -0.2488  0.6824
 3317SOL    HW110283   3.512   3.851   1.233 -0.1654 -1.2490 -0.8807
 3317SOL    HW210284   3.363   3.877   1.236 -0.0129 -0.4082 -0.4657
 3318SOL     OW10285   0.888   2.483   4.193 -0.4752 -0.0958 -0.1761
 3318SOL    HW110286   0.969   2.478   4.243 -0.5191 -1.2607 -0.2245
 3318SOL    HW210287   0.893   2.411   4.131 -1.5969 -0.2510 -0.1043
 3319SOL     OW10288   3.876   1.539   0.090  0.3735 -0.1903  0.0238
 3319SOL    HW110289   3.922   1.554   0.173 -0.3507 -1.8065  0.7338
 3319SOL    HW210290   3.821   1.462   0.106 -1.7170  1.0124 -1.1702
 3320SOL     OW10291   3.010   5.567   3.529 -0.1668 -0.8414  0.6604
 3320SOL    HW110292   3.059   5.556   3.610 -0.5705  1.5724  1.2600
 3320SOL    HW210293   2.934   5.620   3.553 -0.9352 -1.1028 -1.0625
 3321SOL     OW10294   1.921   0.370   0.863 -0.2962 -0.2215  0.4997
 3321SOL    HW110295   1.890   0.301   0.921  0.3392 -0.5668  0.4304
 3321SOL    HW210296   1.841   0.413   0.832 -0.6350  0.2511  1.9676
 3322SOL     OW10297   1.018   5.380   1.236  0.9615 -0.5468 -0.3556
 3322SOL    HW110298   1.020   5.318   1.162 -3.3667  0.3587 -1.3486
 3322SOL    HW210299   1.009   5.466   1.195  0.1610  0.1218  1.1983
 3323SOL     OW10300   3.065   4.425   1.545  0.1329 -0.9851 -0.0682
 3323SOL    HW110301   3.118   4.418   1.624 -0.1991 -1.3579  0.1189
 3323SOL    HW210302   3.096   4.506   1.503 -0.1960 -0.3945  0.8137
 3324SOL     OW10303   4.765   4.685   1.285 -0.1017  0.0577  0.2201
 3324SOL    HW110304   4.764   4.596   1.252 -1.5930  0.2625 -0.3302
 3324SOL    HW210305   4.842   4.725   1.245  1.3101 -1.3421  1.4819
 3325SOL     OW10306   2.436   4.249   3.128 -0.1863  1.0620 -0.3425
 3325SOL    HW110307   2.443   4.343   3.117 -0.5406  1.1594  0.2472
 3325SOL    HW210308   2.474   4.212   3.047  0.5637  1.6901 -0.2827
 3326SOL     OW10309   4.796   2.111   2.319 -0.1612 -0.2650  0.0856
 3326SOL    HW110310   4.871   2.141   2.371  2.1198 -0.6438 -2.8528
 3326SOL    HW210311   4.798   2.016   2.326  1.0591 -0.4041 -1.8323
 3327SOL     OW10312   0.249   3.828   5.477  0.1370  0.3352 -0.2947
 3327SOL    HW110313   0.298   3.751   5.449 -0.9892 -0.7735  0.6756
 3327SOL    HW210314   0.316   3.893   5.500  1.2493 -1.7827  2.7989
 3328SOL     OW10315   5.369   4.260   3.190  0.7072 -0.1423  0.0328
 3328SOL    HW110316   5.429   4.219   3.252  0.5934  0.5458  0.6057
 3328SOL    HW210317   5.414   4.340   3.162  0.5213 -0.1720 -0.3593
 3329SOL     OW10318   1.332   0.672   1.962 -0.3954  0.4161 -0.6715
 3329SOL    HW110319   1.289   0.674   1.876  1.2812 -1.2207 -1.5929
 3329SOL    HW210320   1.311   0.585   1.997  0.0128  0.5825 -0.0153
 3330SOL     OW10321   5.238   5.464   4.057  0.2493  0.3214  0.7522
 3330SOL    HW110322   5.284   5.443   4.138  0.0480  0.5180  0.9164
 3330SOL    HW210323   5.298   5.524   4.011  1.1701 -1.1868 -0.0672
 3331SOL     OW10324   1.903   0.697   0.955  0.3343 -0.7626  0.4652
 3331SOL    HW110325   1.918   0.717   0.863 -1.0432 -1.6311  0.0424
 3331SOL    HW210326   1.986   0.661   0.986  0.6880 -0.7999 -0.5225
 3332SOL     OW10327   2.987   0.900   3.845 -0.1914  0.1906 -0.0188
 3332SOL    HW110328   2.976   0.872   3.754  0.3439  2.3541 -0.7928
 3332SOL    HW210329   2.969   0.994   3.843  0.0057  0.2894  2.0907
 3333SOL     OW10330   0.734   4.402   2.952  0.0574  0.3365  0.0688
 3333SOL    HW110331   0.709   4.386   3.043 -0.9571  1.1444 -0.0677
 3333SOL    HW210332   0.762   4.493   2.950 -1.1630  0.6972 -0.7073
 3334SOL     OW10333   1.298   0.444   1.632 -0.0269 -0.5602 -0.5497
 3334SOL    HW110334   1.243   0.367   1.652  0.0093 -0.6476 -0.7844
 3334SOL    HW210335   1.257   0.483   1.555  0.7939 -1.1745 -1.3095
 3335SOL     OW10336   4.623   4.164   1.204 -0.1854  0.5586  0.1478
 3335SOL    HW110337   4.623   4.102   1.131 -0.8149 -0.0888  0.6892
 3335SOL    HW210338   4.640   4.111   1.282 -0.0471  1.1640  0.5368
 3336SOL     OW10339   1.031   4.599   0.072 -0.0650  0.6997 -0.9145
 3336SOL    HW110340   1.002   4.649   0.149 -0.6230 -1.3694  0.2494
 3336SOL    HW210341   0.963   4.616   0.007 -1.1946  0.0584  0.0679
 3337SOL     OW10342   2.157   3.996   4.944  0.1938  0.5769 -0.1169
 3337SOL    HW110343   2.187   4.087   4.947  0.3774  0.4933  0.9372
 3337SOL    HW210344   2.208   3.956   4.874  1.3603  0.8613  0.5545
 3338SOL     OW10345   5.222   2.201   5.389 -0.4970 -0.2159 -0.3097
 3338SOL    HW110346   5.199   2.123   5.338  2.0179 -0.7258 -0.7362
 3338SOL    HW210347   5.302   2.178   5.435 -0.2493  1.7928  0.3433
 3339SOL     OW10348   5.382   0.903   0.056  0.0328 -0.6222 -0.7906
 3339SOL    HW110349   5.323   0.870  -0.012 -0.3087  0.3589 -0.9780
 3339SOL    HW210350   5.343   0.986   0.083  0.5877 -0.6381  0.0646
 3340SOL     OW10351   3.243   3.670   3.792 -0.2794 -0.5012  0.5712
 3340SOL    HW110352   3.190   3.619   3.853  1.3962 -0.2371  2.2768
 3340SOL    HW210353   3.185   3.740   3.763 -1.4860 -1.3522  0.8719
 3341SOL     OW10354   1.034   4.432   4.883  0.3387  0.7416 -0.2517
 3341SOL    HW110355   1.108   4.373   4.870  0.8780  1.0223  1.3478
 3341SOL    HW210356   1.000   4.448   4.795  0.8863 -1.0459 -0.8085
 3342SOL     OW10357   2.257   2.643   2.845  0.7370 -0.6183 -0.1589
 3342SOL    HW110358   2.232   2.614   2.933  1.6450  0.1211  0.3603
 3342SOL    HW210359   2.184   2.616   2.789  1.1726 -3.1037  0.4201
 3343SOL     OW10360   2.869   2.697   3.035 -0.1582 -0.2811  0.3722
 3343SOL    HW110361   2.894   2.609   3.062 -0.2841 -0.7742 -1.0412
 3343SOL    HW210362   2.952   2.743   3.021 -0.0661 -0.7389 -0.6304
 3344SOL     OW10363   3.252   2.526   5.339  0.7027 -0.0053  0.4272
 3344SOL    HW110364   3.325   2.487   5.293  1.7019  2.2156  0.0665
 3344SOL    HW210365   3.289   2.556   5.422 -0.0028  0.3160  0.6307
 3345SOL     OW10366   0.793   2.966   0.364  0.2288 -0.2278 -0.1315
 3345SOL    HW110367   0.722   3.003   0.417  0.0672 -0.9300  0.1505
 3345SOL    HW210368   0.758   2.884   0.330  0.4776  0.0201 -1.0061
 3346SOL     OW10369   0.279   0.144   1.654 -0.1234 -0.5562 -0.4779
 3346SOL    HW110370   0.336   0.107   1.587  0.4937 -0.8639  0.2077
 3346SOL    HW210371   0.335   0.205   1.702 -1.6596  2.9078 -2.9118
 3347SOL     OW10372   4.729   1.358   2.506 -0.2296 -0.3727  0.0842
 3347SOL    HW110373   4.707   1.404   2.425 -0.0445  0.4504  0.4885
 3347SOL    HW210374   4.803   1.301   2.483  0.2365  0.3295 -0.1805
 3348SOL     OW10375   2.294   1.650   3.994 -0.4089  0.1052 -0.1147
 3348SOL    HW110376   2.316   1.558   4.007  1.1205  0.7013  1.6564
 3348SOL    HW210377   2.222   1.667   4.054  0.5306  0.5177  0.9084
 3349SOL     OW10378   3.655   5.564   2.105  0.3645 -0.7699  0.0075
 3349SOL    HW110379   3.627   5.511   2.179 -1.8119 -2.4214 -1.8857
 3349SOL    HW210380   3.686   5.501   2.040  1.1264  0.5374 -0.9359
 3350SOL     OW10381   5.097   2.125   1.636  0.3919  0.4493 -0.0793
 3350SOL    HW110382   5.073   2.189   1.569 -1.2491  0.4092  0.4567
 3350SOL    HW210383   5.036   2.053   1.623  1.7164 -0.6821 -0.1591
 3351SOL     OW10384   1.484   0.744   2.866 -0.0548  0.0234  1.0111
 3351SOL    HW110385   1.421   0.727   2.936  0.8892  1.2237  2.1902
 3351SOL    HW210386   1.484   0.839   2.856 -0.2123 -0.1429 -0.6676
 3352SOL     OW10387   4.631   5.331   2.381  0.1407  0.1783 -0.2741
 3352SOL    HW110388   4.637   5.426   2.394  2.2509 -0.1555  1.5101
 3352SOL    HW210389   4.595   5.321   2.293 -1.2856  2.6229 -0.0223
 3353SOL     OW10390   3.626   2.232   4.390 -0.4024  0.1963 -0.2222
 3353SOL    HW110391   3.557   2.227   4.456 -0.1983 -1.1646 -0.1006
 3353SOL    HW210392   3.597   2.175   4.319  0.4092 -0.0757 -0.3455
 3354SOL     OW10393   5.028   5.475   5.271  0.3946  0.0029  0.5489
 3354SOL    HW110394   5.029   5.411   5.341  1.6889 -2.3034 -1.5084
 3354SOL    HW210395   5.113   5.518   5.276  0.4060 -0.0201  0.5465
 3355SOL     OW10396   4.813   4.837   0.878  0.1326  0.9541  0.3251
 3355SOL    HW110397   4.737   4.801   0.924  0.3817  0.1487  0.1267
 3355SOL    HW210398   4.879   4.851   0.947  0.6856 -0.7304  0.1720
 3356SOL     OW10399   2.116   3.125   3.283 -0.4280 -0.0756  0.3047
 3356SOL    HW110400   2.186   3.177   3.323 -0.4475 -0.4477  0.8186
 3356SOL    HW210401   2.162   3.067   3.221 -0.1689 -1.0533  1.4019
 3357SOL     OW10402   2.458   3.669   3.705 -0.0921  0.5290  0.4311
 3357SOL    HW110403   2.408   3.600   3.660 -0.6500  2.3928 -1.9003
 3357SOL    HW210404   2.508   3.622   3.772 -4.1441 -1.5831  2.1847
 3358SOL     OW10405   2.516   4.417   2.863  0.3128  0.6403  0.4214
 3358SOL    HW110406   2.593   4.366   2.887 -1.0343 -1.5555  0.1959
 3358SOL    HW210407   2.487   4.458   2.945  0.1735 -0.6893  1.0455
 3359SOL     OW10408   0.498   1.805   4.702 -0.6300 -0.0855 -0.1002
 3359SOL    HW110409   0.429   1.739   4.703 -1.0270  0.3422  2.0211
 3359SOL    HW210410   0.555   1.781   4.775  0.9364  0.1370 -1.2360
 3360SOL     OW10411   3.332   0.632   0.421  0.2225  0.3840  0.2759
 3360SOL    HW110412   3.324   0.712   0.369 -1.1211 -0.2550 -0.5301
 3360SOL    HW210413   3.275   0.647   0.496  1.8036  1.1194  1.3470
 3361SOL     OW10414   3.852   3.765   2.711  0.2844  0.0337 -0.6904
 3361SOL    HW110415   3.803   3.817   2.647  0.0363 -0.6250 -1.0377
 3361SOL    HW210416   3.942   3.767   2.680  0.6856  2.0814  0.4855
 3362SOL     OW10417   0.506   0.625   2.096 -0.2786 -0.2571  0.2348
 3362SOL    HW110418   0.581   0.628   2.155 -0.6406 -1.2339  0.7705
 3362SOL    HW210419   0.534   0.672   2.018  0.7688 -0.3307  0.5612
 3363SOL     OW10420   4.445   3.988   2.845  0.3306  0.6122  0.6011
 3363SOL    HW110421   4.356   3.953   2.844  1.4115 -2.1979 -1.7282
 3363SOL    HW210422   4.454   4.028   2.932 -2.1754 -1.7529  2.0173
 3364SOL     OW10423   0.318   1.401   1.513  0.2819 -0.3651 -0.8768
 3364SOL    HW110424   0.224   1.393   1.497  0.1778  2.1584 -1.7027
 3364SOL    HW210425   0.348   1.467   1.450  2.8853 -2.1750 -1.6170
 3365SOL     OW10426   4.277   1.364   2.612 -0.4828 -0.0539  0.4928
 3365SOL    HW110427   4.290   1.432   2.678 -0.3301 -0.3995  0.8172
 3365SOL    HW210428   4.218   1.404   2.549 -0.4599  0.3545  0.7249
 3366SOL     OW10429   1.970   1.744   1.784  0.1290 -0.0639 -0.1241
 3366SOL    HW110430   1.943   1.820   1.731 -3.2463 -1.0919 -0.0179
 3366SOL    HW210431   2.015   1.687   1.722 -0.2332  0.5478 -0.9686
 3367SOL     OW10432   0.316   3.137   3.349  0.2180  0.0787 -0.3043
 3367SOL    HW110433   0.313   3.042   3.356  0.4502 -0.0100 -1.3204
 3367SOL    HW210434   0.284   3.156   3.261  0.6867  0.9141 -0.3054
 3368SOL     OW10435   2.679   1.785   1.410  0.1566  0.2045 -0.4797
 3368SOL    HW110436   2.685   1.848   1.481 -1.4643  0.2231 -0.3494
 3368SOL    HW210437   2.689   1.700   1.453  0.2056  0.2638 -0.3737
 3369SOL     OW10438   1.492   0.050   5.239  0.0557 -0.0311 -0.4557
 3369SOL    HW110439   1.574   0.005   5.259 -0.2195 -0.2385  0.2200
 3369SOL    HW210440   1.430   0.017   5.304 -0.9563 -0.9544 -1.8486
 3370SOL     OW10441   1.699   1.065   0.337  0.0584 -0.3496 -0.2153
 3370SOL    HW110442   1.781   1.015   0.345 -0.2931 -1.3092 -2.2968
 3370SOL    HW210443   1.637   1.018   0.392  0.6395 -0.1360  0.6521
 3371SOL     OW10444   1.362   2.471   3.437  0.0576  0.4088 -0.5473
 3371SOL    HW110445   1.270   2.485   3.458 -0.5066 -2.1530 -1.0088
 3371SOL    HW210446   1.376   2.377   3.451  2.2933  0.5296 -1.5878
 3372SOL     OW10447   1.589   4.292   5.542 -0.3769 -0.1620  0.3336
 3372SOL    HW110448   1.590   4.241   5.623 -0.7663 -2.2792 -0.9567
 3372SOL    HW210449   1.500   4.325   5.535 -0.3432  0.0214  0.7667
 3373SOL     OW10450   2.807   3.616   0.413  0.4846  0.1873  0.0908
 3373SOL    HW110451   2.779   3.692   0.362  0.4002  2.1605  2.9279
 3373SOL    HW210452   2.901   3.612   0.399  0.4491  0.6717 -0.3110
 3374SOL     OW10453   1.052   1.083   4.524  0.7236 -0.8157 -0.5860
 3374SOL    HW110454   1.106   1.132   4.461  0.5923  0.5499  0.3238
 3374SOL    HW210455   1.092   1.103   4.609  0.0236 -1.4696 -0.1033
 3375SOL     OW10456   3.717   0.096   1.796  0.7119  0.1598 -0.4036
 3375SOL    HW110457   3.728   0.118   1.704 -0.2911  0.2015 -0.5165
 3375SOL    HW210458   3.625   0.072   1.804  0.5494  1.1612  0.8002
 3376SOL     OW10459   5.529   4.499   3.227  0.0648 -0.0728  0.1504
 3376SOL    HW110460   5.469   4.515   3.299 -0.0468  0.4356 -0.0497
 3376SOL    HW210461   5.575   4.583   3.216 -0.3980  0.0589 -0.8088
 3377SOL     OW10462   3.114   5.543   2.681  0.2076 -0.3997  0.0476
 3377SOL    HW110463   3.033   5.548   2.731  0.0966 -1.2634 -0.0421
 3377SOL    HW210464   3.159   5.467   2.715 -0.5100 -1.8434 -2.0920
 3378SOL     OW10465   1.388   0.190   3.116 -0.6317 -0.5775 -0.1283
 3378SOL    HW110466   1.309   0.150   3.152 -0.0006 -1.6841  0.0516
 3378SOL    HW210467   1.362   0.222   3.029 -2.0260  1.6547  1.0530
 3379SOL     OW10468   2.514   5.184   5.321 -0.1843 -0.4525 -0.4849
 3379SOL    HW110469   2.497   5.146   5.407  0.2582  3.2214  1.2915
 3379SOL    HW210470   2.430   5.182   5.277 -1.6101  2.3052  1.9765
 3380SOL     OW10471   1.167   2.665   0.828 -0.1548 -0.0999 -0.5192
 3380SOL    HW110472   1.237   2.729   0.840  1.3783 -1.9648  0.6653
 3380SOL    HW210473   1.157   2.659   0.733  2.3688 -0.9490 -0.7535
 3381SOL     OW10474   2.610   2.061   3.140  0.3656  0.5526 -0.3689
 3381SOL    HW110475   2.560   2.035   3.062 -0.1847 -0.1291  0.2021
 3381SOL    HW210476   2.626   1.979   3.186  0.1297  1.0275  0.5601
 3382SOL     OW10477   4.701   1.184   2.717  0.0837 -0.0467  0.1926
 3382SOL    HW110478   4.786   1.146   2.737  0.8430  1.2332 -0.5159
 3382SOL    HW210479   4.721   1.255   2.655 -1.5582 -0.1375 -0.4563
 3383SOL     OW10480   1.152   0.681   5.488 -0.1657  0.0720  0.2519
 3383SOL    HW110481   1.137   0.674   5.582 -0.5020  1.3265  0.3018
 3383SOL    HW210482   1.200   0.763   5.477  0.5716 -0.4649 -0.5956
 3384SOL     OW10483   4.598   4.817   1.466 -0.3131  0.0369 -0.0206
 3384SOL    HW110484   4.653   4.785   1.395 -1.3263 -2.3196  0.1764
 3384SOL    HW210485   4.659   4.850   1.532  0.8296 -1.5463 -0.2596
 3385SOL     OW10486   1.221   1.407   3.650  0.4285  0.1589 -0.6191
 3385SOL    HW110487   1.181   1.480   3.698 -0.4047 -0.1556 -0.8270
 3385SOL    HW210488   1.223   1.436   3.559  1.5025  0.5308 -0.4874
 3386SOL     OW10489   3.313   0.530   4.710 -0.1159  0.0263  0.2292
 3386SOL    HW110490   3.351   0.456   4.663 -1.1692 -0.3295 -0.0801
 3386SOL    HW210491   3.358   0.531   4.795  0.2643 -0.6493  0.0353
 3387SOL     OW10492   0.218   5.471   3.018  1.0129  0.7980  0.1747
 3387SOL    HW110493   0.159   5.524   3.072 -0.0118  0.3474 -0.4867
 3387SOL    HW210494   0.255   5.534   2.956 -0.2868  0.7421 -0.6783
 3388SOL     OW10495   1.996   4.844   5.495 -0.0464  0.1469  0.0708
 3388SOL    HW110496   2.032   4.780   5.433  0.2561 -0.0164  0.4101
 3388SOL    HW210497   1.908   4.862   5.463 -0.0353 -0.2394 -0.1809
 3389SOL     OW10498   5.478   1.228   4.707  0.5056 -0.0504  0.3387
 3389SOL    HW110499   5.442   1.140   4.693 -0.1233  0.1626  0.5798
 3389SOL    HW210500   5.426   1.263   4.779  1.1792  0.2827  0.6629
 3390SOL     OW10501   1.831   3.274   1.321  0.2310 -0.2729  0.0593
 3390SOL    HW110502   1.914   3.279   1.369 -0.0660  0.6972  0.4676
 3390SOL    HW210503   1.834   3.347   1.259  0.8819 -1.8718 -1.8456
 3391SOL     OW10504   0.690   0.786   1.122 -0.0666 -0.0139  0.0502
 3391SOL    HW110505   0.758   0.757   1.183  1.5156 -0.7432 -1.9993
 3391SOL    HW210506   0.720   0.870   1.090 -1.1013  0.5623  0.5682
 3392SOL     OW10507   2.885   2.885   1.750 -0.6916 -0.0168  0.6747
 3392SOL    HW110508   2.863   2.842   1.667  0.1788  0.9799 -0.0887
 3392SOL    HW210509   2.967   2.844   1.777 -0.7281 -0.0111  0.7908
 3393SOL     OW10510   4.652   2.220   4.101 -0.0258  0.6166 -0.4811
 3393SOL    HW110511   4.614   2.155   4.161 -0.7066 -0.0143 -1.5708
 3393SOL    HW210512   4.740   2.236   4.135 -0.1721 -0.2341  0.3048
 3394SOL     OW10513   3.489   0.658   0.965 -0.5608 -0.1830  0.4245
 3394SOL    HW110514   3.568   0.686   1.011  0.0310 -0.9001 -0.1346
 3394SOL    HW210515   3.503   0.685   0.874 -0.0175 -2.1418 -0.1012
 3395SOL     OW10516   1.088   4.644   1.736  0.1038  0.3645  0.3604
 3395SOL    HW110517   1.013   4.618   1.683 -0.1350  1.0679  0.3498
 3395SOL    HW210518   1.150   4.572   1.727  0.0062  0.4180 -0.7507
 3396SOL     OW10519   2.670   2.447   0.485  0.3666  0.3841  0.1168
 3396SOL    HW110520   2.638   2.487   0.404  1.8395  0.2967 -0.5250
 3396SOL    HW210521   2.765   2.448   0.476  0.4996 -0.9653  1.1983
 3397SOL     OW10522   0.390   3.023   3.052 -0.0610  0.3769  0.0514
 3397SOL    HW110523   0.311   3.068   3.023 -0.2690 -0.5004 -0.7891
 3397SOL    HW210524   0.379   3.015   3.147 -1.0164  0.2050 -0.0617
 3398SOL     OW10525   1.064   0.452   0.150  0.6982 -0.1560 -0.3673
 3398SOL    HW110526   1.002   0.465   0.079  0.4601 -1.5642 -0.4348
 3398SOL    HW210527   1.028   0.504   0.222 -1.6167 -2.4047  0.2000
 3399SOL     OW10528   2.797   3.100   3.466  0.1538  0.2663 -0.4227
 3399SOL    HW110529   2.724   3.119   3.525  0.5354  0.6694 -0.0735
 3399SOL    HW210530   2.814   3.007   3.476  1.5918  0.7269  1.6970
 3400SOL     OW10531   1.136   5.565   2.106 -0.0130 -0.1858  0.0262
 3400SOL    HW110532   1.179   5.619   2.040 -1.0626 -1.5756 -1.8319
 3400SOL    HW210533   1.045   5.559   2.077 -0.6741 -0.2325  2.0044
 3401SOL     OW10534   3.242   5.373   4.386 -0.5215  0.8015  0.0492
 3401SOL    HW110535   3.273   5.422   4.462 -1.6557 -0.4644  1.3625
 3401SOL    HW210536   3.246   5.281   4.413  0.9835  0.1792 -2.1389
 3402SOL     OW10537   0.898   4.239   5.276  0.2878  0.5367  0.7278
 3402SOL    HW110538   0.874   4.158   5.321 -0.4581  0.5020  0.2818
 3402SOL    HW210539   0.981   4.265   5.315  0.4736 -0.3844  0.9559
 3403SOL     OW10540   1.790   0.854   0.614  0.1273  0.3702 -0.2803
 3403SOL    HW110541   1.828   0.776   0.573  0.0507  0.2733 -0.1698
 3403SOL    HW210542   1.864   0.911   0.631  0.2468  0.1027  0.1069
 3404SOL     OW10543   0.630   1.931   5.391  0.0227 -0.3744 -0.5184
 3404SOL    HW110544   0.653   2.023   5.402 -0.7923 -0.0029 -1.8399
 3404SOL    HW210545   0.551   1.932   5.337  0.6397 -1.8876 -1.4757
 3405SOL     OW10546   3.894   2.679   1.574 -0.3696  0.0661 -0.0846
 3405SOL    HW110547   3.944   2.611   1.529 -2.1569 -0.0450 -1.9847
 3405SOL    HW210548   3.960   2.742   1.602  1.3019 -2.2326  1.4331
 3406SOL     OW10549   1.836   3.020   5.363  0.6510 -0.7189  0.1449
 3406SOL    HW110550   1.810   2.971   5.285  1.5797 -0.1298 -0.5407
 3406SOL    HW210551   1.882   2.956   5.417  1.0747 -0.8356 -0.3446
 3407SOL     OW10552   0.052   0.667   1.029 -0.6413  0.1970  0.2665
 3407SOL    HW110553   0.136   0.668   0.983 -1.7389  0.9440 -1.7989
 3407SOL    HW210554   0.050   0.583   1.074 -1.1936 -2.3903 -4.2953
 3408SOL     OW10555   2.945   3.417   1.948 -0.1098 -0.1549 -0.4787
 3408SOL    HW110556   2.918   3.465   1.870  1.6542  1.1218 -0.3533
 3408SOL    HW210557   2.996   3.481   1.999 -0.3164 -1.2784  1.1940
 3409SOL     OW10558   2.468   3.505   1.703  1.0166 -0.7107 -0.1893
 3409SOL    HW110559   2.390   3.559   1.718  1.3749  0.7178 -3.1757
 3409SOL    HW210560   2.507   3.496   1.790 -1.1291  0.6436  0.9693
 3410SOL     OW10561   2.362   0.118   1.032 -0.6807  0.5122  0.0174
 3410SOL    HW110562   2.388   0.176   1.103 -0.7223 -0.1259  0.5527
 3410SOL    HW210563   2.365   0.173   0.954  1.3304  0.7089  0.2136
 3411SOL     OW10564   0.489   5.170   4.096  0.8646 -0.5320 -0.1699
 3411SOL    HW110565   0.507   5.168   4.002  0.2649  0.5079 -0.3056
 3411SOL    HW210566   0.567   5.132   4.135  0.2495 -2.9829 -1.1997
 3412SOL     OW10567   2.000   1.424   0.910  0.0384  0.3386 -0.0653
 3412SOL    HW110568   2.001   1.464   0.823  0.2465 -2.4660 -1.4016
 3412SOL    HW210569   2.009   1.498   0.970  2.4091  2.1183 -2.4820
 3413SOL     OW10570   5.018   1.033   5.258 -0.1847 -0.3228  0.0780
 3413SOL    HW110571   4.944   1.087   5.230 -0.7986 -1.1570  0.0761
 3413SOL    HW210572   5.076   1.031   5.181 -0.7383 -0.6635 -0.3363
 3414SOL     OW10573   4.423   1.402   2.384 -0.0975 -0.0557  0.3113
 3414SOL    HW110574   4.470   1.479   2.417 -1.6957  1.2075 -0.2620
 3414SOL    HW210575   4.358   1.384   2.452 -1.9632  1.2099 -1.0960
 3415SOL     OW10576   4.775   1.127   5.168 -0.1516 -0.0470  0.0451
 3415SOL    HW110577   4.797   1.114   5.076 -0.8820  0.9472 -0.2729
 3415SOL    HW210578   4.689   1.086   5.179 -0.7024  1.0643 -0.0550
 3416SOL     OW10579   3.002   4.672   1.367 -0.2434  0.6624 -0.4613
 3416SOL    HW110580   3.004   4.651   1.274  0.2343 -0.3782 -0.2187
 3416SOL    HW210581   2.947   4.604   1.406 -0.3033  0.9991  0.0465
 3417SOL     OW10582   4.845   5.529   1.331 -0.5515 -0.0324  0.5976
 3417SOL    HW110583   4.825   5.557   1.242 -0.0302 -1.8914 -0.1289
 3417SOL    HW210584   4.759   5.516   1.371 -0.8060  2.3004  0.8951
 3418SOL     OW10585   4.772   2.954   5.349  0.3887  0.0100  0.2568
 3418SOL    HW110586   4.804   2.934   5.260 -1.3188 -1.1178 -0.1219
 3418SOL    HW210587   4.711   2.883   5.368 -0.9678  1.5001  1.4571
 3419SOL     OW10588   4.029   2.013   3.086 -0.5158  0.4040 -0.5580
 3419SOL    HW110589   3.934   2.001   3.091 -0.4335  0.6507  2.5194
 3419SOL    HW210590   4.047   2.087   3.144  1.7113 -0.6172  0.1076
 3420SOL     OW10591   2.446   2.080   0.674 -0.3992  0.2537 -0.5264
 3420SOL    HW110592   2.378   2.147   0.664  0.4988  0.9486 -2.1322
 3420SOL    HW210593   2.400   1.997   0.662 -1.5590  0.5468  1.6566
 3421SOL     OW10594   3.000   1.362   4.452 -0.2411 -0.2120  0.4790
 3421SOL    HW110595   2.912   1.350   4.488  0.4055  0.0513  2.1821
 3421SOL    HW210596   2.994   1.327   4.363 -2.4325  1.1003  0.0796
 3422SOL     OW10597   0.011   2.143   2.973  0.1003  0.2158  0.5947
 3422SOL    HW110598   0.013   2.142   3.069  2.2026  0.2462  0.5694
 3422SOL    HW210599   0.096   2.108   2.946 -0.1872  0.8546 -1.2558
 3423SOL     OW10600   2.399   5.238   3.082 -0.4569  0.2919 -0.4882
 3423SOL    HW110601   2.359   5.259   3.166 -0.6143  1.5775 -0.8739
 3423SOL    HW210602   2.365   5.305   3.022  1.5239  0.8450 -1.0253
 3424SOL     OW10603   5.348   1.059   1.785 -0.0294  0.5302 -0.0139
 3424SOL    HW110604   5.266   1.039   1.740  1.3365 -1.9495 -1.4820
 3424SOL    HW210605   5.401   1.104   1.719  1.8430 -2.8027 -0.9078
 3425SOL     OW10606   3.037   1.972   4.376 -0.1183  0.2693 -0.0398
 3425SOL    HW110607   3.018   1.912   4.448 -1.0574  0.2526 -0.2979
 3425SOL    HW210608   3.111   1.933   4.330 -0.2252 -0.2833  0.2676
 3426SOL     OW10609   1.705   3.265   0.923  0.4628 -0.4723  0.6096
 3426SOL    HW110610   1.634   3.330   0.920 -0.0832 -1.0364  1.0745
 3426SOL    HW210611   1.689   3.216   1.004  0.9963 -1.0465  0.3726
 3427SOL     OW10612   4.467   2.838   0.711 -0.0919  0.4541  0.2823
 3427SOL    HW110613   4.499   2.779   0.778 -1.2515 -0.0007  0.4532
 3427SOL    HW210614   4.446   2.919   0.757 -0.1191  0.4207  0.3276
 3428SOL     OW10615   5.441   3.144   1.437  0.2332 -0.2315  0.5365
 3428SOL    HW110616   5.440   3.048   1.431 -0.9762 -0.1380 -1.2680
 3428SOL    HW210617   5.348   3.168   1.441  0.5361  0.8680  1.2134
 3429SOL     OW10618   2.609   4.519   5.188 -0.5506  0.1748  0.4750
 3429SOL    HW110619   2.590   4.524   5.281  2.3542 -0.2224  1.1446
 3429SOL    HW210620   2.670   4.446   5.180 -0.9868  0.0144 -1.8010
 3430SOL     OW10621   3.180   3.919   0.328 -0.1744  0.1322  0.5024
 3430SOL    HW110622   3.260   3.868   0.317 -1.3274 -1.5019 -0.4958
 3430SOL    HW210623   3.201   4.004   0.289  1.1069 -0.2449  0.3387
 3431SOL     OW10624   3.138   1.847   3.780 -0.1793  0.1601  0.7069
 3431SOL    HW110625   3.227   1.842   3.745  0.2741 -0.2591  1.9084
 3431SOL    HW210626   3.145   1.900   3.859 -0.8469 -0.5216  1.2406
 3432SOL     OW10627   4.490   2.403   4.205  0.4439  0.5980 -0.0061
 3432SOL    HW110628   4.493   2.384   4.299  0.1859  0.1092 -0.0969
 3432SOL    HW210629   4.540   2.332   4.164 -1.8127 -0.7400 -0.4774
 3433SOL     OW10630   5.428   3.891   5.178 -0.6362  0.9862  0.3873
 3433SOL    HW110631   5.356   3.951   5.198 -1.2967  0.1458  0.5317
 3433SOL    HW210632   5.486   3.898   5.254 -0.5571  1.6565  0.2726
 3434SOL     OW10633   2.449   0.163   4.452  0.9241  0.6466 -0.1076
 3434SOL    HW110634   2.449   0.113   4.533 -2.7697  0.7897  0.0496
 3434SOL    HW210635   2.483   0.249   4.478 -2.3778  1.4337  1.8397
 3435SOL     OW10636   5.003   0.785   4.935 -0.0622 -0.4092  0.3290
 3435SOL    HW110637   5.050   0.725   4.877  0.5616 -0.2914  0.7090
 3435SOL    HW210638   4.925   0.809   4.885  1.2118  0.8842 -1.1117
 3436SOL     OW10639   0.280   5.232   0.999  0.2790 -0.1857  0.1377
 3436SOL    HW110640   0.333   5.201   1.072 -0.8035  2.7609  2.2850
 3436SOL    HW210641   0.190   5.224   1.030 -0.3750 -1.5021 -1.9851
 3437SOL     OW10642   4.551   1.533   2.841 -0.4586  0.0843 -0.1620
 3437SOL    HW110643   4.488   1.591   2.883 -0.1579 -0.4473  1.0401
 3437SOL    HW210644   4.529   1.446   2.874 -0.9774 -0.5121 -2.0321
 3438SOL     OW10645   3.314   0.653   3.080  0.1512 -0.0728  0.1544
 3438SOL    HW110646   3.298   0.617   2.992  1.6097 -0.2726 -0.0351
 3438SOL    HW210647   3.385   0.716   3.067  1.4632 -1.2538  1.4662
 3439SOL     OW10648   5.191   3.238   0.622  0.0163 -0.5141  0.9152
 3439SOL    HW110649   5.258   3.255   0.556  0.2891 -2.4989  0.6412
 3439SOL    HW210650   5.196   3.313   0.681  0.4788  0.7793 -0.7359
 3440SOL     OW10651   4.665   0.633   4.620  0.3585 -0.0363 -0.0861
 3440SOL    HW110652   4.705   0.552   4.587  1.3136  0.4202 -0.0762
 3440SOL    HW210653   4.577   0.633   4.582  0.2017 -1.2859  0.2519
 3441SOL     OW10654   1.830   1.091   4.796  0.1045 -0.0364 -0.3174
 3441SOL    HW110655   1.809   1.074   4.888  0.3287 -2.9688 -0.7502
 3441SOL    HW210656   1.925   1.099   4.794  0.0436  0.7665 -0.2011
 3442SOL     OW10657   1.404   0.456   3.318 -0.3154 -0.0009 -0.5663
 3442SOL    HW110658   1.389   0.428   3.409 -0.4274 -0.4027 -0.7049
 3442SOL    HW210659   1.380   0.379   3.266  0.9368 -0.1969 -0.8720
 3443SOL     OW10660   3.635   3.575   4.219 -0.1722  0.7124  0.5832
 3443SOL    HW110661   3.685   3.493   4.222  1.0960  1.4587 -0.0118
 3443SOL    HW210662   3.543   3.546   4.220  0.2515 -0.7854 -0.7601
 3444SOL     OW10663   5.212   0.001   3.796  0.5301  0.4347 -0.1166
 3444SOL    HW110664   5.197   0.092   3.770  3.9859  0.9753 -0.4211
 3444SOL    HW210665   5.174  -0.050   3.725 -0.3522  1.6725 -0.5492
 3445SOL     OW10666   0.104   1.784   1.976  0.3562 -0.4276 -0.3821
 3445SOL    HW110667   0.107   1.863   2.030  2.0524 -0.3302 -0.5823
 3445SOL    HW210668   0.050   1.722   2.026  0.9351  0.0665  0.8780
 3446SOL     OW10669   0.018   4.136   4.710  0.1305  0.4085  0.5181
 3446SOL    HW110670  -0.069   4.156   4.675  0.7425  0.9712 -0.7544
 3446SOL    HW210671   0.004   4.119   4.803 -1.3224  0.5623  0.3400
 3447SOL     OW10672   0.356   4.546   4.396 -0.1966  0.0942 -0.4863
 3447SOL    HW110673   0.404   4.467   4.371  0.2353  0.5926 -1.2614
 3447SOL    HW210674   0.306   4.520   4.474 -0.8795 -1.2323 -1.3456
 3448SOL     OW10675   1.552   0.376   2.508  1.0629  0.4492 -0.6975
 3448SOL    HW110676   1.519   0.458   2.545 -0.7202 -1.4637  2.0622
 3448SOL    HW210677   1.642   0.398   2.480  0.3417  3.5344 -0.8269
 3449SOL     OW10678   4.914   3.843   0.193  0.2233 -0.1199 -0.1155
 3449SOL    HW110679   4.866   3.916   0.232 -0.5519  0.8586 -2.7748
 3449SOL    HW210680   4.998   3.881   0.167  0.2508 -0.4548 -0.5170
 3450SOL     OW10681   0.824   4.107   2.560  0.4684 -0.5715 -0.3509
 3450SOL    HW110682   0.914   4.082   2.537  0.5431 -0.4910 -0.1450
 3450SOL    HW210683   0.833   4.193   2.602  0.2649 -0.4307 -0.5980
 3451SOL     OW10684   5.243   3.467   0.759 -0.3441 -0.0291  0.4297
 3451SOL    HW110685   5.178   3.533   0.784 -1.0048 -0.1138 -1.0195
 3451SOL    HW210686   5.299   3.512   0.696  0.9104 -0.0132  1.5348
 3452SOL     OW10687   4.543   0.741   5.405 -0.0531  0.2262  0.1470
 3452SOL    HW110688   4.632   0.750   5.369  0.0764  3.6099  1.1564
 3452SOL    HW210689   4.555   0.686   5.483  0.9278 -0.3767 -0.4066
 3453SOL     OW10690   1.076   2.952   0.318  0.2507 -0.3204 -0.1826
 3453SOL    HW110691   0.981   2.954   0.332  0.2177  1.4563 -0.5600
 3453SOL    HW210692   1.086   2.947   0.223  0.5371 -0.4649 -0.1451
 3454SOL     OW10693   4.500   5.227   4.204 -0.1253  0.6111 -0.5267
 3454SOL    HW110694   4.465   5.148   4.245 -2.1679  0.8085 -1.8345
 3454SOL    HW210695   4.423   5.283   4.191  1.0794  2.1870 -0.9787
 3455SOL     OW10696   1.340   2.277   0.970 -0.1586 -0.5972  0.2243
 3455SOL    HW110697   1.364   2.278   1.063 -3.7737 -0.9245  1.2553
 3455SOL    HW210698   1.331   2.184   0.948 -2.8915 -0.4548  0.6042
 3456SOL     OW10699   4.910   1.613   0.321  0.2773  0.0834  0.5544
 3456SOL    HW110700   4.941   1.686   0.375  1.2014 -0.4049  0.6925
 3456SOL    HW210701   4.988   1.583   0.275  0.1917 -1.7092  1.5567
 3457SOL     OW10702   0.079   3.621   0.321  0.7464  0.1376  0.3269
 3457SOL    HW110703  -0.006   3.581   0.301  0.1859  0.9197  1.0934
 3457SOL    HW210704   0.080   3.626   0.416  1.4873  0.5003  0.2962
 3458SOL     OW10705   5.193   1.866   1.890  0.0455  0.2913  0.2934
 3458SOL    HW110706   5.157   1.800   1.831  1.9667  1.1329 -1.9376
 3458SOL    HW210707   5.231   1.816   1.962  0.0335 -0.9442 -0.5461
 3459SOL     OW10708   1.843   1.175   0.046  0.3331  0.0009  0.2253
 3459SOL    HW110709   1.757   1.207   0.074 -0.4197 -0.9357 -0.9593
 3459SOL    HW210710   1.857   1.096   0.099 -0.3282 -0.8210 -0.8119
 3460SOL     OW10711   5.374   1.154   1.042 -0.4295  0.4778  0.4096
 3460SOL    HW110712   5.352   1.169   1.133  0.0873  0.0456  0.6104
 3460SOL    HW210713   5.456   1.105   1.045  0.6885  2.2416 -0.3101
 3461SOL     OW10714   0.165   1.785   5.296 -0.2167  0.1570  0.9996
 3461SOL    HW110715   0.084   1.834   5.280 -1.8482 -2.7424  0.0666
 3461SOL    HW210716   0.143   1.723   5.365  1.1631 -0.7891  0.6140
 3462SOL     OW10717   5.075   4.187   0.606 -0.2432  0.2249 -0.0339
 3462SOL    HW110718   5.095   4.262   0.550 -0.7494  0.8040  0.5533
 3462SOL    HW210719   4.997   4.148   0.566 -1.3146  1.3445  0.9461
 3463SOL     OW10720   4.403   2.685   0.939 -0.2330 -0.6892 -0.2500
 3463SOL    HW110721   4.335   2.628   0.974 -0.9995  0.2555 -0.1560
 3463SOL    HW210722   4.388   2.769   0.983  0.8252 -0.3940 -0.4384
 3464SOL     OW10723   3.886   2.052   2.568 -0.3232  0.2824  0.1869
 3464SOL    HW110724   3.803   2.095   2.587  0.9494  2.6589  0.5546
 3464SOL    HW210725   3.937   2.118   2.522  0.2100 -2.2098 -2.9491
 3465SOL     OW10726   0.224   0.085   5.450  0.0392  0.0020  0.2232
 3465SOL    HW110727   0.223   0.177   5.424  1.0563  0.1829  0.8013
 3465SOL    HW210728   0.175   0.082   5.532 -0.6282 -0.0938 -0.1768
 3466SOL     OW10729   3.879   2.439   3.630  0.4702  0.5709  0.1646
 3466SOL    HW110730   3.875   2.462   3.537 -0.5631 -0.4236 -0.0502
 3466SOL    HW210731   3.970   2.414   3.645  0.9160  1.8947 -0.2933
 3467SOL     OW10732   4.521   2.280   3.857 -0.6213 -0.1600 -0.5126
 3467SOL    HW110733   4.568   2.279   3.940 -0.2714 -0.7660 -0.7168
 3467SOL    HW210734   4.436   2.242   3.877 -0.6144 -0.1124 -0.3895
 3468SOL     OW10735   1.946   4.550   3.982  0.5280 -0.5610 -0.3063
 3468SOL    HW110736   1.870   4.602   4.006  2.1062  1.0195  1.4050
 3468SOL    HW210737   1.965   4.497   4.059  0.9330 -1.2466 -0.8687
 3469SOL     OW10738   5.332   4.232   1.151 -0.0385  0.0446  0.1634
 3469SOL    HW110739   5.300   4.143   1.136 -0.7391  0.7091 -2.6718
 3469SOL    HW210740   5.424   4.221   1.172 -0.6278 -1.4768  2.1083
 3470SOL     OW10741   5.341   4.676   0.074  0.2629  0.5160  0.1494
 3470SOL    HW110742   5.268   4.646   0.020 -1.3251  0.6486  2.1379
 3470SOL    HW210743   5.351   4.609   0.141 -0.6777  2.3621  2.2285
 3471SOL     OW10744   2.905   4.986   1.217 -0.6133  0.0719 -0.2455
 3471SOL    HW110745   2.966   4.931   1.168 -0.8424  0.1710 -0.6472
 3471SOL    HW210746   2.827   4.931   1.230 -1.4309  0.7857 -1.9537
 3472SOL     OW10747   0.359   0.756   4.374  0.5131  0.5554  0.0218
 3472SOL    HW110748   0.277   0.806   4.382 -0.6442 -1.4388  1.1261
 3472SOL    HW210749   0.387   0.772   4.284 -0.8772  1.6070 -0.2519
 3473SOL     OW10750   0.171   3.992   5.112  0.5085 -0.5618  0.3077
 3473SOL    HW110751   0.174   3.897   5.104 -1.8537 -0.5228 -1.5847
 3473SOL    HW210752   0.210   4.023   5.030 -2.2276  0.0400 -0.8131
 3474SOL     OW10753   5.482   4.718   5.089 -0.4265  0.4259 -0.2116
 3474SOL    HW110754   5.497   4.722   5.183  0.0000 -0.6569 -0.2313
 3474SOL    HW210755   5.568   4.705   5.051 -0.9601 -2.5081 -0.5273
 3475SOL     OW10756   3.426   1.231   3.194  0.0926 -0.2368  0.5411
 3475SOL    HW110757   3.474   1.262   3.118 -0.5124 -2.1581 -0.6598
 3475SOL    HW210758   3.334   1.251   3.175  0.1303  1.0438  1.6464
 3476SOL     OW10759   4.304   2.627   1.395 -0.5779  0.2766 -0.3743
 3476SOL    HW110760   4.385   2.576   1.389 -0.8108 -0.2529  0.8687
 3476SOL    HW210761   4.300   2.656   1.486 -1.4490  0.8791 -0.5949
 3477SOL     OW10762   2.240   2.128   0.468  0.2281 -0.4295  0.4431
 3477SOL    HW110763   2.240   2.041   0.429 -0.9413 -0.6542  0.9299
 3477SOL    HW210764   2.212   2.113   0.559  1.2307  0.2982  0.8799
 3478SOL     OW10765   2.568   2.846   1.864 -0.5022 -0.5511  0.1003
 3478SOL    HW110766   2.561   2.929   1.818 -2.9039 -0.8627 -0.1838
 3478SOL    HW210767   2.583   2.870   1.955 -1.0551  0.1990 -0.0048
 3479SOL     OW10768   0.241   4.348   3.671  0.3810  0.1869  0.5752
 3479SOL    HW110769   0.234   4.339   3.766 -4.2877  0.6957  0.3676
 3479SOL    HW210770   0.222   4.261   3.637  4.2086 -0.5409  0.0811
 3480SOL     OW10771   4.505   4.594   5.151 -0.0010  0.0631 -0.3215
 3480SOL    HW110772   4.552   4.517   5.184 -2.2014 -1.5653 -0.8096
 3480SOL    HW210773   4.437   4.557   5.094 -0.1305  2.4843 -1.7961
 3481SOL     OW10774   3.888   0.293   5.328 -0.2934 -0.2255  0.7061
 3481SOL    HW110775   3.948   0.330   5.263 -0.2167  0.2053  1.0199
 3481SOL    HW210776   3.945   0.269   5.401 -0.0765 -2.6184 -0.1677
 3482SOL     OW10777   4.293   0.554   2.101 -0.0963  0.5700 -0.3041
 3482SOL    HW110778   4.249   0.584   2.022  1.0482 -0.2209 -1.2555
 3482SOL    HW210779   4.304   0.633   2.154  0.7198  1.4323 -1.7206
 3483SOL     OW10780   5.384   3.843   2.526  0.1300 -0.0544 -0.1389
 3483SOL    HW110781   5.302   3.879   2.560 -0.4214 -2.2225  0.9066
 3483SOL    HW210782   5.417   3.910   2.466 -2.1478  1.0571 -0.1822
 3484SOL     OW10783   2.796   0.232   1.080 -0.2288 -0.0596  0.2267
 3484SOL    HW110784   2.741   0.186   1.018 -0.1419  1.1552 -0.7803
 3484SOL    HW210785   2.820   0.166   1.146  1.2824 -1.8741 -2.0621
 3485SOL     OW10786   3.111   1.228   3.555  0.1222 -0.3873  0.1888
 3485SOL    HW110787   3.016   1.227   3.548  0.1186 -0.0306  0.1526
 3485SOL    HW210788   3.131   1.316   3.589  0.5606  0.1727 -1.4972
 3486SOL     OW10789   0.548   1.986   5.052  0.0828 -0.1204 -1.0041
 3486SOL    HW110790   0.472   1.957   5.102  0.4089 -2.1562 -1.6373
 3486SOL    HW210791   0.558   2.079   5.074 -0.0146 -0.8429  2.3677
 3487SOL     OW10792   1.614   0.635   1.997 -0.5506  0.0158  0.1303
 3487SOL    HW110793   1.622   0.571   1.926 -0.2472 -0.3567  0.4918
 3487SOL    HW210794   1.522   0.660   1.997 -0.4113  0.5609 -0.8583
 3488SOL     OW10795   1.079   2.070   4.348 -0.0629 -0.6126 -0.0048
 3488SOL    HW110796   1.145   2.044   4.285 -0.7112  1.7495 -1.7212
 3488SOL    HW210797   0.996   2.041   4.311 -0.3415 -0.1990  0.2761
 3489SOL     OW10798   2.269   5.163   0.927  0.2407 -0.6764  0.3591
 3489SOL    HW110799   2.205   5.102   0.964  0.7423 -0.8198  0.9901
 3489SOL    HW210800   2.349   5.148   0.977  0.6354 -0.1583 -0.1087
 3490SOL     OW10801   0.251   0.399   3.190  0.0556 -0.2271  0.3978
 3490SOL    HW110802   0.315   0.393   3.261 -0.5048 -1.8959  0.8065
 3490SOL    HW210803   0.214   0.310   3.184 -0.2429  0.0097 -1.6696
 3491SOL     OW10804   1.858   4.373   5.492  0.5814 -0.1122  0.4144
 3491SOL    HW110805   1.768   4.342   5.505  0.0116  0.0505 -2.7279
 3491SOL    HW210806   1.864   4.452   5.545 -0.4908 -1.2328  2.2425
 3492SOL     OW10807   2.848   4.664   0.347 -0.5127  0.3148  0.3487
 3492SOL    HW110808   2.816   4.578   0.320 -1.0471  0.5999  0.0834
 3492SOL    HW210809   2.775   4.704   0.393 -0.0006  0.3123  1.1964
 3493SOL     OW10810   2.537   3.362   4.957 -0.5435 -0.0405  0.0521
 3493SOL    HW110811   2.621   3.366   4.912 -0.7960 -1.6012 -0.5678
 3493SOL    HW210812   2.559   3.349   5.049 -0.0832  0.9843  0.0931
 3494SOL     OW10813   5.038   1.705   1.751 -0.1823  0.3499  0.0929
 3494SOL    HW110814   4.978   1.631   1.761 -0.9380  0.6638 -1.9184
 3494SOL    HW210815   5.086   1.687   1.671  1.8180  0.5463  1.2228
 3495SOL     OW10816   4.366   4.278   2.060 -0.1895  0.3462  0.2081
 3495SOL    HW110817   4.272   4.281   2.079 -0.2088  0.4918  0.0873
 3495SOL    HW210818   4.372   4.296   1.966  0.1063  2.6349  0.6305
 3496SOL     OW10819   1.817   0.089   3.577  0.0453  0.0214  0.3278
 3496SOL    HW110820   1.737   0.067   3.530  0.1597 -0.4316  0.3405
 3496SOL    HW210821   1.835   0.179   3.553 -1.0639  0.4855  1.1724
 3497SOL     OW10822   0.502   4.342   5.495  0.2786  0.0827  0.4810
 3497SOL    HW110823   0.441   4.331   5.422 -0.0353  1.4247  0.5249
 3497SOL    HW210824   0.536   4.254   5.513 -0.9429 -0.5150 -0.1523
 3498SOL     OW10825   2.621   2.347   3.097  0.3902  0.5472  0.0875
 3498SOL    HW110826   2.592   2.370   3.185  1.1222  0.2594  0.4071
 3498SOL    HW210827   2.634   2.253   3.100 -0.1857  0.4472 -0.5091
 3499SOL     OW10828   2.205   0.532   4.290  0.1447  0.0320  0.0093
 3499SOL    HW110829   2.277   0.477   4.319 -1.2345 -2.2577 -0.7125
 3499SOL    HW210830   2.177   0.492   4.207 -0.0307  2.6544 -1.2204
 3500SOL     OW10831   4.847   1.629   1.115  0.1345 -0.1199 -0.1548
 3500SOL    HW110832   4.798   1.686   1.056  0.8660  0.3221 -0.3409
 3500SOL    HW210833   4.783   1.565   1.145 -0.9342  1.3786  0.8315
 3501SOL     OW10834   2.156   0.639   2.106  0.2308  0.9267  0.0246
 3501SOL    HW110835   2.157   0.713   2.045  2.5549  0.8299 -0.1111
 3501SOL    HW210836   2.064   0.629   2.130 -0.6754  1.2590 -3.0976
 3502SOL     OW10837   1.186   0.129   2.366  0.4317  0.3660  0.4052
 3502SOL    HW110838   1.128   0.122   2.291 -2.5169  0.7907  2.5492
 3502SOL    HW210839   1.272   0.148   2.328 -1.2207  1.9380 -2.7894
 3503SOL     OW10840   0.978   3.410   1.567 -0.0369 -0.0930 -0.3520
 3503SOL    HW110841   0.944   3.500   1.566 -0.6632 -0.3210  0.2630
 3503SOL    HW210842   1.073   3.421   1.577 -0.2241  0.4817  0.9268
 3504SOL     OW10843   3.671   2.172   0.767 -0.1886 -0.0146 -0.1723
 3504SOL    HW110844   3.690   2.220   0.685  0.9851 -0.8900 -0.4306
 3504SOL    HW210845   3.576   2.168   0.771 -0.3423  2.9785  0.2159
 3505SOL     OW10846   1.714   5.101   4.848  0.0536  0.4561 -0.0814
 3505SOL    HW110847   1.794   5.050   4.841  0.3374  0.9226 -0.2094
 3505SOL    HW210848   1.655   5.045   4.899  0.2710 -0.1092 -0.4426
 3506SOL     OW10849   3.640   3.602   2.986  0.0433 -0.1959 -0.1293
 3506SOL    HW110850   3.579   3.646   3.045 -0.1474  1.1095 -1.2971
 3506SOL    HW210851   3.711   3.665   2.973 -1.3743  0.7825 -3.6896
 3507SOL     OW10852   3.684   0.295   0.157 -0.5552  0.0663 -0.1928
 3507SOL    HW110853   3.632   0.366   0.119  1.8240  1.9138 -0.0828
 3507SOL    HW210854   3.692   0.318   0.250  1.6148  0.5759 -0.4760
 3508SOL     OW10855   2.540   2.150   0.941 -0.0779 -0.3458 -0.0888
 3508SOL    HW110856   2.610   2.216   0.940 -2.7732  2.6636  0.4959
 3508SOL    HW210857   2.515   2.140   0.849  0.5668 -0.8162 -0.2142
 3509SOL     OW10858   0.008   4.813   3.819 -0.5065 -0.1035 -0.1625
 3509SOL    HW110859   0.057   4.868   3.880 -0.5483  0.9116 -1.0332
 3509SOL    HW210860  -0.013   4.735   3.870  0.3584  0.2743  0.8055
 3510SOL     OW10861   3.198   2.291   0.513  0.0099  0.5778 -0.3509
 3510SOL    HW110862   3.172   2.329   0.597  0.3713 -1.5836  0.7464
 3510SOL    HW210863   3.165   2.202   0.515  2.0716 -0.2567 -1.5178
 3511SOL     OW10864   1.981   2.149   4.714 -0.6470 -0.4789  0.2314
 3511SOL    HW110865   1.927   2.167   4.791  1.0995 -0.6271  1.5215
 3511SOL    HW210866   2.032   2.230   4.701  0.4350 -1.1184  0.3945
 3512SOL     OW10867   1.335   3.187   1.152  0.4351 -0.2702  1.1340
 3512SOL    HW110868   1.312   3.103   1.111 -0.5973  0.4515  0.1874
 3512SOL    HW210869   1.431   3.187   1.155  0.5345 -0.5588 -0.8873
 3513SOL     OW10870   2.214   3.851   0.142 -0.0385 -0.6358  0.2981
 3513SOL    HW110871   2.152   3.905   0.093  0.2120 -0.5081  0.1278
 3513SOL    HW210872   2.222   3.771   0.090  0.4200 -0.3975  0.0085
 3514SOL     OW10873   2.402   1.768   1.306  0.2546 -0.0757 -0.0839
 3514SOL    HW110874   2.486   1.795   1.343  0.9266 -1.5821 -0.4762
 3514SOL    HW210875   2.420   1.752   1.214 -0.4837 -0.3323 -0.1919
 3515SOL     OW10876   5.030   1.203   1.080 -0.7058  0.1567  0.3643
 3515SOL    HW110877   5.029   1.218   0.985 -1.6433  0.9940  0.4936
 3515SOL    HW210878   5.073   1.119   1.091  1.2130  0.9876 -0.6700
 3516SOL     OW10879   2.004   1.489   2.638 -0.0894 -0.7239  0.1547
 3516SOL    HW110880   1.970   1.568   2.595 -1.0101 -1.7235 -1.0073
 3516SOL    HW210881   1.931   1.459   2.693  1.0919  0.5713  2.5193
 3517SOL     OW10882   0.244   3.230   5.329 -0.3544  0.6192 -0.1230
 3517SOL    HW110883   0.175   3.237   5.394  1.7089  0.3543  2.1690
 3517SOL    HW210884   0.210   3.167   5.265 -1.8719 -0.1938  1.4336
 3518SOL     OW10885   1.750   5.207   2.444 -0.3911  0.1324  0.0595
 3518SOL    HW110886   1.683   5.245   2.387 -0.5166  1.5693  1.1239
 3518SOL    HW210887   1.706   5.132   2.486 -1.8819  1.9875  1.9301
 3519SOL     OW10888   2.339   0.860   4.444 -0.2341  0.2538 -0.0958
 3519SOL    HW110889   2.363   0.855   4.536  0.1083 -0.5962 -0.2298
 3519SOL    HW210890   2.247   0.835   4.442  0.2638 -1.6560 -0.2064
 3520SOL     OW10891   3.298   4.788   3.910 -0.2060  0.5539 -0.2546
 3520SOL    HW110892   3.231   4.855   3.893  0.3079  0.5973 -2.2511
 3520SOL    HW210893   3.381   4.833   3.893  0.1745 -0.3529 -0.8341
 3521SOL     OW10894   2.431   0.504   0.273  0.3005  0.1176 -0.1828
 3521SOL    HW110895   2.384   0.437   0.324 -0.5117 -0.5470 -1.7750
 3521SOL    HW210896   2.434   0.469   0.184 -0.0035  2.1361 -1.0105
 3522SOL     OW10897   3.139   2.404   0.758  0.2078  0.5725  0.0612
 3522SOL    HW110898   3.204   2.473   0.750  0.6212  0.1421 -0.2838
 3522SOL    HW210899   3.076   2.438   0.822  0.0489  1.5451 -0.5995
 3523SOL     OW10900   5.560   1.694   1.388 -0.2201 -0.1152  0.1151
 3523SOL    HW110901   5.499   1.653   1.326 -0.7369 -2.6698  2.2181
 3523SOL    HW210902   5.589   1.623   1.444  2.6197  1.5848  0.9102
 3524SOL     OW10903   5.306   3.284   4.820  0.5232  0.1629  0.0230
 3524SOL    HW110904   5.373   3.249   4.762  1.7017  0.6033  1.0968
 3524SOL    HW210905   5.274   3.207   4.868  0.1840 -0.0631 -0.5623
 3525SOL     OW10906   2.510   3.975   5.486  0.3689 -0.6097  0.4247
 3525SOL    HW110907   2.536   3.931   5.404  0.5214 -0.4983  0.4144
 3525SOL    HW210908   2.418   3.997   5.473  0.1566 -1.3703  0.6202
 3526SOL     OW10909   0.901   1.512   0.304 -0.1108 -0.3970  0.4034
 3526SOL    HW110910   0.988   1.551   0.299 -0.1979 -0.1725  0.6415
 3526SOL    HW210911   0.908   1.447   0.374 -0.1128 -0.4320  0.3709
 3527SOL     OW10912   2.085   1.556   1.602  0.0314 -0.1952 -0.7325
 3527SOL    HW110913   2.171   1.520   1.583 -0.2128 -1.1302 -0.0936
 3527SOL    HW210914   2.031   1.480   1.625 -1.4090  0.1859 -2.7204
 3528SOL     OW10915   4.625   2.314   0.351 -0.2613 -0.0214  0.4176
 3528SOL    HW110916   4.619   2.360   0.435 -0.5940 -0.2261  0.5070
 3528SOL    HW210917   4.605   2.223   0.373 -0.2887 -0.0837  0.1250
 3529SOL     OW10918   1.547   2.944   2.140  0.1416  0.5179  0.1391
 3529SOL    HW110919   1.487   3.018   2.151  0.9137  1.6653 -2.9601
 3529SOL    HW210920   1.493   2.874   2.104  0.2167  0.8561 -0.6324
 3530SOL     OW10921   2.398   1.600   1.909  0.0215 -0.6105  0.3424
 3530SOL    HW110922   2.406   1.676   1.966  1.8042 -0.1496 -0.4813
 3530SOL    HW210923   2.385   1.526   1.969 -2.1693  0.3757  1.1270
 3531SOL     OW10924   2.725   2.332   1.004  0.1460  0.3641 -0.3504
 3531SOL    HW110925   2.817   2.355   1.014  0.4365 -1.4330  1.5467
 3531SOL    HW210926   2.677   2.412   1.027  1.1922  0.4401  1.6752
 3532SOL     OW10927   2.503   1.541   3.725  0.2725  0.1462  0.0185
 3532SOL    HW110928   2.461   1.599   3.789  1.1777  0.7987  0.0445
 3532SOL    HW210929   2.471   1.572   3.640  1.2238  1.1062 -0.0085
 3533SOL     OW10930   1.813   4.102   5.128 -0.3820 -0.7890  0.3375
 3533SOL    HW110931   1.846   4.140   5.046  2.4903  0.4328  1.9819
 3533SOL    HW210932   1.758   4.171   5.166  1.5743  0.2587  1.3595
 3534SOL     OW10933   4.594   1.603   5.446 -0.0452 -0.0934  0.5358
 3534SOL    HW110934   4.651   1.675   5.474 -0.2980  0.8618 -1.3261
 3534SOL    HW210935   4.652   1.528   5.438  0.4303  0.1719  1.4022
 3535SOL     OW10936   4.449   4.267   3.516 -0.1437  0.3475  0.2155
 3535SOL    HW110937   4.355   4.260   3.535  0.0063  0.7066  1.1115
 3535SOL    HW210938   4.469   4.360   3.528  0.5386  0.1018  1.0349
 3536SOL     OW10939   1.280   5.082   3.714  0.2298  0.0315  0.2020
 3536SOL    HW110940   1.306   5.001   3.758  0.4387 -0.0733 -0.1157
 3536SOL    HW210941   1.307   5.152   3.774  1.5702 -0.0584 -0.2826
 3537SOL     OW10942   1.027   4.756   3.355  0.3491 -0.4432  0.1531
 3537SOL    HW110943   0.954   4.760   3.417 -0.0733  0.6360 -0.3907
 3537SOL    HW210944   0.987   4.772   3.270  1.2690  0.6211 -0.0990
 3538SOL     OW10945   1.704   2.369   3.183  0.0853  0.0273  0.6399
 3538SOL    HW110946   1.691   2.299   3.247  1.7860  0.0781  1.0720
 3538SOL    HW210947   1.621   2.374   3.136 -2.0672  1.5585  4.3602
 3539SOL     OW10948   3.150   3.100   1.581  0.0675 -0.1631 -0.0870
 3539SOL    HW110949   3.205   3.100   1.660  1.3911  2.7543 -0.9638
 3539SOL    HW210950   3.062   3.117   1.614  0.6293  1.1550  0.7770
 3540SOL     OW10951   3.576   2.014   4.224 -0.2976 -0.1325  0.5911
 3540SOL    HW110952   3.604   1.925   4.201 -0.7027  0.4045 -2.1638
 3540SOL    HW210953   3.572   2.060   4.141 -3.0081  1.6424  1.6249
 3541SOL     OW10954   1.108   1.942   2.846 -0.1224 -0.2059 -0.1691
 3541SOL    HW110955   1.150   1.860   2.820 -1.9516 -0.8425 -1.1823
 3541SOL    HW210956   1.055   1.919   2.922  1.6704  0.6947  1.3987
 3542SOL     OW10957   0.870   4.611   0.618  0.4292 -0.3321  0.1368
 3542SOL    HW110958   0.860   4.571   0.704 -0.2246  0.0819  0.2673
 3542SOL    HW210959   0.817   4.557   0.559  0.8868 -0.6234 -0.0046
 3543SOL     OW10960   0.784   1.505   2.446  0.5575  0.0981 -0.5384
 3543SOL    HW110961   0.862   1.555   2.422 -0.2155  1.0587 -1.0892
 3543SOL    HW210962   0.713   1.548   2.399 -0.5188  0.0730  1.0568
 3544SOL     OW10963   5.533   4.109   4.977  0.3022  0.3056 -0.4322
 3544SOL    HW110964   5.517   4.050   5.051  1.5087  0.7007  0.1413
 3544SOL    HW210965   5.532   4.197   5.014  1.3092  0.4865 -0.8071
 3545SOL     OW10966   3.741   0.615   4.284 -0.1056 -0.3963  0.1241
 3545SOL    HW110967   3.805   0.544   4.287  0.5605  0.2138  0.5244
 3545SOL    HW210968   3.791   0.693   4.306 -0.6372  0.3503 -1.3088
 3546SOL     OW10969   5.085   5.060   1.261 -0.3373 -0.4624 -0.3008
 3546SOL    HW110970   5.045   5.022   1.183 -1.2628  2.0501 -1.1208
 3546SOL    HW210971   5.174   5.026   1.262 -0.3719 -0.6733 -2.3887
 3547SOL     OW10972   4.667   5.259   1.383  0.0147  0.3234 -0.5593
 3547SOL    HW110973   4.703   5.222   1.463  0.3353 -0.5927 -1.1295
 3547SOL    HW210974   4.635   5.345   1.410 -1.3133 -0.5959  0.9185
 3548SOL     OW10975   3.787   0.339   1.420  0.1414  0.0700 -0.0051
 3548SOL    HW110976   3.859   0.328   1.358  0.0883  1.6306 -0.3634
 3548SOL    HW210977   3.761   0.249   1.443  1.0952 -0.5097 -1.1399
 3549SOL     OW10978   4.081   5.299   2.120  0.2755  0.0950  0.2435
 3549SOL    HW110979   4.066   5.309   2.214 -0.4581 -1.9971  0.3698
 3549SOL    HW210980   4.086   5.205   2.106  0.6951  0.3886 -1.7768
 3550SOL     OW10981   1.409   3.172   2.200 -0.7632  0.2245  0.0357
 3550SOL    HW110982   1.425   3.251   2.148  2.6944 -1.0543 -0.9392
 3550SOL    HW210983   1.466   3.181   2.276 -1.2277 -0.8097  0.5220
 3551SOL     OW10984   0.757   2.933   3.412  0.2465 -0.0303  0.0084
 3551SOL    HW110985   0.842   2.891   3.395 -0.2879 -0.8515 -0.7105
 3551SOL    HW210986   0.727   2.961   3.326 -1.2937 -1.8689 -0.0793
 3552SOL     OW10987   1.968   4.733   0.460  0.1252 -0.1581  0.1723
 3552SOL    HW110988   1.910   4.781   0.401  0.9237 -0.8083 -1.1682
 3552SOL    HW210989   1.978   4.790   0.537  0.3089  1.3920 -0.9893
 3553SOL     OW10990   2.825   5.541   3.221  0.0359 -0.2069  0.2634
 3553SOL    HW110991   2.735   5.575   3.230  1.2607  2.9182  1.2844
 3553SOL    HW210992   2.875   5.614   3.186  2.7160 -1.0983  2.0433
 3554SOL     OW10993   2.863   3.967   2.375  0.1541 -0.2966 -0.0898
 3554SOL    HW110994   2.938   3.953   2.316 -0.8187 -0.3107 -1.3450
 3554SOL    HW210995   2.807   4.029   2.328  0.8876  2.2069  2.2273
 3555SOL     OW10996   2.750   4.200   2.288  0.5249 -0.0235  0.1685
 3555SOL    HW110997   2.733   4.284   2.331 -0.3265  0.2436 -0.6548
 3555SOL    HW210998   2.805   4.223   2.213 -0.0728 -0.1219 -0.3114
 3556SOL     OW10999   2.240   4.266   4.884  0.4362 -0.8524  0.2506
 3556SOL    HW111000   2.271   4.267   4.794 -0.9020  0.8289 -0.2257
 3556SOL    HW211001   2.298   4.325   4.931  0.3320 -0.7075  0.1984
 3557SOL     OW11002   3.529   1.043   0.467  0.1265 -0.2868 -0.1074
 3557SOL    HW111003   3.497   1.131   0.488  2.5610  0.7292 -0.4274
 3557SOL    HW211004   3.541   1.000   0.552  0.9744  0.4782  0.1735
 3558SOL     OW11005   3.016   4.300   3.094 -0.4165  0.1373 -0.0925
 3558SOL    HW111006   3.078   4.233   3.124 -1.2918 -0.6412  0.0152
 3558SOL    HW211007   3.068   4.379   3.086  0.0745  0.1112  2.4913
 3559SOL     OW11008   1.175   3.031   2.187 -0.1159 -0.2602 -0.0424
 3559SOL    HW111009   1.250   3.087   2.208 -0.5938 -0.0876  1.3023
 3559SOL    HW211010   1.119   3.085   2.131 -0.0086  0.2075  0.2933
 3560SOL     OW11011   1.542   3.660   2.214 -0.0481  0.0506 -0.2518
 3560SOL    HW111012   1.548   3.700   2.301  0.7364 -1.1852  0.2673
 3560SOL    HW211013   1.599   3.584   2.218 -0.4485 -0.3441 -1.6803
 3561SOL     OW11014   2.002   2.412   1.953  0.0345  0.3014  0.1128
 3561SOL    HW111015   2.006   2.323   1.987  0.3099  0.3317  0.1558
 3561SOL    HW211016   2.056   2.464   2.013  1.6172  0.1230 -1.1207
 3562SOL     OW11017   3.847   4.443   5.251 -0.4177  0.4637 -0.2616
 3562SOL    HW111018   3.844   4.475   5.342 -2.0052  1.4861 -0.6658
 3562SOL    HW211019   3.939   4.420   5.238  0.1855  1.9564  1.0519
 3563SOL     OW11020   0.779   1.871   3.463  0.1169 -0.1339  0.3601
 3563SOL    HW111021   0.786   1.779   3.489 -0.4078 -0.4221 -0.5002
 3563SOL    HW211022   0.767   1.918   3.546  2.1442 -0.6395  0.9662
 3564SOL     OW11023   1.178   2.216   3.009  0.4751 -0.0398 -0.0823
 3564SOL    HW111024   1.114   2.163   2.963  0.2784 -2.1719  2.4752
 3564SOL    HW211025   1.262   2.192   2.970  0.1952 -0.8782 -0.1766
 3565SOL     OW11026   3.774   2.506   4.912  0.6291  0.2082  0.4823
 3565SOL    HW111027   3.755   2.414   4.927  0.4922 -0.1933 -1.9812
 3565SOL    HW211028   3.698   2.553   4.946  0.2768 -0.6464  0.8716
 3566SOL     OW11029   0.146   0.925   4.338  0.7075  0.2911  0.7355
 3566SOL    HW111030   0.128   0.977   4.416 -1.3556 -0.1858  0.6091
 3566SOL    HW211031   0.106   0.974   4.267  2.2716  0.5428  0.0143
 3567SOL     OW11032   3.454   3.032   2.414 -0.2206 -0.2133 -0.5920
 3567SOL    HW111033   3.510   2.959   2.387  0.5179  0.2034 -0.1970
 3567SOL    HW211034   3.475   3.102   2.352  0.6937  0.3929  0.3993
 3568SOL     OW11035   1.610   1.155   1.053  0.2308  0.5889  0.2281
 3568SOL    HW111036   1.566   1.100   0.988  1.0904 -0.0345  0.1810
 3568SOL    HW211037   1.696   1.172   1.016  0.4030  0.9798  0.8012
 3569SOL     OW11038   3.150   0.549   1.408 -0.4483 -0.6234  0.2045
 3569SOL    HW111039   3.219   0.597   1.361  0.0858 -3.0940 -1.6532
 3569SOL    HW211040   3.148   0.589   1.495  0.8246  1.8973 -0.8765
 3570SOL     OW11041   2.761   3.295   2.614  0.3489 -0.2316  1.0541
 3570SOL    HW111042   2.718   3.380   2.618  1.7722  0.5718 -0.5331
 3570SOL    HW211043   2.689   3.233   2.604 -0.5411  0.9934 -0.2596
 3571SOL     OW11044   1.546   2.918   1.332  0.4422  0.3973 -0.2941
 3571SOL    HW111045   1.579   2.830   1.352 -0.8723  0.0228  0.2373
 3571SOL    HW211046   1.500   2.908   1.249 -0.9665  0.2745  0.4988
 3572SOL     OW11047   1.390   3.268   3.046  0.3121  0.6448  0.1438
 3572SOL    HW111048   1.403   3.354   3.085 -0.5079  1.0617 -0.4758
 3572SOL    HW211049   1.360   3.286   2.957  1.9889 -0.2885 -0.6410
 3573SOL     OW11050   1.882   4.766   1.154  0.4017 -0.1450 -0.2082
 3573SOL    HW111051   1.860   4.767   1.061  0.3150 -0.3598 -0.1924
 3573SOL    HW211052   1.975   4.746   1.157  0.7934  1.6722 -0.3042
 3574SOL     OW11053   4.512   1.311   3.337 -0.6575  0.0303  0.4354
 3574SOL    HW111054   4.597   1.270   3.322 -0.0192  1.7443 -0.7822
 3574SOL    HW211055   4.496   1.298   3.431  1.5947  0.8501  0.9845
 3575SOL     OW11056   2.601   2.397   2.803  0.2287 -0.2924 -0.8100
 3575SOL    HW111057   2.570   2.356   2.885  2.0329 -0.0802 -0.0023
 3575SOL    HW211058   2.551   2.353   2.735 -1.5123 -0.2930  0.4120
 3576SOL     OW11059   4.032   0.288   3.107  0.6994  0.2826  0.2307
 3576SOL    HW111060   4.116   0.331   3.093  0.6376  0.2575 -0.2399
 3576SOL    HW211061   3.967   0.358   3.098  0.6043  0.1124 -0.4550
 3577SOL     OW11062   4.475   1.911   2.580  0.1992 -0.3027  0.1440
 3577SOL    HW111063   4.539   1.915   2.651  1.3821 -0.9500 -0.8603
 3577SOL    HW211064   4.398   1.870   2.619  0.3659  0.5172  1.3736
 3578SOL     OW11065   1.695   5.127   4.503 -0.2046  0.1032 -0.3001
 3578SOL    HW111066   1.618   5.150   4.451 -0.4175  0.0575 -0.0094
 3578SOL    HW211067   1.667   5.141   4.594  0.2035  0.3068 -0.2049
 3579SOL     OW11068   1.638   4.627   4.406 -0.3623  0.6647 -0.8089
 3579SOL    HW111069   1.543   4.628   4.418 -0.3673  2.3213 -0.8166
 3579SOL    HW211070   1.660   4.718   4.387  1.4839  0.6971  1.2603
 3580SOL     OW11071   1.153   4.214   2.242  0.0078 -0.3162  0.6640
 3580SOL    HW111072   1.102   4.232   2.164 -0.2573  2.2689  1.3843
 3580SOL    HW211073   1.224   4.278   2.240  0.2974 -0.5620  2.2599
 3581SOL     OW11074   1.988   0.618   4.420  0.0983 -0.1185 -0.1667
 3581SOL    HW111075   2.068   0.579   4.385  0.7997  0.8281  0.3639
 3581SOL    HW211076   2.017   0.699   4.462 -1.0107 -0.2483  0.8704
 3582SOL     OW11077   3.031   1.174   4.212 -0.1676 -0.5090  0.0292
 3582SOL    HW111078   2.962   1.174   4.145  0.1585 -0.3958 -0.3061
 3582SOL    HW211079   3.109   1.142   4.166  0.2890  0.4687  0.1137
 3583SOL     OW11080   2.015   4.201   2.748  0.1329 -0.3372  0.0492
 3583SOL    HW111081   2.053   4.117   2.721  1.6218  0.0589  0.8334
 3583SOL    HW211082   2.088   4.248   2.788 -0.7271  1.2944 -0.2738
 3584SOL     OW11083   0.962   0.738   5.313 -0.2341 -0.6366  0.2820
 3584SOL    HW111084   0.994   0.711   5.226  0.7274  2.9284 -0.5951
 3584SOL    HW211085   1.025   0.701   5.374  1.5603  0.3579 -0.9136
 3585SOL     OW11086   4.213   0.079   3.770 -0.5192 -0.0190  0.0002
 3585SOL    HW111087   4.208   0.111   3.860  1.5713  1.6569 -0.4259
 3585SOL    HW211088   4.234  -0.014   3.778  1.6719  0.5459  1.2737
 3586SOL     OW11089   1.724   5.458   4.397 -0.4423  0.0831  0.0681
 3586SOL    HW111090   1.763   5.406   4.467  0.5829  0.5512 -0.1515
 3586SOL    HW211091   1.755   5.417   4.317 -1.1022 -0.0631 -0.1157
 3587SOL     OW11092   2.876   0.096   5.074  0.3020  0.1498  0.7941
 3587SOL    HW111093   2.846   0.138   4.994 -1.1262  0.3132  1.3978
 3587SOL    HW211094   2.953   0.046   5.048 -0.9229 -0.8672 -0.9638
 3588SOL     OW11095   4.020   1.908   0.665  0.1466  0.0306 -0.6567
 3588SOL    HW111096   4.094   1.929   0.608  1.0706 -0.7189  0.2592
 3588SOL    HW211097   4.026   1.973   0.735  0.3491 -0.4725 -0.2107
 3589SOL     OW11098   3.394   1.111   3.864  0.5281 -0.2134 -0.5697
 3589SOL    HW111099   3.377   1.195   3.906  1.3739  0.5423 -1.7052
 3589SOL    HW211100   3.484   1.117   3.833  0.0724 -0.9192 -2.0832
 3590SOL     OW11101   4.212   2.810   1.861 -0.4652 -0.9983  0.1561
 3590SOL    HW111102   4.194   2.732   1.912  0.1139 -0.0044  1.9120
 3590SOL    HW211103   4.162   2.879   1.903  0.4863 -0.0359 -0.2578
 3591SOL     OW11104   5.119   1.526   0.854 -0.0961  0.0102  0.1943
 3591SOL    HW111105   5.132   1.614   0.891 -0.8891  0.3272 -0.2596
 3591SOL    HW211106   5.025   1.523   0.833  0.1009 -0.6116 -0.6276
 3592SOL     OW11107   0.472   4.266   0.827 -0.5780  0.1106  0.2960
 3592SOL    HW111108   0.380   4.269   0.800 -1.0538 -1.6453  1.6582
 3592SOL    HW211109   0.471   4.291   0.919  0.1499 -1.1553  0.6562
 3593SOL     OW11110   5.539   2.653   1.201 -0.1586  0.1431  0.5870
 3593SOL    HW111111   5.512   2.703   1.123 -2.4021 -2.4514 -0.3866
 3593SOL    HW211112   5.479   2.682   1.270 -0.3442  0.0160  0.4782
 3594SOL     OW11113   3.710   2.188   1.226  0.0367  0.2537  0.0344
 3594SOL    HW111114   3.672   2.108   1.189 -0.2693 -0.0770  1.0482
 3594SOL    HW211115   3.634   2.240   1.252  0.2475  0.6311 -0.1004
 3595SOL     OW11116   3.729   4.958   2.656  0.5742  0.4267  0.6271
 3595SOL    HW111117   3.820   4.975   2.679  0.5927  1.5798 -0.2564
 3595SOL    HW211118   3.733   4.881   2.599  1.2061  1.6843 -1.0483
 3596SOL     OW11119   1.752   2.358   5.516 -0.2443  0.2826 -0.0207
 3596SOL    HW111120   1.673   2.387   5.471 -0.4079  0.4228  0.3493
 3596SOL    HW211121   1.729   2.273   5.553 -0.1493  0.2219 -0.1013
 3597SOL     OW11122   0.211   0.257   4.178  0.3306 -0.4732 -0.0596
 3597SOL    HW111123   0.304   0.279   4.188  0.1932 -0.1337  0.4762
 3597SOL    HW211124   0.211   0.184   4.116  0.9436 -0.3614 -0.2020
 3598SOL     OW11125   1.163   4.085   2.734 -0.3666  0.3579 -0.8813
 3598SOL    HW111126   1.146   4.063   2.643 -1.7098  1.1653 -0.8358
 3598SOL    HW211127   1.128   4.174   2.745  1.0570  0.8389  0.0476
 3599SOL     OW11128   4.661   0.553   1.652  0.2954  0.3895  0.4931
 3599SOL    HW111129   4.674   0.523   1.742  0.1556 -1.2695 -0.0319
 3599SOL    HW211130   4.572   0.525   1.630 -0.0083  1.6005  0.1473
 3600SOL     OW11131   3.048   3.168   4.455 -0.0185 -0.3469  0.6214
 3600SOL    HW111132   3.132   3.200   4.422  0.5624 -0.1647  2.2533
 3600SOL    HW211133   3.071   3.093   4.509 -1.0376 -1.1250 -0.0139
 3601SOL     OW11134   3.108   5.108   4.648  0.0002 -0.3744 -0.7570
 3601SOL    HW111135   3.142   5.086   4.561 -1.4384  0.8661 -1.6547
 3601SOL    HW211136   3.036   5.169   4.631 -1.3248 -1.3339  1.2156
 3602SOL     OW11137   4.275   3.505   5.423  0.2938  0.1643 -0.3366
 3602SOL    HW111138   4.307   3.545   5.504  0.3234  0.6097 -0.5699
 3602SOL    HW211139   4.353   3.498   5.368  0.2881 -0.2113 -0.3019
 3603SOL     OW11140   1.055   0.769   4.583 -0.1918  0.0564 -0.5088
 3603SOL    HW111141   1.060   0.861   4.560 -1.2238 -0.0477 -1.2035
 3603SOL    HW211142   1.069   0.723   4.500 -0.7346 -0.3856 -0.3623
 3604SOL     OW11143   2.477   3.776   3.269 -0.3407 -0.4091 -0.5614
 3604SOL    HW111144   2.570   3.779   3.245 -0.3473  0.3115 -0.5019
 3604SOL    HW211145   2.439   3.855   3.229 -0.8360 -0.4625 -0.2049
 3605SOL     OW11146   3.256   1.200   4.707  0.2845 -0.1146  0.0315
 3605SOL    HW111147   3.339   1.153   4.715 -0.0454 -1.0432 -1.7543
 3605SOL    HW211148   3.227   1.183   4.618 -1.1001  1.4349  0.1518
 3606SOL     OW11149   4.509   4.587   1.231  0.1239  0.1196 -0.1990
 3606SOL    HW111150   4.462   4.670   1.237 -0.3252 -0.1191 -0.3551
 3606SOL    HW211151   4.554   4.579   1.315 -1.2474 -0.3146  0.5110
 3607SOL     OW11152   1.914   2.373   1.061  0.0433 -0.0893 -0.3858
 3607SOL    HW111153   1.836   2.338   1.104  0.7107 -0.0451  0.8597
 3607SOL    HW211154   1.983   2.369   1.127  0.5513  2.0016 -0.7336
 3608SOL     OW11155   2.734   2.180   4.427 -0.0565 -0.0627 -0.1311
 3608SOL    HW111156   2.662   2.214   4.374  0.1286  0.1242 -0.2644
 3608SOL    HW211157   2.765   2.103   4.379 -1.1474 -1.0452  0.6966
 3609SOL     OW11158   4.248   0.637   1.730 -0.1843  0.0420  0.3361
 3609SOL    HW111159   4.257   0.542   1.724  2.3557  0.2924 -0.3309
 3609SOL    HW211160   4.172   0.657   1.675  0.3833 -1.3989 -1.0007
 3610SOL     OW11161   0.698   3.624   1.315 -0.1098 -0.1027 -0.3856
 3610SOL    HW111162   0.631   3.681   1.353  0.1095  0.2342 -0.5009
 3610SOL    HW211163   0.702   3.649   1.223 -0.6462 -0.9284 -0.6300
 3611SOL     OW11164   5.203   3.825   0.421  0.7181 -0.3073 -0.1169
 3611SOL    HW111165   5.259   3.853   0.349  0.2657  0.7000 -0.0796
 3611SOL    HW211166   5.201   3.900   0.481 -1.7220  0.1589 -0.7354
 3612SOL     OW11167   1.816   2.809   1.501 -0.1740  1.1072 -0.3827
 3612SOL    HW111168   1.880   2.790   1.570 -0.0428  1.2200 -0.4734
 3612SOL    HW211169   1.761   2.730   1.496 -1.0890  1.6588  0.8342
 3613SOL     OW11170   0.671   0.407   1.625 -0.1982  0.4581  0.4156
 3613SOL    HW111171   0.705   0.412   1.714 -1.1314  1.9955  0.7072
 3613SOL    HW211172   0.717   0.477   1.578 -0.5691  0.4224 -0.0059
 3614SOL     OW11173   3.101   2.688   3.584  0.5551 -0.3707  0.8500
 3614SOL    HW111174   3.071   2.618   3.526  0.9583  0.1858 -0.0326
 3614SOL    HW211175   3.103   2.647   3.671  0.2722 -1.3029  0.4274
 3615SOL     OW11176   2.589   2.895   2.136 -0.9881 -0.4228  0.4223
 3615SOL    HW111177   2.519   2.880   2.199 -2.3650  0.6969 -0.8058
 3615SOL    HW211178   2.628   2.978   2.162 -0.4581 -0.7778  0.7778
 3616SOL     OW11179   2.978   1.077   2.979 -0.2357 -0.3924 -0.3489
 3616SOL    HW111180   3.041   1.135   2.936 -1.3379 -0.0938 -1.5931
 3616SOL    HW211181   3.031   1.019   3.033  0.9538  1.1480  0.1571
 3617SOL     OW11182   3.470   1.629   1.934  0.5290  0.2094 -0.5539
 3617SOL    HW111183   3.524   1.705   1.954  0.7829  0.5083 -2.3327
 3617SOL    HW211184   3.477   1.618   1.839  0.3074 -1.8891 -0.3567
 3618SOL     OW11185   4.726   5.297   1.112  0.2956 -0.6421 -0.5111
 3618SOL    HW111186   4.749   5.390   1.106  0.4238 -0.7815 -2.4068
 3618SOL    HW211187   4.713   5.282   1.205  1.6290  0.9573 -0.0386
 3619SOL     OW11188   0.191   2.939   2.176 -0.4893  0.1030 -0.0246
 3619SOL    HW111189   0.219   2.979   2.259 -1.1539 -0.9736  0.7255
 3619SOL    HW211190   0.187   3.012   2.115  0.8817  0.7726  0.6605
 3620SOL     OW11191   1.676   3.547   1.570  0.9774  0.1809 -0.3406
 3620SOL    HW111192   1.597   3.503   1.540  1.1850  0.3400 -1.1133
 3620SOL    HW211193   1.654   3.578   1.658 -0.2987  1.4334 -1.0804
 3621SOL     OW11194   0.879   2.366   5.149  0.5177  0.2524  0.9229
 3621SOL    HW111195   0.913   2.412   5.072 -0.8517  0.8711  0.6677
 3621SOL    HW211196   0.832   2.434   5.197 -1.3110 -0.8206  0.6797
 3622SOL     OW11197   1.191   1.705   2.753  0.7188 -0.2259 -0.3084
 3622SOL    HW111198   1.117   1.647   2.735  1.1716 -1.0142  0.3344
 3622SOL    HW211199   1.233   1.718   2.668  0.7374 -1.0153 -0.4267
 3623SOL     OW11200   0.064   3.960   3.030 -0.0824 -0.4582  0.4332
 3623SOL    HW111201   0.049   4.049   3.062 -0.9238 -0.7333  0.8194
 3623SOL    HW211202  -0.000   3.948   2.960  0.8059 -0.3579 -0.4034
 3624SOL     OW11203   5.423   2.251   4.690 -0.1439  0.1055  0.3477
 3624SOL    HW111204   5.364   2.289   4.624 -0.0726 -0.4163 -0.0143
 3624SOL    HW211205   5.495   2.214   4.640  0.3669  0.5093  0.7778
 3625SOL     OW11206   2.315   1.255   4.593 -0.1805  0.2677 -0.0101
 3625SOL    HW111207   2.291   1.233   4.504  0.5019  3.0595 -0.9332
 3625SOL    HW211208   2.409   1.273   4.589 -0.4810  2.1918  0.8751
 3626SOL     OW11209   2.439   0.990   4.922  0.5406  0.2827 -0.5425
 3626SOL    HW111210   2.516   1.016   4.871 -1.2205 -0.2889 -3.6590
 3626SOL    HW211211   2.382   1.067   4.920  0.9129  0.6283  1.5529
 3627SOL     OW11212   4.197   4.365   3.550 -0.2261  0.1768 -0.1749
 3627SOL    HW111213   4.106   4.351   3.526 -0.0003  1.2303 -1.7217
 3627SOL    HW211214   4.203   4.458   3.573 -0.2295 -0.5835  3.2052
 3628SOL     OW11215   3.205   1.309   2.259  0.0474 -0.3925  0.2901
 3628SOL    HW111216   3.215   1.385   2.316  0.3241 -0.4607  0.3306
 3628SOL    HW211217   3.284   1.258   2.272 -0.4617 -1.0522  0.7978
 3629SOL     OW11218   3.363   5.389   0.693  1.1049  0.0442  0.1178
 3629SOL    HW111219   3.286   5.343   0.660  0.2686  2.1789 -1.0746
 3629SOL    HW211220   3.350   5.393   0.788 -0.0821  0.0706 -0.0363
 3630SOL     OW11221   3.496   2.890   1.846 -0.5009 -0.4775  0.0948
 3630SOL    HW111222   3.536   2.826   1.788 -1.2710 -1.0314  0.1614
 3630SOL    HW211223   3.458   2.838   1.917 -1.9884 -0.0416 -0.3624
 3631SOL     OW11224   1.191   2.269   5.281  0.2020 -0.4219 -0.5021
 3631SOL    HW111225   1.096   2.272   5.280  0.2273  0.7214 -2.8386
 3631SOL    HW211226   1.213   2.177   5.290 -1.1043 -0.7045 -0.1096
 3632SOL     OW11227   4.638   5.482   2.147 -0.0383  0.1082  0.1662
 3632SOL    HW111228   4.657   5.406   2.091 -1.5740  0.3995 -0.7942
 3632SOL    HW211229   4.719   5.497   2.195  0.6708 -1.4124 -0.5032
 3633SOL     OW11230   5.471   5.010   2.172  0.0795 -0.0755  0.2920
 3633SOL    HW111231   5.480   4.915   2.180 -0.2750 -0.1911 -0.6725
 3633SOL    HW211232   5.528   5.034   2.099 -0.5904  0.3355 -0.0936
 3634SOL     OW11233   0.656   2.288   3.616  0.0658  0.1788  0.1136
 3634SOL    HW111234   0.566   2.279   3.586  0.0276  0.8067  0.0213
 3634SOL    HW211235   0.681   2.201   3.645 -0.4024 -0.1064 -0.3359
 3635SOL     OW11236   5.343   0.683   4.838 -0.1587 -0.7775 -0.2558
 3635SOL    HW111237   5.256   0.655   4.808 -1.9476  1.2184  2.7647
 3635SOL    HW211238   5.336   0.778   4.846  2.3280 -0.6018  0.0439
 3636SOL     OW11239   0.917   2.755   1.691 -0.3612  0.4982 -0.2860
 3636SOL    HW111240   0.916   2.773   1.596 -0.1170 -0.0560 -0.3929
 3636SOL    HW211241   0.861   2.678   1.701  1.6517 -1.0037 -0.3001
 3637SOL     OW11242   4.842   1.137   3.052 -0.2614 -0.1915 -0.2273
 3637SOL    HW111243   4.822   1.050   3.018 -0.8700  0.0606 -0.5112
 3637SOL    HW211244   4.894   1.178   2.984 -0.1231 -0.2679 -0.1681
 3638SOL     OW11245   1.474   5.190   4.008  0.0128  0.5566  0.0947
 3638SOL    HW111246   1.563   5.190   3.973  0.5780  2.2519  1.4257
 3638SOL    HW211247   1.421   5.232   3.941 -0.0057 -1.4446 -1.1697
 3639SOL     OW11248   3.390   0.210   4.260  0.0554  0.1309  0.4396
 3639SOL    HW111249   3.312   0.195   4.314 -0.3036 -0.0123 -0.1117
 3639SOL    HW211250   3.374   0.295   4.219  0.4126  0.3247  0.6992
 3640SOL     OW11251   1.999   4.873   4.045  0.0453 -0.5282 -0.3099
 3640SOL    HW111252   1.932   4.808   4.067  0.4217 -0.6059  0.6497
 3640SOL    HW211253   2.071   4.821   4.009  1.5906 -1.0445  3.2852
 3641SOL     OW11254   2.075   3.835   1.091 -1.3140 -0.1162  0.4465
 3641SOL    HW111255   2.064   3.755   1.142 -0.2503  0.0621  0.9592
 3641SOL    HW211256   2.096   3.903   1.155 -2.6620  0.6930  0.0720
 3642SOL     OW11257   4.547   2.992   0.974  0.2174 -0.2528 -0.3135
 3642SOL    HW111258   4.543   3.056   1.045  0.8299 -0.6112  0.0474
 3642SOL    HW211259   4.510   3.037   0.898  1.6155  0.8875 -0.3337
 3643SOL     OW11260   4.950   2.512   4.410 -0.0103 -0.1410 -0.7323
 3643SOL    HW111261   4.995   2.574   4.352  0.1176 -2.8930 -3.7196
 3643SOL    HW211262   4.858   2.539   4.407  0.3908  1.3886  0.0273
 3644SOL     OW11263   3.221   2.181   0.896  0.3783 -0.9595  0.5185
 3644SOL    HW111264   3.192   2.261   0.853  1.8465  0.3862  2.0063
 3644SOL    HW211265   3.155   2.163   0.962  1.0331  0.1005  1.4724
 3645SOL     OW11266   0.001   2.971   2.739  0.4196  0.2352  0.2778
 3645SOL    HW111267  -0.022   3.013   2.823 -0.8414  0.8637 -0.3596
 3645SOL    HW211268   0.072   3.024   2.704  0.2070  0.6288  0.4390
 3646SOL     OW11269   4.312   3.502   0.368  0.4661  0.4404  0.3948
 3646SOL    HW111270   4.311   3.591   0.334 -1.1818  1.1692  2.2362
 3646SOL    HW211271   4.227   3.466   0.341  1.3358 -0.7638 -0.7831
 3647SOL     OW11272   4.503   2.338   0.126  0.2045 -0.2516  0.5320
 3647SOL    HW111273   4.528   2.330   0.218 -0.9331  0.1028  0.8786
 3647SOL    HW211274   4.415   2.376   0.128  0.0570 -0.5054 -0.6936
 3648SOL     OW11275   2.781   0.412   2.710  0.1226  0.6128  0.5431
 3648SOL    HW111276   2.689   0.386   2.702  0.7661 -0.9201 -2.8129
 3648SOL    HW211277   2.793   0.481   2.644  0.9622  2.1278  2.2394
 3649SOL     OW11278   1.556   3.491   5.430  0.8142 -0.4054  0.2762
 3649SOL    HW111279   1.588   3.402   5.415  0.2311 -0.2154 -2.3016
 3649SOL    HW211280   1.635   3.542   5.447  1.6500 -0.5404 -2.9343
 3650SOL     OW11281   5.437   0.589   1.750  0.0289  0.3973 -0.1186
 3650SOL    HW111282   5.445   0.494   1.742  0.3113  0.3356  0.7730
 3650SOL    HW211283   5.346   0.603   1.777  0.8308  0.1211  2.9766
 3651SOL     OW11284   2.824   0.029   2.327  0.5421  0.5713 -0.4851
 3651SOL    HW111285   2.752   0.083   2.361  0.0747 -1.6326  2.1434
 3651SOL    HW211286   2.890   0.031   2.396  1.5409 -0.3038 -1.3962
 3652SOL     OW11287   0.153   3.090   0.098 -0.1355  0.1801  0.0749
 3652SOL    HW111288   0.218   3.125   0.159  1.3166 -1.8970 -0.2549
 3652SOL    HW211289   0.072   3.085   0.150  0.7903 -0.4496  1.4791
 3653SOL     OW11290   4.517   0.973   5.195  0.3704 -0.2356  0.2913
 3653SOL    HW111291   4.469   1.031   5.255 -1.1329 -0.4584 -0.6737
 3653SOL    HW211292   4.535   0.894   5.246  0.8735  0.3672  1.0603
 3654SOL     OW11293   5.280   1.315   4.887  0.0734  0.6270 -0.0275
 3654SOL    HW111294   5.364   1.306   4.932 -0.3841  0.4368  0.7935
 3654SOL    HW211295   5.215   1.312   4.956 -0.7146 -0.8584 -0.8118
 3655SOL     OW11296   1.280   3.340   2.806 -0.3147  0.0231 -0.5538
 3655SOL    HW111297   1.252   3.316   2.717  0.2402  0.7880 -0.9370
 3655SOL    HW211298   1.313   3.429   2.797 -1.2742  0.5024  0.6375
 3656SOL     OW11299   4.944   4.587   4.847  0.1907 -0.3929 -0.0728
 3656SOL    HW111300   4.923   4.591   4.940  1.7772 -1.0619  0.3305
 3656SOL    HW211301   5.032   4.624   4.840 -0.5249  1.1338 -1.5392
 3657SOL     OW11302   1.974   4.248   4.964  0.2002 -0.0279 -0.2796
 3657SOL    HW111303   2.050   4.233   4.908  1.9706  0.2930  1.9908
 3657SOL    HW211304   1.988   4.335   5.002 -0.9274 -0.2727  0.7397
 3658SOL     OW11305   2.863   1.744   0.480  0.5773 -0.3202 -0.2688
 3658SOL    HW111306   2.852   1.688   0.403  0.8402 -0.3906 -0.2546
 3658SOL    HW211307   2.881   1.831   0.444 -1.3370  0.0817 -0.3123
 3659SOL     OW11308   2.256   4.097   0.536  0.1557  0.0851 -0.4020
 3659SOL    HW111309   2.304   4.125   0.458 -0.6396  0.7038 -0.6833
 3659SOL    HW211310   2.188   4.038   0.503  0.6215 -0.6732 -0.0247
 3660SOL     OW11311   0.727   0.965   0.824 -0.3694  0.2078 -0.1387
 3660SOL    HW111312   0.636   0.943   0.840  0.0999 -0.0931  2.3037
 3660SOL    HW211313   0.737   1.053   0.859  0.8473 -0.6953  1.8543
 3661SOL     OW11314   4.219   4.204   5.060  0.5747  0.2018  0.0353
 3661SOL    HW111315   4.190   4.145   4.990 -0.4862  1.7762 -0.8865
 3661SOL    HW211316   4.166   4.179   5.135 -0.2987  0.3734 -0.5162
 3662SOL     OW11317   3.300   1.907   5.225 -0.7216 -0.2306  0.0395
 3662SOL    HW111318   3.366   1.914   5.293 -0.9879  1.2081  0.1719
 3662SOL    HW211319   3.348   1.879   5.147 -0.4055 -1.7990  0.7856
 3663SOL     OW11320   1.794   2.900   1.066  0.3501  0.2820 -0.6419
 3663SOL    HW111321   1.830   2.815   1.090  1.3489  0.6105 -0.9518
 3663SOL    HW211322   1.809   2.955   1.142  1.6464  0.7585 -1.2305
 3664SOL     OW11323   3.864   3.552   1.168  0.6803 -0.3402  0.3343
 3664SOL    HW111324   3.875   3.526   1.260  1.0336 -0.5662  0.2304
 3664SOL    HW211325   3.835   3.471   1.124 -0.1399 -0.0706  0.3659
 3665SOL     OW11326   4.760   4.908   1.719  0.4790  0.3553  0.1587
 3665SOL    HW111327   4.854   4.919   1.703  0.5901 -0.1477  0.4633
 3665SOL    HW211328   4.753   4.828   1.770 -0.1118  0.4460  0.2299
 3666SOL     OW11329   3.553   3.057   5.347 -0.0801  0.2347 -0.0109
 3666SOL    HW111330   3.610   3.013   5.410 -0.1855  1.2897  0.8266
 3666SOL    HW211331   3.485   3.097   5.400  0.0830  1.5186 -0.7569
 3667SOL     OW11332   1.101   2.162   0.549  0.4251  0.5216 -0.2469
 3667SOL    HW111333   1.043   2.185   0.477 -3.5124  0.0200  2.5939
 3667SOL    HW211334   1.109   2.066   0.544  2.3465  0.7315 -1.5611
 3668SOL     OW11335   2.370   4.207   3.672 -0.2628 -0.3926  0.5058
 3668SOL    HW111336   2.436   4.177   3.610  0.1167 -0.6559  1.0284
 3668SOL    HW211337   2.322   4.275   3.625  0.4319 -0.1465  0.1405
 3669SOL     OW11338   0.854   3.359   1.007  0.0393  0.0470  0.0521
 3669SOL    HW111339   0.787   3.311   1.054 -0.1058 -0.4959 -0.6911
 3669SOL    HW211340   0.865   3.440   1.056 -0.4620 -0.2881  0.7253
 3670SOL     OW11341   4.129   5.518   2.490 -0.0807 -0.1535 -0.4110
 3670SOL    HW111342   4.134   5.577   2.415 -0.2427  0.7704  0.3123
 3670SOL    HW211343   4.217   5.517   2.526 -0.2094  0.0968 -0.0820
 3671SOL     OW11344   5.427   2.219   0.215  0.4081  0.4338  0.3182
 3671SOL    HW111345   5.418   2.198   0.122  0.9784 -0.2729  0.4151
 3671SOL    HW211346   5.419   2.134   0.259 -3.2523  1.1359  1.1813
 3672SOL     OW11347   0.822   1.171   4.365  0.1547  0.3683  0.0449
 3672SOL    HW111348   0.748   1.110   4.363  0.2033  0.2880  0.5789
 3672SOL    HW211349   0.886   1.129   4.421  1.1996 -0.2285 -1.5609
 3673SOL     OW11350   2.155   3.468   5.151  0.4389 -0.5314 -0.2864
 3673SOL    HW111351   2.161   3.562   5.133 -2.5055 -0.0694  0.9212
 3673SOL    HW211352   2.192   3.458   5.239 -1.2360 -0.1676  0.4669
 3674SOL     OW11353   2.952   2.885   4.315  0.1365 -0.1262 -0.2329
 3674SOL    HW111354   2.859   2.880   4.336  0.3885 -2.0865  0.5663
 3674SOL    HW211355   2.996   2.889   4.400  0.8105  0.0848 -0.5836
 3675SOL     OW11356   0.109   3.265   1.471 -0.0107  0.0102 -0.3120
 3675SOL    HW111357   0.191   3.246   1.425 -0.1359  2.1514 -1.4719
 3675SOL    HW211358   0.048   3.201   1.436  0.7753 -0.5877 -0.6214
 3676SOL     OW11359   1.676   0.279   0.326 -0.3619  0.6690 -0.0900
 3676SOL    HW111360   1.645   0.363   0.360  1.0805  1.0888  0.2212
 3676SOL    HW211361   1.597   0.236   0.293 -1.2437  1.7779  0.5345
 3677SOL     OW11362   1.397   4.278   0.991 -0.1932  0.2230 -0.1950
 3677SOL    HW111363   1.313   4.272   1.036 -0.6912  1.3923 -0.9466
 3677SOL    HW211364   1.458   4.308   1.059 -0.5865  0.3148  0.1224
 3678SOL     OW11365   4.579   0.133   5.187  0.0290  0.4118 -0.0309
 3678SOL    HW111366   4.670   0.133   5.158  0.9382  1.7449  2.5960
 3678SOL    HW211367   4.561   0.041   5.210  1.0330  0.2899  0.3094
 3679SOL     OW11368   1.163   0.896   1.970  0.1953 -0.7095 -0.1264
 3679SOL    HW111369   1.218   0.818   1.970 -0.2791 -1.0619  1.3413
 3679SOL    HW211370   1.224   0.969   1.960  0.6257 -1.2673 -1.6958
 3680SOL     OW11371   3.899   0.390   4.944  0.1236 -0.2617 -0.3463
 3680SOL    HW111372   3.927   0.448   5.016 -0.6440 -0.3586  0.0314
 3680SOL    HW211373   3.832   0.334   4.983  1.0261 -1.5728 -0.6420
 3681SOL     OW11374   1.336   0.795   1.073 -0.2326  0.6343  0.5583
 3681SOL    HW111375   1.341   0.707   1.112 -0.1247  0.5069  0.2597
 3681SOL    HW211376   1.395   0.791   0.998  0.4268  1.2221  1.0369
 3682SOL     OW11377   2.585   0.504   0.814  0.0759  0.0857  0.3367
 3682SOL    HW111378   2.576   0.487   0.720  0.4752  0.2686  0.2633
 3682SOL    HW211379   2.557   0.595   0.825 -0.7541 -0.1830  0.5224
 3683SOL     OW11380   1.244   4.794   4.352 -0.1324  0.1833 -0.3431
 3683SOL    HW111381   1.249   4.850   4.274  0.7422  2.6040  1.3635
 3683SOL    HW211382   1.181   4.838   4.409  0.4494 -0.6536  0.9688
 3684SOL     OW11383   2.132   4.504   0.828  0.1686  0.3453 -0.2801
 3684SOL    HW111384   2.118   4.449   0.905 -1.0613 -0.9157 -1.3639
 3684SOL    HW211385   2.059   4.566   0.830 -0.9800 -0.9446 -1.4732
 3685SOL     OW11386   3.823   3.360   4.248 -0.1954 -0.5549 -0.0991
 3685SOL    HW111387   3.875   3.295   4.201  3.5727  2.0937  0.1234
 3685SOL    HW211388   3.863   3.364   4.335  1.5140  3.8882 -0.9514
 3686SOL     OW11389   2.566   2.683   1.162 -0.1888 -0.0151  0.1126
 3686SOL    HW111390   2.607   2.607   1.203 -0.6362  0.6673  1.8594
 3686SOL    HW211391   2.574   2.753   1.227 -1.7067  0.8544 -0.5970
 3687SOL     OW11392   2.327   2.277   3.820 -0.0908  0.4927 -0.3225
 3687SOL    HW111393   2.279   2.355   3.848  1.7070  1.1120  1.1383
 3687SOL    HW211394   2.395   2.265   3.886 -1.1097 -3.0928  0.2137
 3688SOL     OW11395   1.130   5.099   2.430  0.0846 -0.4400  0.4897
 3688SOL    HW111396   1.186   5.075   2.504 -1.2249 -2.4582  0.8790
 3688SOL    HW211397   1.056   5.039   2.437 -1.3326  1.1318 -0.9449
 3689SOL     OW11398   1.307   2.384   4.684  0.4040  0.0625  0.1719
 3689SOL    HW111399   1.215   2.367   4.665  0.8913 -0.2670 -1.9388
 3689SOL    HW211400   1.320   2.349   4.773 -1.2627 -0.7444  0.1072
 3690SOL     OW11401   3.684   2.730   5.170  0.0030 -0.2332 -0.8624
 3690SOL    HW111402   3.611   2.696   5.118  0.0556 -2.7800  0.6761
 3690SOL    HW211403   3.676   2.686   5.255  2.3399  0.7455 -0.1049
 3691SOL     OW11404   1.730   3.192   3.053  0.2158 -0.1996  0.1447
 3691SOL    HW111405   1.759   3.262   3.111  0.7945 -0.2113 -0.1271
 3691SOL    HW211406   1.699   3.237   2.975 -2.6913 -0.0370  1.3166
 3692SOL     OW11407   2.701   2.477   1.280  0.0740 -0.8891  0.1823
 3692SOL    HW111408   2.725   2.465   1.372  0.4101 -1.1374  0.0648
 3692SOL    HW211409   2.701   2.388   1.244 -0.8351 -0.8717  0.1315
 3693SOL     OW11410   4.847   0.149   0.521 -0.4531  0.2069 -0.0731
 3693SOL    HW111411   4.759   0.165   0.486 -0.1536 -0.1105 -0.9867
 3693SOL    HW211412   4.905   0.199   0.464 -0.2186  2.1340  1.8151
 3694SOL     OW11413   0.843   5.205   1.693 -0.2435 -0.0216  0.4349
 3694SOL    HW111414   0.772   5.181   1.752  0.3819  0.2991  1.3235
 3694SOL    HW211415   0.804   5.268   1.632 -0.4739  0.9105  1.5377
 3695SOL     OW11416   3.849   5.186   3.393 -0.4509 -0.5429 -0.1035
 3695SOL    HW111417   3.838   5.157   3.483  0.1651 -0.0040  0.1488
 3695SOL    HW211418   3.771   5.238   3.374 -1.2540 -1.8275 -0.3480
 3696SOL     OW11419   0.479   0.252   0.767 -0.4982  0.1568  0.0605
 3696SOL    HW111420   0.530   0.172   0.778 -0.8883  0.2305  2.8509
 3696SOL    HW211421   0.389   0.223   0.760 -0.5770  0.3254  0.3768
 3697SOL     OW11422   5.498   0.727   0.254  1.1341  0.3275 -0.2019
 3697SOL    HW111423   5.477   0.805   0.202  0.1888 -0.0026 -0.3140
 3697SOL    HW211424   5.447   0.737   0.334  1.0714 -0.1341 -0.1828
 3698SOL     OW11425   0.901   4.624   3.869  0.8895  0.6618  0.5953
 3698SOL    HW111426   0.962   4.695   3.849  0.6702  0.1652 -2.1570
 3698SOL    HW211427   0.916   4.560   3.798  0.2583 -1.4832  2.3416
 3699SOL     OW11428   0.177   1.531   0.830  0.3013  0.2950 -0.0217
 3699SOL    HW111429   0.119   1.595   0.790  0.8786 -0.1174 -1.5559
 3699SOL    HW211430   0.230   1.498   0.757  1.1444 -0.7130  1.0310
 3700SOL     OW11431   3.308   4.682   0.945  0.2068 -0.2373  0.2581
 3700SOL    HW111432   3.289   4.749   0.878 -0.9197 -0.7013  0.0933
 3700SOL    HW211433   3.396   4.653   0.925  0.8303  1.4094  0.5057
 3701SOL     OW11434   5.092   4.458   1.989 -0.0259 -0.1042  0.1777
 3701SOL    HW111435   5.097   4.535   1.932 -0.2434 -0.7230 -0.6915
 3701SOL    HW211436   5.030   4.483   2.058  2.7309  1.8487  2.0476
 3702SOL     OW11437   4.824   1.344   3.857  0.0222 -0.3801 -0.5045
 3702SOL    HW111438   4.901   1.377   3.903 -0.7038  0.5258  0.0810
 3702SOL    HW211439   4.856   1.324   3.769  0.8649  0.2585 -0.3537
 3703SOL     OW11440   2.268   2.173   3.137  0.1119 -0.1346 -0.4238
 3703SOL    HW111441   2.194   2.114   3.125 -1.6024  1.9152 -0.1146
 3703SOL    HW211442   2.333   2.142   3.074 -1.5038 -1.1510 -1.6338
 3704SOL     OW11443   2.356   2.379   2.246  0.3691 -0.2544  0.1889
 3704SOL    HW111444   2.300   2.454   2.267 -0.6064 -0.9801  0.2110
 3704SOL    HW211445   2.408   2.365   2.325 -0.1139 -0.1837  0.5206
 3705SOL     OW11446   4.294   4.337   0.383 -0.0250  0.6666 -0.2975
 3705SOL    HW111447   4.366   4.275   0.398  1.0811  2.1578  0.6891
 3705SOL    HW211448   4.335   4.411   0.338 -0.2452  2.8999  2.9873
 3706SOL     OW11449   5.374   4.970   1.155 -0.4155 -0.7464 -0.5978
 3706SOL    HW111450   5.357   4.890   1.104 -1.6872 -1.9127  1.5904
 3706SOL    HW211451   5.468   4.968   1.170 -0.1404 -0.7890 -2.2422
 3707SOL     OW11452   1.642   2.548   0.638 -0.8089 -0.0511 -0.0911
 3707SOL    HW111453   1.715   2.592   0.683 -1.0911  1.5394 -1.1605
 3707SOL    HW211454   1.583   2.522   0.709 -1.2789  2.4783  0.4876
 3708SOL     OW11455   3.653   3.737   5.458  0.0551 -0.1738  0.5557
 3708SOL    HW111456   3.569   3.716   5.499  0.3997 -1.8414  0.4269
 3708SOL    HW211457   3.637   3.728   5.364  0.8979 -2.5798  0.6055
 3709SOL     OW11458   3.504   4.186   3.915  0.0382 -0.0156 -0.1010
 3709SOL    HW111459   3.528   4.256   3.855 -2.8966  1.6125  0.5539
 3709SOL    HW211460   3.548   4.209   3.997  0.9707 -0.2260 -0.5328
 3710SOL     OW11461   3.201   1.114   4.445  0.1454 -0.6614 -0.5053
 3710SOL    HW111462   3.270   1.072   4.393 -0.9679 -0.0271 -2.5549
 3710SOL    HW211463   3.129   1.128   4.383 -1.3042 -0.0441  1.2653
 3711SOL     OW11464   2.748   1.833   0.182  0.0576 -0.6516 -0.1039
 3711SOL    HW111465   2.661   1.822   0.221 -0.3169  0.6391 -0.5556
 3711SOL    HW211466   2.775   1.921   0.207  1.2335 -1.0353  0.0103
 3712SOL     OW11467   1.661   4.957   2.590  0.4139 -0.3385  0.4083
 3712SOL    HW111468   1.636   4.865   2.578 -1.4927  0.2153 -0.1254
 3712SOL    HW211469   1.629   4.980   2.678 -2.6041  0.8405 -0.9140
 3713SOL     OW11470   4.819   0.327   3.126 -0.1666 -0.1268  0.5161
 3713SOL    HW111471   4.809   0.397   3.190  0.0030  0.4258 -0.0554
 3713SOL    HW211472   4.757   0.349   3.056  1.6347  0.8144 -0.8372
 3714SOL     OW11473   0.040   2.045   3.239  0.2990 -0.6491  0.6980
 3714SOL    HW111474   0.001   2.081   3.319  1.2065  2.7939 -0.3307
 3714SOL    HW211475  -0.025   1.983   3.207 -2.8671  2.4312  0.8743
 3715SOL     OW11476   0.765   4.761   2.365  0.5418  0.3986  0.3630
 3715SOL    HW111477   0.699   4.819   2.403  1.4326 -0.1783  2.9061
 3715SOL    HW211478   0.715   4.686   2.333 -0.2530  0.9277  0.3574
 3716SOL     OW11479   0.621   4.203   0.609  0.1126  0.1446 -0.3163
 3716SOL    HW111480   0.551   4.219   0.672 -0.1202 -0.2531 -0.4668
 3716SOL    HW211481   0.691   4.262   0.634  0.2405 -0.4183  0.6650
 3717SOL     OW11482   1.154   1.328   2.530 -0.2150  0.4531 -0.3826
 3717SOL    HW111483   1.122   1.387   2.462  0.5337  0.4514 -0.7421
 3717SOL    HW211484   1.226   1.376   2.571 -0.7796  0.5256  0.5265
 3718SOL     OW11485   2.018   4.216   0.759  0.0936 -0.0478 -0.4362
 3718SOL    HW111486   2.029   4.246   0.669 -0.9908 -1.0172 -0.9062
 3718SOL    HW211487   1.923   4.213   0.772  0.2217  2.2829  1.4953
 3719SOL     OW11488   3.011   5.451   1.113 -0.0500 -0.0460 -0.5099
 3719SOL    HW111489   3.092   5.485   1.074  1.2143 -0.3081  1.8047
 3719SOL    HW211490   2.974   5.395   1.045  1.2831  0.7221 -1.9118
 3720SOL     OW11491   2.807   2.124   4.818 -0.0923 -0.2354 -0.4296
 3720SOL    HW111492   2.829   2.200   4.764  0.7195 -0.5564 -0.5527
 3720SOL    HW211493   2.878   2.062   4.803 -0.8054 -1.0659 -0.4051
 3721SOL     OW11494   3.828   5.521   0.946 -0.4723  0.4696 -0.4190
 3721SOL    HW111495   3.897   5.534   1.011 -1.6065 -0.5327  1.0331
 3721SOL    HW211496   3.818   5.607   0.904  0.9688  0.8668  0.0363
 3722SOL     OW11497   3.795   0.607   1.725 -0.2493  0.0995 -0.3053
 3722SOL    HW111498   3.849   0.529   1.732 -0.1874  0.2164  0.6786
 3722SOL    HW211499   3.712   0.576   1.690 -1.0242 -0.8145  2.2005
 3723SOL     OW11500   0.976   1.264   2.778 -0.2905  0.5675  0.2505
 3723SOL    HW111501   1.026   1.298   2.703 -0.4236 -0.1949 -0.1856
 3723SOL    HW211502   1.001   1.321   2.850 -2.0454  2.8741 -0.9155
 3724SOL     OW11503   5.006   2.357   2.827 -0.2462 -1.0584  0.6080
 3724SOL    HW111504   5.069   2.366   2.898  0.1634 -1.2130  0.2673
 3724SOL    HW211505   5.016   2.267   2.796  0.1028 -0.7758 -0.1267
 3725SOL     OW11506   2.505   1.254   2.201 -0.0503 -0.2324  0.0569
 3725SOL    HW111507   2.568   1.265   2.129 -1.6016 -0.7698 -1.4112
 3725SOL    HW211508   2.558   1.217   2.272  1.7343  1.2948 -0.4228
 3726SOL     OW11509   5.433   4.822   4.160 -0.3304 -0.1691 -0.0063
 3726SOL    HW111510   5.506   4.765   4.185 -0.0923 -0.0192 -0.3557
 3726SOL    HW211511   5.412   4.870   4.241  1.0170  0.9439 -0.2910
 3727SOL     OW11512   3.279   4.693   4.594 -0.0990 -0.2509  0.1612
 3727SOL    HW111513   3.253   4.612   4.551 -0.9104 -0.0372  0.2487
 3727SOL    HW211514   3.212   4.709   4.660  0.4568  0.0986  0.6458
 3728SOL     OW11515   5.228   1.206   2.021 -0.1895 -0.4863 -0.2740
 3728SOL    HW111516   5.271   1.139   1.967  1.1131 -0.1668  0.3459
 3728SOL    HW211517   5.285   1.216   2.097 -1.4427 -0.1460  0.6468
 3729SOL     OW11518   5.060   4.017   0.016  0.0687  0.0337 -0.2635
 3729SOL    HW111519   5.037   4.107  -0.008  1.7265  0.7053  0.5664
 3729SOL    HW211520   5.124   3.990  -0.050  0.4266 -0.1209  0.1435
 3730SOL     OW11521   2.128   4.375   4.449 -0.3247 -0.3009  0.5387
 3730SOL    HW111522   2.169   4.291   4.471  0.8583 -0.2877 -1.4806
 3730SOL    HW211523   2.076   4.356   4.371  0.0401  0.8628  0.0087
 3731SOL     OW11524   0.463   0.380   2.524  0.1042  0.5149 -0.0424
 3731SOL    HW111525   0.458   0.328   2.604 -1.1016 -0.6454 -0.8519
 3731SOL    HW211526   0.377   0.422   2.518 -0.3894 -0.6467 -1.5265
 3732SOL     OW11527   0.023   1.049   1.277  0.2230  0.2078  0.2659
 3732SOL    HW111528   0.028   1.001   1.194 -0.1001 -1.4371  1.1775
 3732SOL    HW211529  -0.066   1.086   1.277  0.2149  0.1996 -0.1113
 3733SOL     OW11530   5.458   1.175   0.596  0.1784  0.2796  0.1225
 3733SOL    HW111531   5.387   1.220   0.643  0.6708  0.0155  1.1169
 3733SOL    HW211532   5.412   1.120   0.532 -0.5072  0.3343  0.5562
 3734SOL     OW11533   2.632   5.304   3.215  0.4116 -0.0958 -0.5044
 3734SOL    HW111534   2.638   5.399   3.209  2.4102 -0.2641 -1.6867
 3734SOL    HW211535   2.559   5.281   3.157  1.7337  0.5291 -2.4825
 3735SOL     OW11536   3.483   4.649   1.706 -0.4205  0.0692 -0.0497
 3735SOL    HW111537   3.449   4.615   1.789 -0.0439 -1.3450 -0.4548
 3735SOL    HW211538   3.497   4.570   1.652  1.2381  0.8208 -0.7316
 3736SOL     OW11539   2.098   5.124   5.465  0.3214  0.1969  0.0893
 3736SOL    HW111540   2.103   5.037   5.505 -1.2928 -0.2622 -0.6634
 3736SOL    HW211541   2.004   5.140   5.455  0.6492  1.3946 -1.1556
 3737SOL     OW11542   3.745   5.228   2.400  0.1195 -0.0815 -0.4446
 3737SOL    HW111543   3.838   5.249   2.397 -0.0510  0.7880  0.0060
 3737SOL    HW211544   3.723   5.200   2.311  1.1361 -1.7728 -0.1796
 3738SOL     OW11545   3.794   3.305   3.778  0.0585 -0.5794  0.0327
 3738SOL    HW111546   3.760   3.345   3.859 -0.0722 -0.4283 -0.0950
 3738SOL    HW211547   3.804   3.379   3.718 -1.8669 -0.9635 -0.7886
 3739SOL     OW11548   1.481   2.466   0.847 -0.0095  0.8651  0.7449
 3739SOL    HW111549   1.433   2.392   0.883  0.6509  0.9542  1.8202
 3739SOL    HW211550   1.415   2.535   0.837 -0.6726  0.0648 -0.4899
 3740SOL     OW11551   0.808   2.709   5.082  0.1916  0.3341  0.5144
 3740SOL    HW111552   0.736   2.677   5.136 -0.3223  1.7973  0.7113
 3740SOL    HW211553   0.814   2.803   5.102  1.6949  0.3732 -0.0175
 3741SOL     OW11554   2.629   4.811   0.458 -0.2456  0.1791  1.1049
 3741SOL    HW111555   2.578   4.831   0.380  0.1418  0.1544  0.8441
 3741SOL    HW211556   2.586   4.860   0.528  0.1180  1.1458  0.6562
 3742SOL     OW11557   2.214   4.086   2.079 -0.4768 -0.3485  0.0272
 3742SOL    HW111558   2.222   4.074   2.174 -1.1690 -1.5605 -0.0522
 3742SOL    HW211559   2.303   4.075   2.046 -0.3983 -0.9823  0.4354
 3743SOL     OW11560   3.939   2.678   1.079 -0.2406 -0.3964 -0.1263
 3743SOL    HW111561   3.903   2.597   1.116 -1.5050  0.4986  0.6637
 3743SOL    HW211562   3.873   2.706   1.015 -0.3095  0.5464  0.3541
 3744SOL     OW11563   0.854   4.895   0.684  0.1160 -0.0042 -0.1881
 3744SOL    HW111564   0.789   4.901   0.754 -0.3707 -1.7652 -0.4645
 3744SOL    HW211565   0.842   4.807   0.648  3.2832 -0.7060  0.3820
 3745SOL     OW11566   0.313   3.539   3.298 -0.5571 -0.1234  0.1799
 3745SOL    HW111567   0.229   3.511   3.262 -0.7070  2.1673 -1.3442
 3745SOL    HW211568   0.367   3.460   3.296 -2.2231 -1.2996 -0.0977
 3746SOL     OW11569   5.498   4.196   1.937 -0.0192  0.2363  0.3533
 3746SOL    HW111570   5.554   4.136   1.888 -0.1098  1.1923 -0.9821
 3746SOL    HW211571   5.540   4.205   2.022  0.6115 -0.8312  0.1579
 3747SOL     OW11572   1.845   3.827   2.220  0.1649  0.3686  0.0568
 3747SOL    HW111573   1.851   3.800   2.312  0.3816 -0.1782 -0.1187
 3747SOL    HW211574   1.756   3.859   2.210 -0.4746 -1.3823 -0.0395
 3748SOL     OW11575   1.159   1.908   2.255 -0.1671  0.5582 -0.2115
 3748SOL    HW111576   1.200   1.931   2.338 -2.3065  0.1607  0.9954
 3748SOL    HW211577   1.230   1.875   2.201  0.8142 -1.7351  2.3942
 3749SOL     OW11578   5.563   4.413   4.961 -0.3800 -0.0321  0.3637
 3749SOL    HW111579   5.491   4.443   4.906 -1.2805 -3.5442 -0.5218
 3749SOL    HW211580   5.629   4.382   4.899  1.1635  1.4479  1.2136
 3750SOL     OW11581   4.407   4.570   2.969  0.9800 -0.2524 -0.2147
 3750SOL    HW111582   4.374   4.531   3.050 -0.7414  2.3631  0.4000
 3750SOL    HW211583   4.364   4.521   2.900 -1.1405  0.4989  0.5387
 3751SOL     OW11584   1.279   0.142   1.893  0.3753  0.0398  0.3874
 3751SOL    HW111585   1.265   0.234   1.916 -0.1045 -0.0134  0.2992
 3751SOL    HW211586   1.277   0.141   1.798  2.0549  0.2082  0.3196
 3752SOL     OW11587   2.354   1.017   0.111  0.0599  0.2534 -0.7161
 3752SOL    HW111588   2.370   0.946   0.049 -2.3333 -1.5308  0.5759
 3752SOL    HW211589   2.400   0.990   0.190 -0.1754  0.5254 -0.4853
 3753SOL     OW11590   3.589   0.851   3.571 -0.1753 -0.2480  0.3075
 3753SOL    HW111591   3.672   0.842   3.525 -0.2598  0.0477  0.0952
 3753SOL    HW211592   3.540   0.772   3.548 -0.8163  0.6059 -1.3444
 3754SOL     OW11593   1.636   5.489   1.997  0.6015 -0.3575 -0.2069
 3754SOL    HW111594   1.649   5.403   2.037  0.6066 -0.8908 -1.3418
 3754SOL    HW211595   1.722   5.512   1.961  0.4482 -0.1519 -0.4450
 3755SOL     OW11596   4.504   4.504   3.965 -0.4578  0.3050 -0.6771
 3755SOL    HW111597   4.433   4.477   4.023  0.0530  1.3654  0.4772
 3755SOL    HW211598   4.569   4.434   3.970 -0.7355  0.0628 -0.5124
 3756SOL     OW11599   4.976   0.083   1.938 -0.0888  1.1186  0.7156
 3756SOL    HW111600   5.001   0.100   1.847  0.9390 -0.2830  0.7235
 3756SOL    HW211601   5.052   0.110   1.989 -0.2118  0.7945  1.0690
 3757SOL     OW11602   5.266   5.254   0.791  0.4893 -0.8583  0.1750
 3757SOL    HW111603   5.172   5.272   0.792  0.4359 -1.0165 -0.8807
 3757SOL    HW211604   5.287   5.230   0.881 -0.0076  1.5512  0.9485
 3758SOL     OW11605   1.294   4.844   4.822  0.0681 -0.1129 -0.0677
 3758SOL    HW111606   1.363   4.901   4.856  0.5520 -0.3463 -0.6486
 3758SOL    HW211607   1.214   4.875   4.865  0.6261 -0.2456  1.0787
 3759SOL     OW11608   4.211   1.068   3.410  0.1222 -0.2109  0.4837
 3759SOL    HW111609   4.236   1.114   3.330 -0.1447 -0.8572  0.0275
 3759SOL    HW211610   4.181   0.982   3.381  0.8525 -0.7829  1.3441
 3760SOL     OW11611   5.564   1.895   0.496  0.0009  0.2811  0.6161
 3760SOL    HW111612   5.560   1.964   0.561  0.7096 -0.0250  0.9919
 3760SOL    HW211613   5.600   1.820   0.543  0.5789  0.0808 -0.1339
 3761SOL     OW11614   3.854   5.419   4.783  0.1539  0.1933  0.7347
 3761SOL    HW111615   3.919   5.471   4.735 -0.1665  2.0760  2.2541
 3761SOL    HW211616   3.794   5.387   4.716  1.4234  0.2481 -0.4431
 3762SOL     OW11617   0.322   2.554   2.492 -0.0040 -0.1632 -0.3721
 3762SOL    HW111618   0.411   2.578   2.516 -0.0283 -0.3706 -0.0640
 3762SOL    HW211619   0.303   2.605   2.414  0.0271  0.6276  0.1296
 3763SOL     OW11620   1.701   1.077   5.047  0.4720 -0.6036 -0.5118
 3763SOL    HW111621   1.749   1.147   5.092  0.1724 -1.8420  1.8256
 3763SOL    HW211622   1.616   1.115   5.026  0.5186 -0.0752  0.2294
 3764SOL     OW11623   2.030   0.988   0.763 -0.0699 -0.9663  0.0187
 3764SOL    HW111624   2.096   1.048   0.728 -0.3734  0.2567  1.4748
 3764SOL    HW211625   2.080   0.919   0.806  0.2766 -0.9801 -0.4059
 3765SOL     OW11626   1.237   0.140   1.607  0.7938  0.7286 -0.2938
 3765SOL    HW111627   1.200   0.150   1.519  0.1398 -3.4694 -0.6194
 3765SOL    HW211628   1.321   0.098   1.593  0.6279 -0.0949  1.0868
 3766SOL     OW11629   2.825   4.037   1.719 -0.3117  0.7758 -0.4875
 3766SOL    HW111630   2.905   4.000   1.682 -0.3810  0.6945 -0.5566
 3766SOL    HW211631   2.824   4.007   1.810 -0.9744 -0.3878 -0.8619
 3767SOL     OW11632   0.915   0.183   1.551  0.0021 -0.2159  0.3820
 3767SOL    HW111633   1.005   0.184   1.517  0.6923 -1.5153  2.0721
 3767SOL    HW211634   0.915   0.254   1.616  0.1660 -0.9399  1.1909
 3768SOL     OW11635   5.198   1.309   2.743  0.1040 -0.3628  0.1483
 3768SOL    HW111636   5.218   1.396   2.709  2.1497 -0.7038  0.4151
 3768SOL    HW211637   5.238   1.248   2.681  0.9161 -1.0468  1.3061
 3769SOL     OW11638   4.692   1.346   5.389 -0.4542 -0.4829 -0.0110
 3769SOL    HW111639   4.715   1.263   5.431 -1.3841 -1.3547 -1.1572
 3769SOL    HW211640   4.716   1.333   5.297 -0.3218  0.6378 -0.1354
 3770SOL     OW11641   2.136   3.079   2.195  0.9072  0.1483  0.4555
 3770SOL    HW111642   2.160   2.986   2.192  0.3208 -0.0121  0.7715
 3770SOL    HW211643   2.139   3.102   2.288 -0.1256  0.1364  0.4976
 3771SOL     OW11644   2.865   3.640   2.930 -0.2634 -0.4236 -0.4555
 3771SOL    HW111645   2.868   3.551   2.965  0.6576 -0.2488 -0.0784
 3771SOL    HW211646   2.920   3.636   2.852 -0.5379 -0.2752 -0.6576
 3772SOL     OW11647   2.215   2.589   4.202  0.1700 -0.5044 -0.4770
 3772SOL    HW111648   2.139   2.633   4.165 -0.4727 -0.5819  0.7248
 3772SOL    HW211649   2.184   2.501   4.222  0.6350 -0.6026 -0.1838
 3773SOL     OW11650   2.676   3.123   4.064 -0.2707  0.1187 -0.3098
 3773SOL    HW111651   2.650   3.032   4.073 -3.5142  0.9961  0.1787
 3773SOL    HW211652   2.771   3.123   4.072 -0.3096 -3.0867  0.6615
 3774SOL     OW11653   3.775   5.493   3.839 -0.0422  0.2094 -0.2500
 3774SOL    HW111654   3.768   5.402   3.867 -2.1783  0.4068 -0.0184
 3774SOL    HW211655   3.834   5.492   3.764  0.2196 -1.3201 -0.0240
 3775SOL     OW11656   2.356   1.251   4.857  0.5479  0.3585 -0.3451
 3775SOL    HW111657   2.368   1.343   4.880  0.3620  0.4416 -0.5668
 3775SOL    HW211658   2.322   1.253   4.767  1.4239  0.0421 -0.6980
 3776SOL     OW11659   5.309   1.288   3.371  0.3685  0.3695  0.4127
 3776SOL    HW111660   5.334   1.315   3.282 -0.1379 -0.1614  0.1043
 3776SOL    HW211661   5.364   1.341   3.429  0.3238  1.1018 -0.2115
 3777SOL     OW11662   4.308   1.819   3.365  0.0488  0.0925  0.0366
 3777SOL    HW111663   4.233   1.819   3.305 -0.2896  1.7195  0.4239
 3777SOL    HW211664   4.319   1.728   3.390 -0.9159 -0.3639 -1.1245
 3778SOL     OW11665   1.615   2.508   0.370 -0.1811  0.1658  0.1853
 3778SOL    HW111666   1.607   2.500   0.465 -2.9750  0.9543  0.0696
 3778SOL    HW211667   1.613   2.603   0.354 -2.6832  0.0010 -0.8004
 3779SOL     OW11668   2.142   1.103   0.257  0.1135 -0.2753  0.4989
 3779SOL    HW111669   2.096   1.036   0.308  0.3323 -0.5341  0.3557
 3779SOL    HW211670   2.213   1.056   0.214 -0.0682 -0.0513 -0.0452
 3780SOL     OW11671   4.563   2.889   0.115  0.0032 -0.3748  0.0119
 3780SOL    HW111672   4.481   2.938   0.109 -0.5790 -1.4212 -0.5618
 3780SOL    HW211673   4.584   2.889   0.209 -1.7978 -1.9912  0.4177
 3781SOL     OW11674   0.190   0.894   0.293  0.0091 -0.0402 -0.0402
 3781SOL    HW111675   0.123   0.839   0.334  0.5498 -0.6652  0.0103
 3781SOL    HW211676   0.211   0.850   0.211 -1.2557  1.3462 -1.1443
 3782SOL     OW11677   1.318   2.221   2.217 -0.3485  0.1391 -0.7382
 3782SOL    HW111678   1.318   2.288   2.285 -1.3217 -0.6241  0.0274
 3782SOL    HW211679   1.367   2.260   2.144 -2.2105  2.2643 -0.8914
 3783SOL     OW11680   2.906   4.695   3.979  0.1770  0.1200  0.6335
 3783SOL    HW111681   2.821   4.665   4.010 -0.2998  1.1127  0.3133
 3783SOL    HW211682   2.902   4.790   3.987  0.6662  0.2781 -0.8622
 3784SOL     OW11683   3.438   3.311   3.090 -0.4022  0.1983  0.3447
 3784SOL    HW111684   3.474   3.397   3.111 -1.3958  0.4922  0.8950
 3784SOL    HW211685   3.347   3.316   3.119 -1.0464 -0.3353 -1.5354
 3785SOL     OW11686   4.292   2.319   4.655 -0.4718 -0.3699 -0.1214
 3785SOL    HW111687   4.301   2.227   4.682 -0.8064 -0.5472 -0.6136
 3785SOL    HW211688   4.217   2.351   4.705 -1.2420 -0.7672 -1.0145
 3786SOL     OW11689   0.102   4.903   1.044 -0.0699  0.5040  0.0694
 3786SOL    HW111690   0.107   4.904   0.949 -0.8565  2.3851  0.0176
 3786SOL    HW211691   0.102   4.811   1.068  1.0402  0.0396 -1.7001
 3787SOL     OW11692   2.600   4.963   4.957 -0.1747  0.1445  0.1915
 3787SOL    HW111693   2.619   4.996   5.045  0.4418 -0.1755  0.1796
 3787SOL    HW211694   2.611   4.869   4.965 -1.0361  0.0264 -0.0018
 3788SOL     OW11695   1.562   1.466   5.498 -0.2815 -0.0897  0.5781
 3788SOL    HW111696   1.529   1.376   5.501  0.1343 -0.2464  0.4283
 3788SOL    HW211697   1.485   1.520   5.515 -0.3527 -0.5116  1.6057
 3789SOL     OW11698   5.032   1.672   3.397 -0.0661 -0.7865  0.0599
 3789SOL    HW111699   4.960   1.636   3.344 -0.2377 -0.7967  0.2980
 3789SOL    HW211700   5.003   1.660   3.488 -1.1715  2.1368  0.1177
 3790SOL     OW11701   2.082   1.297   0.053  1.0197  0.0806  0.2367
 3790SOL    HW111702   2.009   1.236   0.055  0.8217  0.2595 -1.1599
 3790SOL    HW211703   2.142   1.265   0.121 -0.7011  0.4006  1.9509
 3791SOL     OW11704   3.441   0.116   0.449  0.3261  0.1564 -0.3249
 3791SOL    HW111705   3.509   0.061   0.487  0.4226 -0.9162 -2.0353
 3791SOL    HW211706   3.359   0.080   0.482  0.4997  0.4600  0.4467
 3792SOL     OW11707   2.561   0.085   2.675 -0.4437 -0.5695 -0.1256
 3792SOL    HW111708   2.582   0.018   2.741  2.0692  0.7395  0.4573
 3792SOL    HW211709   2.645   0.105   2.634 -1.1290  2.2812 -0.2333
 3793SOL     OW11710   0.993   5.205   1.444 -0.1138  0.1805 -0.6249
 3793SOL    HW111711   0.940   5.240   1.516  0.1816  2.5480 -1.4957
 3793SOL    HW211712   1.003   5.279   1.384  2.2068 -0.8981 -1.6269
 3794SOL     OW11713   0.718   2.193   5.471  0.6522  0.2217  0.5437
 3794SOL    HW111714   0.681   2.281   5.483  2.1943  0.7255  1.7061
 3794SOL    HW211715   0.780   2.183   5.543 -1.3021 -2.8004  1.9454
 3795SOL     OW11716   5.044   1.220   3.409 -0.4805  0.1124  0.6408
 3795SOL    HW111717   4.988   1.211   3.332  0.5464 -1.0718  0.0125
 3795SOL    HW211718   5.133   1.229   3.374 -0.2834  2.3411  1.6127
 3796SOL     OW11719   3.396   3.383   1.080  0.7472 -0.5099 -0.2333
 3796SOL    HW111720   3.363   3.455   1.027  0.2910 -0.1407  0.5442
 3796SOL    HW211721   3.428   3.425   1.160  1.4487 -1.0576 -0.2232
 3797SOL     OW11722   2.166   1.223   5.178 -0.3283  0.3661 -0.0599
 3797SOL    HW111723   2.260   1.230   5.159 -0.4854  1.9519 -0.3460
 3797SOL    HW211724   2.140   1.313   5.199 -1.6786 -0.1617  0.5436
 3798SOL     OW11725   4.088   0.904   4.104  0.1256  0.4113  0.1013
 3798SOL    HW111726   4.152   0.859   4.050 -1.6380 -1.5410 -0.4173
 3798SOL    HW211727   4.066   0.982   4.054 -1.0424 -1.0676 -1.7605
 3799SOL     OW11728   4.620   3.074   2.544 -0.2176  0.2116 -0.9272
 3799SOL    HW111729   4.649   3.053   2.632 -1.1273  1.4176 -0.3309
 3799SOL    HW211730   4.581   2.993   2.511  0.3104 -0.2957 -0.3082
 3800SOL     OW11731   3.050   3.787   3.614 -0.3450 -0.6952  0.1481
 3800SOL    HW111732   2.982   3.737   3.659 -1.4353 -0.7167 -1.4604
 3800SOL    HW211733   3.037   3.767   3.521  1.2734  0.0360 -0.2520
 3801SOL     OW11734   2.509   2.326   0.039 -0.5247 -0.2739 -0.1171
 3801SOL    HW111735   2.528   2.318  -0.055 -0.4548 -0.6393 -0.0749
 3801SOL    HW211736   2.535   2.241   0.075 -1.4776 -0.5004  0.0675
 3802SOL     OW11737   0.782   4.350   0.811 -0.1747 -0.4310  0.3749
 3802SOL    HW111738   0.707   4.303   0.848  0.7760 -1.2131  1.3688
 3802SOL    HW211739   0.775   4.438   0.847 -0.6764 -0.4716  0.3873
 3803SOL     OW11740   2.823   4.080   4.684  0.0469  0.1123 -0.3874
 3803SOL    HW111741   2.748   4.020   4.676  0.8883 -1.0284  0.1067
 3803SOL    HW211742   2.842   4.081   4.778  2.2863 -1.6490 -0.7916
 3804SOL     OW11743   4.441   5.105   0.770  0.2921 -0.7648  0.0024
 3804SOL    HW111744   4.506   5.101   0.840  0.6491 -1.3865 -0.3589
 3804SOL    HW211745   4.434   5.197   0.748 -0.5215 -0.4560  1.5145
 3805SOL     OW11746   1.690   3.800   0.009  0.3800 -0.0410 -0.0306
 3805SOL    HW111747   1.715   3.851  -0.068  0.4085  0.2088  0.1444
 3805SOL    HW211748   1.741   3.720   0.002 -0.4723 -0.5236 -0.8828
 3806SOL     OW11749   2.543   2.276   4.263  0.4052 -0.2370 -0.3764
 3806SOL    HW111750   2.498   2.240   4.186 -1.2534  0.8740  0.0374
 3806SOL    HW211751   2.536   2.371   4.252  1.0205 -0.0696  0.6451
 3807SOL     OW11752   4.238   1.713   4.032  0.6111 -0.0635 -0.1473
 3807SOL    HW111753   4.271   1.792   3.990 -0.4793  0.8735  0.7080
 3807SOL    HW211754   4.257   1.642   3.971  0.8983  0.9792 -1.2697
 3808SOL     OW11755   0.295   0.910   3.833 -0.2044  0.3226  0.0665
 3808SOL    HW111756   0.271   0.857   3.909  0.0310  2.8135  1.9485
 3808SOL    HW211757   0.214   0.954   3.808 -0.2001 -0.2238 -0.9411
 3809SOL     OW11758   3.567   5.459   0.188 -0.0067  0.2154 -0.7945
 3809SOL    HW111759   3.498   5.494   0.131 -1.0908  0.6020  0.7123
 3809SOL    HW211760   3.624   5.534   0.206  0.5498  0.0051 -1.6611
 3810SOL     OW11761   4.141   4.123   1.661 -0.8579  0.0342 -0.0479
 3810SOL    HW111762   4.151   4.193   1.596  1.0026 -0.5390 -0.3911
 3810SOL    HW211763   4.099   4.052   1.612  0.6571 -0.4431 -0.6689
 3811SOL     OW11764   3.901   3.498   1.448  0.3944  0.0427  0.0822
 3811SOL    HW111765   3.824   3.445   1.427  0.5137 -0.1756  0.1968
 3811SOL    HW211766   3.870   3.560   1.515  0.0808  0.5698 -0.5444
 3812SOL     OW11767   0.416   3.605   0.127 -0.0782 -0.2839 -0.1640
 3812SOL    HW111768   0.487   3.647   0.176 -0.8093  0.5637  0.1924
 3812SOL    HW211769   0.460   3.545   0.067  1.0574  1.7504 -1.4140
 3813SOL     OW11770   0.527   4.954   1.386 -0.2562  0.0210 -0.7847
 3813SOL    HW111771   0.612   4.917   1.410 -0.1474 -0.4094 -1.8199
 3813SOL    HW211772   0.496   4.995   1.466  1.6520  1.5843 -0.8104
 3814SOL     OW11773   3.864   4.461   5.513 -0.2857 -0.2578 -0.1925
 3814SOL    HW111774   3.774   4.493   5.510  0.2654  1.4991  1.1868
 3814SOL    HW211775   3.857   4.374   5.553 -1.2814  0.3214  0.9502
 3815SOL     OW11776   1.590   1.721   4.573 -0.3191 -0.4156  0.1800
 3815SOL    HW111777   1.590   1.816   4.561  1.3155 -0.3247  0.7191
 3815SOL    HW211778   1.664   1.705   4.631 -0.4933 -2.0393 -0.0321
 3816SOL     OW11779   5.057   3.867   1.161 -0.5127  0.2367 -0.2254
 3816SOL    HW111780   5.021   3.871   1.072  0.9154 -0.9717 -0.8690
 3816SOL    HW211781   4.995   3.919   1.213 -1.5059  0.7643 -1.8617
 3817SOL     OW11782   3.962   2.278   3.940 -0.3980 -0.0914  0.8462
 3817SOL    HW111783   3.887   2.257   3.885  0.2228 -1.4599  0.5030
 3817SOL    HW211784   3.928   2.274   4.030 -0.9248  0.0872  0.6510
 3818SOL     OW11785   0.061   0.413   0.817 -0.4072  0.6562  0.1885
 3818SOL    HW111786   0.094   0.349   0.754  0.1856 -0.2500  1.4046
 3818SOL    HW211787   0.112   0.397   0.896 -3.2021 -0.2564  1.8955
 3819SOL     OW11788   1.352   4.015   2.281 -0.3041  0.2985 -0.2211
 3819SOL    HW111789   1.314   4.103   2.287 -2.6229 -0.5234 -2.2230
 3819SOL    HW211790   1.284   3.962   2.239  1.0207 -2.4896  1.0236
 3820SOL     OW11791   4.889   4.446   0.949  0.3088  0.0217 -0.2980
 3820SOL    HW111792   4.883   4.505   0.874 -1.0393  0.0276 -0.1857
 3820SOL    HW211793   4.977   4.462   0.984 -0.0825  2.0626 -0.1839
 3821SOL     OW11794   2.902   4.014   0.016  0.0299  0.2253 -0.1352
 3821SOL    HW111795   2.953   3.933   0.017 -1.3391 -0.6723 -1.0609
 3821SOL    HW211796   2.847   4.009   0.094 -3.4536 -2.0179 -2.5972
 3822SOL     OW11797   3.554   2.880   4.761  0.1732  0.0424 -0.2280
 3822SOL    HW111798   3.600   2.830   4.693  1.8800  1.7483 -0.3748
 3822SOL    HW211799   3.465   2.845   4.760  1.0992 -2.4346 -0.8585
 3823SOL     OW11800   0.049   3.197   3.830 -0.8430 -0.6634 -0.6879
 3823SOL    HW111801   0.117   3.198   3.898  1.5422 -2.2533 -2.9398
 3823SOL    HW211802   0.074   3.268   3.771 -0.2908 -2.1357 -2.2711
 3824SOL     OW11803   2.495   2.999   1.255 -0.3940 -0.3985  0.6295
 3824SOL    HW111804   2.524   3.077   1.207  0.0942 -0.4897  0.7794
 3824SOL    HW211805   2.547   2.999   1.336 -2.0715  0.4455  1.7551
 3825SOL     OW11806   0.176   1.314   0.999 -0.0963 -0.0913 -0.6288
 3825SOL    HW111807   0.167   1.395   0.949  1.7977  1.3668  1.2719
 3825SOL    HW211808   0.101   1.261   0.972 -1.5685  2.4176 -1.6968
 3826SOL     OW11809   5.488   2.991   0.219 -0.2863 -0.3822 -0.0558
 3826SOL    HW111810   5.478   3.035   0.304 -2.0216  1.0392 -0.9604
 3826SOL    HW211811   5.413   2.931   0.214 -0.9827  0.5667 -1.1753
 3827SOL     OW11812   3.862   0.183   2.103  0.5386  0.9550  0.0110
 3827SOL    HW111813   3.894   0.190   2.013  1.2468  1.3585  0.2925
 3827SOL    HW211814   3.788   0.122   2.097  1.7735 -0.5272 -0.5360
 3828SOL     OW11815   2.677   2.645   0.689  0.3292 -0.2260 -0.0435
 3828SOL    HW111816   2.738   2.712   0.657 -0.2887  0.0328 -0.6936
 3828SOL    HW211817   2.698   2.567   0.636  0.6295 -0.3659  0.2822
 3829SOL     OW11818   3.858   4.934   0.702 -0.8144 -0.5317  0.0661
 3829SOL    HW111819   3.797   4.898   0.766 -2.3255  0.2146 -0.9207
 3829SOL    HW211820   3.892   5.014   0.742 -2.6391  0.5598 -0.5114
 3830SOL     OW11821   2.552   5.456   5.495 -0.3029 -0.1738 -0.5070
 3830SOL    HW111822   2.561   5.396   5.420  0.4258 -0.1050 -0.4785
 3830SOL    HW211823   2.473   5.426   5.540 -0.9086 -0.0428 -1.4596
 3831SOL     OW11824   4.369   1.540   3.294 -0.2027  0.2873 -0.2619
 3831SOL    HW111825   4.342   1.569   3.207 -2.2910  0.4603  0.4125
 3831SOL    HW211826   4.404   1.452   3.281  1.4968  1.1371 -1.5757
 3832SOL     OW11827   4.776   1.701   0.107  0.5732  0.3255 -0.1856
 3832SOL    HW111828   4.835   1.661   0.171  0.6086  0.6297 -0.0313
 3832SOL    HW211829   4.826   1.701   0.025  0.5899  0.0957 -0.1775
 3833SOL     OW11830   3.034   4.162   4.376 -0.1155 -0.0441 -0.1241
 3833SOL    HW111831   3.085   4.232   4.336 -1.6231  1.5258  0.5995
 3833SOL    HW211832   2.984   4.206   4.445 -1.4327 -1.7569  0.0533
 3834SOL     OW11833   1.143   0.818   5.010  0.4392  0.4804  0.2041
 3834SOL    HW111834   1.211   0.883   4.994 -0.9102  1.9243  0.1191
 3834SOL    HW211835   1.148   0.759   4.934 -1.3122  3.2118 -2.1631
 3835SOL     OW11836   3.336   1.022   4.224 -0.1165  0.1578  0.4317
 3835SOL    HW111837   3.311   0.976   4.145 -2.8531  2.2900 -0.0410
 3835SOL    HW211838   3.431   1.029   4.220 -0.2376  0.5588 -2.8699
 3836SOL     OW11839   2.799   3.453   1.729 -0.2097 -0.0395 -0.1452
 3836SOL    HW111840   2.786   3.445   1.634 -0.1285  0.2811 -0.1833
 3836SOL    HW211841   2.807   3.363   1.759 -0.8305 -0.1741 -0.3596
 3837SOL     OW11842   1.763   5.215   2.072 -0.5889 -0.1806  0.2056
 3837SOL    HW111843   1.805   5.263   2.144  0.8361 -3.2047  1.4714
 3837SOL    HW211844   1.821   5.230   1.997 -1.0398  1.3901  0.1451
 3838SOL     OW11845   3.395   2.320   4.519  0.0596  0.4251 -0.1965
 3838SOL    HW111846   3.385   2.318   4.614 -0.1003 -0.8636 -0.2279
 3838SOL    HW211847   3.307   2.299   4.485  0.2588  0.2550 -0.6123
 3839SOL     OW11848   4.941   1.037   2.722 -0.3038 -0.2428 -0.4713
 3839SOL    HW111849   4.893   0.955   2.709  1.6908 -1.2974 -1.4593
 3839SOL    HW211850   5.019   1.012   2.771  0.9388  0.8364 -1.8433
 3840SOL     OW11851   3.922   1.767   4.306  0.2670  0.5026 -0.2551
 3840SOL    HW111852   3.960   1.687   4.269 -0.2176 -0.7186  1.7820
 3840SOL    HW211853   3.953   1.768   4.396  1.2268  3.2804 -0.5726
 3841SOL     OW11854   4.289   3.607   3.916 -0.0367  0.4985  0.3249
 3841SOL    HW111855   4.232   3.532   3.900  0.7767 -0.2971  1.1213
 3841SOL    HW211856   4.289   3.655   3.833 -1.6131  0.3526  0.2152
 3842SOL     OW11857   2.932   0.521   3.548  0.4280  0.3553  0.4040
 3842SOL    HW111858   2.940   0.615   3.567  0.2020  0.4586 -0.0168
 3842SOL    HW211859   2.984   0.479   3.617 -0.3584  0.7335  1.2392
 3843SOL     OW11860   2.728   5.400   0.405 -0.0085  0.6021 -0.1533
 3843SOL    HW111861   2.720   5.486   0.447 -0.5575  1.0051 -1.0686
 3843SOL    HW211862   2.645   5.389   0.359  0.6277  0.2056 -1.2133
 3844SOL     OW11863   3.618   1.396   0.848 -0.0858 -0.7896 -0.3708
 3844SOL    HW111864   3.549   1.406   0.913  0.4194 -1.3499  0.2503
 3844SOL    HW211865   3.632   1.484   0.813 -0.3426 -0.4927  0.2853
 3845SOL     OW11866   5.306   4.035   2.216  0.0473  0.3545 -0.2527
 3845SOL    HW111867   5.273   4.122   2.194  0.4827  0.1186 -1.9060
 3845SOL    HW211868   5.373   4.050   2.283  0.3662  1.3332 -0.7851
 3846SOL     OW11869   1.078   1.046   1.396 -0.6764  0.2901 -0.0299
 3846SOL    HW111870   1.128   1.112   1.445  0.6034  0.3780 -1.4025
 3846SOL    HW211871   1.047   1.093   1.319  0.1198 -0.6674 -0.9404
 3847SOL     OW11872   0.272   1.950   3.935 -0.1733 -0.2921  0.3295
 3847SOL    HW111873   0.291   1.972   3.844 -1.9253  0.5196  0.1314
 3847SOL    HW211874   0.183   1.914   3.933  0.0719 -0.9892  1.6073
 3848SOL     OW11875   3.611   5.376   3.344 -0.4698  1.0268 -1.0155
 3848SOL    HW111876   3.544   5.323   3.387  1.3117 -0.4711 -0.0034
 3848SOL    HW211877   3.610   5.459   3.392  0.1011  0.1016  0.6321
 3849SOL     OW11878   3.014   4.018   1.985  1.0153 -0.0848 -0.1276
 3849SOL    HW111879   3.065   4.015   2.066  1.0142 -2.3496 -0.1848
 3849SOL    HW211880   3.055   3.953   1.928 -0.3825 -0.1289 -1.1104
 3850SOL     OW11881   0.159   4.889   4.043 -0.2509  0.4890  0.7279
 3850SOL    HW111882   0.090   4.883   4.109 -0.3143  0.9004  0.6972
 3850SOL    HW211883   0.218   4.817   4.064 -1.6070 -0.9784 -0.3014
 3851SOL     OW11884   3.545   2.218   2.308 -0.1067  0.7382  0.2029
 3851SOL    HW111885   3.533   2.132   2.267  0.2523  0.8208 -0.0742
 3851SOL    HW211886   3.457   2.246   2.331 -0.2568  0.4534 -0.0225
 3852SOL     OW11887   2.813   3.915   5.104 -0.6474  0.1062  0.6209
 3852SOL    HW111888   2.871   3.887   5.033 -1.4012  0.9877 -0.3453
 3852SOL    HW211889   2.765   3.836   5.128  0.9716 -0.6511  1.4695
 3853SOL     OW11890   1.147   0.990   4.251 -0.8586  0.1530 -0.6854
 3853SOL    HW111891   1.162   1.057   4.318 -0.9929  0.2006 -0.7025
 3853SOL    HW211892   1.158   1.037   4.168  0.5393 -0.1750 -0.7069
 3854SOL     OW11893   3.366   4.693   1.207 -0.3271  0.1405  0.1752
 3854SOL    HW111894   3.336   4.710   1.117  1.3876  2.2291 -0.0263
 3854SOL    HW211895   3.354   4.777   1.252  2.8707  0.3374  0.7345
 3855SOL     OW11896   1.619   0.084   3.187  0.1646  0.7328 -0.0846
 3855SOL    HW111897   1.699   0.121   3.150  0.9405  1.1592  1.9664
 3855SOL    HW211898   1.550   0.145   3.163  0.3783  0.2109 -2.1217
 3856SOL     OW11899   0.682   2.971   1.217 -0.1691  0.1573 -0.1200
 3856SOL    HW111900   0.655   3.055   1.179  1.1387 -0.2062 -1.8705
 3856SOL    HW211901   0.601   2.919   1.219 -0.2236  0.1340 -2.5181
 3857SOL     OW11902   1.337   0.007   1.318 -0.2312  0.2761  0.5002
 3857SOL    HW111903   1.317  -0.086   1.308  1.3422  0.2953 -3.5543
 3857SOL    HW211904   1.405   0.009   1.385  0.9673 -1.6797 -0.6134
 3858SOL     OW11905   5.199   2.759   4.726 -0.4022 -0.6817 -0.6808
 3858SOL    HW111906   5.106   2.747   4.745 -0.6939  0.5677 -1.3130
 3858SOL    HW211907   5.201   2.800   4.640  0.7265 -0.4119 -0.5298
 3859SOL     OW11908   4.242   1.176   3.174  0.0396 -0.3008  0.5920
 3859SOL    HW111909   4.310   1.200   3.111 -1.4125  0.3309 -0.7490
 3859SOL    HW211910   4.162   1.167   3.122 -1.2706  0.6429  2.4011
 3860SOL     OW11911   1.364   1.437   0.651  0.1506 -0.1115 -0.0736
 3860SOL    HW111912   1.351   1.367   0.716  1.5503  2.9109  3.6660
 3860SOL    HW211913   1.455   1.463   0.662 -0.4795  2.6641 -0.9488
 3861SOL     OW11914   3.635   3.876   3.161 -0.0526 -0.4194 -0.0930
 3861SOL    HW111915   3.589   3.921   3.090 -0.6455  0.4752  0.8371
 3861SOL    HW211916   3.711   3.837   3.118 -0.5455 -0.1351 -1.2734
 3862SOL     OW11917   0.895   1.897   1.384  0.1227 -0.4965  0.6333
 3862SOL    HW111918   0.985   1.896   1.352  0.1481  0.3226  0.6807
 3862SOL    HW211919   0.853   1.968   1.336  0.1286  0.6720  2.3392
 3863SOL     OW11920   0.284   2.883   3.330 -0.4243 -0.0132 -0.1436
 3863SOL    HW111921   0.198   2.872   3.372 -0.9922  0.0868 -1.2378
 3863SOL    HW211922   0.288   2.812   3.266  0.7191 -0.5759  0.5445
 3864SOL     OW11923   2.161   3.056   5.139 -0.2064  0.4282  0.7263
 3864SOL    HW111924   2.225   3.047   5.209  1.7033  1.3843 -0.8372
 3864SOL    HW211925   2.183   3.139   5.097 -0.1787 -0.9310 -2.0751
 3865SOL     OW11926   3.821   3.809   2.978 -1.0018  0.1726 -0.4209
 3865SOL    HW111927   3.835   3.804   2.884 -1.1520 -2.1286 -0.3473
 3865SOL    HW211928   3.908   3.796   3.016 -0.9103  1.2884 -0.2350
 3866SOL     OW11929   1.740   5.503   0.932  0.3270  0.8048  0.0280
 3866SOL    HW111930   1.662   5.527   0.882 -0.9738 -1.0170  1.1231
 3866SOL    HW211931   1.736   5.407   0.938  0.9577  0.8971  2.7673
 3867SOL     OW11932   0.721   1.627   3.168 -0.2340 -0.8961 -0.1206
 3867SOL    HW111933   0.685   1.687   3.232  1.0177  0.0700 -0.3119
 3867SOL    HW211934   0.732   1.544   3.215 -1.3104 -0.7930  0.3210
 3868SOL     OW11935   2.209   1.559   3.743  0.2597 -0.1702  0.9092
 3868SOL    HW111936   2.133   1.603   3.779 -0.4347 -1.2427  0.7835
 3868SOL    HW211937   2.269   1.550   3.818  0.4051  0.9389  0.9376
 3869SOL     OW11938   4.473   4.452   0.622 -0.1119 -0.1966  0.2873
 3869SOL    HW111939   4.518   4.470   0.704 -1.3129  2.1402  0.4768
 3869SOL    HW211940   4.387   4.418   0.649  0.8714 -3.0396 -0.0539
 3870SOL     OW11941   3.123   0.354   5.146 -0.0572 -0.0381  0.1556
 3870SOL    HW111942   3.081   0.376   5.063 -0.0852 -0.4591  0.0573
 3870SOL    HW211943   3.152   0.438   5.181  0.5791  0.0770 -0.6150
 3871SOL     OW11944   3.194   1.870   5.546  0.4272 -0.3926  0.4418
 3871SOL    HW111945   3.272   1.922   5.528  1.0028 -1.3043  0.2731
 3871SOL    HW211946   3.147   1.867   5.463 -0.1633  0.7830  0.7357
 3872SOL     OW11947   0.908   2.253   1.124  0.9672  0.5048  0.1163
 3872SOL    HW111948   0.814   2.270   1.120  1.0665  1.3622  1.3017
 3872SOL    HW211949   0.919   2.170   1.077 -0.3943  0.3157  0.1095
 3873SOL     OW11950   0.539   0.257   1.984  0.2089 -0.4502 -0.3020
 3873SOL    HW111951   0.566   0.321   1.919 -0.2829 -0.8984 -0.9618
 3873SOL    HW211952   0.553   0.300   2.068  0.7521  0.1729 -0.7105
 3874SOL     OW11953   2.148   0.603   0.009 -0.9614 -0.1130  0.3221
 3874SOL    HW111954   2.209   0.591   0.082 -1.1836  0.6354  0.6358
 3874SOL    HW211955   2.173   0.536  -0.055  1.0866  1.0736 -0.1622
 3875SOL     OW11956   4.057   4.463   0.369 -0.3463 -0.2502 -0.5771
 3875SOL    HW111957   4.146   4.433   0.384 -0.3024  0.1095 -0.0771
 3875SOL    HW211958   4.054   4.486   0.276 -0.1702 -1.0859 -0.7940
 3876SOL     OW11959   1.076   2.534   2.487  0.0260 -0.2032 -0.1479
 3876SOL    HW111960   1.026   2.610   2.518 -1.4327 -0.9438 -0.6463
 3876SOL    HW211961   1.009   2.469   2.465  1.2179 -1.1670 -0.9444
 3877SOL     OW11962   3.597   4.118   2.291 -0.5236  0.2870  0.2465
 3877SOL    HW111963   3.531   4.157   2.234  1.3794  4.2461  0.5309
 3877SOL    HW211964   3.606   4.180   2.363  1.4498 -1.5772  1.6727
 3878SOL     OW11965   1.532   1.232   0.107  0.1429  0.4930  0.6895
 3878SOL    HW111966   1.550   1.143   0.078 -0.4300  0.1090  1.4717
 3878SOL    HW211967   1.436   1.238   0.107  0.1533  0.7795  1.5790
 3879SOL     OW11968   4.075   5.410   3.365 -0.6890 -0.0555  0.2387
 3879SOL    HW111969   4.011   5.340   3.356  0.1128 -0.7808  0.2207
 3879SOL    HW211970   4.052   5.473   3.297 -1.2915 -0.3848  0.1399
 3880SOL     OW11971   0.601   1.661   4.955  0.0067 -0.2929  0.2830
 3880SOL    HW111972   0.519   1.692   4.993 -0.5284 -1.0104 -0.2616
 3880SOL    HW211973   0.661   1.735   4.963 -1.3160  0.9846 -1.2302
 3881SOL     OW11974   2.200   1.479   1.259 -0.5913 -0.5520  0.2540
 3881SOL    HW111975   2.166   1.569   1.260 -3.0684 -1.4482  0.2702
 3881SOL    HW211976   2.241   1.469   1.345 -0.9276  0.3547  0.5294
 3882SOL     OW11977   2.890   1.366   0.637  0.1672  0.2246  0.0080
 3882SOL    HW111978   2.929   1.280   0.654  1.7211  0.9692  0.2734
 3882SOL    HW211979   2.889   1.373   0.542  0.7629  0.2434  0.0039
 3883SOL     OW11980   5.399   4.705   0.598 -0.0939 -0.0507 -0.5804
 3883SOL    HW111981   5.395   4.796   0.567 -0.8905  0.4539  0.9719
 3883SOL    HW211982   5.474   4.667   0.551  1.1769  1.8222 -0.1145
 3884SOL     OW11983   3.931   4.440   1.004 -0.5249  0.4988 -0.0502
 3884SOL    HW111984   3.896   4.354   1.024 -0.6566  0.8462  1.3069
 3884SOL    HW211985   3.992   4.458   1.077 -0.8337  1.7217 -0.0876
 3885SOL     OW11986   0.243   3.146   0.379  0.1420  0.2192  0.0044
 3885SOL    HW111987   0.195   3.175   0.457 -0.1346  0.8358 -0.3880
 3885SOL    HW211988   0.327   3.192   0.384 -0.3311  1.1787 -0.6643
 3886SOL     OW11989   2.150   3.702   2.336 -0.3782 -0.3374  0.1668
 3886SOL    HW111990   2.149   3.691   2.431  1.1470  0.5629  0.2935
 3886SOL    HW211991   2.243   3.702   2.313 -0.7434 -0.6952 -1.3488
 3887SOL     OW11992   3.326   0.288   3.729  0.1104 -0.2198  0.0921
 3887SOL    HW111993   3.247   0.335   3.754 -0.8547 -1.4986 -0.4927
 3887SOL    HW211994   3.318   0.275   3.635  2.6337  2.5412 -0.5835
 3888SOL     OW11995   5.569   1.346   5.537  0.1287  0.2524 -0.2084
 3888SOL    HW111996   5.662   1.369   5.541  0.1811  0.2411 -1.3477
 3888SOL    HW211997   5.547   1.324   5.628  0.8713  1.6827  0.3421
 3889SOL     OW11998   5.409   0.233   1.514  0.1421 -0.0971 -0.0440
 3889SOL    HW111999   5.427   0.153   1.564 -2.1686  0.0377  1.0431
 3889SOL    HW212000   5.475   0.295   1.544  1.4361 -1.3190 -0.2973
 3890SOL     OW12001   2.080   3.548   4.699  0.3533 -0.0182 -0.4086
 3890SOL    HW112002   1.998   3.505   4.676  0.3025 -1.4222  2.1851
 3890SOL    HW212003   2.063   3.586   4.786  2.1077  0.6383 -0.3360
 3891SOL     OW12004   0.620   4.486   2.242 -0.1855 -0.2668 -0.5714
 3891SOL    HW112005   0.601   4.477   2.335 -0.4281 -0.2473 -0.6204
 3891SOL    HW212006   0.535   4.482   2.198 -0.0376 -0.6479 -0.8232
 3892SOL     OW12007   4.929   4.140   3.003  0.8039  0.1286  0.1634
 3892SOL    HW112008   4.946   4.225   2.964  1.9031 -1.0829 -2.1348
 3892SOL    HW212009   4.982   4.138   3.082  1.8038  1.0665 -0.4771
 3893SOL     OW12010   2.911   2.367   3.062  0.2133 -0.1761 -0.1990
 3893SOL    HW112011   2.822   2.352   3.028 -0.2269 -0.0961  0.8959
 3893SOL    HW212012   2.903   2.354   3.156  1.0137  1.4810  0.1175
 3894SOL     OW12013   1.341   2.968   0.322 -0.2739  0.6066 -0.7262
 3894SOL    HW112014   1.353   2.958   0.228 -1.4780 -1.6514 -0.6891
 3894SOL    HW212015   1.248   2.985   0.333 -0.1119  1.0308  0.0440
 3895SOL     OW12016   1.873   3.166   1.928 -0.1924 -0.0481 -0.3229
 3895SOL    HW112017   1.863   3.076   1.895 -0.0970  0.3778 -1.5157
 3895SOL    HW212018   1.957   3.165   1.974 -1.4442 -1.2844  2.0616
 3896SOL     OW12019   3.209   0.592   5.211  0.2867  0.1563  0.0893
 3896SOL    HW112020   3.259   0.574   5.290 -1.0457 -0.3764  0.8289
 3896SOL    HW212021   3.134   0.643   5.241 -0.2379 -0.0556 -0.8271
 3897SOL     OW12022   2.863   5.175   3.215 -0.0594 -0.1804 -0.0680
 3897SOL    HW112023   2.776   5.215   3.220  0.3796  0.7574  0.2053
 3897SOL    HW212024   2.859   5.121   3.136 -0.3359  1.2412 -1.0547
 3898SOL     OW12025   5.272   4.914   1.530 -0.5230  0.2464  0.0828
 3898SOL    HW112026   5.325   4.863   1.469 -3.1045 -1.0147 -1.2074
 3898SOL    HW212027   5.289   5.005   1.506 -0.6333 -0.2061 -1.7983
 3899SOL     OW12028   4.488   3.719   1.943  0.8306 -0.1353  0.0637
 3899SOL    HW112029   4.395   3.740   1.937  0.4506 -1.7316  0.1027
 3899SOL    HW212030   4.532   3.792   1.899 -0.3982  0.8852  0.4877
 3900SOL     OW12031   4.330   1.302   1.603 -0.2997  0.0127  0.6923
 3900SOL    HW112032   4.253   1.356   1.623 -0.5193 -0.5972  1.5411
 3900SOL    HW212033   4.295   1.229   1.551  0.1396  1.1493 -1.2283
 3901SOL     OW12034   3.787   3.671   3.419 -0.5430  0.4210 -0.1735
 3901SOL    HW112035   3.826   3.756   3.438 -3.4201  1.7757  0.0413
 3901SOL    HW212036   3.742   3.684   3.335 -2.7613 -0.2131  0.8682
 3902SOL     OW12037   3.888   2.170   0.362 -0.0098  0.2521  0.3739
 3902SOL    HW112038   3.853   2.214   0.439 -0.3291  0.5086  0.0805
 3902SOL    HW212039   3.814   2.164   0.301  0.0350 -0.6547  0.3977
 3903SOL     OW12040   3.084   0.899   5.176 -0.4866 -0.7046 -0.5266
 3903SOL    HW112041   3.019   0.853   5.122 -0.6054 -0.4445 -0.6079
 3903SOL    HW212042   3.053   0.886   5.266 -0.9447 -0.1427 -0.5964
 3904SOL     OW12043   2.840   0.878   1.603 -0.0845 -0.4061 -0.7496
 3904SOL    HW112044   2.756   0.848   1.569 -0.3712  0.9656 -1.2559
 3904SOL    HW212045   2.818   0.950   1.662  0.7109 -0.2163 -0.6745
 3905SOL     OW12046   0.066   2.561   4.998 -0.0726 -0.1371 -0.3620
 3905SOL    HW112047   0.091   2.622   4.928  0.0849  0.7835  0.4805
 3905SOL    HW212048  -0.021   2.531   4.973 -0.0879  0.3223 -0.8706
 3906SOL     OW12049   4.053   2.870   1.650  0.0176 -0.2395  0.4625
 3906SOL    HW112050   4.031   2.961   1.630 -1.4796 -1.0217 -1.5851
 3906SOL    HW212051   4.133   2.876   1.701 -0.3371  2.2615  0.8193
 3907SOL     OW12052   3.641   1.281   4.070  0.6193  0.0449  0.0407
 3907SOL    HW112053   3.703   1.279   3.997 -0.0541 -1.2890 -0.5135
 3907SOL    HW212054   3.645   1.193   4.108 -0.4206  0.1600  0.4309
 3908SOL     OW12055   4.289   3.603   3.068  0.5495 -0.4480  0.0193
 3908SOL    HW112056   4.348   3.528   3.074  2.1569  0.7362 -0.4681
 3908SOL    HW212057   4.348   3.679   3.066 -0.9920  0.7460 -0.7220
 3909SOL     OW12058   1.635   0.987   2.822  0.3673  0.1170  0.1269
 3909SOL    HW112059   1.696   0.995   2.749  3.0417 -1.7867  2.0540
 3909SOL    HW212060   1.581   1.065   2.817  3.4217  2.2276 -1.2856
 3910SOL     OW12061   1.640   4.696   2.765  0.0265 -0.5006  0.1976
 3910SOL    HW112062   1.636   4.601   2.758  2.4054 -0.8010  2.2247
 3910SOL    HW212063   1.734   4.716   2.757 -0.2279  1.4829  1.9213
 3911SOL     OW12064   2.589   3.226   2.063  0.8987  0.4161  0.7393
 3911SOL    HW112065   2.674   3.203   2.025  1.0328 -0.8151  1.7386
 3911SOL    HW212066   2.607   3.240   2.156  0.4239  2.5571  0.5398
 3912SOL     OW12067   5.556   2.094   4.248  0.1154 -0.2480 -0.1763
 3912SOL    HW112068   5.630   2.065   4.195  0.5032 -0.5387  0.5173
 3912SOL    HW212069   5.479   2.075   4.195  0.6067  1.2724 -1.4666
 3913SOL     OW12070   5.554   3.428   3.119 -1.0293 -0.8148 -0.4753
 3913SOL    HW112071   5.620   3.450   3.054 -0.0309 -1.2397  0.3810
 3913SOL    HW212072   5.492   3.501   3.115 -0.1820 -0.0954 -0.8604
 3914SOL     OW12073   0.219   0.090   2.053 -0.0599  0.3145  0.4309
 3914SOL    HW112074   0.249   0.137   2.131 -0.3012 -0.0113  0.7208
 3914SOL    HW212075   0.172   0.156   2.003  1.2000  0.8399 -0.0587
 3915SOL     OW12076   3.503   0.934   4.967 -0.0964  0.1869 -0.3152
 3915SOL    HW112077   3.452   0.949   4.888 -1.3135 -2.3948 -0.1010
 3915SOL    HW212078   3.504   1.018   5.012 -2.4583  0.7979 -1.3269
 3916SOL     OW12079   4.476   1.279   4.416 -0.4671  0.0410 -0.3716
 3916SOL    HW112080   4.569   1.259   4.428 -1.3804 -3.5501  1.7318
 3916SOL    HW212081   4.455   1.244   4.330 -0.0227  0.1778 -0.5338
 3917SOL     OW12082   4.480   2.750   3.538  0.6176 -0.4156  0.0496
 3917SOL    HW112083   4.436   2.831   3.565  1.1195 -0.0365 -0.2546
 3917SOL    HW212084   4.508   2.710   3.620  1.0047  0.0861  0.1671
 3918SOL     OW12085   0.796   2.970   5.144  0.5465 -0.5976  0.6591
 3918SOL    HW112086   0.867   3.033   5.159 -0.4890  0.3859  1.5432
 3918SOL    HW212087   0.749   3.004   5.068  0.4229 -0.6770  0.6998
 3919SOL     OW12088   0.473   0.830   4.115 -0.8841 -0.0385 -0.4800
 3919SOL    HW112089   0.467   0.837   4.020  0.8286 -2.3843 -0.8067
 3919SOL    HW212090   0.545   0.888   4.139  0.0140 -0.9835 -0.8594
 3920SOL     OW12091   5.114   3.727   2.690 -0.0856 -0.0596 -0.1320
 3920SOL    HW112092   5.028   3.769   2.698  0.0598 -0.0949  1.7468
 3920SOL    HW212093   5.131   3.691   2.777  1.0169 -1.6461 -0.9953
 3921SOL     OW12094   2.542   0.723   4.256  0.0041 -0.1507 -0.2377
 3921SOL    HW112095   2.541   0.708   4.162 -0.9589  0.4351 -0.3303
 3921SOL    HW212096   2.455   0.759   4.276 -0.0792 -0.9873  0.9930
 3922SOL     OW12097   1.661   3.486   5.033 -0.4040  0.5723 -0.0305
 3922SOL    HW112098   1.741   3.516   5.077 -0.2999  1.4861 -0.8098
 3922SOL    HW212099   1.590   3.527   5.081 -0.3780  0.2327  0.3008
 3923SOL     OW12100   5.556   0.455   5.418  0.1677  0.0516 -0.1158
 3923SOL    HW112101   5.561   0.538   5.369 -0.0372  0.1313  0.0030
 3923SOL    HW212102   5.586   0.478   5.506 -2.0370  0.4702  0.5363
 3924SOL     OW12103   2.703   0.193   0.208  0.2287 -0.1184 -0.4119
 3924SOL    HW112104   2.784   0.145   0.228  1.5619  1.5323 -1.7335
 3924SOL    HW212105   2.702   0.265   0.272 -1.9444 -2.0270  1.8006
 3925SOL     OW12106   3.976   1.636   0.337 -0.0807 -0.2328 -0.4282
 3925SOL    HW112107   4.064   1.669   0.317  0.1113 -0.3897  0.1365
 3925SOL    HW212108   3.948   1.685   0.414  0.1922 -1.3214  0.3924
 3926SOL     OW12109   4.618   0.379   2.254  0.6111  0.0660  0.3150
 3926SOL    HW112110   4.584   0.445   2.194  0.6224 -0.3068 -0.1063
 3926SOL    HW212111   4.639   0.428   2.334  1.0393  0.6542 -0.1439
 3927SOL     OW12112   2.213   4.204   1.710  0.2010  0.0140  0.6070
 3927SOL    HW112113   2.161   4.257   1.771 -0.5415 -0.4696  0.3960
 3927SOL    HW212114   2.149   4.166   1.650  0.9017  0.2194 -0.2754
 3928SOL     OW12115   3.215   5.245   0.136  0.2244 -0.3175 -0.2277
 3928SOL    HW112116   3.278   5.269   0.203 -1.0956  1.8885  0.2792
 3928SOL    HW212117   3.132   5.236   0.183 -0.1405 -1.7736 -1.1003
 3929SOL     OW12118   2.886   3.031   0.566  0.1816 -0.0805  0.8536
 3929SOL    HW112119   2.841   3.114   0.580 -0.0612 -0.2734  1.2323
 3929SOL    HW212120   2.825   2.978   0.514  1.3832  0.8953 -1.5945
 3930SOL     OW12121   4.470   0.039   0.328  0.3090  0.3713  0.3533
 3930SOL    HW112122   4.442   0.045   0.237  1.2100  0.4942  0.0769
 3930SOL    HW212123   4.417  -0.032   0.365 -2.4412  2.4769  0.6343
 3931SOL     OW12124   3.951   1.786   4.584  0.1175 -0.1603 -0.3532
 3931SOL    HW112125   3.872   1.812   4.631  1.0101  1.1737  0.4396
 3931SOL    HW212126   4.020   1.787   4.651  0.8810 -0.9032 -1.1183
 3932SOL     OW12127   5.365   5.526   1.387 -0.2817  0.0052 -0.5182
 3932SOL    HW112128   5.356   5.620   1.374  0.5334  0.1497 -0.0742
 3932SOL    HW212129   5.334   5.487   1.305 -0.0318  0.6898 -0.9372
 3933SOL     OW12130   4.854   0.466   5.319  0.1902 -0.0295 -0.3768
 3933SOL    HW112131   4.760   0.449   5.311  0.4290 -0.5626 -2.1731
 3933SOL    HW212132   4.868   0.480   5.413 -2.0778  2.4123 -0.3452
 3934SOL     OW12133   1.075   1.441   4.014  0.0122 -0.1006 -0.4131
 3934SOL    HW112134   1.054   1.356   3.977 -2.0177  0.4961 -0.7056
 3934SOL    HW212135   0.999   1.462   4.070  0.5905  1.4024 -0.1643
 3935SOL     OW12136   2.387   1.101   1.246 -0.0125 -0.0583 -0.3904
 3935SOL    HW112137   2.415   1.045   1.174 -0.2751 -0.1833 -0.3947
 3935SOL    HW212138   2.398   1.190   1.213 -1.6927 -0.1291 -1.1781
 3936SOL     OW12139   4.377   2.533   0.421 -0.6723  0.2937  0.1074
 3936SOL    HW112140   4.345   2.508   0.508  1.8964 -0.2357  0.9335
 3936SOL    HW212141   4.455   2.586   0.438 -0.5041  0.7399 -1.8847
 3937SOL     OW12142   0.631   2.426   3.250 -0.3447  0.5556  0.3026
 3937SOL    HW112143   0.552   2.397   3.205  0.4171 -0.6846 -0.2857
 3937SOL    HW212144   0.635   2.520   3.235 -3.4053  1.2146  3.0596
 3938SOL     OW12145   2.466   0.764   0.872 -0.1029  0.9047 -0.6277
 3938SOL    HW112146   2.497   0.829   0.935  2.0307 -0.2121 -0.4886
 3938SOL    HW212147   2.501   0.793   0.788 -1.3425  1.3385 -1.0097
 3939SOL     OW12148   4.117   1.475   1.665 -0.3833  0.2876  0.3563
 3939SOL    HW112149   4.142   1.563   1.692 -0.4878 -0.0076  1.4555
 3939SOL    HW212150   4.028   1.485   1.631  0.1184  0.8361 -0.8116
 3940SOL     OW12151   1.496   2.433   5.415 -0.4858 -0.4686 -0.3378
 3940SOL    HW112152   1.473   2.523   5.392  0.3049 -0.3744 -0.7660
 3940SOL    HW212153   1.460   2.380   5.344 -1.8500 -0.5879  0.4400
 3941SOL     OW12154   3.798   3.545   3.663  0.1189  0.4325 -0.3317
 3941SOL    HW112155   3.793   3.558   3.568  1.5837  1.2174 -0.3167
 3941SOL    HW212156   3.713   3.572   3.696 -0.2835  0.4764 -1.3824
 3942SOL     OW12157   4.617   1.511   0.607  0.4483 -0.5705 -0.0713
 3942SOL    HW112158   4.655   1.450   0.544  2.8687 -0.3814  1.1278
 3942SOL    HW212159   4.647   1.480   0.692  1.9507  2.3679  0.5510
 3943SOL     OW12160   3.316   4.072   1.848 -0.2689  0.2162  0.0323
 3943SOL    HW112161   3.300   4.091   1.941 -1.6993 -0.5201 -0.0605
 3943SOL    HW212162   3.397   4.021   1.849 -0.5802 -0.2783  0.9268
 3944SOL     OW12163   3.309   4.174   0.305  0.0121  0.4652 -0.2013
 3944SOL    HW112164   3.298   4.218   0.220  0.7911  0.9943 -0.0330
 3944SOL    HW212165   3.261   4.229   0.367  1.3755  1.3679  0.0908
 3945SOL     OW12166   4.163   2.912   2.944  0.0422 -0.4875  0.0201
 3945SOL    HW112167   4.250   2.904   2.982  0.9762  0.9109 -1.7274
 3945SOL    HW212168   4.158   3.003   2.913 -1.0066 -1.2628 -2.2730
 3946SOL     OW12169   5.340   2.941   4.203  0.0156 -0.9020  0.3532
 3946SOL    HW112170   5.286   2.932   4.125  0.9073 -0.3297 -0.3398
 3946SOL    HW212171   5.395   2.864   4.204  0.7374 -0.3953 -0.1601
 3947SOL     OW12172   0.208   3.117   2.635 -0.5008 -0.2011  0.6634
 3947SOL    HW112173   0.255   3.189   2.678  0.6679 -1.2189  1.1457
 3947SOL    HW212174   0.270   3.044   2.637 -0.9015 -0.6421 -1.6559
 3948SOL     OW12175   4.024   1.516   5.368  0.6317  0.2113  0.3163
 3948SOL    HW112176   4.041   1.423   5.351  1.3391  0.3942 -0.0076
 3948SOL    HW212177   4.031   1.525   5.463 -1.0738 -0.3779  0.5219
 3949SOL     OW12178   2.637   1.449   4.335 -0.2247  0.1409 -0.5707
 3949SOL    HW112179   2.595   1.376   4.289 -0.9402  0.6882 -0.7993
 3949SOL    HW212180   2.713   1.471   4.280  0.4695 -0.9640 -0.0631
 3950SOL     OW12181   3.041   1.927   2.399  0.0170  0.0052  0.1704
 3950SOL    HW112182   2.972   1.862   2.405  1.2787 -1.2734  1.0690
 3950SOL    HW212183   2.995   2.010   2.384 -1.5861 -1.0927 -1.1388
 3951SOL     OW12184   4.670   5.351   5.101  0.1430  0.0083  0.4263
 3951SOL    HW112185   4.697   5.263   5.127  1.0677  0.0855 -0.2137
 3951SOL    HW212186   4.593   5.370   5.153 -1.2756 -1.9833 -0.8804
 3952SOL     OW12187   0.678   1.268   1.872  0.3334  0.0856  0.2521
 3952SOL    HW112188   0.597   1.275   1.821  0.7789  0.8476 -0.3627
 3952SOL    HW212189   0.678   1.345   1.929  1.1523  0.6766 -0.5317
 3953SOL     OW12190   5.354   4.381   0.380  0.5254 -0.1612  0.0082
 3953SOL    HW112191   5.384   4.385   0.289 -1.4998 -0.7097 -0.7043
 3953SOL    HW212192   5.373   4.291   0.407  2.1717  0.3248  0.5123
 3954SOL     OW12193   1.805   5.104   1.284  0.2573  0.4452  0.0387
 3954SOL    HW112194   1.895   5.072   1.290  0.1127 -0.2229 -1.3947
 3954SOL    HW212195   1.798   5.167   1.356  1.2854 -0.9068  1.3500
 3955SOL     OW12196   3.346   4.269   0.024 -0.1165 -0.1982 -0.0317
 3955SOL    HW112197   3.371   4.322  -0.052 -0.5496 -1.4559 -1.0604
 3955SOL    HW212198   3.357   4.179  -0.004 -0.8974 -0.6912  1.1909
 3956SOL     OW12199   4.277   4.931   0.564  0.3228 -0.2156 -0.3266
 3956SOL    HW112200   4.366   4.895   0.571  0.1813 -0.7841 -1.3018
 3956SOL    HW212201   4.266   4.984   0.642  0.8148 -1.7362  0.8000
 3957SOL     OW12202   0.243   2.145   4.107 -0.0884 -0.0880  0.9744
 3957SOL    HW112203   0.287   2.097   4.177 -1.3424 -0.5691  1.4517
 3957SOL    HW212204   0.241   2.084   4.033 -1.7071 -0.8157  1.5899
 3958SOL     OW12205   4.523   1.572   4.761 -0.1999  0.3108  0.0758
 3958SOL    HW112206   4.449   1.588   4.702 -1.5228 -0.1351  1.5945
 3958SOL    HW212207   4.528   1.477   4.769 -0.7348  0.4021  1.5633
 3959SOL     OW12208   0.099   0.843   0.714  0.7852  0.4881 -0.2768
 3959SOL    HW112209   0.068   0.781   0.648 -0.9041 -0.2367  1.1540
 3959SOL    HW212210   0.176   0.800   0.753  1.1524  0.4518 -1.0294
 3960SOL     OW12211   5.175   0.626   1.791  0.1653 -0.6825  0.0533
 3960SOL    HW112212   5.131   0.710   1.784  0.4815 -0.5681 -0.5822
 3960SOL    HW212213   5.119   0.565   1.744  1.2215 -0.3244 -1.7082
 3961SOL     OW12214   1.276   3.425   3.409  0.7010 -0.3306 -0.1705
 3961SOL    HW112215   1.259   3.517   3.394  0.8172  0.1137  2.1911
 3961SOL    HW212216   1.368   3.421   3.436  0.3220 -0.9488  1.0853
 3962SOL     OW12217   4.274   3.390   2.531 -0.1551  0.0867  0.0408
 3962SOL    HW112218   4.353   3.369   2.581  0.2793 -0.1958 -0.7537
 3962SOL    HW212219   4.302   3.388   2.440 -1.5207 -2.0221 -0.3813
 3963SOL     OW12220   5.118   4.702   5.136 -0.2934 -0.6168 -0.2423
 3963SOL    HW112221   5.183   4.636   5.159  0.4836  0.7554  1.5792
 3963SOL    HW212222   5.137   4.722   5.044  0.5446 -1.6920 -0.3217
 3964SOL     OW12223   0.373   3.986   4.463 -0.1294  0.1874 -0.0745
 3964SOL    HW112224   0.381   3.944   4.548 -3.0462 -0.6405 -0.1605
 3964SOL    HW212225   0.413   3.924   4.402 -0.3813 -0.4033  0.3628
 3965SOL     OW12226   4.772   0.848   4.752 -0.4608 -0.3569 -0.4311
 3965SOL    HW112227   4.748   0.769   4.702 -2.1461 -0.3712  0.3671
 3965SOL    HW212228   4.695   0.866   4.806  0.7707  0.5277  1.0688
 3966SOL     OW12229   1.737   4.162   0.757  0.1715 -0.2099 -0.2244
 3966SOL    HW112230   1.709   4.248   0.788  0.7550  0.2359 -0.9017
 3966SOL    HW212231   1.673   4.101   0.794  0.4814  0.3718  1.3016
 3967SOL     OW12232   0.898   2.655   1.042 -1.1999  0.4470 -0.2079
 3967SOL    HW112233   0.917   2.748   1.057 -0.1220  0.2336 -0.2313
 3967SOL    HW212234   0.842   2.630   1.116  0.1786  0.6096  0.9037
 3968SOL     OW12235   2.203   1.228   1.931 -0.1022 -0.3800 -0.1578
 3968SOL    HW112236   2.149   1.210   1.855 -0.9235  0.9978  0.0805
 3968SOL    HW212237   2.284   1.178   1.916 -1.0312 -1.6562 -0.9856
 3969SOL     OW12238   1.472   0.237   3.574 -0.2158  0.0589 -0.1065
 3969SOL    HW112239   1.386   0.213   3.539  0.5448  0.6292 -2.4142
 3969SOL    HW212240   1.529   0.164   3.549  0.3704  0.5499 -0.1878
 3970SOL     OW12241   1.346   0.832   4.368  0.1411 -0.0543 -0.3838
 3970SOL    HW112242   1.310   0.745   4.358 -1.5201  0.7939 -2.1634
 3970SOL    HW212243   1.281   0.890   4.328  0.8174  2.0887  1.4894
 3971SOL     OW12244   3.329   3.098   4.570  0.1165 -0.0419 -0.0066
 3971SOL    HW112245   3.411   3.049   4.580  0.3464  0.1703 -0.7864
 3971SOL    HW212246   3.323   3.115   4.476 -0.1155  1.1712  0.2160
 3972SOL     OW12247   1.430   2.185   2.921  0.2206 -0.5734  0.1254
 3972SOL    HW112248   1.438   2.266   2.971 -0.8895  0.6709 -1.6839
 3972SOL    HW212249   1.519   2.148   2.921  1.1693  1.6390 -0.6883
 3973SOL     OW12250   0.467   2.725   0.015  0.1988 -0.6931 -0.5449
 3973SOL    HW112251   0.432   2.651   0.066  0.0507 -1.2114 -1.3948
 3973SOL    HW212252   0.417   2.724  -0.066 -1.3342  1.6924  0.3096
 3974SOL     OW12253   2.416   2.057   3.664  0.3824  0.1151 -0.1954
 3974SOL    HW112254   2.382   2.127   3.721  1.3159  0.0018  0.5140
 3974SOL    HW212255   2.487   2.098   3.615  1.2379 -0.4412  0.5538
 3975SOL     OW12256   2.195   4.471   2.181  0.0535  0.7019  0.0631
 3975SOL    HW112257   2.114   4.465   2.232 -0.4536  3.6636 -0.2886
 3975SOL    HW212258   2.264   4.447   2.243 -0.8344  1.2031  1.2733
 3976SOL     OW12259   3.578   3.420   5.227 -0.0853 -0.0406 -0.0399
 3976SOL    HW112260   3.492   3.460   5.219  1.0043  1.9220 -2.8879
 3976SOL    HW212261   3.638   3.484   5.188  2.3884 -2.2417 -0.0072
 3977SOL     OW12262   0.440   1.613   3.629 -0.3349  0.4814  0.5064
 3977SOL    HW112263   0.472   1.703   3.632 -1.5962  0.9647 -0.2279
 3977SOL    HW212264   0.468   1.581   3.544 -0.4564  0.3992  0.4976
 3978SOL     OW12265   2.704   2.556   3.769 -0.0016 -0.0875 -0.2504
 3978SOL    HW112266   2.627   2.594   3.727  0.4689 -0.1221 -1.1495
 3978SOL    HW212267   2.761   2.631   3.787  0.2191 -0.1830 -0.5515
 3979SOL     OW12268   0.866   2.367   2.417 -0.0142 -0.0489 -0.6331
 3979SOL    HW112269   0.794   2.360   2.479  0.5740 -0.5504 -0.0021
 3979SOL    HW212270   0.896   2.277   2.405  2.0638  0.3993  0.9516
 3980SOL     OW12271   5.022   0.124   4.091  0.3626 -0.0484  0.2245
 3980SOL    HW112272   5.087   0.159   4.152  0.3562  2.3543 -1.0704
 3980SOL    HW212273   5.074   0.082   4.022  0.5337  0.5928 -0.0513
 3981SOL     OW12274   5.050   3.310   1.424 -0.6501 -0.4533  0.3880
 3981SOL    HW112275   5.118   3.373   1.447 -0.3106 -0.9651  0.8057
 3981SOL    HW212276   4.983   3.320   1.492 -0.4202 -0.8054  0.6667
 3982SOL     OW12277   0.244   5.396   3.619  0.2038  0.1193 -0.4606
 3982SOL    HW112278   0.265   5.309   3.585  0.4435  0.1956 -0.5086
 3982SOL    HW212279   0.255   5.388   3.714  1.7896  0.5195 -0.5966
 3983SOL     OW12280   0.693   1.191   4.093  0.1355 -0.0215 -0.4742
 3983SOL    HW112281   0.605   1.192   4.130  0.8125 -0.5422  1.1605
 3983SOL    HW212282   0.744   1.134   4.150  1.3874 -0.2705 -1.7883
 3984SOL     OW12283   3.216   0.871   2.218 -0.4188 -0.1652  0.0617
 3984SOL    HW112284   3.195   0.848   2.127 -2.6194  0.0116  0.4789
 3984SOL    HW212285   3.176   0.957   2.231  0.5381  0.1586  0.9819
 3985SOL     OW12286   2.579   4.120   2.518  0.1068 -0.0991 -0.6768
 3985SOL    HW112287   2.624   4.093   2.439  0.8694  0.3373 -0.3948
 3985SOL    HW212288   2.493   4.149   2.488  1.2047  2.3178 -1.6645
 3986SOL     OW12289   3.879   4.659   1.503  0.7438  0.3485  0.0063
 3986SOL    HW112290   3.936   4.684   1.576  0.1225 -1.2717  1.0719
 3986SOL    HW212291   3.793   4.694   1.527  0.3605 -0.8944  0.4337
 3987SOL     OW12292   2.947   3.821   0.759  0.8741 -0.7381  0.1675
 3987SOL    HW112293   2.928   3.869   0.840 -0.9889 -1.1106 -0.0221
 3987SOL    HW212294   3.010   3.876   0.713 -1.7039  1.9295 -0.3544
 3988SOL     OW12295   1.186   0.798   1.342  0.2209  0.4212  0.2022
 3988SOL    HW112296   1.137   0.876   1.368  1.9343  1.1455  1.3284
 3988SOL    HW212297   1.238   0.826   1.267 -1.7967 -0.6299 -1.6609
 3989SOL     OW12298   4.677   2.633   4.040  0.3063  0.6665  0.8127
 3989SOL    HW112299   4.740   2.587   3.983 -0.5679  0.5012 -0.0406
 3989SOL    HW212300   4.623   2.563   4.077  1.1459  0.7361  2.2158
 3990SOL     OW12301   3.215   5.161   0.964 -0.0801  0.8005  0.3165
 3990SOL    HW112302   3.220   5.081   0.912  0.8299 -1.4829  3.7755
 3990SOL    HW212303   3.125   5.191   0.955 -0.1458  0.0254 -1.8673
 3991SOL     OW12304   1.036   2.020   1.833  0.4322  0.0999 -0.0014
 3991SOL    HW112305   1.021   2.104   1.875 -1.2070 -0.2554  0.1622
 3991SOL    HW212306   0.982   1.958   1.882  1.9333 -1.1207  0.1263
 3992SOL     OW12307   4.657   1.854   1.271 -0.1736  0.2892  0.3057
 3992SOL    HW112308   4.630   1.813   1.188  2.4060 -1.3839  0.2402
 3992SOL    HW212309   4.724   1.917   1.246 -0.7166  1.1208  0.9388
 3993SOL     OW12310   0.082   0.327   1.647 -0.2975 -0.0530  0.4030
 3993SOL    HW112311   0.099   0.396   1.583 -1.5711 -0.3673 -0.2963
 3993SOL    HW212312   0.145   0.259   1.626  0.8004  0.7819  0.9360
 3994SOL     OW12313   4.720   3.312   3.272  0.4269 -0.2718 -0.3317
 3994SOL    HW112314   4.726   3.217   3.264 -1.7350 -0.4917  0.3615
 3994SOL    HW212315   4.724   3.329   3.366  1.7751  0.4210 -0.4953
 3995SOL     OW12316   4.398   0.915   1.152  0.1194 -0.2298  0.6497
 3995SOL    HW112317   4.325   0.967   1.117 -1.1508 -1.3975  1.5320
 3995SOL    HW212318   4.465   0.980   1.175 -1.0910  0.9515  0.8879
 3996SOL     OW12319   3.662   1.375   2.702  0.0668 -0.0693 -0.5518
 3996SOL    HW112320   3.601   1.448   2.701  1.4525  1.1227 -0.0589
 3996SOL    HW212321   3.741   1.410   2.744 -0.1671 -2.5868  2.1624
 3997SOL     OW12322   2.557   5.276   1.340  0.4967 -0.2350 -0.2093
 3997SOL    HW112323   2.574   5.194   1.294  0.6752 -0.5272  0.3692
 3997SOL    HW212324   2.523   5.335   1.273 -2.0592 -1.5539 -0.1415
 3998SOL     OW12325   3.231   5.523   3.762 -0.4658 -0.3343 -0.4282
 3998SOL    HW112326   3.327   5.520   3.757 -0.5135  0.6273 -2.2847
 3998SOL    HW212327   3.213   5.556   3.850  0.9218  0.2229 -0.3424
 3999SOL     OW12328   5.267   2.293   5.134 -0.0005  0.0745 -0.0092
 3999SOL    HW112329   5.184   2.265   5.095 -0.0588  1.6000 -1.0105
 3999SOL    HW212330   5.254   2.280   5.228 -1.7563  1.2187 -0.0671
 4000SOL     OW12331   5.379   3.569   0.544 -0.1031  0.2004 -0.4441
 4000SOL    HW112332   5.290   3.598   0.525 -0.1910  0.6611  0.6239
 4000SOL    HW212333   5.387   3.485   0.499 -1.7210 -0.7640  0.9970
 4001SOL     OW12334   1.838   3.807   0.923 -0.3098 -0.8511 -0.9120
 4001SOL    HW112335   1.925   3.807   0.964 -0.9372 -1.9594  0.4756
 4001SOL    HW212336   1.787   3.870   0.975 -0.3545 -0.2540 -1.6783
 4002SOL     OW12337   1.812   0.504   2.370 -0.3442 -0.4018 -0.3705
 4002SOL    HW112338   1.879   0.548   2.423 -1.8452  0.1619  1.1138
 4002SOL    HW212339   1.845   0.415   2.359 -0.3932 -0.8026  2.3139
 4003SOL     OW12340   0.318   1.691   0.998 -0.1794 -0.2267 -0.2304
 4003SOL    HW112341   0.254   1.636   0.953 -0.4819  1.1753 -1.5655
 4003SOL    HW212342   0.377   1.720   0.928 -0.2696  1.4721  0.3746
 4004SOL     OW12343   1.075   2.130   3.555  0.3427  0.3418  0.4620
 4004SOL    HW112344   0.983   2.117   3.578  0.6347 -0.1535  1.3505
 4004SOL    HW212345   1.072   2.172   3.468 -0.7197  0.5962  0.6133
 4005SOL     OW12346   0.343   2.500   2.091  0.0712  0.0438 -0.0476
 4005SOL    HW112347   0.438   2.511   2.098 -0.0205  0.2479  0.9466
 4005SOL    HW212348   0.307   2.563   2.152 -0.7133  0.0099 -0.4688
 4006SOL     OW12349   2.702   1.476   2.987  0.7831 -0.1502 -0.2193
 4006SOL    HW112350   2.710   1.453   2.894  0.4726 -1.6465  0.1003
 4006SOL    HW212351   2.715   1.392   3.033  0.3317  0.4695  1.0548
 4007SOL     OW12352   3.266   2.102   1.967  0.4774 -0.1217  0.4013
 4007SOL    HW112353   3.353   2.121   2.000  1.2323  2.0149 -2.6385
 4007SOL    HW212354   3.208   2.160   2.016  1.1849  0.7870  0.1657
 4008SOL     OW12355   4.083   1.282   3.536  0.3450  0.1656  0.2291
 4008SOL    HW112356   4.146   1.231   3.486 -0.4687  0.3918 -1.0430
 4008SOL    HW212357   4.011   1.222   3.553  0.4513  0.2002  0.8228
 4009SOL     OW12358   3.227   4.506   0.668  0.2207  0.3321  0.5723
 4009SOL    HW112359   3.208   4.586   0.718  0.0712  0.6213  0.0558
 4009SOL    HW212360   3.157   4.501   0.604 -0.4959 -0.9179  1.4309
 4010SOL     OW12361   4.352   5.107   3.952 -0.0984 -0.2842 -0.1377
 4010SOL    HW112362   4.369   5.173   4.019  2.3352 -0.3591 -0.6379
 4010SOL    HW212363   4.439   5.077   3.925 -1.0643 -0.9429 -2.6534
 4011SOL     OW12364   1.727   3.859   5.069 -0.2850 -1.0357  0.1199
 4011SOL    HW112365   1.741   3.836   4.977  1.0415 -0.6436  0.2188
 4011SOL    HW212366   1.750   3.952   5.074 -0.4770 -1.0228  0.8280
 4012SOL     OW12367   1.592   2.654   1.797  0.1599  0.3605  0.1838
 4012SOL    HW112368   1.512   2.707   1.793 -0.1101 -0.1437 -1.8271
 4012SOL    HW212369   1.655   2.711   1.841 -0.3219  2.1532 -1.3220
 4013SOL     OW12370   3.970   2.585   4.240 -0.2965 -0.6235 -0.3964
 4013SOL    HW112371   3.970   2.494   4.270  0.3521 -0.5584 -0.2032
 4013SOL    HW212372   4.052   2.595   4.193  0.2171  0.2040  0.6439
 4014SOL     OW12373   3.784   0.368   0.446  0.3540  0.1268  0.6423
 4014SOL    HW112374   3.723   0.441   0.432 -0.7921 -0.9991 -0.4855
 4014SOL    HW212375   3.752   0.325   0.525  0.0595 -0.0775  0.4161
 4015SOL     OW12376   5.179   5.160   2.647 -0.1484 -0.1566 -0.1668
 4015SOL    HW112377   5.218   5.160   2.559 -0.4768 -0.0001 -0.3167
 4015SOL    HW212378   5.168   5.253   2.668 -3.0324 -0.1646 -1.3211
 4016SOL     OW12379   5.354   3.795   1.414  0.1224 -0.1960  0.4359
 4016SOL    HW112380   5.420   3.840   1.466  0.1057 -0.2842  0.5329
 4016SOL    HW212381   5.356   3.839   1.329  1.0149 -0.8695  0.1078
 4017SOL     OW12382   5.072   3.007   3.363 -0.4267  0.2631 -0.1214
 4017SOL    HW112383   4.986   3.034   3.330 -0.5574  0.1295  0.1132
 4017SOL    HW212384   5.052   2.951   3.438 -0.1861 -1.0405 -0.9970
 4018SOL     OW12385   4.186   0.661   0.933  0.6538  0.0376  0.2075
 4018SOL    HW112386   4.197   0.599   0.861  2.2949 -0.6892  1.0586
 4018SOL    HW212387   4.212   0.612   1.011 -1.8350  0.5871  1.4073
 4019SOL     OW12388   2.982   5.394   1.400 -0.3894 -0.4473 -0.1982
 4019SOL    HW112389   3.027   5.416   1.318 -0.4060 -0.5061 -0.2231
 4019SOL    HW212390   2.922   5.324   1.377  0.0460 -0.8854 -0.0130
 4020SOL     OW12391   3.100   1.542   5.354 -0.3433  0.1418 -0.2672
 4020SOL    HW112392   3.038   1.490   5.302  0.8274 -2.3580  0.7371
 4020SOL    HW212393   3.165   1.572   5.291 -0.0619 -1.1432 -0.6066
 4021SOL     OW12394   5.561   1.327   1.981 -0.2068  0.1212  0.0879
 4021SOL    HW112395   5.550   1.273   1.903  0.8191  0.8151 -0.5314
 4021SOL    HW212396   5.653   1.354   1.980  0.2089 -1.0454  2.2847
 4022SOL     OW12397   1.986   2.492   5.427 -0.0072 -0.0001  0.0916
 4022SOL    HW112398   2.013   2.533   5.509 -0.6428 -1.1642  0.8933
 4022SOL    HW212399   1.908   2.441   5.450  1.0124 -2.0061 -0.7870
 4023SOL     OW12400   4.217   3.263   3.223  0.2302  0.2188  0.0618
 4023SOL    HW112401   4.128   3.248   3.193  0.8751 -1.0548 -1.3026
 4023SOL    HW212402   4.271   3.208   3.165  1.9355  1.4336  0.4618
 4024SOL     OW12403   1.275   1.909   3.511 -0.1266 -0.6724  0.3225
 4024SOL    HW112404   1.244   1.898   3.422  0.1746  0.9259  0.0041
 4024SOL    HW212405   1.196   1.928   3.562  0.1559  3.0564 -0.4327
 4025SOL     OW12406   4.185   1.776   2.668  0.1539 -0.4128  0.2497
 4025SOL    HW112407   4.134   1.708   2.714  2.1278 -0.0623  3.0780
 4025SOL    HW212408   4.161   1.857   2.713 -0.9746  0.5970 -2.0844
 4026SOL     OW12409   0.643   1.800   0.820  0.0993  0.1348  0.3168
 4026SOL    HW112410   0.706   1.871   0.812  1.6853 -1.2184  0.3886
 4026SOL    HW212411   0.566   1.830   0.773  1.0977  1.4947 -0.4718
 4027SOL     OW12412   4.275   2.405   2.665 -0.1567 -0.4558  0.1918
 4027SOL    HW112413   4.288   2.430   2.756 -2.1899 -0.9149  0.6166
 4027SOL    HW212414   4.358   2.364   2.640  0.3969 -0.3825  1.8404
 4028SOL     OW12415   2.659   2.498   0.206  0.2170 -0.0252 -0.0246
 4028SOL    HW112416   2.609   2.446   0.142 -1.2872  2.0945 -0.6332
 4028SOL    HW212417   2.740   2.518   0.161 -0.6018  0.9765 -1.0886
 4029SOL     OW12418   2.886   5.137   4.213  0.2422  0.3952 -0.3348
 4029SOL    HW112419   2.937   5.213   4.183 -0.2829  0.9608  0.2207
 4029SOL    HW212420   2.795   5.167   4.212 -0.1167 -0.6925 -1.5545
 4030SOL     OW12421   0.929   4.059   1.513  0.3988 -0.3228 -0.4486
 4030SOL    HW112422   0.917   3.976   1.466  0.3056 -0.5609 -0.0147
 4030SOL    HW212423   0.854   4.063   1.573 -0.8045  1.1555 -2.0380
 4031SOL     OW12424   4.385   1.828   0.008  0.1860 -0.2487  0.0795
 4031SOL    HW112425   4.355   1.739  -0.009  0.5246  0.1650 -2.8751
 4031SOL    HW212426   4.449   1.819   0.079  1.1319 -2.5175 -1.0311
 4032SOL     OW12427   4.938   4.426   2.912  0.1355  0.6307 -0.0424
 4032SOL    HW112428   4.844   4.427   2.895  0.0277  1.9820  0.5516
 4032SOL    HW212429   4.964   4.518   2.910  1.0583  0.4379  1.8387
 4033SOL     OW12430   1.326   3.160   3.753  0.0559 -0.0621 -0.1855
 4033SOL    HW112431   1.330   3.222   3.826 -1.1867 -0.5635  0.3197
 4033SOL    HW212432   1.362   3.079   3.789 -0.9834 -0.4390  0.0170
 4034SOL     OW12433   2.620   4.288   4.541 -0.0358 -0.2144 -0.0529
 4034SOL    HW112434   2.645   4.370   4.498  0.2067 -0.7618 -0.9868
 4034SOL    HW212435   2.648   4.220   4.480 -1.5324 -0.9408  0.0283
 4035SOL     OW12436   1.322   0.900   1.591 -0.3186 -0.3194 -0.2654
 4035SOL    HW112437   1.412   0.870   1.602  0.0101  0.6604 -0.2583
 4035SOL    HW212438   1.296   0.867   1.505 -0.4814 -1.8994  0.3579
 4036SOL     OW12439   5.410   3.063   3.614  0.5429 -0.0917  0.2677
 4036SOL    HW112440   5.474   3.053   3.685 -0.6656  0.3981  1.4650
 4036SOL    HW212441   5.325   3.062   3.659 -0.3358 -1.7101 -1.3944
 4037SOL     OW12442   2.396   1.349   1.105 -0.0391  0.0704  1.1035
 4037SOL    HW112443   2.340   1.414   1.146  1.4414  4.0024 -2.7706
 4037SOL    HW212444   2.345   1.315   1.032  0.7341 -0.0557  0.6125
 4038SOL     OW12445   1.817   5.290   0.250 -0.7835 -0.2536  1.1564
 4038SOL    HW112446   1.796   5.218   0.310 -0.5573 -0.2778  1.2097
 4038SOL    HW212447   1.733   5.329   0.228 -1.0832 -1.5517 -0.1515
 4039SOL     OW12448   4.425   2.338   2.046 -0.2999 -0.0654 -0.1864
 4039SOL    HW112449   4.404   2.291   1.965 -0.1316 -0.7621  0.1666
 4039SOL    HW212450   4.496   2.287   2.086 -0.0468  0.5488  0.1564
 4040SOL     OW12451   0.899   1.505   0.004  0.3414  0.8535  0.0662
 4040SOL    HW112452   0.873   1.414  -0.006 -3.2172  1.6970  0.9248
 4040SOL    HW212453   0.934   1.511   0.093  1.5981  0.1448 -0.3610
 4041SOL     OW12454   2.211   1.640   3.469 -0.1692  0.3593  0.3355
 4041SOL    HW112455   2.270   1.713   3.488  0.8402 -0.7541  1.5559
 4041SOL    HW212456   2.231   1.575   3.536 -0.6328 -1.2825 -1.1000
 4042SOL     OW12457   3.862   0.724   2.441  0.3257  0.4044 -0.1307
 4042SOL    HW112458   3.842   0.781   2.515 -1.1012  0.6376 -0.6735
 4042SOL    HW212459   3.913   0.779   2.382  0.3794  0.6046  0.1000
 4043SOL     OW12460   2.360   1.781   2.127  0.2271  0.3056 -0.3612
 4043SOL    HW112461   2.280   1.746   2.166  1.2508 -0.0816  1.4402
 4043SOL    HW212462   2.369   1.868   2.165  0.5828  0.4166 -0.6973
 4044SOL     OW12463   1.652   1.982   4.982 -0.7965  0.4603 -0.1232
 4044SOL    HW112464   1.618   1.969   4.894  1.0616  0.9366 -0.9357
 4044SOL    HW212465   1.722   1.917   4.991 -2.0775 -0.7355  1.6387
 4045SOL     OW12466   3.065   2.535   1.188  0.3223  0.4944  0.5870
 4045SOL    HW112467   3.142   2.501   1.142 -0.0045  2.0980 -1.2234
 4045SOL    HW212468   3.099   2.608   1.240  0.2635  0.2246  1.0138
 4046SOL     OW12469   2.191   1.016   4.705  0.5822  0.1989 -0.4199
 4046SOL    HW112470   2.177   1.052   4.793 -1.2718  0.5619 -0.8523
 4046SOL    HW212471   2.230   1.088   4.656  1.5758  0.0118  0.0729
 4047SOL     OW12472   5.401   0.379   3.965 -0.0008 -0.3661  0.2102
 4047SOL    HW112473   5.471   0.411   4.022 -2.0360 -0.4118  2.8733
 4047SOL    HW212474   5.415   0.285   3.960  0.7835 -0.2322 -0.2325
 4048SOL     OW12475   4.097   2.564   5.332  0.3720 -0.0396 -0.3159
 4048SOL    HW112476   4.117   2.514   5.412  0.0549 -3.3394 -2.2224
 4048SOL    HW212477   4.172   2.547   5.274 -0.2104  0.9611 -1.3881
 4049SOL     OW12478   3.422   2.722   5.478  0.1524 -0.2428  0.0676
 4049SOL    HW112479   3.484   2.741   5.549 -0.0653  0.7712 -0.0028
 4049SOL    HW212480   3.475   2.677   5.412  0.4669 -0.7565  0.6618
 4050SOL     OW12481   1.995   1.095   4.356  0.0844  0.1970  0.0882
 4050SOL    HW112482   1.975   1.124   4.267 -0.9200  1.6377  0.7563
 4050SOL    HW212483   1.957   1.163   4.412 -0.6197 -1.4621  1.6630
 4051SOL     OW12484   1.687   1.378   3.131  0.4516  0.0767 -0.4111
 4051SOL    HW112485   1.704   1.455   3.185  0.7713  0.5815 -1.2183
 4051SOL    HW212486   1.596   1.388   3.104  0.4188  0.0472 -0.3104
 4052SOL     OW12487   5.153   4.518   2.288  0.1901  0.3800  0.2643
 4052SOL    HW112488   5.213   4.550   2.356  0.7531  0.4138 -0.2436
 4052SOL    HW212489   5.147   4.590   2.225  0.8646 -0.2125 -0.4973
 4053SOL     OW12490   2.651   0.945   3.658  0.2136  0.3779  0.2716
 4053SOL    HW112491   2.687   0.989   3.735 -0.2482 -0.7079  1.1383
 4053SOL    HW212492   2.574   0.997   3.634 -0.4654 -0.0685  1.4262
 4054SOL     OW12493   0.953   0.821   1.534  0.6589  0.1632  0.0182
 4054SOL    HW112494   1.000   0.903   1.519  0.9460 -0.1434 -0.7472
 4054SOL    HW212495   0.929   0.824   1.627 -1.0341  2.0176 -0.4222
 4055SOL     OW12496   0.330   3.051   3.913  0.3231 -0.0402  0.0705
 4055SOL    HW112497   0.411   3.050   3.963  1.7716 -1.7098 -2.2209
 4055SOL    HW212498   0.280   2.977   3.946 -1.2704  2.2373  2.9665
 4056SOL     OW12499   5.228   1.799   0.124 -0.0744  0.0674 -0.0051
 4056SOL    HW112500   5.260   1.798   0.034 -1.0413 -0.0518 -0.3553
 4056SOL    HW212501   5.173   1.877   0.129 -0.3386 -0.1385  0.3693
 4057SOL     OW12502   1.822   0.174   1.059 -0.2278 -0.1581 -0.4501
 4057SOL    HW112503   1.814   0.100   0.998 -1.1199  0.0157 -0.5439
 4057SOL    HW212504   1.755   0.158   1.125  0.5607 -0.1987  0.3415
 4058SOL     OW12505   2.582   4.614   2.167  0.2339  0.2058 -0.7627
 4058SOL    HW112506   2.663   4.610   2.116 -0.1409 -1.1062 -1.2812
 4058SOL    HW212507   2.555   4.523   2.177  0.4202  0.4086  2.0112
 4059SOL     OW12508   4.486   5.558   2.775  0.7293 -0.5482  0.0153
 4059SOL    HW112509   4.521   5.601   2.854  0.7345  1.0821 -0.8380
 4059SOL    HW212510   4.527   5.472   2.775  1.5263 -0.1959  1.2629
 4060SOL     OW12511   2.265   5.154   5.198 -0.4880 -0.3000  0.3341
 4060SOL    HW112512   2.177   5.143   5.236 -0.3761 -2.1024  0.1194
 4060SOL    HW212513   2.270   5.086   5.131  1.0833 -0.2001  0.3475
 4061SOL     OW12514   3.995   0.547   3.308 -0.3783  0.4308 -0.0425
 4061SOL    HW112515   3.985   0.568   3.215 -0.9177  0.5797  0.0473
 4061SOL    HW212516   4.012   0.453   3.310  0.5525  0.5856 -0.3493
 4062SOL     OW12517   0.145   5.118   1.213 -0.0066 -0.4840 -0.2444
 4062SOL    HW112518   0.142   5.032   1.171 -1.2652 -0.3064 -0.5478
 4062SOL    HW212519   0.093   5.107   1.293 -0.4885  0.0895 -0.4759
 4063SOL     OW12520   1.198   0.684   1.728  0.0457  0.3240 -0.7895
 4063SOL    HW112521   1.201   0.761   1.671 -0.9054  1.2702  0.4119
 4063SOL    HW212522   1.246   0.617   1.680  0.8894  1.6648 -1.8545
 4064SOL     OW12523   1.904   3.618   3.693  0.1332  0.7042  0.3934
 4064SOL    HW112524   1.975   3.579   3.643  1.9850  1.1808  2.5154
 4064SOL    HW212525   1.900   3.709   3.662  0.6785  0.7532  0.4511
 4065SOL     OW12526   1.204   4.033   3.719  0.6114 -0.2392 -0.3810
 4065SOL    HW112527   1.275   3.971   3.732  0.7154  0.0021  0.2023
 4065SOL    HW212528   1.165   4.045   3.806 -0.7365 -1.0913 -0.8486
 4066SOL     OW12529   5.155   2.436   1.477  0.8224 -0.0038 -0.3830
 4066SOL    HW112530   5.153   2.478   1.563  0.9039  0.9784 -0.8525
 4066SOL    HW212531   5.063   2.432   1.450  1.0380  2.8086 -1.7221
 4067SOL     OW12532   1.972   2.274   0.247  0.7202 -0.1128 -0.2025
 4067SOL    HW112533   1.999   2.362   0.221 -1.1208  0.2629 -0.9045
 4067SOL    HW212534   1.927   2.287   0.330  0.4424 -0.3973 -0.3094
 4068SOL     OW12535   4.661   1.789   4.700  0.1310 -0.5589 -0.6850
 4068SOL    HW112536   4.643   1.811   4.791  0.6005  0.7740 -0.9071
 4068SOL    HW212537   4.633   1.697   4.692 -0.9451 -0.3530  0.4951
 4069SOL     OW12538   1.800   0.478   0.129  0.4134  0.5922  0.0082
 4069SOL    HW112539   1.819   0.534   0.054 -0.5348  1.5096  0.4345
 4069SOL    HW212540   1.707   0.455   0.119  1.3381 -2.8136 -1.3908
 4070SOL     OW12541   2.353   0.169   4.189  0.0468 -0.5322  0.2056
 4070SOL    HW112542   2.303   0.088   4.197 -0.3403 -0.2660  0.5387
 4070SOL    HW212543   2.384   0.187   4.278  0.3791 -0.4731  0.0789
 4071SOL     OW12544   4.907   1.820   5.425  0.5133 -0.5318  0.0193
 4071SOL    HW112545   4.883   1.763   5.352  1.4086  0.7355 -1.2843
 4071SOL    HW212546   4.928   1.904   5.384  0.5201  0.3469  1.7871
 4072SOL     OW12547   4.093   4.347   5.338  0.2545 -0.2627 -0.0320
 4072SOL    HW112548   4.081   4.252   5.335  2.1839 -0.5058 -0.1964
 4072SOL    HW212549   4.119   4.365   5.428 -1.2318  0.2663  0.3102
 4073SOL     OW12550   5.297   4.221   5.506  0.1053 -0.0560 -0.0137
 4073SOL    HW112551   5.325   4.287   5.443  0.0081 -1.1871 -1.2442
 4073SOL    HW212552   5.265   4.148   5.453 -1.2591 -0.4790  1.3367
 4074SOL     OW12553   4.908   0.699   2.105  1.0195  0.1530  0.4397
 4074SOL    HW112554   4.951   0.625   2.063  2.4600  1.9166 -1.3085
 4074SOL    HW212555   4.893   0.761   2.034  1.7761  2.4140  2.1793
 4075SOL     OW12556   2.015   3.181   0.100 -0.5048 -0.1723  0.1176
 4075SOL    HW112557   2.004   3.188   0.195 -0.6086 -1.7955  0.2269
 4075SOL    HW212558   2.029   3.088   0.084  1.8831  0.4050 -1.2366
 4076SOL     OW12559   4.841   2.261   1.019  0.2047 -0.4331 -0.0623
 4076SOL    HW112560   4.764   2.313   0.998  1.1422  0.9785 -0.0548
 4076SOL    HW212561   4.869   2.223   0.936 -0.5610 -1.0487 -0.0420
 4077SOL     OW12562   1.240   4.944   4.073 -0.1532 -0.7470  0.0519
 4077SOL    HW112563   1.292   4.904   4.003 -0.1737  0.4897 -0.6884
 4077SOL    HW212564   1.266   5.036   4.071 -0.2805 -0.6706  1.5675
 4078SOL     OW12565   4.970   0.848   3.269  0.1907 -0.3433  0.5758
 4078SOL    HW112566   4.953   0.804   3.352  1.7618  1.0242  1.6456
 4078SOL    HW212567   5.061   0.827   3.248 -0.0785 -0.3869 -0.6375
 4079SOL     OW12568   1.114   5.353   3.180 -0.0865  0.0819  0.1020
 4079SOL    HW112569   1.210   5.355   3.186 -0.1164 -0.3046  0.7850
 4079SOL    HW212570   1.096   5.323   3.091  0.4238  2.1200 -0.7158
 4080SOL     OW12571   3.914   4.529   2.596  0.0354 -0.1164 -0.2710
 4080SOL    HW112572   3.973   4.454   2.596 -1.0263 -0.9900 -1.2651
 4080SOL    HW212573   3.971   4.606   2.598  1.1256 -0.9544  1.2417
 4081SOL     OW12574   3.880   4.041   2.199  0.6048 -0.0646 -0.0670
 4081SOL    HW112575   3.790   4.012   2.213  0.4942 -0.1057 -0.8514
 4081SOL    HW212576   3.893   4.036   2.104  0.0118  4.1462 -0.4644
 4082SOL     OW12577   0.697   0.483   4.599  0.0982  0.2867  0.0065
 4082SOL    HW112578   0.631   0.447   4.658  0.9514  3.7077  3.2011
 4082SOL    HW212579   0.653   0.557   4.557  0.8457  0.4584 -0.4811
 4083SOL     OW12580   2.141   0.077   2.848  0.1697  0.3239 -0.3043
 4083SOL    HW112581   2.075   0.132   2.889  0.3057  0.4022 -0.1904
 4083SOL    HW212582   2.100  -0.010   2.844 -0.4169  0.6411 -1.3822
 4084SOL     OW12583   0.467   1.959   3.117 -0.1665 -0.2498  0.0598
 4084SOL    HW112584   0.472   1.883   3.175 -1.6030 -1.2179 -1.0477
 4084SOL    HW212585   0.554   1.963   3.077  0.5839 -0.0474  1.6575
 4085SOL     OW12586   0.451   0.376   1.476  0.4415  0.1823  0.1880
 4085SOL    HW112587   0.447   0.280   1.470  2.2915  0.1962 -1.9540
 4085SOL    HW212588   0.524   0.393   1.536  1.8039  0.2370 -1.4500
 4086SOL     OW12589   1.439   3.434   0.101  0.2784  0.2502  0.5812
 4086SOL    HW112590   1.411   3.505   0.159 -0.1649  0.0633  0.5979
 4086SOL    HW212591   1.463   3.478   0.019 -2.0671  0.2413 -0.1581
 4087SOL     OW12592   3.851   3.158   2.080 -0.2941 -0.0927 -0.0396
 4087SOL    HW112593   3.797   3.079   2.082 -0.0001 -0.2849  0.5155
 4087SOL    HW212594   3.861   3.183   2.172 -0.3619  0.5752 -0.2131
 4088SOL     OW12595   0.834   0.759   2.110 -0.4692 -0.6301 -0.1169
 4088SOL    HW112596   0.908   0.780   2.168 -1.6498 -2.1328  1.9707
 4088SOL    HW212597   0.799   0.845   2.085  1.5185  0.0934 -0.5644
 4089SOL     OW12598   4.198   1.063   1.511  0.2774  0.3147  0.2376
 4089SOL    HW112599   4.253   0.986   1.511  0.3269  0.3300  1.8436
 4089SOL    HW212600   4.133   1.047   1.442  1.7347 -0.0828 -1.0498
 4090SOL     OW12601   1.078   3.134   1.962 -0.0159 -0.1807 -0.1712
 4090SOL    HW112602   1.171   3.131   1.937  0.0206 -1.0948  0.0367
 4090SOL    HW212603   1.033   3.091   1.889 -0.1917 -0.4216  0.0773
 4091SOL     OW12604   4.312   0.251   5.412 -0.1190  0.1797  0.3672
 4091SOL    HW112605   4.222   0.261   5.444  0.3496  4.5823  0.6453
 4091SOL    HW212606   4.301   0.225   5.320 -1.5613 -2.9114  1.3473
 4092SOL     OW12607   5.107   5.254   4.332  0.8263  0.2997  0.7367
 4092SOL    HW112608   5.145   5.196   4.397 -0.5213  0.0541  1.3204
 4092SOL    HW212609   5.049   5.312   4.382  0.5542  0.7700 -0.1064
 4093SOL     OW12610   1.713   3.010   3.856  0.1587 -0.3456 -0.7310
 4093SOL    HW112611   1.714   2.947   3.783  0.2209 -1.1316 -0.0545
 4093SOL    HW212612   1.629   2.996   3.898 -0.0638  0.4213 -0.9130
 4094SOL     OW12613   3.834   1.572   2.440 -0.6619 -0.3263 -0.1027
 4094SOL    HW112614   3.754   1.526   2.415  0.3017 -1.5968 -0.8643
 4094SOL    HW212615   3.855   1.627   2.365  0.4924 -1.7815 -0.8524
 4095SOL     OW12616   0.176   0.114   2.585  0.4752  0.2048  0.2098
 4095SOL    HW112617   0.131   0.030   2.584  0.4609  0.1882  1.5127
 4095SOL    HW212618   0.225   0.114   2.667  0.8668  1.2607 -0.0141
 4096SOL     OW12619   2.045   4.482   5.065 -0.4280 -0.7135 -0.2605
 4096SOL    HW112620   2.060   4.574   5.043 -1.2955 -0.6417 -0.5728
 4096SOL    HW212621   2.114   4.461   5.127 -0.0948  0.0937 -0.3478
 4097SOL     OW12622   5.134   4.351   0.116  0.2526  0.0912 -0.1676
 4097SOL    HW112623   5.199   4.329   0.050  0.4953 -1.4096  0.5355
 4097SOL    HW212624   5.050   4.324   0.078  0.4455 -1.2193  0.3144
 4098SOL     OW12625   3.079   4.248   0.090  0.7686  0.2071 -0.4501
 4098SOL    HW112626   3.169   4.268   0.065  0.6960 -0.6770 -1.4186
 4098SOL    HW212627   3.054   4.175   0.034 -0.0641 -0.4931  0.8166
 4099SOL     OW12628   2.505   1.650   0.434  0.9908  0.3309 -0.3099
 4099SOL    HW112629   2.568   1.600   0.486  1.5577  0.8838 -0.4567
 4099SOL    HW212630   2.465   1.585   0.376  1.5263 -0.0036 -0.3097
 4100SOL     OW12631   2.168   3.550   0.065 -0.4569  1.0589  0.3045
 4100SOL    HW112632   2.177   3.532  -0.029  1.0975  1.4066  0.3759
 4100SOL    HW212633   2.074   3.557   0.079 -0.6828  1.4901 -1.3341
 4101SOL     OW12634   3.428   1.473   2.195 -0.0960 -0.6574  0.2866
 4101SOL    HW112635   3.356   1.453   2.136 -0.7352  1.9739  0.1009
 4101SOL    HW212636   3.472   1.548   2.155  1.0473 -0.4766  1.8222
 4102SOL     OW12637   2.986   4.010   0.984  0.2103 -0.6095 -0.1778
 4102SOL    HW112638   2.951   4.093   1.016 -0.9944 -1.2137  0.0788
 4102SOL    HW212639   2.955   3.944   1.046  1.5852 -1.1976 -0.0902
 4103SOL     OW12640   3.588   0.500   1.607 -0.0327  0.1059 -0.0208
 4103SOL    HW112641   3.620   0.436   1.544  0.1836 -0.1435  0.3445
 4103SOL    HW212642   3.523   0.453   1.660 -0.5366  0.4339 -0.3394
 4104SOL     OW12643   2.732   4.413   3.736  0.0031  0.0137 -0.3664
 4104SOL    HW112644   2.697   4.331   3.700  0.0778  0.2730 -1.0266
 4104SOL    HW212645   2.825   4.395   3.749 -0.0117 -0.0550 -0.3512
 4105SOL     OW12646   5.470   0.764   3.972  0.1665 -0.2344  0.0786
 4105SOL    HW112647   5.563   0.755   3.953  0.1173 -1.6826  0.4620
 4105SOL    HW212648   5.448   0.686   4.023 -1.0626  0.5271  0.7527
 4106SOL     OW12649   4.281   1.447   3.895 -0.1499 -0.3418 -0.3969
 4106SOL    HW112650   4.343   1.396   3.843  0.6524 -1.9618  2.0456
 4106SOL    HW212651   4.197   1.403   3.881 -0.3143  0.4120 -1.8336
 4107SOL     OW12652   4.161   0.693   4.454  0.5726  0.4521 -0.0736
 4107SOL    HW112653   4.130   0.607   4.426  2.3582  1.0932 -4.3678
 4107SOL    HW212654   4.252   0.679   4.481  0.8084  0.9378 -0.5928
 4108SOL     OW12655   4.875   0.791   2.365  0.0479  0.2694 -0.1467
 4108SOL    HW112656   4.869   0.753   2.277 -2.1474  0.3863 -0.0710
 4108SOL    HW212657   4.969   0.793   2.383  0.5066 -0.2365 -2.2777
 4109SOL     OW12658   3.169   2.005   4.005  0.4411 -0.6144  0.4194
 4109SOL    HW112659   3.134   2.086   4.044  2.0376  0.3106 -0.0624
 4109SOL    HW212660   3.207   1.958   4.079  0.7166 -0.2938  0.4828
 4110SOL     OW12661   4.959   1.657   3.647  0.1741  0.2556  0.5755
 4110SOL    HW112662   4.926   1.680   3.734 -0.5547  2.0353 -0.1481
 4110SOL    HW212663   4.956   1.561   3.645 -0.9161  0.2357  2.0881
 4111SOL     OW12664   5.343   3.310   0.405 -0.0719  0.1110  0.4228
 4111SOL    HW112665   5.277   3.314   0.336 -0.5224 -0.9701  0.7894
 4111SOL    HW212666   5.388   3.227   0.391  1.5565  1.0465 -0.1208
 4112SOL     OW12667   4.651   0.242   3.403  0.2863  0.3391 -0.2899
 4112SOL    HW112668   4.605   0.239   3.320 -0.2610  0.6226 -0.0004
 4112SOL    HW212669   4.693   0.328   3.404  0.1788  0.3907 -0.2120
 4113SOL     OW12670   0.392   0.926   0.549  0.0526 -0.3361  0.4307
 4113SOL    HW112671   0.418   0.892   0.463 -0.1305 -2.7107  1.2794
 4113SOL    HW212672   0.306   0.887   0.565 -2.0383  3.6507 -0.2339
 4114SOL     OW12673   5.133   2.817   0.572 -0.0771 -0.0735  0.2904
 4114SOL    HW112674   5.121   2.911   0.560  0.0596 -0.1823 -0.7735
 4114SOL    HW212675   5.057   2.790   0.624 -0.4890  0.5065  0.0032
 4115SOL     OW12676   0.875   2.274   4.029  0.4953 -0.2987  0.2114
 4115SOL    HW112677   0.799   2.218   4.047  0.3724  0.0048  0.6407
 4115SOL    HW212678   0.927   2.224   3.966  0.5437 -1.0435  0.8308
 4116SOL     OW12679   3.143   2.814   1.826 -0.0604  0.0242 -0.9370
 4116SOL    HW112680   3.185   2.896   1.852  0.7420 -1.2815  2.1143
 4116SOL    HW212681   3.210   2.767   1.776 -0.0300  0.6123 -1.4487
 4117SOL     OW12682   5.099   1.602   4.089  0.5825  0.1471 -0.0641
 4117SOL    HW112683   5.076   1.585   4.180  0.2404 -3.8278 -0.8031
 4117SOL    HW212684   5.178   1.551   4.074  1.0316  1.2997 -1.8525
 4118SOL     OW12685   5.560   3.634   0.855  0.1506  0.0615  0.0578
 4118SOL    HW112686   5.650   3.618   0.883  0.0332  2.1368  1.7555
 4118SOL    HW212687   5.568   3.662   0.763  1.0892 -1.0432 -0.2091
 4119SOL     OW12688   4.613   5.101   3.641 -0.5241 -0.4676 -0.4594
 4119SOL    HW112689   4.524   5.127   3.615 -1.0960 -2.5668 -0.6358
 4119SOL    HW212690   4.605   5.079   3.733  0.3352  1.5600  0.1360
 4120SOL     OW12691   5.333   0.590   5.107 -0.3556 -0.1478  0.1572
 4120SOL    HW112692   5.373   0.619   5.189 -0.2959  1.9916 -0.5897
 4120SOL    HW212693   5.382   0.635   5.039 -2.4699  0.6555 -0.8925
 4121SOL     OW12694   2.155   2.101   0.733  0.2946 -0.1324 -0.1354
 4121SOL    HW112695   2.075   2.145   0.761 -0.0870 -0.4619 -0.7001
 4121SOL    HW212696   2.182   2.048   0.809  0.2102  0.3026  0.1976
 4122SOL     OW12697   4.723   3.454   2.050 -0.4093  0.5454 -0.0297
 4122SOL    HW112698   4.762   3.372   2.019  0.0928  0.3401  1.0891
 4122SOL    HW212699   4.716   3.509   1.972 -1.0946 -0.6979 -0.8625
 4123SOL     OW12700   1.407   5.002   1.174 -0.2452 -0.1794 -0.1605
 4123SOL    HW112701   1.322   5.034   1.144 -0.1933  0.7573  0.6570
 4123SOL    HW212702   1.388   4.918   1.215 -0.5672 -0.6373 -1.2338
 4124SOL     OW12703   1.573   5.396   3.036 -0.3224  0.3110  0.1091
 4124SOL    HW112704   1.661   5.410   3.001  0.2197  0.1316  1.3561
 4124SOL    HW212705   1.546   5.482   3.069 -0.9836  0.5633 -1.0806
 4125SOL     OW12706   4.187   1.940   0.910 -0.0166 -0.8442 -0.5511
 4125SOL    HW112707   4.119   1.919   0.974  0.7775 -1.4588  0.0941
 4125SOL    HW212708   4.193   2.036   0.914  2.5290 -1.0247  2.9692
 4126SOL     OW12709   1.126   1.905   0.499 -0.5166 -0.5400 -0.0743
 4126SOL    HW112710   1.138   1.915   0.405  0.5352 -0.1967  0.0978
 4126SOL    HW212711   1.050   1.847   0.507  0.1511 -1.5844 -1.1378
 4127SOL     OW12712   3.788   1.029   4.477 -0.0640  0.1601  0.1646
 4127SOL    HW112713   3.828   0.977   4.407 -1.5107 -0.2253 -0.3996
 4127SOL    HW212714   3.749   0.964   4.536 -2.1769  0.5891 -0.7195
 4128SOL     OW12715   2.007   2.525   3.132 -0.0428 -0.3847  0.5546
 4128SOL    HW112716   1.995   2.620   3.135  1.2340 -0.0761 -2.3611
 4128SOL    HW212717   1.928   2.493   3.088  0.0012 -0.5510  0.5973
 4129SOL     OW12718   1.748   4.530   1.157 -0.0788  0.4633  0.4033
 4129SOL    HW112719   1.659   4.566   1.153  0.3079  1.4742  0.8723
 4129SOL    HW212720   1.805   4.604   1.138  0.7121  0.0434  1.1180
 4130SOL     OW12721   1.522   0.591   0.055 -0.0197 -0.3525 -0.1163
 4130SOL    HW112722   1.446   0.541   0.086  0.4015 -0.4308  0.8053
 4130SOL    HW212723   1.525   0.667   0.113  1.1022 -0.7778  0.3842
 4131SOL     OW12724   0.878   4.189   4.161  0.7652  0.6135  0.5255
 4131SOL    HW112725   0.821   4.194   4.084 -0.5694 -0.0584  1.4612
 4131SOL    HW212726   0.843   4.253   4.222  0.9411  0.1330  1.1438
 4132SOL     OW12727   4.907   2.308   4.208 -0.2643 -0.0040 -0.3518
 4132SOL    HW112728   4.997   2.276   4.202  0.0501  0.8085 -0.0772
 4132SOL    HW212729   4.911   2.378   4.273 -0.7227  1.3141 -1.7146
 4133SOL     OW12730   4.911   2.155   3.598 -0.2133  0.0296  0.3071
 4133SOL    HW112731   4.974   2.091   3.562  0.2445  1.0655 -0.7537
 4133SOL    HW212732   4.841   2.158   3.534  0.4226  1.6035 -0.3276
 4134SOL     OW12733   3.296   1.154   0.084  0.2170  0.1916  0.4376
 4134SOL    HW112734   3.359   1.226   0.088 -0.0572  0.3725  1.4772
 4134SOL    HW212735   3.244   1.163   0.163  0.2556 -1.2256  0.6327
 4135SOL     OW12736   0.264   1.974   0.883  0.5587  0.3151 -0.1552
 4135SOL    HW112737   0.170   1.956   0.892  0.7652 -0.2226  1.1748
 4135SOL    HW212738   0.271   2.069   0.885  0.0791  0.3423  0.2581
 4136SOL     OW12739   2.598   4.021   3.923 -0.2602 -0.0195 -0.1172
 4136SOL    HW112740   2.514   3.992   3.959 -0.1042 -0.6535 -0.2636
 4136SOL    HW212741   2.585   4.114   3.905 -1.1672 -0.2681 -0.8020
 4137SOL     OW12742   2.046   1.116   4.071 -0.6283 -0.0342  0.0017
 4137SOL    HW112743   2.134   1.079   4.065 -1.0195 -0.8646 -0.5481
 4137SOL    HW212744   1.989   1.050   4.033 -1.3419  1.0725 -0.8657
 4138SOL     OW12745   3.358   2.873   0.473 -0.2622 -0.0508 -0.3434
 4138SOL    HW112746   3.277   2.883   0.523  0.7074  3.2087  0.7197
 4138SOL    HW212747   3.359   2.781   0.447 -5.1056  0.1885 -1.8225
 4139SOL     OW12748   3.635   0.204   5.383 -0.1349 -0.4492  0.8212
 4139SOL    HW112749   3.577   0.273   5.352 -0.4229 -1.1040 -0.1065
 4139SOL    HW212750   3.721   0.229   5.352 -0.8610 -2.6938 -3.3243
 4140SOL     OW12751   0.971   5.505   2.437 -0.4914 -0.9003  0.2289
 4140SOL    HW112752   1.009   5.592   2.451  1.7920 -1.5394 -1.6574
 4140SOL    HW212753   0.975   5.464   2.524 -1.8967  0.9547  1.2053
 4141SOL     OW12754   4.705   4.176   3.736  0.2005  0.2937  0.5648
 4141SOL    HW112755   4.725   4.267   3.758 -2.3254  0.6440  1.5227
 4141SOL    HW212756   4.761   4.157   3.661  0.5205  2.7275  0.1560
 4142SOL     OW12757   2.909   2.152   0.809  0.5448 -0.1277  0.3815
 4142SOL    HW112758   2.971   2.137   0.738 -0.6871  0.3441 -0.8316
 4142SOL    HW212759   2.831   2.185   0.765 -0.8884 -1.5755  1.7806
 4143SOL     OW12760   3.780   1.174   0.747  0.5303  0.0174 -0.1538
 4143SOL    HW112761   3.704   1.117   0.755  0.5382  0.0203 -0.0571
 4143SOL    HW212762   3.752   1.257   0.786  0.7854 -0.1736  0.4382
 4144SOL     OW12763   4.608   2.848   1.985 -0.3199  0.0818 -0.3171
 4144SOL    HW112764   4.626   2.754   1.993 -0.1846  0.2033  0.7877
 4144SOL    HW212765   4.688   2.890   2.015 -0.9774  0.5777  0.7386
 4145SOL     OW12766   5.519   4.368   1.717  0.0596  0.2483  0.1987
 4145SOL    HW112767   5.613   4.360   1.734 -0.0607 -0.6806  0.4196
 4145SOL    HW212768   5.478   4.310   1.780 -0.7157  1.1988  0.5775
 4146SOL     OW12769   0.555   1.342   0.714  0.3866 -0.0643 -0.1035
 4146SOL    HW112770   0.501   1.308   0.785  0.2982 -1.1299 -0.6847
 4146SOL    HW212771   0.610   1.269   0.688 -1.0282 -0.2824 -2.5372
 4147SOL     OW12772   1.785   0.360   1.521  0.1735 -0.0538 -0.1304
 4147SOL    HW112773   1.862   0.364   1.577  2.1727 -0.0200 -2.8036
 4147SOL    HW212774   1.800   0.427   1.455 -2.3474  0.2049 -0.5022
 4148SOL     OW12775   5.151   4.515   1.004  0.8511 -0.2859  0.5369
 4148SOL    HW112776   5.233   4.534   1.050  1.1249 -0.7624  0.2604
 4148SOL    HW212777   5.176   4.515   0.911  0.6921 -1.1296  0.4863
 4149SOL     OW12778   4.229   1.948   4.795 -0.3657  0.2288  0.7798
 4149SOL    HW112779   4.269   1.869   4.831 -0.6546  0.5779  1.8869
 4149SOL    HW212780   4.288   1.974   4.724 -0.2186 -0.9134  0.4607
 4150SOL     OW12781   4.251   2.762   0.119  0.3738 -0.1958 -0.6324
 4150SOL    HW112782   4.239   2.802   0.033  1.2516 -0.4555 -0.8807
 4150SOL    HW212783   4.307   2.824   0.166 -0.2020  0.0036 -0.2073
 4151SOL     OW12784   4.343   4.831   3.198 -0.8537  0.6654 -0.0396
 4151SOL    HW112785   4.438   4.833   3.188 -0.9581  0.5287 -1.1237
 4151SOL    HW212786   4.320   4.918   3.231 -0.3842  0.7752  0.0045
 4152SOL     OW12787   2.827   1.578   2.196 -0.3852  0.0870 -0.5864
 4152SOL    HW112788   2.854   1.605   2.284  0.6859 -0.8091 -0.6265
 4152SOL    HW212789   2.765   1.646   2.168 -0.2647  0.7063  0.6103
 4153SOL     OW12790   5.448   4.311   0.142 -0.1210 -0.5350  0.2797
 4153SOL    HW112791   5.495   4.382   0.097 -0.4133  0.0738  0.9314
 4153SOL    HW212792   5.395   4.270   0.073  0.1393 -0.1922 -0.1245
 4154SOL     OW12793   1.497   4.626   1.164  0.2810  0.2286 -0.2305
 4154SOL    HW112794   1.466   4.630   1.073  1.0936  1.6537 -0.4603
 4154SOL    HW212795   1.430   4.672   1.214  0.5531  0.7317 -0.3218
 4155SOL     OW12796   3.478   2.216   1.010 -0.5946 -0.8444  0.1074
 4155SOL    HW112797   3.393   2.187   0.975  0.0037 -1.6851 -0.6922
 4155SOL    HW212798   3.536   2.141   0.995  0.2135 -0.3832  0.9253
 4156SOL     OW12799   4.382   5.504   2.211 -0.3229 -0.9769  0.0483
 4156SOL    HW112800   4.470   5.503   2.173 -1.2238  0.3699 -2.1647
 4156SOL    HW212801   4.329   5.450   2.152 -1.3900 -0.2383  0.3003
 4157SOL     OW12802   3.606   2.613   4.600  0.8383  0.1775  0.4616
 4157SOL    HW112803   3.679   2.552   4.590  0.9229  0.3497 -0.0165
 4157SOL    HW212804   3.534   2.573   4.551  0.8980  0.4694  0.1358
 4158SOL     OW12805   5.201   1.920   2.777 -0.5538  0.4931  0.4370
 4158SOL    HW112806   5.152   1.878   2.848  1.2898 -1.1899  0.7750
 4158SOL    HW212807   5.180   1.867   2.700 -0.2171  0.5055  0.3378
 4159SOL     OW12808   1.513   1.033   2.221  0.3608  0.1271  0.3737
 4159SOL    HW112809   1.461   1.106   2.186 -0.2964 -0.5865 -0.1454
 4159SOL    HW212810   1.450   0.962   2.231  1.1275 -0.5601  0.2912
 4160SOL     OW12811   2.191   4.956   3.105 -0.0196  0.0834  0.4728
 4160SOL    HW112812   2.227   4.992   3.024  1.7427 -0.0376  1.1808
 4160SOL    HW212813   2.130   5.023   3.136  0.6272  0.9155 -0.0338
 4161SOL     OW12814   4.834   4.478   2.584  0.8652  0.1284 -0.2927
 4161SOL    HW112815   4.830   4.543   2.515  0.3716  0.3668 -0.0434
 4161SOL    HW212816   4.921   4.439   2.576  1.9795  2.2931  0.9103
 4162SOL     OW12817   3.458   4.406   1.532  0.1192  0.4264  0.0439
 4162SOL    HW112818   3.516   4.422   1.457 -0.2962  0.4573 -0.2725
 4162SOL    HW212819   3.416   4.323   1.512 -1.3788  1.3211 -0.6519
 4163SOL     OW12820   1.191   4.118   1.733 -0.9086 -0.4979 -0.4237
 4163SOL    HW112821   1.213   4.136   1.642  0.6823  0.1023  0.0590
 4163SOL    HW212822   1.134   4.042   1.730 -2.2569  0.5464 -2.0403
 4164SOL     OW12823   1.782   4.925   0.270  0.4481  0.4602  0.0671
 4164SOL    HW112824   1.733   4.905   0.191 -1.0517 -1.4416  1.4321
 4164SOL    HW212825   1.720   4.973   0.325  0.7163 -0.2940  1.0413
 4165SOL     OW12826   3.816   3.908   5.078  0.0917  0.0515  0.6762
 4165SOL    HW112827   3.747   3.964   5.113 -1.5795 -1.5302  0.0347
 4165SOL    HW212828   3.836   3.945   4.992 -1.0769 -0.3490  0.2132
 4166SOL     OW12829   1.802   4.808   3.282  0.1607 -0.5371 -0.0492
 4166SOL    HW112830   1.896   4.821   3.288  0.1775 -0.5419 -0.3099
 4166SOL    HW212831   1.785   4.794   3.189  0.3979 -4.4336  0.4199
 4167SOL     OW12832   1.689   2.410   4.234 -0.4184 -0.3442 -0.0304
 4167SOL    HW112833   1.670   2.327   4.190  1.0480 -0.9775  0.4844
 4167SOL    HW212834   1.636   2.409   4.313 -1.0946 -0.3783 -0.4856
 4168SOL     OW12835   4.032   1.133   3.956 -0.6113  0.4590 -0.3181
 4168SOL    HW112836   4.022   1.228   3.949 -0.1838  0.4907 -0.5352
 4168SOL    HW212837   4.002   1.100   3.871  2.7434  0.6925 -1.6663
 4169SOL     OW12838   3.073   2.164   5.155  0.0125 -0.3692  0.1154
 4169SOL    HW112839   2.981   2.188   5.160  0.2049  0.4888 -0.3776
 4169SOL    HW212840   3.074   2.069   5.166 -0.7569 -0.1615  2.2618
 4170SOL     OW12841   5.512   5.396   0.325 -0.1363  0.1734 -0.1141
 4170SOL    HW112842   5.541   5.400   0.234 -0.4569 -0.5106 -0.2491
 4170SOL    HW212843   5.418   5.412   0.321  0.0959  1.7575  0.2604
 4171SOL     OW12844   0.019   0.534   0.104 -0.2261 -0.1100 -0.1245
 4171SOL    HW112845  -0.022   0.599   0.162 -1.2936 -1.8866  1.1420
 4171SOL    HW212846  -0.009   0.450   0.139  0.8091 -1.2586 -2.0125
 4172SOL     OW12847   3.230   4.180   3.837 -0.4460  0.2471 -0.0465
 4172SOL    HW112848   3.250   4.193   3.745  0.4609  0.4775  0.1747
 4172SOL    HW212849   3.314   4.195   3.882 -1.4577  2.7977  1.0631
 4173SOL     OW12850   1.924   3.238   5.173 -0.5516 -0.2140 -0.3151
 4173SOL    HW112851   1.994   3.184   5.136  1.2475  2.1815 -0.5434
 4173SOL    HW212852   1.905   3.198   5.257 -0.2544 -2.0357 -1.0997
 4174SOL     OW12853   1.191   5.489   0.375 -0.2384  0.4267 -0.0454
 4174SOL    HW112854   1.138   5.541   0.315 -1.4042 -0.5657  0.1159
 4174SOL    HW212855   1.155   5.400   0.370 -0.2190  0.2673  1.9557
 4175SOL     OW12856   1.112   0.017   5.157  0.1916 -0.0406 -0.2486
 4175SOL    HW112857   1.035  -0.038   5.143  0.0493  0.2914 -0.7836
 4175SOL    HW212858   1.186  -0.037   5.127  0.1227 -0.2089 -0.1122
 4176SOL     OW12859   0.585   0.346   2.895  0.7279 -0.3012 -0.2968
 4176SOL    HW112860   0.598   0.432   2.855 -0.8576 -1.5340 -3.6000
 4176SOL    HW212861   0.492   0.345   2.918  0.4197 -1.6350 -1.5478
 4177SOL     OW12862   0.282   2.798   4.005  0.1756  0.2093  0.0092
 4177SOL    HW112863   0.301   2.730   4.070  0.2667  0.2906  0.0670
 4177SOL    HW212864   0.275   2.750   3.922  0.4776  0.1591  0.0117
 4178SOL     OW12865   5.374   1.922   4.967 -0.1906 -0.2234 -0.7079
 4178SOL    HW112866   5.354   2.003   4.920 -1.4405 -0.3994 -0.5217
 4178SOL    HW212867   5.352   1.852   4.906  1.0744 -0.4314 -0.9385
 4179SOL     OW12868   0.521   0.682   4.584 -0.6252  0.5195 -0.7553
 4179SOL    HW112869   0.438   0.689   4.633 -0.4269  0.7003 -0.4446
 4179SOL    HW212870   0.501   0.719   4.498 -1.1389 -0.3288 -1.0133
 4180SOL     OW12871   3.723   2.862   3.271 -0.0399 -0.2141 -0.2714
 4180SOL    HW112872   3.685   2.792   3.324 -1.1461  0.2828 -0.3729
 4180SOL    HW212873   3.762   2.923   3.334 -1.1176  0.2402 -0.0243
 4181SOL     OW12874   4.474   1.056   0.558  0.6511 -0.0943  0.0726
 4181SOL    HW112875   4.544   1.005   0.517  1.3110  0.6173  0.3101
 4181SOL    HW212876   4.426   0.992   0.610  0.9522 -0.6431 -0.3192
 4182SOL     OW12877   3.704   3.310   1.207  0.3267  0.1217 -0.7218
 4182SOL    HW112878   3.634   3.244   1.208  1.8813 -1.5604  0.1997
 4182SOL    HW212879   3.664   3.388   1.246 -0.8078 -1.0530  0.5211
 4183SOL     OW12880   3.293   1.580   0.242  1.0391 -0.1126  0.4431
 4183SOL    HW112881   3.215   1.604   0.193  1.2259  0.0350  0.2173
 4183SOL    HW212882   3.260   1.541   0.322  0.7314 -0.2455  0.2521
 4184SOL     OW12883   1.499   2.723   5.325  0.0939  0.1345  0.1765
 4184SOL    HW112884   1.567   2.732   5.258  0.0704  0.3145  0.1756
 4184SOL    HW212885   1.417   2.722   5.276  0.0734  0.3236  0.2069
 4185SOL     OW12886   0.230   2.599   0.332 -0.0071 -0.4621 -0.5039
 4185SOL    HW112887   0.225   2.686   0.371 -0.3838 -0.5965 -0.2435
 4185SOL    HW212888   0.138   2.573   0.322  0.1136 -1.1773  0.2071
 4186SOL     OW12889   0.010   0.935   1.052  0.2384  0.4690 -0.4860
 4186SOL    HW112890   0.008   0.839   1.052 -0.7929  0.4698 -1.7722
 4186SOL    HW212891   0.049   0.957   0.967 -0.2837  1.1973 -0.5312
 4187SOL     OW12892   1.413   5.134   1.841 -0.7842 -0.0842  0.0348
 4187SOL    HW112893   1.493   5.108   1.796 -0.4120  0.5324  0.3385
 4187SOL    HW212894   1.435   5.134   1.934 -0.7382  1.3997  0.0429
 4188SOL     OW12895   4.035   2.982   1.948  0.0909  0.0089  0.4911
 4188SOL    HW112896   3.947   2.944   1.944 -0.3522  1.0321  0.4658
 4188SOL    HW212897   4.022   3.070   1.983  1.0058  0.4938 -0.3660
 4189SOL     OW12898   3.825   0.115   2.573  0.0115 -0.6486  0.1043
 4189SOL    HW112899   3.841   0.146   2.484 -0.8940 -1.9219 -0.5062
 4189SOL    HW212900   3.884   0.168   2.627 -0.2173  0.8867 -1.1166
 4190SOL     OW12901   0.284   0.355   5.330  0.0431 -0.6267  0.1909
 4190SOL    HW112902   0.302   0.367   5.237  0.9023 -0.6871  0.3428
 4190SOL    HW212903   0.223   0.426   5.352  1.4063  0.6294  0.0242
 4191SOL     OW12904   0.994   5.024   3.865 -0.2224 -0.0116  0.4357
 4191SOL    HW112905   1.048   4.950   3.838  1.3904  1.5064 -0.6410
 4191SOL    HW212906   1.052   5.078   3.918 -0.2737  2.2126 -1.6440
 4192SOL     OW12907   4.398   0.882   2.958 -0.2411 -0.0740  0.1957
 4192SOL    HW112908   4.427   0.972   2.944 -0.7984 -0.0590 -0.9089
 4192SOL    HW212909   4.392   0.873   3.053  1.0745  0.6514  0.3569
 4193SOL     OW12910   2.815   3.698   3.716 -0.8206  0.4960  0.1802
 4193SOL    HW112911   2.754   3.762   3.679 -1.9549 -0.5320  0.2375
 4193SOL    HW212912   2.759   3.626   3.744  0.2289  0.4164  2.1051
 4194SOL     OW12913   3.714   3.650   5.171 -0.3195  0.3849  0.3526
 4194SOL    HW112914   3.762   3.732   5.180 -0.1514  0.1737  1.3963
 4194SOL    HW212915   3.626   3.678   5.145  0.0995  0.8209 -0.6073
 4195SOL     OW12916   0.400   1.818   0.709  0.2865  0.6041 -0.5783
 4195SOL    HW112917   0.356   1.898   0.737 -0.4803  0.2128 -0.6654
 4195SOL    HW212918   0.361   1.797   0.625  1.9763  1.2980 -1.5629
 4196SOL     OW12919   0.638   5.084   1.143  0.1010  0.0735 -0.5618
 4196SOL    HW112920   0.724   5.100   1.181 -0.7389  2.9271  0.2419
 4196SOL    HW212921   0.598   5.019   1.200  1.1788 -0.1926 -0.0991
 4197SOL     OW12922   4.269   2.137   0.077 -0.0083  0.4160  0.1250
 4197SOL    HW112923   4.324   2.082   0.021 -0.9305 -0.0107 -0.3759
 4197SOL    HW212924   4.213   2.075   0.124 -1.6356  0.9355 -1.0660
 4198SOL     OW12925   2.422   1.295   5.182 -0.2299 -0.4493 -0.3218
 4198SOL    HW112926   2.448   1.267   5.270  1.8549  0.6904 -0.5388
 4198SOL    HW212927   2.428   1.390   5.184 -4.4335 -0.1027 -0.4533
 4199SOL     OW12928   1.088   5.177   2.926  0.3838 -0.8301  0.2436
 4199SOL    HW112929   1.078   5.118   2.850  0.9976  0.6782 -1.0305
 4199SOL    HW212930   1.182   5.194   2.931  0.4237 -1.4170  1.7533
 4200SOL     OW12931   2.570   5.293   4.933 -0.7925 -0.1527  0.5429
 4200SOL    HW112932   2.633   5.260   4.869 -0.8241  2.5969 -1.0240
 4200SOL    HW212933   2.495   5.234   4.927 -0.0875 -0.9308 -0.7077
 4201SOL     OW12934   2.806   2.700   1.528 -0.2123  0.7221  0.2047
 4201SOL    HW112935   2.855   2.632   1.481 -0.7167  0.7629 -0.3809
 4201SOL    HW212936   2.777   2.658   1.609  2.5000  1.2535  1.5386
 4202SOL     OW12937   1.367   3.324   3.992  0.1191 -0.6479 -0.3890
 4202SOL    HW112938   1.440   3.278   4.033 -1.1632 -1.4453  1.0288
 4202SOL    HW212939   1.389   3.417   4.001  0.7881 -0.8756  0.3598
 4203SOL     OW12940   0.271   4.383   2.139  0.2014  0.3143  0.3897
 4203SOL    HW112941   0.357   4.350   2.113  1.5881  2.7483  1.6453
 4203SOL    HW212942   0.271   4.378   2.235 -0.9692  0.5762  0.4169
 4204SOL     OW12943   5.363   1.689   2.388 -0.2713  0.1999 -0.2558
 4204SOL    HW112944   5.413   1.611   2.412  0.7524  0.6895 -0.7614
 4204SOL    HW212945   5.426   1.760   2.392 -0.6595  0.6708 -1.9572
 4205SOL     OW12946   0.424   0.013   4.936 -0.3292 -0.3649 -0.3599
 4205SOL    HW112947   0.463   0.006   5.023 -0.0549  0.3454 -0.4220
 4205SOL    HW212948   0.448   0.101   4.907  1.1674 -1.2598 -1.9212
 4206SOL     OW12949   3.627   4.858   1.970 -0.1587  0.3011 -0.0445
 4206SOL    HW112950   3.549   4.803   1.984 -0.0177  0.0722 -0.1644
 4206SOL    HW212951   3.591   4.942   1.939 -0.4411  0.6442  1.1783
 4207SOL     OW12952   2.921   0.557   2.884  0.4142  0.6500 -0.2152
 4207SOL    HW112953   2.878   0.478   2.851  0.8230 -0.3133  1.4693
 4207SOL    HW212954   2.959   0.598   2.807 -0.8976 -0.1282 -1.2859
 4208SOL     OW12955   3.044   1.906   0.879  0.3559  0.3564  0.1058
 4208SOL    HW112956   3.108   1.938   0.943  1.2391 -0.7595 -0.1994
 4208SOL    HW212957   3.008   1.985   0.839  1.8406  0.9878  0.0057
 4209SOL     OW12958   2.964   2.113   3.227  0.2674  0.4499 -0.5653
 4209SOL    HW112959   3.049   2.093   3.188  1.3995 -0.6286  2.2905
 4209SOL    HW212960   2.913   2.032   3.215  1.0360 -0.3244  1.1833
 4210SOL     OW12961   0.203   2.062   5.489  0.1977 -0.5091 -0.5479
 4210SOL    HW112962   0.219   2.124   5.560 -0.8059  0.3952 -1.1062
 4210SOL    HW212963   0.144   1.997   5.526  0.3938 -0.5434 -0.2908
 4211SOL     OW12964   3.677   0.832   4.683  0.0793 -0.5195  0.4477
 4211SOL    HW112965   3.748   0.859   4.741  1.4895 -1.8216 -0.6429
 4211SOL    HW212966   3.700   0.743   4.656 -1.9362 -0.9341  0.0169
 4212SOL     OW12967   0.519   2.684   3.448 -0.2246 -0.8651  0.2950
 4212SOL    HW112968   0.427   2.660   3.456 -0.0513 -0.7836  2.9241
 4212SOL    HW212969   0.521   2.779   3.461  0.1216 -0.7121 -0.8110
 4213SOL     OW12970   0.970   4.335   0.136 -0.2469 -0.6258 -0.4013
 4213SOL    HW112971   1.002   4.356   0.224 -1.6995 -3.3032  0.8363
 4213SOL    HW212972   0.962   4.419   0.093  0.4894  0.7512  2.0491
 4214SOL     OW12973   4.419   1.886   2.288 -0.9301 -0.2641  0.0161
 4214SOL    HW112974   4.460   1.892   2.374  1.6046 -1.3577 -1.0623
 4214SOL    HW212975   4.461   1.954   2.236 -2.1785  0.1405 -0.4841
 4215SOL     OW12976   0.304   3.086   4.674 -0.5408  0.8126 -0.4396
 4215SOL    HW112977   0.385   3.123   4.640  0.1699 -0.2523  0.0910
 4215SOL    HW212978   0.265   3.157   4.726  0.6325  0.9401  0.2846
 4216SOL     OW12979   1.840   2.642   1.117  0.0063 -0.5152 -0.0500
 4216SOL    HW112980   1.756   2.680   1.094  0.0785 -0.5044 -0.3088
 4216SOL    HW212981   1.849   2.567   1.059  0.4382 -0.1668 -0.4490
 4217SOL     OW12982   0.853   0.986   5.375  0.1811 -0.4837 -0.7734
 4217SOL    HW112983   0.884   0.896   5.378  0.4800 -0.3825 -0.8658
 4217SOL    HW212984   0.807   0.998   5.458  1.8529 -0.1074  0.1168
 4218SOL     OW12985   3.556   4.505   1.261  0.4178 -0.4246  0.0334
 4218SOL    HW112986   3.480   4.561   1.244  0.1279 -1.1569 -1.1377
 4218SOL    HW212987   3.632   4.561   1.243  0.1312 -0.3830 -1.0322
 4219SOL     OW12988   3.430   5.437   3.108  0.0190 -0.4647  0.1803
 4219SOL    HW112989   3.416   5.530   3.090  0.4804 -0.1220  1.5408
 4219SOL    HW212990   3.523   5.429   3.127 -0.2598 -0.9540  1.4429
 4220SOL     OW12991   4.820   3.312   1.582  0.0562  0.4615  0.1648
 4220SOL    HW112992   4.769   3.261   1.646  1.1092  0.3627  0.9451
 4220SOL    HW212993   4.773   3.395   1.575 -0.5385  0.1520  0.4325
 4221SOL     OW12994   1.867   1.187   3.275 -0.2756 -0.3473 -0.0946
 4221SOL    HW112995   1.931   1.241   3.229 -0.7069  0.3778  0.1682
 4221SOL    HW212996   1.820   1.141   3.206  1.9313 -2.5178 -0.2615
 4222SOL     OW12997   2.404   2.370   1.428 -0.3222  0.1119 -0.5944
 4222SOL    HW112998   2.394   2.453   1.380 -2.0283  0.1375 -0.2498
 4222SOL    HW212999   2.479   2.384   1.485 -0.4990  1.3707 -0.6585
 4223SOL     OW13000   2.192   3.319   4.923  0.4740  0.1516  0.2083
 4223SOL    HW113001   2.167   3.383   4.989  0.6917 -0.0072  0.4443
 4223SOL    HW213002   2.109   3.279   4.896  0.4509 -0.2129  0.8238
 4224SOL     OW13003   1.370   1.711   4.894 -0.0862  0.1281  0.5499
 4224SOL    HW113004   1.318   1.738   4.970 -1.4017 -0.3527 -0.1588
 4224SOL    HW213005   1.305   1.689   4.827  1.0404 -0.3372 -0.4139
 4225SOL     OW13006   4.908   1.285   0.608 -0.0154  0.6933  0.5713
 4225SOL    HW113007   4.844   1.219   0.637 -1.8762  1.4968 -1.5394
 4225SOL    HW213008   4.970   1.236   0.554 -0.7980  0.4720 -0.1381
 4226SOL     OW13009   4.293   2.093   2.442 -0.0249  0.3815  0.0510
 4226SOL    HW113010   4.307   2.034   2.367 -0.1301 -0.3908  0.6353
 4226SOL    HW213011   4.366   2.075   2.500  0.2779  1.2769 -0.0419
 4227SOL     OW13012   4.478   1.712   0.519 -0.0177 -0.1430  0.1807
 4227SOL    HW113013   4.544   1.774   0.491 -0.2281 -0.1429 -0.3322
 4227SOL    HW213014   4.527   1.632   0.540  0.1013 -0.3026 -0.6766
 4228SOL     OW13015   3.291   2.893   2.643  0.0949  0.0526 -0.5247
 4228SOL    HW113016   3.217   2.920   2.696 -1.3197 -2.4121 -1.1376
 4228SOL    HW213017   3.281   2.940   2.560 -0.9531 -0.4722 -0.7023
 4229SOL     OW13018   4.053   3.279   0.919  0.0446  0.6157  0.2121
 4229SOL    HW113019   4.144   3.310   0.922  0.6269 -0.9341 -0.4427
 4229SOL    HW213020   4.011   3.333   0.853  0.1551  2.1726  1.3957
 4230SOL     OW13021   1.901   2.233   0.787 -0.4479 -0.1345 -0.3201
 4230SOL    HW113022   1.818   2.214   0.744 -0.4136  0.8653 -0.8453
 4230SOL    HW213023   1.879   2.293   0.858 -0.6289 -2.4738  1.6580
 4231SOL     OW13024   1.796   4.192   1.602 -0.0385  0.4700 -0.4546
 4231SOL    HW113025   1.823   4.107   1.639 -0.3488  0.5074 -0.1409
 4231SOL    HW213026   1.754   4.238   1.675  0.8027  1.1965 -0.4293
 4232SOL     OW13027   3.401   2.395   2.928  0.0562 -0.1565 -0.2369
 4232SOL    HW113028   3.379   2.489   2.930 -0.2665 -0.2103 -1.0330
 4232SOL    HW213029   3.331   2.354   2.979 -0.6365 -0.1170 -1.1399
 4233SOL     OW13030   3.546   3.674   2.310  0.3500 -0.3469 -0.0393
 4233SOL    HW113031   3.631   3.711   2.285  0.4911  0.0389  0.9893
 4233SOL    HW213032   3.565   3.623   2.389 -0.0518 -1.7070 -0.8104
 4234SOL     OW13033   3.746   5.393   3.107 -0.5319  0.2301  0.0948
 4234SOL    HW113034   3.704   5.383   3.192 -0.4591  2.4032  0.4149
 4234SOL    HW213035   3.685   5.351   3.045 -1.6077  0.4977  0.9522
 4235SOL     OW13036   5.234   5.432   2.715  0.4066  0.7245  0.0178
 4235SOL    HW113037   5.289   5.453   2.640  0.8830  0.2635  0.2405
 4235SOL    HW213038   5.264   5.492   2.784  1.3461 -0.2494  0.4635
 4236SOL     OW13039   3.269   5.102   3.187  0.0924 -0.2778 -0.6646
 4236SOL    HW113040   3.219   5.030   3.148 -0.5202 -0.4963  0.5317
 4236SOL    HW213041   3.350   5.105   3.135 -0.9298 -0.2289 -2.3061
 4237SOL     OW13042   0.571   2.752   0.310 -0.0610 -0.1042 -0.1596
 4237SOL    HW113043   0.571   2.773   0.217 -0.2261  0.1680 -0.0992
 4237SOL    HW213044   0.510   2.815   0.349 -0.3887 -0.5570  0.0590
 4238SOL     OW13045   3.969   2.804   5.400 -0.2414 -0.1089  0.6973
 4238SOL    HW113046   4.006   2.720   5.374  0.1822 -0.0608  1.1375
 4238SOL    HW213047   4.040   2.848   5.446 -1.0145 -0.2285  2.0219
 4239SOL     OW13048   4.590   4.808   2.900 -0.0863 -0.4458 -0.0113
 4239SOL    HW113049   4.620   4.741   2.838 -2.6494 -0.2596 -1.5490
 4239SOL    HW213050   4.559   4.759   2.976 -1.0491 -0.9502 -0.7271
 4240SOL     OW13051   0.474   1.494   3.374  0.0488 -0.3394  0.6599
 4240SOL    HW113052   0.409   1.478   3.306 -0.1763 -0.5599  0.9272
 4240SOL    HW213053   0.556   1.459   3.339 -0.4343 -2.0598  1.2400
 4241SOL     OW13054   5.177   3.046   1.595  0.4421 -0.2276 -0.4530
 4241SOL    HW113055   5.218   2.969   1.557  0.4910 -0.9137  0.9678
 4241SOL    HW213056   5.189   3.036   1.690  1.2337  1.9508 -0.2907
 4242SOL     OW13057   2.860   0.418   3.269 -0.0244 -0.4618  0.2077
 4242SOL    HW113058   2.930   0.370   3.225  0.2189 -0.0785  0.1736
 4242SOL    HW213059   2.904   0.465   3.340 -0.4763 -1.3992  1.1135
 4243SOL     OW13060   4.217   5.250   4.956 -0.4724  0.1433  0.6919
 4243SOL    HW113061   4.198   5.163   4.921  1.8598 -0.2771  0.3912
 4243SOL    HW213062   4.131   5.292   4.964 -1.3410 -0.8742 -2.5531
 4244SOL     OW13063   3.162   1.236   0.304  0.0684 -0.0523 -0.2579
 4244SOL    HW113064   3.215   1.312   0.329  0.1240 -0.5510  1.1633
 4244SOL    HW213065   3.074   1.273   0.289  0.2375  0.3865 -0.1851
 4245SOL     OW13066   0.356   1.808   2.189  0.1388 -0.2546 -0.5571
 4245SOL    HW113067   0.349   1.865   2.112  0.9782 -0.4251 -0.7591
 4245SOL    HW213068   0.325   1.723   2.158 -0.3569 -0.1119 -0.4664
 4246SOL     OW13069   1.728   4.173   2.736  0.1028 -0.7077  0.2600
 4246SOL    HW113070   1.721   4.080   2.715 -0.3543 -1.0437  1.8427
 4246SOL    HW213071   1.817   4.197   2.710 -0.0526 -1.3773 -0.9185
 4247SOL     OW13072   2.784   5.097   5.210 -0.5188  0.9380  0.7130
 4247SOL    HW113073   2.693   5.109   5.235 -0.7410  0.0471  0.3444
 4247SOL    HW213074   2.795   5.003   5.200 -0.2602  1.1840 -1.8219
 4248SOL     OW13075   0.963   3.112   0.926 -0.0704 -0.4350 -0.1652
 4248SOL    HW113076   1.042   3.117   0.873  0.4721  0.3479  0.6989
 4248SOL    HW213077   0.948   3.202   0.955 -1.3388 -0.5672 -0.4118
 4249SOL     OW13078   4.501   4.819   0.179 -0.2802  0.0341  0.5145
 4249SOL    HW113079   4.439   4.889   0.200  0.8996  1.2066  0.1510
 4249SOL    HW213080   4.509   4.821   0.084 -1.3463 -1.5646  0.3833
 4250SOL     OW13081   0.047   0.708   5.263  0.3121  0.0833  0.8912
 4250SOL    HW113082   0.118   0.667   5.312  1.0279  0.7379  0.4083
 4250SOL    HW213083   0.078   0.796   5.244 -0.9974  0.6735  1.4327
 4251SOL     OW13084   5.057   0.311   4.796 -0.3513 -0.3791  0.6476
 4251SOL    HW113085   5.014   0.230   4.825 -0.6711 -0.6098 -0.4670
 4251SOL    HW213086   5.132   0.320   4.855 -0.2917 -1.5010  0.7594
 4252SOL     OW13087   2.778   3.442   4.357  0.2555 -0.3958 -0.0884
 4252SOL    HW113088   2.804   3.445   4.449 -1.3738  1.5260  0.3517
 4252SOL    HW213089   2.718   3.367   4.352 -2.8385  1.8359  1.3789
 4253SOL     OW13090   2.067   2.421   2.340 -0.0159  0.0618  0.4869
 4253SOL    HW113091   2.028   2.339   2.370  0.6147 -0.3888  0.0942
 4253SOL    HW213092   2.078   2.408   2.245  0.3765  0.4747  0.4766
 4254SOL     OW13093   2.094   0.729   4.028  0.1082  0.1228 -0.3215
 4254SOL    HW113094   2.165   0.763   4.082  0.8094  0.2166 -1.2834
 4254SOL    HW213095   2.028   0.798   4.028  0.8140  0.8037 -0.9182
 4255SOL     OW13096   1.949   2.663   1.661 -0.3168  0.0373 -0.0446
 4255SOL    HW113097   2.014   2.594   1.655  0.8502  1.0971  0.3493
 4255SOL    HW213098   1.913   2.656   1.749 -0.9646 -0.7459 -0.3677
 4256SOL     OW13099   4.439   3.106   0.763  0.5717 -0.5793 -0.0389
 4256SOL    HW113100   4.347   3.087   0.750 -0.0801  2.9452 -1.1115
 4256SOL    HW213101   4.460   3.173   0.698  3.5939 -0.4543  0.9472
 4257SOL     OW13102   2.089   3.346   3.070  0.1375 -0.1370 -0.5519
 4257SOL    HW113103   2.071   3.266   3.118 -0.6222  1.0697  1.2199
 4257SOL    HW213104   2.183   3.360   3.081  0.1597 -0.4509 -0.3474
 4258SOL     OW13105   5.141   2.183   4.243  0.1485  0.4010 -0.0946
 4258SOL    HW113106   5.182   2.121   4.303 -0.9232  0.6058  0.8697
 4258SOL    HW213107   5.214   2.222   4.195  1.0209  0.1617  1.0094
 4259SOL     OW13108   4.709   0.983   3.285 -1.0347  0.5501 -0.4124
 4259SOL    HW113109   4.774   0.919   3.313 -0.4439  0.8400 -1.1232
 4259SOL    HW213110   4.759   1.052   3.242 -1.8461  0.5580 -1.3707
 4260SOL     OW13111   2.835   4.843   5.169  0.2212  0.6838 -0.1748
 4260SOL    HW113112   2.911   4.809   5.216  2.1362  2.2841 -2.0038
 4260SOL    HW213113   2.821   4.780   5.098 -0.6966 -0.0291  0.6146
 4261SOL     OW13114   3.122   2.806   4.116  0.4173 -0.4899  0.0775
 4261SOL    HW113115   3.058   2.822   4.186 -0.1111 -0.3630 -0.4378
 4261SOL    HW213116   3.072   2.816   4.035  1.1724 -0.0321 -0.3316
 4262SOL     OW13117   0.039   4.771   1.764 -0.1167  0.5349  0.3523
 4262SOL    HW113118   0.029   4.787   1.671  0.5504  0.5589  0.2835
 4262SOL    HW213119  -0.000   4.684   1.778 -0.6833  0.7553  0.1467
 4263SOL     OW13120   5.330   4.939   5.104  0.0056  0.0102  0.2232
 4263SOL    HW113121   5.322   4.998   5.029 -0.3827 -0.1334  0.1511
 4263SOL    HW213122   5.356   4.855   5.065  1.2999  0.3181  0.3965
 4264SOL     OW13123   1.431   0.191   2.715  0.2602  0.6358  0.7395
 4264SOL    HW113124   1.386   0.268   2.751 -2.0218  0.9716 -2.5862
 4264SOL    HW213125   1.475   0.224   2.637  0.2155 -1.1881 -0.0779
 4265SOL     OW13126   3.761   1.941   5.109 -0.3707  0.0847 -0.5087
 4265SOL    HW113127   3.837   1.959   5.053  0.8016 -1.7188  0.4255
 4265SOL    HW213128   3.792   1.873   5.169 -2.5311 -0.1713  0.3516
 4266SOL     OW13129   0.776   0.632   1.505  0.4620 -0.4484 -0.1329
 4266SOL    HW113130   0.782   0.613   1.412 -0.4809  0.5129 -0.4035
 4266SOL    HW213131   0.842   0.700   1.520 -1.8834  2.0772 -0.8689
 4267SOL     OW13132   3.441   2.413   2.571 -0.1224 -0.3292 -0.1376
 4267SOL    HW113133   3.421   2.492   2.522 -1.4239 -0.7980 -0.3808
 4267SOL    HW213134   3.449   2.443   2.662  1.3424  0.3792 -0.4809
 4268SOL     OW13135   2.742   4.561   1.435 -0.3454 -0.4528  0.0774
 4268SOL    HW113136   2.651   4.561   1.406 -0.1631 -1.2074 -0.5370
 4268SOL    HW213137   2.752   4.478   1.482  0.3575 -0.9925 -0.9971
 4269SOL     OW13138   3.708   4.799   5.071 -0.0081 -0.2670  0.1098
 4269SOL    HW113139   3.616   4.821   5.090  0.2008  0.7479 -0.0352
 4269SOL    HW213140   3.751   4.803   5.156 -0.5575 -3.1101  0.5713
 4270SOL     OW13141   3.688   1.060   2.229  0.3551  0.0643 -0.0288
 4270SOL    HW113142   3.727   0.985   2.185  1.0990  0.1774  0.4223
 4270SOL    HW213143   3.742   1.072   2.308 -0.6508  0.1645  0.6529
 4271SOL     OW13144   1.506   2.926   1.011 -0.0308  0.5963 -0.2450
 4271SOL    HW113145   1.598   2.948   1.026 -0.0128  1.7272 -1.8685
 4271SOL    HW213146   1.509   2.858   0.945 -0.4191  2.4032 -2.1780
 4272SOL     OW13147   4.729   0.643   1.042  0.7144 -0.0395  0.4747
 4272SOL    HW113148   4.777   0.607   0.968 -0.1154 -0.1406 -0.0249
 4272SOL    HW213149   4.778   0.615   1.119  0.9994 -0.8297  0.0057
 4273SOL     OW13150   5.048   1.485   1.197  0.1486  0.4550 -0.2618
 4273SOL    HW113151   4.981   1.551   1.177 -0.1893  1.2163  2.9756
 4273SOL    HW213152   5.017   1.405   1.154 -0.4373  1.9257 -2.6584
 4274SOL     OW13153   5.264   4.844   1.800 -0.2310 -0.2455 -0.1413
 4274SOL    HW113154   5.266   4.872   1.708  1.1130  0.9403  0.2413
 4274SOL    HW213155   5.328   4.773   1.805 -0.4025 -0.4026 -0.1368
 4275SOL     OW13156   3.081   5.465   2.160 -0.0201 -0.5200 -0.6488
 4275SOL    HW113157   3.136   5.475   2.082  0.7482  2.5496  0.2303
 4275SOL    HW213158   3.142   5.448   2.231 -0.5302 -0.7409 -0.2569
 4276SOL     OW13159   1.354   2.333   3.852  0.5063 -0.4238 -0.1921
 4276SOL    HW113160   1.294   2.365   3.920  1.5288  0.3642  0.3481
 4276SOL    HW213161   1.327   2.242   3.837 -0.0351 -0.4583  0.9275
 4277SOL     OW13162   0.795   3.611   0.534  0.2924  0.8548 -0.4948
 4277SOL    HW113163   0.812   3.524   0.571 -0.2885  1.3244  0.9062
 4277SOL    HW213164   0.756   3.660   0.606  2.0347  2.7486 -0.7991
 4278SOL     OW13165   3.969   1.052   1.336  0.2911  0.4347 -0.0042
 4278SOL    HW113166   3.914   1.121   1.299  1.0841  0.5433 -1.0043
 4278SOL    HW213167   3.981   0.990   1.264 -0.5302 -0.8178  0.9304
 4279SOL     OW13168   0.685   5.367   0.592  0.2660  0.4285 -0.2876
 4279SOL    HW113169   0.743   5.302   0.553  1.2003  1.8274 -1.2560
 4279SOL    HW213170   0.743   5.437   0.622 -0.8648  1.6461 -0.8691
 4280SOL     OW13171   2.301   4.822   4.357  0.7828 -0.6397 -0.0228
 4280SOL    HW113172   2.278   4.744   4.305  0.0117 -1.0155  0.8695
 4280SOL    HW213173   2.269   4.895   4.305  1.2082 -0.9256 -0.7083
 4281SOL     OW13174   2.977   1.090   0.663  0.4198 -0.5319  0.4981
 4281SOL    HW113175   3.030   1.038   0.602  0.6797 -0.0845  0.3384
 4281SOL    HW213176   3.020   1.079   0.748  0.8788 -0.0203  0.3338
 4282SOL     OW13177   2.993   3.812   4.895  0.3434 -0.2335  0.1580
 4282SOL    HW113178   2.969   3.751   4.825  0.6178  1.3012 -1.3309
 4282SOL    HW213179   3.088   3.817   4.891  0.4881 -1.5925  1.9224
 4283SOL     OW13180   2.536   4.264   3.877  0.0210 -0.5120 -0.4760
 4283SOL    HW113181   2.447   4.254   3.843 -0.3875  1.0553  0.0943
 4283SOL    HW213182   2.580   4.320   3.813  0.0686  0.1732  0.1504
 4284SOL     OW13183   4.203   2.613   3.048 -0.2192  0.5381  0.2174
 4284SOL    HW113184   4.224   2.645   3.136  0.7281  0.7251 -0.0671
 4284SOL    HW213185   4.164   2.689   3.004 -1.6268  0.1465  0.7990
 4285SOL     OW13186   4.036   3.588   5.356  0.3631 -0.3154 -0.2446
 4285SOL    HW113187   4.053   3.674   5.317  0.1032  0.7755  1.9464
 4285SOL    HW213188   4.121   3.561   5.392 -0.1525  0.3853  1.5904
 4286SOL     OW13189   5.557   4.942   2.811  0.4437  0.3903 -0.1857
 4286SOL    HW113190   5.575   4.856   2.849 -0.4847 -1.4806 -3.7514
 4286SOL    HW213191   5.481   4.975   2.860  1.1128 -0.5673  1.5434
 4287SOL     OW13192   1.423   3.964   4.335 -0.5990  0.6225  0.0760
 4287SOL    HW113193   1.357   3.996   4.274  0.1028 -1.1706 -1.7178
 4287SOL    HW213194   1.453   3.881   4.296  1.6991  0.7089  1.5483
 4288SOL     OW13195   5.295   1.808   1.173  0.5299 -0.2509 -0.1703
 4288SOL    HW113196   5.262   1.845   1.256 -0.9039 -1.4671 -0.1696
 4288SOL    HW213197   5.306   1.715   1.191  1.0210 -0.3778 -1.1109
 4289SOL     OW13198   2.898   0.795   3.576 -0.7437 -0.0806  0.1923
 4289SOL    HW113199   2.810   0.833   3.568 -0.9771  0.0038  2.6790
 4289SOL    HW213200   2.952   0.847   3.516 -2.5469 -0.7583 -2.0910
 4290SOL     OW13201   0.596   4.201   4.063  0.5542  0.6412 -0.2525
 4290SOL    HW113202   0.609   4.254   3.985  3.9295  1.4720  0.8200
 4290SOL    HW213203   0.615   4.111   4.035 -1.1876  0.5167 -1.0808
 4291SOL     OW13204   3.031   4.095   2.529 -0.1682 -0.5673  0.0995
 4291SOL    HW113205   2.950   4.065   2.488 -1.5444  0.1599  2.2195
 4291SOL    HW213206   3.029   4.190   2.520 -0.1294 -0.4603  1.2204
 4292SOL     OW13207   0.770   3.502   0.106 -0.2448 -0.2075 -0.2128
 4292SOL    HW113208   0.860   3.521   0.134 -0.8817 -0.5301  2.1852
 4292SOL    HW213209   0.717   3.569   0.151 -1.1742  0.1607 -1.8353
 4293SOL     OW13210   0.917   1.854   2.553  0.4412  0.2365 -0.2181
 4293SOL    HW113211   0.949   1.824   2.638  0.9197  0.7613 -0.2125
 4293SOL    HW213212   0.935   1.781   2.494 -0.5538 -0.4173  0.2711
 4294SOL     OW13213   2.996   3.545   5.091 -0.1619  0.6717  0.2024
 4294SOL    HW113214   3.001   3.457   5.055  0.0652  0.6616  0.2574
 4294SOL    HW213215   2.984   3.601   5.014 -3.8552  0.3054  0.4168
 4295SOL     OW13216   4.900   2.466   3.592 -0.0119  0.4870 -0.3006
 4295SOL    HW113217   4.811   2.493   3.614  0.4057  1.5577  0.0995
 4295SOL    HW213218   4.898   2.371   3.596 -1.0965  0.5151 -0.1240
 4296SOL     OW13219   3.407   1.087   2.277 -0.2032 -0.4418  0.4962
 4296SOL    HW113220   3.372   0.998   2.283  0.7396 -0.8077  0.6681
 4296SOL    HW213221   3.502   1.075   2.271 -0.1790  0.4893 -1.1062
 4297SOL     OW13222   1.366   4.487   0.806 -0.0676  0.1361  0.3762
 4297SOL    HW113223   1.306   4.451   0.740  0.7889 -0.9830  0.1837
 4297SOL    HW213224   1.376   4.416   0.870 -0.0573  0.8337  1.1562
 4298SOL     OW13225   5.212   4.804   2.684 -0.2525  0.0076  0.4754
 4298SOL    HW113226   5.262   4.871   2.638  0.6589 -0.6247  0.5361
 4298SOL    HW213227   5.220   4.827   2.777 -2.0311  1.2417  0.3474
 4299SOL     OW13228   1.983   5.078   4.453  0.1371 -0.2299  0.3990
 4299SOL    HW113229   1.892   5.106   4.447 -0.3346 -1.6527  0.8168
 4299SOL    HW213230   2.024   5.142   4.512 -0.5116  0.5743 -0.0026
 4300SOL     OW13231   3.216   1.689   1.022 -0.3157 -0.1041 -0.3438
 4300SOL    HW113232   3.136   1.731   1.056  0.7839  2.8098 -1.2068
 4300SOL    HW213233   3.287   1.747   1.051  1.2992 -1.4843 -1.4718
 4301SOL     OW13234   3.101   1.728   3.376 -0.8137 -0.0249  0.2826
 4301SOL    HW113235   3.158   1.697   3.446 -0.0306 -0.0030 -0.3302
 4301SOL    HW213236   3.091   1.822   3.392  0.9095  0.3395 -0.6975
 4302SOL     OW13237   0.558   5.012   3.869 -0.4391  0.0384 -0.0782
 4302SOL    HW113238   0.478   4.992   3.821 -1.6820  1.6261  1.2779
 4302SOL    HW213239   0.624   5.028   3.802 -1.1793 -1.5009 -1.2050
 4303SOL     OW13240   1.509   3.795   3.710 -0.2582  0.3719  0.3319
 4303SOL    HW113241   1.471   3.782   3.797 -2.4313  1.4381 -0.4288
 4303SOL    HW213242   1.505   3.709   3.669 -0.0581  0.0635  0.9439
 4304SOL     OW13243   2.409   2.627   5.276 -0.3604 -0.2683 -0.3666
 4304SOL    HW113244   2.386   2.573   5.200 -0.0039  0.4491 -0.9903
 4304SOL    HW213245   2.414   2.716   5.241  0.9295 -0.0838  0.2566
 4305SOL     OW13246   3.284   4.935   3.442 -0.3509  0.2774 -0.5940
 4305SOL    HW113247   3.358   4.888   3.481  0.5145  1.2127 -1.0880
 4305SOL    HW213248   3.288   4.912   3.349 -0.7872  0.1933 -0.5924
 4306SOL     OW13249   2.327   3.957   3.101  0.4861  0.4625 -0.0470
 4306SOL    HW113250   2.292   3.938   3.015 -1.5527  2.8011  0.2304
 4306SOL    HW213251   2.343   4.051   3.101 -0.1823  0.6149  2.3385
 4307SOL     OW13252   0.164   1.029   2.016  0.5094  0.6875  0.4976
 4307SOL    HW113253   0.173   1.090   1.943  0.4972 -1.6047 -1.4484
 4307SOL    HW213254   0.069   1.019   2.027  0.5201  0.3343  0.2528
 4308SOL     OW13255   4.775   4.866   2.009 -0.3092  0.1161 -0.5347
 4308SOL    HW113256   4.831   4.942   2.023  0.1349 -0.2474 -0.3067
 4308SOL    HW213257   4.685   4.900   2.017 -0.1497  0.8603 -1.7395
 4309SOL     OW13258   0.571   3.536   3.133  0.0691 -0.3772  0.0878
 4309SOL    HW113259   0.535   3.478   3.200  2.8134 -1.5753  0.6158
 4309SOL    HW213260   0.607   3.610   3.182 -0.9580  0.4216 -0.3562
 4310SOL     OW13261   0.968   0.113   1.887  0.2482 -0.5710 -0.3184
 4310SOL    HW113262   0.984   0.194   1.839 -0.0480  1.3165  2.6120
 4310SOL    HW213263   0.933   0.142   1.972 -0.9659 -3.8135  0.3814
 4311SOL     OW13264   4.651   4.766   3.928  0.3385  0.3625  0.5105
 4311SOL    HW113265   4.687   4.768   3.840  3.8111 -1.6505  1.7817
 4311SOL    HW213266   4.585   4.697   3.926  0.1964  0.5157 -0.5373
 4312SOL     OW13267   2.171   2.671   4.548 -0.2659  0.1745 -0.7208
 4312SOL    HW113268   2.158   2.762   4.576  0.2262 -0.8639  3.2344
 4312SOL    HW213269   2.266   2.660   4.545 -0.3020 -0.6839  0.6755
 4313SOL     OW13270   0.528   5.147   1.849  0.5332  0.3398 -0.2179
 4313SOL    HW113271   0.579   5.103   1.916 -1.0741  0.8898  1.4018
 4313SOL    HW213272   0.542   5.241   1.865 -2.6370  0.5765  1.6598
 4314SOL     OW13273   1.644   3.355   2.831 -0.0690  0.0862  0.5029
 4314SOL    HW113274   1.580   3.413   2.872  0.5781  0.3942  1.0863
 4314SOL    HW213275   1.686   3.409   2.764  2.1073  1.0270  2.5310
 4315SOL     OW13276   0.693   3.034   1.472 -0.0579  0.1315 -0.3100
 4315SOL    HW113277   0.681   3.021   1.378  0.6781  1.5710 -0.6054
 4315SOL    HW213278   0.768   3.093   1.479 -0.8890  1.0365  1.1451
 4316SOL     OW13279   3.061   3.397   0.821  0.3104  0.0214 -0.5075
 4316SOL    HW113280   2.983   3.449   0.799  0.0498 -0.2197 -0.1589
 4316SOL    HW213281   3.129   3.432   0.764  0.1768  0.8493 -0.1699
 4317SOL     OW13282   3.361   4.736   3.212  0.1268 -0.1844 -0.1776
 4317SOL    HW113283   3.284   4.777   3.171 -0.4940 -0.6704  0.4833
 4317SOL    HW213284   3.423   4.725   3.140 -0.2909  0.5215 -0.6601
 4318SOL     OW13285   4.215   0.993   5.136 -0.6149 -0.4125  0.4906
 4318SOL    HW113286   4.273   0.939   5.190 -1.2787 -1.0347  0.5968
 4318SOL    HW213287   4.130   0.988   5.181 -0.5583  1.1331  0.7839
 4319SOL     OW13288   1.070   5.323   4.309 -0.1437 -0.3414  0.6550
 4319SOL    HW113289   1.085   5.417   4.294 -0.9331 -0.6108 -1.9171
 4319SOL    HW213290   0.981   5.319   4.345 -0.3870 -0.1657  0.0758
 4320SOL     OW13291   2.410   0.983   0.377  0.2025  0.3807  0.3660
 4320SOL    HW113292   2.360   1.058   0.410 -1.8378 -2.4077  3.8367
 4320SOL    HW213293   2.471   0.962   0.447  2.1540 -0.0550 -1.4015
 4321SOL     OW13294   1.912   3.547   0.177  0.0000 -0.0188 -0.4890
 4321SOL    HW113295   1.881   3.483   0.242  0.6091 -0.7373 -0.8991
 4321SOL    HW213296   1.943   3.621   0.229 -0.6671 -0.0719 -0.0058
 4322SOL     OW13297   3.591   4.409   3.798 -0.0889  0.1924 -0.2038
 4322SOL    HW113298   3.680   4.442   3.811 -0.4091  0.9205  0.1400
 4322SOL    HW213299   3.585   4.394   3.704  0.7411 -0.8466 -0.1061
 4323SOL     OW13300   4.163   2.212   5.028 -0.7370  0.1306  0.3926
 4323SOL    HW113301   4.139   2.123   5.055 -0.6581  0.2814  0.9762
 4323SOL    HW213302   4.234   2.236   5.088 -0.1639  0.2522 -0.3365
 4324SOL     OW13303   3.666   0.005   3.490 -0.4190 -0.2048 -0.4455
 4324SOL    HW113304   3.652   0.065   3.563  2.9181  0.6539 -0.4392
 4324SOL    HW213305   3.740  -0.049   3.517  0.6324 -0.1237 -3.0423
 4325SOL     OW13306   1.675   2.778   3.675 -0.3579  0.2023 -0.1148
 4325SOL    HW113307   1.699   2.685   3.676 -0.9437  0.0401 -0.4868
 4325SOL    HW213308   1.613   2.785   3.602  0.1269  0.9981 -0.4492
 4326SOL     OW13309   0.641   3.723   5.264 -0.1359  0.2145  0.0803
 4326SOL    HW113310   0.723   3.675   5.250 -0.6139 -0.6597  0.2831
 4326SOL    HW213311   0.651   3.763   5.351  0.1305  0.2223  0.0466
 4327SOL     OW13312   2.545   2.168   1.245 -0.0777  0.8103 -0.1314
 4327SOL    HW113313   2.479   2.226   1.282 -0.9990  0.0160 -0.5005
 4327SOL    HW213314   2.533   2.173   1.151 -0.0372  0.1801 -0.1755
 4328SOL     OW13315   3.222   1.711   0.702  0.6366  0.2578  0.4471
 4328SOL    HW113316   3.216   1.734   0.794 -0.3024  0.1796  0.4100
 4328SOL    HW213317   3.169   1.632   0.693 -0.7691  1.2927 -0.4940
 4329SOL     OW13318   2.915   2.212   0.228 -0.8306  0.3656  0.2208
 4329SOL    HW113319   2.946   2.265   0.154 -1.3567 -0.9254 -0.9590
 4329SOL    HW213320   2.892   2.276   0.296  1.8872  1.4710  0.1642
 4330SOL     OW13321   5.208   5.037   2.007  0.4203 -0.0529  0.3255
 4330SOL    HW113322   5.300   5.041   2.036 -0.0663  0.5539  1.8538
 4330SOL    HW213323   5.208   4.973   1.937  1.9807 -0.2506  0.4777
 4331SOL     OW13324   3.479   1.857   0.712 -0.3143 -0.1999  0.1879
 4331SOL    HW113325   3.460   1.948   0.736  1.0968  0.1594 -0.0049
 4331SOL    HW213326   3.393   1.819   0.694 -0.9221  1.1132  0.2120
 4332SOL     OW13327   2.690   4.143   3.251  0.0543  0.0459  0.5006
 4332SOL    HW113328   2.661   4.084   3.182 -0.3588  0.2858  0.4699
 4332SOL    HW213329   2.658   4.229   3.225 -0.5212  0.0620  1.2234
 4333SOL     OW13330   1.787   2.201   4.891 -0.2639  0.2547 -0.2111
 4333SOL    HW113331   1.736   2.281   4.876 -0.7629 -0.1747 -0.8323
 4333SOL    HW213332   1.722   2.134   4.909  0.1705  0.0405  0.5739
 4334SOL     OW13333   2.532   1.292   1.489  0.2863 -0.2502 -0.8322
 4334SOL    HW113334   2.579   1.274   1.570  0.7050  1.9547 -0.5587
 4334SOL    HW213335   2.523   1.207   1.446  0.2341 -1.3938  1.4229
 4335SOL     OW13336   4.880   2.566   2.356  0.5953  0.0893 -0.2157
 4335SOL    HW113337   4.873   2.492   2.295  1.9954  1.0008 -1.5060
 4335SOL    HW213338   4.935   2.534   2.427  2.1171  0.2159 -1.3147
 4336SOL     OW13339   1.626   0.033   4.078 -0.7303 -0.7238 -0.3499
 4336SOL    HW113340   1.608   0.011   3.986 -0.7042 -0.7176 -0.3566
 4336SOL    HW213341   1.645   0.126   4.077 -1.5176 -0.5579 -0.2260
 4337SOL     OW13342   5.467   5.335   4.894 -0.0922 -0.0077 -0.0952
 4337SOL    HW113343   5.492   5.369   4.980 -0.6000  1.3982 -0.4805
 4337SOL    HW213344   5.459   5.413   4.839  0.7856 -0.9382 -1.5745
 4338SOL     OW13345   5.229   3.536   1.432 -0.7009  0.1990  0.4472
 4338SOL    HW113346   5.260   3.627   1.422 -1.9314  0.6160  0.3429
 4338SOL    HW213347   5.252   3.513   1.522 -1.5362  1.0819  0.9088
 4339SOL     OW13348   3.319   4.601   2.580  0.0747 -0.3802 -0.1458
 4339SOL    HW113349   3.273   4.662   2.638 -1.2213 -1.6357  0.1783
 4339SOL    HW213350   3.295   4.630   2.492 -0.4551 -0.3431  0.0071
 4340SOL     OW13351   2.871   0.036   5.399  0.2960  0.2217  0.0603
 4340SOL    HW113352   2.786   0.062   5.435  0.1929 -0.1672  0.0908
 4340SOL    HW213353   2.857   0.038   5.304  0.2323  0.0775  0.0676
 4341SOL     OW13354   3.044   2.391   1.766  0.2392  0.1404 -0.0261
 4341SOL    HW113355   3.007   2.471   1.803  0.1757  0.3315 -0.4987
 4341SOL    HW213356   2.976   2.325   1.779 -0.5882  0.6672 -1.5760
 4342SOL     OW13357   2.865   2.049   1.310 -0.1194 -0.6084  0.3032
 4342SOL    HW113358   2.778   2.057   1.348 -0.1687 -1.3426  0.3405
 4342SOL    HW213359   2.881   1.955   1.304  0.6455 -0.4793  0.2386
 4343SOL     OW13360   1.388   0.909   0.505  0.2920 -0.1075  0.0499
 4343SOL    HW113361   1.309   0.929   0.556  0.5578  1.1663 -0.0254
 4343SOL    HW213362   1.454   0.969   0.539  0.4705  0.7848 -1.7876
 4344SOL     OW13363   4.512   1.364   0.208  1.0230 -0.5056  0.4331
 4344SOL    HW113364   4.602   1.378   0.236  0.7441  0.9802  0.6000
 4344SOL    HW213365   4.458   1.402   0.277  0.2946  0.5142 -0.6774
 4345SOL     OW13366   1.951   4.416   1.501  0.3511  0.0363 -0.4056
 4345SOL    HW113367   1.888   4.348   1.523  0.6204 -0.4021 -0.9522
 4345SOL    HW213368   1.966   4.463   1.582 -1.6335  0.9559 -0.5594
 4346SOL     OW13369   2.846   2.666   5.168  0.2108  0.1561 -0.2785
 4346SOL    HW113370   2.794   2.626   5.237  1.6323 -0.2077  0.5971
 4346SOL    HW213371   2.791   2.738   5.136 -0.0041  1.0375  1.9951
 4347SOL     OW13372   0.649   3.900   0.608 -0.1680  0.3154  0.5093
 4347SOL    HW113373   0.559   3.928   0.629 -0.8282  0.1370 -1.9857
 4347SOL    HW213374   0.675   3.957   0.535  0.4321 -2.0319 -1.1398
 4348SOL     OW13375   4.238   1.705   2.412 -0.5922 -0.1609  0.0050
 4348SOL    HW113376   4.237   1.738   2.502 -0.6548 -2.2910  0.8056
 4348SOL    HW213377   4.307   1.755   2.369  0.4338 -0.1386  1.6363
 4349SOL     OW13378   3.138   1.444   0.713 -0.3738 -0.0347 -0.4132
 4349SOL    HW113379   3.044   1.425   0.709 -0.1865 -1.0919 -0.0276
 4349SOL    HW213380   3.169   1.391   0.786  0.5023  0.4356 -0.4461
 4350SOL     OW13381   2.260   4.319   2.823 -0.4035  0.1966  0.1928
 4350SOL    HW113382   2.224   4.375   2.891  0.4297  1.2547 -0.2344
 4350SOL    HW213383   2.352   4.344   2.816 -0.5303  0.2772 -1.4944
 4351SOL     OW13384   1.911   0.897   5.144 -0.0614  0.1338  0.0955
 4351SOL    HW113385   1.913   0.836   5.218 -0.8414  0.8122  0.6895
 4351SOL    HW213386   1.836   0.954   5.162  1.2191  1.8704  0.0312
 4352SOL     OW13387   3.953   1.887   1.091  0.1635 -0.0853 -0.1884
 4352SOL    HW113388   3.931   1.953   1.026  2.2975 -0.4752 -1.3665
 4352SOL    HW213389   3.891   1.816   1.076 -0.7944  0.7682 -0.2933
 4353SOL     OW13390   2.014   0.660   2.500  0.2401  0.1942  0.2640
 4353SOL    HW113391   2.105   0.631   2.496 -0.4049 -2.0314  0.9438
 4353SOL    HW213392   2.007   0.711   2.581  0.7807  0.0180  0.4176
 4354SOL     OW13393   4.553   3.993   3.522  0.5632  0.1423 -0.2505
 4354SOL    HW113394   4.497   4.068   3.497 -0.1751  0.5390  2.4152
 4354SOL    HW213395   4.642   4.029   3.522  0.0343  1.5803  2.8437
 4355SOL     OW13396   4.595   0.425   3.652  0.0578  0.3465 -0.1595
 4355SOL    HW113397   4.617   0.470   3.734  0.6532  0.1765 -0.2259
 4355SOL    HW213398   4.531   0.359   3.678 -0.1934  0.6799  0.0755
 4356SOL     OW13399   4.858   3.873   2.673 -0.3124  0.4938 -0.6562
 4356SOL    HW113400   4.797   3.944   2.654 -0.2012  0.5094 -0.9746
 4356SOL    HW213401   4.810   3.793   2.651 -0.9613  0.3805  1.1333
 4357SOL     OW13402   1.229   2.764   3.581  0.2304  0.2873 -0.4035
 4357SOL    HW113403   1.138   2.790   3.573  0.4412  0.2997 -3.5665
 4357SOL    HW213404   1.226   2.672   3.604 -0.5844  0.4303  0.0711
 4358SOL     OW13405   2.101   1.047   4.987  0.4517 -0.5421 -0.3776
 4358SOL    HW113406   2.033   1.014   5.046  2.1897 -2.3201  0.7224
 4358SOL    HW213407   2.130   1.129   5.027  1.0720 -1.3428  0.8640
 4359SOL     OW13408   2.896   3.132   4.738 -0.1149  0.1008  0.0018
 4359SOL    HW113409   2.952   3.060   4.767 -0.8913  0.4719  2.5575
 4359SOL    HW213410   2.829   3.090   4.684 -0.6682 -1.1537  1.6209
 4360SOL     OW13411   2.827   0.117   2.602  0.0800 -0.1077 -0.0622
 4360SOL    HW113412   2.858   0.086   2.687  1.2436  1.1455 -0.0082
 4360SOL    HW213413   2.824   0.212   2.611 -0.7637 -0.0208 -1.1045
 4361SOL     OW13414   1.768   1.006   2.580  0.4607 -0.0296  0.0430
 4361SOL    HW113415   1.806   0.988   2.493  0.6714 -3.4243  0.7608
 4361SOL    HW213416   1.676   1.025   2.562  0.7497  0.3980 -1.0224
 4362SOL     OW13417   1.708   2.272   4.495  0.5434  0.1134 -0.1356
 4362SOL    HW113418   1.686   2.322   4.574  1.5344 -1.8247  1.3989
 4362SOL    HW213419   1.797   2.298   4.474  0.3024  0.5802 -0.5831
 4363SOL     OW13420   1.170   3.571   3.131 -0.5560 -0.3685  0.2353
 4363SOL    HW113421   1.113   3.500   3.160 -1.0434 -0.7330 -1.5798
 4363SOL    HW213422   1.121   3.615   3.061  0.5723  0.5255 -0.0099
 4364SOL     OW13423   2.203   1.855   2.511  0.6753 -0.5780 -0.0025
 4364SOL    HW113424   2.135   1.868   2.578  0.4267 -0.9549 -0.1794
 4364SOL    HW213425   2.283   1.840   2.561  0.4597 -1.0123  0.2142
 4365SOL     OW13426   0.710   3.891   2.927 -1.0016  0.0442 -0.0462
 4365SOL    HW113427   0.647   3.887   3.000  0.0159  0.0893  0.8525
 4365SOL    HW213428   0.695   3.976   2.887 -2.7740 -0.6854 -1.0107
 4366SOL     OW13429   5.091   0.713   5.210  0.0203 -0.5069  0.2224
 4366SOL    HW113430   5.137   0.762   5.278 -1.1838 -0.9129  1.3733
 4366SOL    HW213431   5.160   0.681   5.152  0.8383  2.2117 -0.3437
 4367SOL     OW13432   5.317   4.862   4.693 -0.8653 -0.3067 -0.3847
 4367SOL    HW113433   5.282   4.903   4.614  0.2559 -1.2480 -1.4055
 4367SOL    HW213434   5.365   4.786   4.660 -0.0155 -0.4575  1.1790
 4368SOL     OW13435   0.328   3.514   1.104 -0.0945  0.4869  0.2114
 4368SOL    HW113436   0.309   3.584   1.166 -1.5866  0.4701 -0.2049
 4368SOL    HW213437   0.263   3.447   1.123 -0.5106  0.4373 -1.3030
 4369SOL     OW13438   0.811   2.466   0.530  0.3352  0.7727  0.4200
 4369SOL    HW113439   0.777   2.438   0.615  0.1306  2.8827  1.0746
 4369SOL    HW213440   0.884   2.524   0.552 -0.6753  2.5648 -0.7929
 4370SOL     OW13441   2.553   1.025   3.098  0.4755 -0.0890 -0.1398
 4370SOL    HW113442   2.557   0.932   3.077 -1.4216  0.1324 -1.6403
 4370SOL    HW213443   2.480   1.032   3.160  1.0941  0.3122  0.5505
 4371SOL     OW13444   5.187   2.553   1.998 -0.8433 -0.2431  0.7586
 4371SOL    HW113445   5.186   2.648   1.993 -0.2687 -0.2321  0.7672
 4371SOL    HW213446   5.212   2.534   2.089  1.5455 -0.3906  0.0941
 4372SOL     OW13447   5.007   4.705   1.797  0.0490  0.5200  0.6659
 4372SOL    HW113448   5.080   4.759   1.826 -1.0141  1.7249  1.1421
 4372SOL    HW213449   4.997   4.724   1.704  0.8609 -0.2613  0.4206
 4373SOL     OW13450   4.667   3.957   4.933 -0.1041 -0.5492  0.1534
 4373SOL    HW113451   4.634   3.879   4.978 -2.8168  0.6782  0.3479
 4373SOL    HW213452   4.647   3.942   4.841 -0.6368 -0.1014  0.1918
 4374SOL     OW13453   2.163   0.787   1.891  0.2264 -0.5192  0.0904
 4374SOL    HW113454   2.095   0.824   1.835  0.0920 -1.1709 -0.1855
 4374SOL    HW213455   2.197   0.713   1.841  1.0425 -0.2766  0.2918
 4375SOL     OW13456   4.745   0.537   2.448 -0.1765 -0.3408 -0.4196
 4375SOL    HW113457   4.746   0.489   2.531 -1.5802  0.1629 -0.0948
 4375SOL    HW213458   4.802   0.613   2.462 -1.3425  0.3812  0.4898
 4376SOL     OW13459   4.356   2.621   1.682 -0.4076  0.3663 -0.1764
 4376SOL    HW113460   4.284   2.615   1.745 -0.4383  2.7389  0.0467
 4376SOL    HW213461   4.391   2.709   1.693  2.5594 -0.7291 -0.2871
 4377SOL     OW13462   0.069   1.129   0.804 -0.1872  0.0104  0.0869
 4377SOL    HW113463   0.014   1.186   0.751  0.3882  0.2128 -0.3095
 4377SOL    HW213464   0.084   1.052   0.748  1.0268  0.5458 -0.3598
 4378SOL     OW13465   2.988   1.147   5.109 -0.1259 -0.8907 -0.4578
 4378SOL    HW113466   2.927   1.172   5.178  1.4590 -0.7693  0.9383
 4378SOL    HW213467   3.042   1.079   5.148  2.2366  0.7283 -0.8070
 4379SOL     OW13468   2.256   2.556   2.503 -0.0934 -0.4511  0.1520
 4379SOL    HW113469   2.305   2.475   2.513 -0.3878 -0.6373  0.0869
 4379SOL    HW213470   2.178   2.531   2.454  0.3519  0.0773 -0.8355
 4380SOL     OW13471   1.546   4.427   2.758 -0.5847 -0.2558 -0.0298
 4380SOL    HW113472   1.626   4.388   2.722 -0.9840 -0.1927 -0.9888
 4380SOL    HW213473   1.505   4.356   2.807 -0.2467 -0.4521 -0.0269
 4381SOL     OW13474   3.530   5.138   2.652  0.0882 -0.3924  0.3647
 4381SOL    HW113475   3.570   5.056   2.679 -0.7164 -0.4243  1.4664
 4381SOL    HW213476   3.593   5.176   2.590  1.6018 -0.6379  1.7418
 4382SOL     OW13477   3.423   1.020   2.964  0.1169  0.0662  0.2556
 4382SOL    HW113478   3.355   1.039   3.028 -1.5342 -2.3217 -0.7032
 4382SOL    HW213479   3.406   1.080   2.891 -0.2414  0.2959  0.5287
 4383SOL     OW13480   5.466   3.712   3.080 -0.1002  0.2733  0.3353
 4383SOL    HW113481   5.506   3.778   3.024 -0.6698 -0.9216 -1.5142
 4383SOL    HW213482   5.377   3.744   3.096 -0.1542  0.2816  0.0073
 4384SOL     OW13483   1.425   3.872   1.659  0.2434 -0.8309  0.1470
 4384SOL    HW113484   1.435   3.966   1.640  1.7811 -1.0265 -0.1181
 4384SOL    HW213485   1.333   3.853   1.640 -0.0672  0.6145  0.1529
 4385SOL     OW13486   4.812   2.762   3.753 -0.1274 -0.2695 -0.0286
 4385SOL    HW113487   4.864   2.684   3.773  0.1211 -0.6139 -1.9482
 4385SOL    HW213488   4.870   2.835   3.775 -0.3617 -0.6000  1.7779
 4386SOL     OW13489   4.205   1.588   0.001  0.1697  0.1054 -0.1128
 4386SOL    HW113490   4.213   1.605   0.095  1.1460 -1.5277  0.1372
 4386SOL    HW213491   4.268   1.518  -0.015  0.1708  0.5256 -2.0385
 4387SOL     OW13492   3.681   4.295   4.835  0.4716  0.2738 -0.6168
 4387SOL    HW113493   3.699   4.373   4.887 -1.6695 -0.6572  1.6248
 4387SOL    HW213494   3.767   4.257   4.818  1.2327  0.4022  2.6722
 4388SOL     OW13495   5.517   0.487   4.787 -0.3442 -0.0457 -0.4320
 4388SOL    HW113496   5.470   0.417   4.832 -0.2432 -0.7101 -1.3663
 4388SOL    HW213497   5.456   0.561   4.787 -0.3508 -0.0427  0.7801
 4389SOL     OW13498   3.567   0.523   0.477 -0.2588 -0.4839  0.1389
 4389SOL    HW113499   3.479   0.546   0.448 -0.2884 -0.2566  0.3977
 4389SOL    HW213500   3.556   0.443   0.528 -0.1184 -1.2259 -0.9878
 4390SOL     OW13501   0.349   1.865   2.728  0.5391  0.0826 -0.1072
 4390SOL    HW113502   0.307   1.932   2.674  0.3092 -0.2862 -0.3885
 4390SOL    HW213503   0.362   1.791   2.669  2.2162  0.4374 -0.2038
 4391SOL     OW13504   5.406   0.804   1.393  0.0801 -0.2825 -0.7832
 4391SOL    HW113505   5.321   0.842   1.417  0.4246 -0.4472  0.7519
 4391SOL    HW213506   5.396   0.780   1.301 -0.8788  1.5213 -1.1774
 4392SOL     OW13507   2.842   4.994   0.338  0.4958  0.1612 -0.3479
 4392SOL    HW113508   2.775   4.940   0.380 -0.3580  2.6471  1.6026
 4392SOL    HW213509   2.808   5.011   0.250 -1.5751  1.5432  0.6792
 4393SOL     OW13510   2.939   0.932   2.006  0.8673  0.2560  0.4078
 4393SOL    HW113511   3.006   0.971   1.949  0.5387  0.0874 -0.0961
 4393SOL    HW213512   2.897   1.007   2.047  1.0213  0.3863  0.3298
 4394SOL     OW13513   1.985   2.245   2.902 -0.2965 -0.5683 -0.0398
 4394SOL    HW113514   2.014   2.236   2.993  0.1562  0.7833 -0.0468
 4394SOL    HW213515   2.066   2.244   2.851 -0.3656  1.2588 -0.2160
 4395SOL     OW13516   1.547   0.061   0.762 -0.0244 -0.1898 -0.0053
 4395SOL    HW113517   1.464   0.036   0.722 -0.1356 -0.7774  0.5745
 4395SOL    HW213518   1.589   0.118   0.698  0.2255 -1.8787 -1.3971
 4396SOL     OW13519   4.110   0.305   3.390 -0.4291 -0.3431 -0.2868
 4396SOL    HW113520   4.098   0.276   3.299 -0.3464 -0.1811 -0.3495
 4396SOL    HW213521   4.074   0.233   3.442 -1.2202 -0.0778 -0.4600
 4397SOL     OW13522   0.115   2.233   1.758 -0.2056 -0.2683 -0.0915
 4397SOL    HW113523   0.031   2.189   1.775  0.4898 -0.6249  2.7242
 4397SOL    HW213524   0.173   2.164   1.726 -0.6703 -0.2294 -1.0431
 4398SOL     OW13525   4.071   1.688   1.890 -0.3122  0.0838 -0.4050
 4398SOL    HW113526   4.032   1.715   1.807 -0.1800 -0.8540 -0.7796
 4398SOL    HW213527   4.022   1.610   1.915 -0.7020  0.6561  0.6762
 4399SOL     OW13528   1.926   4.549   3.501 -0.8429  0.0663  0.1704
 4399SOL    HW113529   1.949   4.596   3.421 -1.6636  1.7307  0.9104
 4399SOL    HW213530   1.840   4.510   3.482 -0.3699 -0.7915 -0.2735
 4400SOL     OW13531   0.284   2.163   2.150 -0.0764 -0.3494  0.4568
 4400SOL    HW113532   0.209   2.125   2.103 -0.2506 -1.8053  1.8789
 4400SOL    HW213533   0.311   2.237   2.095 -2.0813 -0.2571 -0.4633
 4401SOL     OW13534   1.729   0.202   0.560 -0.1900 -0.1284 -0.0897
 4401SOL    HW113535   1.704   0.213   0.468  0.2396 -1.1560 -0.3422
 4401SOL    HW213536   1.815   0.160   0.557 -0.7805 -1.4411  0.7725
 4402SOL     OW13537   0.543   4.662   3.413  0.3555 -0.1748 -0.0746
 4402SOL    HW113538   0.482   4.622   3.350 -0.2618 -0.6699  0.8266
 4402SOL    HW213539   0.626   4.667   3.366 -0.5972  1.3614 -1.6382
 4403SOL     OW13540   4.253   1.858   2.022 -0.7896 -0.2825  0.6893
 4403SOL    HW113541   4.212   1.787   1.974  2.8238 -2.1471  0.2217
 4403SOL    HW213542   4.223   1.846   2.113 -2.0816 -0.9092  0.1924
 4404SOL     OW13543   3.981   0.863   5.536 -0.1694  0.4974  0.2975
 4404SOL    HW113544   3.977   0.938   5.596  0.8647  0.5616  0.2985
 4404SOL    HW213545   4.052   0.808   5.571  0.7421  0.7576 -1.1103
 4405SOL     OW13546   1.723   1.399   3.507 -0.7353  0.1759  0.1811
 4405SOL    HW113547   1.783   1.469   3.483 -1.0920  1.0005  1.6262
 4405SOL    HW213548   1.705   1.353   3.424  0.6217  0.8930 -0.5234
 4406SOL     OW13549   4.540   2.326   0.752  0.6380 -0.0464 -0.3991
 4406SOL    HW113550   4.609   2.354   0.692  0.6604  3.6819  1.2384
 4406SOL    HW213551   4.461   2.369   0.720  0.3503  0.7380  1.3192
 4407SOL     OW13552   4.956   0.225   5.541  0.2456 -0.4022  0.3134
 4407SOL    HW113553   4.909   0.306   5.560 -2.0029 -1.6863  0.4855
 4407SOL    HW213554   5.007   0.244   5.463  1.0703  1.6685  1.3365
 4408SOL     OW13555   4.614   0.646   3.841 -0.7474  0.7255  0.4374
 4408SOL    HW113556   4.578   0.700   3.911 -0.3761  2.9112 -1.0094
 4408SOL    HW213557   4.705   0.675   3.832 -1.0372  1.1330 -1.5311
 4409SOL     OW13558   3.498   3.108   0.946  0.3605 -0.6699 -0.3201
 4409SOL    HW113559   3.474   3.199   0.964 -2.1187 -1.0707 -1.3716
 4409SOL    HW213560   3.581   3.114   0.900  0.9245  0.9810  0.8737
 4410SOL     OW13561   3.871   2.523   0.124 -0.2793 -0.7560  0.3422
 4410SOL    HW113562   3.964   2.545   0.133  0.1869 -2.4695 -0.0815
 4410SOL    HW213563   3.867   2.468   0.046 -1.8367  0.2947 -0.3404
 4411SOL     OW13564   2.612   2.536   4.813  0.2448 -0.4551  1.2666
 4411SOL    HW113565   2.617   2.621   4.769  2.1661 -0.7018  1.0019
 4411SOL    HW213566   2.558   2.482   4.755  0.3297  0.1100  0.6593
 4412SOL     OW13567   2.491   2.547   4.192 -0.2797  0.2141  0.2380
 4412SOL    HW113568   2.403   2.562   4.226 -0.1986  1.0476  0.1040
 4412SOL    HW213569   2.488   2.580   4.102  0.0155 -0.2701  0.0501
 4413SOL     OW13570   0.451   1.404   2.482  0.1536 -0.0696 -0.0425
 4413SOL    HW113571   0.393   1.480   2.484  2.1098  1.4535 -0.7907
 4413SOL    HW213572   0.424   1.356   2.404 -1.4428 -0.4612  0.7249
 4414SOL     OW13573   1.848   4.296   3.847 -0.1905  0.0903  0.0923
 4414SOL    HW113574   1.923   4.274   3.792 -0.4541  0.5697 -0.4652
 4414SOL    HW213575   1.865   4.385   3.878 -0.8818  0.5117 -0.6753
 4415SOL     OW13576   4.837   0.143   0.808  0.1037  0.0771  0.1989
 4415SOL    HW113577   4.836   0.143   0.712 -1.9702 -1.1048  0.1927
 4415SOL    HW213578   4.771   0.208   0.833  1.0853  0.8425  0.8356
 4416SOL     OW13579   5.476   4.893   2.563 -0.2107  0.0762 -0.0655
 4416SOL    HW113580   5.551   4.850   2.524  0.3963  2.0441 -1.0982
 4416SOL    HW213581   5.510   4.931   2.644  0.4988  2.8979 -1.6325
 4417SOL     OW13582   1.828   1.677   4.704 -0.4910 -0.6583  0.1210
 4417SOL    HW113583   1.878   1.756   4.685 -1.5960  0.3902  1.5149
 4417SOL    HW213584   1.888   1.605   4.683  0.7950  0.5503 -0.4033
 4418SOL     OW13585   2.116   1.488   5.202 -0.0564 -0.4484 -0.5860
 4418SOL    HW113586   2.118   1.497   5.298  0.2241 -0.4584 -0.5886
 4418SOL    HW213587   2.168   1.561   5.170  0.9206 -1.1681 -0.6732
 4419SOL     OW13588   2.273   0.326   3.460 -0.3831  0.8979  0.2351
 4419SOL    HW113589   2.295   0.418   3.447 -1.3335  0.9813 -0.9730
 4419SOL    HW213590   2.203   0.327   3.525 -1.1339  1.1329 -0.5564
 4420SOL     OW13591   4.001   3.213   5.496  0.1883  0.3745  0.0547
 4420SOL    HW113592   3.952   3.236   5.417 -0.2835  1.3220  0.6212
 4420SOL    HW213593   4.092   3.211   5.468  0.0370  0.8776 -0.4703
 4421SOL     OW13594   3.944   0.338   1.207  0.3488  0.6790  0.1031
 4421SOL    HW113595   3.930   0.314   1.115  0.7368  1.3156 -0.1327
 4421SOL    HW213596   4.008   0.409   1.203  1.1504  0.0077  0.9445
 4422SOL     OW13597   3.933   3.601   0.898  0.1912  0.2846  0.0717
 4422SOL    HW113598   4.005   3.664   0.888 -1.7763  2.4423 -0.9661
 4422SOL    HW213599   3.932   3.581   0.992  1.1008  1.5129  0.3635
 4423SOL     OW13600   0.884   2.457   1.481 -0.2391 -0.5065 -0.4148
 4423SOL    HW113601   0.963   2.467   1.535 -1.0674  2.3189  0.3292
 4423SOL    HW213602   0.849   2.371   1.506 -0.4358  0.5896  3.3474
 4424SOL     OW13603   5.507   1.632   4.777  0.1603 -0.0951 -0.1880
 4424SOL    HW113604   5.502   1.590   4.692 -1.0722 -1.0769  0.3541
 4424SOL    HW213605   5.416   1.638   4.807  0.4825  1.2533  0.5719
 4425SOL     OW13606   4.122   1.327   4.593  0.1126  0.0354  0.3065
 4425SOL    HW113607   4.052   1.351   4.654  1.4413 -0.1234  1.9215
 4425SOL    HW213608   4.086   1.348   4.506 -2.2518 -0.8495  1.0387
 4426SOL     OW13609   4.491   3.419   0.900 -0.1970  0.2833  0.8311
 4426SOL    HW113610   4.426   3.406   0.970 -0.4268 -0.6859  0.4485
 4426SOL    HW213611   4.453   3.375   0.824 -0.0929  1.6176  0.0021
 4427SOL     OW13612   1.807   4.142   4.333 -0.5171 -0.1022  0.5788
 4427SOL    HW113613   1.840   4.177   4.415 -3.7048  0.8408  1.5372
 4427SOL    HW213614   1.732   4.198   4.311 -0.8367 -1.4381 -2.0341
 4428SOL     OW13615   1.381   3.234   5.066 -0.2545 -0.1039 -0.1850
 4428SOL    HW113616   1.401   3.208   4.976 -1.4829 -0.0292 -0.4821
 4428SOL    HW213617   1.293   3.201   5.082 -0.5560  1.0082  0.5489
 4429SOL     OW13618   5.526   0.217   2.965 -0.2858  0.3520  0.0844
 4429SOL    HW113619   5.550   0.192   3.055 -2.0752 -1.1167  0.1956
 4429SOL    HW213620   5.539   0.312   2.962  1.0938  0.2312  1.4775
 4430SOL     OW13621   3.716   1.334   0.272 -0.5366  0.3345 -0.1307
 4430SOL    HW113622   3.750   1.389   0.343 -2.3992 -0.6265  1.5866
 4430SOL    HW213623   3.759   1.249   0.285 -0.7678  0.2006 -0.2329
 4431SOL     OW13624   3.230   3.032   1.027  0.6873  0.3308  0.1037
 4431SOL    HW113625   3.304   3.065   0.976  1.5729  0.5975  1.5579
 4431SOL    HW213626   3.269   2.979   1.096 -0.5789 -1.0854 -0.2295
 4432SOL     OW13627   2.945   4.204   1.370  0.1015 -0.2866  0.2407
 4432SOL    HW113628   3.031   4.172   1.345  0.6015  0.8145  0.5089
 4432SOL    HW213629   2.963   4.274   1.433 -1.0146 -0.6488  0.9769
 4433SOL     OW13630   4.113   0.518   4.014  0.7820 -0.1642 -0.3610
 4433SOL    HW113631   4.167   0.591   3.982 -0.1544 -0.0068 -1.6009
 4433SOL    HW213632   4.166   0.440   3.997  1.4640  0.1447  0.2741
 4434SOL     OW13633   2.268   4.897   0.403  0.3963 -0.0527  0.4449
 4434SOL    HW113634   2.308   4.825   0.452 -0.9355 -0.3806  1.0694
 4434SOL    HW213635   2.252   4.965   0.468 -1.3205 -0.4602  0.4665
 4435SOL     OW13636   2.126   0.520   0.942 -0.1218 -0.5008 -0.2393
 4435SOL    HW113637   2.203   0.465   0.956  0.6128  1.0065  1.8642
 4435SOL    HW213638   2.060   0.460   0.907  1.4033 -2.2061 -0.2629
 4436SOL     OW13639   1.625   1.586   5.245 -0.1333 -0.4313 -0.3009
 4436SOL    HW113640   1.633   1.571   5.339 -1.8335  1.7175  0.2240
 4436SOL    HW213641   1.705   1.549   5.208  0.8462 -0.7357  2.0423
 4437SOL     OW13642   2.706   2.894   0.085 -0.6741 -0.1539 -0.0750
 4437SOL    HW113643   2.687   2.979   0.047 -0.1496 -0.2546 -0.5660
 4437SOL    HW213644   2.794   2.902   0.121 -0.3292 -0.7084 -0.7796
 4438SOL     OW13645   0.125   0.217   4.943  0.0902 -0.6522  0.0933
 4438SOL    HW113646   0.189   0.288   4.949  1.5324 -1.9550  0.4730
 4438SOL    HW213647   0.062   0.234   5.013  0.6838  0.0123  0.4667
 4439SOL     OW13648   5.082   3.384   4.689  0.2409  0.0722 -0.1650
 4439SOL    HW113649   5.174   3.381   4.717  0.2899  2.2316  0.0009
 4439SOL    HW213650   5.038   3.318   4.742  1.4145  0.1358  0.9123
 4440SOL     OW13651   0.160   0.351   1.954  0.1576  0.9324  0.2152
 4440SOL    HW113652   0.167   0.387   1.866  1.2072  0.3225  0.0479
 4440SOL    HW213653   0.142   0.427   2.009  1.4696  1.5905 -0.2558
 4441SOL     OW13654   2.288   2.141   0.174  0.1737  0.5319  0.1680
 4441SOL    HW113655   2.244   2.198   0.111  0.2332  0.6344  0.2187
 4441SOL    HW213656   2.292   2.055   0.131 -1.3118  0.1741  0.7077
 4442SOL     OW13657   4.502   5.061   5.243  0.7388  0.5434  0.7777
 4442SOL    HW113658   4.415   5.103   5.249  0.0610 -0.6317 -0.6683
 4442SOL    HW213659   4.493   4.980   5.293  1.2483  0.7980  1.2881
 4443SOL     OW13660   0.395   5.188   4.570  0.0007  0.0666  0.6256
 4443SOL    HW113661   0.372   5.269   4.525  0.7026  0.5402  1.0938
 4443SOL    HW213662   0.424   5.217   4.657 -0.1225 -0.7228  0.9370
 4444SOL     OW13663   0.545   5.365   2.994 -0.1587 -0.0316 -0.3375
 4444SOL    HW113664   0.471   5.330   2.945 -0.6830 -1.5258  1.4307
 4444SOL    HW213665   0.618   5.363   2.933 -0.6216 -2.5474 -0.8560
 4445SOL     OW13666   4.159   3.092   0.745  0.1415 -0.0240 -0.2983
 4445SOL    HW113667   4.103   3.152   0.795 -0.2754 -0.4498 -0.2526
 4445SOL    HW213668   4.144   3.007   0.785  2.1411  0.1325  0.8358
 4446SOL     OW13669   2.948   2.520   0.936  0.0034 -0.3872 -0.2436
 4446SOL    HW113670   2.933   2.606   0.898  2.6378 -0.5171 -1.6866
 4446SOL    HW213671   2.982   2.537   1.024  2.7400  0.1354 -1.3632
 4447SOL     OW13672   0.338   4.875   2.115  0.1224 -0.0627 -0.5927
 4447SOL    HW113673   0.279   4.918   2.054  0.2125  0.2045 -0.4916
 4447SOL    HW213674   0.339   4.932   2.192  1.9349  0.9006 -1.2994
 4448SOL     OW13675   5.018   4.216   4.815 -0.3367 -0.0684  0.0113
 4448SOL    HW113676   4.961   4.189   4.887 -1.9719  2.1828 -0.3812
 4448SOL    HW213677   5.073   4.285   4.853 -0.8156  0.7270 -0.7234
 4449SOL     OW13678   1.626   1.953   2.885  0.0757 -0.3643 -0.2904
 4449SOL    HW113679   1.561   1.886   2.906 -1.7120  0.7077 -2.1242
 4449SOL    HW213680   1.658   1.928   2.799  1.2313 -0.2261  0.0996
 4450SOL     OW13681   4.910   2.977   5.098 -0.9340 -0.2085  0.1607
 4450SOL    HW113682   4.996   3.019   5.097 -0.3355 -1.3931  0.4568
 4450SOL    HW213683   4.901   2.939   5.010 -0.7798 -0.7883  0.3878
 4451SOL     OW13684   4.696   0.469   4.845 -0.3779 -0.1427  0.0539
 4451SOL    HW113685   4.700   0.538   4.778 -1.1123 -1.9619 -1.9027
 4451SOL    HW213686   4.648   0.509   4.918 -0.7536  1.4148 -1.0336
 4452SOL     OW13687   0.038   5.077   5.033  0.2042  0.4228 -0.2437
 4452SOL    HW113688  -0.004   5.134   4.969  0.8975  1.3732  0.1377
 4452SOL    HW213689   0.064   5.000   4.982  0.8346  1.2108 -1.1390
 4453SOL     OW13690   3.045   4.575   5.428 -0.1511  0.3792 -0.1846
 4453SOL    HW113691   3.102   4.626   5.485  1.8142 -1.9281  0.0551
 4453SOL    HW213692   3.059   4.612   5.341  1.5399  0.0443 -0.0754
 4454SOL     OW13693   2.717   0.736   2.896  0.7071  0.1049 -0.2975
 4454SOL    HW113694   2.660   0.713   2.969  0.6503 -0.5992 -0.5620
 4454SOL    HW213695   2.788   0.672   2.900 -0.8281 -1.8312 -2.6416
 4455SOL     OW13696   4.312   0.369   1.792  0.0707  0.6283 -0.0537
 4455SOL    HW113697   4.357   0.343   1.872  0.2459  0.1690 -0.2951
 4455SOL    HW213698   4.333   0.299   1.730 -0.6455  0.6119 -0.2840
 4456SOL     OW13699   0.656   2.097   2.665 -0.2191 -0.3182  0.6319
 4456SOL    HW113700   0.710   2.160   2.617 -0.5887  1.2304  2.1789
 4456SOL    HW213701   0.588   2.151   2.706 -1.0107 -1.8378  1.3472
 4457SOL     OW13702   2.544   1.548   5.207  0.5200 -0.2305  0.3318
 4457SOL    HW113703   2.605   1.495   5.257  2.3427  1.5760  0.0931
 4457SOL    HW213704   2.559   1.637   5.237  0.1246  0.6192 -1.8580
 4458SOL     OW13705   0.804   5.403   0.048 -0.1676 -0.1630  0.1236
 4458SOL    HW113706   0.871   5.430  -0.014  0.2405 -0.7138  0.3113
 4458SOL    HW213707   0.739   5.357  -0.005 -0.1720 -0.0203  0.0052
 4459SOL     OW13708   3.254   1.697   1.671 -0.0383 -1.0476 -0.4248
 4459SOL    HW113709   3.215   1.749   1.741  0.0016 -0.7953 -0.5889
 4459SOL    HW213710   3.189   1.630   1.652  0.2901 -1.5966  0.3937
 4460SOL     OW13711   3.011   2.647   0.363  0.4810  0.3836 -0.3416
 4460SOL    HW113712   3.041   2.708   0.295  0.8337  1.7102  0.9758
 4460SOL    HW213713   3.032   2.691   0.445 -0.6388 -0.8672  0.6312
 4461SOL     OW13714   0.680   1.210   0.009  0.5204  0.3486 -0.6471
 4461SOL    HW113715   0.763   1.199  -0.036  0.9262  2.1946 -0.4107
 4461SOL    HW213716   0.615   1.219  -0.061  0.5865 -0.6702 -0.8353
 4462SOL     OW13717   4.027   0.306   3.781 -0.1508  0.1657  0.0865
 4462SOL    HW113718   4.099   0.257   3.821 -0.7389 -0.1522  0.7845
 4462SOL    HW213719   4.005   0.256   3.702 -0.3899 -0.4115  0.5069
 4463SOL     OW13720   3.741   0.993   3.017  0.2880  0.1608  0.2714
 4463SOL    HW113721   3.740   1.062   3.082 -1.2112 -1.2481  1.8029
 4463SOL    HW213722   3.673   1.017   2.954  0.9837  0.9628 -0.1778
 4464SOL     OW13723   5.188   1.406   0.072 -0.5445  0.3625  0.2173
 4464SOL    HW113724   5.187   1.310   0.082  0.5631  0.4966  1.7854
 4464SOL    HW213725   5.272   1.424   0.029  0.2443  0.7811  1.8820
 4465SOL     OW13726   4.935   1.505   4.861  0.3734 -0.5286 -0.1124
 4465SOL    HW113727   4.946   1.436   4.795 -0.2496 -1.0013  0.2712
 4465SOL    HW213728   4.973   1.583   4.821 -0.3179 -0.7266 -1.1817
 4466SOL     OW13729   3.512   4.989   3.032 -0.0552  0.4705 -0.3341
 4466SOL    HW113730   3.571   4.977   3.106 -0.1832  0.9422 -0.1523
 4466SOL    HW213731   3.533   4.917   2.973 -0.0946 -0.0307  0.2551
 4467SOL     OW13732   5.292   3.708   3.739 -0.1936  0.1563 -0.3210
 4467SOL    HW113733   5.260   3.618   3.751  1.4366 -0.5326 -1.0083
 4467SOL    HW213734   5.367   3.714   3.798 -0.6416  1.2635  0.1423
 4468SOL     OW13735   4.687   5.226   0.225  0.3261  0.6116 -0.1482
 4468SOL    HW113736   4.724   5.298   0.275  0.8510  0.4353 -0.2873
 4468SOL    HW213737   4.733   5.148   0.256  0.8597  0.5385 -1.1024
 4469SOL     OW13738   4.136   0.126   0.425 -0.2548  0.5151  0.5362
 4469SOL    HW113739   4.102   0.063   0.362 -0.8238  0.9806  0.3761
 4469SOL    HW213740   4.102   0.097   0.510 -1.1094  1.0196  0.3680
 4470SOL     OW13741   3.923   2.086   4.214  0.6362  0.1785  0.1575
 4470SOL    HW113742   3.964   2.024   4.274  1.5114 -0.6753 -1.3079
 4470SOL    HW213743   3.894   2.032   4.140 -2.8815  0.7799  0.9800
 4471SOL     OW13744   1.335   0.487   2.302 -0.0319 -0.0503 -0.7984
 4471SOL    HW113745   1.254   0.538   2.308 -0.4938 -0.8700 -0.0140
 4471SOL    HW213746   1.339   0.438   2.385  1.2908  0.0281 -0.8057
 4472SOL     OW13747   5.294   1.107   4.323  0.3137 -0.4927  0.5889
 4472SOL    HW113748   5.298   1.059   4.240 -1.2248 -0.4555  0.4755
 4472SOL    HW213749   5.277   1.039   4.389  0.3626 -0.3780  0.7200
 4473SOL     OW13750   2.511   2.758   0.229  0.1416  0.4591 -0.6268
 4473SOL    HW113751   2.545   2.668   0.231  1.4734  0.9779  1.9727
 4473SOL    HW213752   2.567   2.803   0.166  2.2909  0.4823  1.2194
 4474SOL     OW13753   4.675   1.537   3.581 -0.2067 -0.6545  0.2310
 4474SOL    HW113754   4.588   1.529   3.541  0.0815  0.9616 -0.7878
 4474SOL    HW213755   4.715   1.612   3.536  0.9103 -0.0539  2.1723
 4475SOL     OW13756   5.349   1.528   1.272  0.2285  0.0004 -0.1378
 4475SOL    HW113757   5.320   1.461   1.210 -2.1342  0.8551  0.0153
 4475SOL    HW213758   5.285   1.526   1.342  1.6455  0.6005  1.1932
 4476SOL     OW13759   3.555   0.813   2.783 -0.1868  0.6783 -0.2328
 4476SOL    HW113760   3.527   0.879   2.847 -2.0997 -0.4408  0.1528
 4476SOL    HW213761   3.491   0.820   2.712 -0.4557 -0.7944 -0.1534
 4477SOL     OW13762   3.797   2.381   1.528  0.3883 -0.5991 -0.1055
 4477SOL    HW113763   3.712   2.344   1.554  0.7620 -1.3306  0.0948
 4477SOL    HW213764   3.779   2.427   1.446 -0.7337  1.4548  1.2520
 4478SOL     OW13765   1.009   3.204   4.078 -1.0878 -0.2383 -0.2512
 4478SOL    HW113766   1.065   3.250   4.016 -1.3237  2.4914  1.4567
 4478SOL    HW213767   1.005   3.114   4.046  0.1348  0.7142 -3.2199
 4479SOL     OW13768   3.228   3.917   1.518  0.3669  0.5421 -0.6907
 4479SOL    HW113769   3.193   3.865   1.446  0.3835 -1.1657  0.5141
 4479SOL    HW213770   3.295   3.861   1.558 -0.6138  0.9038  1.5078
 4480SOL     OW13771   2.540   3.541   0.437  0.2977  0.0086  0.6505
 4480SOL    HW113772   2.622   3.585   0.417  0.1286 -0.3280 -0.8266
 4480SOL    HW213773   2.503   3.518   0.352  0.1331 -2.5296  1.3452
 4481SOL     OW13774   0.626   5.376   1.939 -0.4831  0.4939 -0.5045
 4481SOL    HW113775   0.565   5.418   2.000  0.0907 -0.4717  0.7389
 4481SOL    HW213776   0.710   5.375   1.985 -0.1876 -0.8051 -1.0556
 4482SOL     OW13777   5.552   5.122   4.471 -0.1923  0.2508  0.4280
 4482SOL    HW113778   5.545   5.079   4.556  2.0632 -0.4016  0.3146
 4482SOL    HW213779   5.507   5.062   4.410 -1.5425  0.5731  1.0913
 4483SOL     OW13780   1.683   4.388   4.233 -0.6621  0.6135  0.3777
 4483SOL    HW113781   1.652   4.477   4.254  1.1037  1.4578 -0.4807
 4483SOL    HW213782   1.628   4.362   4.159  0.3619  1.9476 -0.8894
 4484SOL     OW13783   1.457   0.830   4.618  0.6990  0.2141 -0.0946
 4484SOL    HW113784   1.489   0.742   4.636  0.4900  0.2170  0.2781
 4484SOL    HW213785   1.423   0.825   4.528 -1.5487 -0.7059  0.7757
 4485SOL     OW13786   2.900   0.029   2.861 -0.1326 -0.3164 -0.8687
 4485SOL    HW113787   2.871  -0.054   2.899  1.3134 -1.0525 -1.3219
 4485SOL    HW213788   2.842   0.094   2.899 -1.0071 -1.4823 -0.1562
 4486SOL     OW13789   0.419   1.233   0.927 -0.0590 -0.6250  0.2540
 4486SOL    HW113790   0.465   1.278   0.999  1.3720 -1.1600 -0.3010
 4486SOL    HW213791   0.327   1.253   0.941  0.4230  1.3171  0.8357
 4487SOL     OW13792   0.740   4.002   1.097 -0.1418 -0.7180 -0.3259
 4487SOL    HW113793   0.666   4.057   1.071 -0.1055 -0.7178 -0.4256
 4487SOL    HW213794   0.815   4.039   1.051  0.8587  2.3028  3.4357
 4488SOL     OW13795   1.599   0.736   1.305 -0.2376  0.0197  0.3382
 4488SOL    HW113796   1.520   0.683   1.313 -0.6877  0.2528 -2.2227
 4488SOL    HW213797   1.568   0.826   1.305 -0.0009  0.1134 -0.6627
 4489SOL     OW13798   2.081   0.864   4.486 -0.3157 -0.0581  0.3337
 4489SOL    HW113799   2.027   0.931   4.444  2.1524  0.8571 -1.5212
 4489SOL    HW213800   2.109   0.903   4.568  1.5924  1.4923 -1.0037
 4490SOL     OW13801   0.912   2.912   1.101  0.0814 -0.4578 -0.1026
 4490SOL    HW113802   0.830   2.952   1.132 -0.2855 -0.6685 -0.7787
 4490SOL    HW213803   0.947   2.976   1.039  1.1457  0.2560  1.2191
 4491SOL     OW13804   0.326   4.929   2.453 -0.1264  0.3714  0.1834
 4491SOL    HW113805   0.420   4.947   2.450 -0.0497 -0.1999 -1.1561
 4491SOL    HW213806   0.289   4.979   2.381 -0.3566 -2.2077 -1.5457
 4492SOL     OW13807   4.214   3.806   1.970  0.7764 -0.4068  0.1047
 4492SOL    HW113808   4.158   3.744   1.923 -1.5073 -0.6796  3.0211
 4492SOL    HW213809   4.198   3.890   1.926 -2.1988 -0.4267  1.0144
 4493SOL     OW13810   2.900   2.688   3.980 -0.0484  0.3722  0.5700
 4493SOL    HW113811   2.871   2.631   4.051  0.2893  0.0070  0.4106
 4493SOL    HW213812   2.879   2.776   4.012 -1.0481  0.1400  0.5951
 4494SOL     OW13813   0.213   5.393   3.886 -0.3950 -0.2382  0.1803
 4494SOL    HW113814   0.228   5.303   3.914 -1.2417 -0.7496 -0.9733
 4494SOL    HW213815   0.119   5.398   3.871 -0.3945  0.9250  0.4938
 4495SOL     OW13816   2.030   2.041   3.127 -0.1231  0.2021  0.0838
 4495SOL    HW113817   1.983   1.964   3.096  0.7340 -0.4208  0.3115
 4495SOL    HW213818   2.039   2.026   3.222  0.7754  0.1841 -0.0047
 4496SOL     OW13819   4.527   3.409   0.223 -0.1568 -0.4794 -0.0575
 4496SOL    HW113820   4.467   3.459   0.278 -0.0341 -1.7767  1.2936
 4496SOL    HW213821   4.614   3.443   0.245 -0.2818  0.5280 -1.0890
 4497SOL     OW13822   3.595   1.665   4.013  0.1084 -0.4968  0.2384
 4497SOL    HW113823   3.615   1.692   4.103 -0.8170  1.5159 -0.1193
 4497SOL    HW213824   3.633   1.734   3.958 -3.5964  1.0062 -0.6468
 4498SOL     OW13825   1.213   3.456   0.444 -0.6201  0.1504 -0.2656
 4498SOL    HW113826   1.278   3.515   0.405  0.0706  0.5094  1.3887
 4498SOL    HW213827   1.158   3.513   0.498 -0.6540 -0.5522  0.4501
 4499SOL     OW13828   5.569   5.359   2.816 -0.0305 -0.0120 -0.1451
 4499SOL    HW113829   5.566   5.375   2.722 -2.2065  2.8519  0.3446
 4499SOL    HW213830   5.655   5.391   2.844 -0.7397  2.4513 -0.6629
 4500SOL     OW13831   3.186   0.562   0.671 -0.9905  0.3065  0.2971
 4500SOL    HW113832   3.107   0.516   0.644 -1.6305  1.5228  0.0439
 4500SOL    HW213833   3.250   0.493   0.689 -1.7410 -0.6391 -0.6426
 4501SOL     OW13834   4.344   3.546   1.783  0.0269  0.2166  0.2391
 4501SOL    HW113835   4.411   3.574   1.845  0.0635 -0.3643  0.4646
 4501SOL    HW213836   4.295   3.478   1.829  0.2372 -0.4272 -0.4661
 4502SOL     OW13837   5.345   2.070   2.171  0.7156 -0.4455 -0.0684
 4502SOL    HW113838   5.254   2.055   2.144 -0.5228 -0.5149  3.8125
 4502SOL    HW213839   5.357   2.165   2.162  0.0509 -0.3442  0.0480
 4503SOL     OW13840   4.222   2.067   3.440 -0.6659  0.0018  0.3377
 4503SOL    HW113841   4.251   1.976   3.435 -0.5604 -0.0938  2.3024
 4503SOL    HW213842   4.281   2.108   3.504 -0.5454  1.5197 -0.7094
 4504SOL     OW13843   3.797   3.051   4.241  0.1847 -0.1134 -0.0528
 4504SOL    HW113844   3.762   3.061   4.330 -0.8939  1.8321 -0.6721
 4504SOL    HW213845   3.778   2.960   4.219  0.5610 -0.6530  1.7436
 4505SOL     OW13846   4.575   3.241   2.966 -0.2742 -0.2883 -0.1524
 4505SOL    HW113847   4.543   3.174   3.026  1.8848 -0.4877  0.8631
 4505SOL    HW213848   4.562   3.323   3.013 -0.8448 -0.2158 -0.4411
 4506SOL     OW13849   5.058   2.474   3.339  0.3127  0.1047 -0.9894
 4506SOL    HW113850   5.099   2.559   3.325  1.3778 -0.1962  0.1426
 4506SOL    HW213851   5.000   2.488   3.414  1.4585 -0.4460  0.0327
 4507SOL     OW13852   1.740   3.898   1.426  0.8690 -0.2900 -0.1371
 4507SOL    HW113853   1.751   3.804   1.409 -0.7122 -0.5126 -0.0115
 4507SOL    HW213854   1.740   3.905   1.521  0.1355 -0.2767 -0.1360
 4508SOL     OW13855   1.562   3.062   1.570 -0.2584  0.0158 -0.2410
 4508SOL    HW113856   1.641   3.096   1.612 -1.1419  0.9550  0.7339
 4508SOL    HW213857   1.593   3.006   1.500  1.2699  1.0189 -0.3931
 4509SOL     OW13858   1.592   2.985   0.622 -0.1890 -0.0926  0.4573
 4509SOL    HW113859   1.639   3.035   0.556  0.6793 -1.6127 -0.0993
 4509SOL    HW213860   1.648   2.990   0.700  0.3291 -0.8992  0.1463
 4510SOL     OW13861   3.258   2.609   4.570  0.1762 -0.8573 -0.0529
 4510SOL    HW113862   3.216   2.586   4.487 -0.8589  0.9093 -0.0353
 4510SOL    HW213863   3.204   2.568   4.637 -0.4002 -0.2248 -0.1302
 4511SOL     OW13864   4.598   0.646   3.028 -0.4262 -0.1387 -0.4512
 4511SOL    HW113865   4.525   0.704   3.009  0.2462  0.5035 -1.0668
 4511SOL    HW213866   4.673   0.704   3.040 -0.2055 -0.7218  1.1507
 4512SOL     OW13867   2.147   4.442   1.309  0.1546 -0.0272 -0.8552
 4512SOL    HW113868   2.093   4.385   1.253 -1.0324  1.1548 -0.9200
 4512SOL    HW213869   2.092   4.462   1.384  1.3735 -0.7434  0.2696
 4513SOL     OW13870   2.407   2.586   5.542  0.1244  0.0053  0.2248
 4513SOL    HW113871   2.422   2.494   5.565  0.4486 -0.3783 -1.4510
 4513SOL    HW213872   2.399   2.586   5.446 -1.6013  1.4829  0.3480
 4514SOL     OW13873   2.648   2.168   2.317  0.3309 -0.2964 -0.0058
 4514SOL    HW113874   2.603   2.088   2.346  0.5144  0.0904  1.3519
 4514SOL    HW213875   2.601   2.239   2.361 -0.7123  0.4769 -2.2750
 4515SOL     OW13876   0.872   0.663   4.788 -0.1410 -0.1785 -0.3822
 4515SOL    HW113877   0.803   0.617   4.739 -1.0617  1.6368 -0.8164
 4515SOL    HW213878   0.928   0.701   4.720  1.3840 -1.7351 -0.0312
 4516SOL     OW13879   3.410   1.053   2.005  0.9683 -0.0204 -0.0652
 4516SOL    HW113880   3.458   1.130   1.974 -1.3596  1.2236 -0.7106
 4516SOL    HW213881   3.414   1.058   2.100  0.2557  1.2824 -0.1006
 4517SOL     OW13882   4.933   3.084   2.950 -0.0136  0.0162  0.3367
 4517SOL    HW113883   4.967   3.035   3.026  0.7549  0.3378  0.2068
 4517SOL    HW213884   4.956   3.029   2.875 -0.0054  0.1125  0.2690
 4518SOL     OW13885   5.287   0.050   3.395  0.0003  0.4294  0.2466
 4518SOL    HW113886   5.194   0.028   3.390 -0.0748  1.1053 -2.1919
 4518SOL    HW213887   5.325   0.011   3.316  1.5010  1.4556  0.4365
 4519SOL     OW13888   4.196   4.684   3.580 -0.0228 -0.1088 -0.1624
 4519SOL    HW113889   4.155   4.755   3.630 -0.0653 -1.0268  1.1227
 4519SOL    HW213890   4.288   4.686   3.606 -0.5848 -2.4092  2.1586
 4520SOL     OW13891   0.560   5.549   0.775 -0.2655 -0.4459  0.5969
 4520SOL    HW113892   0.645   5.576   0.809  0.2854  3.3299 -3.2641
 4520SOL    HW213893   0.579   5.470   0.724  1.5371  1.7099 -2.2548
 4521SOL     OW13894   2.774   5.293   1.722 -0.0119 -0.3838  0.2454
 4521SOL    HW113895   2.692   5.330   1.754  0.3860 -0.4976  1.4068
 4521SOL    HW213896   2.799   5.349   1.648 -0.0556  0.9176  1.1983
 4522SOL     OW13897   1.266   4.844   1.635 -0.0972 -0.3380 -0.1633
 4522SOL    HW113898   1.236   4.932   1.658  2.4347  0.2891  1.0042
 4522SOL    HW213899   1.212   4.785   1.686 -0.8735  0.6213  0.1305
 4523SOL     OW13900   4.376   5.203   1.858  0.0578  0.0582  0.0396
 4523SOL    HW113901   4.441   5.183   1.925  0.8467  1.5713 -0.2691
 4523SOL    HW213902   4.334   5.118   1.840  2.7667 -1.1858 -0.6430
 4524SOL     OW13903   4.131   3.014   1.296 -0.3233 -0.1628 -0.2365
 4524SOL    HW113904   4.095   2.992   1.382 -1.5095  0.2266 -0.6298
 4524SOL    HW213905   4.057   3.047   1.246  0.5426  0.5093 -1.1117
 4525SOL     OW13906   2.482   0.038   1.513 -0.4915 -0.4304 -0.7655
 4525SOL    HW113907   2.437   0.056   1.596 -1.0803  0.0976 -1.1955
 4525SOL    HW213908   2.455   0.109   1.455  1.1794  0.0868 -0.9273
 4526SOL     OW13909   2.418   0.455   5.170 -0.2359 -0.2596  0.2858
 4526SOL    HW113910   2.500   0.406   5.160 -0.7232 -0.4057 -3.5924
 4526SOL    HW213911   2.441   0.544   5.142 -0.3849  0.8298  3.3801
 4527SOL     OW13912   5.382   3.907   0.225  0.2654 -0.0325 -0.0866
 4527SOL    HW113913   5.347   3.909   0.135 -0.1165  2.0967  0.0763
 4527SOL    HW213914   5.462   3.855   0.218  0.1655 -0.0189 -1.6417
 4528SOL     OW13915   3.142   0.580   3.950 -0.3807  0.1780  0.3767
 4528SOL    HW113916   3.175   0.653   3.897 -1.0328 -0.0009 -0.2905
 4528SOL    HW213917   3.164   0.604   4.040  0.5205  0.6070  0.0457
 4529SOL     OW13918   1.557   3.060   3.402 -0.0679 -0.3401 -0.3463
 4529SOL    HW113919   1.536   3.011   3.323  3.8905 -1.0573 -1.0611
 4529SOL    HW213920   1.653   3.066   3.402 -0.1557  2.9424  2.4094
 4530SOL     OW13921   4.952   2.839   2.268 -0.0204  0.5218 -0.0104
 4530SOL    HW113922   4.907   2.777   2.326 -0.6478  0.3625 -0.6506
 4530SOL    HW213923   4.936   2.805   2.180  1.0221  0.6977 -0.2679
 4531SOL     OW13924   0.643   0.076   3.054 -0.2275  0.4895  0.3221
 4531SOL    HW113925   0.626   0.137   2.982 -1.2481  0.0794  0.2029
 4531SOL    HW213926   0.591  -0.001   3.032  1.1442 -0.4686  0.4193
 4532SOL     OW13927   3.262   1.431   3.712  0.3545 -0.1828  0.0370
 4532SOL    HW113928   3.200   1.384   3.768  0.1527 -0.5650 -0.5022
 4532SOL    HW213929   3.348   1.410   3.749  0.2304 -0.5565  0.1190
 4533SOL     OW13930   2.210   0.263   1.691  0.0284  0.3194 -0.0723
 4533SOL    HW113931   2.234   0.356   1.690  0.2976  0.2432 -3.2332
 4533SOL    HW213932   2.287   0.219   1.726 -0.7925  1.4051  3.3377
 4534SOL     OW13933   0.695   2.213   2.075 -0.4754 -0.2488  0.0919
 4534SOL    HW113934   0.697   2.156   1.998  0.2208 -0.7048  0.4494
 4534SOL    HW213935   0.747   2.168   2.141  0.2616  0.8928  0.3185
 4535SOL     OW13936   2.147   2.559   0.073 -0.4836  0.4771 -0.1208
 4535SOL    HW113937   2.124   2.632   0.131  0.1116  1.3635 -0.9884
 4535SOL    HW213938   2.220   2.591   0.020  0.5783 -1.1619  0.2983
 4536SOL     OW13939   2.102   4.789   3.282  0.1334  0.0391 -0.3144
 4536SOL    HW113940   2.182   4.757   3.324  0.6364  0.4145 -0.9778
 4536SOL    HW213941   2.133   4.845   3.211 -0.6870  3.1882  1.6962
 4537SOL     OW13942   0.044   1.018   3.866  0.1038 -0.5559  0.3644
 4537SOL    HW113943   0.051   1.097   3.813 -0.7551  0.7260  2.0925
 4537SOL    HW213944  -0.048   0.994   3.862  0.1075 -0.6827  0.9466
 4538SOL     OW13945   2.385   3.570   4.865 -0.1923  0.6735 -0.4058
 4538SOL    HW113946   2.439   3.494   4.887  0.9050  1.1212 -1.4924
 4538SOL    HW213947   2.296   3.545   4.890  0.5279 -0.0424  1.4710
 4539SOL     OW13948   1.045   4.493   4.495 -0.6134 -1.1583  0.4718
 4539SOL    HW113949   1.125   4.441   4.487 -0.8620 -1.3489 -1.0416
 4539SOL    HW213950   1.052   4.558   4.424 -0.0937  1.1917  2.5907
 4540SOL     OW13951   0.302   3.042   4.208 -0.3709 -0.5345 -0.2932
 4540SOL    HW113952   0.366   2.972   4.199  0.7951  0.4374  0.2046
 4540SOL    HW213953   0.260   3.026   4.293  0.9366  0.2037  0.4965
 4541SOL     OW13954   3.786   1.352   2.195  0.1052 -0.5687 -0.0144
 4541SOL    HW113955   3.785   1.261   2.166 -1.4512 -1.0103  1.3368
 4541SOL    HW213956   3.711   1.359   2.255 -0.2232  1.7735 -0.6451
 4542SOL     OW13957   3.745   3.279   2.735 -0.5613  0.0417 -0.6821
 4542SOL    HW113958   3.753   3.296   2.641  1.9005 -1.0436 -0.6969
 4542SOL    HW213959   3.685   3.205   2.741  0.0547 -0.5342 -1.4802
 4543SOL     OW13960   1.383   0.640   0.612  0.1227  0.2717 -0.4810
 4543SOL    HW113961   1.302   0.629   0.661  0.6622  2.2205  0.9308
 4543SOL    HW213962   1.372   0.723   0.567  0.6563 -0.2927 -1.6645
 4544SOL     OW13963   4.518   4.819   4.760  0.2288 -0.3398 -0.3464
 4544SOL    HW113964   4.515   4.889   4.826 -2.5976  1.1751 -1.9718
 4544SOL    HW213965   4.562   4.859   4.685 -0.5783 -0.5675 -0.9556
 4545SOL     OW13966   4.483   2.019   5.110 -0.8475  0.1390 -0.7543
 4545SOL    HW113967   4.469   1.930   5.079  1.1478 -0.0974 -1.0861
 4545SOL    HW213968   4.462   2.017   5.203 -1.7332 -0.4423 -0.9676
 4546SOL     OW13969   2.272   4.247   3.338  0.1429  0.8243 -0.4261
 4546SOL    HW113970   2.331   4.248   3.263 -0.3600  0.4895 -0.8366
 4546SOL    HW213971   2.204   4.311   3.316  0.0753  0.8306 -0.1966
 4547SOL     OW13972   0.130   2.463   3.079 -0.3797 -0.1995 -0.2301
 4547SOL    HW113973   0.071   2.471   3.005  0.8568 -0.1018 -1.2259
 4547SOL    HW213974   0.075   2.434   3.151 -2.5114  4.1612  0.0471
 4548SOL     OW13975   2.594   1.727   3.155 -0.2048 -0.0825  0.3256
 4548SOL    HW113976   2.513   1.733   3.105 -0.0029  1.3280  0.1366
 4548SOL    HW213977   2.656   1.686   3.095  0.0792  1.7580 -0.6676
 4549SOL     OW13978   4.324   0.881   4.851 -0.1268 -0.6836  0.0491
 4549SOL    HW113979   4.296   0.972   4.867  0.1241 -0.5951 -0.0114
 4549SOL    HW213980   4.272   0.829   4.912  0.4031 -0.4049  0.7417
 4550SOL     OW13981   0.086   1.240   3.726 -0.1432 -0.1152 -0.7271
 4550SOL    HW113982   0.083   1.317   3.784 -0.1509 -0.6709  0.0203
 4550SOL    HW213983   0.095   1.277   3.638 -1.1134  0.7700 -0.4672
 4551SOL     OW13984   4.281   3.645   3.622 -0.7105  0.1117  0.1407
 4551SOL    HW113985   4.350   3.674   3.562 -0.4971 -0.8463 -0.0838
 4551SOL    HW213986   4.285   3.550   3.619 -0.1307  0.0552  2.3410
 4552SOL     OW13987   0.581   1.338   4.960 -0.0347 -0.0832 -0.1566
 4552SOL    HW113988   0.580   1.404   5.030  0.6140  0.7254 -0.8946
 4552SOL    HW213989   0.669   1.300   4.965 -0.1529 -0.3663 -0.2256
 4553SOL     OW13990   0.282   3.211   2.337  0.8409  0.3969  0.1733
 4553SOL    HW113991   0.293   3.231   2.430 -1.9344  3.0294  0.0429
 4553SOL    HW213992   0.333   3.278   2.292  2.4908 -1.1063 -0.2299
 4554SOL     OW13993   0.282   4.939   4.617  0.2737 -0.1580 -0.5251
 4554SOL    HW113994   0.319   5.018   4.579  1.0437 -0.5622 -0.6092
 4554SOL    HW213995   0.342   4.869   4.592 -0.4626 -0.7900 -0.5439
 4555SOL     OW13996   3.375   4.303   0.770 -0.3559 -0.5081 -0.1120
 4555SOL    HW113997   3.413   4.339   0.850  0.0863  0.2338 -0.6559
 4555SOL    HW213998   3.292   4.349   0.760  0.3523  0.5895 -0.9752
 4556SOL     OW13999   2.203   1.668   0.099 -0.1453 -0.4998 -0.2135
 4556SOL    HW114000   2.292   1.671   0.064 -0.9500  1.5056 -2.2295
 4556SOL    HW214001   2.169   1.756   0.084 -2.2093 -1.0296  1.2385
 4557SOL     OW14002   3.131   0.930   3.147 -0.2836 -0.4356 -0.3259
 4557SOL    HW114003   3.100   0.841   3.165  1.5396 -1.4574 -2.0413
 4557SOL    HW214004   3.209   0.941   3.202 -0.3668  0.0253 -0.2933
 4558SOL     OW14005   0.897   4.201   1.277 -0.1221  0.2956 -0.9137
 4558SOL    HW114006   0.806   4.225   1.260 -0.4145 -0.9673 -1.1320
 4558SOL    HW214007   0.893   4.142   1.351  0.5166  0.1568 -0.9905
 4559SOL     OW14008   2.278   0.124   1.342 -0.3758 -0.2864 -0.1417
 4559SOL    HW114009   2.271   0.029   1.326 -0.8608 -0.2705 -0.0389
 4559SOL    HW214010   2.187   0.155   1.340 -0.0578  0.6050 -2.8688
 4560SOL     OW14011   5.471   1.243   5.078 -0.2134 -0.2349 -0.5197
 4560SOL    HW114012   5.510   1.157   5.060 -0.2446  0.1088 -2.3670
 4560SOL    HW214013   5.456   1.244   5.172  0.2052 -2.0800 -0.4228
 4561SOL     OW14014   5.562   4.223   1.286  0.4709 -0.3335  0.5079
 4561SOL    HW114015   5.629   4.269   1.336  1.5921  1.2409 -2.3087
 4561SOL    HW214016   5.504   4.185   1.352  2.4591  0.7593  2.9664
 4562SOL     OW14017   5.195   4.700   4.866  0.4657 -0.3879  0.2777
 4562SOL    HW114018   5.282   4.660   4.865  0.3537 -0.6371  0.5587
 4562SOL    HW214019   5.198   4.765   4.796  0.1904 -1.8746 -1.1421
 4563SOL     OW14020   3.548   0.635   3.414 -0.0129 -0.2204  0.4432
 4563SOL    HW114021   3.519   0.575   3.345 -1.8466  1.2519 -0.1031
 4563SOL    HW214022   3.616   0.586   3.461  0.6088 -1.6014 -1.8074
 4564SOL     OW14023   5.538   3.330   1.924  0.0664  0.7986 -0.0147
 4564SOL    HW114024   5.493   3.373   1.851 -1.0282  0.6487  0.5529
 4564SOL    HW214025   5.469   3.315   1.989  0.6880 -0.6266  0.3403
 4565SOL     OW14026   1.898   4.763   2.726  0.5196 -0.1947 -0.2717
 4565SOL    HW114027   1.955   4.694   2.695 -0.4455  0.0618 -2.7676
 4565SOL    HW214028   1.950   4.843   2.718 -0.1623  0.0510 -2.6267
 4566SOL     OW14029   5.149   5.061   4.554  1.1318 -0.1125  0.5242
 4566SOL    HW114030   5.132   5.092   4.643  0.2738 -0.3307  0.4437
 4566SOL    HW214031   5.065   5.025   4.525  1.1185  0.8634 -0.7401
 4567SOL     OW14032   0.853   2.680   3.190 -0.8806 -0.3286 -0.4993
 4567SOL    HW114033   0.910   2.737   3.139 -1.3917  0.9527  0.3369
 4567SOL    HW214034   0.765   2.700   3.159 -1.1713  0.2809  0.6994
 4568SOL     OW14035   4.931   2.477   0.473  0.6572 -0.1237 -0.0986
 4568SOL    HW114036   5.019   2.495   0.507  1.6068 -0.8264 -2.1549
 4568SOL    HW214037   4.933   2.384   0.449 -1.3428 -0.7164  1.8347
 4569SOL     OW14038   5.304   5.538   1.813  0.6484 -0.2627 -0.2469
 4569SOL    HW114039   5.384   5.590   1.806 -0.5082  1.6358  0.5788
 4569SOL    HW214040   5.308   5.499   1.900  0.0339  0.9251  0.3240
 4570SOL     OW14041   5.244   3.849   0.808 -0.0865  0.8220 -0.0012
 4570SOL    HW114042   5.214   3.789   0.877  1.4239  0.9357  0.7767
 4570SOL    HW214043   5.185   3.832   0.734  0.7178 -2.1523 -0.0440
 4571SOL     OW14044   4.696   4.203   2.896 -0.1060  0.2451 -0.4411
 4571SOL    HW114045   4.763   4.164   2.952 -0.6927  0.9432  0.7459
 4571SOL    HW214046   4.728   4.186   2.807  2.5557  2.0979  0.0861
 4572SOL     OW14047   2.903   4.757   3.339 -0.4432  0.5449 -0.1750
 4572SOL    HW114048   2.859   4.816   3.400 -0.5060  0.0167  0.2902
 4572SOL    HW214049   2.840   4.746   3.267 -0.5238  0.8638 -0.1527
 4573SOL     OW14050   0.051   0.077   0.115  0.1173  0.4027 -0.3618
 4573SOL    HW114051   0.063   0.078   0.210  1.0296  2.3004 -0.4654
 4573SOL    HW214052  -0.018   0.142   0.099 -2.4177 -2.2563 -0.7647
 4574SOL     OW14053   4.243   0.445   3.117 -0.1660  0.1482  0.2960
 4574SOL    HW114054   4.275   0.526   3.155 -2.6562  1.8894 -1.2022
 4574SOL    HW214055   4.290   0.437   3.034 -0.4436  0.4008  0.1180
 4575SOL     OW14056   0.942   4.026   0.457 -0.0409  0.1035 -0.4579
 4575SOL    HW114057   1.037   4.017   0.457  0.1407  1.7582 -1.0793
 4575SOL    HW214058   0.914   3.992   0.542  1.1808  0.3192  0.0413
 4576SOL     OW14059   3.346   4.858   4.255  0.2678 -0.0903  0.4569
 4576SOL    HW114060   3.358   4.763   4.243  0.0354 -0.1231  0.4828
 4576SOL    HW214061   3.330   4.891   4.167 -3.4005 -0.6107  0.8362
 4577SOL     OW14062   2.651   4.090   0.150 -0.2975 -0.3647 -0.2634
 4577SOL    HW114063   2.579   4.127   0.201 -0.4705 -0.3117 -0.5440
 4577SOL    HW214064   2.609   4.055   0.071 -0.0152 -0.3276 -0.4304
 4578SOL     OW14065   5.256   4.179   5.152 -0.0920 -0.1942 -0.4628
 4578SOL    HW114066   5.192   4.234   5.108  1.4277  1.8055 -0.2530
 4578SOL    HW214067   5.326   4.239   5.178 -0.2033 -1.5593  3.2958
 4579SOL     OW14068   4.709   2.054   3.109  0.5680 -0.8166  0.2830
 4579SOL    HW114069   4.663   2.120   3.056  1.3469 -0.9792 -0.6019
 4579SOL    HW214070   4.642   2.020   3.168  0.0708  0.5294  0.5192
 4580SOL     OW14071   5.489   0.200   5.434 -0.4854 -0.1868 -0.3260
 4580SOL    HW114072   5.420   0.202   5.499 -1.2175  0.2552 -1.1073
 4580SOL    HW214073   5.521   0.290   5.430  0.5511 -0.5036  0.4578
 4581SOL     OW14074   0.919   4.466   1.556 -0.1663 -0.3150 -0.0744
 4581SOL    HW114075   0.859   4.437   1.625  0.8501 -1.7970  0.2170
 4581SOL    HW214076   0.955   4.384   1.520  0.6295  0.5045 -1.1845
 4582SOL     OW14077   1.031   1.611   3.312  0.0676  0.0888 -0.8691
 4582SOL    HW114078   1.091   1.671   3.354  1.1089 -2.4817  1.4687
 4582SOL    HW214079   0.950   1.619   3.362 -0.1070  0.2795 -1.1825
 4583SOL     OW14080   0.050   4.615   1.004 -0.4614  0.7448  0.1838
 4583SOL    HW114081   0.034   4.598   0.911  0.8048  2.9627 -0.4721
 4583SOL    HW214082   0.085   4.532   1.037 -2.1087 -0.4608 -1.0037
 4584SOL     OW14083   0.706   0.000   2.533  0.5887  0.1338  0.4828
 4584SOL    HW114084   0.784   0.036   2.576  3.1969 -2.0348 -2.2017
 4584SOL    HW214085   0.709  -0.093   2.551 -1.6185  0.0593  0.6059
 4585SOL     OW14086   2.952   2.447   2.406 -1.1182  0.5577  0.0615
 4585SOL    HW114087   3.015   2.490   2.462 -1.5627  0.2333  0.8150
 4585SOL    HW214088   2.871   2.446   2.457 -0.8332 -2.1838  0.5329
 4586SOL     OW14089   1.612   0.721   2.358 -0.2578 -0.1432 -0.1050
 4586SOL    HW114090   1.620   0.753   2.269  0.4789 -0.2322 -0.0749
 4586SOL    HW214091   1.678   0.651   2.365 -0.1211  0.0468  0.5879
 4587SOL     OW14092   2.197   2.291   5.541 -0.0879  0.0930  0.1129
 4587SOL    HW114093   2.186   2.299   5.446 -1.1161 -0.6594  0.1596
 4587SOL    HW214094   2.153   2.368   5.576 -0.0899  0.1418  0.0054
 4588SOL     OW14095   4.828   2.440   1.729  0.3931  0.5739  0.4493
 4588SOL    HW114096   4.858   2.399   1.810  0.9886  0.7425  0.3156
 4588SOL    HW214097   4.734   2.454   1.743  0.2892 -0.3597  0.6950
 4589SOL     OW14098   2.736   4.702   1.203 -0.7058 -0.4715  0.0557
 4589SOL    HW114099   2.805   4.662   1.151 -1.1550 -1.4913  0.2292
 4589SOL    HW214100   2.738   4.655   1.286 -1.4447 -0.3649  0.1419
 4590SOL     OW14101   1.617   1.666   2.640 -1.0061 -0.5619  0.0131
 4590SOL    HW114102   1.581   1.754   2.629  0.2678 -0.2516 -1.7722
 4590SOL    HW214103   1.551   1.621   2.693 -0.9612  1.8902  2.2882
 4591SOL     OW14104   4.804   1.634   3.272  0.0298 -0.2574 -0.3049
 4591SOL    HW114105   4.721   1.667   3.306 -0.1451 -0.2971 -0.6913
 4591SOL    HW214106   4.827   1.694   3.201  0.1898 -0.4103 -0.3837
 4592SOL     OW14107   2.133   4.303   1.971 -0.3994 -0.2514  0.1831
 4592SOL    HW114108   2.147   4.220   2.016 -0.1481 -0.0848  0.4184
 4592SOL    HW214109   2.177   4.367   2.027 -0.0075 -0.0543 -0.3571
 4593SOL     OW14110   5.152   5.032   0.017  0.7668  0.1964 -0.2423
 4593SOL    HW114111   5.246   5.026   0.036  0.7795  0.8699 -0.0770
 4593SOL    HW214112   5.109   5.010   0.099  0.8149  2.4870  0.4330
 4594SOL     OW14113   3.656   1.465   4.336  0.6286 -0.0119  0.3803
 4594SOL    HW114114   3.730   1.415   4.371  1.7492  1.4605  0.1802
 4594SOL    HW214115   3.640   1.427   4.250  0.5280 -0.9707  0.8176
 4595SOL     OW14116   2.184   0.755   1.518  0.5965 -0.3681 -0.7303
 4595SOL    HW114117   2.133   0.821   1.566  0.4560  0.0397 -1.4320
 4595SOL    HW214118   2.222   0.700   1.586  1.2012  0.8057 -0.1145
 4596SOL     OW14119   3.293   0.385   2.874  0.2628  0.7030  0.0399
 4596SOL    HW114120   3.303   0.308   2.818  1.4039  0.8869 -0.0203
 4596SOL    HW214121   3.382   0.421   2.882 -0.1990  1.7888  0.3846
 4597SOL     OW14122   0.604   5.353   5.369  0.0554 -0.3788 -0.2381
 4597SOL    HW114123   0.539   5.379   5.435 -0.8292 -1.6104 -0.6132
 4597SOL    HW214124   0.570   5.271   5.333  2.6958 -1.9790  0.7978
 4598SOL     OW14125   0.365   5.332   2.709 -0.2825 -0.0957  0.1046
 4598SOL    HW114126   0.290   5.274   2.695 -0.9029  0.3659  1.4088
 4598SOL    HW214127   0.342   5.412   2.663 -0.9530  0.3256  1.1515
 4599SOL     OW14128   1.586   0.737   3.560  0.0113 -0.6142  0.1063
 4599SOL    HW114129   1.588   0.790   3.640 -1.3427  0.6405 -0.6552
 4599SOL    HW214130   1.567   0.648   3.591 -1.4148  0.0139  1.1347
 4600SOL     OW14131   4.212   5.544   4.999  0.1974  0.2414 -0.8457
 4600SOL    HW114132   4.120   5.544   5.024  0.0909  1.5953 -1.1901
 4600SOL    HW214133   4.227   5.457   4.961 -1.6834  0.9532 -3.3691
 4601SOL     OW14134   2.929   2.411   0.406  0.3738 -0.0565 -0.2539
 4601SOL    HW114135   3.006   2.368   0.445  1.1043  0.2268 -1.3492
 4601SOL    HW214136   2.959   2.500   0.386 -0.1508 -0.0243 -0.9221
 4602SOL     OW14137   2.611   2.381   5.347 -0.1136 -0.6316 -0.4709
 4602SOL    HW114138   2.669   2.454   5.368 -0.3257 -0.8978  1.0879
 4602SOL    HW214139   2.540   2.421   5.296  0.0348  0.1583 -0.0676
 4603SOL     OW14140   4.336   0.038   1.949  0.4117  0.3853 -0.2215
 4603SOL    HW114141   4.267   0.031   2.015 -0.6138 -0.1047 -1.3326
 4603SOL    HW214142   4.363   0.130   1.952 -1.9769  1.1492 -1.4768
 4604SOL     OW14143   3.192   3.346   3.176 -0.4358  0.8531 -0.3153
 4604SOL    HW114144   3.197   3.442   3.169 -0.4506  0.9308  0.7061
 4604SOL    HW214145   3.132   3.330   3.249  0.1554  0.0736  0.0116
 4605SOL     OW14146   1.557   2.261   1.526 -0.3311  0.5835 -0.2025
 4605SOL    HW114147   1.474   2.303   1.505 -1.3191 -1.0762  0.3319
 4605SOL    HW214148   1.591   2.311   1.600 -0.3464  1.8868 -1.0431
 4606SOL     OW14149   1.302   1.132   0.338 -0.1006  0.2201  0.1234
 4606SOL    HW114150   1.223   1.082   0.317 -0.5068  0.5795  0.7784
 4606SOL    HW214151   1.363   1.067   0.371 -0.3090  0.0162  0.1104
 4607SOL     OW14152   1.387   1.695   3.840 -0.1441  0.6421 -0.3512
 4607SOL    HW114153   1.304   1.654   3.816 -0.0040  0.5637 -0.7180
 4607SOL    HW214154   1.454   1.637   3.802  0.1462 -0.5747  1.9767
 4608SOL     OW14155   0.883   1.309   5.257 -0.3677 -0.0174 -0.4794
 4608SOL    HW114156   0.835   1.390   5.236  0.5091  0.0508 -2.3498
 4608SOL    HW214157   0.967   1.319   5.213  0.8026 -0.7951  1.5347
 4609SOL     OW14158   4.655   3.933   1.363 -0.3487  0.5918 -0.0805
 4609SOL    HW114159   4.681   3.844   1.341  1.1359  0.8079  0.7657
 4609SOL    HW214160   4.585   3.923   1.427  0.7542  0.0300  1.0520
 4610SOL     OW14161   0.638   0.732   5.217 -0.3345  0.0371  0.6415
 4610SOL    HW114162   0.671   0.813   5.258 -0.2821 -0.1107  0.8923
 4610SOL    HW214163   0.579   0.695   5.284 -0.0338 -0.3500  0.6881
 4611SOL     OW14164   0.673   2.018   4.399  0.6779 -0.0335 -0.2471
 4611SOL    HW114165   0.683   1.923   4.408  4.0087  0.4411  1.6492
 4611SOL    HW214166   0.614   2.042   4.471 -0.2751 -0.6516 -0.8061
 4612SOL     OW14167   2.408   2.288   4.848 -0.1012  0.2085 -0.0710
 4612SOL    HW114168   2.318   2.264   4.870  0.4650 -2.3645 -0.4402
 4612SOL    HW214169   2.462   2.231   4.902  1.3565  1.9822  0.4197
 4613SOL     OW14170   2.314   0.190   2.659  0.0186  0.0723  0.1951
 4613SOL    HW114171   2.263   0.141   2.723  0.9518 -2.1141 -0.6919
 4613SOL    HW214172   2.404   0.161   2.673  0.5586  1.3421 -0.5300
 4614SOL     OW14173   2.667   0.410   3.539 -0.3351 -0.2014  0.2392
 4614SOL    HW114174   2.614   0.474   3.587 -0.6632  1.0465 -1.7478
 4614SOL    HW214175   2.752   0.454   3.526  0.0754 -0.9051  0.4992
 4615SOL     OW14176   1.614   1.531   0.672 -0.0672 -0.1131 -0.1653
 4615SOL    HW114177   1.650   1.612   0.706  1.5650 -1.4489  1.4013
 4615SOL    HW214178   1.621   1.539   0.577 -0.7378  1.9139 -0.0701
 4616SOL     OW14179   4.685   3.005   2.819 -0.3286  0.3710 -0.5536
 4616SOL    HW114180   4.624   3.042   2.883  1.7516  1.0933  1.0624
 4616SOL    HW214181   4.772   3.023   2.855  0.8236 -2.4602 -1.7909
 4617SOL     OW14182   4.861   3.348   2.877  0.3303 -0.1254 -0.4225
 4617SOL    HW114183   4.867   3.268   2.929  1.5741 -0.9076 -1.7008
 4617SOL    HW214184   4.886   3.320   2.789  0.6362  1.6394 -0.9127
 4618SOL     OW14185   2.644   3.732   0.036 -0.2556 -0.3265  0.5811
 4618SOL    HW114186   2.723   3.786   0.048 -0.2199 -0.1718 -0.3516
 4618SOL    HW214187   2.572   3.794   0.043 -0.2324 -0.2262 -0.0296
 4619SOL     OW14188   1.805   1.645   3.220  0.4043 -0.1106 -0.0587
 4619SOL    HW114189   1.832   1.727   3.179  4.2646 -2.0038 -1.5907
 4619SOL    HW214190   1.870   1.632   3.290 -1.2039 -1.0470  1.2973
 4620SOL     OW14191   4.526   3.393   3.527  0.2577  0.3494  0.2252
 4620SOL    HW114192   4.449   3.399   3.470  1.0714 -0.8625 -1.0356
 4620SOL    HW214193   4.490   3.396   3.616 -1.2514 -0.0890 -0.3477
 4621SOL     OW14194   4.983   2.359   5.307  0.5141  0.2915 -0.4474
 4621SOL    HW114195   5.065   2.340   5.353  0.7998  1.0523 -0.6365
 4621SOL    HW214196   4.916   2.351   5.374  0.7674 -0.0993 -0.2365
 4622SOL     OW14197   2.268   0.822   5.255 -0.1137 -0.5637 -0.4262
 4622SOL    HW114198   2.286   0.814   5.349  0.5685 -0.3729 -0.5450
 4622SOL    HW214199   2.242   0.914   5.244 -2.4209 -1.1265 -0.0428
 4623SOL     OW14200   1.455   3.360   1.570 -0.0484 -0.0730  0.1644
 4623SOL    HW114201   1.417   3.362   1.658 -0.0339 -1.1260  0.2022
 4623SOL    HW214202   1.502   3.276   1.566 -0.6682 -0.3659 -1.0986
 4624SOL     OW14203   4.346   1.319   4.153 -0.4994 -0.4486 -0.5518
 4624SOL    HW114204   4.369   1.377   4.081  1.6208 -2.5453 -1.6284
 4624SOL    HW214205   4.302   1.245   4.111  0.6486 -1.6374  0.3171
 4625SOL     OW14206   3.791   2.849   4.560  0.1814 -0.8580  0.6380
 4625SOL    HW114207   3.781   2.943   4.571  0.5082 -0.5786 -1.3673
 4625SOL    HW214208   3.709   2.819   4.522  0.0397 -1.4153  1.3535
 4626SOL     OW14209   2.363   3.139   1.997 -0.2190 -0.6770  0.2307
 4626SOL    HW114210   2.442   3.150   2.050  0.8194  0.1134 -1.4177
 4626SOL    HW214211   2.296   3.110   2.058  0.5755  1.5478  2.2333
 4627SOL     OW14212   2.684   0.047   0.906 -0.7474 -0.1530 -0.2155
 4627SOL    HW114213   2.747  -0.025   0.896 -1.6056 -1.0104  0.4063
 4627SOL    HW214214   2.600   0.003   0.914 -1.2710  0.9301  0.2823
 4628SOL     OW14215   0.878   4.772   3.576 -0.3581 -0.0829  0.1413
 4628SOL    HW114216   0.815   4.713   3.619 -1.1958 -0.5948 -1.7597
 4628SOL    HW214217   0.845   4.860   3.597 -0.8693 -0.3264  0.3742
 4629SOL     OW14218   3.026   5.193   5.315  0.0651  0.6917 -0.1070
 4629SOL    HW114219   2.953   5.174   5.257  0.2348  0.8999 -0.3892
 4629SOL    HW214220   2.992   5.257   5.378 -0.2164  0.2135  0.2312
 4630SOL     OW14221   4.798   0.306   4.016 -0.4408 -0.0169 -0.2056
 4630SOL    HW114222   4.844   0.388   4.001  0.3258 -0.6152 -1.1767
 4630SOL    HW214223   4.857   0.238   3.983 -2.0106 -0.8108 -1.4878
 4631SOL     OW14224   5.502   1.936   2.398 -0.5647 -0.9480  0.6424
 4631SOL    HW114225   5.448   1.978   2.330  1.6372  0.5924 -0.2296
 4631SOL    HW214226   5.472   1.976   2.480  1.5103  2.5489 -0.1679
 4632SOL     OW14227   2.251   3.511   4.207 -0.3727  0.1777 -0.0101
 4632SOL    HW114228   2.219   3.558   4.129 -0.3600  1.8064  0.9395
 4632SOL    HW214229   2.193   3.541   4.277 -0.3265 -1.2192  0.6255
 4633SOL     OW14230   4.458   4.825   2.611 -0.3535  0.1386 -0.2322
 4633SOL    HW114231   4.484   4.883   2.682 -1.3920  0.2811  0.0397
 4633SOL    HW214232   4.477   4.737   2.644  1.0963  0.3001 -0.5946
 4634SOL     OW14233   3.616   4.555   5.511 -0.2213 -0.2556 -0.0911
 4634SOL    HW114234   3.587   4.643   5.487 -1.0660 -0.8720 -1.4591
 4634SOL    HW214235   3.538   4.500   5.499  0.7015 -1.4487 -0.8648
 4635SOL     OW14236   1.543   0.388   5.070  0.0786  0.6092 -0.4963
 4635SOL    HW114237   1.522   0.457   5.133  1.4875  1.6640 -1.1606
 4635SOL    HW214238   1.621   0.345   5.106 -0.8706 -0.7582 -0.0139
 4636SOL     OW14239   4.096   4.031   1.896 -0.2552 -0.6206  0.0704
 4636SOL    HW114240   4.099   4.073   1.810 -0.1760  0.2024  0.4788
 4636SOL    HW214241   4.121   4.099   1.958 -0.0819 -1.2732  0.7335
 4637SOL     OW14242   0.636   4.763   1.998  0.0821 -0.0737  0.0254
 4637SOL    HW114243   0.692   4.836   2.024 -1.7562  1.4108 -0.0719
 4637SOL    HW214244   0.547   4.798   2.003 -0.9093 -2.5933  0.8705
 4638SOL     OW14245   1.835   2.747   4.364  0.5414 -0.1233  0.0287
 4638SOL    HW114246   1.807   2.827   4.408  1.5294  1.0002 -1.3058
 4638SOL    HW214247   1.843   2.682   4.434 -3.0792  0.1207  0.7411
 4639SOL     OW14248   3.050   3.825   1.708  0.4368 -0.2016 -0.0569
 4639SOL    HW114249   3.050   3.744   1.658  1.5514 -0.4539  0.3392
 4639SOL    HW214250   3.088   3.890   1.649 -0.7929  0.1289 -0.5053
 4640SOL     OW14251   2.470   2.721   3.354 -0.2083 -0.7911 -0.2491
 4640SOL    HW114252   2.433   2.809   3.355 -1.2912 -1.2325  1.2717
 4640SOL    HW214253   2.474   2.697   3.262  1.4438  1.3889 -0.7682
 4641SOL     OW14254   2.614   5.287   4.116  0.5123 -1.0386  0.3702
 4641SOL    HW114255   2.602   5.275   4.022  0.1615  2.6648 -0.1198
 4641SOL    HW214256   2.692   5.342   4.124 -1.2592  1.3345  2.0324
 4642SOL     OW14257   3.046   2.956   2.770 -0.2839  0.2048  0.5746
 4642SOL    HW114258   3.054   3.046   2.739  0.7074  0.1923  0.7787
 4642SOL    HW214259   2.955   2.932   2.752 -0.4321  1.0982  0.1282
 4643SOL     OW14260   1.438   2.848   3.229  0.2067 -0.1772  0.6273
 4643SOL    HW114261   1.521   2.856   3.182  0.4417  0.9025  1.2175
 4643SOL    HW214262   1.463   2.830   3.320 -0.2467 -2.5985  0.3201
 4644SOL     OW14263   3.738   2.915   2.000  0.1248  0.0249 -0.1206
 4644SOL    HW114264   3.648   2.923   1.970  0.1555 -2.1427 -0.9097
 4644SOL    HW214265   3.749   2.821   2.017  1.8334  0.4457  1.2223
 4645SOL     OW14266   2.441   3.551   5.450  0.1172 -0.3124  0.4084
 4645SOL    HW114267   2.490   3.527   5.529  0.2178 -0.2858  0.3532
 4645SOL    HW214268   2.493   3.619   5.409  0.7046 -1.2199 -0.3653
 4646SOL     OW14269   0.844   0.905   3.999 -0.5184  0.6868  0.1162
 4646SOL    HW114270   0.855   0.855   4.079 -2.4073 -0.0994 -0.1084
 4646SOL    HW214271   0.808   0.989   4.028 -0.7484  0.5799  0.1405
 4647SOL     OW14272   4.028   4.644   1.888 -0.1204 -0.2840  0.1081
 4647SOL    HW114273   3.982   4.641   1.972 -0.1079 -0.0033  0.1270
 4647SOL    HW214274   3.997   4.725   1.848 -0.0396 -0.3607 -0.1087
 4648SOL     OW14275   1.238   3.981   0.960  0.0801 -0.4439 -0.1560
 4648SOL    HW114276   1.331   3.985   0.939 -0.0890 -1.6725 -1.1685
 4648SOL    HW214277   1.200   3.926   0.892 -1.2922 -0.4617  0.6037
 4649SOL     OW14278   2.635   4.670   3.725  0.1385  0.9702  0.3934
 4649SOL    HW114279   2.664   4.579   3.736  0.0123  0.6056 -2.0208
 4649SOL    HW214280   2.704   4.722   3.766  0.6500 -0.1643  1.0060
 4650SOL     OW14281   0.633   1.536   4.682  0.2175 -0.8889 -0.0350
 4650SOL    HW114282   0.540   1.517   4.693  0.5284 -3.0003 -0.8560
 4650SOL    HW214283   0.664   1.560   4.769 -1.2178  0.4623  0.1170
 4651SOL     OW14284   2.961   5.383   0.220  0.1511 -0.2376 -0.2357
 4651SOL    HW114285   2.974   5.478   0.217  0.1150 -0.2282 -0.1185
 4651SOL    HW214286   2.907   5.369   0.298 -0.6905 -0.2555 -0.8112
 4652SOL     OW14287   0.374   5.520   2.484  0.0177 -0.1679  0.0971
 4652SOL    HW114288   0.404   5.511   2.394  2.4469  0.8482  0.7622
 4652SOL    HW214289   0.298   5.577   2.479 -1.7201 -2.5452 -1.6067
 4653SOL     OW14290   1.760   2.689   2.170  0.0748  0.5286  0.0065
 4653SOL    HW114291   1.770   2.620   2.236  1.5071 -0.3051 -1.0501
 4653SOL    HW214292   1.706   2.756   2.213  1.9377  0.5394  2.4442
 4654SOL     OW14293   1.087   3.335   4.980 -0.4653  0.0612 -0.0996
 4654SOL    HW114294   1.095   3.430   4.971 -0.4917  0.3262  2.4063
 4654SOL    HW214295   0.996   3.317   4.956 -0.5032  0.6771 -0.4326
 4655SOL     OW14296   4.982   1.332   2.911 -0.4111 -0.4508  0.0277
 4655SOL    HW114297   5.065   1.327   2.862 -0.9744 -1.8750 -0.8274
 4655SOL    HW214298   4.981   1.421   2.946  1.3590 -0.3175 -0.1692
 4656SOL     OW14299   2.312   5.425   5.088  0.5605  0.4985  0.1151
 4656SOL    HW114300   2.286   5.341   5.127 -0.0490  0.7051  0.1668
 4656SOL    HW214301   2.376   5.401   5.021  0.4614 -0.0026  0.1930
 4657SOL     OW14302   4.697   4.560   5.450 -0.1784  0.1876  0.6227
 4657SOL    HW114303   4.707   4.556   5.545  0.2014 -0.1110  0.5733
 4657SOL    HW214304   4.757   4.628   5.422  1.5804 -1.4189  0.3535
 4658SOL     OW14305   4.073   3.581   2.135 -0.5386 -0.4857  0.0382
 4658SOL    HW114306   4.087   3.660   2.084  1.7346 -0.6950  0.2943
 4658SOL    HW214307   4.042   3.613   2.221 -1.6698 -0.0112 -0.5320
 4659SOL     OW14308   5.284   1.663   2.949  0.7275  0.5906  0.0506
 4659SOL    HW114309   5.311   1.627   2.865 -0.2873 -0.3690  0.1314
 4659SOL    HW214310   5.189   1.655   2.949  0.6260  1.6753  0.8002
 4660SOL     OW14311   1.054   2.569   2.038 -0.2521  0.1102  0.4219
 4660SOL    HW114312   1.021   2.640   2.093  0.1278  0.1903  0.5450
 4660SOL    HW214313   0.978   2.544   1.984 -0.3350  0.7293  0.2449
 4661SOL     OW14314   2.468   1.642   1.649 -0.3581 -0.3017  0.0015
 4661SOL    HW114315   2.433   1.629   1.737 -0.6842  0.2833 -0.0374
 4661SOL    HW214316   2.458   1.735   1.633 -1.3316 -0.5842 -1.0850
 4662SOL     OW14317   4.173   3.195   0.425 -0.0109  0.0922  0.1315
 4662SOL    HW114318   4.113   3.239   0.486  0.9222  0.9058  0.4770
 4662SOL    HW214319   4.121   3.179   0.347 -0.9885 -0.2033  0.8354
 4663SOL     OW14320   3.227   5.388   1.792 -0.1953  0.0234  0.0294
 4663SOL    HW114321   3.245   5.458   1.730 -0.4088  0.1393  0.0968
 4663SOL    HW214322   3.204   5.313   1.737  1.5644 -0.4443 -0.0931
 4664SOL     OW14323   2.115   3.753   3.523 -0.1596 -0.5943  0.4341
 4664SOL    HW114324   2.137   3.810   3.450 -0.3904 -1.0542 -0.0006
 4664SOL    HW214325   2.053   3.803   3.576 -0.0676 -0.2976  0.2609
 4665SOL     OW14326   2.369   2.145   4.074 -0.2268  0.7019 -0.0353
 4665SOL    HW114327   2.431   2.075   4.051 -1.2792 -1.3508  2.9898
 4665SOL    HW214328   2.291   2.126   4.022 -1.0365 -1.3215  1.8439
 4666SOL     OW14329   1.486   2.616   3.909  0.3956 -0.6290 -0.8782
 4666SOL    HW114330   1.459   2.542   3.854  0.5059 -0.3201 -1.3541
 4666SOL    HW214331   1.404   2.651   3.944  0.1492  0.3340 -2.3553
 4667SOL     OW14332   2.069   4.053   1.526  0.4454 -0.1402  0.5704
 4667SOL    HW114333   2.136   4.084   1.465 -0.5156  1.1597  0.1701
 4667SOL    HW214334   1.986   4.071   1.483 -0.3205  2.2884  2.8783
 4668SOL     OW14335   4.758   1.250   4.368 -0.2791 -0.1896 -0.5171
 4668SOL    HW114336   4.822   1.249   4.298 -0.3186  0.1954 -0.5578
 4668SOL    HW214337   4.775   1.332   4.415  1.5795 -1.7466  1.6129
 4669SOL     OW14338   3.090   0.097   3.179 -0.2241 -0.2758  0.3496
 4669SOL    HW114339   3.032   0.164   3.142 -1.6200 -1.3991  0.4893
 4669SOL    HW214340   3.164   0.093   3.118 -0.3713  1.0328  0.0680
 4670SOL     OW14341   5.273   2.485   3.849  0.2373  0.0120  0.3208
 4670SOL    HW114342   5.237   2.401   3.880  0.9971 -1.7506 -3.2406
 4670SOL    HW214343   5.355   2.496   3.896 -0.6891 -0.3805  2.0564
 4671SOL     OW14344   4.642   3.804   0.684  0.0993 -0.1354  0.2608
 4671SOL    HW114345   4.694   3.779   0.760 -0.9108  0.0205  1.0137
 4671SOL    HW214346   4.687   3.764   0.609  0.1908 -1.6481  1.1081
 4672SOL     OW14347   0.551   5.033   2.654  0.5833 -0.0080  0.3720
 4672SOL    HW114348   0.477   4.989   2.695  0.3607  0.4548  0.4653
 4672SOL    HW214349   0.628   4.990   2.691  0.4103  1.2146  2.1976
 4673SOL     OW14350   2.719   4.303   1.579  0.2755  0.4371  0.0720
 4673SOL    HW114351   2.635   4.263   1.557  0.4735  0.6991 -1.1921
 4673SOL    HW214352   2.764   4.237   1.633  0.4834 -0.9519 -1.7348
 4674SOL     OW14353   4.362   1.566   3.565  0.7471  0.2987 -0.1978
 4674SOL    HW114354   4.349   1.546   3.472  1.1359 -0.2034 -0.1449
 4674SOL    HW214355   4.363   1.481   3.608  1.7510  0.4624  0.1111
 4675SOL     OW14356   0.698   4.698   1.735  0.4697 -0.1538 -0.2517
 4675SOL    HW114357   0.636   4.633   1.768 -2.2564  2.1082 -0.6641
 4675SOL    HW214358   0.734   4.739   1.814  0.0754 -0.2374 -0.0288
 4676SOL     OW14359   1.341   4.707   0.307 -0.1600 -0.2503 -0.0456
 4676SOL    HW114360   1.423   4.664   0.331 -0.0724  0.5118  1.0453
 4676SOL    HW214361   1.273   4.647   0.336 -0.0062 -0.4377 -0.0683
 4677SOL     OW14362   1.943   2.054   5.443  0.4601 -0.1058 -0.3007
 4677SOL    HW114363   1.956   2.148   5.435 -1.3605  0.2767  0.9625
 4677SOL    HW214364   1.868   2.045   5.502  1.1717 -2.3584  0.3073
 4678SOL     OW14365   2.726   2.906   5.132 -0.0888  0.4646  0.2528
 4678SOL    HW114366   2.639   2.945   5.127 -0.0499  0.5297  0.0837
 4678SOL    HW214367   2.742   2.895   5.225 -0.9531 -1.0398  0.2359
 4679SOL     OW14368   3.580   5.425   0.965 -0.4001  0.6330 -0.2678
 4679SOL    HW114369   3.587   5.380   1.049 -0.2345  2.5876  0.8013
 4679SOL    HW214370   3.668   5.461   0.950 -0.6601  1.0441 -0.8377
 4680SOL     OW14371   5.124   2.271   3.946  0.2478 -0.0561 -0.4408
 4680SOL    HW114372   5.132   2.181   3.913  1.2853  0.4791 -1.7052
 4680SOL    HW214373   5.069   2.263   4.023 -0.9784 -1.5594 -1.4409
 4681SOL     OW14374   4.803   3.701   3.083  0.2113  0.3573 -0.1422
 4681SOL    HW114375   4.879   3.744   3.044  0.3732  0.0908 -0.1263
 4681SOL    HW214376   4.841   3.627   3.132  0.2843  2.0816  2.5398
 4682SOL     OW14377   5.008   1.005   1.955  0.3726 -0.5081  0.2647
 4682SOL    HW114378   5.088   1.058   1.963  0.1355 -0.0773 -0.1763
 4682SOL    HW214379   4.967   1.009   2.041 -1.0208  2.2299 -0.4865
 4683SOL     OW14380   0.949   1.584   2.677 -0.2371  0.2887 -0.6243
 4683SOL    HW114381   0.893   1.551   2.607  0.3457 -2.4083  0.1384
 4683SOL    HW214382   0.887   1.607   2.748 -0.5130 -1.3948 -0.2945
 4684SOL     OW14383   1.560   1.793   0.462 -0.2948 -0.1761 -0.2938
 4684SOL    HW114384   1.512   1.728   0.411  4.0206 -3.7500 -0.1487
 4684SOL    HW214385   1.579   1.863   0.399 -2.3661 -0.4922 -1.2952
 4685SOL     OW14386   4.856   0.265   2.220  0.0065  0.5446  0.2332
 4685SOL    HW114387   4.913   0.335   2.253  0.8908  0.2372 -0.6094
 4685SOL    HW214388   4.768   0.304   2.221  0.2840  1.1807  1.1119
 4686SOL     OW14389   1.507   4.291   4.062  0.1047  0.5542  0.4032
 4686SOL    HW114390   1.412   4.293   4.076 -0.0248  3.0746 -0.6806
 4686SOL    HW214391   1.517   4.292   3.967  1.2274 -1.2042  0.4791
 4687SOL     OW14392   2.272   1.156   4.342 -0.0422 -0.3982  0.1168
 4687SOL    HW114393   2.330   1.081   4.332  0.3446 -0.0925  0.0527
 4687SOL    HW214394   2.183   1.119   4.338  0.1431 -0.7940 -0.3284
 4688SOL     OW14395   3.775   0.082   1.522 -0.2533 -0.0531  0.5132
 4688SOL    HW114396   3.703   0.023   1.501  0.3767 -0.8356  0.5487
 4688SOL    HW214397   3.853   0.028   1.518  0.3734  0.8499  0.2090
 4689SOL     OW14398   5.308   0.334   0.409 -0.5364 -0.0864 -0.0125
 4689SOL    HW114399   5.255   0.370   0.481 -0.7955 -1.8501  0.7181
 4689SOL    HW214400   5.343   0.252   0.445  1.7702  0.4862 -0.8873
 4690SOL     OW14401   4.529   2.294   2.563  0.1504 -0.0565 -0.3368
 4690SOL    HW114402   4.596   2.335   2.617  0.7113 -2.0819  0.5287
 4690SOL    HW214403   4.569   2.214   2.529 -1.1488 -0.2689 -1.4528
 4691SOL     OW14404   4.108   5.009   4.248 -0.1714 -0.1990 -0.6002
 4691SOL    HW114405   4.104   4.929   4.195  1.1974  0.0740 -1.1328
 4691SOL    HW214406   4.106   5.080   4.184  1.0082  0.1433 -0.2695
 4692SOL     OW14407   5.013   4.760   1.530 -0.0830 -0.3734 -0.2368
 4692SOL    HW114408   4.979   4.796   1.448 -0.0505  1.4092  0.4943
 4692SOL    HW214409   5.105   4.784   1.530 -0.2703  0.4044  0.6938
 4693SOL     OW14410   2.784   1.753   3.909 -0.2109  0.1120 -0.0285
 4693SOL    HW114411   2.768   1.661   3.932 -2.9337  0.8721  1.3417
 4693SOL    HW214412   2.847   1.784   3.974  0.1021 -0.5724 -0.0053
 4694SOL     OW14413   1.215   4.756   0.697  0.4692  0.2593  0.0953
 4694SOL    HW114414   1.292   4.772   0.752  1.2462 -1.3218 -0.4902
 4694SOL    HW214415   1.232   4.806   0.618  1.2578 -0.6464 -0.3251
 4695SOL     OW14416   0.870   0.029   0.414  0.8015  0.5956  0.1713
 4695SOL    HW114417   0.790  -0.007   0.375  1.5818  0.8721 -1.7757
 4695SOL    HW214418   0.914  -0.048   0.451  0.4920  0.1463 -0.3648
 4696SOL     OW14419   5.454   3.546   1.769 -0.6806  0.6694 -0.3560
 4696SOL    HW114420   5.464   3.533   1.675  0.6462  0.5718 -0.2120
 4696SOL    HW214421   5.505   3.624   1.788  0.4669 -0.2747  0.5419
 4697SOL     OW14422   4.747   0.289   1.121  0.3723  0.1350  0.4419
 4697SOL    HW114423   4.672   0.300   1.179 -0.4492 -1.0355 -0.3646
 4697SOL    HW214424   4.804   0.362   1.142 -1.1320  1.2263  0.8660
 4698SOL     OW14425   0.405   3.933   1.165  0.1814  0.0693  0.4161
 4698SOL    HW114426   0.366   3.972   1.087 -0.6810  2.7258  2.1119
 4698SOL    HW214427   0.343   3.865   1.192 -0.9545  1.0761  0.3981
 4699SOL     OW14428   0.624   1.435   0.197 -0.0219  0.1164 -0.4849
 4699SOL    HW114429   0.703   1.435   0.250 -0.0890  1.6204 -0.3492
 4699SOL    HW214430   0.605   1.343   0.180 -0.1702 -0.4111  2.3606
 4700SOL     OW14431   5.231   1.630   4.894 -0.1142  0.5692  0.3194
 4700SOL    HW114432   5.208   1.646   4.986  2.2757 -1.5441  1.3483
 4700SOL    HW214433   5.204   1.540   4.877  4.1729 -0.9402  0.6542
 4701SOL     OW14434   1.118   2.422   1.020  0.4436 -0.3333  0.0814
 4701SOL    HW114435   1.182   2.372   0.970  0.5614  0.0530 -0.1519
 4701SOL    HW214436   1.065   2.355   1.064 -0.1447 -0.6909 -1.1458
 4702SOL     OW14437   2.828   1.179   3.616  0.4603 -0.2553  0.6581
 4702SOL    HW114438   2.781   1.172   3.699 -0.1866  0.0232  0.3282
 4702SOL    HW214439   2.771   1.135   3.553  0.7494 -0.1082  0.2916
 4703SOL     OW14440   2.046   1.353   4.682  0.1679  0.5921 -0.9648
 4703SOL    HW114441   2.001   1.345   4.598  0.6785  2.2542 -1.4126
 4703SOL    HW214442   2.135   1.382   4.658  0.9963 -1.0835  0.0072
 4704SOL     OW14443   1.469   0.626   2.579 -0.2192  0.1131  0.0252
 4704SOL    HW114444   1.452   0.662   2.665 -0.9393  1.2320 -0.5701
 4704SOL    HW214445   1.525   0.691   2.536 -0.6724  0.0503 -0.6844
 4705SOL     OW14446   4.351   1.353   2.964 -0.6986  0.0990  0.0828
 4705SOL    HW114447   4.262   1.333   2.935  0.0267 -0.0727 -2.1290
 4705SOL    HW214448   4.355   1.448   2.967 -0.3201  0.1598 -1.9515
 4706SOL     OW14449   3.469   2.761   3.341  0.4715  0.0545  0.7657
 4706SOL    HW114450   3.440   2.702   3.411 -0.7153 -1.7458 -1.2179
 4706SOL    HW214451   3.388   2.796   3.304  1.0818  0.4831 -0.1667
 4707SOL     OW14452   2.261   5.558   2.499  0.0850  0.1852 -0.2435
 4707SOL    HW114453   2.324   5.495   2.535  0.2304  0.5916  0.2287
 4707SOL    HW214454   2.295   5.643   2.525 -0.1424  0.4587 -0.8323
 4708SOL     OW14455   4.341   1.402   5.177 -0.0371 -0.0519 -0.3838
 4708SOL    HW114456   4.277   1.348   5.225  0.6011 -0.6782 -0.2280
 4708SOL    HW214457   4.382   1.341   5.116  1.5169 -0.0119  0.6015
 4709SOL     OW14458   1.348   3.354   0.692 -0.1321  0.2451 -0.0912
 4709SOL    HW114459   1.283   3.412   0.652 -0.7657  0.7846  1.7016
 4709SOL    HW214460   1.353   3.279   0.632 -3.5437 -0.5442  0.5499
 4710SOL     OW14461   2.008   0.297   4.493  0.1818 -0.0125  0.0620
 4710SOL    HW114462   2.016   0.314   4.399 -1.0155  4.3302  0.6293
 4710SOL    HW214463   2.059   0.367   4.534 -1.3337 -0.3600  2.6538
 4711SOL     OW14464   3.021   0.397   0.066 -0.7744 -0.4164 -0.2866
 4711SOL    HW114465   3.023   0.328  -0.000 -0.3949  1.4839 -2.3296
 4711SOL    HW214466   3.077   0.366   0.136 -1.9196 -2.8800 -0.4231
 4712SOL     OW14467   4.351   0.202   4.373  0.4141  0.5201 -0.6731
 4712SOL    HW114468   4.371   0.283   4.327 -0.8917  1.2116 -0.0568
 4712SOL    HW214469   4.375   0.220   4.464 -1.3410  0.7840 -0.2381
 4713SOL     OW14470   5.473   4.722   1.333  0.3339 -0.4518  0.7319
 4713SOL    HW114471   5.542   4.759   1.387 -1.7448  2.6023  1.4546
 4713SOL    HW214472   5.438   4.650   1.385  0.2646  0.6339  2.2521
 4714SOL     OW14473   3.231   4.954   5.267 -0.2913 -0.0002 -0.0343
 4714SOL    HW114474   3.185   5.036   5.251  1.3813  0.5927 -1.9492
 4714SOL    HW214475   3.320   4.980   5.290  0.4263 -1.2872 -1.2783
 4715SOL     OW14476   4.527   1.683   2.101 -0.2957  0.2233 -0.2293
 4715SOL    HW114477   4.533   1.724   2.015 -2.7867  0.8598 -0.1603
 4715SOL    HW214478   4.480   1.748   2.154  4.0410  1.2775  2.5694
 4716SOL     OW14479   4.970   4.232   1.767 -0.1346  0.3869  0.0005
 4716SOL    HW114480   4.957   4.310   1.712 -0.7734  0.1608 -0.1858
 4716SOL    HW214481   4.926   4.253   1.849 -1.5456 -0.3093 -0.5569
 4717SOL     OW14482   0.607   1.068   0.589  0.2571 -0.0303  0.3757
 4717SOL    HW114483   0.652   1.000   0.639  1.0877 -0.5484 -1.0347
 4717SOL    HW214484   0.516   1.039   0.586  0.7852 -1.6521 -1.0893
 4718SOL     OW14485   1.398   1.986   0.946 -0.5016  0.0369  0.0193
 4718SOL    HW114486   1.429   1.925   1.013  0.8280  2.5074  1.7456
 4718SOL    HW214487   1.450   1.965   0.868 -1.0393 -1.9056  0.1688
 4719SOL     OW14488   3.334   0.478   4.146  0.2032  0.0210 -0.2479
 4719SOL    HW114489   3.385   0.542   4.195  1.5503 -0.0691 -1.4981
 4719SOL    HW214490   3.368   0.483   4.056 -0.4236 -1.6507 -0.6035
 4720SOL     OW14491   1.429   2.354   4.980  0.1418  0.0181 -0.2609
 4720SOL    HW114492   1.389   2.408   5.049  1.7920  1.3636 -0.3214
 4720SOL    HW214493   1.468   2.281   5.026 -0.3511 -0.0670  0.0332
 4721SOL     OW14494   1.416   4.799   4.561 -0.2194 -0.0749  0.3342
 4721SOL    HW114495   1.362   4.825   4.487 -0.1197  2.3027  1.0337
 4721SOL    HW214496   1.358   4.805   4.637 -0.7556 -4.0107  0.3297
 4722SOL     OW14497   1.782   3.420   3.254 -0.3036 -0.0471 -0.2366
 4722SOL    HW114498   1.858   3.479   3.251  0.4794 -1.0825 -1.5240
 4722SOL    HW214499   1.777   3.391   3.345  1.4438 -0.6986 -0.3202
 4723SOL     OW14500   2.218   4.922   4.617 -0.1637  0.4886  0.1925
 4723SOL    HW114501   2.263   4.875   4.547 -1.0047  1.9563 -1.3797
 4723SOL    HW214502   2.141   4.960   4.574 -0.5074  1.7083  1.8365
 4724SOL     OW14503   1.694   4.565   4.953  0.8969 -0.1613 -0.0309
 4724SOL    HW114504   1.777   4.595   4.916 -0.1088  0.9764 -1.4530
 4724SOL    HW214505   1.637   4.554   4.877 -1.5342  3.1934  1.1867
 4725SOL     OW14506   0.592   4.967   2.381  0.7990  0.6322 -0.5395
 4725SOL    HW114507   0.625   5.034   2.323  1.0061 -0.2198 -1.4184
 4725SOL    HW214508   0.591   5.008   2.468 -0.7110  2.3155 -1.3311
 4726SOL     OW14509   1.933   3.665   4.926  0.1303 -0.1248  0.3724
 4726SOL    HW114510   1.897   3.683   5.013 -1.2645  0.3521 -0.2898
 4726SOL    HW214511   1.884   3.588   4.895  1.0116 -0.6387  0.2262
 4727SOL     OW14512   0.458   0.094   1.423  0.1396  0.1516  0.4118
 4727SOL    HW114513   0.409   0.068   1.345  0.8273  0.5929 -0.1711
 4727SOL    HW214514   0.549   0.079   1.400  0.3353  0.1129  1.2001
 4728SOL     OW14515   1.693   2.026   3.724  0.6106  0.2900 -0.3423
 4728SOL    HW114516   1.785   2.031   3.750  0.8509  1.4151 -1.3739
 4728SOL    HW214517   1.647   2.080   3.788  0.8252  0.7031 -0.5330
 4729SOL     OW14518   3.009   3.054   0.261  0.1210 -0.4479  0.2174
 4729SOL    HW114519   3.014   3.075   0.354  0.7832  1.6707 -0.2684
 4729SOL    HW214520   2.956   3.124   0.223  0.2813 -1.0168 -1.0715
 4730SOL     OW14521   3.047   3.212   3.370  0.5184  0.5595  0.0035
 4730SOL    HW114522   3.079   3.149   3.435 -1.9148  0.0511  0.7551
 4730SOL    HW214523   2.954   3.221   3.390  0.7705  4.2376 -0.2294
 4731SOL     OW14524   4.855   2.144   4.448 -0.1527 -0.0467 -0.1973
 4731SOL    HW114525   4.927   2.084   4.464  1.2242  1.3957 -0.8338
 4731SOL    HW214526   4.872   2.179   4.360 -0.3542  2.0128  0.5475
 4732SOL     OW14527   3.674   3.284   3.375 -0.2883 -0.2412  0.4596
 4732SOL    HW114528   3.686   3.203   3.325  0.2002 -0.2188  0.5382
 4732SOL    HW214529   3.758   3.330   3.367 -1.5756  1.8202 -2.3585
 4733SOL     OW14530   5.511   2.769   2.281  0.4010  0.1559 -0.0102
 4733SOL    HW114531   5.541   2.795   2.194 -2.3924 -0.7551 -1.3082
 4733SOL    HW214532   5.434   2.824   2.297 -0.3437 -1.1525  0.9707
 4734SOL     OW14533   3.906   2.017   5.433  0.1083  0.0580  0.3779
 4734SOL    HW114534   3.817   2.014   5.398 -0.2570  0.1524  1.2868
 4734SOL    HW214535   3.921   1.929   5.467  0.3891  0.0195  0.1484
 4735SOL     OW14536   0.004   1.421   0.472 -0.3639  0.3275  0.1717
 4735SOL    HW114537  -0.041   1.342   0.501 -0.5591  0.4818  0.2893
 4735SOL    HW214538  -0.012   1.426   0.378 -1.4921  0.9548  0.3862
 4736SOL     OW14539   2.194   0.086   3.673  0.3220  0.1954  0.1951
 4736SOL    HW114540   2.158   0.166   3.633  1.3340 -0.1377 -1.4120
 4736SOL    HW214541   2.202   0.108   3.766  0.1298  1.8071 -0.1484
 4737SOL     OW14542   3.166   1.734   1.298  0.2814 -0.3637  0.2349
 4737SOL    HW114543   3.132   1.654   1.337 -1.7142  0.3095 -0.0581
 4737SOL    HW214544   3.099   1.761   1.236  1.4591  0.9166 -0.5172
 4738SOL     OW14545   4.425   3.726   2.508 -0.7574  0.0243 -0.3115
 4738SOL    HW114546   4.456   3.682   2.429 -0.9212  0.0013 -0.3633
 4738SOL    HW214547   4.348   3.676   2.534 -0.4809 -0.1982  0.0797
 4739SOL     OW14548   0.966   5.472   5.402  0.0767 -0.7953  0.0547
 4739SOL    HW114549   1.033   5.538   5.383 -0.2141 -0.6464 -0.4525
 4739SOL    HW214550   0.899   5.485   5.335 -0.3014 -1.1688  0.3545
 4740SOL     OW14551   5.333   5.438   2.443  0.1691 -0.0218 -0.4198
 4740SOL    HW114552   5.270   5.394   2.386  0.4706 -0.7761 -0.1784
 4740SOL    HW214553   5.307   5.530   2.441 -0.5670 -0.2327 -0.8012
 4741SOL     OW14554   3.246   4.379   5.088 -0.0540 -0.7485  0.2837
 4741SOL    HW114555   3.306   4.452   5.100  1.2513 -1.7636 -0.0291
 4741SOL    HW214556   3.228   4.379   4.994 -0.9240 -0.1594  0.4422
 4742SOL     OW14557   2.588   4.268   4.909  0.1544  0.3960  0.2864
 4742SOL    HW114558   2.573   4.221   4.991  1.3300  0.6177  0.6457
 4742SOL    HW214559   2.609   4.199   4.845 -1.2395  0.1846  0.0531
 4743SOL     OW14560   3.586   1.612   5.390  0.4248  0.5846 -0.1110
 4743SOL    HW114561   3.675   1.629   5.357  1.4935 -0.5531  2.0898
 4743SOL    HW214562   3.573   1.518   5.374 -0.0178  0.5540  0.4337
 4744SOL     OW14563   0.423   3.618   1.928 -0.2161  0.7166 -0.4329
 4744SOL    HW114564   0.472   3.655   2.002  0.5639 -2.1181  0.5450
 4744SOL    HW214565   0.332   3.620   1.956 -0.0400  0.7144  0.1595
 4745SOL     OW14566   0.472   1.906   1.104 -0.0057  0.2205 -0.5823
 4745SOL    HW114567   0.426   1.965   1.045  1.7148  0.3186 -1.8769
 4745SOL    HW214568   0.423   1.824   1.098  0.1380  0.2315 -2.1643
 4746SOL     OW14569   5.168   1.303   2.328 -0.1455  0.5655  0.6996
 4746SOL    HW114570   5.120   1.222   2.342 -0.0038  0.8033  2.6885
 4746SOL    HW214571   5.247   1.276   2.281 -0.1448 -0.4449  1.2652
 4747SOL     OW14572   0.764   1.861   4.992 -0.1880  0.7205 -0.1714
 4747SOL    HW114573   0.703   1.929   5.019  0.2785  0.5599  1.3260
 4747SOL    HW214574   0.844   1.880   5.041  0.4414  0.0037 -0.9134
 4748SOL     OW14575   5.095   0.834   4.555 -0.5121  0.0160  0.3737
 4748SOL    HW114576   5.066   0.897   4.488  1.2059  1.0217  0.5379
 4748SOL    HW214577   5.083   0.749   4.514 -1.7869  0.4936 -0.2923
 4749SOL     OW14578   3.904   0.947   4.785  0.6510 -0.3252  0.1162
 4749SOL    HW114579   3.883   1.036   4.814 -1.4836 -0.4479 -0.9771
 4749SOL    HW214580   3.956   0.960   4.705  0.1372 -0.0600 -0.1770
 4750SOL     OW14581   0.383   1.706   0.444  0.2291 -0.6113 -0.2245
 4750SOL    HW114582   0.433   1.633   0.481 -0.6444 -1.0834  0.0324
 4750SOL    HW214583   0.446   1.753   0.389  1.3646 -0.3010  1.3148
 4751SOL     OW14584   1.108   2.048   0.860 -0.4071 -0.1902 -0.2257
 4751SOL    HW114585   1.093   2.079   0.770 -1.5874 -0.4934 -0.1441
 4751SOL    HW214586   1.192   2.003   0.856 -0.3536 -0.0236 -1.1414
 4752SOL     OW14587   5.342   0.799   0.837  0.1667  0.1221  0.4266
 4752SOL    HW114588   5.378   0.717   0.804  0.6802  0.6919 -0.4552
 4752SOL    HW214589   5.398   0.867   0.799 -0.4681  0.8969  0.8600
 4753SOL     OW14590   3.855   3.118   2.361 -0.7954  0.5527  0.3332
 4753SOL    HW114591   3.914   3.179   2.406 -1.5217  0.6723  1.1262
 4753SOL    HW214592   3.778   3.112   2.418 -0.6780 -1.2059  0.3385
 4754SOL     OW14593   5.447   5.353   4.584 -0.2676 -0.4266 -0.2908
 4754SOL    HW114594   5.505   5.429   4.571 -1.2412  0.6390  1.4877
 4754SOL    HW214595   5.501   5.278   4.558  1.0930  0.7622 -1.0079
 4755SOL     OW14596   2.875   3.825   1.146 -0.4510  0.0361 -0.1498
 4755SOL    HW114597   2.880   3.729   1.152  0.6717  0.1668  1.0492
 4755SOL    HW214598   2.815   3.851   1.215 -2.8847  0.0259 -2.1636
 4756SOL     OW14599   1.102   5.051   3.203 -0.3719 -0.3628  0.7615
 4756SOL    HW114600   1.142   5.091   3.280 -1.4440 -1.0444  1.6745
 4756SOL    HW214601   1.069   5.125   3.152  2.4334  0.2497 -0.2483
 4757SOL     OW14602   4.721   4.970   0.330 -0.1775  0.4219  0.3846
 4757SOL    HW114603   4.684   5.025   0.399 -0.6689  2.1944 -1.2441
 4757SOL    HW214604   4.646   4.924   0.292 -0.0017 -0.0302  0.5852
 4758SOL     OW14605   3.171   4.425   2.768 -0.4053  0.5847 -0.6707
 4758SOL    HW114606   3.262   4.455   2.768 -0.5793  1.1703  0.6397
 4758SOL    HW214607   3.172   4.345   2.820 -0.7333  0.9369 -0.1106
 4759SOL     OW14608   3.906   4.347   4.067 -0.0275  0.1519 -0.6057
 4759SOL    HW114609   3.862   4.296   4.136  3.1090 -0.8487  0.7570
 4759SOL    HW214610   3.915   4.286   3.994 -0.4237  0.2067 -0.7030
 4760SOL     OW14611   0.645   1.170   0.343  0.2779  0.9727  0.2603
 4760SOL    HW114612   0.640   1.161   0.439 -0.1589 -0.3910  0.1230
 4760SOL    HW214613   0.646   1.080   0.311 -1.1534  1.4228 -1.0983
 4761SOL     OW14614   2.095   3.702   5.372  0.2376  0.2605  0.2575
 4761SOL    HW114615   2.177   3.690   5.324  0.0164 -0.4857  0.0524
 4761SOL    HW214616   2.075   3.795   5.364  0.2107  0.1399 -1.0898
 4762SOL     OW14617   2.819   2.248   5.156  0.0447 -0.2624 -0.1743
 4762SOL    HW114618   2.822   2.310   5.083  0.0151  0.3376  0.3419
 4762SOL    HW214619   2.736   2.265   5.200  0.2224 -0.3947  0.2146
 4763SOL     OW14620   1.533   0.751   4.974  0.1197  0.6593 -0.2696
 4763SOL    HW114621   1.515   0.733   4.881 -0.2698  1.7940 -0.4213
 4763SOL    HW214622   1.623   0.723   4.987 -0.6638 -2.0213 -0.3263
 4764SOL     OW14623   5.207   2.066   0.506  0.8604  0.3434 -0.1286
 4764SOL    HW114624   5.278   2.065   0.442  0.5019  0.4007 -0.5281
 4764SOL    HW214625   5.230   1.997   0.569  2.2296  1.5975  0.7890
 4765SOL     OW14626   4.775   3.676   1.320 -0.2462 -0.0233 -0.1964
 4765SOL    HW114627   4.849   3.730   1.292  1.1626 -1.7449  0.1763
 4765SOL    HW214628   4.762   3.614   1.248 -2.3710  1.2429 -0.9787
 4766SOL     OW14629   5.215   1.481   1.923 -0.0035  0.0855 -0.4019
 4766SOL    HW114630   5.169   1.538   1.984  0.0908  0.7917 -0.9866
 4766SOL    HW214631   5.197   1.393   1.954 -0.6744  0.4102  0.1304
 4767SOL     OW14632   0.558   1.604   5.356 -0.0607 -0.3197  0.2059
 4767SOL    HW114633   0.472   1.572   5.328 -0.6502 -0.4452  2.0731
 4767SOL    HW214634   0.547   1.699   5.363  0.5249 -0.1097 -1.3861
 4768SOL     OW14635   4.597   1.973   2.824  0.5962  0.3143  0.1345
 4768SOL    HW114636   4.594   2.067   2.842 -2.3360  0.7243 -2.0031
 4768SOL    HW214637   4.534   1.935   2.885 -0.3349  0.1482 -0.9075
 4769SOL     OW14638   1.724   5.499   5.244  0.1398  0.3497 -0.2450
 4769SOL    HW114639   1.778   5.574   5.218  2.5541 -0.2734  2.5455
 4769SOL    HW214640   1.742   5.432   5.178  0.5561  1.1278 -0.9275
 4770SOL     OW14641   5.065   4.752   2.171  0.8881 -0.8316 -0.0434
 4770SOL    HW114642   5.074   4.834   2.220  0.2301 -0.1199 -1.0949
 4770SOL    HW214643   5.115   4.766   2.091 -0.4016 -0.9139 -0.8838
 4771SOL     OW14644   1.242   0.481   4.720 -0.5093  0.2277 -0.1834
 4771SOL    HW114645   1.252   0.569   4.757 -0.1884  0.2986 -0.4370
 4771SOL    HW214646   1.273   0.422   4.790  1.1151  0.4130 -0.7177
 4772SOL     OW14647   3.298   5.514   3.368 -0.0687  0.5108  0.2697
 4772SOL    HW114648   3.354   5.475   3.301 -0.6232 -0.0594  0.1353
 4772SOL    HW214649   3.337   5.488   3.451 -0.1024  0.1539  0.1746
 4773SOL     OW14650   0.048   0.227   3.742  0.1350 -0.3567 -0.2515
 4773SOL    HW114651  -0.004   0.156   3.705 -1.4111  0.0247  1.1125
 4773SOL    HW214652   0.001   0.306   3.717  0.1557  0.0033  0.8136
 4774SOL     OW14653   3.236   3.537   1.775  0.4803  0.1540  0.5162
 4774SOL    HW114654   3.201   3.575   1.856  2.1548  3.1511 -0.1374
 4774SOL    HW214655   3.175   3.564   1.707  0.8370  0.3541  0.2761
 4775SOL     OW14656   1.962   1.918   3.381 -0.2872 -0.1223  0.0124
 4775SOL    HW114657   2.039   1.938   3.434 -1.0150 -0.5604  1.2580
 4775SOL    HW214658   1.900   1.877   3.443 -1.2813 -0.3144 -1.0945
 4776SOL     OW14659   0.036   2.719   3.374 -0.2527  0.1650 -0.8329
 4776SOL    HW114660   0.041   2.792   3.436 -0.1831 -0.3287 -0.2532
 4776SOL    HW214661  -0.001   2.758   3.295 -2.7453  0.2852  0.3281
 4777SOL     OW14662   1.863   2.170   3.435 -0.4533 -0.0718 -0.6351
 4777SOL    HW114663   1.880   2.081   3.405  0.3150 -0.1628  0.0661
 4777SOL    HW214664   1.782   2.163   3.485  1.3261 -0.9967  2.1866
 4778SOL     OW14665   5.393   2.738   0.467 -0.0577  0.2635  0.0112
 4778SOL    HW114666   5.365   2.687   0.391 -0.7000  0.8427 -0.1504
 4778SOL    HW214667   5.320   2.730   0.529 -0.5851  1.7419 -0.3868
 4779SOL     OW14668   1.777   5.359   4.142 -0.2238  0.4291 -0.7192
 4779SOL    HW114669   1.772   5.292   4.073 -0.3247 -1.5404  1.1355
 4779SOL    HW214670   1.729   5.434   4.107 -0.0389 -0.4303 -2.8835
 4780SOL     OW14671   3.227   1.021   4.921 -0.3744  0.3736 -0.4349
 4780SOL    HW114672   3.149   1.046   4.971 -0.8188 -0.2590 -0.7987
 4780SOL    HW214673   3.226   1.079   4.845  0.8434  2.0100  0.7595
 4781SOL     OW14674   1.250   1.975   5.292 -0.1879  0.4563 -0.4898
 4781SOL    HW114675   1.333   1.928   5.297 -0.4012  0.1851  0.6059
 4781SOL    HW214676   1.192   1.916   5.245  0.6046  1.2040 -2.4656
 4782SOL     OW14677   3.930   5.400   0.533  0.0547 -0.6652  1.0560
 4782SOL    HW114678   3.959   5.489   0.553  0.7216 -1.0376  1.7397
 4782SOL    HW214679   3.874   5.376   0.606 -0.2704 -0.7480  0.7848
 4783SOL     OW14680   3.825   2.760   1.330  0.2600  0.1258  0.0180
 4783SOL    HW114681   3.854   2.769   1.421 -2.5456  1.3532  0.8730
 4783SOL    HW214682   3.905   2.768   1.278  1.5825  2.3511  2.2572
 4784SOL     OW14683   0.777   0.105   0.873  0.0888 -0.1782  0.0890
 4784SOL    HW114684   0.809   0.194   0.865  2.0053 -0.7510  1.0401
 4784SOL    HW214685   0.727   0.104   0.955  0.4165 -0.0624  0.2918
 4785SOL     OW14686   2.069   3.262   0.464  0.0619 -0.4769  0.4552
 4785SOL    HW114687   2.055   3.185   0.518 -0.0040 -2.1769 -1.9260
 4785SOL    HW214688   2.163   3.261   0.446  0.0186 -0.1370  0.2062
 4786SOL     OW14689   4.177   1.726   5.296  0.3144 -0.0983 -0.8065
 4786SOL    HW114690   4.265   1.710   5.262  1.7228 -0.1513  2.7357
 4786SOL    HW214691   4.141   1.639   5.312  1.5078 -0.0768  2.3027
 4787SOL     OW14692   4.861   1.067   4.105  0.5653 -0.6826 -0.1131
 4787SOL    HW114693   4.910   1.025   4.175  0.4683 -2.5561 -1.1523
 4787SOL    HW214694   4.926   1.120   4.059  0.9549 -0.6879  0.4224
 4788SOL     OW14695   4.862   3.805   3.481 -0.4433 -0.8779  0.2491
 4788SOL    HW114696   4.863   3.890   3.525  3.6264  0.1733 -1.6931
 4788SOL    HW214697   4.817   3.822   3.398 -0.0668 -0.7503  0.0728
 4789SOL     OW14698   3.821   3.929   3.374 -0.6974  0.0769 -0.6968
 4789SOL    HW114699   3.900   3.972   3.343  0.5429 -0.5847  1.3691
 4789SOL    HW214700   3.759   3.937   3.302  0.6733  2.1175 -1.7085
 4790SOL     OW14701   4.521   4.863   5.475 -0.3361 -0.8768  0.2483
 4790SOL    HW114702   4.612   4.885   5.498  0.2386  0.1333 -2.7352
 4790SOL    HW214703   4.529   4.788   5.416 -1.5289 -1.4372  0.7862
 4791SOL     OW14704   0.958   0.055   1.127 -0.4492 -0.3963 -0.0269
 4791SOL    HW114705   1.049   0.075   1.108  0.1144  0.9375  3.6454
 4791SOL    HW214706   0.907   0.110   1.067  1.1092 -0.9040 -1.8527
 4792SOL     OW14707   5.393   3.411   4.049 -0.0047  0.2039 -0.7699
 4792SOL    HW114708   5.406   3.316   4.041 -0.2641  0.0042  0.9820
 4792SOL    HW214709   5.432   3.433   4.133 -2.2270  1.2255  0.0105
 4793SOL     OW14710   5.277   4.278   2.112 -0.1194 -0.2635  0.7407
 4793SOL    HW114711   5.336   4.269   2.036 -2.0613  1.0928 -0.9851
 4793SOL    HW214712   5.241   4.366   2.104 -0.3799 -0.1187  3.2577
 4794SOL     OW14713   4.162   5.465   5.517  0.4160  0.0929 -0.9474
 4794SOL    HW114714   4.209   5.503   5.591 -0.4759  0.1499 -0.3931
 4794SOL    HW214715   4.155   5.536   5.453  1.8102 -0.1612 -1.3897
 4795SOL     OW14716   5.209   3.816   3.100  0.1744 -0.1634 -1.0009
 4795SOL    HW114717   5.220   3.911   3.104 -1.6353  0.0558 -0.6743
 4795SOL    HW214718   5.140   3.803   3.035  0.3505 -1.2499 -0.9732
 4796SOL     OW14719   3.959   3.905   1.526  0.1329 -0.0632  0.6569
 4796SOL    HW114720   3.883   3.920   1.582  0.4952 -0.5234  1.2827
 4796SOL    HW214721   3.937   3.948   1.443 -1.2403 -1.0926  0.4733
 4797SOL     OW14722   3.315   4.130   2.111  0.0294 -0.2861  0.5154
 4797SOL    HW114723   3.234   4.157   2.155  1.1745  0.1342  2.4140
 4797SOL    HW214724   3.334   4.043   2.147  1.0841  0.1474  1.0272
 4798SOL     OW14725   4.501   3.306   2.698  0.1425  0.1547 -0.6242
 4798SOL    HW114726   4.562   3.248   2.652  1.9835  1.4797  0.0684
 4798SOL    HW214727   4.531   3.304   2.789 -0.5668  1.1880 -0.3643
 4799SOL     OW14728   3.237   3.493   5.276  0.0518 -0.1671  0.4448
 4799SOL    HW114729   3.203   3.510   5.188  1.2679  0.9240  0.1702
 4799SOL    HW214730   3.211   3.570   5.327  0.4761 -0.1959  0.7050
 4800SOL     OW14731   3.715   5.055   4.203 -0.4269  0.6534  0.0315
 4800SOL    HW114732   3.724   4.978   4.258 -0.9134  1.4999  1.3262
 4800SOL    HW214733   3.732   5.024   4.114 -2.7108 -1.3844  0.2518
 4801SOL     OW14734   4.594   4.420   0.851  0.8902 -0.5330 -0.0680
 4801SOL    HW114735   4.639   4.497   0.884 -0.8801  0.3975  0.2524
 4801SOL    HW214736   4.570   4.370   0.929  1.9029 -1.3567 -0.2664
 4802SOL     OW14737   4.071   5.110   1.019 -0.5463  0.1942  0.1714
 4802SOL    HW114738   3.990   5.076   1.057  0.9405 -2.4958  1.0759
 4802SOL    HW214739   4.104   5.171   1.085 -0.9474 -0.0217  0.5732
 4803SOL     OW14740   0.948   1.086   3.555  0.3520 -0.3557  0.2096
 4803SOL    HW114741   0.926   1.064   3.465  0.2312 -0.5815  0.2927
 4803SOL    HW214742   0.864   1.113   3.594  0.6130  0.9289 -0.0810
 4804SOL     OW14743   0.179   2.985   4.451  0.3446 -0.1292  0.4145
 4804SOL    HW114744   0.234   3.033   4.512  2.1713 -1.8306  0.1605
 4804SOL    HW214745   0.134   2.920   4.505  0.8386 -0.6692  0.1795
 4805SOL     OW14746   0.974   1.239   5.518  0.2483  0.2943  0.0227
 4805SOL    HW114747   0.964   1.252   5.424  0.0074  0.1075  0.0214
 4805SOL    HW214748   1.067   1.223   5.531  0.2472  0.1104 -0.2085
 4806SOL     OW14749   2.276   2.271   3.403 -0.0217  0.4759  0.0954
 4806SOL    HW114750   2.284   2.242   3.312 -0.5123  1.8004 -0.3855
 4806SOL    HW214751   2.214   2.210   3.443 -0.5729  0.4848 -0.7335
 4807SOL     OW14752   3.808   3.822   1.196  0.5439 -0.4573  0.3161
 4807SOL    HW114753   3.747   3.828   1.123  0.5639  1.9938  0.4611
 4807SOL    HW214754   3.822   3.728   1.208 -1.0218 -0.9532 -1.5104
 4808SOL     OW14755   5.233   2.551   1.142  0.4779 -0.5322  0.0641
 4808SOL    HW114756   5.151   2.573   1.185  2.2130  1.5518  2.5169
 4808SOL    HW214757   5.246   2.458   1.159 -0.4556 -0.4382  1.3032
 4809SOL     OW14758   1.849   5.397   2.631 -0.0036  0.7502  0.4721
 4809SOL    HW114759   1.816   5.384   2.720 -0.5620  1.6308  0.4034
 4809SOL    HW214760   1.810   5.326   2.580 -1.6546  1.6327  0.4417
 4810SOL     OW14761   5.078   3.593   3.283  0.3065  0.4210 -0.0100
 4810SOL    HW114762   5.034   3.525   3.232  0.7816  0.0927  0.0198
 4810SOL    HW214763   5.145   3.629   3.225  0.1731  0.7459  0.0342
 4811SOL     OW14764   2.774   4.422   0.236 -0.5542  0.0261  0.2141
 4811SOL    HW114765   2.786   4.450   0.145 -0.0495 -0.0161  0.2646
 4811SOL    HW214766   2.837   4.350   0.247 -0.0315  0.5745  0.8347
 4812SOL     OW14767   3.144   2.028   3.045  0.4197  0.1079  0.3332
 4812SOL    HW114768   3.240   2.035   3.045  0.5784 -1.7700 -0.5008
 4812SOL    HW214769   3.116   2.075   2.967  0.6617  0.6105  0.5469
 4813SOL     OW14770   0.946   2.796   3.617  0.1736  0.1471  0.0201
 4813SOL    HW114771   0.905   2.722   3.573 -0.5027  0.6713 -0.2308
 4813SOL    HW214772   0.926   2.784   3.710  0.9583 -0.5464  0.1103
 4814SOL     OW14773   0.936   0.739   2.673  0.7227 -0.3979 -0.3314
 4814SOL    HW114774   0.950   0.811   2.610  1.3108 -1.0727 -0.9821
 4814SOL    HW214775   1.011   0.745   2.732  1.2177 -0.9800 -0.8857
 4815SOL     OW14776   3.885   4.601   0.783 -0.3515 -0.4714 -0.1029
 4815SOL    HW114777   3.892   4.540   0.857 -1.1162  0.0661  0.4143
 4815SOL    HW214778   3.917   4.684   0.817 -2.2064  0.1714  0.1054
 4816SOL     OW14779   4.315   1.519   4.589  0.3538 -0.0745  0.1986
 4816SOL    HW114780   4.274   1.435   4.566  2.0068  0.0158 -3.2560
 4816SOL    HW214781   4.243   1.570   4.628 -1.3492 -2.0667 -0.2170
 4817SOL     OW14782   4.032   1.379   3.786 -0.2993  0.0266  0.4074
 4817SOL    HW114783   4.023   1.474   3.784  1.0830  0.1557 -0.7796
 4817SOL    HW214784   4.053   1.355   3.695 -3.4202 -1.7223  0.0858
 4818SOL     OW14785   3.520   1.697   0.110  0.1110 -0.4507 -0.4819
 4818SOL    HW114786   3.451   1.663   0.167  0.3109 -1.8987 -1.0764
 4818SOL    HW214787   3.530   1.630   0.043  3.6671 -1.3681  0.8613
 4819SOL     OW14788   5.245   1.358   0.680  0.0292  0.1175  0.1660
 4819SOL    HW114789   5.208   1.291   0.736  2.8279 -0.5635  1.3121
 4819SOL    HW214790   5.241   1.438   0.733  0.2043  0.0348  0.3067
 4820SOL     OW14791   3.086   0.407   3.754 -0.4833 -0.0725 -0.8265
 4820SOL    HW114792   3.122   0.476   3.810 -0.0758  0.1204 -1.3164
 4820SOL    HW214793   3.019   0.365   3.807 -1.2080  1.1555 -0.7700
 4821SOL     OW14794   0.188   0.870   4.778  0.2432 -0.6519  0.1954
 4821SOL    HW114795   0.208   0.776   4.777 -0.3299 -0.7617 -0.9207
 4821SOL    HW214796   0.270   0.912   4.755  0.4549 -0.8772  0.5235
 4822SOL     OW14797   4.446   2.199   3.553  0.4810 -0.3980  0.0146
 4822SOL    HW114798   4.541   2.207   3.541  0.4554 -0.7842 -0.4376
 4822SOL    HW214799   4.436   2.145   3.631  0.6291 -0.5958 -0.1047
 4823SOL     OW14800   5.284   1.398   0.372  0.0790  0.0524  0.2493
 4823SOL    HW114801   5.284   1.386   0.467  0.4040  0.1853  0.2684
 4823SOL    HW214802   5.195   1.377   0.345 -0.1350  0.4617  0.6390
 4824SOL     OW14803   0.471   3.675   0.699 -0.3614 -0.0160  0.5862
 4824SOL    HW114804   0.497   3.584   0.683  1.1039  0.5265 -0.2244
 4824SOL    HW214805   0.552   3.725   0.694 -1.4305  1.6352 -1.2904
 4825SOL     OW14806   2.350   2.832   1.565 -0.5258 -0.6528  0.1781
 4825SOL    HW114807   2.445   2.833   1.578 -0.3897 -0.0802 -0.8549
 4825SOL    HW214808   2.322   2.747   1.599  0.0257  0.1578  2.7391
 4826SOL     OW14809   4.882   5.556   2.263 -0.0091 -0.5942 -0.1459
 4826SOL    HW114810   4.893   5.646   2.232  0.9076 -0.8119 -0.4587
 4826SOL    HW214811   4.969   5.530   2.293 -0.3995 -1.1721  0.5061
 4827SOL     OW14812   3.990   5.380   5.016  0.1501 -0.1031 -0.2129
 4827SOL    HW114813   3.927   5.376   5.088  0.5043  0.6720  0.1582
 4827SOL    HW214814   3.942   5.422   4.945 -0.1354 -0.6702 -0.3559
 4828SOL     OW14815   2.642   0.090   0.521 -0.1982  0.3075 -0.5942
 4828SOL    HW114816   2.568   0.059   0.574  0.5501 -0.9632 -0.2567
 4828SOL    HW214817   2.610   0.170   0.479 -1.2020  0.6867  0.8526
 4829SOL     OW14818   3.444   3.206   2.165  0.0651 -0.0619 -0.0524
 4829SOL    HW114819   3.398   3.290   2.167 -1.3755 -0.7874 -1.7315
 4829SOL    HW214820   3.444   3.180   2.073  1.9636 -1.1161  0.2112
 4830SOL     OW14821   4.709   2.249   3.391  0.2777  0.0632  0.2102
 4830SOL    HW114822   4.669   2.335   3.398 -0.8719 -0.5526  1.3933
 4830SOL    HW214823   4.678   2.215   3.307 -1.1976 -0.1390  0.8107
 4831SOL     OW14824   5.543   0.699   1.977  0.0642  0.3523  0.4153
 4831SOL    HW114825   5.638   0.690   1.975  0.3271  3.0387 -1.2255
 4831SOL    HW214826   5.514   0.665   1.892 -0.2183  1.6250 -0.0077
 4832SOL     OW14827   1.933   1.303   2.420  0.2125 -0.1045  0.7547
 4832SOL    HW114828   1.866   1.235   2.419 -0.5450  0.5975  1.9406
 4832SOL    HW214829   1.924   1.344   2.506  1.2681  0.8955  0.4045
 4833SOL     OW14830   5.393   3.143   2.206 -0.0709 -0.1021  0.8836
 4833SOL    HW114831   5.327   3.078   2.230  0.7595  0.0570  3.7173
 4833SOL    HW214832   5.459   3.093   2.158 -1.0951 -0.6860  0.0465
 4834SOL     OW14833   2.176   4.072   3.480  0.7433 -0.2861 -0.1468
 4834SOL    HW114834   2.227   4.137   3.432  1.7141 -0.1758  1.0044
 4834SOL    HW214835   2.151   4.008   3.414  1.5865  0.1517 -0.9027
 4835SOL     OW14836   1.223   1.017   3.588 -0.0518 -0.2583  0.5542
 4835SOL    HW114837   1.203   0.951   3.654 -0.0933 -0.5748  0.2296
 4835SOL    HW214838   1.138   1.054   3.565  0.0382  0.3766  1.2124
 4836SOL     OW14839   4.549   1.813   0.211  0.3600 -0.7982  0.1045
 4836SOL    HW114840   4.560   1.877   0.282 -0.4680  0.5233 -0.9363
 4836SOL    HW214841   4.637   1.783   0.192  0.7428 -0.0729  0.7133
 4837SOL     OW14842   2.246   3.200   1.114 -0.2589 -0.2070  0.4807
 4837SOL    HW114843   2.328   3.161   1.085 -0.7342 -0.6581 -0.2740
 4837SOL    HW214844   2.271   3.287   1.145  0.6533 -0.7160  1.2221
 4838SOL     OW14845   0.141   2.376   3.422 -0.1469 -0.0824  0.1847
 4838SOL    HW114846   0.066   2.410   3.372 -1.8616  1.2957  3.5315
 4838SOL    HW214847   0.131   2.281   3.419 -2.0969  0.0906  0.6712
 4839SOL     OW14848   0.529   5.563   5.181  0.5494  0.3769  0.9707
 4839SOL    HW114849   0.518   5.633   5.245  0.8388 -0.1746  1.6352
 4839SOL    HW214850   0.559   5.488   5.232  0.3827 -0.1935  0.2509
 4840SOL     OW14851   2.774   5.120   0.081 -0.3275  0.6031  0.3566
 4840SOL    HW114852   2.768   5.215   0.090  1.0890  0.6347  1.0092
 4840SOL    HW214853   2.690   5.095   0.043  0.3150  2.4275 -2.4281
 4841SOL     OW14854   0.453   5.527   4.061  0.3247  1.0708  0.2587
 4841SOL    HW114855   0.377   5.475   4.033 -0.8439  3.0866 -0.4387
 4841SOL    HW214856   0.523   5.463   4.073 -1.4954 -0.8453  0.9711
 4842SOL     OW14857   3.586   1.951   0.460 -0.0578 -0.1784  0.2090
 4842SOL    HW114858   3.513   1.934   0.401  0.2860 -0.5543 -0.1108
 4842SOL    HW214859   3.552   1.925   0.547 -0.2368 -0.5443  0.0331
 4843SOL     OW14860   2.132   3.906   3.299  0.0222  0.3763  0.5264
 4843SOL    HW114861   2.075   3.864   3.234  0.3211  0.5693  0.1360
 4843SOL    HW214862   2.220   3.876   3.276 -0.0545 -0.9684  1.9311
 4844SOL     OW14863   2.649   1.328   1.977  0.0695  0.0095  0.2612
 4844SOL    HW114864   2.664   1.325   1.883 -3.1423  0.6139 -0.3265
 4844SOL    HW214865   2.689   1.410   2.006 -0.7085  0.8327 -0.9518
 4845SOL     OW14866   5.531   5.222   3.073 -1.2186 -0.2243  0.1519
 4845SOL    HW114867   5.549   5.245   2.982 -1.7695 -0.0689  0.0789
 4845SOL    HW214868   5.617   5.214   3.114 -0.9851  0.4101 -0.2110
 4846SOL     OW14869   2.259   5.192   3.691 -0.3589 -0.3374  0.2294
 4846SOL    HW114870   2.314   5.136   3.745  0.2292 -1.0612 -1.0860
 4846SOL    HW214871   2.310   5.273   3.681 -0.8308  0.1098  1.4246
 4847SOL     OW14872   5.163   1.391   1.424 -0.3954 -0.5100 -0.4178
 4847SOL    HW114873   5.098   1.328   1.456 -1.2084 -0.2523 -1.5450
 4847SOL    HW214874   5.115   1.445   1.361  0.4755  0.8079  0.0554
 4848SOL     OW14875   0.931   3.160   1.494  0.1995  0.1856  0.5527
 4848SOL    HW114876   0.959   3.242   1.535 -0.0699  1.0736 -1.0035
 4848SOL    HW214877   1.009   3.128   1.449  0.0698  0.0414  0.4309
 4849SOL     OW14878   0.018   3.183   5.447  0.4414 -0.2831  0.6188
 4849SOL    HW114879  -0.009   3.099   5.409 -0.8228  0.5184 -0.2679
 4849SOL    HW214880   0.073   3.158   5.521  0.7089 -1.8958 -0.0921
 4850SOL     OW14881   4.013   0.459   4.435 -0.2518 -0.2036 -0.0237
 4850SOL    HW114882   3.981   0.388   4.491 -0.7566  0.0386 -0.0050
 4850SOL    HW214883   4.016   0.421   4.347  0.0397 -0.4239  0.0798
 4851SOL     OW14884   5.349   1.426   0.956 -0.6974  0.3151  0.3704
 4851SOL    HW114885   5.256   1.443   0.947 -0.5259  1.0610 -0.1008
 4851SOL    HW214886   5.358   1.331   0.947 -1.2985  0.3425 -0.5553
 4852SOL     OW14887   2.884   5.449   4.086  0.0709  0.0844  0.0303
 4852SOL    HW114888   2.867   5.528   4.137 -0.1280 -0.4959  0.8913
 4852SOL    HW214889   2.969   5.417   4.119 -0.8882 -1.2575  1.2763
 4853SOL     OW14890   1.536   1.399   4.363 -0.0645  0.1676  0.7149
 4853SOL    HW114891   1.536   1.376   4.456  0.4496  0.0623  0.6863
 4853SOL    HW214892   1.556   1.493   4.362  0.6398  0.0151  0.6681
 4854SOL     OW14893   4.535   3.098   4.284 -0.2875 -0.0465  0.7832
 4854SOL    HW114894   4.444   3.121   4.266 -0.4994 -0.5567  1.1855
 4854SOL    HW214895   4.577   3.097   4.198 -0.2048  2.1237  0.7814
 4855SOL     OW14896   2.156   0.809   3.589  0.4129  0.3537  0.0468
 4855SOL    HW114897   2.167   0.878   3.523  0.4590  1.4992  1.2457
 4855SOL    HW214898   2.182   0.849   3.671 -0.0444 -0.9439  0.8445
 4856SOL     OW14899   1.557   3.702   2.492  0.3362  0.4307 -0.1932
 4856SOL    HW114900   1.555   3.607   2.494  0.3960  0.4360  1.4189
 4856SOL    HW214901   1.474   3.729   2.531  0.9981  1.0149  0.8568
 4857SOL     OW14902   2.649   0.617   1.422 -0.5699  0.7009  0.0406
 4857SOL    HW114903   2.566   0.619   1.375  0.2811 -0.3114 -1.5352
 4857SOL    HW214904   2.684   0.530   1.406  0.3717  0.8002  1.4627
 4858SOL     OW14905   1.016   5.298   2.279  0.2574 -0.0663 -0.0886
 4858SOL    HW114906   1.068   5.243   2.337  2.0243  0.2108 -1.3598
 4858SOL    HW214907   1.009   5.382   2.325 -1.0283 -0.8209  1.1112
 4859SOL     OW14908   5.497   4.384   3.861 -0.4543 -0.6060  0.5130
 4859SOL    HW114909   5.582   4.423   3.881 -0.2027 -0.7542 -0.2289
 4859SOL    HW214910   5.505   4.293   3.889  0.1416 -0.9987 -0.8673
 4860SOL     OW14911   4.836   0.116   4.664 -0.2704  0.5399  0.1212
 4860SOL    HW114912   4.889   0.065   4.725  1.2679 -0.0566 -1.6784
 4860SOL    HW214913   4.756   0.135   4.712  0.8168 -0.1047  2.2431
 4861SOL     OW14914   1.976   2.895   5.049 -0.3024 -0.4539  0.3961
 4861SOL    HW114915   2.047   2.950   5.084 -0.9409 -0.1592  1.2538
 4861SOL    HW214916   1.973   2.820   5.109 -0.9312 -0.2995  0.5630
 4862SOL     OW14917   3.173   3.707   4.548  0.1201  0.4737 -0.0878
 4862SOL    HW114918   3.141   3.770   4.483 -0.9145 -0.2932 -0.3511
 4862SOL    HW214919   3.253   3.671   4.509 -0.5255 -0.0181 -0.9769
 4863SOL     OW14920   2.916   1.444   5.125 -0.2462 -0.2341  0.8139
 4863SOL    HW114921   2.860   1.459   5.201  0.0146 -0.4152  1.0423
 4863SOL    HW214922   2.880   1.365   5.085 -0.9121  0.3411  0.2597
 4864SOL     OW14923   0.809   4.481   4.635  0.3308 -0.3022 -0.1934
 4864SOL    HW114924   0.789   4.387   4.627 -0.1727 -0.1665 -0.4921
 4864SOL    HW214925   0.881   4.494   4.573 -0.0814 -0.3427 -0.6848
 4865SOL     OW14926   3.061   5.236   1.597  0.5833  0.2719  0.1448
 4865SOL    HW114927   3.043   5.280   1.514  2.3170 -0.1084 -0.4490
 4865SOL    HW214928   2.976   5.232   1.640 -0.8385 -1.5679 -2.6233
 4866SOL     OW14929   4.247   5.266   5.247  0.0975 -0.5047  0.1081
 4866SOL    HW114930   4.243   5.271   5.152  0.7642 -2.7890 -0.0600
 4866SOL    HW214931   4.156   5.279   5.276 -0.0389  0.6243 -0.7866
 4867SOL     OW14932   3.583   4.970   1.420 -0.1466  0.0333 -0.4909
 4867SOL    HW114933   3.602   4.905   1.353 -1.2934 -1.9475  1.0538
 4867SOL    HW214934   3.634   4.942   1.496 -1.1802  0.5341  0.4030
 4868SOL     OW14935   0.082   3.191   4.170  0.4858 -0.5279  0.1503
 4868SOL    HW114936   0.110   3.276   4.138 -0.8996 -0.4716 -0.9796
 4868SOL    HW214937   0.163   3.142   4.185  1.2896  1.0167  0.9494
 4869SOL     OW14938   2.157   4.226   1.000 -0.3471 -0.4172 -0.6508
 4869SOL    HW114939   2.095   4.246   1.069  0.3604  0.1231 -0.1641
 4869SOL    HW214940   2.105   4.227   0.919 -1.1600 -1.0086 -0.1391
 4870SOL     OW14941   3.668   3.170   5.078  0.1921 -0.4840  0.0973
 4870SOL    HW114942   3.740   3.131   5.127 -1.7778 -1.2432  2.5062
 4870SOL    HW214943   3.683   3.264   5.084  1.0242 -0.6381  0.5162
 4871SOL     OW14944   4.385   4.081   0.765  0.4777  0.4322 -0.0227
 4871SOL    HW114945   4.336   4.102   0.845  0.6519  0.8590 -0.0275
 4871SOL    HW214946   4.335   4.121   0.694 -0.8890 -1.8449 -0.3857
 4872SOL     OW14947   2.646   4.353   0.738  0.6898 -0.3726 -0.5657
 4872SOL    HW114948   2.552   4.338   0.743  0.8867 -1.2756  0.7002
 4872SOL    HW214949   2.656   4.425   0.676 -0.6854 -1.6588 -2.3070
 4873SOL     OW14950   1.279   5.155   4.366 -0.1743 -0.1389  0.2465
 4873SOL    HW114951   1.218   5.224   4.341  0.0704  0.6244  1.7391
 4873SOL    HW214952   1.224   5.087   4.404 -0.6036 -1.4991 -2.6480
 4874SOL     OW14953   5.016   4.303   3.825 -0.3505 -0.4679  0.1846
 4874SOL    HW114954   5.076   4.231   3.841 -0.4181 -0.6144 -0.2077
 4874SOL    HW214955   5.062   4.359   3.762 -1.2460 -1.3625 -1.2698
 4875SOL     OW14956   2.418   0.457   4.085 -0.1336 -0.1997 -0.2169
 4875SOL    HW114957   2.496   0.462   4.029 -0.0001 -0.7838 -0.0872
 4875SOL    HW214958   2.396   0.364   4.087  0.5971 -0.3504  1.6836
 4876SOL     OW14959   3.606   0.530   3.050  0.0744 -0.0270 -0.4255
 4876SOL    HW114960   3.583   0.615   3.089  0.6397  0.4856 -1.1815
 4876SOL    HW214961   3.568   0.533   2.963 -1.2539 -1.2024  0.1073
 4877SOL     OW14962   1.726   3.853   4.397  1.3365  0.1338 -0.1437
 4877SOL    HW114963   1.780   3.909   4.453 -0.8611  0.2968  1.8751
 4877SOL    HW214964   1.683   3.913   4.336  0.9882  0.3542  0.3202
 4878SOL     OW14965   4.594   3.175   2.279 -0.7770  0.1062 -0.3762
 4878SOL    HW114966   4.573   3.098   2.226 -1.9314  0.2456 -0.1299
 4878SOL    HW214967   4.603   3.142   2.368  1.3983 -0.1648 -0.6707
 4879SOL     OW14968   2.252   2.440   3.071 -0.3636  0.3344  0.5895
 4879SOL    HW114969   2.165   2.476   3.089 -1.3771 -2.4964  1.6596
 4879SOL    HW214970   2.256   2.360   3.123  2.3016 -0.3982 -0.6569
 4880SOL     OW14971   4.264   3.172   5.425 -0.0534  0.5829  0.2238
 4880SOL    HW114972   4.268   3.243   5.362  1.8973  0.4425  0.1667
 4880SOL    HW214973   4.348   3.176   5.471  0.1265 -1.7305  0.1534
 4881SOL     OW14974   0.195   0.453   0.386  0.4053  0.2035  0.4817
 4881SOL    HW114975   0.219   0.487   0.299  1.2519  0.2214  0.7167
 4881SOL    HW214976   0.278   0.445   0.432 -0.0507  0.2368  1.3131
 4882SOL     OW14977   0.574   3.425   1.805  0.3837  0.3032 -0.0984
 4882SOL    HW114978   0.513   3.388   1.741  1.1811  1.4159 -1.5553
 4882SOL    HW214979   0.523   3.491   1.852  0.2921  0.8294 -0.9198
 4883SOL     OW14980   0.931   4.055   3.379  0.5739  0.1176 -0.0553
 4883SOL    HW114981   0.856   4.043   3.321  1.7282 -0.9195 -1.3640
 4883SOL    HW214982   0.954   3.966   3.406  0.7000  0.5140  1.1762
 4884SOL     OW14983   2.401   0.853   2.692  0.3542  0.0557  0.4320
 4884SOL    HW114984   2.341   0.878   2.622  1.6520 -0.1891 -0.7782
 4884SOL    HW214985   2.353   0.872   2.773 -1.2705  0.0535 -0.5198
 4885SOL     OW14986   2.474   5.026   3.798 -0.2816  0.1754 -0.0562
 4885SOL    HW114987   2.512   5.112   3.778 -0.6776  0.1461 -0.9719
 4885SOL    HW214988   2.547   4.976   3.834 -0.7194  1.8102  3.3203
 4886SOL     OW14989   3.258   1.611   5.101 -0.1152 -0.2823 -0.7698
 4886SOL    HW114990   3.289   1.700   5.116 -0.6041  0.1295 -2.0360
 4886SOL    HW214991   3.191   1.621   5.033 -0.5154 -1.5590 -0.5783
 4887SOL     OW14992   1.191   3.071   2.874  0.1014 -0.0203 -0.8097
 4887SOL    HW114993   1.234   3.156   2.875 -0.7498  0.4223 -1.0296
 4887SOL    HW214994   1.262   3.007   2.864  0.7582  0.6493 -0.4305
 4888SOL     OW14995   4.678   4.568   1.573  0.1237  0.3741 -0.6225
 4888SOL    HW114996   4.617   4.641   1.573 -1.4320 -0.9123 -0.8858
 4888SOL    HW214997   4.699   4.554   1.665 -1.0809 -0.0849 -0.4127
 4889SOL     OW14998   0.386   2.897   2.690 -0.1159 -0.0695  0.2572
 4889SOL    HW114999   0.448   2.911   2.762  0.6320  0.6908 -0.5202
 4889SOL    HW215000   0.426   2.941   2.615 -0.5825 -1.3637 -0.7869
 4890SOL     OW15001   1.812   2.086   2.098  0.8100 -0.1994 -0.3633
 4890SOL    HW115002   1.784   2.177   2.111 -0.5607 -0.7186  0.4542
 4890SOL    HW215003   1.742   2.047   2.046  0.8075 -1.1017  0.3050
 4891SOL     OW15004   5.114   0.778   3.983 -0.1267  0.4612 -0.1777
 4891SOL    HW115005   5.177   0.720   3.940 -0.5146 -1.9716  2.3602
 4891SOL    HW215006   5.168   0.847   4.021  0.9952 -1.1014  1.1854
 4892SOL     OW15007   3.016   1.416   1.103 -0.3553 -0.3768 -0.6407
 4892SOL    HW115008   3.007   1.336   1.154 -2.0215 -1.5206 -2.6460
 4892SOL    HW215009   3.062   1.389   1.024  1.6867  1.2498 -0.0413
 4893SOL     OW15010   1.018   2.017   5.049  0.6347  0.2071 -0.2820
 4893SOL    HW115011   1.010   1.960   5.124 -0.3128  1.0748  0.2924
 4893SOL    HW215012   1.031   2.104   5.086  0.8535  0.5420 -1.1244
 4894SOL     OW15013   0.943   3.417   3.211 -0.0887 -0.7464  0.6116
 4894SOL    HW115014   0.861   3.371   3.230  0.4964 -1.3800  1.6519
 4894SOL    HW215015   1.010   3.349   3.218  0.2924 -0.8109 -2.7236
 4895SOL     OW15016   2.600   1.642   2.511 -0.0278  0.3676 -0.1006
 4895SOL    HW115017   2.560   1.644   2.598  2.8441  0.8905  1.2952
 4895SOL    HW215018   2.547   1.580   2.461 -1.9049  0.2808  1.9304
 4896SOL     OW15019   0.200   5.332   0.401 -0.4826  0.3142 -0.4353
 4896SOL    HW115020   0.230   5.332   0.492 -0.1971  1.0868 -0.5259
 4896SOL    HW215021   0.105   5.347   0.407 -0.1919  2.3471 -0.3331
 4897SOL     OW15022   1.868   1.800   2.735  0.4053  0.0399  0.3055
 4897SOL    HW115023   1.911   1.743   2.798 -0.2329 -0.9819 -0.1546
 4897SOL    HW215024   1.786   1.755   2.715  0.8928  0.0106 -1.7300
 4898SOL     OW15025   3.070   4.070   5.125  0.1706 -0.6334  0.8145
 4898SOL    HW115026   2.980   4.036   5.127  0.4892 -1.4803  0.6975
 4898SOL    HW215027   3.062   4.159   5.160 -0.9021 -0.2577 -0.3300
 4899SOL     OW15028   3.513   2.602   5.005 -0.3927  0.1852  0.8999
 4899SOL    HW115029   3.478   2.651   4.931 -0.6207 -1.1320  0.1218
 4899SOL    HW215030   3.459   2.524   5.009  1.4137 -1.0966  0.7024
 4900SOL     OW15031   2.794   5.447   3.819 -0.4224  0.1556  0.0187
 4900SOL    HW115032   2.818   5.360   3.786  0.3947  0.4091 -0.0827
 4900SOL    HW215033   2.842   5.455   3.901 -1.5677 -0.0269  0.6981
 4901SOL     OW15034   2.061   3.873   4.323  0.5336  0.3425  0.1394
 4901SOL    HW115035   2.149   3.911   4.315  0.0117  1.3774 -0.7277
 4901SOL    HW215036   2.023   3.917   4.399 -0.4980  2.4543 -1.5536
 4902SOL     OW15037   5.067   3.536   0.456 -0.5986 -0.2080  0.2631
 4902SOL    HW115038   5.012   3.519   0.380  0.5944 -0.9194 -0.4646
 4902SOL    HW215039   5.080   3.631   0.456  0.5442 -0.3469 -1.2622
 4903SOL     OW15040   4.880   5.258   0.033  0.0413  0.0083  0.2505
 4903SOL    HW115041   4.814   5.242   0.100  0.0826 -1.2508 -0.0010
 4903SOL    HW215042   4.888   5.354   0.030  2.1013  0.0907  4.0863
 4904SOL     OW15043   4.442   1.175   5.351  0.6211 -0.4098 -0.0406
 4904SOL    HW115044   4.383   1.251   5.349 -0.1963 -1.0182  0.7580
 4904SOL    HW215045   4.527   1.211   5.376 -0.1631 -0.0087  2.0917
 4905SOL     OW15046   0.908   4.831   1.120  0.0175  0.1338  0.1071
 4905SOL    HW115047   0.947   4.860   1.038  1.8768  0.5151  1.1153
 4905SOL    HW215048   0.910   4.908   1.177  0.0689 -0.5249  1.0086
 4906SOL     OW15049   4.245   1.737   0.245  0.8325  0.1149  0.4672
 4906SOL    HW115050   4.340   1.749   0.248  0.5683  2.1511  2.0439
 4906SOL    HW215051   4.211   1.825   0.230 -0.9426 -0.0415  3.3044
 4907SOL     OW15052   3.549   4.411   1.007 -0.2137 -0.0467 -0.4030
 4907SOL    HW115053   3.549   4.497   0.965  0.9362 -0.2535 -0.8676
 4907SOL    HW215054   3.573   4.429   1.098 -0.3887  0.1642 -0.3978
 4908SOL     OW15055   2.278   4.043   2.704 -1.0080 -0.1781 -0.1555
 4908SOL    HW115056   2.300   4.021   2.613 -1.2234 -0.3545 -0.1653
 4908SOL    HW215057   2.276   4.139   2.706  0.7568 -0.1256  0.0813
 4909SOL     OW15058   5.351   0.789   5.339  0.8547  0.2996  0.4434
 4909SOL    HW115059   5.329   0.881   5.324 -1.0064 -0.2978 -0.5795
 4909SOL    HW215060   5.445   0.784   5.322  1.0632  2.1052  0.9791
 4910SOL     OW15061   5.383   0.153   2.520 -0.5354  0.0140  0.7746
 4910SOL    HW115062   5.305   0.200   2.490  0.2708  1.3413  0.6891
 4910SOL    HW215063   5.421   0.211   2.586  1.5876  0.4210 -0.7738
 4911SOL     OW15064   4.437   0.799   1.926  0.1581 -0.6106  0.1506
 4911SOL    HW115065   4.360   0.757   1.886 -0.2067  0.4109 -0.2337
 4911SOL    HW215066   4.400   0.854   1.995  0.5055  0.3225 -0.4153
 4912SOL     OW15067   1.291   5.407   5.086  0.1804 -0.5474  0.0579
 4912SOL    HW115068   1.334   5.404   5.171 -0.8674  0.7603  0.6545
 4912SOL    HW215069   1.362   5.392   5.023  1.4862  1.3053  1.0349
 4913SOL     OW15070   3.895   2.085   0.891  0.0886 -0.1821  0.2770
 4913SOL    HW115071   3.834   2.101   0.818  0.8455  0.6476 -0.1881
 4913SOL    HW215072   3.925   2.172   0.916 -1.4187 -0.3217  2.7006
 4914SOL     OW15073   0.298   4.641   2.445 -0.1448 -0.0982 -0.0800
 4914SOL    HW115074   0.216   4.630   2.396 -0.3031 -0.0220  0.1645
 4914SOL    HW215075   0.329   4.728   2.419  0.0604 -0.2840 -0.4670
 4915SOL     OW15076   3.247   2.238   1.356  0.2527 -0.0949 -0.1099
 4915SOL    HW115077   3.165   2.243   1.306 -0.4219  0.7923  1.0480
 4915SOL    HW215078   3.273   2.147   1.349 -0.3667 -0.2052 -1.2316
 4916SOL     OW15079   0.873   3.868   3.653  0.2223 -0.2455  0.3218
 4916SOL    HW115080   0.875   3.843   3.746 -1.7811  2.3336  1.1167
 4916SOL    HW215081   0.961   3.849   3.621  1.5904  0.7284  3.2921
 4917SOL     OW15082   1.250   4.791   3.493 -0.3039 -0.1468 -0.5297
 4917SOL    HW115083   1.326   4.766   3.439  0.0971  1.0547 -0.5244
 4917SOL    HW215084   1.176   4.788   3.433  0.2873  2.1438 -1.4060
 4918SOL     OW15085   2.289   1.874   0.631 -0.0155  0.3865 -0.0771
 4918SOL    HW115086   2.287   1.832   0.717 -0.1794 -1.0665 -0.7792
 4918SOL    HW215087   2.281   1.802   0.569  2.6459  1.1419 -1.3920
 4919SOL     OW15088   1.611   3.968   2.233  0.2471 -0.2740 -0.2454
 4919SOL    HW115089   1.645   4.029   2.297 -0.1776  1.0007 -1.2194
 4919SOL    HW215090   1.516   3.974   2.242  0.1063  1.6741 -2.5711
 4920SOL     OW15091   2.088   2.725   3.417 -0.1494 -0.3272  0.5597
 4920SOL    HW115092   2.100   2.764   3.331 -1.1092  0.0759  0.6031
 4920SOL    HW215093   2.155   2.656   3.422 -0.3792 -0.6516 -0.6784
 4921SOL     OW15094   1.709   0.855   2.135  0.1860 -1.0155  0.3706
 4921SOL    HW115095   1.633   0.912   2.147 -0.2198 -1.9673  2.5979
 4921SOL    HW215096   1.679   0.789   2.073 -0.1739 -0.2826 -0.2477
 4922SOL     OW15097   5.057   1.915   4.891 -0.4267 -0.0218  0.5761
 4922SOL    HW115098   5.148   1.886   4.883 -0.9838 -1.3505 -1.3572
 4922SOL    HW215099   5.009   1.858   4.832 -2.4670  0.9689  1.2449
 4923SOL     OW15100   1.176   0.892   0.703 -0.1548  0.3328  0.0963
 4923SOL    HW115101   1.125   0.811   0.712 -0.9664  0.7887 -0.3053
 4923SOL    HW215102   1.124   0.958   0.749  1.3466  0.2909  1.8945
 4924SOL     OW15103   3.386   5.224   3.473 -0.3869  0.1688 -0.0703
 4924SOL    HW115104   3.317   5.219   3.540 -2.1894  2.1254 -1.6866
 4924SOL    HW215105   3.354   5.167   3.402 -0.6829  1.5596 -1.0769
 4925SOL     OW15106   5.395   2.631   3.036 -0.1084 -0.3936 -0.1391
 4925SOL    HW115107   5.416   2.558   2.977  0.9017 -0.0041 -0.2871
 4925SOL    HW215108   5.325   2.599   3.091 -0.5329 -1.0436 -1.0477
 4926SOL     OW15109   3.602   3.830   0.675 -0.3643  0.1660 -0.6162
 4926SOL    HW115110   3.536   3.783   0.625 -1.3929 -0.0027  0.8582
 4926SOL    HW215111   3.562   3.913   0.697  0.4392  0.6333 -0.8855
 4927SOL     OW15112   2.986   0.104   0.271 -0.6794 -0.2950  0.2898
 4927SOL    HW115113   3.045   0.067   0.336 -1.2084 -0.5519  0.6270
 4927SOL    HW215114   2.989   0.199   0.287 -0.4212 -0.3129  0.3522
 4928SOL     OW15115   3.965   1.428   0.597  0.0818  0.7754 -0.0769
 4928SOL    HW115116   4.017   1.494   0.643 -1.4749  2.1195 -0.1868
 4928SOL    HW215117   3.899   1.479   0.550  0.1220 -0.7508 -1.7992
 4929SOL     OW15118   3.165   3.975   0.617 -0.2410 -0.5130  0.5637
 4929SOL    HW115119   3.242   4.015   0.659 -1.0624  0.6132  1.0288
 4929SOL    HW215120   3.191   3.964   0.526  0.3245  0.2466  0.6248
 4930SOL     OW15121   5.441   1.068   3.498  0.5765 -0.1224  0.0498
 4930SOL    HW115122   5.404   1.094   3.413  0.9036  0.1512 -0.0118
 4930SOL    HW215123   5.426   1.144   3.554 -0.9016 -0.8340  0.6380
 4931SOL     OW15124   4.266   2.255   1.085  0.5500  0.3340  0.2226
 4931SOL    HW115125   4.341   2.232   1.031  0.6436 -0.9571  0.8764
 4931SOL    HW215126   4.271   2.351   1.093  0.6527  0.5257 -1.8290
 4932SOL     OW15127   3.210   1.030   0.488  0.5104 -0.4085  0.0527
 4932SOL    HW115128   3.255   0.959   0.443 -1.2435 -1.3295 -0.2442
 4932SOL    HW215129   3.176   1.086   0.419 -0.1044 -0.5138  0.2722
 4933SOL     OW15130   1.233   2.018   2.599  0.3728  0.0345  0.4130
 4933SOL    HW115131   1.196   1.996   2.684 -1.9660 -0.6027 -0.6998
 4933SOL    HW215132   1.292   2.091   2.615  0.6544 -0.6846  2.7013
 4934SOL     OW15133   0.049   4.555   0.508 -0.1533 -0.0806  0.1913
 4934SOL    HW115134   0.009   4.471   0.533  0.2391 -1.1041 -2.4646
 4934SOL    HW215135   0.141   4.535   0.495 -0.2589  0.4969 -1.5605
 4935SOL     OW15136   3.005   3.797   3.221 -0.4441  0.1282  0.4145
 4935SOL    HW115137   2.948   3.838   3.157  1.6733  2.0463 -0.3103
 4935SOL    HW215138   3.010   3.860   3.293  2.7048  1.1706 -0.6362
 4936SOL     OW15139   0.433   3.772   4.312  0.0848  0.0049 -0.2223
 4936SOL    HW115140   0.479   3.727   4.383 -0.4536 -0.2779 -0.0451
 4936SOL    HW215141   0.446   3.716   4.236 -1.0100 -0.7230  0.1137
 4937SOL     OW15142   0.864   3.008   2.630  0.6761  0.3765  0.2629
 4937SOL    HW115143   0.775   3.037   2.610  0.7572  0.4373 -0.0052
 4937SOL    HW215144   0.919   3.079   2.599  0.7491  0.8709  1.4830
 4938SOL     OW15145   3.944   0.097   5.144  0.0450  0.4980 -0.3249
 4938SOL    HW115146   3.887   0.021   5.148 -0.5064  0.8295 -1.6453
 4938SOL    HW215147   3.935   0.139   5.229 -0.0553 -0.6114  0.2174
 4939SOL     OW15148   2.736   4.171   5.423 -0.8468 -0.2470 -0.2068
 4939SOL    HW115149   2.808   4.133   5.475 -1.7219 -0.6257  0.7353
 4939SOL    HW215150   2.657   4.129   5.456 -1.3651 -0.9145 -2.2618
 4940SOL     OW15151   4.924   0.843   3.794  0.0912 -0.0455  0.0662
 4940SOL    HW115152   4.996   0.840   3.857 -0.9753 -1.0390  1.2589
 4940SOL    HW215153   4.858   0.899   3.835  0.5274  1.5920 -1.4090
 4941SOL     OW15154   0.842   1.430   0.651  0.2463  0.1829  0.2154
 4941SOL    HW115155   0.899   1.393   0.584  1.5809  1.0836  0.8359
 4941SOL    HW215156   0.780   1.484   0.603 -0.8309 -1.7348 -0.5685
 4942SOL     OW15157   4.165   2.358   2.121  0.1956  0.1888 -0.3332
 4942SOL    HW115158   4.139   2.273   2.086  0.5139 -0.1395  0.2083
 4942SOL    HW215159   4.255   2.370   2.089  0.7952 -0.4971  1.0220
 4943SOL     OW15160   0.884   0.459   2.276 -0.2330 -0.5013  0.0702
 4943SOL    HW115161   0.853   0.387   2.331  1.4229  0.1809  1.9684
 4943SOL    HW215162   0.834   0.535   2.306 -0.9956 -0.5809 -0.9862
 4944SOL     OW15163   2.450   4.074   1.252  0.7555 -0.1194  0.5234
 4944SOL    HW115164   2.512   4.143   1.227 -0.4291  1.0485  0.7311
 4944SOL    HW215165   2.493   3.993   1.226  1.3032  0.8104 -1.6107
 4945SOL     OW15166   2.470   4.929   0.633 -0.2178 -0.0539  0.3614
 4945SOL    HW115167   2.437   5.018   0.619  1.5731  0.6870  0.6531
 4945SOL    HW215168   2.418   4.896   0.705 -0.6798  0.8836  0.4754
 4946SOL     OW15169   1.650   0.488   2.924  0.1357  0.6200  0.0854
 4946SOL    HW115170   1.723   0.548   2.914 -1.0791  2.0287 -0.5525
 4946SOL    HW215171   1.583   0.520   2.863 -0.9317 -0.7559  0.4865
 4947SOL     OW15172   2.076   4.241   5.469 -0.1058  0.5256  0.5247
 4947SOL    HW115173   2.000   4.299   5.474 -0.3075  0.1884  1.4342
 4947SOL    HW215174   2.040   4.154   5.486  0.2903  0.2061 -0.2416
 4948SOL     OW15175   3.250   2.285   0.219  0.1141  0.0713 -0.5608
 4948SOL    HW115176   3.224   2.306   0.309  1.8149  1.9590 -0.4835
 4948SOL    HW215177   3.233   2.191   0.211 -0.2620 -0.0854  1.6502
 4949SOL     OW15178   4.361   3.616   0.087  0.4715  0.0607 -0.2859
 4949SOL    HW115179   4.372   3.535   0.137  0.3643  0.7519  0.8732
 4949SOL    HW215180   4.377   3.685   0.150 -1.7169  0.9879 -0.7221
 4950SOL     OW15181   5.215   4.906   2.958 -0.0601  0.2636 -0.3768
 4950SOL    HW115182   5.247   4.997   2.955 -0.7284  0.4886 -0.6378
 4950SOL    HW215183   5.292   4.855   2.986  0.2530  0.9371  0.0063
 4951SOL     OW15184   0.658   3.007   3.906 -0.0736 -0.9672 -0.4932
 4951SOL    HW115185   0.730   3.029   3.846  1.3031 -1.9028  0.7728
 4951SOL    HW215186   0.637   2.916   3.884  1.0212 -1.5954  1.0024
 4952SOL     OW15187   0.782   4.920   2.822  0.5234  0.5813  0.1319
 4952SOL    HW115188   0.867   4.935   2.778  0.4124 -1.3207 -0.7612
 4952SOL    HW215189   0.762   4.828   2.805 -0.6545  0.4192  2.2553
 4953SOL     OW15190   0.504   1.456   3.885 -0.4366 -0.6915  0.0271
 4953SOL    HW115191   0.546   1.525   3.936 -3.6016  0.2247  1.5220
 4953SOL    HW215192   0.478   1.499   3.804 -0.0369 -0.8085 -0.1626
 4954SOL     OW15193   3.047   1.687   4.042 -0.4188  0.1737  0.0329
 4954SOL    HW115194   3.088   1.725   3.964  1.3964  0.0308  0.8903
 4954SOL    HW215195   3.118   1.680   4.105 -1.9464  0.5888  1.8246
 4955SOL     OW15196   1.797   1.757   0.738 -0.5370 -0.0213 -0.3100
 4955SOL    HW115197   1.852   1.695   0.691 -1.8302 -1.6549  0.2913
 4955SOL    HW215198   1.858   1.809   0.790  0.8013  1.0710 -2.9297
 4956SOL     OW15199   1.206   4.195   4.921  0.2035  0.3924  0.7255
 4956SOL    HW115200   1.284   4.178   4.868 -0.2308  1.0776 -0.1404
 4956SOL    HW215201   1.241   4.231   5.003  0.8945 -1.1080  1.0982
 4957SOL     OW15202   2.850   4.351   2.759 -0.3230  0.4381  0.3218
 4957SOL    HW115203   2.832   4.331   2.851  0.1102  1.1228  0.5623
 4957SOL    HW215204   2.875   4.444   2.759 -0.1393  0.3952 -0.4615
 4958SOL     OW15205   5.153   4.714   3.609 -0.5532  0.0018 -0.1954
 4958SOL    HW115206   5.204   4.668   3.675 -2.4493 -1.0466  0.5679
 4958SOL    HW215207   5.131   4.798   3.650 -0.5945 -0.0996 -0.0095
 4959SOL     OW15208   1.702   2.280   2.477 -0.2074  0.5528  0.5816
 4959SOL    HW115209   1.648   2.205   2.452 -0.2404  0.9906 -0.7400
 4959SOL    HW215210   1.791   2.255   2.453 -0.3470  1.3001 -0.8391
 4960SOL     OW15211   2.816   2.617   4.568  0.1267  0.3925  0.3328
 4960SOL    HW115212   2.790   2.651   4.653 -0.5875  1.3606 -0.2567
 4960SOL    HW215213   2.796   2.688   4.507  1.1064 -0.0898 -0.5714
 4961SOL     OW15214   1.068   0.204   0.474  0.2126 -0.1666  0.8860
 4961SOL    HW115215   1.091   0.156   0.554  1.1277 -2.4060 -0.6707
 4961SOL    HW215216   0.985   0.167   0.446  1.5409 -1.7950 -1.0159
 4962SOL     OW15217   2.583   1.644   0.024 -0.1554  0.6344 -0.5034
 4962SOL    HW115218   2.519   1.673  -0.040 -0.5889  1.4440  0.2897
 4962SOL    HW215219   2.645   1.717   0.030  0.4144  0.1705 -0.7018
 4963SOL     OW15220   0.277   1.408   4.057  0.1664  0.1279  0.3381
 4963SOL    HW115221   0.208   1.438   3.997 -0.7621 -1.7610  0.4255
 4963SOL    HW215222   0.357   1.411   4.005 -0.4851 -0.6577 -0.7310
 4964SOL     OW15223   5.061   0.660   0.607 -0.1885  0.1649 -0.6750
 4964SOL    HW115224   5.045   0.715   0.684  0.5405  0.9295 -1.0682
 4964SOL    HW215225   4.977   0.660   0.560 -0.3094  0.6012 -0.4602
 4965SOL     OW15226   0.153   2.318   2.382  0.6245 -0.1403 -0.6516
 4965SOL    HW115227   0.213   2.391   2.399  1.1718 -0.5461 -0.8567
 4965SOL    HW215228   0.203   2.258   2.328  0.3102 -0.8717 -0.1336
 4966SOL     OW15229   1.588   0.398   0.724  0.0612  0.6439  0.0169
 4966SOL    HW115230   1.645   0.324   0.701 -0.7180 -0.6621  2.0793
 4966SOL    HW215231   1.570   0.442   0.641  0.6668 -1.4129 -1.2353
 4967SOL     OW15232   3.667   5.130   5.130 -0.2327  0.3093  0.4862
 4967SOL    HW115233   3.645   5.222   5.145  3.0573  1.3556 -0.6010
 4967SOL    HW215234   3.622   5.108   5.049 -0.6832  1.1056  0.5121
 4968SOL     OW15235   5.243   1.555   2.647  0.5108 -0.1392  0.0884
 4968SOL    HW115236   5.313   1.541   2.584  0.2767  0.3432 -0.2820
 4968SOL    HW215237   5.187   1.622   2.607  0.5870  0.4710  0.9827
 4969SOL     OW15238   1.870   0.641   2.990  0.2630  0.0609 -0.2489
 4969SOL    HW115239   1.934   0.571   2.999  1.9533  1.3027 -2.1789
 4969SOL    HW215240   1.877   0.690   3.073  2.2230  0.4965 -0.6479
 4970SOL     OW15241   3.140   2.277   3.573 -0.2470  0.8959  0.3751
 4970SOL    HW115242   3.230   2.274   3.605 -0.7080 -0.5984  1.5715
 4970SOL    HW215243   3.086   2.260   3.651 -1.5333  0.7293 -0.5330
 4971SOL     OW15244   1.565   2.781   0.312  0.0087 -0.5120  0.6166
 4971SOL    HW115245   1.508   2.853   0.338  0.9657  0.2234  0.7477
 4971SOL    HW215246   1.569   2.787   0.217  1.4447  0.7060  0.7270
 4972SOL     OW15247   3.185   3.691   2.374  0.6686  0.3870  0.1347
 4972SOL    HW115248   3.238   3.680   2.453  2.2099 -0.6160 -0.9977
 4972SOL    HW215249   3.097   3.663   2.399  1.0008  0.6687  1.6491
 4973SOL     OW15250   1.444   2.939   3.896 -0.2308  0.2253  0.0968
 4973SOL    HW115251   1.472   2.848   3.887 -2.1306 -0.5639  1.7898
 4973SOL    HW215252   1.385   2.938   3.971 -2.5854  2.3049 -1.6737
 4974SOL     OW15253   0.305   0.092   2.820 -0.0329 -0.1465 -0.7485
 4974SOL    HW115254   0.291   0.181   2.854 -1.4944 -1.1510  1.3882
 4974SOL    HW215255   0.391   0.096   2.778  0.5030  1.9412  0.4517
 4975SOL     OW15256   2.473   5.418   0.281 -0.0351  0.1950  0.5011
 4975SOL    HW115257   2.467   5.401   0.187  0.7673  0.4612  0.4010
 4975SOL    HW215258   2.385   5.399   0.314 -0.0801 -0.8056 -0.1539
 4976SOL     OW15259   1.525   0.290   1.529  0.6682 -0.8840 -0.3318
 4976SOL    HW115260   1.475   0.352   1.582  1.6807 -1.3817  1.2601
 4976SOL    HW215261   1.609   0.333   1.515  0.2276 -0.5571 -1.9541
 4977SOL     OW15262   1.335   5.266   0.114 -0.8730 -0.0168  0.3397
 4977SOL    HW115263   1.373   5.230   0.194 -1.2392 -1.1753  0.0104
 4977SOL    HW215264   1.240   5.260   0.128 -0.9332  0.6175  0.1910
 4978SOL     OW15265   0.540   1.824   1.435 -0.2099 -0.5323 -0.3563
 4978SOL    HW115266   0.444   1.819   1.440 -0.1304 -1.8408 -0.0615
 4978SOL    HW215267   0.557   1.906   1.388 -1.4085  0.9882  1.7793
 4979SOL     OW15268   0.570   4.150   2.901 -0.1388 -0.2976  0.4906
 4979SOL    HW115269   0.634   4.218   2.879 -1.4730  0.4060 -1.4229
 4979SOL    HW215270   0.488   4.182   2.864 -1.3513 -1.7436  1.8501
 4980SOL     OW15271   3.992   5.523   1.457  0.3040 -0.6558 -0.0115
 4980SOL    HW115272   4.061   5.502   1.393  0.2661 -0.5603 -0.0827
 4980SOL    HW215273   4.021   5.480   1.538  1.9249  1.7895  0.7631
 4981SOL     OW15274   2.117   4.860   3.623  0.1320  0.2957 -0.1963
 4981SOL    HW115275   2.053   4.817   3.679 -0.1659 -0.5120 -1.1532
 4981SOL    HW215276   2.202   4.841   3.664 -0.1994  1.1000  0.8913
 4982SOL     OW15277   0.147   3.447   1.680 -0.3257 -0.1126 -0.0739
 4982SOL    HW115278   0.109   3.385   1.617 -1.8454  0.6971  0.0400
 4982SOL    HW215279   0.120   3.414   1.765  0.3245 -0.2572  0.0811
 4983SOL     OW15280   4.978   4.960   0.219  0.1683 -0.0207 -0.0857
 4983SOL    HW115281   4.990   4.866   0.230  1.2855  0.1623  0.3681
 4983SOL    HW215282   4.884   4.973   0.226  0.0439 -1.0537  0.2830
 4984SOL     OW15283   5.502   0.845   4.608 -0.5536  0.0822  0.5812
 4984SOL    HW115284   5.586   0.865   4.650 -0.0904 -0.6282  0.0021
 4984SOL    HW215285   5.436   0.867   4.675  0.1397 -0.2810  1.3982
 4985SOL     OW15286   0.713   4.806   5.570 -0.3727  0.2057  0.6564
 4985SOL    HW115287   0.736   4.752   5.494 -1.7098 -3.4777  2.6967
 4985SOL    HW215288   0.637   4.856   5.542 -0.7085 -0.9229 -0.4962
 4986SOL     OW15289   4.001   3.109   3.740  0.1563 -0.2333 -0.6413
 4986SOL    HW115290   3.920   3.161   3.749  1.2331  1.1354  1.5797
 4986SOL    HW215291   4.063   3.168   3.699  1.5041  0.4368  2.2290
 4987SOL     OW15292   4.741   3.402   0.389  0.8749  0.1212 -0.0741
 4987SOL    HW115293   4.722   3.310   0.369  2.9995 -0.3698  0.0003
 4987SOL    HW215294   4.723   3.410   0.483  0.8723 -0.2673 -0.0404
 4988SOL     OW15295   5.175   0.299   2.423  0.4794 -0.0438  0.1623
 4988SOL    HW115296   5.099   0.266   2.471 -1.3677  1.9489 -1.3281
 4988SOL    HW215297   5.146   0.383   2.386  3.2217  0.4833 -0.8908
 4989SOL     OW15298   3.654   1.732   4.267  0.0381  0.2387 -0.3189
 4989SOL    HW115299   3.748   1.753   4.274  0.0355  0.1248  0.0431
 4989SOL    HW215300   3.648   1.641   4.293 -0.6519  1.2040  3.1034
 4990SOL     OW15301   1.505   4.793   1.840  0.2583 -0.1411  0.0439
 4990SOL    HW115302   1.549   4.877   1.822  1.9429 -1.5277 -2.6412
 4990SOL    HW215303   1.418   4.804   1.802  0.4792  0.3953 -0.3261
 4991SOL     OW15304   1.142   3.723   2.669  0.3113  0.5861 -0.3378
 4991SOL    HW115305   1.174   3.767   2.748  3.4349 -1.8880 -0.1146
 4991SOL    HW215306   1.183   3.770   2.597 -0.1262  0.9612 -0.3443
 4992SOL     OW15307   2.802   1.727   5.345 -0.1086 -0.1635 -0.4262
 4992SOL    HW115308   2.818   1.633   5.354  1.1620  0.1441  0.9010
 4992SOL    HW215309   2.890   1.766   5.348 -0.6146  1.0567 -1.0767
 4993SOL     OW15310   1.262   4.334   4.207  0.0788  0.0937  0.4777
 4993SOL    HW115311   1.321   4.378   4.268  2.0850 -0.0624 -1.2885
 4993SOL    HW215312   1.212   4.404   4.167 -1.3729  0.1883  2.3686
 4994SOL     OW15313   5.468   2.791   4.762  0.0885 -0.2204 -0.0142
 4994SOL    HW115314   5.374   2.786   4.749  0.1649  0.4058 -0.8230
 4994SOL    HW215315   5.492   2.880   4.735  1.0391 -0.6544 -0.6382
 4995SOL     OW15316   1.780   0.162   4.386 -0.1537  0.3453 -0.0188
 4995SOL    HW115317   1.799   0.068   4.390 -2.0126 -0.1932 -2.4312
 4995SOL    HW215318   1.863   0.204   4.408  0.5709 -1.8334  1.6829
 4996SOL     OW15319   2.656   0.280   5.196  0.2664 -0.1024  0.5897
 4996SOL    HW115320   2.736   0.236   5.166  0.8975  0.1050  1.9200
 4996SOL    HW215321   2.589   0.213   5.192 -0.3014  0.5465 -3.7212
 4997SOL     OW15322   4.891   2.038   0.279 -0.5728 -0.1229 -0.2816
 4997SOL    HW115323   4.800   2.024   0.305 -0.2831 -0.6865  0.4612
 4997SOL    HW215324   4.938   1.962   0.315  0.4230  0.8971  0.6093
 4998SOL     OW15325   0.448   5.299   3.290  0.1221  0.4366  1.0631
 4998SOL    HW115326   0.520   5.362   3.288  0.7823 -0.3337  0.2478
 4998SOL    HW215327   0.465   5.240   3.217 -2.0706  1.0246  0.0459
 4999SOL     OW15328   4.845   1.078   4.904  0.0356  0.2756 -0.1596
 4999SOL    HW115329   4.806   1.007   4.852  2.4284 -0.0863 -1.5526
 4999SOL    HW215330   4.875   1.142   4.839 -1.7884  2.4392  1.0718
 5000SOL     OW15331   2.439   3.792   0.558 -0.0172 -0.2305 -0.0702
 5000SOL    HW115332   2.353   3.764   0.588 -0.4481 -0.8691 -1.8059
 5000SOL    HW215333   2.459   3.733   0.485  1.8637 -0.0441  0.2747
 5001SOL     OW15334   3.789   4.363   1.504  0.0336 -0.2540 -0.3715
 5001SOL    HW115335   3.835   4.429   1.451 -1.2174  0.3081 -0.7860
 5001SOL    HW215336   3.814   4.383   1.594  2.0751 -1.1323 -0.7180
 5002SOL     OW15337   4.238   0.020   5.263  0.4484  0.4585 -0.8322
 5002SOL    HW115338   4.313  -0.040   5.260 -1.6983 -2.3010 -1.3242
 5002SOL    HW215339   4.192   0.005   5.180 -0.5553  2.3004 -0.6531
 5003SOL     OW15340   0.357   4.929   2.793  0.2553  0.0686  0.1553
 5003SOL    HW115341   0.348   4.838   2.766  2.8356 -0.6127  1.3857
 5003SOL    HW215342   0.356   4.926   2.889  0.7544  1.2638  0.2118
 5004SOL     OW15343   1.603   5.326   3.516 -0.3754 -0.0477 -0.2065
 5004SOL    HW115344   1.628   5.234   3.518  0.7840  0.1930 -1.6737
 5004SOL    HW215345   1.510   5.327   3.535 -0.7429 -1.6933 -1.7309
 5005SOL     OW15346   2.430   4.970   2.252  0.2910 -0.2632 -0.6406
 5005SOL    HW115347   2.373   4.894   2.260 -1.1123  0.8010 -0.2165
 5005SOL    HW215348   2.469   4.962   2.164 -0.4852 -1.0262 -0.9243
 5006SOL     OW15349   3.537   2.872   0.779  0.4145 -0.1679  0.2665
 5006SOL    HW115350   3.524   2.915   0.864 -0.4306  0.3040 -0.0975
 5006SOL    HW215351   3.539   2.944   0.716 -1.3093 -0.6668 -0.3834
 5007SOL     OW15352   0.660   3.259   1.180  0.2175  0.3810 -0.3233
 5007SOL    HW115353   0.585   3.317   1.170 -0.8055 -0.9373 -0.4112
 5007SOL    HW215354   0.676   3.257   1.275 -2.7631 -2.8963  0.1998
 5008SOL     OW15355   2.579   3.397   4.608 -0.1510 -0.3562  0.3991
 5008SOL    HW115356   2.518   3.472   4.606 -0.4632 -0.5855  1.1163
 5008SOL    HW215357   2.522   3.321   4.617  0.0601 -0.8324 -1.9421
 5009SOL     OW15358   5.144   5.218   3.188 -0.1202 -0.4595  0.5591
 5009SOL    HW115359   5.099   5.189   3.108  1.5937 -1.2706 -0.1643
 5009SOL    HW215360   5.113   5.307   3.203 -1.5872 -0.8297 -0.1673
 5010SOL     OW15361   5.501   3.502   1.497 -0.1457 -0.8971  0.2156
 5010SOL    HW115362   5.492   3.520   1.404  0.2386  0.0969  0.3566
 5010SOL    HW215363   5.501   3.407   1.504  0.2614 -0.9775 -0.8414
 5011SOL     OW15364   1.776   4.149   2.379  0.0341  0.0465  0.4847
 5011SOL    HW115365   1.769   4.244   2.389  0.1476  0.3277 -1.6875
 5011SOL    HW215366   1.869   4.133   2.364 -0.3214 -0.0619 -1.8508
 5012SOL     OW15367   4.484   0.526   5.055  0.2222  0.5860 -0.2030
 5012SOL    HW115368   4.407   0.583   5.062  0.0966  0.2477  1.2366
 5012SOL    HW215369   4.449   0.438   5.067  0.8579  0.4416  0.5370
 5013SOL     OW15370   2.378   3.087   0.686  0.2595  0.3313  0.0757
 5013SOL    HW115371   2.293   3.096   0.643 -0.0889  2.4733  1.1122
 5013SOL    HW215372   2.416   3.175   0.682  1.9119 -0.3452  0.6464
 5014SOL     OW15373   5.453   3.824   2.076 -0.5481  0.5578 -0.1164
 5014SOL    HW115374   5.388   3.833   2.006 -0.2572  2.2756 -0.2071
 5014SOL    HW215375   5.432   3.896   2.137  1.2326  1.1224 -0.1403
 5015SOL     OW15376   1.646   4.307   1.790 -0.5147 -0.1021 -0.0920
 5015SOL    HW115377   1.659   4.402   1.794 -0.4965 -0.0660 -0.8896
 5015SOL    HW215378   1.626   4.281   1.880 -0.7410  0.6923  0.0865
 5016SOL     OW15379   4.440   0.492   1.510  0.1164  0.4489 -0.2381
 5016SOL    HW115380   4.422   0.556   1.441  0.8428  0.4821 -0.3956
 5016SOL    HW215381   4.464   0.412   1.464  1.5675  0.7536 -0.0202
 5017SOL     OW15382   3.286   3.197   5.284 -0.4725 -0.1388 -1.2601
 5017SOL    HW115383   3.262   3.288   5.268  0.3469  0.4746  0.7701
 5017SOL    HW215384   3.203   3.151   5.293 -0.9206  0.9794  0.5727
 5018SOL     OW15385   0.505   3.915   1.450 -0.0671 -0.0822  0.3681
 5018SOL    HW115386   0.504   3.934   1.356 -1.0352 -1.1774  0.1447
 5018SOL    HW215387   0.431   3.965   1.485  0.2317  0.2442  0.5415
 5019SOL     OW15388   1.632   2.415   4.807 -0.4293  0.3509  0.6394
 5019SOL    HW115389   1.601   2.465   4.732  0.7484  2.6620  1.6239
 5019SOL    HW215390   1.553   2.392   4.856 -1.1035 -0.1517 -0.6642
 5020SOL     OW15391   1.706   2.736   4.817  0.2928  0.3179 -0.2936
 5020SOL    HW115392   1.666   2.649   4.814 -1.3618  0.9888  0.8650
 5020SOL    HW215393   1.705   2.767   4.727 -1.8520  0.2906 -0.3114
 5021SOL     OW15394   2.698   4.476   4.765  0.1338  0.3266 -0.5002
 5021SOL    HW115395   2.786   4.457   4.796  0.1055  2.0613  0.6974
 5021SOL    HW215396   2.643   4.408   4.804  0.9085 -0.6809 -1.1499
 5022SOL     OW15397   0.535   2.604   4.547  0.3800  0.6494  0.0703
 5022SOL    HW115398   0.513   2.690   4.583  0.9348  0.0532  1.8723
 5022SOL    HW215399   0.566   2.623   4.459  0.8550  2.3383  0.5732
 5023SOL     OW15400   1.429   1.646   0.262  0.2146  0.6590  0.4683
 5023SOL    HW115401   1.401   1.555   0.269  1.2345  0.3681  0.8242
 5023SOL    HW215402   1.506   1.643   0.205 -0.0487  1.3660  0.0703
 5024SOL     OW15403   0.260   1.696   0.201 -0.3473  0.7597 -0.6864
 5024SOL    HW115404   0.262   1.698   0.296 -1.3373  2.3178 -0.6673
 5024SOL    HW215405   0.352   1.695   0.175 -0.0818 -1.4428  0.2893
 5025SOL     OW15406   5.046   0.481   2.279  0.0485  0.0118 -0.1858
 5025SOL    HW115407   4.973   0.542   2.268  0.2328  0.5679  1.4698
 5025SOL    HW215408   5.088   0.479   2.193 -1.6822 -0.0295 -1.0495
 5026SOL     OW15409   1.430   4.188   4.763  0.8048  0.0571  0.1389
 5026SOL    HW115410   1.518   4.158   4.788  1.3217  0.3200 -1.3611
 5026SOL    HW215411   1.401   4.125   4.697  0.0691  0.2849  0.2426
 5027SOL     OW15412   4.229   4.537   1.742  0.1021 -0.1138 -0.4405
 5027SOL    HW115413   4.230   4.612   1.683  1.4934 -0.6755 -1.1609
 5027SOL    HW215414   4.157   4.554   1.802 -0.5673  1.0534 -1.5579
 5028SOL     OW15415   3.265   4.517   3.336  0.3304 -0.5477 -0.5129
 5028SOL    HW115416   3.339   4.473   3.379  0.9977  0.0550 -1.0279
 5028SOL    HW215417   3.304   4.594   3.295 -0.4257 -0.7102 -1.5584
 5029SOL     OW15418   3.574   2.962   3.692  0.2439  0.2628 -0.0520
 5029SOL    HW115419   3.579   3.006   3.777 -0.9344  0.3717 -0.0357
 5029SOL    HW215420   3.549   3.031   3.631  0.5302  0.0629 -0.3960
 5030SOL     OW15421   2.756   1.811   1.902  0.1269  0.0791  0.0611
 5030SOL    HW115422   2.787   1.858   1.825  1.1185 -0.1124  0.3241
 5030SOL    HW215423   2.781   1.720   1.887 -0.1955 -0.0583  0.3410
 5031SOL     OW15424   1.457   1.773   1.677  0.6559  0.2546  0.2551
 5031SOL    HW115425   1.430   1.683   1.658  2.5766 -0.1987 -0.4382
 5031SOL    HW215426   1.397   1.802   1.746 -0.6150 -1.2120 -0.2174
 5032SOL     OW15427   0.470   3.006   2.438  0.9661  0.5580  0.7138
 5032SOL    HW115428   0.423   3.060   2.375 -1.4304 -2.6953 -0.4351
 5032SOL    HW215429   0.540   2.965   2.387 -0.2174 -1.1099  0.3551
 5033SOL     OW15430   4.248   1.900   0.509 -0.2133 -0.0053 -0.5196
 5033SOL    HW115431   4.318   1.843   0.477 -0.6089 -0.3927 -0.6971
 5033SOL    HW215432   4.254   1.978   0.453 -1.4762 -1.0530 -2.1841
 5034SOL     OW15433   0.117   3.084   1.960  0.9303  0.4876  0.0432
 5034SOL    HW115434   0.182   3.073   1.891  0.0481 -0.2736 -0.6874
 5034SOL    HW215435   0.073   3.167   1.939  0.3656  0.0325 -0.5531
 5035SOL     OW15436   0.516   2.875   1.595  0.3481  0.0052 -0.1235
 5035SOL    HW115437   0.599   2.916   1.568 -0.3721  1.7608  0.2823
 5035SOL    HW215438   0.448   2.933   1.560 -0.7267 -1.5489 -0.6416
 5036SOL     OW15439   2.058   0.916   0.466  0.1230 -0.4834 -0.0440
 5036SOL    HW115440   2.073   0.830   0.426  1.3559 -0.5915  0.6186
 5036SOL    HW215441   2.059   0.899   0.560  1.5719  0.4195  0.1245
 5037SOL     OW15442   0.313   2.067   3.684  0.0893 -0.3727  0.2898
 5037SOL    HW115443   0.316   2.126   3.609 -1.7607 -0.5296  0.0624
 5037SOL    HW215444   0.366   1.992   3.657 -2.9328 -1.7596 -2.0792
 5038SOL     OW15445   3.967   0.022   3.178  0.0407  0.4048  0.1380
 5038SOL    HW115446   3.986   0.108   3.139  0.9301  0.8003  1.4052
 5038SOL    HW215447   3.945  -0.033   3.103 -0.0510  1.6073 -0.7467
 5039SOL     OW15448   4.115   0.789   1.365  0.6924  0.7021  0.0436
 5039SOL    HW115449   4.079   0.786   1.453  0.1810 -3.0756 -0.1992
 5039SOL    HW215450   4.210   0.787   1.377  0.6212 -2.1422  0.5570
 5040SOL     OW15451   2.910   4.539   1.107  0.3221 -0.1714 -0.0778
 5040SOL    HW115452   2.992   4.534   1.056 -0.6032 -1.8092 -1.4833
 5040SOL    HW215453   2.854   4.473   1.066 -1.4363  0.4232  1.3621
 5041SOL     OW15454   4.937   2.077   1.400  0.5606  0.3426  0.2916
 5041SOL    HW115455   4.862   2.122   1.439 -0.5426 -0.2985 -1.0238
 5041SOL    HW215456   4.919   2.077   1.306  1.6624 -0.8126  0.0536
 5042SOL     OW15457   0.548   2.749   3.802 -0.3042 -0.1557 -0.1093
 5042SOL    HW115458   0.462   2.738   3.762 -0.7737 -0.7355  1.0323
 5042SOL    HW215459   0.582   2.660   3.811 -0.0784 -0.0149  0.4976
 5043SOL     OW15460   0.167   4.845   5.219  0.5424 -0.4888 -0.5342
 5043SOL    HW115461   0.222   4.801   5.154  3.0832  2.0388 -0.1865
 5043SOL    HW215462   0.165   4.936   5.191  0.2010  0.3032  1.9442
 5044SOL     OW15463   1.107   2.468   1.652  0.1119 -0.4297  0.4729
 5044SOL    HW115464   1.159   2.541   1.684  1.1084 -0.9617  0.1046
 5044SOL    HW215465   1.047   2.447   1.724  2.2168 -1.5186  1.9560
 5045SOL     OW15466   4.958   1.878   4.379 -0.3037  0.0414 -1.0205
 5045SOL    HW115467   4.972   1.786   4.398 -0.0692  0.1459 -0.6863
 5045SOL    HW215468   4.864   1.891   4.387 -0.1332  0.2549  0.8232
 5046SOL     OW15469   2.186   5.542   3.218  0.0384  0.3313  0.3326
 5046SOL    HW115470   2.093   5.548   3.239  0.1172 -2.4576  1.6186
 5046SOL    HW215471   2.217   5.465   3.265  2.2719 -0.7858 -2.7974
 5047SOL     OW15472   1.452   2.713   4.358 -0.0241 -0.1191  0.3026
 5047SOL    HW115473   1.518   2.773   4.322  1.0004 -0.3973  1.6711
 5047SOL    HW215474   1.429   2.656   4.285  0.0549  1.0215 -0.6252
 5048SOL     OW15475   3.503   3.350   0.622  0.3962  0.1850  0.6160
 5048SOL    HW115476   3.438   3.295   0.579  0.5981 -0.0385  0.5958
 5048SOL    HW215477   3.585   3.303   0.611  0.4535  0.1435  1.2256
 5049SOL     OW15478   3.528   5.125   1.908 -0.3155 -0.1985  0.3135
 5049SOL    HW115479   3.447   5.127   1.959  0.0660 -2.6288  1.0777
 5049SOL    HW215480   3.500   5.145   1.818 -1.2270  2.3972  1.1154
 5050SOL     OW15481   0.773   3.228   4.210 -0.0188  0.5565 -0.3238
 5050SOL    HW115482   0.792   3.176   4.288  2.4565 -1.5045 -2.2147
 5050SOL    HW215483   0.848   3.214   4.153 -1.1153  3.1486 -2.5339
 5051SOL     OW15484   4.080   4.170   2.350  0.3549 -0.0119 -0.8680
 5051SOL    HW115485   3.996   4.147   2.312 -1.1829  1.9408  1.2229
 5051SOL    HW215486   4.111   4.090   2.392 -0.7183 -0.5869 -1.1744
 5052SOL     OW15487   0.082   0.985   1.549  0.3391  0.0484 -0.5116
 5052SOL    HW115488   0.071   0.892   1.568  0.3442  0.1675  0.0719
 5052SOL    HW215489   0.035   0.998   1.466  0.8259 -0.5884 -0.8889
 5053SOL     OW15490   0.254   2.020   1.674 -0.2376 -0.2271 -0.0188
 5053SOL    HW115491   0.289   1.932   1.689  2.3269  0.6147 -0.7362
 5053SOL    HW215492   0.187   2.008   1.607 -0.1908 -1.6788  0.1739
 5054SOL     OW15493   5.416   5.469   5.158 -0.0581  0.1069 -0.3212
 5054SOL    HW115494   5.358   5.395   5.175 -0.2371  0.5119  0.8214
 5054SOL    HW215495   5.359   5.545   5.157  0.4585  0.5300  0.9929
 5055SOL     OW15496   0.397   2.383   5.072 -0.0221  0.5469 -0.1857
 5055SOL    HW115497   0.484   2.345   5.078 -0.2039  0.0528 -0.6278
 5055SOL    HW215498   0.401   2.440   4.995 -0.6695 -1.0340 -1.4141
 5056SOL     OW15499   1.543   4.025   3.082  0.5397 -0.0693  0.2862
 5056SOL    HW115500   1.556   4.120   3.083  1.0313 -0.0885 -1.6260
 5056SOL    HW215501   1.630   3.988   3.097  0.3697 -0.2132  0.9109
 5057SOL     OW15502   4.362   5.433   1.744  0.3614  0.3589 -0.2520
 5057SOL    HW115503   4.365   5.345   1.783  0.7388 -0.6768 -2.5392
 5057SOL    HW215504   4.392   5.491   1.814 -0.6898 -1.2224  1.5747
 5058SOL     OW15505   1.237   0.561   3.091 -0.5786 -0.2121 -0.7273
 5058SOL    HW115506   1.301   0.541   3.160  1.3027  1.1316 -2.0042
 5058SOL    HW215507   1.191   0.639   3.122 -2.0329 -1.5208  0.4578
 5059SOL     OW15508   0.531   0.123   4.258 -0.3344  0.1271 -0.4069
 5059SOL    HW115509   0.563   0.108   4.347 -0.7672 -0.1842 -0.3057
 5059SOL    HW215510   0.502   0.037   4.228 -1.0721  0.4110 -0.5036
 5060SOL     OW15511   1.756   4.527   4.642 -0.3212  0.4016  0.3821
 5060SOL    HW115512   1.836   4.574   4.668  0.0186  0.1643 -0.2211
 5060SOL    HW215513   1.732   4.566   4.558 -1.3245  1.0546  0.9614
 5061SOL     OW15514   1.308   1.725   2.061  0.6334  0.3456 -0.4269
 5061SOL    HW115515   1.326   1.643   2.015 -1.9806 -0.5511  0.0438
 5061SOL    HW215516   1.289   1.788   1.992 -0.9268 -0.4027 -0.7218
 5062SOL     OW15517   1.084   5.138   1.856 -0.1562 -0.5455  0.3622
 5062SOL    HW115518   1.010   5.160   1.800 -0.0588 -1.3347 -0.0860
 5062SOL    HW215519   1.078   5.043   1.868  0.5198 -0.5526  0.6949
 5063SOL     OW15520   4.111   0.346   5.178  0.1742 -0.5943 -0.0803
 5063SOL    HW115521   4.202   0.331   5.152  0.8182  1.2785  0.9823
 5063SOL    HW215522   4.091   0.434   5.145 -0.2460  0.2287  2.2692
 5064SOL     OW15523   4.412   1.312   4.920 -0.2209  0.8856 -0.3500
 5064SOL    HW115524   4.455   1.309   4.834 -0.1564 -1.7903 -0.2719
 5064SOL    HW215525   4.349   1.240   4.917 -0.6306  1.1553  1.6457
 5065SOL     OW15526   0.696   2.416   2.655 -0.0568  0.1732 -0.2760
 5065SOL    HW115527   0.615   2.457   2.685  0.3658  0.7655  0.0643
 5065SOL    HW215528   0.748   2.404   2.735  0.2416 -0.0807 -0.5098
 5066SOL     OW15529   3.138   4.455   0.374 -0.8492  0.7957 -0.3682
 5066SOL    HW115530   3.110   4.539   0.336 -2.1237 -0.6384 -2.7301
 5066SOL    HW215531   3.065   4.396   0.358  0.6960 -1.2096 -0.2646
 5067SOL     OW15532   2.128   2.318   5.275  0.2592  0.0997  0.5505
 5067SOL    HW115533   2.077   2.396   5.296  0.7496  1.2363 -2.1972
 5067SOL    HW215534   2.089   2.285   5.194  1.6922 -0.9925  0.2729
 5068SOL     OW15535   2.425   5.565   0.672 -0.0123 -0.5698  0.0937
 5068SOL    HW115536   2.395   5.479   0.703  0.3611 -0.6702  0.1845
 5068SOL    HW215537   2.347   5.605   0.634 -0.1794 -0.9771 -0.0066
 5069SOL     OW15538   5.198   3.270   5.499 -0.5259  0.2316  0.1830
 5069SOL    HW115539   5.119   3.320   5.519 -0.4692  0.8071 -0.9779
 5069SOL    HW215540   5.166   3.181   5.484 -0.8370  0.2630  0.6619
 5070SOL     OW15541   5.100   1.367   5.106  0.0982  0.0804  0.4483
 5070SOL    HW115542   5.018   1.379   5.059  0.9020  0.8561 -0.7880
 5070SOL    HW215543   5.126   1.455   5.133  2.0397  0.2630 -1.8151
 5071SOL     OW15544   3.334   0.835   0.239  0.0736 -0.3558  0.6738
 5071SOL    HW115545   3.414   0.885   0.224  0.2387 -0.3815  1.4498
 5071SOL    HW215546   3.298   0.819   0.152  0.6972  0.0124  0.3530
 5072SOL     OW15547   3.475   0.334   1.794  0.0115 -0.8307 -0.0562
 5072SOL    HW115548   3.479   0.252   1.744 -1.1446 -1.6871  1.1882
 5072SOL    HW215549   3.501   0.308   1.883  0.3152  0.3104  0.2000
 5073SOL     OW15550   1.678   4.599   0.165  0.3048 -0.3618  0.5921
 5073SOL    HW115551   1.597   4.610   0.115 -0.0346 -2.0909  0.7455
 5073SOL    HW215552   1.650   4.601   0.257  0.8979  2.5750  0.7714
 5074SOL     OW15553   1.694   1.035   3.113 -0.7126  0.0933  0.2621
 5074SOL    HW115554   1.675   0.948   3.148 -0.1554 -0.0667  0.1596
 5074SOL    HW215555   1.694   1.024   3.018  2.0028 -0.3534  0.2860
 5075SOL     OW15556   5.040   0.562   4.493  0.0382  0.3312 -0.7427
 5075SOL    HW115557   4.965   0.503   4.501 -0.8886  1.4546 -1.0309
 5075SOL    HW215558   5.082   0.536   4.410  0.9793 -1.4122  0.2446
 5076SOL     OW15559   3.612   2.623   2.707  0.1602 -0.1291  0.5046
 5076SOL    HW115560   3.560   2.620   2.626  0.7157 -1.5706  0.1893
 5076SOL    HW215561   3.676   2.552   2.697  0.2266 -0.3298  2.2161
 5077SOL     OW15562   4.065   4.018   5.528  0.6245  0.0441  0.5614
 5077SOL    HW115563   3.972   4.019   5.506  0.6707 -0.0540  0.3587
 5077SOL    HW215564   4.110   4.007   5.444  0.7550 -1.5661  0.8270
 5078SOL     OW15565   0.309   5.418   1.737 -0.3050 -0.3330 -0.7888
 5078SOL    HW115566   0.391   5.369   1.730  0.0858 -0.3223  2.7550
 5078SOL    HW215567   0.330   5.506   1.706  0.7312 -0.6256 -0.9326
 5079SOL     OW15568   3.427   0.275   1.494 -0.2418 -0.0917 -0.4041
 5079SOL    HW115569   3.409   0.253   1.402 -1.1500 -0.9940 -0.0223
 5079SOL    HW215570   3.342   0.267   1.537  0.2864 -0.2038  0.6317
 5080SOL     OW15571   2.917   3.235   2.142  0.2099 -0.1826 -0.5467
 5080SOL    HW115572   2.940   3.298   2.074 -1.5749 -0.2849 -1.2714
 5080SOL    HW215573   2.946   3.150   2.106  0.6264 -0.0564 -0.5163
 5081SOL     OW15574   2.866   4.191   4.926 -0.2487  0.2934 -0.3282
 5081SOL    HW115575   2.920   4.266   4.949  0.1311 -0.4318  1.2123
 5081SOL    HW215576   2.786   4.202   4.978  0.6366 -1.4026  1.4347
 5082SOL     OW15577   2.330   2.975   2.592  0.1661  0.3469  0.4151
 5082SOL    HW115578   2.279   3.032   2.534  1.8746  1.4041 -0.0931
 5082SOL    HW215579   2.328   2.890   2.549  0.3243  0.8149 -0.5340
 5083SOL     OW15580   5.006   0.400   1.752  0.2798 -0.4678 -0.4471
 5083SOL    HW115581   5.044   0.320   1.718 -0.2114 -0.8569 -0.0914
 5083SOL    HW215582   4.912   0.392   1.733  0.2366  0.0498 -0.4667
 5084SOL     OW15583   1.345   2.876   4.543  0.1574 -0.5643  0.0351
 5084SOL    HW115584   1.275   2.938   4.521  1.4377  1.3416  1.2052
 5084SOL    HW215585   1.359   2.827   4.462 -1.1046  0.4475 -0.8328
 5085SOL     OW15586   1.746   0.605   4.563  0.1874  0.4304  0.1506
 5085SOL    HW115587   1.751   0.687   4.611  0.8386 -0.6914  2.0719
 5085SOL    HW215588   1.813   0.612   4.495  2.1718  0.3960  2.0749
 5086SOL     OW15589   4.455   0.823   3.678 -0.0658  0.2182  0.3779
 5086SOL    HW115590   4.467   0.762   3.605  2.7180  1.4442 -0.2604
 5086SOL    HW215591   4.510   0.788   3.748 -1.0186  0.2358  1.1479
 5087SOL     OW15592   2.744   1.219   3.045  0.0670 -0.4035 -0.3865
 5087SOL    HW115593   2.811   1.155   3.022 -0.4364 -0.6438 -1.1852
 5087SOL    HW215594   2.661   1.173   3.033 -0.2185 -0.5330  1.8662
 5088SOL     OW15595   3.880   2.460   3.063  0.0219  0.2516  0.2440
 5088SOL    HW115596   3.916   2.545   3.087 -0.2648 -0.0972  2.0348
 5088SOL    HW215597   3.952   2.398   3.080 -0.4039 -0.0824  0.8806
 5089SOL     OW15598   2.360   3.543   3.173 -0.0360 -0.3973 -0.0747
 5089SOL    HW115599   2.411   3.615   3.209 -0.8250  0.0797  0.1057
 5089SOL    HW215600   2.348   3.565   3.080 -1.2887  0.3122  0.2413
 5090SOL     OW15601   2.223   3.482   0.823 -0.0099 -0.3887  0.1283
 5090SOL    HW115602   2.155   3.418   0.843  1.0029 -0.9660  1.8090
 5090SOL    HW215603   2.280   3.438   0.760 -0.1072 -0.6099  0.1964
 5091SOL     OW15604   5.442   0.821   2.957 -0.1400  0.0314 -0.1510
 5091SOL    HW115605   5.450   0.726   2.946  2.4172  0.0455  1.2108
 5091SOL    HW215606   5.521   0.846   3.004 -0.4052  2.9649 -1.1744
 5092SOL     OW15607   1.057   1.078   2.141  0.4456  0.1018 -0.4009
 5092SOL    HW115608   1.086   1.009   2.082 -0.1282  0.6912 -1.3826
 5092SOL    HW215609   1.107   1.155   2.115 -1.6610  1.0303 -1.8616
 5093SOL     OW15610   3.785   5.565   0.341 -0.1437 -0.2456  0.3298
 5093SOL    HW115611   3.872   5.533   0.363 -0.5446 -0.6380  1.3545
 5093SOL    HW215612   3.733   5.552   0.420 -0.9627  0.6146 -0.0471
 5094SOL     OW15613   1.917   3.792   2.828  0.2220 -0.2442 -0.3027
 5094SOL    HW115614   1.835   3.744   2.842  0.0273  0.3155  0.5231
 5094SOL    HW215615   1.898   3.855   2.759  0.1930 -0.6689 -0.6849
 5095SOL     OW15616   2.913   5.292   0.915  0.8138 -0.2772 -0.4203
 5095SOL    HW115617   2.840   5.257   0.966 -0.3143  0.9252 -1.1778
 5095SOL    HW215618   2.884   5.287   0.824  1.8327 -0.1595 -0.7610
 5096SOL     OW15619   2.435   1.496   3.399 -0.1131  0.1044 -0.1425
 5096SOL    HW115620   2.527   1.470   3.408 -0.4802 -1.1055  0.2000
 5096SOL    HW215621   2.436   1.592   3.405  0.9631  0.0207  1.2368
 5097SOL     OW15622   3.508   3.113   1.233  0.4424  0.1974  0.2827
 5097SOL    HW115623   3.489   3.031   1.278 -0.1348  0.1075 -0.1240
 5097SOL    HW215624   3.466   3.104   1.148 -0.7198  1.4418  0.7211
 5098SOL     OW15625   0.766   1.002   2.003  0.0265  0.0973 -0.2372
 5098SOL    HW115626   0.724   1.081   1.969 -0.7540 -0.0032  0.4662
 5098SOL    HW215627   0.829   0.977   1.935 -0.5118  0.6885 -0.9684
 5099SOL     OW15628   5.189   3.201   3.509  0.1319 -0.0097  0.0186
 5099SOL    HW115629   5.123   3.156   3.456 -0.6135  0.9454  0.1255
 5099SOL    HW215630   5.141   3.272   3.552  1.1753  0.5263  0.3088
 5100SOL     OW15631   5.515   0.156   1.845  0.4198  0.2050 -0.7068
 5100SOL    HW115632   5.495   0.180   1.936  2.0070 -1.6146  0.1411
 5100SOL    HW215633   5.566   0.230   1.812  1.5068 -0.0022  0.4971
 5101SOL     OW15634   0.465   3.444   4.543 -0.1963 -0.6571  0.4273
 5101SOL    HW115635   0.376   3.478   4.554  0.0919 -0.1793  1.3098
 5101SOL    HW215636   0.469   3.417   4.451 -1.4280 -1.1938  0.5218
 5102SOL     OW15637   5.303   3.921   1.185 -0.4725 -0.4188 -0.1809
 5102SOL    HW115638   5.358   3.848   1.157 -0.2819 -0.9067  1.4503
 5102SOL    HW215639   5.213   3.891   1.172 -0.3868  0.2848 -2.6135
 5103SOL     OW15640   0.594   5.319   4.870 -0.1518 -0.0790 -0.1360
 5103SOL    HW115641   0.511   5.347   4.909 -1.2301 -0.2075 -2.2761
 5103SOL    HW215642   0.576   5.231   4.837  0.1998  0.6711 -2.4290
 5104SOL     OW15643   3.267   2.068   3.738 -0.0525 -0.4190  0.2275
 5104SOL    HW115644   3.255   2.046   3.830 -0.9063  0.2234  0.2807
 5104SOL    HW215645   3.344   2.125   3.736  0.3318 -0.9303  0.4666
 5105SOL     OW15646   1.294   2.415   1.469 -0.0136  0.3241 -0.4052
 5105SOL    HW115647   1.220   2.425   1.529 -0.8524 -1.2267 -1.1634
 5105SOL    HW215648   1.261   2.359   1.399  1.7098  0.0954 -1.0572
 5106SOL     OW15649   1.426   2.227   4.443 -0.4816 -0.5663  0.1169
 5106SOL    HW115650   1.399   2.285   4.514  0.8408 -0.0725  0.2324
 5106SOL    HW215651   1.522   2.226   4.448 -0.4869 -3.3684  0.6123
 5107SOL     OW15652   4.930   3.674   2.105  0.0927  0.0019  0.3477
 5107SOL    HW115653   4.895   3.707   2.187 -1.3677  2.7840 -1.3286
 5107SOL    HW215654   4.853   3.656   2.051  1.0169 -2.2133 -0.2801
 5108SOL     OW15655   0.430   2.412   1.584  0.3969  0.2822  0.0696
 5108SOL    HW115656   0.409   2.487   1.640  1.4672  0.3356  0.4140
 5108SOL    HW215657   0.392   2.434   1.499 -0.4903  0.5953  0.5423
 5109SOL     OW15658   2.183   3.542   0.440  0.0979 -0.1539 -0.2325
 5109SOL    HW115659   2.197   3.546   0.346 -1.8226  0.7161 -0.5161
 5109SOL    HW215660   2.208   3.454   0.465  2.3458  0.1816 -1.2489
 5110SOL     OW15661   0.305   5.403   4.424  0.2856  0.3434  0.1817
 5110SOL    HW115662   0.281   5.494   4.439  1.3960  0.4850  1.1781
 5110SOL    HW215663   0.254   5.377   4.347  1.5875  2.4853 -1.4754
 5111SOL     OW15664   4.418   1.639   1.294  0.2981  0.2069  0.7117
 5111SOL    HW115665   4.443   1.644   1.387 -1.2314  2.1771  1.0723
 5111SOL    HW215666   4.328   1.672   1.293  0.8558  1.7515 -1.6853
 5112SOL     OW15667   4.915   4.015   1.343 -0.3286  0.3930  0.1628
 5112SOL    HW115668   4.823   3.988   1.347 -0.0072 -0.7786 -0.3147
 5112SOL    HW215669   4.960   3.955   1.402 -0.0564  1.8326  1.4605
 5113SOL     OW15670   2.212   4.607   0.452  0.1843 -0.4136  0.0484
 5113SOL    HW115671   2.237   4.552   0.378 -0.5957 -0.0495 -0.5080
 5113SOL    HW215672   2.133   4.653   0.421 -0.2105 -0.3337  1.1446
 5114SOL     OW15673   4.881   4.781   5.330  0.0887  0.3465 -0.0549
 5114SOL    HW115674   4.852   4.780   5.239  1.3349  0.0363 -0.4529
 5114SOL    HW215675   4.964   4.827   5.328  0.2340  0.1291  0.8918
 5115SOL     OW15676   2.139   4.488   3.227  0.3306  0.0947 -0.1156
 5115SOL    HW115677   2.193   4.562   3.256  0.6895 -0.1049 -0.2715
 5115SOL    HW215678   2.152   4.484   3.132 -2.8063  2.3287 -0.7221
 5116SOL     OW15679   4.238   2.904   5.442 -0.2787  0.2007 -0.4213
 5116SOL    HW115680   4.264   2.876   5.354 -0.0511  0.8033 -0.5443
 5116SOL    HW215681   4.247   2.999   5.441 -1.1269  0.2865 -0.0204
 5117SOL     OW15682   0.583   3.661   3.577 -0.0844 -0.2024 -0.2850
 5117SOL    HW115683   0.487   3.667   3.569 -0.0045 -0.0036 -1.1222
 5117SOL    HW215684   0.612   3.636   3.490  0.6764  0.2780 -0.1675
 5118SOL     OW15685   2.441   4.577   1.065  0.2939  0.3214  0.5687
 5118SOL    HW115686   2.499   4.608   0.995  0.3765 -0.7575  0.1476
 5118SOL    HW215687   2.437   4.483   1.052 -0.0074  0.1656  1.7921
 5119SOL     OW15688   2.544   4.682   2.715 -0.1386  0.1475  0.8929
 5119SOL    HW115689   2.539   4.667   2.620 -1.1910  0.1263  0.9427
 5119SOL    HW215690   2.568   4.597   2.751  2.0926  0.5912  0.5046
 5120SOL     OW15691   4.423   4.959   4.321 -0.2915  0.0710 -0.3467
 5120SOL    HW115692   4.432   4.865   4.335 -1.0730 -0.2299 -1.7034
 5120SOL    HW215693   4.331   4.977   4.339  0.1075  0.8106  1.0711
 5121SOL     OW15694   4.019   2.231   3.296  0.1042 -0.3012  0.6810
 5121SOL    HW115695   4.065   2.241   3.212 -1.0143  0.2538  0.1241
 5121SOL    HW215696   4.072   2.168   3.345  2.0285  1.0908  0.4574
 5122SOL     OW15697   0.362   0.291   4.614  0.7549  0.9552 -0.5418
 5122SOL    HW115698   0.366   0.360   4.548 -0.4471  2.0887  0.5218
 5122SOL    HW215699   0.415   0.324   4.687  0.7549  0.4447 -0.3078
 5123SOL     OW15700   4.576   2.698   0.515  0.0979 -0.0482 -0.1048
 5123SOL    HW115701   4.527   2.734   0.589 -1.5320 -0.4226 -0.9818
 5123SOL    HW215702   4.606   2.775   0.466  0.6421  0.1842  0.5777
 5124SOL     OW15703   4.623   1.137   3.953 -0.2186 -0.8844 -0.2142
 5124SOL    HW115704   4.699   1.093   3.991 -0.3231 -1.3286 -0.5154
 5124SOL    HW215705   4.660   1.201   3.893 -0.0939 -2.1475 -1.5268
 5125SOL     OW15706   1.269   3.448   5.379  0.0783 -0.2802 -0.5922
 5125SOL    HW115707   1.178   3.449   5.407  0.1154  0.8407 -0.4793
 5125SOL    HW215708   1.299   3.359   5.396 -0.9711 -0.6342 -0.5650
 5126SOL     OW15709   4.702   2.984   1.373  0.3532 -0.0718  0.4788
 5126SOL    HW115710   4.769   2.961   1.438 -0.6159  0.4907  1.7020
 5126SOL    HW215711   4.620   2.984   1.422 -0.2738  1.2715 -0.5428
 5127SOL     OW15712   5.004   1.833   0.468 -0.4640  0.0870  0.2120
 5127SOL    HW115713   5.094   1.825   0.501 -1.1236 -4.0276  1.3154
 5127SOL    HW215714   4.960   1.889   0.531  0.9531  1.0429  0.3927
 5128SOL     OW15715   1.231   3.365   0.974  0.2482  0.4898 -0.3512
 5128SOL    HW115716   1.274   3.344   0.891  0.5643 -1.5909  0.3227
 5128SOL    HW215717   1.270   3.305   1.037  0.0427  2.0788  1.3366
 5129SOL     OW15718   0.758   1.084   5.146  0.5613 -0.4617 -0.0714
 5129SOL    HW115719   0.782   1.047   5.231  1.9984 -2.0810 -1.1865
 5129SOL    HW215720   0.755   1.179   5.162 -1.4321 -0.8622  2.3369
 5130SOL     OW15721   1.315   4.795   1.325  0.0530  0.2435  0.0774
 5130SOL    HW115722   1.236   4.759   1.285  0.1147  1.1717 -0.8757
 5130SOL    HW215723   1.296   4.792   1.419 -0.6224 -0.6721 -0.0734
 5131SOL     OW15724   4.661   0.009   3.838  0.0094  0.3507 -0.2732
 5131SOL    HW115725   4.590  -0.008   3.776 -2.0127 -0.6359  2.2076
 5131SOL    HW215726   4.728   0.052   3.786 -2.3850  1.2717 -2.7452
 5132SOL     OW15727   2.047   2.647   1.302 -0.0527  0.1310 -0.4632
 5132SOL    HW115728   1.967   2.627   1.253  0.4032 -0.6925 -0.8714
 5132SOL    HW215729   2.023   2.720   1.358 -0.9072  0.3336 -1.0859
 5133SOL     OW15730   4.917   1.380   3.575 -0.6569  0.5926 -0.4345
 5133SOL    HW115731   4.829   1.405   3.547 -0.3565 -0.1452 -2.1137
 5133SOL    HW215732   4.954   1.335   3.500  1.5504  1.8098 -0.1295
 5134SOL     OW15733   3.206   4.620   2.331 -0.3057  0.3821  0.1248
 5134SOL    HW115734   3.125   4.591   2.290 -0.8518  1.7990  0.1915
 5134SOL    HW215735   3.223   4.707   2.294  1.8866 -0.4213 -0.8892
 5135SOL     OW15736   0.817   4.826   4.601 -0.3718  0.0898 -0.0347
 5135SOL    HW115737   0.794   4.821   4.693 -1.5349 -2.8138 -0.4242
 5135SOL    HW215738   0.768   4.754   4.560  0.4618  1.0418 -2.8280
 5136SOL     OW15739   4.936   4.268   1.383  0.5553 -0.1496  0.0344
 5136SOL    HW115740   4.916   4.175   1.378  0.1107 -0.0473 -0.1229
 5136SOL    HW215741   4.892   4.306   1.307  1.2601  0.0973 -0.2532
 5137SOL     OW15742   1.884   1.819   5.005  0.4886  0.0937 -0.0586
 5137SOL    HW115743   1.866   1.727   5.021 -0.3183 -0.0881 -1.9477
 5137SOL    HW215744   1.939   1.846   5.079 -1.6290 -1.1452  1.9988
 5138SOL     OW15745   2.967   0.666   5.338  0.5183  0.4517  0.1692
 5138SOL    HW115746   2.896   0.621   5.292  1.4865  1.1368 -2.0950
 5138SOL    HW215747   2.927   0.698   5.419 -1.3239 -0.5555 -0.3215
 5139SOL     OW15748   4.766   0.343   1.542 -0.1546  0.2365  0.1286
 5139SOL    HW115749   4.727   0.417   1.589  0.3209  0.2213  0.5512
 5139SOL    HW215750   4.694   0.304   1.493 -0.6646  0.2135  0.9026
 5140SOL     OW15751   5.086   0.307   5.320  0.0879 -0.2136 -0.6764
 5140SOL    HW115752   5.127   0.381   5.366 -2.0211 -0.4629  1.7978
 5140SOL    HW215753   5.012   0.346   5.274  0.7084 -0.3578 -1.8092
 5141SOL     OW15754   0.155   3.738   1.600 -0.3965  0.8272 -0.1501
 5141SOL    HW115755   0.190   3.652   1.622  1.8439  1.8190  0.3235
 5141SOL    HW215756   0.066   3.739   1.637  0.4805 -0.3535  2.0574
 5142SOL     OW15757   3.639   5.091   4.844  0.3139  0.2323  0.4307
 5142SOL    HW115758   3.670   5.014   4.797 -1.1090  1.0308 -1.9049
 5142SOL    HW215759   3.712   5.152   4.842  0.8712 -0.4132  0.8535
 5143SOL     OW15760   4.258   0.688   2.369 -0.0976 -0.7762  0.4027
 5143SOL    HW115761   4.346   0.725   2.375 -0.4435  0.5953 -2.2865
 5143SOL    HW215762   4.207   0.738   2.433  0.4360  0.4833 -0.1283
 5144SOL     OW15763   3.333   3.245   1.397 -0.4569 -0.5003 -0.6352
 5144SOL    HW115764   3.410   3.204   1.358  1.1942 -0.0008  1.9783
 5144SOL    HW215765   3.288   3.173   1.441 -1.4470 -0.7572 -2.0104
 5145SOL     OW15766   5.014   5.399   1.068 -0.4254  0.2734  0.1999
 5145SOL    HW115767   5.004   5.491   1.044 -0.4444  0.0033 -0.8409
 5145SOL    HW215768   5.083   5.399   1.135  0.4019  0.9013 -0.6486
 5146SOL     OW15769   2.029   0.756   1.267 -0.4241 -0.0513  0.2260
 5146SOL    HW115770   1.999   0.844   1.244 -0.8083 -0.3604 -0.4784
 5146SOL    HW215771   2.054   0.763   1.359  2.4745  1.5810 -0.6173
 5147SOL     OW15772   0.989   3.714   0.920  0.0945 -0.3893  0.4356
 5147SOL    HW115773   0.942   3.710   1.004 -1.3064 -2.2585 -0.4029
 5147SOL    HW215774   0.959   3.636   0.873  0.5198  0.8968 -1.9939
 5148SOL     OW15775   2.075   0.452   3.007 -0.4376  0.1850  0.1770
 5148SOL    HW115776   2.040   0.362   3.004 -1.1909  0.5013 -0.6739
 5148SOL    HW215777   2.120   0.463   2.924 -0.9582  0.8472 -0.0178
 5149SOL     OW15778   3.247   3.856   0.948 -0.4649  0.8716  0.3174
 5149SOL    HW115779   3.163   3.894   0.923 -0.2971  0.7911 -0.3741
 5149SOL    HW215780   3.312   3.902   0.895 -0.2175 -0.0551 -0.1999
 5150SOL     OW15781   1.245   3.859   0.421 -0.1139  0.1475  0.7862
 5150SOL    HW115782   1.157   3.824   0.405  0.3295 -0.1637 -1.0563
 5150SOL    HW215783   1.244   3.947   0.382  0.9027 -0.5159 -0.7831
 5151SOL     OW15784   2.149   4.388   0.202  0.1595 -0.5376  0.0458
 5151SOL    HW115785   2.095   4.460   0.172 -1.1992 -0.9199  1.5225
 5151SOL    HW215786   2.138   4.320   0.135 -0.7593 -0.4022  0.0508
 5152SOL     OW15787   3.813   1.082   0.374  0.0214  0.1530 -0.1239
 5152SOL    HW115788   3.886   1.117   0.426  1.2149 -0.0189 -1.6474
 5152SOL    HW215789   3.813   0.988   0.395 -0.1507  0.2525  0.3341
 5153SOL     OW15790   5.352   0.735   1.122  0.1884 -0.7674  0.0572
 5153SOL    HW115791   5.434   0.735   1.072 -0.6655 -1.7378 -1.3762
 5153SOL    HW215792   5.345   0.646   1.156 -0.8763 -1.0615 -0.8790
 5154SOL     OW15793   2.750   3.697   1.827  0.1039  0.7546  0.2947
 5154SOL    HW115794   2.729   3.607   1.801 -0.2152  0.1534  2.5449
 5154SOL    HW215795   2.831   3.717   1.781 -0.5551 -0.1918 -1.3107
 5155SOL     OW15796   2.664   4.906   3.919  0.5811 -0.0262  0.0972
 5155SOL    HW115797   2.627   4.898   4.007  0.9787 -0.8037  0.2041
 5155SOL    HW215798   2.747   4.952   3.931  1.4829 -1.6958  0.3706
 5156SOL     OW15799   5.119   3.335   1.005 -0.4720 -0.2967 -0.1546
 5156SOL    HW115800   5.144   3.423   0.976  1.7772 -1.0507 -0.6244
 5156SOL    HW215801   5.025   3.329   0.986  0.1899  0.4470 -4.2958
 5157SOL     OW15802   1.816   1.573   2.099 -0.2492 -0.4016  0.2703
 5157SOL    HW115803   1.780   1.647   2.050 -0.2170 -0.4370  0.1943
 5157SOL    HW215804   1.786   1.588   2.189  1.0366  0.5307  0.5643
 5158SOL     OW15805   0.703   0.894   2.942 -0.4754  0.5682  0.2511
 5158SOL    HW115806   0.763   0.965   2.966 -0.5962  0.7975 -0.1158
 5158SOL    HW215807   0.639   0.892   3.013  0.2904 -0.0545  0.9322
 5159SOL     OW15808   2.260   3.063   4.307  1.0316  0.4305  0.2545
 5159SOL    HW115809   2.213   3.121   4.247  2.1427  0.2044 -0.8516
 5159SOL    HW215810   2.323   3.120   4.351 -0.3450  0.7606  1.8368
 5160SOL     OW15811   4.951   2.056   5.308  0.3299 -0.0455  0.1235
 5160SOL    HW115812   4.978   2.115   5.237  3.4750 -0.3981  0.9367
 5160SOL    HW215813   4.907   2.114   5.370  1.4560  1.0880 -0.0904
 5161SOL     OW15814   4.768   4.099   1.982 -0.3135 -0.3656 -0.0102
 5161SOL    HW115815   4.703   4.123   2.048 -0.2211 -3.8999  1.5233
 5161SOL    HW215816   4.852   4.103   2.028  0.2296  1.1181 -1.0974
 5162SOL     OW15817   0.978   4.765   0.347  0.1746  0.2050 -0.1150
 5162SOL    HW115818   1.013   4.687   0.391 -0.2185 -0.4070 -0.8787
 5162SOL    HW215819   1.021   4.838   0.391  0.4594 -0.4386  0.6914
 5163SOL     OW15820   4.046   4.374   2.944  0.0182  0.2878  0.1582
 5163SOL    HW115821   4.029   4.403   3.034 -2.4198  1.1033 -0.5548
 5163SOL    HW215822   4.112   4.435   2.912 -1.3072  1.8929  0.4013
 5164SOL     OW15823   5.375   4.660   1.076 -0.2911 -0.2638 -0.0970
 5164SOL    HW115824   5.462   4.644   1.040 -0.3280 -1.4477  0.3282
 5164SOL    HW215825   5.387   4.661   1.171 -0.5607  0.7045 -0.0618
 5165SOL     OW15826   4.328   0.245   4.828  0.4352  0.4203  0.8044
 5165SOL    HW115827   4.282   0.326   4.804  0.8547  0.4225 -0.0141
 5165SOL    HW215828   4.318   0.189   4.751 -3.1073 -1.7854  2.7180
 5166SOL     OW15829   3.779   2.583   3.880  0.1800 -0.1016  0.3986
 5166SOL    HW115830   3.721   2.547   3.947  1.0348  1.0657  1.8006
 5166SOL    HW215831   3.752   2.539   3.800  0.9409 -3.5671  1.9532
 5167SOL     OW15832   2.175   1.240   0.979 -0.5109  0.1004 -0.2677
 5167SOL    HW115833   2.146   1.254   1.069 -2.5796 -0.2284 -0.8510
 5167SOL    HW215834   2.120   1.299   0.927  0.8721  0.5056 -1.2868
 5168SOL     OW15835   0.824   5.018   0.113 -0.0821  0.0054 -0.2184
 5168SOL    HW115836   0.789   4.942   0.066 -0.8472 -0.4408  1.0662
 5168SOL    HW215837   0.752   5.082   0.113 -0.1139 -0.0315  0.4297
 5169SOL     OW15838   0.922   4.666   4.233  0.8588 -0.5821 -0.0639
 5169SOL    HW115839   0.934   4.606   4.159  0.3575 -0.9100  0.1159
 5169SOL    HW215840   0.941   4.752   4.197  0.1170 -0.6813 -0.7177
 5170SOL     OW15841   0.411   2.804   4.746 -0.2352  0.1613  0.0415
 5170SOL    HW115842   0.317   2.788   4.730 -0.2137 -2.1258  1.8753
 5170SOL    HW215843   0.418   2.808   4.841  1.7204 -1.0319 -0.0401
 5171SOL     OW15844   3.244   2.464   1.489 -0.5407 -0.6826  0.5648
 5171SOL    HW115845   3.256   2.381   1.441  0.5133 -1.8941  2.8487
 5171SOL    HW215846   3.191   2.441   1.565 -0.5895  0.8304  1.0012
 5172SOL     OW15847   3.926   4.710   2.315 -0.0835 -0.1568  0.0557
 5172SOL    HW115848   3.984   4.642   2.350 -2.3630 -1.7783  0.8118
 5172SOL    HW215849   3.964   4.792   2.345 -0.1918 -1.3422  3.6848
 5173SOL     OW15850   0.513   4.772   4.586 -0.0688  0.0669  0.5070
 5173SOL    HW115851   0.573   4.752   4.514 -0.6042 -0.1840  0.1267
 5173SOL    HW215852   0.505   4.690   4.634 -0.3011  0.0302  0.4080
 5174SOL     OW15853   3.916   3.493   2.414 -0.0939 -0.1364 -0.1817
 5174SOL    HW115854   3.824   3.481   2.438 -0.1061 -1.6504 -0.9361
 5174SOL    HW215855   3.918   3.576   2.367 -1.4674 -1.1708 -2.1041
 5175SOL     OW15856   0.109   0.114   3.207  0.4144  0.4403  0.2875
 5175SOL    HW115857   0.047   0.115   3.280  1.3207 -0.3925  1.0872
 5175SOL    HW215858   0.185   0.066   3.241  2.0470  2.5813 -0.2213
 5176SOL     OW15859   4.816   3.218   1.927  0.0609  0.0524  0.3027
 5176SOL    HW115860   4.789   3.149   1.987  2.8634 -0.6467  0.8608
 5176SOL    HW215861   4.784   3.190   1.842  1.0921 -1.9458  0.5446
 5177SOL     OW15862   3.358   0.853   2.579 -0.2315 -0.2959 -0.3147
 5177SOL    HW115863   3.287   0.789   2.572  0.4324 -1.1482  0.5674
 5177SOL    HW215864   3.396   0.857   2.491 -0.8328 -0.4795 -0.5794
 5178SOL     OW15865   2.732   4.781   1.773 -0.1210 -0.7561 -0.4471
 5178SOL    HW115866   2.715   4.873   1.793 -0.3458 -0.8919 -0.0045
 5178SOL    HW215867   2.790   4.752   1.844  0.8513 -0.6644 -1.1876
 5179SOL     OW15868   1.286   1.269   1.116  0.1623 -0.0939 -0.1900
 5179SOL    HW115869   1.373   1.266   1.156  0.2605  2.6191 -0.1325
 5179SOL    HW215870   1.301   1.253   1.023  0.7781  0.6765 -0.2254
 5180SOL     OW15871   2.598   1.035   5.181 -1.0900 -0.1465  0.7394
 5180SOL    HW115872   2.625   0.959   5.129 -0.2277  0.3594  0.4406
 5180SOL    HW215873   2.561   1.096   5.117 -0.6635  0.1886  0.8092
 5181SOL     OW15874   3.067   5.321   0.613  0.1763  0.4886 -0.0009
 5181SOL    HW115875   3.079   5.256   0.543  1.0853 -1.6911  2.1178
 5181SOL    HW215876   2.973   5.331   0.620 -0.1064 -2.6784  1.4388
 5182SOL     OW15877   2.754   0.559   5.144 -0.5198  0.4108  0.2768
 5182SOL    HW115878   2.725   0.470   5.162  0.7882 -0.2475 -0.7562
 5182SOL    HW215879   2.816   0.549   5.071 -1.7513  2.3671 -1.0641
 5183SOL     OW15880   1.497   1.322   1.553  0.2732  0.9964 -0.2749
 5183SOL    HW115881   1.559   1.379   1.600  0.8550 -0.4217  0.7030
 5183SOL    HW215882   1.476   1.370   1.473  2.9966  1.2979 -0.8462
 5184SOL     OW15883   3.762   4.772   3.447 -0.2744  0.5161 -0.5029
 5184SOL    HW115884   3.847   4.807   3.473 -0.1463  0.2784 -0.5963
 5184SOL    HW215885   3.778   4.729   3.363 -0.2369 -0.5303  0.0328
 5185SOL     OW15886   0.208   4.556   3.397  0.1610 -0.6909  0.3881
 5185SOL    HW115887   0.241   4.566   3.486 -1.5624  0.1373  0.9552
 5185SOL    HW215888   0.128   4.504   3.406 -0.3657 -0.0708 -0.5989
 5186SOL     OW15889   5.119   0.577   4.760  0.2719  0.2340 -0.1152
 5186SOL    HW115890   5.092   0.582   4.668  0.2664  0.1629 -0.1178
 5186SOL    HW215891   5.084   0.493   4.790 -0.6226  0.7253  0.2429
 5187SOL     OW15892   2.086   0.034   4.657 -0.1223 -0.7704  0.0907
 5187SOL    HW115893   2.022   0.090   4.613  0.0777 -1.0833 -0.6056
 5187SOL    HW215894   2.157   0.093   4.682 -0.0306 -0.6639 -0.4091
 5188SOL     OW15895   2.236   0.512   4.660 -0.5160 -0.3748 -0.5234
 5188SOL    HW115896   2.163   0.540   4.715 -0.4227 -2.4046  0.6797
 5188SOL    HW215897   2.267   0.592   4.619 -0.8406  1.1522  2.0972
 5189SOL     OW15898   1.105   0.644   2.313  0.1203 -0.4376 -0.7965
 5189SOL    HW115899   1.073   0.732   2.331  1.0170 -0.3791  0.5718
 5189SOL    HW215900   1.030   0.599   2.275 -0.6486  0.6209 -0.5582
 5190SOL     OW15901   5.380   1.751   5.445 -0.6779 -0.2574  0.7100
 5190SOL    HW115902   5.355   1.809   5.373  0.7086 -0.1481  0.2891
 5190SOL    HW215903   5.343   1.666   5.421  0.6492 -0.4686 -0.6761
 5191SOL     OW15904   2.745   1.415   5.343  0.3926 -0.0207  0.0840
 5191SOL    HW115905   2.801   1.337   5.348 -0.2315 -0.4651  0.2625
 5191SOL    HW215906   2.703   1.420   5.428 -0.8533 -0.4745 -0.4818
 5192SOL     OW15907   2.158   4.463   3.588  0.2868 -0.3634  0.1157
 5192SOL    HW115908   2.066   4.473   3.561  0.9961  1.4197 -1.7826
 5192SOL    HW215909   2.208   4.504   3.518  2.7035 -3.3105  0.0044
 5193SOL     OW15910   5.073   0.463   2.007 -0.1264  0.6557 -0.1297
 5193SOL    HW115911   5.157   0.509   1.996 -1.5424  3.2781 -0.4371
 5193SOL    HW215912   5.047   0.441   1.917  0.4489 -0.5666  0.0025
 5194SOL     OW15913   1.918   5.536   3.289  0.7702 -0.5001  0.5163
 5194SOL    HW115914   1.872   5.477   3.229  1.6028  0.7995 -1.4260
 5194SOL    HW215915   1.856   5.550   3.360 -0.7521 -1.0448 -0.6761
 5195SOL     OW15916   4.992   4.607   0.755 -0.5297  0.0842 -0.2809
 5195SOL    HW115917   5.072   4.568   0.720 -0.3614 -1.0411  1.3033
 5195SOL    HW215918   5.020   4.690   0.793  0.3948 -1.4937  2.6056
 5196SOL     OW15919   3.322   2.967   4.135  0.3830 -0.5241 -0.3030
 5196SOL    HW115920   3.312   2.980   4.041 -1.5101  0.6217  0.0167
 5196SOL    HW215921   3.270   2.889   4.154 -0.3686  0.0338 -0.0236
 5197SOL     OW15922   2.826   5.173   1.392 -0.5605  0.1562  0.4058
 5197SOL    HW115923   2.840   5.131   1.307  0.5019  1.5741 -0.1488
 5197SOL    HW215924   2.791   5.104   1.448 -1.5376 -0.7301 -1.2634
 5198SOL     OW15925   4.455   4.490   3.243 -0.1308 -0.0248 -0.4832
 5198SOL    HW115926   4.540   4.485   3.200 -0.4687 -0.3876 -1.1165
 5198SOL    HW215927   4.445   4.582   3.267  0.3423  0.0583 -0.6011
 5199SOL     OW15928   1.720   3.900   1.707  0.5145  0.0047  0.1014
 5199SOL    HW115929   1.626   3.891   1.692  0.7833 -1.0837 -1.0654
 5199SOL    HW215930   1.729   3.915   1.801 -0.8595  0.7379  0.1278
 5200SOL     OW15931   0.527   0.897   2.290 -0.5679 -0.2855  0.3831
 5200SOL    HW115932   0.475   0.923   2.366 -0.8993  0.0831  0.0325
 5200SOL    HW215933   0.471   0.838   2.241  0.1631 -1.6381  1.1449
 5201SOL     OW15934   0.497   1.528   1.341  0.0159 -0.2626  0.0290
 5201SOL    HW115935   0.471   1.618   1.323  0.4457 -0.4460 -1.5839
 5201SOL    HW215936   0.549   1.534   1.421  0.9044  1.0889 -0.6261
 5202SOL     OW15937   3.750   3.113   4.517  0.2114  0.4125 -0.1603
 5202SOL    HW115938   3.832   3.162   4.517  0.6802 -0.3651 -0.0198
 5202SOL    HW215939   3.683   3.179   4.534  0.8380  1.0035  0.0517
 5203SOL     OW15940   2.517   1.267   3.596  0.0869 -0.1666 -0.2464
 5203SOL    HW115941   2.574   1.288   3.522 -1.3165  1.3064 -0.9479
 5203SOL    HW215942   2.555   1.315   3.670 -0.1269  0.6727 -0.6730
 5204SOL     OW15943   3.895   4.049   1.306  0.1054 -0.0759 -0.5108
 5204SOL    HW115944   3.816   4.090   1.340  0.6636 -0.6143  1.5063
 5204SOL    HW215945   3.864   3.986   1.241 -1.2480 -1.3627  1.3456
 5205SOL     OW15946   4.129   5.069   3.433  0.0726 -0.0468  0.4812
 5205SOL    HW115947   4.044   5.113   3.434 -0.3496 -0.8429  0.6132
 5205SOL    HW215948   4.111   4.982   3.469  1.1495  0.1334  1.5027
 5206SOL     OW15949   1.818   0.818   4.717 -0.5639  0.4925 -0.1241
 5206SOL    HW115950   1.761   0.800   4.792 -1.5497 -0.1923 -1.0322
 5206SOL    HW215951   1.816   0.914   4.708  0.7302  0.7036  1.6187
 5207SOL     OW15952   4.146   4.672   3.313  0.0373  0.1116  0.0246
 5207SOL    HW115953   4.171   4.684   3.404 -2.3556  0.2093  0.6966
 5207SOL    HW215954   4.214   4.718   3.263 -0.7875  3.5346  1.9338
 5208SOL     OW15955   0.787   0.929   0.060 -0.6803 -0.6403 -0.0366
 5208SOL    HW115956   0.727   1.002   0.050 -0.6397 -0.8183 -1.7033
 5208SOL    HW215957   0.817   0.935   0.151  0.8929  2.6451 -0.7057
 5209SOL     OW15958   4.887   5.033   5.138 -0.6173 -0.4626  0.6202
 5209SOL    HW115959   4.968   4.997   5.174  1.3321  2.6228 -0.5144
 5209SOL    HW215960   4.868   5.109   5.193 -2.2562 -0.6561  0.3362
 5210SOL     OW15961   4.006   1.161   0.591  1.0191 -0.1846 -0.8014
 5210SOL    HW115962   3.936   1.119   0.641  0.4444  1.1213 -0.4839
 5210SOL    HW215963   3.989   1.255   0.600  2.4815  0.1345 -1.2073
 5211SOL     OW15964   3.352   4.693   2.942  0.3128 -0.4904 -0.4539
 5211SOL    HW115965   3.446   4.709   2.932  0.2141  0.4738  0.1007
 5211SOL    HW215966   3.314   4.718   2.857  0.6180 -1.4157 -0.8699
 5212SOL     OW15967   3.924   0.259   2.354  0.1865 -0.0080 -0.3198
 5212SOL    HW115968   4.019   0.249   2.368 -0.3228 -3.9458  1.0492
 5212SOL    HW215969   3.911   0.236   2.262  0.3001 -2.0273  0.1464
 5213SOL     OW15970   1.586   3.437   4.449  0.4188  0.2580 -0.3099
 5213SOL    HW115971   1.523   3.498   4.410  0.3298  0.3041 -0.0921
 5213SOL    HW215972   1.671   3.465   4.414  0.2279 -0.3489 -1.3052
 5214SOL     OW15973   2.091   3.320   3.862  0.3304  0.4066 -0.0157
 5214SOL    HW115974   2.009   3.367   3.848  0.2011  0.9774  2.4448
 5214SOL    HW215975   2.086   3.245   3.803 -1.0354  1.5490 -1.3951
 5215SOL     OW15976   3.489   2.577   0.193 -0.2242  0.4722  0.3278
 5215SOL    HW115977   3.446   2.587   0.277 -0.6488  0.8443  0.0719
 5215SOL    HW215978   3.423   2.535   0.137  0.5016 -0.9407  0.5414
 5216SOL     OW15979   4.184   3.924   2.876  0.1943  0.6230 -0.1671
 5216SOL    HW115980   4.174   3.848   2.819 -0.4729 -1.4336  2.5967
 5216SOL    HW215981   4.119   3.987   2.844 -0.6779 -0.7714 -1.2006
 5217SOL     OW15982   2.701   1.854   2.779 -0.7330  0.2526 -0.2204
 5217SOL    HW115983   2.638   1.783   2.769 -0.7446  0.5120 -2.2199
 5217SOL    HW215984   2.727   1.875   2.689 -0.0867  2.1834  0.4030
 5218SOL     OW15985   2.706   5.486   1.456  0.7654 -0.3056 -0.5474
 5218SOL    HW115986   2.644   5.552   1.487  0.7833 -0.6072  0.1487
 5218SOL    HW215987   2.652   5.419   1.415  0.5805 -0.7509  0.3899
 5219SOL     OW15988   3.672   0.122   4.125  0.5621 -0.5720  0.1754
 5219SOL    HW115989   3.619   0.179   4.181 -0.7425 -0.5529 -1.0471
 5219SOL    HW215990   3.610   0.086   4.062  2.2811  0.6972 -2.3079
 5220SOL     OW15991   3.517   2.865   4.430 -0.2336 -0.1119 -0.3972
 5220SOL    HW115992   3.482   2.818   4.355  0.5641 -1.5749  0.1285
 5220SOL    HW215993   3.487   2.816   4.506 -0.6586  1.1024  0.2362
 5221SOL     OW15994   2.095   4.737   1.469 -0.2268 -0.0706  0.6893
 5221SOL    HW115995   2.127   4.734   1.378 -0.2350 -0.8503  0.7084
 5221SOL    HW215996   2.005   4.769   1.462  0.6825  2.6479  0.6739
 5222SOL     OW15997   0.489   1.165   2.228 -0.1188  0.4930  0.0018
 5222SOL    HW115998   0.396   1.167   2.247 -0.4678  1.9809 -1.6883
 5222SOL    HW215999   0.516   1.075   2.246 -1.9042  0.0201  0.3820
 5223SOL     OW16000   4.836   1.451   0.803 -0.5971  0.1979  0.6376
 5223SOL    HW116001   4.808   1.385   0.867 -3.3006  0.7646  0.0986
 5223SOL    HW216002   4.871   1.401   0.730  0.0378 -0.5369  1.4380
 5224SOL     OW16003   1.939   0.259   2.348  0.2349 -0.3803  0.4117
 5224SOL    HW116004   1.927   0.186   2.408 -0.3201 -1.5789 -1.1177
 5224SOL    HW216005   2.034   0.268   2.340  0.3106 -1.7550 -0.3432
 5225SOL     OW16006   5.364   2.542   4.416  0.0409  0.9107  0.0886
 5225SOL    HW116007   5.412   2.460   4.424  0.7815  1.4612  1.4505
 5225SOL    HW216008   5.333   2.561   4.505 -0.7894  1.6968 -0.3626
 5226SOL     OW16009   0.350   1.569   4.774  0.0876 -0.2125  0.0373
 5226SOL    HW116010   0.279   1.624   4.807 -0.5174 -0.7760 -0.3185
 5226SOL    HW216011   0.342   1.487   4.823  1.4771  0.2899  1.1427
 5227SOL     OW16012   5.378   5.487   3.159 -0.8160  0.8535 -0.1623
 5227SOL    HW116013   5.343   5.503   3.071  2.9173 -0.7426 -2.0566
 5227SOL    HW216014   5.409   5.396   3.157  1.0451  1.3718  2.1600
 5228SOL     OW16015   3.411   0.990   5.445 -0.5768 -0.0250  0.7817
 5228SOL    HW116016   3.352   1.017   5.516 -0.5882 -1.2792  1.2633
 5228SOL    HW216017   3.386   0.900   5.426  1.6207 -0.7984  1.4499
 5229SOL     OW16018   3.140   1.032   1.850 -0.0302 -0.1780  0.0975
 5229SOL    HW116019   3.228   1.062   1.874 -0.0857  0.5226 -0.5499
 5229SOL    HW216020   3.154   0.974   1.775 -0.0916 -0.2504  0.1428
 5230SOL     OW16021   5.491   1.441   2.488  0.1778  0.0277  0.3136
 5230SOL    HW116022   5.524   1.351   2.498  0.5515  0.2474  1.1547
 5230SOL    HW216023   5.569   1.495   2.498 -0.2048  0.4889  0.7964
 5231SOL     OW16024   2.772   5.378   2.072 -0.2635  0.0822  0.0940
 5231SOL    HW116025   2.726   5.377   1.988 -0.1919 -0.5448  0.0626
 5231SOL    HW216026   2.734   5.306   2.122  1.2681 -0.9883 -0.2532
 5232SOL     OW16027   1.592   1.033   4.320 -0.5305 -0.2716 -0.5512
 5232SOL    HW116028   1.504   1.010   4.350 -0.6022  1.5995  0.7493
 5232SOL    HW216029   1.639   1.058   4.399  1.2932 -1.5758 -1.1920
 5233SOL     OW16030   1.109   2.373   4.367 -0.2983 -0.0741  0.8178
 5233SOL    HW116031   1.129   2.280   4.363 -1.1272 -0.2369  0.3888
 5233SOL    HW216032   1.076   2.387   4.456 -2.2462 -0.6247  0.2087
 5234SOL     OW16033   0.686   5.046   2.056 -0.1447  0.5641 -0.1671
 5234SOL    HW116034   0.781   5.035   2.056 -0.0045  1.6001 -1.8969
 5234SOL    HW216035   0.669   5.104   2.130  0.3394 -1.2062  1.3805
 5235SOL     OW16036   2.314   4.712   0.722  0.1530 -0.0403  0.5235
 5235SOL    HW116037   2.259   4.657   0.778  1.0534 -0.3523  1.1143
 5235SOL    HW216038   2.329   4.658   0.644 -0.6646  0.1849  0.2077
 5236SOL     OW16039   0.480   4.455   1.502  0.5640 -0.3776  0.2100
 5236SOL    HW116040   0.423   4.382   1.528 -2.2228  1.1944 -1.2113
 5236SOL    HW216041   0.448   4.529   1.552  0.0895  0.9461 -1.9679
 5237SOL     OW16042   1.251   4.076   4.140 -0.1034  0.0429  0.7207
 5237SOL    HW116043   1.259   4.157   4.190 -0.8663 -0.1669  1.1840
 5237SOL    HW216044   1.181   4.093   4.077  0.5182  0.1336  0.0378
 5238SOL     OW16045   3.260   5.303   5.445 -0.6578 -0.5622 -0.3498
 5238SOL    HW116046   3.232   5.289   5.536  0.3718 -1.5322 -0.1740
 5238SOL    HW216047   3.186   5.274   5.392  0.0335 -3.2788  0.1002
 5239SOL     OW16048   3.777   5.081   2.146  0.7556  0.1455  0.1465
 5239SOL    HW116049   3.865   5.045   2.137  0.8579 -0.4917  3.2186
 5239SOL    HW216050   3.720   5.015   2.108  1.4794 -0.1598 -0.4184
 5240SOL     OW16051   3.673   1.114   5.456  0.3024  0.7578 -0.0651
 5240SOL    HW116052   3.602   1.049   5.456  0.2925  0.7610  0.5415
 5240SOL    HW216053   3.724   1.093   5.535  2.4710 -0.8611 -1.8534
 5241SOL     OW16054   2.235   3.744   5.118 -0.1248  1.1474  0.3294
 5241SOL    HW116055   2.301   3.793   5.070 -1.1070  2.0074 -0.1427
 5241SOL    HW216056   2.154   3.792   5.104 -1.1801 -0.8406 -0.4871
 5242SOL     OW16057   1.356   2.238   0.623 -0.8897  0.3979 -0.4289
 5242SOL    HW116058   1.337   2.310   0.563 -1.4447  0.2621 -0.4155
 5242SOL    HW216059   1.282   2.178   0.614 -1.1670  0.5559  0.6581
 5243SOL     OW16060   4.803   2.389   0.157 -0.3177  0.3832 -0.2648
 5243SOL    HW116061   4.828   2.479   0.177 -0.6406  0.3529  0.2992
 5243SOL    HW216062   4.739   2.367   0.225 -0.2140 -0.2797 -0.3837
 5244SOL     OW16063   4.078   0.705   4.741  0.0310  0.8280  0.3272
 5244SOL    HW116064   4.021   0.780   4.761 -1.6827 -0.4164  0.2580
 5244SOL    HW216065   4.158   0.744   4.706  0.1093  2.7222  2.4840
 5245SOL     OW16066   2.166   0.212   0.651 -0.3328 -0.3834 -0.1237
 5245SOL    HW116067   2.135   0.298   0.622  2.5431  0.5071 -0.7162
 5245SOL    HW216068   2.176   0.221   0.746  0.7884  0.2599 -0.2849
 5246SOL     OW16069   5.356   2.644   4.190  0.2599 -0.6242 -0.0631
 5246SOL    HW116070   5.348   2.605   4.277 -0.7966 -0.1855  0.0492
 5246SOL    HW216071   5.418   2.588   4.143 -0.8210 -2.1176  0.2626
 5247SOL     OW16072   2.501   4.840   2.025 -0.0769 -0.1199 -0.3159
 5247SOL    HW116073   2.533   4.756   2.059 -3.1799 -1.5684 -0.8329
 5247SOL    HW216074   2.579   4.881   1.986  2.0683 -1.5052  2.3260
 5248SOL     OW16075   3.729   0.625   2.228 -0.1886 -0.4772  0.0740
 5248SOL    HW116076   3.757   0.654   2.315 -0.7622  1.2754 -0.3029
 5248SOL    HW216077   3.689   0.539   2.243  0.9383 -0.8150  1.3262
 5249SOL     OW16078   1.987   2.673   4.824 -0.3460  0.2439  0.6327
 5249SOL    HW116079   1.899   2.700   4.849 -0.2119  0.1976  1.1624
 5249SOL    HW216080   1.974   2.611   4.752 -0.8018 -0.8109  1.6237
 5250SOL     OW16081   3.467   2.362   5.233 -0.2127  0.7119 -0.2312
 5250SOL    HW116082   3.397   2.327   5.178 -0.9508  1.0507  0.4816
 5250SOL    HW216083   3.525   2.288   5.250  0.4785  0.7744 -2.1346
 5251SOL     OW16084   1.648   0.761   3.119 -0.2877  0.0557  0.4810
 5251SOL    HW116085   1.626   0.768   3.026  0.2668 -0.3439  0.3158
 5251SOL    HW216086   1.639   0.668   3.139 -0.8403  0.2044  0.9410
 5252SOL     OW16087   1.322   2.133   4.227 -0.3720 -0.4565 -0.4841
 5252SOL    HW116088   1.363   2.164   4.308 -0.8078  0.9965 -0.8050
 5252SOL    HW216089   1.395   2.128   4.165 -0.4879  1.0135 -0.7378
 5253SOL     OW16090   1.448   4.555   2.419 -0.2410 -0.5055 -0.4843
 5253SOL    HW116091   1.490   4.641   2.429 -0.5011 -0.2843 -1.3296
 5253SOL    HW216092   1.516   4.493   2.445  0.0522 -0.0585 -0.1785
 5254SOL     OW16093   0.687   2.472   3.867  0.0237 -0.7516  0.9072
 5254SOL    HW116094   0.708   2.416   3.941  2.9307  1.0982  1.5863
 5254SOL    HW216095   0.671   2.412   3.794 -0.0985 -2.5011  2.3547
 5255SOL     OW16096   0.612   4.936   0.449 -0.6561 -0.6028  0.4039
 5255SOL    HW116097   0.703   4.918   0.475 -0.4112  0.6362  0.4582
 5255SOL    HW216098   0.591   5.018   0.495 -1.0415  0.3079 -1.3704
 5256SOL     OW16099   5.536   4.732   3.568  0.2210 -0.1254  0.4726
 5256SOL    HW116100   5.543   4.760   3.660 -0.1508  0.0977  0.4348
 5256SOL    HW216101   5.619   4.759   3.529  0.2405  0.0921  0.6598
 5257SOL     OW16102   4.397   0.067   0.027 -0.0040  0.5467 -0.5544
 5257SOL    HW116103   4.486   0.045  -0.003 -0.9586 -0.5708 -2.6998
 5257SOL    HW216104   4.357   0.112  -0.047 -1.4754  0.3849  0.1303
 5258SOL     OW16105   2.703   1.115   0.561  0.6242 -0.1395 -0.0915
 5258SOL    HW116106   2.792   1.138   0.588  1.0463 -0.2951 -1.3145
 5258SOL    HW216107   2.686   1.171   0.486 -0.7092  0.6225  0.7480
 5259SOL     OW16108   2.566   3.861   2.710  0.1629 -0.6550 -0.3499
 5259SOL    HW116109   2.577   3.801   2.784  1.2863  0.3958  0.3344
 5259SOL    HW216110   2.486   3.909   2.730  1.1220  0.5053  0.8255
 5260SOL     OW16111   1.181   0.540   2.639  0.3541 -0.2285  0.1322
 5260SOL    HW116112   1.272   0.555   2.615  0.4558 -0.0515  0.6221
 5260SOL    HW216113   1.154   0.622   2.682  0.9289 -1.4403  2.9062
 5261SOL     OW16114   0.724   4.642   0.880  1.3322  1.0152 -0.4891
 5261SOL    HW116115   0.672   4.697   0.821  0.1177  1.6998  1.1947
 5261SOL    HW216116   0.689   4.660   0.967  1.5488 -1.7223  0.2053
 5262SOL     OW16117   2.952   1.876   2.081  0.0619 -0.1418 -0.1330
 5262SOL    HW116118   2.941   1.860   2.175  0.0117  0.9957  0.0672
 5262SOL    HW216119   2.865   1.860   2.044  0.3114 -1.5191 -0.1274
 5263SOL     OW16120   1.854   5.232   1.026  0.4541  0.3560 -0.0593
 5263SOL    HW116121   1.833   5.163   0.962 -0.7433  0.2601  0.4251
 5263SOL    HW216122   1.811   5.204   1.106  0.5466  1.3325  0.3359
 5264SOL     OW16123   1.979   2.015   2.609 -0.6777  0.3260 -0.4394
 5264SOL    HW116124   2.008   2.072   2.680  2.3702 -1.7388  0.0930
 5264SOL    HW216125   1.928   1.947   2.653  0.6294 -0.5692 -0.2790
 5265SOL     OW16126   2.724   1.385   2.723 -0.0987 -0.2316  0.1295
 5265SOL    HW116127   2.800   1.406   2.669  0.6267 -0.5551  1.0055
 5265SOL    HW216128   2.706   1.293   2.705 -0.2669 -0.1583 -0.0689
 5266SOL     OW16129   0.797   1.241   0.859  0.6773 -0.2146 -0.0381
 5266SOL    HW116130   0.807   1.314   0.798 -0.9505  1.0929  1.2199
 5266SOL    HW216131   0.757   1.279   0.936  0.9313 -2.2227  1.1299
 5267SOL     OW16132   4.338   5.409   3.809 -0.2100 -0.2109 -0.3463
 5267SOL    HW116133   4.360   5.388   3.899 -1.8057  2.2957  0.6764
 5267SOL    HW216134   4.343   5.325   3.763 -0.7257 -1.7730  2.3314
 5268SOL     OW16135   5.408   4.934   0.051 -0.6986 -0.0242 -0.2589
 5268SOL    HW116136   5.504   4.939   0.045 -0.6153  2.5296  2.0802
 5268SOL    HW216137   5.390   4.843   0.075  1.2068 -0.3608 -0.0160
 5269SOL     OW16138   0.935   1.613   4.912  0.4692 -0.2353  0.2091
 5269SOL    HW116139   0.910   1.588   4.823  1.7789 -0.1799 -0.1801
 5269SOL    HW216140   0.886   1.694   4.928 -0.9919 -1.0825  0.1351
 5270SOL     OW16141   3.689   3.766   0.925  1.0875  0.4822 -0.4039
 5270SOL    HW116142   3.767   3.716   0.901  0.6192 -0.1571 -0.6012
 5270SOL    HW216143   3.655   3.799   0.842  2.0086  2.0550 -0.1739
 5271SOL     OW16144   0.976   4.120   1.033 -0.0431 -0.3250 -0.0154
 5271SOL    HW116145   1.070   4.112   1.021 -0.1373 -3.3306  0.9357
 5271SOL    HW216146   0.964   4.144   1.125 -0.1919  0.7205 -0.3015
 5272SOL     OW16147   3.499   1.509   1.505 -0.7859  0.6323  0.4859
 5272SOL    HW116148   3.465   1.453   1.435 -2.1184  1.2364  0.6428
 5272SOL    HW216149   3.564   1.454   1.549 -1.0578 -0.3007 -0.2499
 5273SOL     OW16150   3.340   3.058   3.309 -0.2845  0.6979  0.5494
 5273SOL    HW116151   3.274   3.121   3.282  0.3725  0.7351 -1.0575
 5273SOL    HW216152   3.314   2.976   3.266  0.0430  0.4247  0.8644
 5274SOL     OW16153   0.963   0.610   1.889 -0.0589 -0.5111  0.2431
 5274SOL    HW116154   0.923   0.664   1.956  3.0393  0.8899  1.0346
 5274SOL    HW216155   1.024   0.668   1.844  1.1554 -2.5897 -0.8819
 5275SOL     OW16156   4.404   4.268   5.308 -0.3576 -0.7812 -0.3505
 5275SOL    HW116157   4.353   4.257   5.388  0.9988 -3.0110  0.2404
 5275SOL    HW216158   4.338   4.285   5.240 -1.7606 -1.7956  0.7168
 5276SOL     OW16159   3.291   3.310   4.733 -0.2961  0.0284  0.1607
 5276SOL    HW116160   3.333   3.234   4.692 -0.7268 -0.4411  0.5720
 5276SOL    HW216161   3.197   3.289   4.730 -0.3009 -0.4110  2.1130
 5277SOL     OW16162   4.660   0.778   0.685 -0.0244 -0.1400  0.3367
 5277SOL    HW116163   4.594   0.813   0.745 -0.6688  0.2114 -0.5737
 5277SOL    HW216164   4.622   0.698   0.650  0.0897 -0.0092 -0.0879
 5278SOL     OW16165   2.708   4.084   4.312  0.7638  0.7926 -0.6218
 5278SOL    HW116166   2.797   4.078   4.278 -0.1598 -0.3866 -2.9443
 5278SOL    HW216167   2.664   4.144   4.251 -0.9848 -1.5275 -1.6910
 5279SOL     OW16168   1.456   4.649   5.560  0.2414  0.0113  0.1682
 5279SOL    HW116169   1.414   4.596   5.493  0.9801 -0.0052 -0.2780
 5279SOL    HW216170   1.397   4.723   5.572  0.7024  0.6495 -1.3734
 5280SOL     OW16171   3.297   0.002   4.556 -0.1790 -0.5271  0.7065
 5280SOL    HW116172   3.243   0.017   4.633  0.1473 -3.0121  1.4631
 5280SOL    HW216173   3.385  -0.012   4.591  0.7331  2.1770 -0.4181
 5281SOL     OW16174   0.757   3.655   1.757 -0.8799  0.0493 -0.3529
 5281SOL    HW116175   0.686   3.592   1.774 -0.0088 -0.8185  0.1337
 5281SOL    HW216176   0.772   3.696   1.843 -0.9023  0.3473 -0.4926
 5282SOL     OW16177   0.608   2.452   0.026 -0.2470  0.8876 -0.5183
 5282SOL    HW116178   0.630   2.460   0.118 -1.6833  0.2723 -0.1131
 5282SOL    HW216179   0.512   2.450   0.024 -0.2472  1.7621 -2.0899
 5283SOL     OW16180   0.364   4.122   4.878 -0.1282  0.5304  0.1291
 5283SOL    HW116181   0.360   4.027   4.865  0.7569  0.7166 -1.6665
 5283SOL    HW216182   0.458   4.141   4.883 -0.3076  1.2847  0.8376
 5284SOL     OW16183   2.770   5.130   4.819 -0.2994 -0.0950 -0.3135
 5284SOL    HW116184   2.716   5.051   4.831 -0.4745  0.0344 -0.2533
 5284SOL    HW216185   2.839   5.122   4.884  0.2705 -0.7073 -0.9823
 5285SOL     OW16186   1.830   4.932   1.602  0.0245  0.1145  0.1813
 5285SOL    HW116187   1.825   4.848   1.556  0.3298 -0.7531  1.7005
 5285SOL    HW216188   1.832   4.998   1.532  2.5564 -1.2744 -1.1134
 5286SOL     OW16189   0.815   5.291   4.397  0.3588  0.1196 -0.1112
 5286SOL    HW116190   0.788   5.218   4.453 -0.6379  0.7401  0.2251
 5286SOL    HW216191   0.735   5.339   4.379  0.6467 -0.1178 -2.1653
 5287SOL     OW16192   2.085   5.474   1.389 -0.0128 -0.1029  0.2291
 5287SOL    HW116193   2.114   5.413   1.321 -1.1351 -0.7424  0.3044
 5287SOL    HW216194   2.022   5.531   1.344  1.3290  1.2661  0.0649
 5288SOL     OW16195   2.195   2.528   4.914  0.2212 -0.2562  0.0707
 5288SOL    HW116196   2.146   2.448   4.932  0.1167 -0.2703 -0.2741
 5288SOL    HW216197   2.129   2.591   4.887  0.2796  0.0123  0.5543
 5289SOL     OW16198   3.768   2.895   4.948  0.0430  0.0754  0.0591
 5289SOL    HW116199   3.735   2.872   5.035  0.4063 -1.2447 -0.1436
 5289SOL    HW216200   3.689   2.906   4.895 -0.1853  1.0074  0.5662
 5290SOL     OW16201   1.685   1.772   1.938  0.5893 -0.4374 -0.4373
 5290SOL    HW116202   1.618   1.840   1.934 -0.3441 -1.3530 -0.5280
 5290SOL    HW216203   1.768   1.820   1.930 -0.0089  0.7703  0.3691
 5291SOL     OW16204   1.296   1.350   5.443  0.1133 -0.1006  0.1856
 5291SOL    HW116205   1.302   1.313   5.354  1.9281  0.2367  0.1329
 5291SOL    HW216206   1.297   1.273   5.500 -0.9025 -0.3154 -0.0858
 5292SOL     OW16207   2.122   0.027   4.162  0.2507  0.6587  0.5205
 5292SOL    HW116208   2.087  -0.043   4.107  0.4225 -0.6034  1.9642
 5292SOL    HW216209   2.141  -0.016   4.246  2.1849  2.0131  0.8187
 5293SOL     OW16210   4.049   0.039   2.901 -0.0477 -0.4270 -0.3284
 5293SOL    HW116211   4.020  -0.035   2.847 -2.4488  0.6972 -0.6610
 5293SOL    HW216212   4.031   0.116   2.847  1.5452  0.4805  0.3962
 5294SOL     OW16213   0.683   1.231   3.052 -0.4930  0.0497  0.2042
 5294SOL    HW116214   0.696   1.243   2.958 -0.8308  0.4973  0.2133
 5294SOL    HW216215   0.604   1.177   3.059 -0.0415 -0.6209  0.2150
 5295SOL     OW16216   3.734   5.318   5.459 -0.2386  0.3314 -0.3813
 5295SOL    HW116217   3.731   5.303   5.554  0.0023 -0.1359 -0.4442
 5295SOL    HW216218   3.647   5.294   5.428 -0.0449 -0.3649 -0.3961
 5296SOL     OW16219   0.642   4.860   4.168 -0.4867  0.1605 -0.5562
 5296SOL    HW116220   0.583   4.889   4.098  0.0799  0.9382 -0.7143
 5296SOL    HW216221   0.696   4.936   4.187 -1.5511  0.4016  1.6831
 5297SOL     OW16222   5.215   3.460   5.026 -0.2007  0.0845 -1.1122
 5297SOL    HW116223   5.287   3.473   5.089 -0.6878 -2.1284 -0.0185
 5297SOL    HW216224   5.245   3.387   4.971 -2.5935 -2.5969  0.9852
 5298SOL     OW16225   3.121   4.006   2.929 -0.1482  0.1650 -0.2465
 5298SOL    HW116226   3.103   3.934   2.869  1.9656 -1.3512  0.8954
 5298SOL    HW216227   3.047   4.006   2.990 -1.1612  0.2710 -1.4526
 5299SOL     OW16228   4.763   5.203   5.319  0.0670  0.3932 -0.0435
 5299SOL    HW116229   4.770   5.206   5.415 -0.2630 -0.4191  0.0066
 5299SOL    HW216230   4.672   5.178   5.302  0.8639 -2.2861 -0.5221
 5300SOL     OW16231   4.099   1.490   2.435 -0.1922  0.3775 -0.0421
 5300SOL    HW116232   4.008   1.513   2.455 -0.2916 -0.4484  0.4709
 5300SOL    HW216233   4.141   1.574   2.415 -1.2945  0.6515 -1.2579
 5301SOL     OW16234   5.193   4.004   5.337  0.3525  0.4572 -0.4392
 5301SOL    HW116235   5.205   4.061   5.261 -0.3639  0.6373 -0.4270
 5301SOL    HW216236   5.148   3.927   5.303  0.1597  0.4736 -0.2250
 5302SOL     OW16237   4.405   1.779   4.957 -0.1883  0.0025 -0.6143
 5302SOL    HW116238   4.423   1.719   4.885 -1.7796 -0.9174 -0.2645
 5302SOL    HW216239   4.414   1.726   5.036 -1.6823  0.1690 -0.3077
 5303SOL     OW16240   4.675   0.341   0.851  0.1864 -0.2752  0.1080
 5303SOL    HW116241   4.728   0.420   0.842  1.1281 -0.8253  0.7141
 5303SOL    HW216242   4.679   0.320   0.944 -1.5610 -0.0144  0.2524
 5304SOL     OW16243   0.492   1.091   3.792 -0.2401 -0.0799  0.0900
 5304SOL    HW116244   0.579   1.052   3.793 -0.9802 -1.8331 -0.3386
 5304SOL    HW216245   0.434   1.019   3.818 -1.8731  0.1332 -2.6900
 5305SOL     OW16246   2.768   3.046   2.314 -0.2491  0.3432  0.0863
 5305SOL    HW116247   2.829   3.087   2.253 -1.3085  1.7662 -0.0503
 5305SOL    HW216248   2.819   2.977   2.356  1.0340  0.5802 -1.0408
 5306SOL     OW16249   3.075   5.559   0.826 -0.5568 -0.3190  0.0950
 5306SOL    HW116250   3.015   5.486   0.806 -1.8394  0.1436  2.1797
 5306SOL    HW216251   3.157   5.516   0.851 -0.8154 -1.0163 -0.2279
 5307SOL     OW16252   2.840   3.355   4.938  0.1702  0.2501  0.6958
 5307SOL    HW116253   2.842   3.302   4.858 -0.6206 -0.5971  1.2339
 5307SOL    HW216254   2.832   3.291   5.009 -1.6994  1.1169  1.2978
 5308SOL     OW16255   0.872   0.213   4.947  0.1515 -0.2139 -0.1983
 5308SOL    HW116256   0.894   0.306   4.957  0.1649 -0.2618  0.2285
 5308SOL    HW216257   0.950   0.167   4.977  0.2696 -0.3624 -0.7258
 5309SOL     OW16258   3.751   0.092   0.711 -0.1073 -0.6437  0.0622
 5309SOL    HW116259   3.705   0.176   0.704 -1.0437 -1.1191  0.4971
 5309SOL    HW216260   3.696   0.030   0.663 -0.8969 -1.6058  2.1569
 5310SOL     OW16261   0.809   2.217   1.589  0.1730  0.4990 -0.1969
 5310SOL    HW116262   0.737   2.164   1.556  0.3936 -0.2858  0.5660
 5310SOL    HW216263   0.829   2.180   1.675  1.0316  1.1421 -0.1116
 5311SOL     OW16264   3.254   4.663   1.555  0.5314 -0.0202 -0.2074
 5311SOL    HW116265   3.234   4.728   1.488 -0.5128 -0.1861 -0.0537
 5311SOL    HW216266   3.349   4.671   1.569  0.3946  1.5100 -0.1461
 5312SOL     OW16267   0.689   2.526   0.316 -0.1181 -0.3073  0.5942
 5312SOL    HW116268   0.728   2.517   0.403  1.4967  1.0237  0.0267
 5312SOL    HW216269   0.651   2.614   0.316  0.8799  0.1341 -0.4255
 5313SOL     OW16270   4.530   1.292   4.680  0.0129 -0.4474  0.3073
 5313SOL    HW116271   4.489   1.319   4.598  1.1405 -0.5593 -0.3047
 5313SOL    HW216272   4.598   1.229   4.654 -0.2649 -1.2128  1.4127
 5314SOL     OW16273   2.092   1.744   1.328  0.0248  0.5047 -0.6428
 5314SOL    HW116274   2.088   1.802   1.405  0.3020  0.1518 -0.3596
 5314SOL    HW216275   2.181   1.756   1.295  0.6132 -0.9479  0.3513
 5315SOL     OW16276   1.020   0.603   4.355 -0.2479 -0.0746 -0.0703
 5315SOL    HW116277   1.100   0.553   4.338  0.4963  0.7975  0.7470
 5315SOL    HW216278   0.951   0.556   4.309  0.3509 -2.0693  0.9887
 5316SOL     OW16279   5.469   0.218   5.113  0.2807 -0.5095  0.4067
 5316SOL    HW116280   5.396   0.156   5.121  0.2724 -0.5763 -0.2117
 5316SOL    HW216281   5.486   0.245   5.203 -0.2043 -0.8477  0.6056
 5317SOL     OW16282   4.930   0.274   0.282  0.0595 -0.0197 -0.5569
 5317SOL    HW116283   4.959   0.365   0.286  2.9455 -0.8274 -2.3517
 5317SOL    HW216284   4.909   0.259   0.190 -0.2434 -1.2225 -0.3042
 5318SOL     OW16285   4.019   5.032   0.255 -0.3691 -0.4348  0.2133
 5318SOL    HW116286   4.043   5.081   0.334 -0.3793 -2.0064  1.1984
 5318SOL    HW216287   3.946   5.081   0.218  1.2111  1.7011 -0.1807
 5319SOL     OW16288   3.888   2.334   4.320  0.0142 -0.5517 -0.1788
 5319SOL    HW116289   3.806   2.293   4.349  0.1057 -0.7002 -0.1281
 5319SOL    HW216290   3.943   2.260   4.293  0.1751 -0.4590 -0.1035
 5320SOL     OW16291   3.511   2.671   4.032 -0.6262 -0.0627 -0.3372
 5320SOL    HW116292   3.567   2.737   4.072 -1.4722  1.7488 -2.1011
 5320SOL    HW216293   3.548   2.587   4.061  1.3367  1.1413  0.6930
 5321SOL     OW16294   1.390   0.914   4.070  0.1926  0.0391  0.6536
 5321SOL    HW116295   1.330   0.984   4.044 -0.4602  0.1481  2.4294
 5321SOL    HW216296   1.333   0.839   4.086  0.9021 -0.9895 -1.4033
 5322SOL     OW16297   3.111   4.415   4.262 -0.6308 -0.1342 -0.1240
 5322SOL    HW116298   3.022   4.431   4.294 -0.4233  0.0806  0.3379
 5322SOL    HW216299   3.132   4.493   4.210  0.2442  0.9506  1.8324
 5323SOL     OW16300   2.222   4.594   1.657  0.1793  0.4655  0.4425
 5323SOL    HW116301   2.203   4.636   1.573 -0.4825 -1.4380 -0.3818
 5323SOL    HW216302   2.318   4.595   1.663  0.1664  2.3220  0.5721
 5324SOL     OW16303   4.925   4.918   4.440  0.6380  0.2281  0.3227
 5324SOL    HW116304   4.868   4.881   4.507 -0.3240  2.2751  0.6473
 5324SOL    HW216305   4.868   4.931   4.364  1.0853  0.5952  0.0429
 5325SOL     OW16306   2.412   3.310   2.465  0.2849 -0.2059  0.3239
 5325SOL    HW116307   2.472   3.363   2.414  1.3379 -0.1971  1.5513
 5325SOL    HW216308   2.468   3.246   2.509 -0.7268 -0.9083  0.6158
 5326SOL     OW16309   0.685   1.256   2.529  0.3455 -0.2667  0.2571
 5326SOL    HW116310   0.741   1.317   2.481  0.4749 -1.3955 -1.0543
 5326SOL    HW216311   0.598   1.295   2.526  0.6968  0.5681  0.6861
 5327SOL     OW16312   1.303   4.169   0.075  0.1974  0.4680  0.0973
 5327SOL    HW116313   1.375   4.106   0.078 -0.3261 -0.1716 -0.7439
 5327SOL    HW216314   1.285   4.181  -0.019 -0.4055  1.0697  0.2835
 5328SOL     OW16315   3.466   4.990   3.901 -0.3964 -0.1181 -0.4056
 5328SOL    HW116316   3.509   4.969   3.818  0.9160  1.0804 -0.0370
 5328SOL    HW216317   3.448   5.084   3.896 -2.3069 -0.4559 -0.2302
 5329SOL     OW16318   3.917   4.689   2.946 -0.0492  0.5388  0.5244
 5329SOL    HW116319   3.857   4.625   2.908  0.0003  0.6274  0.2978
 5329SOL    HW216320   3.983   4.704   2.879  1.2421 -0.8896  1.4316
 5330SOL     OW16321   1.712   1.653   0.101  0.0965 -0.0201 -0.1644
 5330SOL    HW116322   1.650   1.598   0.053  0.7270  0.4203 -1.5050
 5330SOL    HW216323   1.784   1.595   0.123  0.9830  0.3486 -1.9949
 5331SOL     OW16324   1.422   4.285   3.304 -0.4170 -0.1426 -0.2131
 5331SOL    HW116325   1.373   4.229   3.244  0.6759  0.2317 -1.4791
 5331SOL    HW216326   1.388   4.263   3.391 -2.0799 -0.6184 -0.9752
 5332SOL     OW16327   0.871   4.184   4.659 -0.1546  0.1699  0.1549
 5332SOL    HW116328   0.920   4.117   4.707  1.4706  0.8423 -0.5318
 5332SOL    HW216329   0.909   4.183   4.572 -2.8374 -0.8005 -1.0872
 5333SOL     OW16330   2.853   5.059   2.966  0.2766  0.3378  0.4696
 5333SOL    HW116331   2.774   5.047   2.913  0.3137  0.5656  0.3625
 5333SOL    HW216332   2.925   5.055   2.904  0.3792 -0.2937  0.6253
 5334SOL     OW16333   3.083   1.980   1.593  0.2586 -0.3349 -0.5649
 5334SOL    HW116334   3.123   2.044   1.652 -0.4928 -1.6463  1.4315
 5334SOL    HW216335   3.090   1.897   1.641 -2.3361 -1.0586 -1.3642
 5335SOL     OW16336   3.129   0.123   5.313 -0.0675 -0.4942 -0.6155
 5335SOL    HW116337   3.119   0.167   5.229 -1.4814 -1.5193 -0.9978
 5335SOL    HW216338   3.040   0.106   5.343  0.4081  0.2025  1.2915
 5336SOL     OW16339   1.446   5.070   5.150  0.0328 -1.1958 -0.0649
 5336SOL    HW116340   1.435   5.138   5.083 -1.3479 -0.1590  1.1799
 5336SOL    HW216341   1.460   4.990   5.100  1.0942 -0.1122 -1.5732
 5337SOL     OW16342   3.690   1.218   1.234  0.9283  0.7243 -0.1140
 5337SOL    HW116343   3.609   1.252   1.271  1.3477 -2.0512  3.7143
 5337SOL    HW216344   3.668   1.131   1.202  2.0700  0.4672 -0.2352
 5338SOL     OW16345   3.452   0.377   3.462 -0.7492  0.2599 -0.1439
 5338SOL    HW116346   3.357   0.394   3.464 -0.7666  0.1734 -0.2087
 5338SOL    HW216347   3.484   0.411   3.546 -1.1433 -1.4789  0.7348
 5339SOL     OW16348   1.791   1.359   5.399 -0.3756 -0.4986 -0.2823
 5339SOL    HW116349   1.717   1.383   5.454 -0.0388  0.1489 -0.0954
 5339SOL    HW216350   1.848   1.308   5.457 -0.2447 -0.2148 -0.1550
 5340SOL     OW16351   5.525   1.891   4.471 -0.1660  0.1661  0.4266
 5340SOL    HW116352   5.507   1.924   4.383 -0.0831 -1.9024 -0.3816
 5340SOL    HW216353   5.545   1.970   4.522  0.4275  1.3307 -1.5460
 5341SOL     OW16354   4.037   4.168   0.246 -0.7249 -0.1657  0.3496
 5341SOL    HW116355   4.121   4.124   0.261 -0.7555 -0.3374  0.0057
 5341SOL    HW216356   4.028   4.226   0.322 -0.0025  0.3063  0.0823
 5342SOL     OW16357   2.321   4.030   4.264 -0.0056 -0.7924 -0.2600
 5342SOL    HW116358   2.315   4.033   4.168  0.7393 -3.5783 -0.4312
 5342SOL    HW216359   2.370   3.950   4.282 -0.3215 -0.3997  2.4870
 5343SOL     OW16360   3.918   1.690   2.198  0.6781  0.2057  0.2644
 5343SOL    HW116361   3.934   1.778   2.233  0.9117 -0.3785  1.6719
 5343SOL    HW216362   3.975   1.683   2.121 -0.0361  1.6169 -0.4030
 5344SOL     OW16363   4.953   0.243   3.355 -0.3609  0.0073 -0.4167
 5344SOL    HW116364   4.882   0.273   3.412  0.5432  2.6780 -0.6304
 5344SOL    HW216365   4.919   0.256   3.266 -0.2921 -0.4841 -0.5188
 5345SOL     OW16366   4.649   2.148   1.888 -0.0439  0.2072 -0.0009
 5345SOL    HW116367   4.592   2.195   1.828 -0.0956  1.8789  1.3061
 5345SOL    HW216368   4.676   2.069   1.840 -0.6033  1.1694 -1.9370
 5346SOL     OW16369   2.644   0.134   5.518  0.0864 -0.2217  0.3566
 5346SOL    HW116370   2.598   0.051   5.517 -1.3210  0.5611 -1.4859
 5346SOL    HW216371   2.646   0.159   5.611 -0.4670 -1.7461  0.7894
 5347SOL     OW16372   1.483   2.740   3.468  0.0577  0.2323 -0.0149
 5347SOL    HW116373   1.437   2.656   3.457  0.1837  0.2079 -0.3633
 5347SOL    HW216374   1.426   2.791   3.526 -0.3471  0.1535 -0.3352
 5348SOL     OW16375   3.019   1.173   1.259 -0.0497 -0.5793 -0.1697
 5348SOL    HW116376   3.071   1.174   1.340  1.3280 -0.2603 -1.0420
 5348SOL    HW216377   2.963   1.096   1.268 -0.3582 -0.1958  1.3667
 5349SOL     OW16378   1.583   4.835   3.437 -0.1342  0.1177  0.1874
 5349SOL    HW116379   1.534   4.756   3.414  0.3921 -0.6511  1.6028
 5349SOL    HW216380   1.669   4.823   3.396 -0.2785  0.2738 -0.1621
 5350SOL     OW16381   2.643   1.785   2.155  0.0610 -0.5408  1.1448
 5350SOL    HW116382   2.662   1.820   2.068  1.0038 -1.9453  0.7721
 5350SOL    HW216383   2.561   1.737   2.144 -0.2556 -0.0294  1.2333
 5351SOL     OW16384   5.370   4.486   1.483 -0.0556  0.3603 -0.1017
 5351SOL    HW116385   5.328   4.492   1.569  1.2800 -0.2618  0.6195
 5351SOL    HW216386   5.303   4.449   1.425 -1.2414  1.5953  0.4665
 5352SOL     OW16387   5.439   0.053   3.634 -0.6338  0.0574 -0.0089
 5352SOL    HW116388   5.394   0.035   3.716  0.0948 -1.6524  0.0394
 5352SOL    HW216389   5.375   0.033   3.566 -0.8402  0.2771  0.1244
 5353SOL     OW16390   0.371   2.901   0.885  0.2649 -0.7252  0.4911
 5353SOL    HW116391   0.313   2.906   0.961  0.3551 -0.1535  0.5254
 5353SOL    HW216392   0.427   2.978   0.892  0.4315 -0.7927 -0.0294
 5354SOL     OW16393   0.684   2.068   1.839 -0.0935  0.6671 -0.3581
 5354SOL    HW116394   0.665   1.975   1.836 -1.3149  0.9090 -0.3448
 5354SOL    HW216395   0.618   2.108   1.783  1.1964  1.4117 -1.3730
 5355SOL     OW16396   1.872   3.554   5.186 -0.1547 -0.2099 -0.1694
 5355SOL    HW116397   1.947   3.495   5.177  0.0315 -0.2314  1.4571
 5355SOL    HW216398   1.894   3.610   5.261 -1.8376 -0.3416  0.4363
 5356SOL     OW16399   0.164   2.863   5.494  0.0987  0.1794 -0.2663
 5356SOL    HW116400   0.070   2.844   5.489  0.1577  0.0241 -0.7543
 5356SOL    HW216401   0.169   2.946   5.540 -0.2319 -0.2728  0.6111
 5357SOL     OW16402   2.819   2.435   4.965  0.0742 -0.3769  0.0831
 5357SOL    HW116403   2.744   2.460   4.913  0.4425 -1.5315 -1.0390
 5357SOL    HW216404   2.852   2.517   5.002 -1.6731  0.1444  0.5314
 5358SOL     OW16405   1.710   5.432   0.537 -0.3323  0.4688  0.0103
 5358SOL    HW116406   1.706   5.416   0.443  2.6091  0.0779 -0.0882
 5358SOL    HW216407   1.703   5.527   0.545  2.9102  0.8329 -0.8998
 5359SOL     OW16408   3.551   2.134   3.977 -0.0099 -0.1812  0.2140
 5359SOL    HW116409   3.578   2.156   3.888 -0.4794 -1.3933 -0.2336
 5359SOL    HW216410   3.480   2.195   3.997  0.9056  0.9025  0.2242
 5360SOL     OW16411   3.825   3.688   0.319  0.0566  0.0910 -0.3039
 5360SOL    HW116412   3.854   3.648   0.236  0.4118 -0.5016  0.1035
 5360SOL    HW216413   3.881   3.648   0.385 -0.9549 -0.2481  0.3570
 5361SOL     OW16414   3.639   0.508   1.227  0.6573  0.7479 -0.5040
 5361SOL    HW116415   3.563   0.460   1.260 -0.3936  1.8370 -1.3113
 5361SOL    HW216416   3.714   0.459   1.260 -0.3895 -0.9905 -0.6168
 5362SOL     OW16417   3.613   1.798   2.355 -0.3185 -0.1020  0.1466
 5362SOL    HW116418   3.523   1.787   2.385 -0.3716 -2.2572 -0.6884
 5362SOL    HW216419   3.665   1.802   2.435 -0.9321 -1.0302  0.5919
 5363SOL     OW16420   5.030   3.367   2.426 -0.5309 -0.3360  0.5491
 5363SOL    HW116421   4.985   3.324   2.498  0.5469 -0.9643  0.8664
 5363SOL    HW216422   5.089   3.430   2.468 -0.1729 -0.4355  0.2070
 5364SOL     OW16423   0.295   2.608   3.771 -0.2297  0.0482  0.2954
 5364SOL    HW116424   0.270   2.516   3.776 -0.7677  0.0954 -1.1511
 5364SOL    HW216425   0.286   2.630   3.678  0.8567  1.2895  0.4686
 5365SOL     OW16426   5.522   3.252   2.871 -0.2734 -0.3617 -0.0338
 5365SOL    HW116427   5.431   3.279   2.857 -0.9442 -2.2707  0.4353
 5365SOL    HW216428   5.571   3.294   2.800 -1.6549  0.0813 -0.7372
 5366SOL     OW16429   2.030   5.145   3.242  0.1533 -0.2904 -0.2625
 5366SOL    HW116430   1.967   5.201   3.288 -1.3632 -1.0653 -1.3506
 5366SOL    HW216431   2.086   5.111   3.311 -1.5853 -0.8071  0.9421
 5367SOL     OW16432   4.633   4.942   4.547 -0.8313  0.0355 -0.2317
 5367SOL    HW116433   4.688   5.020   4.544  0.2168 -0.7671 -2.1235
 5367SOL    HW216434   4.565   4.957   4.482 -1.1662 -0.2445  0.0461
 5368SOL     OW16435   3.585   1.417   2.409  0.5387 -0.2078 -0.5472
 5368SOL    HW116436   3.505   1.425   2.357  0.3404  0.3100 -0.1597
 5368SOL    HW216437   3.556   1.423   2.500  0.6192 -3.1062 -0.2696
 5369SOL     OW16438   3.770   2.357   0.548 -0.3604 -0.4956  0.2346
 5369SOL    HW116439   3.751   2.388   0.460 -0.2409 -1.5780 -0.1822
 5369SOL    HW216440   3.843   2.412   0.578 -0.6509  0.1207 -0.1942
 5370SOL     OW16441   3.283   3.492   3.582 -0.2677 -0.4839  0.2277
 5370SOL    HW116442   3.250   3.546   3.654  1.0755  0.8171 -0.0957
 5370SOL    HW216443   3.294   3.405   3.621  2.4457  0.6634  2.2383
 5371SOL     OW16444   1.728   3.446   1.914 -0.7418  0.2082  0.3349
 5371SOL    HW116445   1.751   3.539   1.910  1.5108 -0.4194 -2.2561
 5371SOL    HW216446   1.744   3.422   2.005  1.4896  1.7021  0.3875
 5372SOL     OW16447   0.157   0.279   3.473 -0.0707 -0.3018  0.3344
 5372SOL    HW116448   0.250   0.256   3.472  0.2840  1.0182  1.7454
 5372SOL    HW216449   0.138   0.301   3.564 -1.3866  0.9569 -0.2212
 5373SOL     OW16450   5.271   0.078   1.157 -0.3172  0.0371  0.4299
 5373SOL    HW116451   5.260   0.161   1.205 -3.0578 -0.3116  0.4523
 5373SOL    HW216452   5.212   0.085   1.083  0.9637 -1.0961 -0.7324
 5374SOL     OW16453   5.532   1.205   0.205  0.1357 -0.1227 -0.2284
 5374SOL    HW116454   5.459   1.178   0.261 -0.4354  0.8308 -0.5027
 5374SOL    HW216455   5.609   1.199   0.262 -0.1422 -1.2130  0.0392
 5375SOL     OW16456   1.739   2.715   3.360 -0.4925 -0.0559  0.5245
 5375SOL    HW116457   1.648   2.711   3.390 -0.0730 -0.8047  1.7370
 5375SOL    HW216458   1.763   2.623   3.347 -0.4656  0.2307 -1.5369
 5376SOL     OW16459   3.493   4.926   0.617 -0.0923  0.2685 -0.4190
 5376SOL    HW116460   3.515   4.846   0.569  0.9998 -0.3352  1.0485
 5376SOL    HW216461   3.497   4.995   0.552  0.2041 -0.7090 -1.4464
 5377SOL     OW16462   4.517   2.836   2.455  0.1248  0.0017  0.3375
 5377SOL    HW116463   4.434   2.865   2.416 -0.3778 -0.9225  0.7009
 5377SOL    HW216464   4.554   2.777   2.390 -0.2248 -0.7495  0.8166
 5378SOL     OW16465   0.408   4.785   0.329 -0.1276 -0.5111  0.2152
 5378SOL    HW116466   0.458   4.763   0.251  0.0941  0.8799 -0.0544
 5378SOL    HW216467   0.458   4.856   0.370 -1.7000  0.7029  0.0912
 5379SOL     OW16468   2.162   4.260   4.094 -0.1013 -0.0259 -0.5445
 5379SOL    HW116469   2.246   4.215   4.092 -0.1157 -0.0854  0.1254
 5379SOL    HW216470   2.184   4.353   4.086 -0.0769 -0.1416 -2.0384
 5380SOL     OW16471   3.234   5.247   1.360  0.2610 -0.1715 -0.5199
 5380SOL    HW116472   3.280   5.257   1.444  0.1867  1.7069 -0.6880
 5380SOL    HW216473   3.176   5.172   1.374  1.7998 -1.2192  0.3951
 5381SOL     OW16474   3.703   1.199   3.199 -0.5366  0.4766  0.0649
 5381SOL    HW116475   3.752   1.269   3.242 -0.1026  0.1555  0.1045
 5381SOL    HW216476   3.633   1.177   3.260  0.6374 -0.6222  1.0514
 5382SOL     OW16477   4.064   1.491   4.177  0.1472 -0.2961 -0.4421
 5382SOL    HW116478   4.059   1.406   4.221  1.0815 -0.0050  0.2334
 5382SOL    HW216479   4.156   1.517   4.184 -0.0370  0.5572 -1.0498
 5383SOL     OW16480   0.360   2.913   0.192  0.5034 -0.4437 -0.5392
 5383SOL    HW116481   0.296   2.963   0.140 -0.9372 -1.2972  0.3731
 5383SOL    HW216482   0.372   2.833   0.142  0.2565 -0.6184 -0.3213
 5384SOL     OW16483   1.951   2.879   3.945 -0.4525  0.2644  0.4509
 5384SOL    HW116484   1.918   2.803   3.994 -0.3717 -0.1432 -0.1228
 5384SOL    HW216485   1.877   2.907   3.892 -1.0282  1.6655  1.9343
 5385SOL     OW16486   4.622   0.598   2.089  0.0362  0.3384  0.0319
 5385SOL    HW116487   4.699   0.559   2.048  0.3931  0.0735  0.9425
 5385SOL    HW216488   4.578   0.645   2.018  1.3974  1.0708 -0.3434
 5386SOL     OW16489   3.505   4.808   3.520 -0.4029 -0.0178  0.3182
 5386SOL    HW116490   3.485   4.721   3.554 -0.1186 -0.1174  0.2298
 5386SOL    HW216491   3.593   4.800   3.483 -0.1284  0.4693  0.8688
 5387SOL     OW16492   4.380   1.903   2.978 -0.3733 -0.1065 -0.1350
 5387SOL    HW116493   4.341   1.934   3.060 -1.9156 -1.6058 -0.2729
 5387SOL    HW216494   4.321   1.934   2.910 -1.0262 -1.8617 -0.3973
 5388SOL     OW16495   2.514   0.845   3.366  0.6088 -0.3817 -0.3751
 5388SOL    HW116496   2.451   0.895   3.418  0.7650 -0.4811 -0.0856
 5388SOL    HW216497   2.513   0.758   3.404  0.2394 -0.6373 -0.9712
 5389SOL     OW16498   0.869   1.832   5.264  0.2704 -1.1466  0.2784
 5389SOL    HW116499   0.900   1.752   5.308  1.7141 -0.2520  0.9100
 5389SOL    HW216500   0.795   1.861   5.318 -0.5419 -2.2778 -0.1947
 5390SOL     OW16501   1.841   0.661   1.598 -0.2143  0.0188 -0.2135
 5390SOL    HW116502   1.889   0.592   1.645  0.5117  0.3821 -0.4188
 5390SOL    HW216503   1.835   0.629   1.508  0.1293  0.2295 -0.3102
 5391SOL     OW16504   2.618   3.973   3.036  0.2465 -0.1780  0.0269
 5391SOL    HW116505   2.630   4.025   2.957 -0.5469 -0.1794 -0.0921
 5391SOL    HW216506   2.627   3.882   3.007  0.2262 -0.1670 -0.0138
 5392SOL     OW16507   0.261   3.624   0.861  0.3713  0.3459 -0.1669
 5392SOL    HW116508   0.277   3.576   0.942 -0.8121 -1.4180 -0.9554
 5392SOL    HW216509   0.347   3.660   0.838  1.5583 -2.2718 -0.0889
 5393SOL     OW16510   4.067   3.134   0.171 -0.2776 -0.1625 -0.5606
 5393SOL    HW116511   3.992   3.088   0.209  0.2743 -0.8354 -0.2678
 5393SOL    HW216512   4.045   3.142   0.078 -1.6036  1.4304 -0.1279
 5394SOL     OW16513   4.080   2.221   2.756  1.1829 -0.1123  0.3812
 5394SOL    HW116514   4.015   2.196   2.690  0.5749 -0.4003  1.0840
 5394SOL    HW216515   4.124   2.298   2.719 -0.0226  0.4921  0.2055
 5395SOL     OW16516   5.564   2.782   0.678 -0.0824  0.3433 -0.2837
 5395SOL    HW116517   5.488   2.749   0.630 -0.3199  0.2677  0.1368
 5395SOL    HW216518   5.619   2.824   0.612  0.0606 -0.5985 -0.7715
 5396SOL     OW16519   3.648   1.994   1.033 -0.0101 -0.3055  0.9492
 5396SOL    HW116520   3.605   1.909   1.036 -0.4562 -0.0719  1.2124
 5396SOL    HW216521   3.716   1.985   0.966 -1.7130 -0.0738 -0.8422
 5397SOL     OW16522   5.507   0.716   2.518 -0.1878 -0.2838 -0.0359
 5397SOL    HW116523   5.492   0.646   2.455 -0.4268  1.1586 -1.6203
 5397SOL    HW216524   5.423   0.726   2.563 -0.3268 -0.6076 -0.2203
 5398SOL     OW16525   4.876   1.102   1.292 -0.6695 -0.1737 -0.1856
 5398SOL    HW116526   4.919   1.134   1.214  1.5724 -0.9448  0.6915
 5398SOL    HW216527   4.808   1.043   1.260  0.6248 -0.9408 -1.5477
 5399SOL     OW16528   4.533   2.500   5.439  0.1681  0.3445 -0.6635
 5399SOL    HW116529   4.458   2.448   5.412  0.5920 -0.7048  0.1367
 5399SOL    HW216530   4.553   2.470   5.528 -0.9178  3.4255  0.6741
 5400SOL     OW16531   3.076   4.280   3.435  0.4007 -0.1285  0.2032
 5400SOL    HW116532   3.023   4.360   3.426  1.6055  0.7662  0.9539
 5400SOL    HW216533   3.158   4.310   3.473  1.3554 -1.5576 -0.7082
 5401SOL     OW16534   1.330   5.201   0.900 -0.4098  0.1617 -0.1561
 5401SOL    HW116535   1.348   5.284   0.944 -1.4015  0.8200 -0.9761
 5401SOL    HW216536   1.416   5.160   0.892 -0.1178  0.3481  1.7341
 5402SOL     OW16537   5.033   5.121   0.506 -0.3894 -0.3941 -0.1126
 5402SOL    HW116538   5.001   5.062   0.438 -3.0854  0.9686 -0.0858
 5402SOL    HW216539   4.954   5.146   0.556  1.1426  0.7342  1.8391
 5403SOL     OW16540   3.971   0.119   1.880 -0.2255  0.1653 -0.4561
 5403SOL    HW116541   4.013   0.171   1.811  1.0280  1.6476  1.3588
 5403SOL    HW216542   3.881   0.107   1.850 -0.2260  2.4570 -1.4798
 5404SOL     OW16543   3.859   2.522   2.470  0.8040  0.1591 -0.6065
 5404SOL    HW116544   3.947   2.554   2.487  0.1031  0.8253  2.0328
 5404SOL    HW216545   3.840   2.464   2.544 -0.5073 -0.9758 -1.8073
 5405SOL     OW16546   1.434   4.078   0.689  0.4844 -0.0458  0.3838
 5405SOL    HW116547   1.382   4.134   0.632 -1.4634 -1.2953  0.8594
 5405SOL    HW216548   1.399   4.094   0.777  2.7000  1.0277  1.1072
 5406SOL     OW16549   3.488   3.600   0.538  0.0332  0.9989 -0.0919
 5406SOL    HW116550   3.507   3.575   0.447 -1.1390  0.0346 -0.0757
 5406SOL    HW216551   3.493   3.518   0.587 -0.8857  1.2701  0.4572
 5407SOL     OW16552   2.356   3.749   1.401  0.1992 -0.1387 -0.4414
 5407SOL    HW116553   2.446   3.719   1.416  0.1408 -0.2516 -0.3199
 5407SOL    HW216554   2.359   3.843   1.421  0.5197  0.0600 -1.4073
 5408SOL     OW16555   3.653   0.229   3.749 -0.5077 -0.0377  0.3123
 5408SOL    HW116556   3.693   0.163   3.807 -0.2931  0.9158  1.2739
 5408SOL    HW216557   3.699   0.311   3.771 -0.0002  0.2324 -1.6440
 5409SOL     OW16558   2.084   4.377   2.481  0.6458  0.7012  0.5206
 5409SOL    HW116559   2.001   4.369   2.434 -0.8397 -1.0803  3.2731
 5409SOL    HW216560   2.132   4.297   2.459  1.5340  1.5735 -0.8016
 5410SOL     OW16561   2.878   4.747   2.445  0.1839  0.9423  0.0139
 5410SOL    HW116562   2.925   4.706   2.518 -0.1178  0.5860  0.0064
 5410SOL    HW216563   2.941   4.811   2.410 -0.3424  2.4734  1.7657
 5411SOL     OW16564   4.172   4.551   0.636 -0.4051  0.6921 -0.3889
 5411SOL    HW116565   4.167   4.489   0.709 -0.0514  0.7503 -0.3190
 5411SOL    HW216566   4.238   4.615   0.662  0.2626  0.2988 -1.0754
 5412SOL     OW16567   0.508   4.275   4.340  0.0828  0.0513 -0.3665
 5412SOL    HW116568   0.536   4.251   4.252 -0.9878  0.8133 -0.9172
 5412SOL    HW216569   0.447   4.206   4.365  0.0370  0.0799 -0.3992
 5413SOL     OW16570   3.171   3.498   0.136  0.8871 -0.0187 -0.3116
 5413SOL    HW116571   3.205   3.423   0.184  1.0624  0.7764  0.8191
 5413SOL    HW216572   3.106   3.461   0.077  1.5995 -1.1656 -0.3814
 5414SOL     OW16573   1.205   1.760   4.361  0.1324 -0.1156  0.1885
 5414SOL    HW116574   1.204   1.831   4.296 -2.8264 -0.1775  0.1246
 5414SOL    HW216575   1.264   1.695   4.324  0.6336  1.0501 -1.1209
 5415SOL     OW16576   3.902   5.463   3.566  0.0261  0.0683 -0.5889
 5415SOL    HW116577   3.976   5.456   3.506 -0.4571 -0.3115 -1.1575
 5415SOL    HW216578   3.899   5.378   3.610  1.5263  0.9855  1.3709
 5416SOL     OW16579   2.646   2.346   3.933  0.0998 -0.6277 -0.3262
 5416SOL    HW116580   2.695   2.414   3.886  0.4521 -0.6063  0.0710
 5416SOL    HW216581   2.568   2.392   3.965  0.1183 -0.5170 -0.4357
 5417SOL     OW16582   2.631   1.310   1.004  0.6653 -0.1056  0.3805
 5417SOL    HW116583   2.641   1.400   0.972  1.1920 -0.0947  0.5641
 5417SOL    HW216584   2.543   1.307   1.040 -0.2418 -0.3449 -1.7874
 5418SOL     OW16585   5.116   1.621   5.177  0.1226 -0.8027 -0.0988
 5418SOL    HW116586   5.155   1.608   5.263  1.1746  0.2288 -0.4093
 5418SOL    HW216587   5.022   1.629   5.194  0.3887 -0.0398  1.0165
 5419SOL     OW16588   2.509   0.547   2.108 -0.0371 -0.0578 -0.0500
 5419SOL    HW116589   2.435   0.540   2.169 -0.0849  3.2031  0.3348
 5419SOL    HW216590   2.495   0.630   2.063  3.4850  0.7317  0.1682
 5420SOL     OW16591   3.376   1.459   1.020 -0.2835 -0.3929 -0.3950
 5420SOL    HW116592   3.327   1.394   0.969 -0.7174 -0.7724  0.4996
 5420SOL    HW216593   3.315   1.532   1.032 -1.4067 -1.7381  2.5310
 5421SOL     OW16594   2.821   4.782   4.512 -0.5817  0.1122  0.2701
 5421SOL    HW116595   2.851   4.817   4.429  0.1687  0.0631  0.5098
 5421SOL    HW216596   2.730   4.809   4.519 -1.0257 -0.9675 -1.1502
 5422SOL     OW16597   3.119   3.943   2.261  0.0236  0.4643 -0.2273
 5422SOL    HW116598   3.143   3.994   2.339  0.1112  0.2392 -0.1056
 5422SOL    HW216599   3.150   3.854   2.280 -0.9196  0.1598 -0.0587
 5423SOL     OW16600   3.096   3.664   0.368 -0.5846  0.3372  0.4813
 5423SOL    HW116601   3.127   3.614   0.292 -1.7461  0.0798  0.1656
 5423SOL    HW216602   3.118   3.755   0.347  0.3481  0.1108  0.4644
 5424SOL     OW16603   1.661   3.780   4.714  0.5045 -0.9227 -0.1000
 5424SOL    HW116604   1.726   3.710   4.716  0.0555 -1.4275 -2.0245
 5424SOL    HW216605   1.657   3.806   4.622 -1.4267 -0.3223  0.1388
 5425SOL     OW16606   0.847   0.146   3.235  0.2175 -0.1714 -0.0160
 5425SOL    HW116607   0.786   0.110   3.171 -1.1354  0.6450  0.7893
 5425SOL    HW216608   0.806   0.128   3.320  0.3972  1.6361  0.4782
 5426SOL     OW16609   2.401   5.427   1.172 -0.2780  0.5782  0.0236
 5426SOL    HW116610   2.375   5.507   1.126 -2.3720  0.0958  0.3137
 5426SOL    HW216611   2.352   5.357   1.129 -0.2558 -0.2260  1.2649
 5427SOL     OW16612   3.306   3.068   1.814 -0.1159 -0.3589 -0.5394
 5427SOL    HW116613   3.351   3.149   1.790 -0.3957 -0.1130 -0.2330
 5427SOL    HW216614   3.375   3.009   1.842  0.0223 -0.0070 -0.1401
 5428SOL     OW16615   2.736   4.960   3.481  0.3129 -0.4718 -0.3025
 5428SOL    HW116616   2.817   4.997   3.517  0.7093 -0.3142 -1.3514
 5428SOL    HW216617   2.684   5.036   3.456  0.7370 -0.5945 -1.5929
 5429SOL     OW16618   4.155   1.736   1.549  0.4673 -0.8094 -0.3695
 5429SOL    HW116619   4.136   1.732   1.455  0.0293 -1.8986 -0.2381
 5429SOL    HW216620   4.071   1.758   1.589  0.5951 -0.6201 -0.2011
 5430SOL     OW16621   3.843   1.577   2.718 -0.2100 -0.7891  0.3343
 5430SOL    HW116622   3.821   1.667   2.743  2.3281 -0.6447  2.2851
 5430SOL    HW216623   3.823   1.573   2.624 -1.9670  1.2596  0.5574
 5431SOL     OW16624   2.068   0.458   3.270  0.0586  0.1723  0.1158
 5431SOL    HW116625   2.144   0.406   3.296  0.5311  1.5530  1.5898
 5431SOL    HW216626   2.060   0.443   3.176  3.3433  1.4686 -0.4433
 5432SOL     OW16627   2.264   2.890   1.242  0.7675  0.5042 -0.5067
 5432SOL    HW116628   2.338   2.944   1.216  0.7556 -0.0169 -1.6898
 5432SOL    HW216629   2.291   2.847   1.323  1.2422  1.3447 -0.2252
 5433SOL     OW16630   1.231   3.352   4.318 -0.0582 -0.1834 -0.4220
 5433SOL    HW116631   1.212   3.443   4.294 -0.5951 -0.5450 -1.3965
 5433SOL    HW216632   1.286   3.320   4.246  1.3363 -0.2017  0.6293
 5434SOL     OW16633   2.963   4.843   1.933 -0.0372  0.4676 -0.1951
 5434SOL    HW116634   3.034   4.786   1.905  1.8390  2.5025  0.3070
 5434SOL    HW216635   2.948   4.901   1.858  0.0341  1.2031  0.3573
 5435SOL     OW16636   3.440   3.330   1.855 -0.5358 -0.3702 -0.0768
 5435SOL    HW116637   3.521   3.353   1.811 -0.1010 -0.5060  0.6412
 5435SOL    HW216638   3.375   3.391   1.820  0.5146  1.7021  1.4586
 5436SOL     OW16639   1.199   3.693   0.131  0.2994 -0.0095 -0.3740
 5436SOL    HW116640   1.240   3.681   0.217 -0.9097  0.6357  0.3173
 5436SOL    HW216641   1.158   3.609   0.112 -1.1203  0.4300  0.6232
 5437SOL     OW16642   0.786   5.011   3.655  0.0757  0.5672  0.0084
 5437SOL    HW116643   0.817   5.080   3.597 -0.0578  0.2540 -0.4341
 5437SOL    HW216644   0.839   5.021   3.734 -0.5331  1.7229  0.2859
 5438SOL     OW16645   0.166   0.746   4.056  0.1437 -0.7421 -0.3506
 5438SOL    HW116646   0.144   0.660   4.091  0.5185 -0.2711  1.0488
 5438SOL    HW216647   0.215   0.789   4.126 -1.1883  1.1205 -0.5193
 5439SOL     OW16648   0.395   1.976   5.306 -0.6468 -0.1251  0.0730
 5439SOL    HW116649   0.335   1.903   5.294  0.8068 -1.4436  0.6703
 5439SOL    HW216650   0.360   2.025   5.380  0.4100 -2.3692  2.0995
 5440SOL     OW16651   4.935   4.206   0.849 -0.7876  1.0582 -0.3170
 5440SOL    HW116652   4.967   4.219   0.760 -1.2221 -0.7393 -0.7641
 5440SOL    HW216653   4.926   4.295   0.885  0.4834  1.7447 -1.6576
 5441SOL     OW16654   4.814   4.365   0.503 -0.2325  0.6750  0.5626
 5441SOL    HW116655   4.776   4.334   0.585  0.3799  0.4053  0.7456
 5441SOL    HW216656   4.909   4.357   0.516 -0.1216  1.0628  0.0003
 5442SOL     OW16657   0.628   2.250   5.061  0.3559 -0.4328  0.0545
 5442SOL    HW116658   0.650   2.289   4.976  1.2242 -0.5236  0.2376
 5442SOL    HW216659   0.701   2.274   5.118 -0.6176  0.3319  0.9958
 5443SOL     OW16660   2.506   1.959   1.830  0.0054 -0.2581  0.4700
 5443SOL    HW116661   2.518   2.044   1.789 -0.9907 -0.3857 -0.1200
 5443SOL    HW216662   2.588   1.913   1.815 -0.4742 -0.4377 -1.7490
 5444SOL     OW16663   0.495   5.282   0.333 -0.8087  0.8567  0.0820
 5444SOL    HW116664   0.490   5.292   0.428 -1.7357 -2.5839  0.4846
 5444SOL    HW216665   0.404   5.282   0.304 -0.6132  0.1086 -0.5662
 5445SOL     OW16666   0.883   2.681   3.844 -0.0976  0.2367 -0.5414
 5445SOL    HW116667   0.881   2.693   3.939  0.9982 -0.7604 -0.3906
 5445SOL    HW216668   0.805   2.628   3.825  0.0399 -0.1139 -0.1241
 5446SOL     OW16669   1.615   2.752   5.570 -0.0192 -0.1207  0.7852
 5446SOL    HW116670   1.563   2.717   5.498  0.5557  0.4538  0.0819
 5446SOL    HW216671   1.702   2.713   5.559 -0.0092 -0.2571  1.3362
 5447SOL     OW16672   0.708   5.057   4.502  0.4957 -0.1503 -0.2653
 5447SOL    HW116673   0.746   4.970   4.498  0.1381 -0.3634  0.8644
 5447SOL    HW216674   0.630   5.047   4.556  1.0233  1.0687  0.7448
 5448SOL     OW16675   5.234   5.288   0.460 -0.1093  0.1692 -0.0341
 5448SOL    HW116676   5.275   5.236   0.390  3.6288 -2.3504  3.7861
 5448SOL    HW216677   5.152   5.241   0.479  0.4978 -1.0972 -0.4429
 5449SOL     OW16678   2.314   5.064   0.189  0.3651 -0.0171  0.3763
 5449SOL    HW116679   2.219   5.077   0.191  0.1620 -0.7071 -2.6597
 5449SOL    HW216680   2.330   4.994   0.252 -1.3038 -0.7000  0.0528
 5450SOL     OW16681   2.357   0.353   0.843  0.9023 -0.0405  0.4670
 5450SOL    HW116682   2.376   0.291   0.773 -0.0422  1.4206 -1.1152
 5450SOL    HW216683   2.425   0.420   0.834  1.1145 -0.1382  1.3134
 5451SOL     OW16684   3.962   1.047   5.302 -0.7132 -0.3224 -0.5661
 5451SOL    HW116685   3.932   0.978   5.361  2.4604 -0.9357  0.4418
 5451SOL    HW216686   3.934   1.019   5.215 -0.1197 -2.5064 -0.0672
 5452SOL     OW16687   2.662   1.249   0.311 -0.6858  0.2594  0.2746
 5452SOL    HW116688   2.698   1.273   0.225 -1.3572 -1.7942 -0.6166
 5452SOL    HW216689   2.572   1.222   0.292  0.1103 -3.1525  1.1430
 5453SOL     OW16690   0.533   3.406   0.959 -0.5306  0.6720 -0.1823
 5453SOL    HW116691   0.557   3.463   0.885 -1.5765  0.0942 -0.9750
 5453SOL    HW216692   0.453   3.444   0.994  0.1357  1.1219  0.8568
 5454SOL     OW16693   3.722   5.318   2.017  0.1803  0.1936 -0.3162
 5454SOL    HW116694   3.665   5.241   2.013  1.5502 -0.8663  0.2940
 5454SOL    HW216695   3.806   5.284   2.049  1.4112  1.5790 -1.9728
 5455SOL     OW16696   2.669   2.919   3.791 -0.2114 -0.8158 -0.1876
 5455SOL    HW116697   2.727   2.913   3.716 -0.5331  1.6574 -0.6573
 5455SOL    HW216698   2.597   2.976   3.763 -2.1140 -2.5896  0.8772
 5456SOL     OW16699   5.078   2.069   0.072 -0.6934  0.2153 -0.3661
 5456SOL    HW116700   5.057   2.080  -0.021 -1.2467 -2.3481 -0.5827
 5456SOL    HW216701   4.993   2.059   0.115 -0.3591 -0.4672  0.1450
 5457SOL     OW16702   4.656   4.216   3.317 -0.3609 -0.8156  0.0005
 5457SOL    HW116703   4.719   4.287   3.301  0.3713 -1.5773 -0.5910
 5457SOL    HW216704   4.587   4.256   3.370  0.1010  0.3041 -0.2246
 5458SOL     OW16705   2.920   5.104   2.542 -0.6130 -0.1713 -0.0125
 5458SOL    HW116706   2.936   5.118   2.636 -0.5407 -0.7576  0.0688
 5458SOL    HW216707   2.922   5.191   2.504 -0.1576  0.0291  0.4598
 5459SOL     OW16708   0.507   4.272   2.028 -0.1426  0.6119 -0.0684
 5459SOL    HW116709   0.479   4.205   1.966 -0.3956  0.7741 -0.1266
 5459SOL    HW216710   0.600   4.253   2.042  0.0230  0.8532 -0.8365
 5460SOL     OW16711   5.015   4.777   4.113 -0.3014 -0.0905  0.2795
 5460SOL    HW116712   5.105   4.808   4.125 -0.0900 -0.9022  0.8044
 5460SOL    HW216713   5.011   4.749   4.021 -0.9014  2.7974 -0.6254
 5461SOL     OW16714   2.746   4.352   3.016 -0.6253  0.1941 -0.4555
 5461SOL    HW116715   2.728   4.434   3.063 -0.8218  0.9487 -1.8265
 5461SOL    HW216716   2.825   4.318   3.056 -1.6355  0.0289  1.4780
 5462SOL     OW16717   2.344   5.396   3.971 -0.4084 -0.5939 -0.2645
 5462SOL    HW116718   2.249   5.408   3.970 -0.3659 -0.0736  0.7328
 5462SOL    HW216719   2.357   5.307   4.003 -0.5738 -0.8773 -0.9834
 5463SOL     OW16720   5.295   0.942   4.105 -0.0627 -0.0838  0.5742
 5463SOL    HW116721   5.368   0.902   4.059  1.2602  0.2477  2.3680
 5463SOL    HW216722   5.282   0.888   4.183 -0.5656  0.9043  1.1884
 5464SOL     OW16723   3.906   4.634   4.065  0.1169  0.0383 -0.8284
 5464SOL    HW116724   3.824   4.678   4.087 -0.3969 -0.5739 -1.4729
 5464SOL    HW216725   3.886   4.541   4.073  0.4222 -0.1467 -2.0868
 5465SOL     OW16726   0.393   3.298   2.728 -0.0528 -0.1418  0.5416
 5465SOL    HW116727   0.398   3.323   2.820 -0.5778 -0.0458  0.5444
 5465SOL    HW216728   0.445   3.365   2.683 -1.7677  1.1995  0.5094
 5466SOL     OW16729   0.708   1.208   3.574 -0.1455  0.4885  0.0212
 5466SOL    HW116730   0.615   1.202   3.555 -0.6179 -0.8443  2.5011
 5466SOL    HW216731   0.713   1.242   3.663  1.6812 -0.3697  0.2876
 5467SOL     OW16732   4.695   2.465   0.579  0.9059 -0.1412 -0.1578
 5467SOL    HW116733   4.666   2.556   0.585 -0.7171 -0.5834 -1.0868
 5467SOL    HW216734   4.785   2.471   0.548  1.3303  1.1928  1.2305
 5468SOL     OW16735   1.698   4.097   4.747  0.0940  0.1956  0.2476
 5468SOL    HW116736   1.761   4.036   4.786  0.6713  1.7673  1.8601
 5468SOL    HW216737   1.750   4.152   4.689 -0.6855 -1.8122 -2.4563
 5469SOL     OW16738   3.071   0.813   4.735 -0.1142  0.3008  0.0491
 5469SOL    HW116739   3.044   0.889   4.683 -0.7858  1.3610  1.8672
 5469SOL    HW216740   3.150   0.842   4.780  0.6296 -0.7027 -0.5876
 5470SOL     OW16741   3.508   4.811   4.666  0.2641  0.0709 -0.5015
 5470SOL    HW116742   3.466   4.891   4.697 -1.2236 -1.2670  1.0052
 5470SOL    HW216743   3.439   4.764   4.619  0.7626 -0.9509 -0.2287
 5471SOL     OW16744   1.762   3.969   1.979  0.2678  0.1657  0.3749
 5471SOL    HW116745   1.795   3.948   2.067  0.0487 -1.6806  0.0530
 5471SOL    HW216746   1.718   4.053   1.989 -0.3410 -0.3376  2.1864
 5472SOL     OW16747   1.641   3.121   2.680 -0.3972  0.2739  0.1193
 5472SOL    HW116748   1.594   3.199   2.709  1.0106  1.0568  0.3576
 5472SOL    HW216749   1.604   3.050   2.733 -0.1587  1.1450  1.4705
 5473SOL     OW16750   2.299   3.687   3.950 -0.3943  0.2447  0.0941
 5473SOL    HW116751   2.217   3.730   3.977 -0.4607  1.1838 -1.5082
 5473SOL    HW216752   2.347   3.756   3.903  1.3831 -0.2645  1.1239
 5474SOL     OW16753   1.310   4.416   5.145  0.3324  0.5013 -0.6123
 5474SOL    HW116754   1.400   4.449   5.150  0.3291  0.5290 -0.7346
 5474SOL    HW216755   1.256   4.495   5.137  0.2446  0.5258  0.1341
 5475SOL     OW16756   0.566   1.563   2.761 -0.3665  0.1086 -0.1843
 5475SOL    HW116757   0.561   1.470   2.739 -0.1717  0.5466 -2.1611
 5475SOL    HW216758   0.652   1.574   2.800 -0.5025 -0.5873  0.3225
 5476SOL     OW16759   0.364   3.859   1.747 -0.1640 -0.5211  0.0891
 5476SOL    HW116760   0.344   3.794   1.679  1.7048 -0.7343 -0.2894
 5476SOL    HW216761   0.380   3.806   1.826 -1.5079 -0.3273  0.4964
 5477SOL     OW16762   3.663   3.192   0.047 -0.6000  0.2747 -0.1365
 5477SOL    HW116763   3.678   3.255  -0.023  0.2842  1.1875  0.8503
 5477SOL    HW216764   3.708   3.112   0.018 -1.6351  0.1263 -1.3439
 5478SOL     OW16765   2.350   1.192   0.759 -0.3407  0.4009 -0.7396
 5478SOL    HW116766   2.371   1.283   0.741  0.5366  0.9109  2.4259
 5478SOL    HW216767   2.298   1.195   0.839 -0.2784 -1.8676 -0.5842
 5479SOL     OW16768   3.124   1.879   1.881  0.5067  0.3215 -0.0231
 5479SOL    HW116769   3.175   1.955   1.906  1.1548 -0.5804  1.4180
 5479SOL    HW216770   3.054   1.874   1.946  0.1939 -0.0537 -0.3818
 5480SOL     OW16771   4.718   2.776   0.912  0.6054 -0.1546  0.2844
 5480SOL    HW116772   4.641   2.826   0.937  0.4675 -0.2148 -0.0182
 5480SOL    HW216773   4.782   2.795   0.980 -0.5649 -2.2123  2.0140
 5481SOL     OW16774   5.393   0.818   4.329 -0.4400 -0.5744 -0.8859
 5481SOL    HW116775   5.477   0.837   4.287 -0.0335 -1.7640 -0.6162
 5481SOL    HW216776   5.413   0.819   4.423 -1.1279  1.0284 -0.7395
 5482SOL     OW16777   3.602   4.789   2.851 -0.4630  0.4203 -0.1332
 5482SOL    HW116778   3.659   4.722   2.813 -1.0186  0.2773 -0.7374
 5482SOL    HW216779   3.616   4.866   2.797  0.4187  0.8908  0.7664
 5483SOL     OW16780   0.422   2.289   3.489 -0.2526 -0.2159  0.1735
 5483SOL    HW116781   0.413   2.374   3.447 -1.3874 -0.6449 -0.4464
 5483SOL    HW216782   0.414   2.226   3.418  1.7222 -0.8225  0.4556
 5484SOL     OW16783   5.091   4.266   3.245 -0.0149 -0.2900 -0.3693
 5484SOL    HW116784   5.119   4.187   3.291  1.7411  0.1856 -0.5954
 5484SOL    HW216785   5.166   4.292   3.193 -0.1695  2.1493  0.5342
 5485SOL     OW16786   2.055   1.261   1.236 -0.0881  0.2872 -1.1514
 5485SOL    HW116787   2.094   1.348   1.247  0.7791 -0.2054 -0.1751
 5485SOL    HW216788   1.963   1.273   1.257 -0.4154  1.4001 -3.1031
 5486SOL     OW16789   0.855   4.619   5.411 -0.6190 -0.2484 -0.2724
 5486SOL    HW116790   0.930   4.623   5.353  0.5326 -0.2146  1.1948
 5486SOL    HW216791   0.806   4.542   5.383  0.3317 -0.6632 -0.8049
 5487SOL     OW16792   0.559   2.650   5.211 -0.5053 -0.0865 -0.5565
 5487SOL    HW116793   0.608   2.613   5.284 -0.3574  1.1683 -0.0060
 5487SOL    HW216794   0.476   2.678   5.250 -0.8174 -0.2794 -1.0698
 5488SOL     OW16795   2.204   0.517   1.242  0.4248 -0.2667 -0.4062
 5488SOL    HW116796   2.144   0.579   1.283 -1.2664 -2.9355  1.3176
 5488SOL    HW216797   2.159   0.488   1.162  0.8894  0.1862 -0.8342
 5489SOL     OW16798   2.003   1.890   4.761  0.4266 -0.1261  0.4330
 5489SOL    HW116799   1.966   1.869   4.847  0.8031  0.7874  0.8214
 5489SOL    HW216800   1.968   1.977   4.740  1.0446  0.0315  0.0581
 5490SOL     OW16801   4.163   0.513   1.234 -0.3792 -0.4072 -0.7374
 5490SOL    HW116802   4.152   0.565   1.314  0.4237  0.4568 -1.1859
 5490SOL    HW216803   4.258   0.502   1.225 -0.5681 -3.1437  0.1071
 5491SOL     OW16804   3.253   4.638   3.619  0.0882  0.5670 -0.2756
 5491SOL    HW116805   3.175   4.625   3.673  1.1884 -3.8548  0.4108
 5491SOL    HW216806   3.229   4.604   3.533  1.2697 -0.9452 -0.0224
 5492SOL     OW16807   5.538   0.350   2.642  0.1227  0.6519 -0.8436
 5492SOL    HW116808   5.528   0.375   2.734 -2.8921  1.5737 -1.3931
 5492SOL    HW216809   5.624   0.308   2.639 -0.3606 -0.8122  2.7179
 5493SOL     OW16810   2.678   4.829   3.162 -0.6520  0.4881 -0.7650
 5493SOL    HW116811   2.616   4.886   3.207  0.3497  1.4107 -0.5573
 5493SOL    HW216812   2.714   4.882   3.091 -0.2446 -0.1107 -1.0142
 5494SOL     OW16813   2.021   3.827   1.699  0.6716 -0.3598 -0.1163
 5494SOL    HW116814   2.061   3.896   1.645  0.6840 -0.3881 -0.1428
 5494SOL    HW216815   1.927   3.847   1.698  0.5956 -0.7752 -0.7292
 5495SOL     OW16816   5.340   2.535   5.050 -1.0383  0.0439 -0.1436
 5495SOL    HW116817   5.318   2.526   4.957  0.0998 -0.6230 -0.3574
 5495SOL    HW216818   5.321   2.450   5.088 -1.3053  0.2535  0.1955
 5496SOL     OW16819   4.440   3.298   2.024  0.3355  0.0456 -0.2510
 5496SOL    HW116820   4.383   3.318   2.099 -1.1515 -0.9092 -1.1026
 5496SOL    HW216821   4.524   3.337   2.047 -1.0705  2.8857  0.3695
 5497SOL     OW16822   1.998   1.691   2.448  0.1097  0.4527  0.9354
 5497SOL    HW116823   2.050   1.642   2.385  0.2067  1.8546 -0.1167
 5497SOL    HW216824   2.060   1.749   2.492  0.1316 -0.8917  2.7260
 5498SOL     OW16825   2.799   4.310   5.203 -0.3609  0.8109  0.5290
 5498SOL    HW116826   2.781   4.232   5.256 -0.7122 -0.2029 -1.0642
 5498SOL    HW216827   2.895   4.317   5.204 -0.4214  1.8340  2.7376
 5499SOL     OW16828   1.518   1.900   0.708 -0.2955  0.2844  0.3347
 5499SOL    HW116829   1.500   1.854   0.626 -0.1154 -0.2986  0.6166
 5499SOL    HW216830   1.605   1.869   0.734 -0.3879  0.4029  0.7883
 5500SOL     OW16831   1.313   5.505   2.874 -0.0791 -0.0947 -0.2231
 5500SOL    HW116832   1.311   5.421   2.829  0.3027  0.4404 -1.2625
 5500SOL    HW216833   1.406   5.527   2.880 -0.2639  1.2468 -1.8745
 5501SOL     OW16834   4.698   4.315   0.039 -0.1702 -0.4086 -0.3541
 5501SOL    HW116835   4.684   4.384   0.104 -0.6664 -0.3653 -0.5090
 5501SOL    HW216836   4.619   4.261   0.044  0.1585 -0.8877 -0.3283
 5502SOL     OW16837   4.437   4.584   0.372 -0.4996  0.2592  0.5975
 5502SOL    HW116838   4.474   4.551   0.454 -2.1873 -0.0082  1.2861
 5502SOL    HW216839   4.481   4.667   0.358  1.0871 -0.5308  0.8392
 5503SOL     OW16840   0.201   1.284   4.810 -0.8301 -0.4410 -0.1188
 5503SOL    HW116841   0.122   1.308   4.762 -0.6704 -0.2324 -0.2763
 5503SOL    HW216842   0.172   1.215   4.870 -1.2155 -0.0938  0.0985
 5504SOL     OW16843   4.117   2.561   1.936  0.2239  0.0236 -0.0986
 5504SOL    HW116844   4.115   2.501   2.010  1.1604  0.6078  0.4113
 5504SOL    HW216845   4.062   2.519   1.869  1.2459 -1.6263  0.0687
 5505SOL     OW16846   0.830   3.736   4.331  0.5988  0.1437  0.2330
 5505SOL    HW116847   0.905   3.697   4.377  1.2318 -0.5617 -1.3496
 5505SOL    HW216848   0.807   3.812   4.384  3.8464  1.6455 -0.3780
 5506SOL     OW16849   5.405   4.505   4.758  0.4439  0.1507  0.1606
 5506SOL    HW116850   5.355   4.459   4.690 -0.4399  2.2940 -0.6913
 5506SOL    HW216851   5.449   4.576   4.711  2.2027 -0.1191  1.3671
 5507SOL     OW16852   1.534   0.569   4.746  0.0948 -0.2346  0.1995
 5507SOL    HW116853   1.603   0.577   4.680  1.1022  0.8026  1.3398
 5507SOL    HW216854   1.492   0.485   4.728 -0.3228  0.4765 -2.3905
 5508SOL     OW16855   1.134   4.751   2.172 -0.1715  0.0032  0.5525
 5508SOL    HW116856   1.225   4.735   2.147 -0.2659 -1.3904  1.0539
 5508SOL    HW216857   1.136   4.756   2.267 -0.6910 -0.5315  0.5928
 5509SOL     OW16858   4.265   4.773   2.885  0.2139 -0.3063 -0.2826
 5509SOL    HW116859   4.330   4.704   2.868  1.2898  0.5625  0.3156
 5509SOL    HW216860   4.283   4.801   2.974 -2.1683 -1.3173  0.5537
 5510SOL     OW16861   2.321   2.964   3.143 -0.6172  0.5811  0.0392
 5510SOL    HW116862   2.392   2.997   3.199 -2.0263  0.4651  1.9546
 5510SOL    HW216863   2.359   2.961   3.055  1.9810 -0.1576  1.1372
 5511SOL     OW16864   1.286   0.052   5.543  0.5167 -0.1377  0.0943
 5511SOL    HW116865   1.253   0.128   5.495  1.8864  0.2678 -0.2125
 5511SOL    HW216866   1.231   0.049   5.621 -0.1024  0.6680 -0.2920
 5512SOL     OW16867   0.339   5.407   0.644  0.5789 -0.3860  0.4995
 5512SOL    HW116868   0.411   5.468   0.661 -0.1389  1.3409 -2.2911
 5512SOL    HW216869   0.273   5.429   0.709  0.2273  2.0534 -0.6157
 5513SOL     OW16870   1.299   5.340   4.701 -0.2075  0.2816 -0.3378
 5513SOL    HW116871   1.335   5.420   4.742  0.3445 -0.1615  0.0489
 5513SOL    HW216872   1.219   5.322   4.751 -0.1243  0.3703 -0.1702
 5514SOL     OW16873   0.885   2.143   0.107 -0.4398  0.0729 -0.4757
 5514SOL    HW116874   0.922   2.196   0.178 -1.8069  0.5748 -0.1316
 5514SOL    HW216875   0.958   2.131   0.046 -0.0745  2.2511 -0.5169
 5515SOL     OW16876   0.583   2.297   0.556 -0.1935 -0.3109 -0.1376
 5515SOL    HW116877   0.628   2.365   0.505  0.5362 -1.4386 -1.0162
 5515SOL    HW216878   0.513   2.267   0.499 -0.5590 -0.2508  0.2776
 5516SOL     OW16879   5.412   0.568   4.201 -0.4200  0.1066  0.3313
 5516SOL    HW116880   5.322   0.559   4.230 -0.7166  2.6446  0.3285
 5516SOL    HW216881   5.450   0.635   4.258  1.1930 -0.2903 -0.2341
 5517SOL     OW16882   4.388   3.635   1.535 -0.3424  0.1766  0.0965
 5517SOL    HW116883   4.310   3.686   1.514 -0.3415  0.1792  0.0989
 5517SOL    HW216884   4.380   3.616   1.629  0.4351  1.5206  0.4482
 5518SOL     OW16885   3.913   0.814   4.358  0.3299 -0.1145  0.1874
 5518SOL    HW116886   3.969   0.838   4.284 -0.1737 -3.3471 -1.3616
 5518SOL    HW216887   3.974   0.798   4.430  1.0763  0.2657 -0.3604
 5519SOL     OW16888   2.040   3.763   3.986  0.6900 -0.3089  0.5985
 5519SOL    HW116889   2.008   3.848   3.957 -1.1562 -1.1467  0.0713
 5519SOL    HW216890   1.961   3.715   4.012  1.5037 -2.3888 -0.5850
 5520SOL     OW16891   3.936   0.403   4.167 -0.4172  0.0417  0.2794
 5520SOL    HW116892   4.001   0.453   4.117  0.8972 -0.4947  1.4297
 5520SOL    HW216893   3.878   0.367   4.100  1.3634 -0.7297 -0.8993
 5521SOL     OW16894   3.102   2.825   0.188 -0.1741 -0.3706  0.1579
 5521SOL    HW116895   3.193   2.846   0.165 -0.9465  1.3876 -1.4255
 5521SOL    HW216896   3.065   2.908   0.219 -1.2855 -1.0491  0.7031
 5522SOL     OW16897   0.309   4.634   1.972  0.3126 -1.2947 -0.2289
 5522SOL    HW116898   0.277   4.583   2.047 -0.4527  1.3481  1.3243
 5522SOL    HW216899   0.343   4.715   2.011  1.3230 -0.5340 -2.6146
 5523SOL     OW16900   2.601   2.766   0.923 -0.6144  0.6821  0.0649
 5523SOL    HW116901   2.622   2.685   0.877 -1.7537  0.8556 -0.8005
 5523SOL    HW216902   2.578   2.739   1.012 -0.5465  0.1017 -0.0933
 5524SOL     OW16903   3.786   4.158   5.256  0.5237  0.3497 -0.0400
 5524SOL    HW116904   3.821   4.246   5.241  0.0565  0.1902 -2.3109
 5524SOL    HW216905   3.692   4.167   5.238  0.5783 -0.7360 -0.8972
 5525SOL     OW16906   1.898   0.636   2.154 -0.0121  0.2227  0.3771
 5525SOL    HW116907   1.854   0.628   2.238 -1.4740  0.7875 -0.3131
 5525SOL    HW216908   1.854   0.710   2.111  1.3873  0.5835 -0.4719
 5526SOL     OW16909   2.405   3.007   5.286  0.1776  0.5088 -0.1165
 5526SOL    HW116910   2.491   3.033   5.320  0.1213  3.9086 -2.3841
 5526SOL    HW216911   2.420   2.991   5.193 -1.7019  1.3791 -0.5874
 5527SOL     OW16912   3.774   2.797   0.197 -0.4098  0.0981  0.1738
 5527SOL    HW116913   3.859   2.765   0.228 -0.8131  0.5001  1.7341
 5527SOL    HW216914   3.718   2.720   0.198 -0.1899 -0.0762 -0.4410
 5528SOL     OW16915   2.192   4.667   1.182  0.1186 -0.2169  0.3245
 5528SOL    HW116916   2.178   4.575   1.205 -0.5870  0.1390  1.3909
 5528SOL    HW216917   2.272   4.667   1.129 -1.2531 -1.7486 -1.8293
 5529SOL     OW16918   4.475   5.085   1.181 -0.8719  0.2697 -0.1807
 5529SOL    HW116919   4.467   5.180   1.167 -1.9790 -0.0062 -1.5088
 5529SOL    HW216920   4.552   5.060   1.129 -0.4821  0.4560  0.2993
 5530SOL     OW16921   4.881   2.689   2.006  0.0498  0.2856 -0.2289
 5530SOL    HW116922   4.940   2.621   2.039  0.9257  1.4363  0.6438
 5530SOL    HW216923   4.793   2.653   2.019  0.5223 -1.1310 -0.8307
 5531SOL     OW16924   1.457   3.099   4.645 -0.2116  0.3718  0.4273
 5531SOL    HW116925   1.429   3.008   4.645 -1.3528  0.7247  0.8962
 5531SOL    HW216926   1.386   3.147   4.687  0.8950  1.3283  1.2452
 5532SOL     OW16927   1.003   0.427   1.676 -0.5324 -0.7003  0.0224
 5532SOL    HW116928   1.035   0.483   1.606  1.4007 -0.8407  0.7722
 5532SOL    HW216929   0.985   0.486   1.749 -2.7423 -0.5267 -0.6105
 5533SOL     OW16930   4.945   1.013   4.401  0.0291 -0.6850 -0.0205
 5533SOL    HW116931   4.851   1.028   4.415 -0.2796 -1.6057 -1.0263
 5533SOL    HW216932   4.983   1.101   4.397 -0.5158 -0.3195  2.0791
 5534SOL     OW16933   5.157   4.737   4.390  0.7322 -0.3628  0.0187
 5534SOL    HW116934   5.106   4.741   4.471  1.5668  1.2188  0.4770
 5534SOL    HW216935   5.095   4.760   4.321  0.2840 -0.6558  0.3218
 5535SOL     OW16936   1.054   4.888   0.894 -0.0974  0.0626 -0.2239
 5535SOL    HW116937   1.104   4.819   0.850  0.7078  0.8541 -0.5638
 5535SOL    HW216938   0.999   4.926   0.825  0.7464  0.9208 -0.4352
 5536SOL     OW16939   4.624   1.696   1.487 -0.4761  0.4284  0.1425
 5536SOL    HW116940   4.630   1.772   1.430 -2.0215  0.6914  0.3130
 5536SOL    HW216941   4.572   1.726   1.561 -0.3298 -0.5405  0.6417
 5537SOL     OW16942   0.863   5.157   0.362 -0.4281 -0.6896 -0.1548
 5537SOL    HW116943   0.829   5.128   0.277 -0.5893 -1.3037  0.1088
 5537SOL    HW216944   0.885   5.075   0.407  0.3106 -0.3381  0.1265
 5538SOL     OW16945   4.252   4.185   0.965 -0.2307 -0.8548  0.7676
 5538SOL    HW116946   4.202   4.166   1.044  0.1707 -1.5382  0.8602
 5538SOL    HW216947   4.323   4.241   0.995 -0.9486  0.1503  0.6297
 5539SOL     OW16948   2.321   1.451   1.505  0.2564  0.2055 -0.2162
 5539SOL    HW116949   2.369   1.512   1.561  0.2728  0.4416 -0.4903
 5539SOL    HW216950   2.384   1.382   1.485  0.4739  0.5059 -0.5604
 5540SOL     OW16951   0.696   2.913   4.181 -0.0081 -0.6135  0.0015
 5540SOL    HW116952   0.757   2.842   4.159  1.6568  0.1044  2.1338
 5540SOL    HW216953   0.696   2.968   4.103  1.1218 -1.2961 -0.4991
 5541SOL     OW16954   4.605   0.092   2.988  0.1887  0.1523 -0.0094
 5541SOL    HW116955   4.610   0.018   3.049  0.7703  0.2682  0.0805
 5541SOL    HW216956   4.566   0.162   3.040 -0.5627 -0.1529 -0.1548
 5542SOL     OW16957   1.435   0.038   0.391 -0.2696 -0.8867  0.1489
 5542SOL    HW116958   1.414   0.127   0.419 -0.5866 -0.6617 -0.7665
 5542SOL    HW216959   1.361  -0.015   0.420 -1.1483 -0.4554 -1.2453
 5543SOL     OW16960   1.133   4.698   2.506 -0.1024 -0.0875 -0.0421
 5543SOL    HW116961   1.195   4.721   2.574  1.7481  0.5717 -1.8962
 5543SOL    HW216962   1.129   4.602   2.508  1.4620 -0.1718 -0.3149
 5544SOL     OW16963   2.988   1.007   2.580  0.6484  0.3151 -0.0590
 5544SOL    HW116964   2.979   0.912   2.587  0.6182  0.3797  0.7596
 5544SOL    HW216965   3.021   1.021   2.491  0.3379 -0.4361 -0.2951
 5545SOL     OW16966   4.581   2.762   1.253 -0.3798 -0.0592  0.1842
 5545SOL    HW116967   4.640   2.835   1.271  0.1445 -0.2798 -0.6206
 5545SOL    HW216968   4.515   2.799   1.194 -1.0762  0.2013  1.1289
 5546SOL     OW16969   5.115   0.143   0.941  0.2417 -0.6098  0.1643
 5546SOL    HW116970   5.185   0.127   0.878 -0.2071 -1.4182 -0.1360
 5546SOL    HW216971   5.046   0.186   0.890  0.7587  0.7604  0.5965
 5547SOL     OW16972   4.729   0.397   1.883 -0.3118 -0.1822 -0.3510
 5547SOL    HW116973   4.814   0.379   1.924 -0.6989  1.6158  1.3114
 5547SOL    HW216974   4.679   0.316   1.894  0.7263 -0.7928 -0.1274
 5548SOL     OW16975   2.289   2.155   1.551 -0.7419  0.1753  0.2310
 5548SOL    HW116976   2.275   2.198   1.635 -0.8376 -1.1550  0.9220
 5548SOL    HW216977   2.327   2.222   1.495 -0.6835  1.0806  1.3430
 5549SOL     OW16978   0.205   3.988   1.483 -0.3025 -0.2157 -0.4208
 5549SOL    HW116979   0.192   3.906   1.532 -1.6768  0.1784 -0.0877
 5549SOL    HW216980   0.191   3.963   1.392  1.7384 -0.8432 -0.5921
 5550SOL     OW16981   3.588   2.812   2.325 -0.2858 -0.0667 -0.2265
 5550SOL    HW116982   3.667   2.799   2.376  1.5610  3.7605 -1.9049
 5550SOL    HW216983   3.606   2.770   2.241 -0.4530 -0.0839 -0.2544
 5551SOL     OW16984   4.851   3.641   0.829 -0.2634 -0.0370 -0.0341
 5551SOL    HW116985   4.800   3.603   0.901 -1.0123  2.2682  0.6897
 5551SOL    HW216986   4.908   3.569   0.800 -1.5228 -1.6591  1.3736
 5552SOL     OW16987   5.556   3.622   2.510  0.0373 -0.1430  0.3769
 5552SOL    HW116988   5.559   3.612   2.415 -0.6927  1.8167  0.1274
 5552SOL    HW216989   5.481   3.679   2.526  1.0379  0.7613  2.0042
 5553SOL     OW16990   5.211   3.046   1.882  0.0640  0.4141 -1.0147
 5553SOL    HW116991   5.169   3.128   1.909  0.8495  0.9427 -1.3970
 5553SOL    HW216992   5.304   3.066   1.878  0.5251 -1.1208  1.0850
 5554SOL     OW16993   5.500   2.366   3.231 -0.4212  0.4056 -0.3082
 5554SOL    HW116994   5.443   2.315   3.288 -0.5320 -1.3055 -1.8958
 5554SOL    HW216995   5.442   2.395   3.160  0.5321 -0.7643 -1.5726
 5555SOL     OW16996   4.924   1.751   1.407 -0.0511  0.0572  0.0974
 5555SOL    HW116997   4.856   1.787   1.465 -0.9038 -1.0323 -0.2192
 5555SOL    HW216998   4.883   1.747   1.321  0.1474 -1.3522  0.0603
 5556SOL     OW16999   3.954   0.245   4.635 -0.4158  0.3414  0.3705
 5556SOL    HW117000   4.008   0.316   4.668  0.7709 -1.1879  1.8037
 5556SOL    HW217001   3.949   0.182   4.708 -0.0637 -1.8113 -1.4058
 5557SOL     OW17002   4.392   2.477   2.912 -0.0586  0.4812  0.1329
 5557SOL    HW117003   4.321   2.522   2.958 -0.5150  0.7221 -0.8036
 5557SOL    HW217004   4.471   2.526   2.937 -0.2953  0.5957  0.6771
 5558SOL     OW17005   0.383   4.492   3.217  0.1347  0.7233 -0.1694
 5558SOL    HW117006   0.308   4.507   3.274  1.2588  1.0121  1.2476
 5558SOL    HW217007   0.365   4.544   3.139 -0.9266  1.1287  0.3450
 5559SOL     OW17008   1.277   1.263   2.138  0.8805 -0.4018 -0.7694
 5559SOL    HW117009   1.302   1.199   2.071  0.0721  0.5154 -1.9803
 5559SOL    HW217010   1.356   1.313   2.156  0.9266 -0.1681 -1.6039
 5560SOL     OW17011   4.330   2.067   3.774 -0.2123 -0.3272 -0.6672
 5560SOL    HW117012   4.396   2.026   3.829  1.9508 -0.0867 -3.0100
 5560SOL    HW217013   4.281   1.994   3.736  1.1269 -0.6623 -1.7979
 5561SOL     OW17014   2.849   5.195   3.668  0.6071  0.3595  0.0487
 5561SOL    HW117015   2.840   5.189   3.573  1.6649  1.6623 -0.1507
 5561SOL    HW217016   2.867   5.105   3.697  1.0735  0.0930 -1.0719
 5562SOL     OW17017   3.587   1.057   1.511 -0.9872  0.3353 -0.2278
 5562SOL    HW117018   3.552   1.012   1.588  0.7720  1.1853  1.0991
 5562SOL    HW217019   3.672   1.016   1.497 -1.9030 -0.8074 -2.6174
 5563SOL     OW17020   1.059   3.319   4.555 -0.0370 -0.5763 -0.4559
 5563SOL    HW117021   1.043   3.403   4.598  0.3331 -0.1720 -1.0817
 5563SOL    HW217022   1.120   3.341   4.484  0.9245 -1.5636  0.0650
 5564SOL     OW17023   4.071   4.067   5.253  0.2398 -0.1011  1.0912
 5564SOL    HW117024   4.102   3.979   5.273  0.8575  0.3586  2.2531
 5564SOL    HW217025   3.977   4.056   5.236  1.0354 -1.5310 -2.6683
 5565SOL     OW17026   1.988   0.977   1.137  0.2926  0.3716 -0.0266
 5565SOL    HW117027   1.935   1.031   1.078 -0.0420 -1.1417 -1.1473
 5565SOL    HW217028   2.070   1.025   1.146  0.4410  0.5172 -1.9348
 5566SOL     OW17029   3.410   2.949   5.058 -0.2963 -0.4734  0.1368
 5566SOL    HW117030   3.319   2.922   5.069 -0.3631 -1.0601 -1.5700
 5566SOL    HW217031   3.443   2.891   4.989  0.6151  1.4037 -1.0660
 5567SOL     OW17032   3.294   0.408   0.260 -0.1204 -0.3650 -0.3805
 5567SOL    HW117033   3.273   0.501   0.268 -0.4006 -0.5641  1.4018
 5567SOL    HW217034   3.386   0.406   0.234  0.4004  0.4148  1.3044
 5568SOL     OW17035   0.374   2.676   1.739  0.0026  0.1096 -0.7407
 5568SOL    HW117036   0.399   2.696   1.829 -1.7360  2.0255 -0.6491
 5568SOL    HW217037   0.422   2.740   1.686  0.7733 -0.8038 -1.1495
 5569SOL     OW17038   4.618   4.803   2.294 -0.1829 -0.2960  0.1181
 5569SOL    HW117039   4.660   4.875   2.247  0.1851 -0.8583 -0.4286
 5569SOL    HW217040   4.689   4.764   2.346 -0.6683  0.5584  1.4388
 5570SOL     OW17041   5.211   4.429   1.693  0.3518  0.1085 -0.2502
 5570SOL    HW117042   5.130   4.456   1.651  0.6090  0.4491 -0.5304
 5570SOL    HW217043   5.184   4.363   1.757 -0.4184  1.6719  1.0972
 5571SOL     OW17044   1.334   1.563   1.854 -0.4378 -0.4411 -0.2883
 5571SOL    HW117045   1.284   1.483   1.835  0.6921 -1.0401 -0.7395
 5571SOL    HW217046   1.425   1.537   1.847 -0.0436  0.5816  0.8530
 5572SOL     OW17047   2.343   1.164   3.824  0.4514  0.1748  0.4899
 5572SOL    HW117048   2.312   1.172   3.734 -0.8252 -0.1842  0.8916
 5572SOL    HW217049   2.439   1.164   3.817  0.4176  3.5797 -0.5630
 5573SOL     OW17050   2.870   1.940   5.097 -0.6652 -0.2457 -0.2151
 5573SOL    HW117051   2.845   2.024   5.134 -0.7037  0.4864 -1.8710
 5573SOL    HW217052   2.922   1.962   5.019  0.7798 -1.7425  0.2897
 5574SOL     OW17053   1.349   0.393   2.034 -0.2626  0.0651  0.0208
 5574SOL    HW117054   1.419   0.342   1.995  0.5915  2.2178 -1.3589
 5574SOL    HW217055   1.382   0.419   2.120 -0.4867 -1.1897  0.5000
 5575SOL     OW17056   3.439   3.834   2.101  0.9347 -0.0114  0.2823
 5575SOL    HW117057   3.415   3.741   2.104  1.4833 -0.1249  1.2551
 5575SOL    HW217058   3.477   3.852   2.187  0.7893  1.1298  0.1185
 5576SOL     OW17059   4.451   2.058   4.654  0.4348 -0.0494 -0.0852
 5576SOL    HW117060   4.517   2.033   4.719 -0.0191  0.5589  0.6245
 5576SOL    HW217061   4.501   2.075   4.574  1.1007  0.0401  0.3421
 5577SOL     OW17062   1.357   1.786   2.553  0.2415  0.0404  0.0254
 5577SOL    HW117063   1.392   1.766   2.466 -0.4099 -0.8789 -0.0356
 5577SOL    HW217064   1.320   1.874   2.545  1.7360  0.6600 -0.1455
 5578SOL     OW17065   0.050   5.227   2.431 -0.6700  0.1124  0.6208
 5578SOL    HW117066   0.105   5.193   2.502 -0.0809  0.0520  0.1393
 5578SOL    HW217067  -0.035   5.184   2.443 -0.1584 -0.9456  0.4653
 5579SOL     OW17068   3.755   3.193   1.489 -0.2412  0.1862 -0.2871
 5579SOL    HW117069   3.727   3.104   1.510 -2.4191  0.3702 -2.1690
 5579SOL    HW217070   3.729   3.204   1.397  3.8380  1.2920 -1.3919
 5580SOL     OW17071   0.750   4.530   2.020  0.1235 -0.3544  0.5005
 5580SOL    HW117072   0.723   4.497   2.105 -1.5268  0.1897  0.2103
 5580SOL    HW217073   0.700   4.611   2.008  1.6961  0.5443 -0.1981
 5581NA      NA17074   3.982   2.600   4.889  0.0414  0.0965 -0.2127
 5582NA      NA17075   4.897   0.633   5.182 -0.2240 -0.1617 -0.1955
 5583NA      NA17076   1.010   2.546   0.892 -0.5762 -0.1329  0.3425
 5584NA      NA17077   5.080   5.373   3.957  0.2124 -0.4954  0.2120
 5585NA      NA17078   3.728   2.873   3.062  0.0254 -0.1197 -0.0829
 5586NA      NA17079   4.609   2.991   4.491  0.0891  0.1140 -0.3497
 5587NA      NA17080   3.971   4.568   0.552 -0.2181  0.9293  0.0700
 5588NA      NA17081   3.460   3.132   5.146  0.1297 -0.4055 -0.1379
 5589NA      NA17082   1.410   3.605   5.313  0.2492  0.0637 -0.4528
 5590NA      NA17083   5.389   3.228   3.475 -0.3623  0.0121  0.6432
 5591NA      NA17084   1.249   5.286   1.792 -0.4023 -0.4556  0.0586
 5592NA      NA17085   2.356   2.275   0.361 -0.4070  0.1840 -0.5286
 5593NA      NA17086   2.891   5.566   2.088 -0.8446 -0.5717  0.5033
 5594NA      NA17087   2.107   3.651   1.783  0.3380  0.1839 -0.0268
 5595NA      NA17088   1.531   5.533   4.444  0.1446 -0.5954  0.1918
 5596NA      NA17089   3.094   5.516   3.325  0.0931  0.1032  0.1941
 5597CL      CL17090   1.075   0.585   0.717  0.1843 -0.1502  0.1233
 5598CL      CL17091   2.470   2.322   2.513  0.4317 -0.2571  0.3188
 5599CL      CL17092   1.852   4.702   0.831  0.2161 -0.1386 -0.2687
 5600CL      CL17093   0.126   3.476   3.724 -0.1415  0.3582 -0.0228
 5601CL      CL17094   4.612   2.001   0.427  0.3964  0.2534  0.0337
 5602CL      CL17095   2.286   4.132   2.397 -0.5431 -0.1165 -0.0714
 5603CL      CL17096   5.084   1.591   4.459  0.0685  0.1043  0.1063
 5604CL      CL17097   2.284   0.549   1.748 -0.2228 -0.1553 -0.4091
 5605CL      CL17098   2.663   3.120   5.457 -0.0174 -0.0718 -0.0699
 5606CL      CL17099   2.674   1.188   3.881 -0.0409  0.4235 -0.1876
 5607CL      CL17100   5.516   1.885   3.837 -0.0840  0.3165 -0.4826
 5608CL      CL17101   5.536   0.521   2.918 -0.1659 -0.3170  0.2237
 5609CL      CL17102   4.908   1.035   0.200  0.2596 -0.3099  0.1476
 5610CL      CL17103   3.099   2.859   4.914  0.0842 -0.0420 -0.0917
 5611CL      CL17104   4.519   0.241   1.343  0.0798  0.0320 -0.2623
 5612CL      CL17105   0.737   2.004   3.738  0.0090 -0.3621 -0.4121
   5.57126   5.57126   5.57126
