;
;   File g3.5_pamam.itp  was generated
;   By user: sairam (1000)
;   On host: sairam
;   At date: Sat. August  6 19:58:35 2023
;
;   This is a standalone topology file
;
;   Created by:
;   ParmEd:       amb2gro_top_gro.py, VERSION 3.4.1
;   Executable:   amb2gro_top_gro.py
;   Library dir:  /usr/local/gromacs/share/gromacs/top
;   Command line:
;     ./amb2gro_top_gro.py -p g3.5_pamam.prmtop -c g3.5_pamam.inpcrd -t g3.5_pamam.itp -g g3.5_pamam.gro -b g3.5_pamam.pdb
;

;[ defaults ]
;; nbfunc        comb-rule       gen-pairs       fudgeLJ fudgeQQ
;1               2               yes             0.5          0.83333333  
;
;[ atomtypes ]
;; name    at.num    mass    charge ptype  sigma      epsilon
;c3             6  12.010000  0.00000000  A     0.33996695      0.4577296
;h1             1   1.008000  0.00000000  A      0.2471353      0.0656888
;n3             7  14.010000  0.00000000  A     0.32499985        0.71128
;hc             1   1.008000  0.00000000  A     0.26495328      0.0656888
;c              6  12.010000  0.00000000  A     0.33996695       0.359824
;o              8  16.000000  0.00000000  A     0.29599219        0.87864
;n              7  14.010000  0.00000000  A     0.32499985        0.71128
;hn             1   1.008000  0.00000000  A     0.10690785      0.0656888


[ moleculetype ]
; Name            nrexcl
g3.5_pamam       3

[ atoms ]
;   nr       type  resnr residue  atom   cgnr    charge       mass  typeB    chargeB      massB
; residue    1 aaa rtp aaa q -0.0
    1         c3      1    aaa     C1      1 0.02890000  12.010000   ; qtot 0.028900
    2         h1      1    aaa     H1      2 0.08460000   1.008000   ; qtot 0.113500
    3         h1      1    aaa     H2      3 0.08460000   1.008000   ; qtot 0.198100
    4         c3      1    aaa     C2      4 0.02890000  12.010000   ; qtot 0.227000
    5         h1      1    aaa     H3      5 0.08460000   1.008000   ; qtot 0.311600
    6         h1      1    aaa     H4      6 0.08460000   1.008000   ; qtot 0.396200
    7         n3      1    aaa     N1      7 -0.65770000  14.010000   ; qtot -0.261500
    8         n3      1    aaa     N2      8 -0.65770000  14.010000   ; qtot -0.919200
    9         c3      1    aaa     C3      9 0.36940000  12.010000   ; qtot -0.549800
   10         h1      1    aaa     H5     10 0.00650000   1.008000   ; qtot -0.543300
   11         h1      1    aaa     H6     11 0.00650000   1.008000   ; qtot -0.536800
   12         c3      1    aaa     C4     12 0.36940000  12.010000   ; qtot -0.167400
   13         h1      1    aaa     H7     13 0.00650000   1.008000   ; qtot -0.160900
   14         h1      1    aaa     H8     14 0.00650000   1.008000   ; qtot -0.154400
   15         c3      1    aaa     C5     15 0.36940000  12.010000   ; qtot 0.215000
   16         h1      1    aaa     H9     16 0.00650000   1.008000   ; qtot 0.221500
   17         h1      1    aaa    H10     17 0.00650000   1.008000   ; qtot 0.228000
   18         c3      1    aaa     C6     18 0.36940000  12.010000   ; qtot 0.597400
   19         h1      1    aaa    H11     19 0.00650000   1.008000   ; qtot 0.603900
   20         h1      1    aaa    H12     20 0.00650000   1.008000   ; qtot 0.610400
   21         c3      1    aaa     C7     21 -0.54350000  12.010000   ; qtot 0.066900
   22         hc      1    aaa    H13     22 0.15890000   1.008000   ; qtot 0.225800
   23         hc      1    aaa    H14     23 0.15890000   1.008000   ; qtot 0.384700
   24         c3      1    aaa     C8     24 -0.54350000  12.010000   ; qtot -0.158800
   25         hc      1    aaa    H15     25 0.15890000   1.008000   ; qtot 0.000100
   26         hc      1    aaa    H16     26 0.15890000   1.008000   ; qtot 0.159000
   27         c3      1    aaa     C9     27 -0.54350000  12.010000   ; qtot -0.384500
   28         hc      1    aaa    H17     28 0.15890000   1.008000   ; qtot -0.225600
   29         hc      1    aaa    H18     29 0.15890000   1.008000   ; qtot -0.066700
   30         c3      1    aaa    C10     30 -0.54350000  12.010000   ; qtot -0.610200
   31         hc      1    aaa    H19     31 0.15890000   1.008000   ; qtot -0.451300
   32         hc      1    aaa    H20     32 0.15890000   1.008000   ; qtot -0.292400
   33          c      1    aaa    C11     33 0.67800000  12.010000   ; qtot 0.385600
   34          c      1    aaa    C12     34 0.67800000  12.010000   ; qtot 1.063600
   35          c      1    aaa    C13     35 0.67800000  12.010000   ; qtot 1.741600
   36          c      1    aaa    C14     36 0.67800000  12.010000   ; qtot 2.419600
   37          o      1    aaa     O1     37 -0.60490000  16.000000   ; qtot 1.814700
   38          o      1    aaa     O2     38 -0.60490000  16.000000   ; qtot 1.209800
   39          o      1    aaa     O3     39 -0.60490000  16.000000   ; qtot 0.604900
   40          o      1    aaa     O4     40 -0.60490000  16.000000   ; qtot -0.000000
; residue    2 bbb rtp bbb q -0.0
   41         c3      2    bbb     C1     41 0.44180000  12.010000   ; qtot 0.441800
   42         h1      2    bbb     H1     42 -0.03530000   1.008000   ; qtot 0.406500
   43         h1      2    bbb     H2     43 -0.03530000   1.008000   ; qtot 0.371200
   44         c3      2    bbb     C2     44 -0.28250000  12.010000   ; qtot 0.088700
   45         h1      2    bbb     H3     45 0.15710000   1.008000   ; qtot 0.245800
   46         h1      2    bbb     H4     46 0.15710000   1.008000   ; qtot 0.402900
   47         n3      2    bbb     N1     47 -0.74090000  14.010000   ; qtot -0.338000
   48         c3      2    bbb     C3     48 0.51680000  12.010000   ; qtot 0.178800
   49         h1      2    bbb     H5     49 -0.05230000   1.008000   ; qtot 0.126500
   50         h1      2    bbb     H6     50 -0.05230000   1.008000   ; qtot 0.074200
   51         c3      2    bbb     C4     51 0.51680000  12.010000   ; qtot 0.591000
   52         h1      2    bbb     H7     52 -0.05230000   1.008000   ; qtot 0.538700
   53         h1      2    bbb     H8     53 -0.05230000   1.008000   ; qtot 0.486400
   54         c3      2    bbb     C5     54 -0.60390000  12.010000   ; qtot -0.117500
   55         hc      2    bbb     H9     55 0.16730000   1.008000   ; qtot 0.049800
   56         hc      2    bbb    H10     56 0.16730000   1.008000   ; qtot 0.217100
   57         c3      2    bbb     C6     57 -0.60390000  12.010000   ; qtot -0.386800
   58         hc      2    bbb    H11     58 0.16730000   1.008000   ; qtot -0.219500
   59         hc      2    bbb    H12     59 0.16730000   1.008000   ; qtot -0.052200
   60          c      2    bbb     C7     60 0.72110000  12.010000   ; qtot 0.668900
   61          c      2    bbb     C8     61 0.72110000  12.010000   ; qtot 1.390000
   62          o      2    bbb     O1     62 -0.61950000  16.000000   ; qtot 0.770500
   63          o      2    bbb     O2     63 -0.61950000  16.000000   ; qtot 0.151000
   64          n      2    bbb     N4     64 -0.46580000  14.010000   ; qtot -0.314800
   65         hn      2    bbb    H21     65 0.31480000   1.008000   ; qtot -0.000000
; residue    3 bbb rtp bbb q -0.0
   66         c3      3    bbb     C1     66 0.44180000  12.010000   ; qtot 0.441800
   67         h1      3    bbb     H1     67 -0.03530000   1.008000   ; qtot 0.406500
   68         h1      3    bbb     H2     68 -0.03530000   1.008000   ; qtot 0.371200
   69         c3      3    bbb     C2     69 -0.28250000  12.010000   ; qtot 0.088700
   70         h1      3    bbb     H3     70 0.15710000   1.008000   ; qtot 0.245800
   71         h1      3    bbb     H4     71 0.15710000   1.008000   ; qtot 0.402900
   72         n3      3    bbb     N1     72 -0.74090000  14.010000   ; qtot -0.338000
   73         c3      3    bbb     C3     73 0.51680000  12.010000   ; qtot 0.178800
   74         h1      3    bbb     H5     74 -0.05230000   1.008000   ; qtot 0.126500
   75         h1      3    bbb     H6     75 -0.05230000   1.008000   ; qtot 0.074200
   76         c3      3    bbb     C4     76 0.51680000  12.010000   ; qtot 0.591000
   77         h1      3    bbb     H7     77 -0.05230000   1.008000   ; qtot 0.538700
   78         h1      3    bbb     H8     78 -0.05230000   1.008000   ; qtot 0.486400
   79         c3      3    bbb     C5     79 -0.60390000  12.010000   ; qtot -0.117500
   80         hc      3    bbb     H9     80 0.16730000   1.008000   ; qtot 0.049800
   81         hc      3    bbb    H10     81 0.16730000   1.008000   ; qtot 0.217100
   82         c3      3    bbb     C6     82 -0.60390000  12.010000   ; qtot -0.386800
   83         hc      3    bbb    H11     83 0.16730000   1.008000   ; qtot -0.219500
   84         hc      3    bbb    H12     84 0.16730000   1.008000   ; qtot -0.052200
   85          c      3    bbb     C7     85 0.72110000  12.010000   ; qtot 0.668900
   86          c      3    bbb     C8     86 0.72110000  12.010000   ; qtot 1.390000
   87          o      3    bbb     O1     87 -0.61950000  16.000000   ; qtot 0.770500
   88          o      3    bbb     O2     88 -0.61950000  16.000000   ; qtot 0.151000
   89          n      3    bbb     N4     89 -0.46580000  14.010000   ; qtot -0.314800
   90         hn      3    bbb    H21     90 0.31480000   1.008000   ; qtot -0.000000
; residue    4 bbb rtp bbb q -0.0
   91         c3      4    bbb     C1     91 0.44180000  12.010000   ; qtot 0.441800
   92         h1      4    bbb     H1     92 -0.03530000   1.008000   ; qtot 0.406500
   93         h1      4    bbb     H2     93 -0.03530000   1.008000   ; qtot 0.371200
   94         c3      4    bbb     C2     94 -0.28250000  12.010000   ; qtot 0.088700
   95         h1      4    bbb     H3     95 0.15710000   1.008000   ; qtot 0.245800
   96         h1      4    bbb     H4     96 0.15710000   1.008000   ; qtot 0.402900
   97         n3      4    bbb     N1     97 -0.74090000  14.010000   ; qtot -0.338000
   98         c3      4    bbb     C3     98 0.51680000  12.010000   ; qtot 0.178800
   99         h1      4    bbb     H5     99 -0.05230000   1.008000   ; qtot 0.126500
  100         h1      4    bbb     H6    100 -0.05230000   1.008000   ; qtot 0.074200
  101         c3      4    bbb     C4    101 0.51680000  12.010000   ; qtot 0.591000
  102         h1      4    bbb     H7    102 -0.05230000   1.008000   ; qtot 0.538700
  103         h1      4    bbb     H8    103 -0.05230000   1.008000   ; qtot 0.486400
  104         c3      4    bbb     C5    104 -0.60390000  12.010000   ; qtot -0.117500
  105         hc      4    bbb     H9    105 0.16730000   1.008000   ; qtot 0.049800
  106         hc      4    bbb    H10    106 0.16730000   1.008000   ; qtot 0.217100
  107         c3      4    bbb     C6    107 -0.60390000  12.010000   ; qtot -0.386800
  108         hc      4    bbb    H11    108 0.16730000   1.008000   ; qtot -0.219500
  109         hc      4    bbb    H12    109 0.16730000   1.008000   ; qtot -0.052200
  110          c      4    bbb     C7    110 0.72110000  12.010000   ; qtot 0.668900
  111          c      4    bbb     C8    111 0.72110000  12.010000   ; qtot 1.390000
  112          o      4    bbb     O1    112 -0.61950000  16.000000   ; qtot 0.770500
  113          o      4    bbb     O2    113 -0.61950000  16.000000   ; qtot 0.151000
  114          n      4    bbb     N4    114 -0.46580000  14.010000   ; qtot -0.314800
  115         hn      4    bbb    H21    115 0.31480000   1.008000   ; qtot -0.000000
; residue    5 bbb rtp bbb q -0.0
  116         c3      5    bbb     C1    116 0.44180000  12.010000   ; qtot 0.441800
  117         h1      5    bbb     H1    117 -0.03530000   1.008000   ; qtot 0.406500
  118         h1      5    bbb     H2    118 -0.03530000   1.008000   ; qtot 0.371200
  119         c3      5    bbb     C2    119 -0.28250000  12.010000   ; qtot 0.088700
  120         h1      5    bbb     H3    120 0.15710000   1.008000   ; qtot 0.245800
  121         h1      5    bbb     H4    121 0.15710000   1.008000   ; qtot 0.402900
  122         n3      5    bbb     N1    122 -0.74090000  14.010000   ; qtot -0.338000
  123         c3      5    bbb     C3    123 0.51680000  12.010000   ; qtot 0.178800
  124         h1      5    bbb     H5    124 -0.05230000   1.008000   ; qtot 0.126500
  125         h1      5    bbb     H6    125 -0.05230000   1.008000   ; qtot 0.074200
  126         c3      5    bbb     C4    126 0.51680000  12.010000   ; qtot 0.591000
  127         h1      5    bbb     H7    127 -0.05230000   1.008000   ; qtot 0.538700
  128         h1      5    bbb     H8    128 -0.05230000   1.008000   ; qtot 0.486400
  129         c3      5    bbb     C5    129 -0.60390000  12.010000   ; qtot -0.117500
  130         hc      5    bbb     H9    130 0.16730000   1.008000   ; qtot 0.049800
  131         hc      5    bbb    H10    131 0.16730000   1.008000   ; qtot 0.217100
  132         c3      5    bbb     C6    132 -0.60390000  12.010000   ; qtot -0.386800
  133         hc      5    bbb    H11    133 0.16730000   1.008000   ; qtot -0.219500
  134         hc      5    bbb    H12    134 0.16730000   1.008000   ; qtot -0.052200
  135          c      5    bbb     C7    135 0.72110000  12.010000   ; qtot 0.668900
  136          c      5    bbb     C8    136 0.72110000  12.010000   ; qtot 1.390000
  137          o      5    bbb     O1    137 -0.61950000  16.000000   ; qtot 0.770500
  138          o      5    bbb     O2    138 -0.61950000  16.000000   ; qtot 0.151000
  139          n      5    bbb     N4    139 -0.46580000  14.010000   ; qtot -0.314800
  140         hn      5    bbb    H21    140 0.31480000   1.008000   ; qtot -0.000000
; residue    6 bbb rtp bbb q -0.0
  141         c3      6    bbb     C1    141 0.44180000  12.010000   ; qtot 0.441800
  142         h1      6    bbb     H1    142 -0.03530000   1.008000   ; qtot 0.406500
  143         h1      6    bbb     H2    143 -0.03530000   1.008000   ; qtot 0.371200
  144         c3      6    bbb     C2    144 -0.28250000  12.010000   ; qtot 0.088700
  145         h1      6    bbb     H3    145 0.15710000   1.008000   ; qtot 0.245800
  146         h1      6    bbb     H4    146 0.15710000   1.008000   ; qtot 0.402900
  147         n3      6    bbb     N1    147 -0.74090000  14.010000   ; qtot -0.338000
  148         c3      6    bbb     C3    148 0.51680000  12.010000   ; qtot 0.178800
  149         h1      6    bbb     H5    149 -0.05230000   1.008000   ; qtot 0.126500
  150         h1      6    bbb     H6    150 -0.05230000   1.008000   ; qtot 0.074200
  151         c3      6    bbb     C4    151 0.51680000  12.010000   ; qtot 0.591000
  152         h1      6    bbb     H7    152 -0.05230000   1.008000   ; qtot 0.538700
  153         h1      6    bbb     H8    153 -0.05230000   1.008000   ; qtot 0.486400
  154         c3      6    bbb     C5    154 -0.60390000  12.010000   ; qtot -0.117500
  155         hc      6    bbb     H9    155 0.16730000   1.008000   ; qtot 0.049800
  156         hc      6    bbb    H10    156 0.16730000   1.008000   ; qtot 0.217100
  157         c3      6    bbb     C6    157 -0.60390000  12.010000   ; qtot -0.386800
  158         hc      6    bbb    H11    158 0.16730000   1.008000   ; qtot -0.219500
  159         hc      6    bbb    H12    159 0.16730000   1.008000   ; qtot -0.052200
  160          c      6    bbb     C7    160 0.72110000  12.010000   ; qtot 0.668900
  161          c      6    bbb     C8    161 0.72110000  12.010000   ; qtot 1.390000
  162          o      6    bbb     O1    162 -0.61950000  16.000000   ; qtot 0.770500
  163          o      6    bbb     O2    163 -0.61950000  16.000000   ; qtot 0.151000
  164          n      6    bbb     N4    164 -0.46580000  14.010000   ; qtot -0.314800
  165         hn      6    bbb    H21    165 0.31480000   1.008000   ; qtot -0.000000
; residue    7 bbb rtp bbb q -0.0
  166         c3      7    bbb     C1    166 0.44180000  12.010000   ; qtot 0.441800
  167         h1      7    bbb     H1    167 -0.03530000   1.008000   ; qtot 0.406500
  168         h1      7    bbb     H2    168 -0.03530000   1.008000   ; qtot 0.371200
  169         c3      7    bbb     C2    169 -0.28250000  12.010000   ; qtot 0.088700
  170         h1      7    bbb     H3    170 0.15710000   1.008000   ; qtot 0.245800
  171         h1      7    bbb     H4    171 0.15710000   1.008000   ; qtot 0.402900
  172         n3      7    bbb     N1    172 -0.74090000  14.010000   ; qtot -0.338000
  173         c3      7    bbb     C3    173 0.51680000  12.010000   ; qtot 0.178800
  174         h1      7    bbb     H5    174 -0.05230000   1.008000   ; qtot 0.126500
  175         h1      7    bbb     H6    175 -0.05230000   1.008000   ; qtot 0.074200
  176         c3      7    bbb     C4    176 0.51680000  12.010000   ; qtot 0.591000
  177         h1      7    bbb     H7    177 -0.05230000   1.008000   ; qtot 0.538700
  178         h1      7    bbb     H8    178 -0.05230000   1.008000   ; qtot 0.486400
  179         c3      7    bbb     C5    179 -0.60390000  12.010000   ; qtot -0.117500
  180         hc      7    bbb     H9    180 0.16730000   1.008000   ; qtot 0.049800
  181         hc      7    bbb    H10    181 0.16730000   1.008000   ; qtot 0.217100
  182         c3      7    bbb     C6    182 -0.60390000  12.010000   ; qtot -0.386800
  183         hc      7    bbb    H11    183 0.16730000   1.008000   ; qtot -0.219500
  184         hc      7    bbb    H12    184 0.16730000   1.008000   ; qtot -0.052200
  185          c      7    bbb     C7    185 0.72110000  12.010000   ; qtot 0.668900
  186          c      7    bbb     C8    186 0.72110000  12.010000   ; qtot 1.390000
  187          o      7    bbb     O1    187 -0.61950000  16.000000   ; qtot 0.770500
  188          o      7    bbb     O2    188 -0.61950000  16.000000   ; qtot 0.151000
  189          n      7    bbb     N4    189 -0.46580000  14.010000   ; qtot -0.314800
  190         hn      7    bbb    H21    190 0.31480000   1.008000   ; qtot -0.000000
; residue    8 bbb rtp bbb q -0.0
  191         c3      8    bbb     C1    191 0.44180000  12.010000   ; qtot 0.441800
  192         h1      8    bbb     H1    192 -0.03530000   1.008000   ; qtot 0.406500
  193         h1      8    bbb     H2    193 -0.03530000   1.008000   ; qtot 0.371200
  194         c3      8    bbb     C2    194 -0.28250000  12.010000   ; qtot 0.088700
  195         h1      8    bbb     H3    195 0.15710000   1.008000   ; qtot 0.245800
  196         h1      8    bbb     H4    196 0.15710000   1.008000   ; qtot 0.402900
  197         n3      8    bbb     N1    197 -0.74090000  14.010000   ; qtot -0.338000
  198         c3      8    bbb     C3    198 0.51680000  12.010000   ; qtot 0.178800
  199         h1      8    bbb     H5    199 -0.05230000   1.008000   ; qtot 0.126500
  200         h1      8    bbb     H6    200 -0.05230000   1.008000   ; qtot 0.074200
  201         c3      8    bbb     C4    201 0.51680000  12.010000   ; qtot 0.591000
  202         h1      8    bbb     H7    202 -0.05230000   1.008000   ; qtot 0.538700
  203         h1      8    bbb     H8    203 -0.05230000   1.008000   ; qtot 0.486400
  204         c3      8    bbb     C5    204 -0.60390000  12.010000   ; qtot -0.117500
  205         hc      8    bbb     H9    205 0.16730000   1.008000   ; qtot 0.049800
  206         hc      8    bbb    H10    206 0.16730000   1.008000   ; qtot 0.217100
  207         c3      8    bbb     C6    207 -0.60390000  12.010000   ; qtot -0.386800
  208         hc      8    bbb    H11    208 0.16730000   1.008000   ; qtot -0.219500
  209         hc      8    bbb    H12    209 0.16730000   1.008000   ; qtot -0.052200
  210          c      8    bbb     C7    210 0.72110000  12.010000   ; qtot 0.668900
  211          c      8    bbb     C8    211 0.72110000  12.010000   ; qtot 1.390000
  212          o      8    bbb     O1    212 -0.61950000  16.000000   ; qtot 0.770500
  213          o      8    bbb     O2    213 -0.61950000  16.000000   ; qtot 0.151000
  214          n      8    bbb     N4    214 -0.46580000  14.010000   ; qtot -0.314800
  215         hn      8    bbb    H21    215 0.31480000   1.008000   ; qtot -0.000000
; residue    9 bbb rtp bbb q -0.0
  216         c3      9    bbb     C1    216 0.44180000  12.010000   ; qtot 0.441800
  217         h1      9    bbb     H1    217 -0.03530000   1.008000   ; qtot 0.406500
  218         h1      9    bbb     H2    218 -0.03530000   1.008000   ; qtot 0.371200
  219         c3      9    bbb     C2    219 -0.28250000  12.010000   ; qtot 0.088700
  220         h1      9    bbb     H3    220 0.15710000   1.008000   ; qtot 0.245800
  221         h1      9    bbb     H4    221 0.15710000   1.008000   ; qtot 0.402900
  222         n3      9    bbb     N1    222 -0.74090000  14.010000   ; qtot -0.338000
  223         c3      9    bbb     C3    223 0.51680000  12.010000   ; qtot 0.178800
  224         h1      9    bbb     H5    224 -0.05230000   1.008000   ; qtot 0.126500
  225         h1      9    bbb     H6    225 -0.05230000   1.008000   ; qtot 0.074200
  226         c3      9    bbb     C4    226 0.51680000  12.010000   ; qtot 0.591000
  227         h1      9    bbb     H7    227 -0.05230000   1.008000   ; qtot 0.538700
  228         h1      9    bbb     H8    228 -0.05230000   1.008000   ; qtot 0.486400
  229         c3      9    bbb     C5    229 -0.60390000  12.010000   ; qtot -0.117500
  230         hc      9    bbb     H9    230 0.16730000   1.008000   ; qtot 0.049800
  231         hc      9    bbb    H10    231 0.16730000   1.008000   ; qtot 0.217100
  232         c3      9    bbb     C6    232 -0.60390000  12.010000   ; qtot -0.386800
  233         hc      9    bbb    H11    233 0.16730000   1.008000   ; qtot -0.219500
  234         hc      9    bbb    H12    234 0.16730000   1.008000   ; qtot -0.052200
  235          c      9    bbb     C7    235 0.72110000  12.010000   ; qtot 0.668900
  236          c      9    bbb     C8    236 0.72110000  12.010000   ; qtot 1.390000
  237          o      9    bbb     O1    237 -0.61950000  16.000000   ; qtot 0.770500
  238          o      9    bbb     O2    238 -0.61950000  16.000000   ; qtot 0.151000
  239          n      9    bbb     N4    239 -0.46580000  14.010000   ; qtot -0.314800
  240         hn      9    bbb    H21    240 0.31480000   1.008000   ; qtot -0.000000
; residue   10 bbb rtp bbb q -0.0
  241         c3     10    bbb     C1    241 0.44180000  12.010000   ; qtot 0.441800
  242         h1     10    bbb     H1    242 -0.03530000   1.008000   ; qtot 0.406500
  243         h1     10    bbb     H2    243 -0.03530000   1.008000   ; qtot 0.371200
  244         c3     10    bbb     C2    244 -0.28250000  12.010000   ; qtot 0.088700
  245         h1     10    bbb     H3    245 0.15710000   1.008000   ; qtot 0.245800
  246         h1     10    bbb     H4    246 0.15710000   1.008000   ; qtot 0.402900
  247         n3     10    bbb     N1    247 -0.74090000  14.010000   ; qtot -0.338000
  248         c3     10    bbb     C3    248 0.51680000  12.010000   ; qtot 0.178800
  249         h1     10    bbb     H5    249 -0.05230000   1.008000   ; qtot 0.126500
  250         h1     10    bbb     H6    250 -0.05230000   1.008000   ; qtot 0.074200
  251         c3     10    bbb     C4    251 0.51680000  12.010000   ; qtot 0.591000
  252         h1     10    bbb     H7    252 -0.05230000   1.008000   ; qtot 0.538700
  253         h1     10    bbb     H8    253 -0.05230000   1.008000   ; qtot 0.486400
  254         c3     10    bbb     C5    254 -0.60390000  12.010000   ; qtot -0.117500
  255         hc     10    bbb     H9    255 0.16730000   1.008000   ; qtot 0.049800
  256         hc     10    bbb    H10    256 0.16730000   1.008000   ; qtot 0.217100
  257         c3     10    bbb     C6    257 -0.60390000  12.010000   ; qtot -0.386800
  258         hc     10    bbb    H11    258 0.16730000   1.008000   ; qtot -0.219500
  259         hc     10    bbb    H12    259 0.16730000   1.008000   ; qtot -0.052200
  260          c     10    bbb     C7    260 0.72110000  12.010000   ; qtot 0.668900
  261          c     10    bbb     C8    261 0.72110000  12.010000   ; qtot 1.390000
  262          o     10    bbb     O1    262 -0.61950000  16.000000   ; qtot 0.770500
  263          o     10    bbb     O2    263 -0.61950000  16.000000   ; qtot 0.151000
  264          n     10    bbb     N4    264 -0.46580000  14.010000   ; qtot -0.314800
  265         hn     10    bbb    H21    265 0.31480000   1.008000   ; qtot -0.000000
; residue   11 bbb rtp bbb q -0.0
  266         c3     11    bbb     C1    266 0.44180000  12.010000   ; qtot 0.441800
  267         h1     11    bbb     H1    267 -0.03530000   1.008000   ; qtot 0.406500
  268         h1     11    bbb     H2    268 -0.03530000   1.008000   ; qtot 0.371200
  269         c3     11    bbb     C2    269 -0.28250000  12.010000   ; qtot 0.088700
  270         h1     11    bbb     H3    270 0.15710000   1.008000   ; qtot 0.245800
  271         h1     11    bbb     H4    271 0.15710000   1.008000   ; qtot 0.402900
  272         n3     11    bbb     N1    272 -0.74090000  14.010000   ; qtot -0.338000
  273         c3     11    bbb     C3    273 0.51680000  12.010000   ; qtot 0.178800
  274         h1     11    bbb     H5    274 -0.05230000   1.008000   ; qtot 0.126500
  275         h1     11    bbb     H6    275 -0.05230000   1.008000   ; qtot 0.074200
  276         c3     11    bbb     C4    276 0.51680000  12.010000   ; qtot 0.591000
  277         h1     11    bbb     H7    277 -0.05230000   1.008000   ; qtot 0.538700
  278         h1     11    bbb     H8    278 -0.05230000   1.008000   ; qtot 0.486400
  279         c3     11    bbb     C5    279 -0.60390000  12.010000   ; qtot -0.117500
  280         hc     11    bbb     H9    280 0.16730000   1.008000   ; qtot 0.049800
  281         hc     11    bbb    H10    281 0.16730000   1.008000   ; qtot 0.217100
  282         c3     11    bbb     C6    282 -0.60390000  12.010000   ; qtot -0.386800
  283         hc     11    bbb    H11    283 0.16730000   1.008000   ; qtot -0.219500
  284         hc     11    bbb    H12    284 0.16730000   1.008000   ; qtot -0.052200
  285          c     11    bbb     C7    285 0.72110000  12.010000   ; qtot 0.668900
  286          c     11    bbb     C8    286 0.72110000  12.010000   ; qtot 1.390000
  287          o     11    bbb     O1    287 -0.61950000  16.000000   ; qtot 0.770500
  288          o     11    bbb     O2    288 -0.61950000  16.000000   ; qtot 0.151000
  289          n     11    bbb     N4    289 -0.46580000  14.010000   ; qtot -0.314800
  290         hn     11    bbb    H21    290 0.31480000   1.008000   ; qtot -0.000000
; residue   12 bbb rtp bbb q -0.0
  291         c3     12    bbb     C1    291 0.44180000  12.010000   ; qtot 0.441800
  292         h1     12    bbb     H1    292 -0.03530000   1.008000   ; qtot 0.406500
  293         h1     12    bbb     H2    293 -0.03530000   1.008000   ; qtot 0.371200
  294         c3     12    bbb     C2    294 -0.28250000  12.010000   ; qtot 0.088700
  295         h1     12    bbb     H3    295 0.15710000   1.008000   ; qtot 0.245800
  296         h1     12    bbb     H4    296 0.15710000   1.008000   ; qtot 0.402900
  297         n3     12    bbb     N1    297 -0.74090000  14.010000   ; qtot -0.338000
  298         c3     12    bbb     C3    298 0.51680000  12.010000   ; qtot 0.178800
  299         h1     12    bbb     H5    299 -0.05230000   1.008000   ; qtot 0.126500
  300         h1     12    bbb     H6    300 -0.05230000   1.008000   ; qtot 0.074200
  301         c3     12    bbb     C4    301 0.51680000  12.010000   ; qtot 0.591000
  302         h1     12    bbb     H7    302 -0.05230000   1.008000   ; qtot 0.538700
  303         h1     12    bbb     H8    303 -0.05230000   1.008000   ; qtot 0.486400
  304         c3     12    bbb     C5    304 -0.60390000  12.010000   ; qtot -0.117500
  305         hc     12    bbb     H9    305 0.16730000   1.008000   ; qtot 0.049800
  306         hc     12    bbb    H10    306 0.16730000   1.008000   ; qtot 0.217100
  307         c3     12    bbb     C6    307 -0.60390000  12.010000   ; qtot -0.386800
  308         hc     12    bbb    H11    308 0.16730000   1.008000   ; qtot -0.219500
  309         hc     12    bbb    H12    309 0.16730000   1.008000   ; qtot -0.052200
  310          c     12    bbb     C7    310 0.72110000  12.010000   ; qtot 0.668900
  311          c     12    bbb     C8    311 0.72110000  12.010000   ; qtot 1.390000
  312          o     12    bbb     O1    312 -0.61950000  16.000000   ; qtot 0.770500
  313          o     12    bbb     O2    313 -0.61950000  16.000000   ; qtot 0.151000
  314          n     12    bbb     N4    314 -0.46580000  14.010000   ; qtot -0.314800
  315         hn     12    bbb    H21    315 0.31480000   1.008000   ; qtot -0.000000
; residue   13 bbb rtp bbb q -0.0
  316         c3     13    bbb     C1    316 0.44180000  12.010000   ; qtot 0.441800
  317         h1     13    bbb     H1    317 -0.03530000   1.008000   ; qtot 0.406500
  318         h1     13    bbb     H2    318 -0.03530000   1.008000   ; qtot 0.371200
  319         c3     13    bbb     C2    319 -0.28250000  12.010000   ; qtot 0.088700
  320         h1     13    bbb     H3    320 0.15710000   1.008000   ; qtot 0.245800
  321         h1     13    bbb     H4    321 0.15710000   1.008000   ; qtot 0.402900
  322         n3     13    bbb     N1    322 -0.74090000  14.010000   ; qtot -0.338000
  323         c3     13    bbb     C3    323 0.51680000  12.010000   ; qtot 0.178800
  324         h1     13    bbb     H5    324 -0.05230000   1.008000   ; qtot 0.126500
  325         h1     13    bbb     H6    325 -0.05230000   1.008000   ; qtot 0.074200
  326         c3     13    bbb     C4    326 0.51680000  12.010000   ; qtot 0.591000
  327         h1     13    bbb     H7    327 -0.05230000   1.008000   ; qtot 0.538700
  328         h1     13    bbb     H8    328 -0.05230000   1.008000   ; qtot 0.486400
  329         c3     13    bbb     C5    329 -0.60390000  12.010000   ; qtot -0.117500
  330         hc     13    bbb     H9    330 0.16730000   1.008000   ; qtot 0.049800
  331         hc     13    bbb    H10    331 0.16730000   1.008000   ; qtot 0.217100
  332         c3     13    bbb     C6    332 -0.60390000  12.010000   ; qtot -0.386800
  333         hc     13    bbb    H11    333 0.16730000   1.008000   ; qtot -0.219500
  334         hc     13    bbb    H12    334 0.16730000   1.008000   ; qtot -0.052200
  335          c     13    bbb     C7    335 0.72110000  12.010000   ; qtot 0.668900
  336          c     13    bbb     C8    336 0.72110000  12.010000   ; qtot 1.390000
  337          o     13    bbb     O1    337 -0.61950000  16.000000   ; qtot 0.770500
  338          o     13    bbb     O2    338 -0.61950000  16.000000   ; qtot 0.151000
  339          n     13    bbb     N4    339 -0.46580000  14.010000   ; qtot -0.314800
  340         hn     13    bbb    H21    340 0.31480000   1.008000   ; qtot -0.000000
; residue   14 bbb rtp bbb q -0.0
  341         c3     14    bbb     C1    341 0.44180000  12.010000   ; qtot 0.441800
  342         h1     14    bbb     H1    342 -0.03530000   1.008000   ; qtot 0.406500
  343         h1     14    bbb     H2    343 -0.03530000   1.008000   ; qtot 0.371200
  344         c3     14    bbb     C2    344 -0.28250000  12.010000   ; qtot 0.088700
  345         h1     14    bbb     H3    345 0.15710000   1.008000   ; qtot 0.245800
  346         h1     14    bbb     H4    346 0.15710000   1.008000   ; qtot 0.402900
  347         n3     14    bbb     N1    347 -0.74090000  14.010000   ; qtot -0.338000
  348         c3     14    bbb     C3    348 0.51680000  12.010000   ; qtot 0.178800
  349         h1     14    bbb     H5    349 -0.05230000   1.008000   ; qtot 0.126500
  350         h1     14    bbb     H6    350 -0.05230000   1.008000   ; qtot 0.074200
  351         c3     14    bbb     C4    351 0.51680000  12.010000   ; qtot 0.591000
  352         h1     14    bbb     H7    352 -0.05230000   1.008000   ; qtot 0.538700
  353         h1     14    bbb     H8    353 -0.05230000   1.008000   ; qtot 0.486400
  354         c3     14    bbb     C5    354 -0.60390000  12.010000   ; qtot -0.117500
  355         hc     14    bbb     H9    355 0.16730000   1.008000   ; qtot 0.049800
  356         hc     14    bbb    H10    356 0.16730000   1.008000   ; qtot 0.217100
  357         c3     14    bbb     C6    357 -0.60390000  12.010000   ; qtot -0.386800
  358         hc     14    bbb    H11    358 0.16730000   1.008000   ; qtot -0.219500
  359         hc     14    bbb    H12    359 0.16730000   1.008000   ; qtot -0.052200
  360          c     14    bbb     C7    360 0.72110000  12.010000   ; qtot 0.668900
  361          c     14    bbb     C8    361 0.72110000  12.010000   ; qtot 1.390000
  362          o     14    bbb     O1    362 -0.61950000  16.000000   ; qtot 0.770500
  363          o     14    bbb     O2    363 -0.61950000  16.000000   ; qtot 0.151000
  364          n     14    bbb     N4    364 -0.46580000  14.010000   ; qtot -0.314800
  365         hn     14    bbb    H21    365 0.31480000   1.008000   ; qtot -0.000000
; residue   15 bbb rtp bbb q -0.0
  366         c3     15    bbb     C1    366 0.44180000  12.010000   ; qtot 0.441800
  367         h1     15    bbb     H1    367 -0.03530000   1.008000   ; qtot 0.406500
  368         h1     15    bbb     H2    368 -0.03530000   1.008000   ; qtot 0.371200
  369         c3     15    bbb     C2    369 -0.28250000  12.010000   ; qtot 0.088700
  370         h1     15    bbb     H3    370 0.15710000   1.008000   ; qtot 0.245800
  371         h1     15    bbb     H4    371 0.15710000   1.008000   ; qtot 0.402900
  372         n3     15    bbb     N1    372 -0.74090000  14.010000   ; qtot -0.338000
  373         c3     15    bbb     C3    373 0.51680000  12.010000   ; qtot 0.178800
  374         h1     15    bbb     H5    374 -0.05230000   1.008000   ; qtot 0.126500
  375         h1     15    bbb     H6    375 -0.05230000   1.008000   ; qtot 0.074200
  376         c3     15    bbb     C4    376 0.51680000  12.010000   ; qtot 0.591000
  377         h1     15    bbb     H7    377 -0.05230000   1.008000   ; qtot 0.538700
  378         h1     15    bbb     H8    378 -0.05230000   1.008000   ; qtot 0.486400
  379         c3     15    bbb     C5    379 -0.60390000  12.010000   ; qtot -0.117500
  380         hc     15    bbb     H9    380 0.16730000   1.008000   ; qtot 0.049800
  381         hc     15    bbb    H10    381 0.16730000   1.008000   ; qtot 0.217100
  382         c3     15    bbb     C6    382 -0.60390000  12.010000   ; qtot -0.386800
  383         hc     15    bbb    H11    383 0.16730000   1.008000   ; qtot -0.219500
  384         hc     15    bbb    H12    384 0.16730000   1.008000   ; qtot -0.052200
  385          c     15    bbb     C7    385 0.72110000  12.010000   ; qtot 0.668900
  386          c     15    bbb     C8    386 0.72110000  12.010000   ; qtot 1.390000
  387          o     15    bbb     O1    387 -0.61950000  16.000000   ; qtot 0.770500
  388          o     15    bbb     O2    388 -0.61950000  16.000000   ; qtot 0.151000
  389          n     15    bbb     N4    389 -0.46580000  14.010000   ; qtot -0.314800
  390         hn     15    bbb    H21    390 0.31480000   1.008000   ; qtot -0.000000
; residue   16 bbb rtp bbb q -0.0
  391         c3     16    bbb     C1    391 0.44180000  12.010000   ; qtot 0.441800
  392         h1     16    bbb     H1    392 -0.03530000   1.008000   ; qtot 0.406500
  393         h1     16    bbb     H2    393 -0.03530000   1.008000   ; qtot 0.371200
  394         c3     16    bbb     C2    394 -0.28250000  12.010000   ; qtot 0.088700
  395         h1     16    bbb     H3    395 0.15710000   1.008000   ; qtot 0.245800
  396         h1     16    bbb     H4    396 0.15710000   1.008000   ; qtot 0.402900
  397         n3     16    bbb     N1    397 -0.74090000  14.010000   ; qtot -0.338000
  398         c3     16    bbb     C3    398 0.51680000  12.010000   ; qtot 0.178800
  399         h1     16    bbb     H5    399 -0.05230000   1.008000   ; qtot 0.126500
  400         h1     16    bbb     H6    400 -0.05230000   1.008000   ; qtot 0.074200
  401         c3     16    bbb     C4    401 0.51680000  12.010000   ; qtot 0.591000
  402         h1     16    bbb     H7    402 -0.05230000   1.008000   ; qtot 0.538700
  403         h1     16    bbb     H8    403 -0.05230000   1.008000   ; qtot 0.486400
  404         c3     16    bbb     C5    404 -0.60390000  12.010000   ; qtot -0.117500
  405         hc     16    bbb     H9    405 0.16730000   1.008000   ; qtot 0.049800
  406         hc     16    bbb    H10    406 0.16730000   1.008000   ; qtot 0.217100
  407         c3     16    bbb     C6    407 -0.60390000  12.010000   ; qtot -0.386800
  408         hc     16    bbb    H11    408 0.16730000   1.008000   ; qtot -0.219500
  409         hc     16    bbb    H12    409 0.16730000   1.008000   ; qtot -0.052200
  410          c     16    bbb     C7    410 0.72110000  12.010000   ; qtot 0.668900
  411          c     16    bbb     C8    411 0.72110000  12.010000   ; qtot 1.390000
  412          o     16    bbb     O1    412 -0.61950000  16.000000   ; qtot 0.770500
  413          o     16    bbb     O2    413 -0.61950000  16.000000   ; qtot 0.151000
  414          n     16    bbb     N4    414 -0.46580000  14.010000   ; qtot -0.314800
  415         hn     16    bbb    H21    415 0.31480000   1.008000   ; qtot -0.000000
; residue   17 bbb rtp bbb q -0.0
  416         c3     17    bbb     C1    416 0.44180000  12.010000   ; qtot 0.441800
  417         h1     17    bbb     H1    417 -0.03530000   1.008000   ; qtot 0.406500
  418         h1     17    bbb     H2    418 -0.03530000   1.008000   ; qtot 0.371200
  419         c3     17    bbb     C2    419 -0.28250000  12.010000   ; qtot 0.088700
  420         h1     17    bbb     H3    420 0.15710000   1.008000   ; qtot 0.245800
  421         h1     17    bbb     H4    421 0.15710000   1.008000   ; qtot 0.402900
  422         n3     17    bbb     N1    422 -0.74090000  14.010000   ; qtot -0.338000
  423         c3     17    bbb     C3    423 0.51680000  12.010000   ; qtot 0.178800
  424         h1     17    bbb     H5    424 -0.05230000   1.008000   ; qtot 0.126500
  425         h1     17    bbb     H6    425 -0.05230000   1.008000   ; qtot 0.074200
  426         c3     17    bbb     C4    426 0.51680000  12.010000   ; qtot 0.591000
  427         h1     17    bbb     H7    427 -0.05230000   1.008000   ; qtot 0.538700
  428         h1     17    bbb     H8    428 -0.05230000   1.008000   ; qtot 0.486400
  429         c3     17    bbb     C5    429 -0.60390000  12.010000   ; qtot -0.117500
  430         hc     17    bbb     H9    430 0.16730000   1.008000   ; qtot 0.049800
  431         hc     17    bbb    H10    431 0.16730000   1.008000   ; qtot 0.217100
  432         c3     17    bbb     C6    432 -0.60390000  12.010000   ; qtot -0.386800
  433         hc     17    bbb    H11    433 0.16730000   1.008000   ; qtot -0.219500
  434         hc     17    bbb    H12    434 0.16730000   1.008000   ; qtot -0.052200
  435          c     17    bbb     C7    435 0.72110000  12.010000   ; qtot 0.668900
  436          c     17    bbb     C8    436 0.72110000  12.010000   ; qtot 1.390000
  437          o     17    bbb     O1    437 -0.61950000  16.000000   ; qtot 0.770500
  438          o     17    bbb     O2    438 -0.61950000  16.000000   ; qtot 0.151000
  439          n     17    bbb     N4    439 -0.46580000  14.010000   ; qtot -0.314800
  440         hn     17    bbb    H21    440 0.31480000   1.008000   ; qtot -0.000000
; residue   18 bbb rtp bbb q -0.0
  441         c3     18    bbb     C1    441 0.44180000  12.010000   ; qtot 0.441800
  442         h1     18    bbb     H1    442 -0.03530000   1.008000   ; qtot 0.406500
  443         h1     18    bbb     H2    443 -0.03530000   1.008000   ; qtot 0.371200
  444         c3     18    bbb     C2    444 -0.28250000  12.010000   ; qtot 0.088700
  445         h1     18    bbb     H3    445 0.15710000   1.008000   ; qtot 0.245800
  446         h1     18    bbb     H4    446 0.15710000   1.008000   ; qtot 0.402900
  447         n3     18    bbb     N1    447 -0.74090000  14.010000   ; qtot -0.338000
  448         c3     18    bbb     C3    448 0.51680000  12.010000   ; qtot 0.178800
  449         h1     18    bbb     H5    449 -0.05230000   1.008000   ; qtot 0.126500
  450         h1     18    bbb     H6    450 -0.05230000   1.008000   ; qtot 0.074200
  451         c3     18    bbb     C4    451 0.51680000  12.010000   ; qtot 0.591000
  452         h1     18    bbb     H7    452 -0.05230000   1.008000   ; qtot 0.538700
  453         h1     18    bbb     H8    453 -0.05230000   1.008000   ; qtot 0.486400
  454         c3     18    bbb     C5    454 -0.60390000  12.010000   ; qtot -0.117500
  455         hc     18    bbb     H9    455 0.16730000   1.008000   ; qtot 0.049800
  456         hc     18    bbb    H10    456 0.16730000   1.008000   ; qtot 0.217100
  457         c3     18    bbb     C6    457 -0.60390000  12.010000   ; qtot -0.386800
  458         hc     18    bbb    H11    458 0.16730000   1.008000   ; qtot -0.219500
  459         hc     18    bbb    H12    459 0.16730000   1.008000   ; qtot -0.052200
  460          c     18    bbb     C7    460 0.72110000  12.010000   ; qtot 0.668900
  461          c     18    bbb     C8    461 0.72110000  12.010000   ; qtot 1.390000
  462          o     18    bbb     O1    462 -0.61950000  16.000000   ; qtot 0.770500
  463          o     18    bbb     O2    463 -0.61950000  16.000000   ; qtot 0.151000
  464          n     18    bbb     N4    464 -0.46580000  14.010000   ; qtot -0.314800
  465         hn     18    bbb    H21    465 0.31480000   1.008000   ; qtot -0.000000
; residue   19 bbb rtp bbb q -0.0
  466         c3     19    bbb     C1    466 0.44180000  12.010000   ; qtot 0.441800
  467         h1     19    bbb     H1    467 -0.03530000   1.008000   ; qtot 0.406500
  468         h1     19    bbb     H2    468 -0.03530000   1.008000   ; qtot 0.371200
  469         c3     19    bbb     C2    469 -0.28250000  12.010000   ; qtot 0.088700
  470         h1     19    bbb     H3    470 0.15710000   1.008000   ; qtot 0.245800
  471         h1     19    bbb     H4    471 0.15710000   1.008000   ; qtot 0.402900
  472         n3     19    bbb     N1    472 -0.74090000  14.010000   ; qtot -0.338000
  473         c3     19    bbb     C3    473 0.51680000  12.010000   ; qtot 0.178800
  474         h1     19    bbb     H5    474 -0.05230000   1.008000   ; qtot 0.126500
  475         h1     19    bbb     H6    475 -0.05230000   1.008000   ; qtot 0.074200
  476         c3     19    bbb     C4    476 0.51680000  12.010000   ; qtot 0.591000
  477         h1     19    bbb     H7    477 -0.05230000   1.008000   ; qtot 0.538700
  478         h1     19    bbb     H8    478 -0.05230000   1.008000   ; qtot 0.486400
  479         c3     19    bbb     C5    479 -0.60390000  12.010000   ; qtot -0.117500
  480         hc     19    bbb     H9    480 0.16730000   1.008000   ; qtot 0.049800
  481         hc     19    bbb    H10    481 0.16730000   1.008000   ; qtot 0.217100
  482         c3     19    bbb     C6    482 -0.60390000  12.010000   ; qtot -0.386800
  483         hc     19    bbb    H11    483 0.16730000   1.008000   ; qtot -0.219500
  484         hc     19    bbb    H12    484 0.16730000   1.008000   ; qtot -0.052200
  485          c     19    bbb     C7    485 0.72110000  12.010000   ; qtot 0.668900
  486          c     19    bbb     C8    486 0.72110000  12.010000   ; qtot 1.390000
  487          o     19    bbb     O1    487 -0.61950000  16.000000   ; qtot 0.770500
  488          o     19    bbb     O2    488 -0.61950000  16.000000   ; qtot 0.151000
  489          n     19    bbb     N4    489 -0.46580000  14.010000   ; qtot -0.314800
  490         hn     19    bbb    H21    490 0.31480000   1.008000   ; qtot -0.000000
; residue   20 bbb rtp bbb q -0.0
  491         c3     20    bbb     C1    491 0.44180000  12.010000   ; qtot 0.441800
  492         h1     20    bbb     H1    492 -0.03530000   1.008000   ; qtot 0.406500
  493         h1     20    bbb     H2    493 -0.03530000   1.008000   ; qtot 0.371200
  494         c3     20    bbb     C2    494 -0.28250000  12.010000   ; qtot 0.088700
  495         h1     20    bbb     H3    495 0.15710000   1.008000   ; qtot 0.245800
  496         h1     20    bbb     H4    496 0.15710000   1.008000   ; qtot 0.402900
  497         n3     20    bbb     N1    497 -0.74090000  14.010000   ; qtot -0.338000
  498         c3     20    bbb     C3    498 0.51680000  12.010000   ; qtot 0.178800
  499         h1     20    bbb     H5    499 -0.05230000   1.008000   ; qtot 0.126500
  500         h1     20    bbb     H6    500 -0.05230000   1.008000   ; qtot 0.074200
  501         c3     20    bbb     C4    501 0.51680000  12.010000   ; qtot 0.591000
  502         h1     20    bbb     H7    502 -0.05230000   1.008000   ; qtot 0.538700
  503         h1     20    bbb     H8    503 -0.05230000   1.008000   ; qtot 0.486400
  504         c3     20    bbb     C5    504 -0.60390000  12.010000   ; qtot -0.117500
  505         hc     20    bbb     H9    505 0.16730000   1.008000   ; qtot 0.049800
  506         hc     20    bbb    H10    506 0.16730000   1.008000   ; qtot 0.217100
  507         c3     20    bbb     C6    507 -0.60390000  12.010000   ; qtot -0.386800
  508         hc     20    bbb    H11    508 0.16730000   1.008000   ; qtot -0.219500
  509         hc     20    bbb    H12    509 0.16730000   1.008000   ; qtot -0.052200
  510          c     20    bbb     C7    510 0.72110000  12.010000   ; qtot 0.668900
  511          c     20    bbb     C8    511 0.72110000  12.010000   ; qtot 1.390000
  512          o     20    bbb     O1    512 -0.61950000  16.000000   ; qtot 0.770500
  513          o     20    bbb     O2    513 -0.61950000  16.000000   ; qtot 0.151000
  514          n     20    bbb     N4    514 -0.46580000  14.010000   ; qtot -0.314800
  515         hn     20    bbb    H21    515 0.31480000   1.008000   ; qtot -0.000000
; residue   21 bbb rtp bbb q -0.0
  516         c3     21    bbb     C1    516 0.44180000  12.010000   ; qtot 0.441800
  517         h1     21    bbb     H1    517 -0.03530000   1.008000   ; qtot 0.406500
  518         h1     21    bbb     H2    518 -0.03530000   1.008000   ; qtot 0.371200
  519         c3     21    bbb     C2    519 -0.28250000  12.010000   ; qtot 0.088700
  520         h1     21    bbb     H3    520 0.15710000   1.008000   ; qtot 0.245800
  521         h1     21    bbb     H4    521 0.15710000   1.008000   ; qtot 0.402900
  522         n3     21    bbb     N1    522 -0.74090000  14.010000   ; qtot -0.338000
  523         c3     21    bbb     C3    523 0.51680000  12.010000   ; qtot 0.178800
  524         h1     21    bbb     H5    524 -0.05230000   1.008000   ; qtot 0.126500
  525         h1     21    bbb     H6    525 -0.05230000   1.008000   ; qtot 0.074200
  526         c3     21    bbb     C4    526 0.51680000  12.010000   ; qtot 0.591000
  527         h1     21    bbb     H7    527 -0.05230000   1.008000   ; qtot 0.538700
  528         h1     21    bbb     H8    528 -0.05230000   1.008000   ; qtot 0.486400
  529         c3     21    bbb     C5    529 -0.60390000  12.010000   ; qtot -0.117500
  530         hc     21    bbb     H9    530 0.16730000   1.008000   ; qtot 0.049800
  531         hc     21    bbb    H10    531 0.16730000   1.008000   ; qtot 0.217100
  532         c3     21    bbb     C6    532 -0.60390000  12.010000   ; qtot -0.386800
  533         hc     21    bbb    H11    533 0.16730000   1.008000   ; qtot -0.219500
  534         hc     21    bbb    H12    534 0.16730000   1.008000   ; qtot -0.052200
  535          c     21    bbb     C7    535 0.72110000  12.010000   ; qtot 0.668900
  536          c     21    bbb     C8    536 0.72110000  12.010000   ; qtot 1.390000
  537          o     21    bbb     O1    537 -0.61950000  16.000000   ; qtot 0.770500
  538          o     21    bbb     O2    538 -0.61950000  16.000000   ; qtot 0.151000
  539          n     21    bbb     N4    539 -0.46580000  14.010000   ; qtot -0.314800
  540         hn     21    bbb    H21    540 0.31480000   1.008000   ; qtot -0.000000
; residue   22 bbb rtp bbb q -0.0
  541         c3     22    bbb     C1    541 0.44180000  12.010000   ; qtot 0.441800
  542         h1     22    bbb     H1    542 -0.03530000   1.008000   ; qtot 0.406500
  543         h1     22    bbb     H2    543 -0.03530000   1.008000   ; qtot 0.371200
  544         c3     22    bbb     C2    544 -0.28250000  12.010000   ; qtot 0.088700
  545         h1     22    bbb     H3    545 0.15710000   1.008000   ; qtot 0.245800
  546         h1     22    bbb     H4    546 0.15710000   1.008000   ; qtot 0.402900
  547         n3     22    bbb     N1    547 -0.74090000  14.010000   ; qtot -0.338000
  548         c3     22    bbb     C3    548 0.51680000  12.010000   ; qtot 0.178800
  549         h1     22    bbb     H5    549 -0.05230000   1.008000   ; qtot 0.126500
  550         h1     22    bbb     H6    550 -0.05230000   1.008000   ; qtot 0.074200
  551         c3     22    bbb     C4    551 0.51680000  12.010000   ; qtot 0.591000
  552         h1     22    bbb     H7    552 -0.05230000   1.008000   ; qtot 0.538700
  553         h1     22    bbb     H8    553 -0.05230000   1.008000   ; qtot 0.486400
  554         c3     22    bbb     C5    554 -0.60390000  12.010000   ; qtot -0.117500
  555         hc     22    bbb     H9    555 0.16730000   1.008000   ; qtot 0.049800
  556         hc     22    bbb    H10    556 0.16730000   1.008000   ; qtot 0.217100
  557         c3     22    bbb     C6    557 -0.60390000  12.010000   ; qtot -0.386800
  558         hc     22    bbb    H11    558 0.16730000   1.008000   ; qtot -0.219500
  559         hc     22    bbb    H12    559 0.16730000   1.008000   ; qtot -0.052200
  560          c     22    bbb     C7    560 0.72110000  12.010000   ; qtot 0.668900
  561          c     22    bbb     C8    561 0.72110000  12.010000   ; qtot 1.390000
  562          o     22    bbb     O1    562 -0.61950000  16.000000   ; qtot 0.770500
  563          o     22    bbb     O2    563 -0.61950000  16.000000   ; qtot 0.151000
  564          n     22    bbb     N4    564 -0.46580000  14.010000   ; qtot -0.314800
  565         hn     22    bbb    H21    565 0.31480000   1.008000   ; qtot -0.000000
; residue   23 bbb rtp bbb q -0.0
  566         c3     23    bbb     C1    566 0.44180000  12.010000   ; qtot 0.441800
  567         h1     23    bbb     H1    567 -0.03530000   1.008000   ; qtot 0.406500
  568         h1     23    bbb     H2    568 -0.03530000   1.008000   ; qtot 0.371200
  569         c3     23    bbb     C2    569 -0.28250000  12.010000   ; qtot 0.088700
  570         h1     23    bbb     H3    570 0.15710000   1.008000   ; qtot 0.245800
  571         h1     23    bbb     H4    571 0.15710000   1.008000   ; qtot 0.402900
  572         n3     23    bbb     N1    572 -0.74090000  14.010000   ; qtot -0.338000
  573         c3     23    bbb     C3    573 0.51680000  12.010000   ; qtot 0.178800
  574         h1     23    bbb     H5    574 -0.05230000   1.008000   ; qtot 0.126500
  575         h1     23    bbb     H6    575 -0.05230000   1.008000   ; qtot 0.074200
  576         c3     23    bbb     C4    576 0.51680000  12.010000   ; qtot 0.591000
  577         h1     23    bbb     H7    577 -0.05230000   1.008000   ; qtot 0.538700
  578         h1     23    bbb     H8    578 -0.05230000   1.008000   ; qtot 0.486400
  579         c3     23    bbb     C5    579 -0.60390000  12.010000   ; qtot -0.117500
  580         hc     23    bbb     H9    580 0.16730000   1.008000   ; qtot 0.049800
  581         hc     23    bbb    H10    581 0.16730000   1.008000   ; qtot 0.217100
  582         c3     23    bbb     C6    582 -0.60390000  12.010000   ; qtot -0.386800
  583         hc     23    bbb    H11    583 0.16730000   1.008000   ; qtot -0.219500
  584         hc     23    bbb    H12    584 0.16730000   1.008000   ; qtot -0.052200
  585          c     23    bbb     C7    585 0.72110000  12.010000   ; qtot 0.668900
  586          c     23    bbb     C8    586 0.72110000  12.010000   ; qtot 1.390000
  587          o     23    bbb     O1    587 -0.61950000  16.000000   ; qtot 0.770500
  588          o     23    bbb     O2    588 -0.61950000  16.000000   ; qtot 0.151000
  589          n     23    bbb     N4    589 -0.46580000  14.010000   ; qtot -0.314800
  590         hn     23    bbb    H21    590 0.31480000   1.008000   ; qtot -0.000000
; residue   24 bbb rtp bbb q -0.0
  591         c3     24    bbb     C1    591 0.44180000  12.010000   ; qtot 0.441800
  592         h1     24    bbb     H1    592 -0.03530000   1.008000   ; qtot 0.406500
  593         h1     24    bbb     H2    593 -0.03530000   1.008000   ; qtot 0.371200
  594         c3     24    bbb     C2    594 -0.28250000  12.010000   ; qtot 0.088700
  595         h1     24    bbb     H3    595 0.15710000   1.008000   ; qtot 0.245800
  596         h1     24    bbb     H4    596 0.15710000   1.008000   ; qtot 0.402900
  597         n3     24    bbb     N1    597 -0.74090000  14.010000   ; qtot -0.338000
  598         c3     24    bbb     C3    598 0.51680000  12.010000   ; qtot 0.178800
  599         h1     24    bbb     H5    599 -0.05230000   1.008000   ; qtot 0.126500
  600         h1     24    bbb     H6    600 -0.05230000   1.008000   ; qtot 0.074200
  601         c3     24    bbb     C4    601 0.51680000  12.010000   ; qtot 0.591000
  602         h1     24    bbb     H7    602 -0.05230000   1.008000   ; qtot 0.538700
  603         h1     24    bbb     H8    603 -0.05230000   1.008000   ; qtot 0.486400
  604         c3     24    bbb     C5    604 -0.60390000  12.010000   ; qtot -0.117500
  605         hc     24    bbb     H9    605 0.16730000   1.008000   ; qtot 0.049800
  606         hc     24    bbb    H10    606 0.16730000   1.008000   ; qtot 0.217100
  607         c3     24    bbb     C6    607 -0.60390000  12.010000   ; qtot -0.386800
  608         hc     24    bbb    H11    608 0.16730000   1.008000   ; qtot -0.219500
  609         hc     24    bbb    H12    609 0.16730000   1.008000   ; qtot -0.052200
  610          c     24    bbb     C7    610 0.72110000  12.010000   ; qtot 0.668900
  611          c     24    bbb     C8    611 0.72110000  12.010000   ; qtot 1.390000
  612          o     24    bbb     O1    612 -0.61950000  16.000000   ; qtot 0.770500
  613          o     24    bbb     O2    613 -0.61950000  16.000000   ; qtot 0.151000
  614          n     24    bbb     N4    614 -0.46580000  14.010000   ; qtot -0.314800
  615         hn     24    bbb    H21    615 0.31480000   1.008000   ; qtot -0.000000
; residue   25 bbb rtp bbb q -0.0
  616         c3     25    bbb     C1    616 0.44180000  12.010000   ; qtot 0.441800
  617         h1     25    bbb     H1    617 -0.03530000   1.008000   ; qtot 0.406500
  618         h1     25    bbb     H2    618 -0.03530000   1.008000   ; qtot 0.371200
  619         c3     25    bbb     C2    619 -0.28250000  12.010000   ; qtot 0.088700
  620         h1     25    bbb     H3    620 0.15710000   1.008000   ; qtot 0.245800
  621         h1     25    bbb     H4    621 0.15710000   1.008000   ; qtot 0.402900
  622         n3     25    bbb     N1    622 -0.74090000  14.010000   ; qtot -0.338000
  623         c3     25    bbb     C3    623 0.51680000  12.010000   ; qtot 0.178800
  624         h1     25    bbb     H5    624 -0.05230000   1.008000   ; qtot 0.126500
  625         h1     25    bbb     H6    625 -0.05230000   1.008000   ; qtot 0.074200
  626         c3     25    bbb     C4    626 0.51680000  12.010000   ; qtot 0.591000
  627         h1     25    bbb     H7    627 -0.05230000   1.008000   ; qtot 0.538700
  628         h1     25    bbb     H8    628 -0.05230000   1.008000   ; qtot 0.486400
  629         c3     25    bbb     C5    629 -0.60390000  12.010000   ; qtot -0.117500
  630         hc     25    bbb     H9    630 0.16730000   1.008000   ; qtot 0.049800
  631         hc     25    bbb    H10    631 0.16730000   1.008000   ; qtot 0.217100
  632         c3     25    bbb     C6    632 -0.60390000  12.010000   ; qtot -0.386800
  633         hc     25    bbb    H11    633 0.16730000   1.008000   ; qtot -0.219500
  634         hc     25    bbb    H12    634 0.16730000   1.008000   ; qtot -0.052200
  635          c     25    bbb     C7    635 0.72110000  12.010000   ; qtot 0.668900
  636          c     25    bbb     C8    636 0.72110000  12.010000   ; qtot 1.390000
  637          o     25    bbb     O1    637 -0.61950000  16.000000   ; qtot 0.770500
  638          o     25    bbb     O2    638 -0.61950000  16.000000   ; qtot 0.151000
  639          n     25    bbb     N4    639 -0.46580000  14.010000   ; qtot -0.314800
  640         hn     25    bbb    H21    640 0.31480000   1.008000   ; qtot -0.000000
; residue   26 bbb rtp bbb q -0.0
  641         c3     26    bbb     C1    641 0.44180000  12.010000   ; qtot 0.441800
  642         h1     26    bbb     H1    642 -0.03530000   1.008000   ; qtot 0.406500
  643         h1     26    bbb     H2    643 -0.03530000   1.008000   ; qtot 0.371200
  644         c3     26    bbb     C2    644 -0.28250000  12.010000   ; qtot 0.088700
  645         h1     26    bbb     H3    645 0.15710000   1.008000   ; qtot 0.245800
  646         h1     26    bbb     H4    646 0.15710000   1.008000   ; qtot 0.402900
  647         n3     26    bbb     N1    647 -0.74090000  14.010000   ; qtot -0.338000
  648         c3     26    bbb     C3    648 0.51680000  12.010000   ; qtot 0.178800
  649         h1     26    bbb     H5    649 -0.05230000   1.008000   ; qtot 0.126500
  650         h1     26    bbb     H6    650 -0.05230000   1.008000   ; qtot 0.074200
  651         c3     26    bbb     C4    651 0.51680000  12.010000   ; qtot 0.591000
  652         h1     26    bbb     H7    652 -0.05230000   1.008000   ; qtot 0.538700
  653         h1     26    bbb     H8    653 -0.05230000   1.008000   ; qtot 0.486400
  654         c3     26    bbb     C5    654 -0.60390000  12.010000   ; qtot -0.117500
  655         hc     26    bbb     H9    655 0.16730000   1.008000   ; qtot 0.049800
  656         hc     26    bbb    H10    656 0.16730000   1.008000   ; qtot 0.217100
  657         c3     26    bbb     C6    657 -0.60390000  12.010000   ; qtot -0.386800
  658         hc     26    bbb    H11    658 0.16730000   1.008000   ; qtot -0.219500
  659         hc     26    bbb    H12    659 0.16730000   1.008000   ; qtot -0.052200
  660          c     26    bbb     C7    660 0.72110000  12.010000   ; qtot 0.668900
  661          c     26    bbb     C8    661 0.72110000  12.010000   ; qtot 1.390000
  662          o     26    bbb     O1    662 -0.61950000  16.000000   ; qtot 0.770500
  663          o     26    bbb     O2    663 -0.61950000  16.000000   ; qtot 0.151000
  664          n     26    bbb     N4    664 -0.46580000  14.010000   ; qtot -0.314800
  665         hn     26    bbb    H21    665 0.31480000   1.008000   ; qtot -0.000000
; residue   27 bbb rtp bbb q -0.0
  666         c3     27    bbb     C1    666 0.44180000  12.010000   ; qtot 0.441800
  667         h1     27    bbb     H1    667 -0.03530000   1.008000   ; qtot 0.406500
  668         h1     27    bbb     H2    668 -0.03530000   1.008000   ; qtot 0.371200
  669         c3     27    bbb     C2    669 -0.28250000  12.010000   ; qtot 0.088700
  670         h1     27    bbb     H3    670 0.15710000   1.008000   ; qtot 0.245800
  671         h1     27    bbb     H4    671 0.15710000   1.008000   ; qtot 0.402900
  672         n3     27    bbb     N1    672 -0.74090000  14.010000   ; qtot -0.338000
  673         c3     27    bbb     C3    673 0.51680000  12.010000   ; qtot 0.178800
  674         h1     27    bbb     H5    674 -0.05230000   1.008000   ; qtot 0.126500
  675         h1     27    bbb     H6    675 -0.05230000   1.008000   ; qtot 0.074200
  676         c3     27    bbb     C4    676 0.51680000  12.010000   ; qtot 0.591000
  677         h1     27    bbb     H7    677 -0.05230000   1.008000   ; qtot 0.538700
  678         h1     27    bbb     H8    678 -0.05230000   1.008000   ; qtot 0.486400
  679         c3     27    bbb     C5    679 -0.60390000  12.010000   ; qtot -0.117500
  680         hc     27    bbb     H9    680 0.16730000   1.008000   ; qtot 0.049800
  681         hc     27    bbb    H10    681 0.16730000   1.008000   ; qtot 0.217100
  682         c3     27    bbb     C6    682 -0.60390000  12.010000   ; qtot -0.386800
  683         hc     27    bbb    H11    683 0.16730000   1.008000   ; qtot -0.219500
  684         hc     27    bbb    H12    684 0.16730000   1.008000   ; qtot -0.052200
  685          c     27    bbb     C7    685 0.72110000  12.010000   ; qtot 0.668900
  686          c     27    bbb     C8    686 0.72110000  12.010000   ; qtot 1.390000
  687          o     27    bbb     O1    687 -0.61950000  16.000000   ; qtot 0.770500
  688          o     27    bbb     O2    688 -0.61950000  16.000000   ; qtot 0.151000
  689          n     27    bbb     N4    689 -0.46580000  14.010000   ; qtot -0.314800
  690         hn     27    bbb    H21    690 0.31480000   1.008000   ; qtot -0.000000
; residue   28 bbb rtp bbb q -0.0
  691         c3     28    bbb     C1    691 0.44180000  12.010000   ; qtot 0.441800
  692         h1     28    bbb     H1    692 -0.03530000   1.008000   ; qtot 0.406500
  693         h1     28    bbb     H2    693 -0.03530000   1.008000   ; qtot 0.371200
  694         c3     28    bbb     C2    694 -0.28250000  12.010000   ; qtot 0.088700
  695         h1     28    bbb     H3    695 0.15710000   1.008000   ; qtot 0.245800
  696         h1     28    bbb     H4    696 0.15710000   1.008000   ; qtot 0.402900
  697         n3     28    bbb     N1    697 -0.74090000  14.010000   ; qtot -0.338000
  698         c3     28    bbb     C3    698 0.51680000  12.010000   ; qtot 0.178800
  699         h1     28    bbb     H5    699 -0.05230000   1.008000   ; qtot 0.126500
  700         h1     28    bbb     H6    700 -0.05230000   1.008000   ; qtot 0.074200
  701         c3     28    bbb     C4    701 0.51680000  12.010000   ; qtot 0.591000
  702         h1     28    bbb     H7    702 -0.05230000   1.008000   ; qtot 0.538700
  703         h1     28    bbb     H8    703 -0.05230000   1.008000   ; qtot 0.486400
  704         c3     28    bbb     C5    704 -0.60390000  12.010000   ; qtot -0.117500
  705         hc     28    bbb     H9    705 0.16730000   1.008000   ; qtot 0.049800
  706         hc     28    bbb    H10    706 0.16730000   1.008000   ; qtot 0.217100
  707         c3     28    bbb     C6    707 -0.60390000  12.010000   ; qtot -0.386800
  708         hc     28    bbb    H11    708 0.16730000   1.008000   ; qtot -0.219500
  709         hc     28    bbb    H12    709 0.16730000   1.008000   ; qtot -0.052200
  710          c     28    bbb     C7    710 0.72110000  12.010000   ; qtot 0.668900
  711          c     28    bbb     C8    711 0.72110000  12.010000   ; qtot 1.390000
  712          o     28    bbb     O1    712 -0.61950000  16.000000   ; qtot 0.770500
  713          o     28    bbb     O2    713 -0.61950000  16.000000   ; qtot 0.151000
  714          n     28    bbb     N4    714 -0.46580000  14.010000   ; qtot -0.314800
  715         hn     28    bbb    H21    715 0.31480000   1.008000   ; qtot -0.000000
; residue   29 bbb rtp bbb q -0.0
  716         c3     29    bbb     C1    716 0.44180000  12.010000   ; qtot 0.441800
  717         h1     29    bbb     H1    717 -0.03530000   1.008000   ; qtot 0.406500
  718         h1     29    bbb     H2    718 -0.03530000   1.008000   ; qtot 0.371200
  719         c3     29    bbb     C2    719 -0.28250000  12.010000   ; qtot 0.088700
  720         h1     29    bbb     H3    720 0.15710000   1.008000   ; qtot 0.245800
  721         h1     29    bbb     H4    721 0.15710000   1.008000   ; qtot 0.402900
  722         n3     29    bbb     N1    722 -0.74090000  14.010000   ; qtot -0.338000
  723         c3     29    bbb     C3    723 0.51680000  12.010000   ; qtot 0.178800
  724         h1     29    bbb     H5    724 -0.05230000   1.008000   ; qtot 0.126500
  725         h1     29    bbb     H6    725 -0.05230000   1.008000   ; qtot 0.074200
  726         c3     29    bbb     C4    726 0.51680000  12.010000   ; qtot 0.591000
  727         h1     29    bbb     H7    727 -0.05230000   1.008000   ; qtot 0.538700
  728         h1     29    bbb     H8    728 -0.05230000   1.008000   ; qtot 0.486400
  729         c3     29    bbb     C5    729 -0.60390000  12.010000   ; qtot -0.117500
  730         hc     29    bbb     H9    730 0.16730000   1.008000   ; qtot 0.049800
  731         hc     29    bbb    H10    731 0.16730000   1.008000   ; qtot 0.217100
  732         c3     29    bbb     C6    732 -0.60390000  12.010000   ; qtot -0.386800
  733         hc     29    bbb    H11    733 0.16730000   1.008000   ; qtot -0.219500
  734         hc     29    bbb    H12    734 0.16730000   1.008000   ; qtot -0.052200
  735          c     29    bbb     C7    735 0.72110000  12.010000   ; qtot 0.668900
  736          c     29    bbb     C8    736 0.72110000  12.010000   ; qtot 1.390000
  737          o     29    bbb     O1    737 -0.61950000  16.000000   ; qtot 0.770500
  738          o     29    bbb     O2    738 -0.61950000  16.000000   ; qtot 0.151000
  739          n     29    bbb     N4    739 -0.46580000  14.010000   ; qtot -0.314800
  740         hn     29    bbb    H21    740 0.31480000   1.008000   ; qtot -0.000000
; residue   30 ccc rtp ccc q -2.0
  741          n     30    ccc     N1    741 -0.63700000  14.010000   ; qtot -0.637000
  742         hn     30    ccc     H4    742 0.34234400   1.008000   ; qtot -0.294656
  743         c3     30    ccc     C3    743 0.01091100  12.010000   ; qtot -0.283745
  744         h1     30    ccc     H5    744 0.11190000   1.008000   ; qtot -0.171845
  745         c3     30    ccc     C4    745 -0.06161800  12.010000   ; qtot -0.233463
  746         h1     30    ccc     H6    746 0.11190000   1.008000   ; qtot -0.121563
  747         h1     30    ccc     H7    747 0.11248000   1.008000   ; qtot -0.009083
  748         h1     30    ccc     H8    748 0.11248000   1.008000   ; qtot 0.103397
  749         n3     30    ccc     N2    749 -0.49292700  14.010000   ; qtot -0.389530
  750         c3     30    ccc     C5    750 0.00117700  12.010000   ; qtot -0.388353
  751         c3     30    ccc     C6    751 0.00117700  12.010000   ; qtot -0.387176
  752         h1     30    ccc     H9    752 0.05345200   1.008000   ; qtot -0.333724
  753         c3     30    ccc     C7    753 0.03104100  12.010000   ; qtot -0.302683
  754         h1     30    ccc    H10    754 0.05345200   1.008000   ; qtot -0.249231
  755         hc     30    ccc    H11    755 -0.03377200   1.008000   ; qtot -0.283003
  756         hc     30    ccc    H12    756 -0.03377200   1.008000   ; qtot -0.316775
  757          c     30    ccc     C8    757 0.93072900  12.010000   ; qtot 0.613954
  758          o     30    ccc     O2    758 -0.90377100  16.000000   ; qtot -0.289817
  759          o     30    ccc     O3    759 -0.90377100  16.000000   ; qtot -1.193588
  760         h1     30    ccc    H13    760 0.05345200   1.008000   ; qtot -1.140136
  761         h1     30    ccc    H14    761 0.05345200   1.008000   ; qtot -1.086684
  762         c3     30    ccc     C9    762 0.03104100  12.010000   ; qtot -1.055643
  763         hc     30    ccc    H15    763 -0.03377200   1.008000   ; qtot -1.089415
  764         hc     30    ccc    H16    764 -0.03377200   1.008000   ; qtot -1.123187
  765          c     30    ccc    C10    765 0.93072900  12.010000   ; qtot -0.192458
  766          o     30    ccc     O4    766 -0.90377100  16.000000   ; qtot -1.096229
  767          o     30    ccc     O5    767 -0.90377100  16.000000   ; qtot -2.000000
; residue   31 ccc rtp ccc q -2.0
  768          n     31    ccc     N1    768 -0.63700000  14.010000   ; qtot -2.637000
  769         hn     31    ccc     H4    769 0.34234400   1.008000   ; qtot -2.294656
  770         c3     31    ccc     C3    770 0.01091100  12.010000   ; qtot -2.283745
  771         h1     31    ccc     H5    771 0.11190000   1.008000   ; qtot -2.171845
  772         c3     31    ccc     C4    772 -0.06161800  12.010000   ; qtot -2.233463
  773         h1     31    ccc     H6    773 0.11190000   1.008000   ; qtot -2.121563
  774         h1     31    ccc     H7    774 0.11248000   1.008000   ; qtot -2.009083
  775         h1     31    ccc     H8    775 0.11248000   1.008000   ; qtot -1.896603
  776         n3     31    ccc     N2    776 -0.49292700  14.010000   ; qtot -2.389530
  777         c3     31    ccc     C5    777 0.00117700  12.010000   ; qtot -2.388353
  778         c3     31    ccc     C6    778 0.00117700  12.010000   ; qtot -2.387176
  779         h1     31    ccc     H9    779 0.05345200   1.008000   ; qtot -2.333724
  780         c3     31    ccc     C7    780 0.03104100  12.010000   ; qtot -2.302683
  781         h1     31    ccc    H10    781 0.05345200   1.008000   ; qtot -2.249231
  782         hc     31    ccc    H11    782 -0.03377200   1.008000   ; qtot -2.283003
  783         hc     31    ccc    H12    783 -0.03377200   1.008000   ; qtot -2.316775
  784          c     31    ccc     C8    784 0.93072900  12.010000   ; qtot -1.386046
  785          o     31    ccc     O2    785 -0.90377100  16.000000   ; qtot -2.289817
  786          o     31    ccc     O3    786 -0.90377100  16.000000   ; qtot -3.193588
  787         h1     31    ccc    H13    787 0.05345200   1.008000   ; qtot -3.140136
  788         h1     31    ccc    H14    788 0.05345200   1.008000   ; qtot -3.086684
  789         c3     31    ccc     C9    789 0.03104100  12.010000   ; qtot -3.055643
  790         hc     31    ccc    H15    790 -0.03377200   1.008000   ; qtot -3.089415
  791         hc     31    ccc    H16    791 -0.03377200   1.008000   ; qtot -3.123187
  792          c     31    ccc    C10    792 0.93072900  12.010000   ; qtot -2.192458
  793          o     31    ccc     O4    793 -0.90377100  16.000000   ; qtot -3.096229
  794          o     31    ccc     O5    794 -0.90377100  16.000000   ; qtot -4.000000
; residue   32 ccc rtp ccc q -2.0
  795          n     32    ccc     N1    795 -0.63700000  14.010000   ; qtot -4.637000
  796         hn     32    ccc     H4    796 0.34234400   1.008000   ; qtot -4.294656
  797         c3     32    ccc     C3    797 0.01091100  12.010000   ; qtot -4.283745
  798         h1     32    ccc     H5    798 0.11190000   1.008000   ; qtot -4.171845
  799         c3     32    ccc     C4    799 -0.06161800  12.010000   ; qtot -4.233463
  800         h1     32    ccc     H6    800 0.11190000   1.008000   ; qtot -4.121563
  801         h1     32    ccc     H7    801 0.11248000   1.008000   ; qtot -4.009083
  802         h1     32    ccc     H8    802 0.11248000   1.008000   ; qtot -3.896603
  803         n3     32    ccc     N2    803 -0.49292700  14.010000   ; qtot -4.389530
  804         c3     32    ccc     C5    804 0.00117700  12.010000   ; qtot -4.388353
  805         c3     32    ccc     C6    805 0.00117700  12.010000   ; qtot -4.387176
  806         h1     32    ccc     H9    806 0.05345200   1.008000   ; qtot -4.333724
  807         c3     32    ccc     C7    807 0.03104100  12.010000   ; qtot -4.302683
  808         h1     32    ccc    H10    808 0.05345200   1.008000   ; qtot -4.249231
  809         hc     32    ccc    H11    809 -0.03377200   1.008000   ; qtot -4.283003
  810         hc     32    ccc    H12    810 -0.03377200   1.008000   ; qtot -4.316775
  811          c     32    ccc     C8    811 0.93072900  12.010000   ; qtot -3.386046
  812          o     32    ccc     O2    812 -0.90377100  16.000000   ; qtot -4.289817
  813          o     32    ccc     O3    813 -0.90377100  16.000000   ; qtot -5.193588
  814         h1     32    ccc    H13    814 0.05345200   1.008000   ; qtot -5.140136
  815         h1     32    ccc    H14    815 0.05345200   1.008000   ; qtot -5.086684
  816         c3     32    ccc     C9    816 0.03104100  12.010000   ; qtot -5.055643
  817         hc     32    ccc    H15    817 -0.03377200   1.008000   ; qtot -5.089415
  818         hc     32    ccc    H16    818 -0.03377200   1.008000   ; qtot -5.123187
  819          c     32    ccc    C10    819 0.93072900  12.010000   ; qtot -4.192458
  820          o     32    ccc     O4    820 -0.90377100  16.000000   ; qtot -5.096229
  821          o     32    ccc     O5    821 -0.90377100  16.000000   ; qtot -6.000000
; residue   33 ccc rtp ccc q -2.0
  822          n     33    ccc     N1    822 -0.63700000  14.010000   ; qtot -6.637000
  823         hn     33    ccc     H4    823 0.34234400   1.008000   ; qtot -6.294656
  824         c3     33    ccc     C3    824 0.01091100  12.010000   ; qtot -6.283745
  825         h1     33    ccc     H5    825 0.11190000   1.008000   ; qtot -6.171845
  826         c3     33    ccc     C4    826 -0.06161800  12.010000   ; qtot -6.233463
  827         h1     33    ccc     H6    827 0.11190000   1.008000   ; qtot -6.121563
  828         h1     33    ccc     H7    828 0.11248000   1.008000   ; qtot -6.009083
  829         h1     33    ccc     H8    829 0.11248000   1.008000   ; qtot -5.896603
  830         n3     33    ccc     N2    830 -0.49292700  14.010000   ; qtot -6.389530
  831         c3     33    ccc     C5    831 0.00117700  12.010000   ; qtot -6.388353
  832         c3     33    ccc     C6    832 0.00117700  12.010000   ; qtot -6.387176
  833         h1     33    ccc     H9    833 0.05345200   1.008000   ; qtot -6.333724
  834         c3     33    ccc     C7    834 0.03104100  12.010000   ; qtot -6.302683
  835         h1     33    ccc    H10    835 0.05345200   1.008000   ; qtot -6.249231
  836         hc     33    ccc    H11    836 -0.03377200   1.008000   ; qtot -6.283003
  837         hc     33    ccc    H12    837 -0.03377200   1.008000   ; qtot -6.316775
  838          c     33    ccc     C8    838 0.93072900  12.010000   ; qtot -5.386046
  839          o     33    ccc     O2    839 -0.90377100  16.000000   ; qtot -6.289817
  840          o     33    ccc     O3    840 -0.90377100  16.000000   ; qtot -7.193588
  841         h1     33    ccc    H13    841 0.05345200   1.008000   ; qtot -7.140136
  842         h1     33    ccc    H14    842 0.05345200   1.008000   ; qtot -7.086684
  843         c3     33    ccc     C9    843 0.03104100  12.010000   ; qtot -7.055643
  844         hc     33    ccc    H15    844 -0.03377200   1.008000   ; qtot -7.089415
  845         hc     33    ccc    H16    845 -0.03377200   1.008000   ; qtot -7.123187
  846          c     33    ccc    C10    846 0.93072900  12.010000   ; qtot -6.192458
  847          o     33    ccc     O4    847 -0.90377100  16.000000   ; qtot -7.096229
  848          o     33    ccc     O5    848 -0.90377100  16.000000   ; qtot -8.000000
; residue   34 ccc rtp ccc q -2.0
  849          n     34    ccc     N1    849 -0.63700000  14.010000   ; qtot -8.637000
  850         hn     34    ccc     H4    850 0.34234400   1.008000   ; qtot -8.294656
  851         c3     34    ccc     C3    851 0.01091100  12.010000   ; qtot -8.283745
  852         h1     34    ccc     H5    852 0.11190000   1.008000   ; qtot -8.171845
  853         c3     34    ccc     C4    853 -0.06161800  12.010000   ; qtot -8.233463
  854         h1     34    ccc     H6    854 0.11190000   1.008000   ; qtot -8.121563
  855         h1     34    ccc     H7    855 0.11248000   1.008000   ; qtot -8.009083
  856         h1     34    ccc     H8    856 0.11248000   1.008000   ; qtot -7.896603
  857         n3     34    ccc     N2    857 -0.49292700  14.010000   ; qtot -8.389530
  858         c3     34    ccc     C5    858 0.00117700  12.010000   ; qtot -8.388353
  859         c3     34    ccc     C6    859 0.00117700  12.010000   ; qtot -8.387176
  860         h1     34    ccc     H9    860 0.05345200   1.008000   ; qtot -8.333724
  861         c3     34    ccc     C7    861 0.03104100  12.010000   ; qtot -8.302683
  862         h1     34    ccc    H10    862 0.05345200   1.008000   ; qtot -8.249231
  863         hc     34    ccc    H11    863 -0.03377200   1.008000   ; qtot -8.283003
  864         hc     34    ccc    H12    864 -0.03377200   1.008000   ; qtot -8.316775
  865          c     34    ccc     C8    865 0.93072900  12.010000   ; qtot -7.386046
  866          o     34    ccc     O2    866 -0.90377100  16.000000   ; qtot -8.289817
  867          o     34    ccc     O3    867 -0.90377100  16.000000   ; qtot -9.193588
  868         h1     34    ccc    H13    868 0.05345200   1.008000   ; qtot -9.140136
  869         h1     34    ccc    H14    869 0.05345200   1.008000   ; qtot -9.086684
  870         c3     34    ccc     C9    870 0.03104100  12.010000   ; qtot -9.055643
  871         hc     34    ccc    H15    871 -0.03377200   1.008000   ; qtot -9.089415
  872         hc     34    ccc    H16    872 -0.03377200   1.008000   ; qtot -9.123187
  873          c     34    ccc    C10    873 0.93072900  12.010000   ; qtot -8.192458
  874          o     34    ccc     O4    874 -0.90377100  16.000000   ; qtot -9.096229
  875          o     34    ccc     O5    875 -0.90377100  16.000000   ; qtot -10.000000
; residue   35 ccc rtp ccc q -2.0
  876          n     35    ccc     N1    876 -0.63700000  14.010000   ; qtot -10.637000
  877         hn     35    ccc     H4    877 0.34234400   1.008000   ; qtot -10.294656
  878         c3     35    ccc     C3    878 0.01091100  12.010000   ; qtot -10.283745
  879         h1     35    ccc     H5    879 0.11190000   1.008000   ; qtot -10.171845
  880         c3     35    ccc     C4    880 -0.06161800  12.010000   ; qtot -10.233463
  881         h1     35    ccc     H6    881 0.11190000   1.008000   ; qtot -10.121563
  882         h1     35    ccc     H7    882 0.11248000   1.008000   ; qtot -10.009083
  883         h1     35    ccc     H8    883 0.11248000   1.008000   ; qtot -9.896603
  884         n3     35    ccc     N2    884 -0.49292700  14.010000   ; qtot -10.389530
  885         c3     35    ccc     C5    885 0.00117700  12.010000   ; qtot -10.388353
  886         c3     35    ccc     C6    886 0.00117700  12.010000   ; qtot -10.387176
  887         h1     35    ccc     H9    887 0.05345200   1.008000   ; qtot -10.333724
  888         c3     35    ccc     C7    888 0.03104100  12.010000   ; qtot -10.302683
  889         h1     35    ccc    H10    889 0.05345200   1.008000   ; qtot -10.249231
  890         hc     35    ccc    H11    890 -0.03377200   1.008000   ; qtot -10.283003
  891         hc     35    ccc    H12    891 -0.03377200   1.008000   ; qtot -10.316775
  892          c     35    ccc     C8    892 0.93072900  12.010000   ; qtot -9.386046
  893          o     35    ccc     O2    893 -0.90377100  16.000000   ; qtot -10.289817
  894          o     35    ccc     O3    894 -0.90377100  16.000000   ; qtot -11.193588
  895         h1     35    ccc    H13    895 0.05345200   1.008000   ; qtot -11.140136
  896         h1     35    ccc    H14    896 0.05345200   1.008000   ; qtot -11.086684
  897         c3     35    ccc     C9    897 0.03104100  12.010000   ; qtot -11.055643
  898         hc     35    ccc    H15    898 -0.03377200   1.008000   ; qtot -11.089415
  899         hc     35    ccc    H16    899 -0.03377200   1.008000   ; qtot -11.123187
  900          c     35    ccc    C10    900 0.93072900  12.010000   ; qtot -10.192458
  901          o     35    ccc     O4    901 -0.90377100  16.000000   ; qtot -11.096229
  902          o     35    ccc     O5    902 -0.90377100  16.000000   ; qtot -12.000000
; residue   36 ccc rtp ccc q -2.0
  903          n     36    ccc     N1    903 -0.63700000  14.010000   ; qtot -12.637000
  904         hn     36    ccc     H4    904 0.34234400   1.008000   ; qtot -12.294656
  905         c3     36    ccc     C3    905 0.01091100  12.010000   ; qtot -12.283745
  906         h1     36    ccc     H5    906 0.11190000   1.008000   ; qtot -12.171845
  907         c3     36    ccc     C4    907 -0.06161800  12.010000   ; qtot -12.233463
  908         h1     36    ccc     H6    908 0.11190000   1.008000   ; qtot -12.121563
  909         h1     36    ccc     H7    909 0.11248000   1.008000   ; qtot -12.009083
  910         h1     36    ccc     H8    910 0.11248000   1.008000   ; qtot -11.896603
  911         n3     36    ccc     N2    911 -0.49292700  14.010000   ; qtot -12.389530
  912         c3     36    ccc     C5    912 0.00117700  12.010000   ; qtot -12.388353
  913         c3     36    ccc     C6    913 0.00117700  12.010000   ; qtot -12.387176
  914         h1     36    ccc     H9    914 0.05345200   1.008000   ; qtot -12.333724
  915         c3     36    ccc     C7    915 0.03104100  12.010000   ; qtot -12.302683
  916         h1     36    ccc    H10    916 0.05345200   1.008000   ; qtot -12.249231
  917         hc     36    ccc    H11    917 -0.03377200   1.008000   ; qtot -12.283003
  918         hc     36    ccc    H12    918 -0.03377200   1.008000   ; qtot -12.316775
  919          c     36    ccc     C8    919 0.93072900  12.010000   ; qtot -11.386046
  920          o     36    ccc     O2    920 -0.90377100  16.000000   ; qtot -12.289817
  921          o     36    ccc     O3    921 -0.90377100  16.000000   ; qtot -13.193588
  922         h1     36    ccc    H13    922 0.05345200   1.008000   ; qtot -13.140136
  923         h1     36    ccc    H14    923 0.05345200   1.008000   ; qtot -13.086684
  924         c3     36    ccc     C9    924 0.03104100  12.010000   ; qtot -13.055643
  925         hc     36    ccc    H15    925 -0.03377200   1.008000   ; qtot -13.089415
  926         hc     36    ccc    H16    926 -0.03377200   1.008000   ; qtot -13.123187
  927          c     36    ccc    C10    927 0.93072900  12.010000   ; qtot -12.192458
  928          o     36    ccc     O4    928 -0.90377100  16.000000   ; qtot -13.096229
  929          o     36    ccc     O5    929 -0.90377100  16.000000   ; qtot -14.000000
; residue   37 ccc rtp ccc q -2.0
  930          n     37    ccc     N1    930 -0.63700000  14.010000   ; qtot -14.637000
  931         hn     37    ccc     H4    931 0.34234400   1.008000   ; qtot -14.294656
  932         c3     37    ccc     C3    932 0.01091100  12.010000   ; qtot -14.283745
  933         h1     37    ccc     H5    933 0.11190000   1.008000   ; qtot -14.171845
  934         c3     37    ccc     C4    934 -0.06161800  12.010000   ; qtot -14.233463
  935         h1     37    ccc     H6    935 0.11190000   1.008000   ; qtot -14.121563
  936         h1     37    ccc     H7    936 0.11248000   1.008000   ; qtot -14.009083
  937         h1     37    ccc     H8    937 0.11248000   1.008000   ; qtot -13.896603
  938         n3     37    ccc     N2    938 -0.49292700  14.010000   ; qtot -14.389530
  939         c3     37    ccc     C5    939 0.00117700  12.010000   ; qtot -14.388353
  940         c3     37    ccc     C6    940 0.00117700  12.010000   ; qtot -14.387176
  941         h1     37    ccc     H9    941 0.05345200   1.008000   ; qtot -14.333724
  942         c3     37    ccc     C7    942 0.03104100  12.010000   ; qtot -14.302683
  943         h1     37    ccc    H10    943 0.05345200   1.008000   ; qtot -14.249231
  944         hc     37    ccc    H11    944 -0.03377200   1.008000   ; qtot -14.283003
  945         hc     37    ccc    H12    945 -0.03377200   1.008000   ; qtot -14.316775
  946          c     37    ccc     C8    946 0.93072900  12.010000   ; qtot -13.386046
  947          o     37    ccc     O2    947 -0.90377100  16.000000   ; qtot -14.289817
  948          o     37    ccc     O3    948 -0.90377100  16.000000   ; qtot -15.193588
  949         h1     37    ccc    H13    949 0.05345200   1.008000   ; qtot -15.140136
  950         h1     37    ccc    H14    950 0.05345200   1.008000   ; qtot -15.086684
  951         c3     37    ccc     C9    951 0.03104100  12.010000   ; qtot -15.055643
  952         hc     37    ccc    H15    952 -0.03377200   1.008000   ; qtot -15.089415
  953         hc     37    ccc    H16    953 -0.03377200   1.008000   ; qtot -15.123187
  954          c     37    ccc    C10    954 0.93072900  12.010000   ; qtot -14.192458
  955          o     37    ccc     O4    955 -0.90377100  16.000000   ; qtot -15.096229
  956          o     37    ccc     O5    956 -0.90377100  16.000000   ; qtot -16.000000
; residue   38 ccc rtp ccc q -2.0
  957          n     38    ccc     N1    957 -0.63700000  14.010000   ; qtot -16.637000
  958         hn     38    ccc     H4    958 0.34234400   1.008000   ; qtot -16.294656
  959         c3     38    ccc     C3    959 0.01091100  12.010000   ; qtot -16.283745
  960         h1     38    ccc     H5    960 0.11190000   1.008000   ; qtot -16.171845
  961         c3     38    ccc     C4    961 -0.06161800  12.010000   ; qtot -16.233463
  962         h1     38    ccc     H6    962 0.11190000   1.008000   ; qtot -16.121563
  963         h1     38    ccc     H7    963 0.11248000   1.008000   ; qtot -16.009083
  964         h1     38    ccc     H8    964 0.11248000   1.008000   ; qtot -15.896603
  965         n3     38    ccc     N2    965 -0.49292700  14.010000   ; qtot -16.389530
  966         c3     38    ccc     C5    966 0.00117700  12.010000   ; qtot -16.388353
  967         c3     38    ccc     C6    967 0.00117700  12.010000   ; qtot -16.387176
  968         h1     38    ccc     H9    968 0.05345200   1.008000   ; qtot -16.333724
  969         c3     38    ccc     C7    969 0.03104100  12.010000   ; qtot -16.302683
  970         h1     38    ccc    H10    970 0.05345200   1.008000   ; qtot -16.249231
  971         hc     38    ccc    H11    971 -0.03377200   1.008000   ; qtot -16.283003
  972         hc     38    ccc    H12    972 -0.03377200   1.008000   ; qtot -16.316775
  973          c     38    ccc     C8    973 0.93072900  12.010000   ; qtot -15.386046
  974          o     38    ccc     O2    974 -0.90377100  16.000000   ; qtot -16.289817
  975          o     38    ccc     O3    975 -0.90377100  16.000000   ; qtot -17.193588
  976         h1     38    ccc    H13    976 0.05345200   1.008000   ; qtot -17.140136
  977         h1     38    ccc    H14    977 0.05345200   1.008000   ; qtot -17.086684
  978         c3     38    ccc     C9    978 0.03104100  12.010000   ; qtot -17.055643
  979         hc     38    ccc    H15    979 -0.03377200   1.008000   ; qtot -17.089415
  980         hc     38    ccc    H16    980 -0.03377200   1.008000   ; qtot -17.123187
  981          c     38    ccc    C10    981 0.93072900  12.010000   ; qtot -16.192458
  982          o     38    ccc     O4    982 -0.90377100  16.000000   ; qtot -17.096229
  983          o     38    ccc     O5    983 -0.90377100  16.000000   ; qtot -18.000000
; residue   39 ccc rtp ccc q -2.0
  984          n     39    ccc     N1    984 -0.63700000  14.010000   ; qtot -18.637000
  985         hn     39    ccc     H4    985 0.34234400   1.008000   ; qtot -18.294656
  986         c3     39    ccc     C3    986 0.01091100  12.010000   ; qtot -18.283745
  987         h1     39    ccc     H5    987 0.11190000   1.008000   ; qtot -18.171845
  988         c3     39    ccc     C4    988 -0.06161800  12.010000   ; qtot -18.233463
  989         h1     39    ccc     H6    989 0.11190000   1.008000   ; qtot -18.121563
  990         h1     39    ccc     H7    990 0.11248000   1.008000   ; qtot -18.009083
  991         h1     39    ccc     H8    991 0.11248000   1.008000   ; qtot -17.896603
  992         n3     39    ccc     N2    992 -0.49292700  14.010000   ; qtot -18.389530
  993         c3     39    ccc     C5    993 0.00117700  12.010000   ; qtot -18.388353
  994         c3     39    ccc     C6    994 0.00117700  12.010000   ; qtot -18.387176
  995         h1     39    ccc     H9    995 0.05345200   1.008000   ; qtot -18.333724
  996         c3     39    ccc     C7    996 0.03104100  12.010000   ; qtot -18.302683
  997         h1     39    ccc    H10    997 0.05345200   1.008000   ; qtot -18.249231
  998         hc     39    ccc    H11    998 -0.03377200   1.008000   ; qtot -18.283003
  999         hc     39    ccc    H12    999 -0.03377200   1.008000   ; qtot -18.316775
 1000          c     39    ccc     C8   1000 0.93072900  12.010000   ; qtot -17.386046
 1001          o     39    ccc     O2   1001 -0.90377100  16.000000   ; qtot -18.289817
 1002          o     39    ccc     O3   1002 -0.90377100  16.000000   ; qtot -19.193588
 1003         h1     39    ccc    H13   1003 0.05345200   1.008000   ; qtot -19.140136
 1004         h1     39    ccc    H14   1004 0.05345200   1.008000   ; qtot -19.086684
 1005         c3     39    ccc     C9   1005 0.03104100  12.010000   ; qtot -19.055643
 1006         hc     39    ccc    H15   1006 -0.03377200   1.008000   ; qtot -19.089415
 1007         hc     39    ccc    H16   1007 -0.03377200   1.008000   ; qtot -19.123187
 1008          c     39    ccc    C10   1008 0.93072900  12.010000   ; qtot -18.192458
 1009          o     39    ccc     O4   1009 -0.90377100  16.000000   ; qtot -19.096229
 1010          o     39    ccc     O5   1010 -0.90377100  16.000000   ; qtot -20.000000
; residue   40 ccc rtp ccc q -2.0
 1011          n     40    ccc     N1   1011 -0.63700000  14.010000   ; qtot -20.637000
 1012         hn     40    ccc     H4   1012 0.34234400   1.008000   ; qtot -20.294656
 1013         c3     40    ccc     C3   1013 0.01091100  12.010000   ; qtot -20.283745
 1014         h1     40    ccc     H5   1014 0.11190000   1.008000   ; qtot -20.171845
 1015         c3     40    ccc     C4   1015 -0.06161800  12.010000   ; qtot -20.233463
 1016         h1     40    ccc     H6   1016 0.11190000   1.008000   ; qtot -20.121563
 1017         h1     40    ccc     H7   1017 0.11248000   1.008000   ; qtot -20.009083
 1018         h1     40    ccc     H8   1018 0.11248000   1.008000   ; qtot -19.896603
 1019         n3     40    ccc     N2   1019 -0.49292700  14.010000   ; qtot -20.389530
 1020         c3     40    ccc     C5   1020 0.00117700  12.010000   ; qtot -20.388353
 1021         c3     40    ccc     C6   1021 0.00117700  12.010000   ; qtot -20.387176
 1022         h1     40    ccc     H9   1022 0.05345200   1.008000   ; qtot -20.333724
 1023         c3     40    ccc     C7   1023 0.03104100  12.010000   ; qtot -20.302683
 1024         h1     40    ccc    H10   1024 0.05345200   1.008000   ; qtot -20.249231
 1025         hc     40    ccc    H11   1025 -0.03377200   1.008000   ; qtot -20.283003
 1026         hc     40    ccc    H12   1026 -0.03377200   1.008000   ; qtot -20.316775
 1027          c     40    ccc     C8   1027 0.93072900  12.010000   ; qtot -19.386046
 1028          o     40    ccc     O2   1028 -0.90377100  16.000000   ; qtot -20.289817
 1029          o     40    ccc     O3   1029 -0.90377100  16.000000   ; qtot -21.193588
 1030         h1     40    ccc    H13   1030 0.05345200   1.008000   ; qtot -21.140136
 1031         h1     40    ccc    H14   1031 0.05345200   1.008000   ; qtot -21.086684
 1032         c3     40    ccc     C9   1032 0.03104100  12.010000   ; qtot -21.055643
 1033         hc     40    ccc    H15   1033 -0.03377200   1.008000   ; qtot -21.089415
 1034         hc     40    ccc    H16   1034 -0.03377200   1.008000   ; qtot -21.123187
 1035          c     40    ccc    C10   1035 0.93072900  12.010000   ; qtot -20.192458
 1036          o     40    ccc     O4   1036 -0.90377100  16.000000   ; qtot -21.096229
 1037          o     40    ccc     O5   1037 -0.90377100  16.000000   ; qtot -22.000000
; residue   41 ccc rtp ccc q -2.0
 1038          n     41    ccc     N1   1038 -0.63700000  14.010000   ; qtot -22.637000
 1039         hn     41    ccc     H4   1039 0.34234400   1.008000   ; qtot -22.294656
 1040         c3     41    ccc     C3   1040 0.01091100  12.010000   ; qtot -22.283745
 1041         h1     41    ccc     H5   1041 0.11190000   1.008000   ; qtot -22.171845
 1042         c3     41    ccc     C4   1042 -0.06161800  12.010000   ; qtot -22.233463
 1043         h1     41    ccc     H6   1043 0.11190000   1.008000   ; qtot -22.121563
 1044         h1     41    ccc     H7   1044 0.11248000   1.008000   ; qtot -22.009083
 1045         h1     41    ccc     H8   1045 0.11248000   1.008000   ; qtot -21.896603
 1046         n3     41    ccc     N2   1046 -0.49292700  14.010000   ; qtot -22.389530
 1047         c3     41    ccc     C5   1047 0.00117700  12.010000   ; qtot -22.388353
 1048         c3     41    ccc     C6   1048 0.00117700  12.010000   ; qtot -22.387176
 1049         h1     41    ccc     H9   1049 0.05345200   1.008000   ; qtot -22.333724
 1050         c3     41    ccc     C7   1050 0.03104100  12.010000   ; qtot -22.302683
 1051         h1     41    ccc    H10   1051 0.05345200   1.008000   ; qtot -22.249231
 1052         hc     41    ccc    H11   1052 -0.03377200   1.008000   ; qtot -22.283003
 1053         hc     41    ccc    H12   1053 -0.03377200   1.008000   ; qtot -22.316775
 1054          c     41    ccc     C8   1054 0.93072900  12.010000   ; qtot -21.386046
 1055          o     41    ccc     O2   1055 -0.90377100  16.000000   ; qtot -22.289817
 1056          o     41    ccc     O3   1056 -0.90377100  16.000000   ; qtot -23.193588
 1057         h1     41    ccc    H13   1057 0.05345200   1.008000   ; qtot -23.140136
 1058         h1     41    ccc    H14   1058 0.05345200   1.008000   ; qtot -23.086684
 1059         c3     41    ccc     C9   1059 0.03104100  12.010000   ; qtot -23.055643
 1060         hc     41    ccc    H15   1060 -0.03377200   1.008000   ; qtot -23.089415
 1061         hc     41    ccc    H16   1061 -0.03377200   1.008000   ; qtot -23.123187
 1062          c     41    ccc    C10   1062 0.93072900  12.010000   ; qtot -22.192458
 1063          o     41    ccc     O4   1063 -0.90377100  16.000000   ; qtot -23.096229
 1064          o     41    ccc     O5   1064 -0.90377100  16.000000   ; qtot -24.000000
; residue   42 ccc rtp ccc q -2.0
 1065          n     42    ccc     N1   1065 -0.63700000  14.010000   ; qtot -24.637000
 1066         hn     42    ccc     H4   1066 0.34234400   1.008000   ; qtot -24.294656
 1067         c3     42    ccc     C3   1067 0.01091100  12.010000   ; qtot -24.283745
 1068         h1     42    ccc     H5   1068 0.11190000   1.008000   ; qtot -24.171845
 1069         c3     42    ccc     C4   1069 -0.06161800  12.010000   ; qtot -24.233463
 1070         h1     42    ccc     H6   1070 0.11190000   1.008000   ; qtot -24.121563
 1071         h1     42    ccc     H7   1071 0.11248000   1.008000   ; qtot -24.009083
 1072         h1     42    ccc     H8   1072 0.11248000   1.008000   ; qtot -23.896603
 1073         n3     42    ccc     N2   1073 -0.49292700  14.010000   ; qtot -24.389530
 1074         c3     42    ccc     C5   1074 0.00117700  12.010000   ; qtot -24.388353
 1075         c3     42    ccc     C6   1075 0.00117700  12.010000   ; qtot -24.387176
 1076         h1     42    ccc     H9   1076 0.05345200   1.008000   ; qtot -24.333724
 1077         c3     42    ccc     C7   1077 0.03104100  12.010000   ; qtot -24.302683
 1078         h1     42    ccc    H10   1078 0.05345200   1.008000   ; qtot -24.249231
 1079         hc     42    ccc    H11   1079 -0.03377200   1.008000   ; qtot -24.283003
 1080         hc     42    ccc    H12   1080 -0.03377200   1.008000   ; qtot -24.316775
 1081          c     42    ccc     C8   1081 0.93072900  12.010000   ; qtot -23.386046
 1082          o     42    ccc     O2   1082 -0.90377100  16.000000   ; qtot -24.289817
 1083          o     42    ccc     O3   1083 -0.90377100  16.000000   ; qtot -25.193588
 1084         h1     42    ccc    H13   1084 0.05345200   1.008000   ; qtot -25.140136
 1085         h1     42    ccc    H14   1085 0.05345200   1.008000   ; qtot -25.086684
 1086         c3     42    ccc     C9   1086 0.03104100  12.010000   ; qtot -25.055643
 1087         hc     42    ccc    H15   1087 -0.03377200   1.008000   ; qtot -25.089415
 1088         hc     42    ccc    H16   1088 -0.03377200   1.008000   ; qtot -25.123187
 1089          c     42    ccc    C10   1089 0.93072900  12.010000   ; qtot -24.192458
 1090          o     42    ccc     O4   1090 -0.90377100  16.000000   ; qtot -25.096229
 1091          o     42    ccc     O5   1091 -0.90377100  16.000000   ; qtot -26.000000
; residue   43 ccc rtp ccc q -2.0
 1092          n     43    ccc     N1   1092 -0.63700000  14.010000   ; qtot -26.637000
 1093         hn     43    ccc     H4   1093 0.34234400   1.008000   ; qtot -26.294656
 1094         c3     43    ccc     C3   1094 0.01091100  12.010000   ; qtot -26.283745
 1095         h1     43    ccc     H5   1095 0.11190000   1.008000   ; qtot -26.171845
 1096         c3     43    ccc     C4   1096 -0.06161800  12.010000   ; qtot -26.233463
 1097         h1     43    ccc     H6   1097 0.11190000   1.008000   ; qtot -26.121563
 1098         h1     43    ccc     H7   1098 0.11248000   1.008000   ; qtot -26.009083
 1099         h1     43    ccc     H8   1099 0.11248000   1.008000   ; qtot -25.896603
 1100         n3     43    ccc     N2   1100 -0.49292700  14.010000   ; qtot -26.389530
 1101         c3     43    ccc     C5   1101 0.00117700  12.010000   ; qtot -26.388353
 1102         c3     43    ccc     C6   1102 0.00117700  12.010000   ; qtot -26.387176
 1103         h1     43    ccc     H9   1103 0.05345200   1.008000   ; qtot -26.333724
 1104         c3     43    ccc     C7   1104 0.03104100  12.010000   ; qtot -26.302683
 1105         h1     43    ccc    H10   1105 0.05345200   1.008000   ; qtot -26.249231
 1106         hc     43    ccc    H11   1106 -0.03377200   1.008000   ; qtot -26.283003
 1107         hc     43    ccc    H12   1107 -0.03377200   1.008000   ; qtot -26.316775
 1108          c     43    ccc     C8   1108 0.93072900  12.010000   ; qtot -25.386046
 1109          o     43    ccc     O2   1109 -0.90377100  16.000000   ; qtot -26.289817
 1110          o     43    ccc     O3   1110 -0.90377100  16.000000   ; qtot -27.193588
 1111         h1     43    ccc    H13   1111 0.05345200   1.008000   ; qtot -27.140136
 1112         h1     43    ccc    H14   1112 0.05345200   1.008000   ; qtot -27.086684
 1113         c3     43    ccc     C9   1113 0.03104100  12.010000   ; qtot -27.055643
 1114         hc     43    ccc    H15   1114 -0.03377200   1.008000   ; qtot -27.089415
 1115         hc     43    ccc    H16   1115 -0.03377200   1.008000   ; qtot -27.123187
 1116          c     43    ccc    C10   1116 0.93072900  12.010000   ; qtot -26.192458
 1117          o     43    ccc     O4   1117 -0.90377100  16.000000   ; qtot -27.096229
 1118          o     43    ccc     O5   1118 -0.90377100  16.000000   ; qtot -28.000000
; residue   44 ccc rtp ccc q -2.0
 1119          n     44    ccc     N1   1119 -0.63700000  14.010000   ; qtot -28.637000
 1120         hn     44    ccc     H4   1120 0.34234400   1.008000   ; qtot -28.294656
 1121         c3     44    ccc     C3   1121 0.01091100  12.010000   ; qtot -28.283745
 1122         h1     44    ccc     H5   1122 0.11190000   1.008000   ; qtot -28.171845
 1123         c3     44    ccc     C4   1123 -0.06161800  12.010000   ; qtot -28.233463
 1124         h1     44    ccc     H6   1124 0.11190000   1.008000   ; qtot -28.121563
 1125         h1     44    ccc     H7   1125 0.11248000   1.008000   ; qtot -28.009083
 1126         h1     44    ccc     H8   1126 0.11248000   1.008000   ; qtot -27.896603
 1127         n3     44    ccc     N2   1127 -0.49292700  14.010000   ; qtot -28.389530
 1128         c3     44    ccc     C5   1128 0.00117700  12.010000   ; qtot -28.388353
 1129         c3     44    ccc     C6   1129 0.00117700  12.010000   ; qtot -28.387176
 1130         h1     44    ccc     H9   1130 0.05345200   1.008000   ; qtot -28.333724
 1131         c3     44    ccc     C7   1131 0.03104100  12.010000   ; qtot -28.302683
 1132         h1     44    ccc    H10   1132 0.05345200   1.008000   ; qtot -28.249231
 1133         hc     44    ccc    H11   1133 -0.03377200   1.008000   ; qtot -28.283003
 1134         hc     44    ccc    H12   1134 -0.03377200   1.008000   ; qtot -28.316775
 1135          c     44    ccc     C8   1135 0.93072900  12.010000   ; qtot -27.386046
 1136          o     44    ccc     O2   1136 -0.90377100  16.000000   ; qtot -28.289817
 1137          o     44    ccc     O3   1137 -0.90377100  16.000000   ; qtot -29.193588
 1138         h1     44    ccc    H13   1138 0.05345200   1.008000   ; qtot -29.140136
 1139         h1     44    ccc    H14   1139 0.05345200   1.008000   ; qtot -29.086684
 1140         c3     44    ccc     C9   1140 0.03104100  12.010000   ; qtot -29.055643
 1141         hc     44    ccc    H15   1141 -0.03377200   1.008000   ; qtot -29.089415
 1142         hc     44    ccc    H16   1142 -0.03377200   1.008000   ; qtot -29.123187
 1143          c     44    ccc    C10   1143 0.93072900  12.010000   ; qtot -28.192458
 1144          o     44    ccc     O4   1144 -0.90377100  16.000000   ; qtot -29.096229
 1145          o     44    ccc     O5   1145 -0.90377100  16.000000   ; qtot -30.000000
; residue   45 ccc rtp ccc q -2.0
 1146          n     45    ccc     N1   1146 -0.63700000  14.010000   ; qtot -30.637000
 1147         hn     45    ccc     H4   1147 0.34234400   1.008000   ; qtot -30.294656
 1148         c3     45    ccc     C3   1148 0.01091100  12.010000   ; qtot -30.283745
 1149         h1     45    ccc     H5   1149 0.11190000   1.008000   ; qtot -30.171845
 1150         c3     45    ccc     C4   1150 -0.06161800  12.010000   ; qtot -30.233463
 1151         h1     45    ccc     H6   1151 0.11190000   1.008000   ; qtot -30.121563
 1152         h1     45    ccc     H7   1152 0.11248000   1.008000   ; qtot -30.009083
 1153         h1     45    ccc     H8   1153 0.11248000   1.008000   ; qtot -29.896603
 1154         n3     45    ccc     N2   1154 -0.49292700  14.010000   ; qtot -30.389530
 1155         c3     45    ccc     C5   1155 0.00117700  12.010000   ; qtot -30.388353
 1156         c3     45    ccc     C6   1156 0.00117700  12.010000   ; qtot -30.387176
 1157         h1     45    ccc     H9   1157 0.05345200   1.008000   ; qtot -30.333724
 1158         c3     45    ccc     C7   1158 0.03104100  12.010000   ; qtot -30.302683
 1159         h1     45    ccc    H10   1159 0.05345200   1.008000   ; qtot -30.249231
 1160         hc     45    ccc    H11   1160 -0.03377200   1.008000   ; qtot -30.283003
 1161         hc     45    ccc    H12   1161 -0.03377200   1.008000   ; qtot -30.316775
 1162          c     45    ccc     C8   1162 0.93072900  12.010000   ; qtot -29.386046
 1163          o     45    ccc     O2   1163 -0.90377100  16.000000   ; qtot -30.289817
 1164          o     45    ccc     O3   1164 -0.90377100  16.000000   ; qtot -31.193588
 1165         h1     45    ccc    H13   1165 0.05345200   1.008000   ; qtot -31.140136
 1166         h1     45    ccc    H14   1166 0.05345200   1.008000   ; qtot -31.086684
 1167         c3     45    ccc     C9   1167 0.03104100  12.010000   ; qtot -31.055643
 1168         hc     45    ccc    H15   1168 -0.03377200   1.008000   ; qtot -31.089415
 1169         hc     45    ccc    H16   1169 -0.03377200   1.008000   ; qtot -31.123187
 1170          c     45    ccc    C10   1170 0.93072900  12.010000   ; qtot -30.192458
 1171          o     45    ccc     O4   1171 -0.90377100  16.000000   ; qtot -31.096229
 1172          o     45    ccc     O5   1172 -0.90377100  16.000000   ; qtot -32.000000
; residue   46 ccc rtp ccc q -2.0
 1173          n     46    ccc     N1   1173 -0.63700000  14.010000   ; qtot -32.637000
 1174         hn     46    ccc     H4   1174 0.34234400   1.008000   ; qtot -32.294656
 1175         c3     46    ccc     C3   1175 0.01091100  12.010000   ; qtot -32.283745
 1176         h1     46    ccc     H5   1176 0.11190000   1.008000   ; qtot -32.171845
 1177         c3     46    ccc     C4   1177 -0.06161800  12.010000   ; qtot -32.233463
 1178         h1     46    ccc     H6   1178 0.11190000   1.008000   ; qtot -32.121563
 1179         h1     46    ccc     H7   1179 0.11248000   1.008000   ; qtot -32.009083
 1180         h1     46    ccc     H8   1180 0.11248000   1.008000   ; qtot -31.896603
 1181         n3     46    ccc     N2   1181 -0.49292700  14.010000   ; qtot -32.389530
 1182         c3     46    ccc     C5   1182 0.00117700  12.010000   ; qtot -32.388353
 1183         c3     46    ccc     C6   1183 0.00117700  12.010000   ; qtot -32.387176
 1184         h1     46    ccc     H9   1184 0.05345200   1.008000   ; qtot -32.333724
 1185         c3     46    ccc     C7   1185 0.03104100  12.010000   ; qtot -32.302683
 1186         h1     46    ccc    H10   1186 0.05345200   1.008000   ; qtot -32.249231
 1187         hc     46    ccc    H11   1187 -0.03377200   1.008000   ; qtot -32.283003
 1188         hc     46    ccc    H12   1188 -0.03377200   1.008000   ; qtot -32.316775
 1189          c     46    ccc     C8   1189 0.93072900  12.010000   ; qtot -31.386046
 1190          o     46    ccc     O2   1190 -0.90377100  16.000000   ; qtot -32.289817
 1191          o     46    ccc     O3   1191 -0.90377100  16.000000   ; qtot -33.193588
 1192         h1     46    ccc    H13   1192 0.05345200   1.008000   ; qtot -33.140136
 1193         h1     46    ccc    H14   1193 0.05345200   1.008000   ; qtot -33.086684
 1194         c3     46    ccc     C9   1194 0.03104100  12.010000   ; qtot -33.055643
 1195         hc     46    ccc    H15   1195 -0.03377200   1.008000   ; qtot -33.089415
 1196         hc     46    ccc    H16   1196 -0.03377200   1.008000   ; qtot -33.123187
 1197          c     46    ccc    C10   1197 0.93072900  12.010000   ; qtot -32.192458
 1198          o     46    ccc     O4   1198 -0.90377100  16.000000   ; qtot -33.096229
 1199          o     46    ccc     O5   1199 -0.90377100  16.000000   ; qtot -34.000000
; residue   47 ccc rtp ccc q -2.0
 1200          n     47    ccc     N1   1200 -0.63700000  14.010000   ; qtot -34.637000
 1201         hn     47    ccc     H4   1201 0.34234400   1.008000   ; qtot -34.294656
 1202         c3     47    ccc     C3   1202 0.01091100  12.010000   ; qtot -34.283745
 1203         h1     47    ccc     H5   1203 0.11190000   1.008000   ; qtot -34.171845
 1204         c3     47    ccc     C4   1204 -0.06161800  12.010000   ; qtot -34.233463
 1205         h1     47    ccc     H6   1205 0.11190000   1.008000   ; qtot -34.121563
 1206         h1     47    ccc     H7   1206 0.11248000   1.008000   ; qtot -34.009083
 1207         h1     47    ccc     H8   1207 0.11248000   1.008000   ; qtot -33.896603
 1208         n3     47    ccc     N2   1208 -0.49292700  14.010000   ; qtot -34.389530
 1209         c3     47    ccc     C5   1209 0.00117700  12.010000   ; qtot -34.388353
 1210         c3     47    ccc     C6   1210 0.00117700  12.010000   ; qtot -34.387176
 1211         h1     47    ccc     H9   1211 0.05345200   1.008000   ; qtot -34.333724
 1212         c3     47    ccc     C7   1212 0.03104100  12.010000   ; qtot -34.302683
 1213         h1     47    ccc    H10   1213 0.05345200   1.008000   ; qtot -34.249231
 1214         hc     47    ccc    H11   1214 -0.03377200   1.008000   ; qtot -34.283003
 1215         hc     47    ccc    H12   1215 -0.03377200   1.008000   ; qtot -34.316775
 1216          c     47    ccc     C8   1216 0.93072900  12.010000   ; qtot -33.386046
 1217          o     47    ccc     O2   1217 -0.90377100  16.000000   ; qtot -34.289817
 1218          o     47    ccc     O3   1218 -0.90377100  16.000000   ; qtot -35.193588
 1219         h1     47    ccc    H13   1219 0.05345200   1.008000   ; qtot -35.140136
 1220         h1     47    ccc    H14   1220 0.05345200   1.008000   ; qtot -35.086684
 1221         c3     47    ccc     C9   1221 0.03104100  12.010000   ; qtot -35.055643
 1222         hc     47    ccc    H15   1222 -0.03377200   1.008000   ; qtot -35.089415
 1223         hc     47    ccc    H16   1223 -0.03377200   1.008000   ; qtot -35.123187
 1224          c     47    ccc    C10   1224 0.93072900  12.010000   ; qtot -34.192458
 1225          o     47    ccc     O4   1225 -0.90377100  16.000000   ; qtot -35.096229
 1226          o     47    ccc     O5   1226 -0.90377100  16.000000   ; qtot -36.000000
; residue   48 ccc rtp ccc q -2.0
 1227          n     48    ccc     N1   1227 -0.63700000  14.010000   ; qtot -36.637000
 1228         hn     48    ccc     H4   1228 0.34234400   1.008000   ; qtot -36.294656
 1229         c3     48    ccc     C3   1229 0.01091100  12.010000   ; qtot -36.283745
 1230         h1     48    ccc     H5   1230 0.11190000   1.008000   ; qtot -36.171845
 1231         c3     48    ccc     C4   1231 -0.06161800  12.010000   ; qtot -36.233463
 1232         h1     48    ccc     H6   1232 0.11190000   1.008000   ; qtot -36.121563
 1233         h1     48    ccc     H7   1233 0.11248000   1.008000   ; qtot -36.009083
 1234         h1     48    ccc     H8   1234 0.11248000   1.008000   ; qtot -35.896603
 1235         n3     48    ccc     N2   1235 -0.49292700  14.010000   ; qtot -36.389530
 1236         c3     48    ccc     C5   1236 0.00117700  12.010000   ; qtot -36.388353
 1237         c3     48    ccc     C6   1237 0.00117700  12.010000   ; qtot -36.387176
 1238         h1     48    ccc     H9   1238 0.05345200   1.008000   ; qtot -36.333724
 1239         c3     48    ccc     C7   1239 0.03104100  12.010000   ; qtot -36.302683
 1240         h1     48    ccc    H10   1240 0.05345200   1.008000   ; qtot -36.249231
 1241         hc     48    ccc    H11   1241 -0.03377200   1.008000   ; qtot -36.283003
 1242         hc     48    ccc    H12   1242 -0.03377200   1.008000   ; qtot -36.316775
 1243          c     48    ccc     C8   1243 0.93072900  12.010000   ; qtot -35.386046
 1244          o     48    ccc     O2   1244 -0.90377100  16.000000   ; qtot -36.289817
 1245          o     48    ccc     O3   1245 -0.90377100  16.000000   ; qtot -37.193588
 1246         h1     48    ccc    H13   1246 0.05345200   1.008000   ; qtot -37.140136
 1247         h1     48    ccc    H14   1247 0.05345200   1.008000   ; qtot -37.086684
 1248         c3     48    ccc     C9   1248 0.03104100  12.010000   ; qtot -37.055643
 1249         hc     48    ccc    H15   1249 -0.03377200   1.008000   ; qtot -37.089415
 1250         hc     48    ccc    H16   1250 -0.03377200   1.008000   ; qtot -37.123187
 1251          c     48    ccc    C10   1251 0.93072900  12.010000   ; qtot -36.192458
 1252          o     48    ccc     O4   1252 -0.90377100  16.000000   ; qtot -37.096229
 1253          o     48    ccc     O5   1253 -0.90377100  16.000000   ; qtot -38.000000
; residue   49 ccc rtp ccc q -2.0
 1254          n     49    ccc     N1   1254 -0.63700000  14.010000   ; qtot -38.637000
 1255         hn     49    ccc     H4   1255 0.34234400   1.008000   ; qtot -38.294656
 1256         c3     49    ccc     C3   1256 0.01091100  12.010000   ; qtot -38.283745
 1257         h1     49    ccc     H5   1257 0.11190000   1.008000   ; qtot -38.171845
 1258         c3     49    ccc     C4   1258 -0.06161800  12.010000   ; qtot -38.233463
 1259         h1     49    ccc     H6   1259 0.11190000   1.008000   ; qtot -38.121563
 1260         h1     49    ccc     H7   1260 0.11248000   1.008000   ; qtot -38.009083
 1261         h1     49    ccc     H8   1261 0.11248000   1.008000   ; qtot -37.896603
 1262         n3     49    ccc     N2   1262 -0.49292700  14.010000   ; qtot -38.389530
 1263         c3     49    ccc     C5   1263 0.00117700  12.010000   ; qtot -38.388353
 1264         c3     49    ccc     C6   1264 0.00117700  12.010000   ; qtot -38.387176
 1265         h1     49    ccc     H9   1265 0.05345200   1.008000   ; qtot -38.333724
 1266         c3     49    ccc     C7   1266 0.03104100  12.010000   ; qtot -38.302683
 1267         h1     49    ccc    H10   1267 0.05345200   1.008000   ; qtot -38.249231
 1268         hc     49    ccc    H11   1268 -0.03377200   1.008000   ; qtot -38.283003
 1269         hc     49    ccc    H12   1269 -0.03377200   1.008000   ; qtot -38.316775
 1270          c     49    ccc     C8   1270 0.93072900  12.010000   ; qtot -37.386046
 1271          o     49    ccc     O2   1271 -0.90377100  16.000000   ; qtot -38.289817
 1272          o     49    ccc     O3   1272 -0.90377100  16.000000   ; qtot -39.193588
 1273         h1     49    ccc    H13   1273 0.05345200   1.008000   ; qtot -39.140136
 1274         h1     49    ccc    H14   1274 0.05345200   1.008000   ; qtot -39.086684
 1275         c3     49    ccc     C9   1275 0.03104100  12.010000   ; qtot -39.055643
 1276         hc     49    ccc    H15   1276 -0.03377200   1.008000   ; qtot -39.089415
 1277         hc     49    ccc    H16   1277 -0.03377200   1.008000   ; qtot -39.123187
 1278          c     49    ccc    C10   1278 0.93072900  12.010000   ; qtot -38.192458
 1279          o     49    ccc     O4   1279 -0.90377100  16.000000   ; qtot -39.096229
 1280          o     49    ccc     O5   1280 -0.90377100  16.000000   ; qtot -40.000000
; residue   50 ccc rtp ccc q -2.0
 1281          n     50    ccc     N1   1281 -0.63700000  14.010000   ; qtot -40.637000
 1282         hn     50    ccc     H4   1282 0.34234400   1.008000   ; qtot -40.294656
 1283         c3     50    ccc     C3   1283 0.01091100  12.010000   ; qtot -40.283745
 1284         h1     50    ccc     H5   1284 0.11190000   1.008000   ; qtot -40.171845
 1285         c3     50    ccc     C4   1285 -0.06161800  12.010000   ; qtot -40.233463
 1286         h1     50    ccc     H6   1286 0.11190000   1.008000   ; qtot -40.121563
 1287         h1     50    ccc     H7   1287 0.11248000   1.008000   ; qtot -40.009083
 1288         h1     50    ccc     H8   1288 0.11248000   1.008000   ; qtot -39.896603
 1289         n3     50    ccc     N2   1289 -0.49292700  14.010000   ; qtot -40.389530
 1290         c3     50    ccc     C5   1290 0.00117700  12.010000   ; qtot -40.388353
 1291         c3     50    ccc     C6   1291 0.00117700  12.010000   ; qtot -40.387176
 1292         h1     50    ccc     H9   1292 0.05345200   1.008000   ; qtot -40.333724
 1293         c3     50    ccc     C7   1293 0.03104100  12.010000   ; qtot -40.302683
 1294         h1     50    ccc    H10   1294 0.05345200   1.008000   ; qtot -40.249231
 1295         hc     50    ccc    H11   1295 -0.03377200   1.008000   ; qtot -40.283003
 1296         hc     50    ccc    H12   1296 -0.03377200   1.008000   ; qtot -40.316775
 1297          c     50    ccc     C8   1297 0.93072900  12.010000   ; qtot -39.386046
 1298          o     50    ccc     O2   1298 -0.90377100  16.000000   ; qtot -40.289817
 1299          o     50    ccc     O3   1299 -0.90377100  16.000000   ; qtot -41.193588
 1300         h1     50    ccc    H13   1300 0.05345200   1.008000   ; qtot -41.140136
 1301         h1     50    ccc    H14   1301 0.05345200   1.008000   ; qtot -41.086684
 1302         c3     50    ccc     C9   1302 0.03104100  12.010000   ; qtot -41.055643
 1303         hc     50    ccc    H15   1303 -0.03377200   1.008000   ; qtot -41.089415
 1304         hc     50    ccc    H16   1304 -0.03377200   1.008000   ; qtot -41.123187
 1305          c     50    ccc    C10   1305 0.93072900  12.010000   ; qtot -40.192458
 1306          o     50    ccc     O4   1306 -0.90377100  16.000000   ; qtot -41.096229
 1307          o     50    ccc     O5   1307 -0.90377100  16.000000   ; qtot -42.000000
; residue   51 ccc rtp ccc q -2.0
 1308          n     51    ccc     N1   1308 -0.63700000  14.010000   ; qtot -42.637000
 1309         hn     51    ccc     H4   1309 0.34234400   1.008000   ; qtot -42.294656
 1310         c3     51    ccc     C3   1310 0.01091100  12.010000   ; qtot -42.283745
 1311         h1     51    ccc     H5   1311 0.11190000   1.008000   ; qtot -42.171845
 1312         c3     51    ccc     C4   1312 -0.06161800  12.010000   ; qtot -42.233463
 1313         h1     51    ccc     H6   1313 0.11190000   1.008000   ; qtot -42.121563
 1314         h1     51    ccc     H7   1314 0.11248000   1.008000   ; qtot -42.009083
 1315         h1     51    ccc     H8   1315 0.11248000   1.008000   ; qtot -41.896603
 1316         n3     51    ccc     N2   1316 -0.49292700  14.010000   ; qtot -42.389530
 1317         c3     51    ccc     C5   1317 0.00117700  12.010000   ; qtot -42.388353
 1318         c3     51    ccc     C6   1318 0.00117700  12.010000   ; qtot -42.387176
 1319         h1     51    ccc     H9   1319 0.05345200   1.008000   ; qtot -42.333724
 1320         c3     51    ccc     C7   1320 0.03104100  12.010000   ; qtot -42.302683
 1321         h1     51    ccc    H10   1321 0.05345200   1.008000   ; qtot -42.249231
 1322         hc     51    ccc    H11   1322 -0.03377200   1.008000   ; qtot -42.283003
 1323         hc     51    ccc    H12   1323 -0.03377200   1.008000   ; qtot -42.316775
 1324          c     51    ccc     C8   1324 0.93072900  12.010000   ; qtot -41.386046
 1325          o     51    ccc     O2   1325 -0.90377100  16.000000   ; qtot -42.289817
 1326          o     51    ccc     O3   1326 -0.90377100  16.000000   ; qtot -43.193588
 1327         h1     51    ccc    H13   1327 0.05345200   1.008000   ; qtot -43.140136
 1328         h1     51    ccc    H14   1328 0.05345200   1.008000   ; qtot -43.086684
 1329         c3     51    ccc     C9   1329 0.03104100  12.010000   ; qtot -43.055643
 1330         hc     51    ccc    H15   1330 -0.03377200   1.008000   ; qtot -43.089415
 1331         hc     51    ccc    H16   1331 -0.03377200   1.008000   ; qtot -43.123187
 1332          c     51    ccc    C10   1332 0.93072900  12.010000   ; qtot -42.192458
 1333          o     51    ccc     O4   1333 -0.90377100  16.000000   ; qtot -43.096229
 1334          o     51    ccc     O5   1334 -0.90377100  16.000000   ; qtot -44.000000
; residue   52 ccc rtp ccc q -2.0
 1335          n     52    ccc     N1   1335 -0.63700000  14.010000   ; qtot -44.637000
 1336         hn     52    ccc     H4   1336 0.34234400   1.008000   ; qtot -44.294656
 1337         c3     52    ccc     C3   1337 0.01091100  12.010000   ; qtot -44.283745
 1338         h1     52    ccc     H5   1338 0.11190000   1.008000   ; qtot -44.171845
 1339         c3     52    ccc     C4   1339 -0.06161800  12.010000   ; qtot -44.233463
 1340         h1     52    ccc     H6   1340 0.11190000   1.008000   ; qtot -44.121563
 1341         h1     52    ccc     H7   1341 0.11248000   1.008000   ; qtot -44.009083
 1342         h1     52    ccc     H8   1342 0.11248000   1.008000   ; qtot -43.896603
 1343         n3     52    ccc     N2   1343 -0.49292700  14.010000   ; qtot -44.389530
 1344         c3     52    ccc     C5   1344 0.00117700  12.010000   ; qtot -44.388353
 1345         c3     52    ccc     C6   1345 0.00117700  12.010000   ; qtot -44.387176
 1346         h1     52    ccc     H9   1346 0.05345200   1.008000   ; qtot -44.333724
 1347         c3     52    ccc     C7   1347 0.03104100  12.010000   ; qtot -44.302683
 1348         h1     52    ccc    H10   1348 0.05345200   1.008000   ; qtot -44.249231
 1349         hc     52    ccc    H11   1349 -0.03377200   1.008000   ; qtot -44.283003
 1350         hc     52    ccc    H12   1350 -0.03377200   1.008000   ; qtot -44.316775
 1351          c     52    ccc     C8   1351 0.93072900  12.010000   ; qtot -43.386046
 1352          o     52    ccc     O2   1352 -0.90377100  16.000000   ; qtot -44.289817
 1353          o     52    ccc     O3   1353 -0.90377100  16.000000   ; qtot -45.193588
 1354         h1     52    ccc    H13   1354 0.05345200   1.008000   ; qtot -45.140136
 1355         h1     52    ccc    H14   1355 0.05345200   1.008000   ; qtot -45.086684
 1356         c3     52    ccc     C9   1356 0.03104100  12.010000   ; qtot -45.055643
 1357         hc     52    ccc    H15   1357 -0.03377200   1.008000   ; qtot -45.089415
 1358         hc     52    ccc    H16   1358 -0.03377200   1.008000   ; qtot -45.123187
 1359          c     52    ccc    C10   1359 0.93072900  12.010000   ; qtot -44.192458
 1360          o     52    ccc     O4   1360 -0.90377100  16.000000   ; qtot -45.096229
 1361          o     52    ccc     O5   1361 -0.90377100  16.000000   ; qtot -46.000000
; residue   53 ccc rtp ccc q -2.0
 1362          n     53    ccc     N1   1362 -0.63700000  14.010000   ; qtot -46.637000
 1363         hn     53    ccc     H4   1363 0.34234400   1.008000   ; qtot -46.294656
 1364         c3     53    ccc     C3   1364 0.01091100  12.010000   ; qtot -46.283745
 1365         h1     53    ccc     H5   1365 0.11190000   1.008000   ; qtot -46.171845
 1366         c3     53    ccc     C4   1366 -0.06161800  12.010000   ; qtot -46.233463
 1367         h1     53    ccc     H6   1367 0.11190000   1.008000   ; qtot -46.121563
 1368         h1     53    ccc     H7   1368 0.11248000   1.008000   ; qtot -46.009083
 1369         h1     53    ccc     H8   1369 0.11248000   1.008000   ; qtot -45.896603
 1370         n3     53    ccc     N2   1370 -0.49292700  14.010000   ; qtot -46.389530
 1371         c3     53    ccc     C5   1371 0.00117700  12.010000   ; qtot -46.388353
 1372         c3     53    ccc     C6   1372 0.00117700  12.010000   ; qtot -46.387176
 1373         h1     53    ccc     H9   1373 0.05345200   1.008000   ; qtot -46.333724
 1374         c3     53    ccc     C7   1374 0.03104100  12.010000   ; qtot -46.302683
 1375         h1     53    ccc    H10   1375 0.05345200   1.008000   ; qtot -46.249231
 1376         hc     53    ccc    H11   1376 -0.03377200   1.008000   ; qtot -46.283003
 1377         hc     53    ccc    H12   1377 -0.03377200   1.008000   ; qtot -46.316775
 1378          c     53    ccc     C8   1378 0.93072900  12.010000   ; qtot -45.386046
 1379          o     53    ccc     O2   1379 -0.90377100  16.000000   ; qtot -46.289817
 1380          o     53    ccc     O3   1380 -0.90377100  16.000000   ; qtot -47.193588
 1381         h1     53    ccc    H13   1381 0.05345200   1.008000   ; qtot -47.140136
 1382         h1     53    ccc    H14   1382 0.05345200   1.008000   ; qtot -47.086684
 1383         c3     53    ccc     C9   1383 0.03104100  12.010000   ; qtot -47.055643
 1384         hc     53    ccc    H15   1384 -0.03377200   1.008000   ; qtot -47.089415
 1385         hc     53    ccc    H16   1385 -0.03377200   1.008000   ; qtot -47.123187
 1386          c     53    ccc    C10   1386 0.93072900  12.010000   ; qtot -46.192458
 1387          o     53    ccc     O4   1387 -0.90377100  16.000000   ; qtot -47.096229
 1388          o     53    ccc     O5   1388 -0.90377100  16.000000   ; qtot -48.000000
; residue   54 ccc rtp ccc q -2.0
 1389          n     54    ccc     N1   1389 -0.63700000  14.010000   ; qtot -48.637000
 1390         hn     54    ccc     H4   1390 0.34234400   1.008000   ; qtot -48.294656
 1391         c3     54    ccc     C3   1391 0.01091100  12.010000   ; qtot -48.283745
 1392         h1     54    ccc     H5   1392 0.11190000   1.008000   ; qtot -48.171845
 1393         c3     54    ccc     C4   1393 -0.06161800  12.010000   ; qtot -48.233463
 1394         h1     54    ccc     H6   1394 0.11190000   1.008000   ; qtot -48.121563
 1395         h1     54    ccc     H7   1395 0.11248000   1.008000   ; qtot -48.009083
 1396         h1     54    ccc     H8   1396 0.11248000   1.008000   ; qtot -47.896603
 1397         n3     54    ccc     N2   1397 -0.49292700  14.010000   ; qtot -48.389530
 1398         c3     54    ccc     C5   1398 0.00117700  12.010000   ; qtot -48.388353
 1399         c3     54    ccc     C6   1399 0.00117700  12.010000   ; qtot -48.387176
 1400         h1     54    ccc     H9   1400 0.05345200   1.008000   ; qtot -48.333724
 1401         c3     54    ccc     C7   1401 0.03104100  12.010000   ; qtot -48.302683
 1402         h1     54    ccc    H10   1402 0.05345200   1.008000   ; qtot -48.249231
 1403         hc     54    ccc    H11   1403 -0.03377200   1.008000   ; qtot -48.283003
 1404         hc     54    ccc    H12   1404 -0.03377200   1.008000   ; qtot -48.316775
 1405          c     54    ccc     C8   1405 0.93072900  12.010000   ; qtot -47.386046
 1406          o     54    ccc     O2   1406 -0.90377100  16.000000   ; qtot -48.289817
 1407          o     54    ccc     O3   1407 -0.90377100  16.000000   ; qtot -49.193588
 1408         h1     54    ccc    H13   1408 0.05345200   1.008000   ; qtot -49.140136
 1409         h1     54    ccc    H14   1409 0.05345200   1.008000   ; qtot -49.086684
 1410         c3     54    ccc     C9   1410 0.03104100  12.010000   ; qtot -49.055643
 1411         hc     54    ccc    H15   1411 -0.03377200   1.008000   ; qtot -49.089415
 1412         hc     54    ccc    H16   1412 -0.03377200   1.008000   ; qtot -49.123187
 1413          c     54    ccc    C10   1413 0.93072900  12.010000   ; qtot -48.192458
 1414          o     54    ccc     O4   1414 -0.90377100  16.000000   ; qtot -49.096229
 1415          o     54    ccc     O5   1415 -0.90377100  16.000000   ; qtot -50.000000
; residue   55 ccc rtp ccc q -2.0
 1416          n     55    ccc     N1   1416 -0.63700000  14.010000   ; qtot -50.637000
 1417         hn     55    ccc     H4   1417 0.34234400   1.008000   ; qtot -50.294656
 1418         c3     55    ccc     C3   1418 0.01091100  12.010000   ; qtot -50.283745
 1419         h1     55    ccc     H5   1419 0.11190000   1.008000   ; qtot -50.171845
 1420         c3     55    ccc     C4   1420 -0.06161800  12.010000   ; qtot -50.233463
 1421         h1     55    ccc     H6   1421 0.11190000   1.008000   ; qtot -50.121563
 1422         h1     55    ccc     H7   1422 0.11248000   1.008000   ; qtot -50.009083
 1423         h1     55    ccc     H8   1423 0.11248000   1.008000   ; qtot -49.896603
 1424         n3     55    ccc     N2   1424 -0.49292700  14.010000   ; qtot -50.389530
 1425         c3     55    ccc     C5   1425 0.00117700  12.010000   ; qtot -50.388353
 1426         c3     55    ccc     C6   1426 0.00117700  12.010000   ; qtot -50.387176
 1427         h1     55    ccc     H9   1427 0.05345200   1.008000   ; qtot -50.333724
 1428         c3     55    ccc     C7   1428 0.03104100  12.010000   ; qtot -50.302683
 1429         h1     55    ccc    H10   1429 0.05345200   1.008000   ; qtot -50.249231
 1430         hc     55    ccc    H11   1430 -0.03377200   1.008000   ; qtot -50.283003
 1431         hc     55    ccc    H12   1431 -0.03377200   1.008000   ; qtot -50.316775
 1432          c     55    ccc     C8   1432 0.93072900  12.010000   ; qtot -49.386046
 1433          o     55    ccc     O2   1433 -0.90377100  16.000000   ; qtot -50.289817
 1434          o     55    ccc     O3   1434 -0.90377100  16.000000   ; qtot -51.193588
 1435         h1     55    ccc    H13   1435 0.05345200   1.008000   ; qtot -51.140136
 1436         h1     55    ccc    H14   1436 0.05345200   1.008000   ; qtot -51.086684
 1437         c3     55    ccc     C9   1437 0.03104100  12.010000   ; qtot -51.055643
 1438         hc     55    ccc    H15   1438 -0.03377200   1.008000   ; qtot -51.089415
 1439         hc     55    ccc    H16   1439 -0.03377200   1.008000   ; qtot -51.123187
 1440          c     55    ccc    C10   1440 0.93072900  12.010000   ; qtot -50.192458
 1441          o     55    ccc     O4   1441 -0.90377100  16.000000   ; qtot -51.096229
 1442          o     55    ccc     O5   1442 -0.90377100  16.000000   ; qtot -52.000000
; residue   56 ccc rtp ccc q -2.0
 1443          n     56    ccc     N1   1443 -0.63700000  14.010000   ; qtot -52.637000
 1444         hn     56    ccc     H4   1444 0.34234400   1.008000   ; qtot -52.294656
 1445         c3     56    ccc     C3   1445 0.01091100  12.010000   ; qtot -52.283745
 1446         h1     56    ccc     H5   1446 0.11190000   1.008000   ; qtot -52.171845
 1447         c3     56    ccc     C4   1447 -0.06161800  12.010000   ; qtot -52.233463
 1448         h1     56    ccc     H6   1448 0.11190000   1.008000   ; qtot -52.121563
 1449         h1     56    ccc     H7   1449 0.11248000   1.008000   ; qtot -52.009083
 1450         h1     56    ccc     H8   1450 0.11248000   1.008000   ; qtot -51.896603
 1451         n3     56    ccc     N2   1451 -0.49292700  14.010000   ; qtot -52.389530
 1452         c3     56    ccc     C5   1452 0.00117700  12.010000   ; qtot -52.388353
 1453         c3     56    ccc     C6   1453 0.00117700  12.010000   ; qtot -52.387176
 1454         h1     56    ccc     H9   1454 0.05345200   1.008000   ; qtot -52.333724
 1455         c3     56    ccc     C7   1455 0.03104100  12.010000   ; qtot -52.302683
 1456         h1     56    ccc    H10   1456 0.05345200   1.008000   ; qtot -52.249231
 1457         hc     56    ccc    H11   1457 -0.03377200   1.008000   ; qtot -52.283003
 1458         hc     56    ccc    H12   1458 -0.03377200   1.008000   ; qtot -52.316775
 1459          c     56    ccc     C8   1459 0.93072900  12.010000   ; qtot -51.386046
 1460          o     56    ccc     O2   1460 -0.90377100  16.000000   ; qtot -52.289817
 1461          o     56    ccc     O3   1461 -0.90377100  16.000000   ; qtot -53.193588
 1462         h1     56    ccc    H13   1462 0.05345200   1.008000   ; qtot -53.140136
 1463         h1     56    ccc    H14   1463 0.05345200   1.008000   ; qtot -53.086684
 1464         c3     56    ccc     C9   1464 0.03104100  12.010000   ; qtot -53.055643
 1465         hc     56    ccc    H15   1465 -0.03377200   1.008000   ; qtot -53.089415
 1466         hc     56    ccc    H16   1466 -0.03377200   1.008000   ; qtot -53.123187
 1467          c     56    ccc    C10   1467 0.93072900  12.010000   ; qtot -52.192458
 1468          o     56    ccc     O4   1468 -0.90377100  16.000000   ; qtot -53.096229
 1469          o     56    ccc     O5   1469 -0.90377100  16.000000   ; qtot -54.000000
; residue   57 ccc rtp ccc q -2.0
 1470          n     57    ccc     N1   1470 -0.63700000  14.010000   ; qtot -54.637000
 1471         hn     57    ccc     H4   1471 0.34234400   1.008000   ; qtot -54.294656
 1472         c3     57    ccc     C3   1472 0.01091100  12.010000   ; qtot -54.283745
 1473         h1     57    ccc     H5   1473 0.11190000   1.008000   ; qtot -54.171845
 1474         c3     57    ccc     C4   1474 -0.06161800  12.010000   ; qtot -54.233463
 1475         h1     57    ccc     H6   1475 0.11190000   1.008000   ; qtot -54.121563
 1476         h1     57    ccc     H7   1476 0.11248000   1.008000   ; qtot -54.009083
 1477         h1     57    ccc     H8   1477 0.11248000   1.008000   ; qtot -53.896603
 1478         n3     57    ccc     N2   1478 -0.49292700  14.010000   ; qtot -54.389530
 1479         c3     57    ccc     C5   1479 0.00117700  12.010000   ; qtot -54.388353
 1480         c3     57    ccc     C6   1480 0.00117700  12.010000   ; qtot -54.387176
 1481         h1     57    ccc     H9   1481 0.05345200   1.008000   ; qtot -54.333724
 1482         c3     57    ccc     C7   1482 0.03104100  12.010000   ; qtot -54.302683
 1483         h1     57    ccc    H10   1483 0.05345200   1.008000   ; qtot -54.249231
 1484         hc     57    ccc    H11   1484 -0.03377200   1.008000   ; qtot -54.283003
 1485         hc     57    ccc    H12   1485 -0.03377200   1.008000   ; qtot -54.316775
 1486          c     57    ccc     C8   1486 0.93072900  12.010000   ; qtot -53.386046
 1487          o     57    ccc     O2   1487 -0.90377100  16.000000   ; qtot -54.289817
 1488          o     57    ccc     O3   1488 -0.90377100  16.000000   ; qtot -55.193588
 1489         h1     57    ccc    H13   1489 0.05345200   1.008000   ; qtot -55.140136
 1490         h1     57    ccc    H14   1490 0.05345200   1.008000   ; qtot -55.086684
 1491         c3     57    ccc     C9   1491 0.03104100  12.010000   ; qtot -55.055643
 1492         hc     57    ccc    H15   1492 -0.03377200   1.008000   ; qtot -55.089415
 1493         hc     57    ccc    H16   1493 -0.03377200   1.008000   ; qtot -55.123187
 1494          c     57    ccc    C10   1494 0.93072900  12.010000   ; qtot -54.192458
 1495          o     57    ccc     O4   1495 -0.90377100  16.000000   ; qtot -55.096229
 1496          o     57    ccc     O5   1496 -0.90377100  16.000000   ; qtot -56.000000
; residue   58 ccc rtp ccc q -2.0
 1497          n     58    ccc     N1   1497 -0.63700000  14.010000   ; qtot -56.637000
 1498         hn     58    ccc     H4   1498 0.34234400   1.008000   ; qtot -56.294656
 1499         c3     58    ccc     C3   1499 0.01091100  12.010000   ; qtot -56.283745
 1500         h1     58    ccc     H5   1500 0.11190000   1.008000   ; qtot -56.171845
 1501         c3     58    ccc     C4   1501 -0.06161800  12.010000   ; qtot -56.233463
 1502         h1     58    ccc     H6   1502 0.11190000   1.008000   ; qtot -56.121563
 1503         h1     58    ccc     H7   1503 0.11248000   1.008000   ; qtot -56.009083
 1504         h1     58    ccc     H8   1504 0.11248000   1.008000   ; qtot -55.896603
 1505         n3     58    ccc     N2   1505 -0.49292700  14.010000   ; qtot -56.389530
 1506         c3     58    ccc     C5   1506 0.00117700  12.010000   ; qtot -56.388353
 1507         c3     58    ccc     C6   1507 0.00117700  12.010000   ; qtot -56.387176
 1508         h1     58    ccc     H9   1508 0.05345200   1.008000   ; qtot -56.333724
 1509         c3     58    ccc     C7   1509 0.03104100  12.010000   ; qtot -56.302683
 1510         h1     58    ccc    H10   1510 0.05345200   1.008000   ; qtot -56.249231
 1511         hc     58    ccc    H11   1511 -0.03377200   1.008000   ; qtot -56.283003
 1512         hc     58    ccc    H12   1512 -0.03377200   1.008000   ; qtot -56.316775
 1513          c     58    ccc     C8   1513 0.93072900  12.010000   ; qtot -55.386046
 1514          o     58    ccc     O2   1514 -0.90377100  16.000000   ; qtot -56.289817
 1515          o     58    ccc     O3   1515 -0.90377100  16.000000   ; qtot -57.193588
 1516         h1     58    ccc    H13   1516 0.05345200   1.008000   ; qtot -57.140136
 1517         h1     58    ccc    H14   1517 0.05345200   1.008000   ; qtot -57.086684
 1518         c3     58    ccc     C9   1518 0.03104100  12.010000   ; qtot -57.055643
 1519         hc     58    ccc    H15   1519 -0.03377200   1.008000   ; qtot -57.089415
 1520         hc     58    ccc    H16   1520 -0.03377200   1.008000   ; qtot -57.123187
 1521          c     58    ccc    C10   1521 0.93072900  12.010000   ; qtot -56.192458
 1522          o     58    ccc     O4   1522 -0.90377100  16.000000   ; qtot -57.096229
 1523          o     58    ccc     O5   1523 -0.90377100  16.000000   ; qtot -58.000000
; residue   59 ccc rtp ccc q -2.0
 1524          n     59    ccc     N1   1524 -0.63700000  14.010000   ; qtot -58.637000
 1525         hn     59    ccc     H4   1525 0.34234400   1.008000   ; qtot -58.294656
 1526         c3     59    ccc     C3   1526 0.01091100  12.010000   ; qtot -58.283745
 1527         h1     59    ccc     H5   1527 0.11190000   1.008000   ; qtot -58.171845
 1528         c3     59    ccc     C4   1528 -0.06161800  12.010000   ; qtot -58.233463
 1529         h1     59    ccc     H6   1529 0.11190000   1.008000   ; qtot -58.121563
 1530         h1     59    ccc     H7   1530 0.11248000   1.008000   ; qtot -58.009083
 1531         h1     59    ccc     H8   1531 0.11248000   1.008000   ; qtot -57.896603
 1532         n3     59    ccc     N2   1532 -0.49292700  14.010000   ; qtot -58.389530
 1533         c3     59    ccc     C5   1533 0.00117700  12.010000   ; qtot -58.388353
 1534         c3     59    ccc     C6   1534 0.00117700  12.010000   ; qtot -58.387176
 1535         h1     59    ccc     H9   1535 0.05345200   1.008000   ; qtot -58.333724
 1536         c3     59    ccc     C7   1536 0.03104100  12.010000   ; qtot -58.302683
 1537         h1     59    ccc    H10   1537 0.05345200   1.008000   ; qtot -58.249231
 1538         hc     59    ccc    H11   1538 -0.03377200   1.008000   ; qtot -58.283003
 1539         hc     59    ccc    H12   1539 -0.03377200   1.008000   ; qtot -58.316775
 1540          c     59    ccc     C8   1540 0.93072900  12.010000   ; qtot -57.386046
 1541          o     59    ccc     O2   1541 -0.90377100  16.000000   ; qtot -58.289817
 1542          o     59    ccc     O3   1542 -0.90377100  16.000000   ; qtot -59.193588
 1543         h1     59    ccc    H13   1543 0.05345200   1.008000   ; qtot -59.140136
 1544         h1     59    ccc    H14   1544 0.05345200   1.008000   ; qtot -59.086684
 1545         c3     59    ccc     C9   1545 0.03104100  12.010000   ; qtot -59.055643
 1546         hc     59    ccc    H15   1546 -0.03377200   1.008000   ; qtot -59.089415
 1547         hc     59    ccc    H16   1547 -0.03377200   1.008000   ; qtot -59.123187
 1548          c     59    ccc    C10   1548 0.93072900  12.010000   ; qtot -58.192458
 1549          o     59    ccc     O4   1549 -0.90377100  16.000000   ; qtot -59.096229
 1550          o     59    ccc     O5   1550 -0.90377100  16.000000   ; qtot -60.000000
; residue   60 ccc rtp ccc q -2.0
 1551          n     60    ccc     N1   1551 -0.63700000  14.010000   ; qtot -60.637000
 1552         hn     60    ccc     H4   1552 0.34234400   1.008000   ; qtot -60.294656
 1553         c3     60    ccc     C3   1553 0.01091100  12.010000   ; qtot -60.283745
 1554         h1     60    ccc     H5   1554 0.11190000   1.008000   ; qtot -60.171845
 1555         c3     60    ccc     C4   1555 -0.06161800  12.010000   ; qtot -60.233463
 1556         h1     60    ccc     H6   1556 0.11190000   1.008000   ; qtot -60.121563
 1557         h1     60    ccc     H7   1557 0.11248000   1.008000   ; qtot -60.009083
 1558         h1     60    ccc     H8   1558 0.11248000   1.008000   ; qtot -59.896603
 1559         n3     60    ccc     N2   1559 -0.49292700  14.010000   ; qtot -60.389530
 1560         c3     60    ccc     C5   1560 0.00117700  12.010000   ; qtot -60.388353
 1561         c3     60    ccc     C6   1561 0.00117700  12.010000   ; qtot -60.387176
 1562         h1     60    ccc     H9   1562 0.05345200   1.008000   ; qtot -60.333724
 1563         c3     60    ccc     C7   1563 0.03104100  12.010000   ; qtot -60.302683
 1564         h1     60    ccc    H10   1564 0.05345200   1.008000   ; qtot -60.249231
 1565         hc     60    ccc    H11   1565 -0.03377200   1.008000   ; qtot -60.283003
 1566         hc     60    ccc    H12   1566 -0.03377200   1.008000   ; qtot -60.316775
 1567          c     60    ccc     C8   1567 0.93072900  12.010000   ; qtot -59.386046
 1568          o     60    ccc     O2   1568 -0.90377100  16.000000   ; qtot -60.289817
 1569          o     60    ccc     O3   1569 -0.90377100  16.000000   ; qtot -61.193588
 1570         h1     60    ccc    H13   1570 0.05345200   1.008000   ; qtot -61.140136
 1571         h1     60    ccc    H14   1571 0.05345200   1.008000   ; qtot -61.086684
 1572         c3     60    ccc     C9   1572 0.03104100  12.010000   ; qtot -61.055643
 1573         hc     60    ccc    H15   1573 -0.03377200   1.008000   ; qtot -61.089415
 1574         hc     60    ccc    H16   1574 -0.03377200   1.008000   ; qtot -61.123187
 1575          c     60    ccc    C10   1575 0.93072900  12.010000   ; qtot -60.192458
 1576          o     60    ccc     O4   1576 -0.90377100  16.000000   ; qtot -61.096229
 1577          o     60    ccc     O5   1577 -0.90377100  16.000000   ; qtot -62.000000
; residue   61 ccc rtp ccc q -2.0
 1578          n     61    ccc     N1   1578 -0.63700000  14.010000   ; qtot -62.637000
 1579         hn     61    ccc     H4   1579 0.34234400   1.008000   ; qtot -62.294656
 1580         c3     61    ccc     C3   1580 0.01091100  12.010000   ; qtot -62.283745
 1581         h1     61    ccc     H5   1581 0.11190000   1.008000   ; qtot -62.171845
 1582         c3     61    ccc     C4   1582 -0.06161800  12.010000   ; qtot -62.233463
 1583         h1     61    ccc     H6   1583 0.11190000   1.008000   ; qtot -62.121563
 1584         h1     61    ccc     H7   1584 0.11248000   1.008000   ; qtot -62.009083
 1585         h1     61    ccc     H8   1585 0.11248000   1.008000   ; qtot -61.896603
 1586         n3     61    ccc     N2   1586 -0.49292700  14.010000   ; qtot -62.389530
 1587         c3     61    ccc     C5   1587 0.00117700  12.010000   ; qtot -62.388353
 1588         c3     61    ccc     C6   1588 0.00117700  12.010000   ; qtot -62.387176
 1589         h1     61    ccc     H9   1589 0.05345200   1.008000   ; qtot -62.333724
 1590         c3     61    ccc     C7   1590 0.03104100  12.010000   ; qtot -62.302683
 1591         h1     61    ccc    H10   1591 0.05345200   1.008000   ; qtot -62.249231
 1592         hc     61    ccc    H11   1592 -0.03377200   1.008000   ; qtot -62.283003
 1593         hc     61    ccc    H12   1593 -0.03377200   1.008000   ; qtot -62.316775
 1594          c     61    ccc     C8   1594 0.93072900  12.010000   ; qtot -61.386046
 1595          o     61    ccc     O2   1595 -0.90377100  16.000000   ; qtot -62.289817
 1596          o     61    ccc     O3   1596 -0.90377100  16.000000   ; qtot -63.193588
 1597         h1     61    ccc    H13   1597 0.05345200   1.008000   ; qtot -63.140136
 1598         h1     61    ccc    H14   1598 0.05345200   1.008000   ; qtot -63.086684
 1599         c3     61    ccc     C9   1599 0.03104100  12.010000   ; qtot -63.055643
 1600         hc     61    ccc    H15   1600 -0.03377200   1.008000   ; qtot -63.089415
 1601         hc     61    ccc    H16   1601 -0.03377200   1.008000   ; qtot -63.123187
 1602          c     61    ccc    C10   1602 0.93072900  12.010000   ; qtot -62.192458
 1603          o     61    ccc     O4   1603 -0.90377100  16.000000   ; qtot -63.096229
 1604          o     61    ccc     O5   1604 -0.90377100  16.000000   ; qtot -64.000000

[ bonds ]
;    ai     aj funct         c0         c1         c2         c3
      1      4     1   0.15375 251793.120000
      1      8     1   0.14647 272713.120000
      4      7     1   0.14647 272713.120000
      7     15     1   0.14647 272713.120000
      7     18     1   0.14647 272713.120000
      8      9     1   0.14647 272713.120000
      8     12     1   0.14647 272713.120000
      9     30     1   0.15375 251793.120000
     12     27     1   0.15375 251793.120000
     15     21     1   0.15375 251793.120000
     18     24     1   0.15375 251793.120000
     21     35     1   0.15241 261918.400000
     24     36     1   0.15241 261918.400000
     27     33     1   0.15241 261918.400000
     30     34     1   0.15241 261918.400000
     33     37     1   0.12183 533627.360000
     33     64     1   0.13789 357815.680000
     34     40     1   0.12183 533627.360000
     34     89     1   0.13789 357815.680000
     35     38     1   0.12183 533627.360000
     35    114     1   0.13789 357815.680000
     36     39     1   0.12183 533627.360000
     36    139     1   0.13789 357815.680000
     41     44     1   0.15375 251793.120000
     41     47     1   0.14647 272713.120000
     44     64     1   0.14619 275056.160000
     47     48     1   0.14647 272713.120000
     47     51     1   0.14647 272713.120000
     48     57     1   0.15375 251793.120000
     51     54     1   0.15375 251793.120000
     54     60     1   0.15241 261918.400000
     57     61     1   0.15241 261918.400000
     60     62     1   0.12183 533627.360000
     60    164     1   0.13789 357815.680000
     61     63     1   0.12183 533627.360000
     61    189     1   0.13789 357815.680000
     66     69     1   0.15375 251793.120000
     66     72     1   0.14647 272713.120000
     69     89     1   0.14619 275056.160000
     72     73     1   0.14647 272713.120000
     72     76     1   0.14647 272713.120000
     73     82     1   0.15375 251793.120000
     76     79     1   0.15375 251793.120000
     79     85     1   0.15241 261918.400000
     82     86     1   0.15241 261918.400000
     85     87     1   0.12183 533627.360000
     85    214     1   0.13789 357815.680000
     86     88     1   0.12183 533627.360000
     86    239     1   0.13789 357815.680000
     91     94     1   0.15375 251793.120000
     91     97     1   0.14647 272713.120000
     94    114     1   0.14619 275056.160000
     97     98     1   0.14647 272713.120000
     97    101     1   0.14647 272713.120000
     98    107     1   0.15375 251793.120000
    101    104     1   0.15375 251793.120000
    104    110     1   0.15241 261918.400000
    107    111     1   0.15241 261918.400000
    110    112     1   0.12183 533627.360000
    110    264     1   0.13789 357815.680000
    111    113     1   0.12183 533627.360000
    111    289     1   0.13789 357815.680000
    116    119     1   0.15375 251793.120000
    116    122     1   0.14647 272713.120000
    119    139     1   0.14619 275056.160000
    122    123     1   0.14647 272713.120000
    122    126     1   0.14647 272713.120000
    123    132     1   0.15375 251793.120000
    126    129     1   0.15375 251793.120000
    129    135     1   0.15241 261918.400000
    132    136     1   0.15241 261918.400000
    135    137     1   0.12183 533627.360000
    135    314     1   0.13789 357815.680000
    136    138     1   0.12183 533627.360000
    136    339     1   0.13789 357815.680000
    141    144     1   0.15375 251793.120000
    141    147     1   0.14647 272713.120000
    144    164     1   0.14619 275056.160000
    147    148     1   0.14647 272713.120000
    147    151     1   0.14647 272713.120000
    148    157     1   0.15375 251793.120000
    151    154     1   0.15375 251793.120000
    154    160     1   0.15241 261918.400000
    157    161     1   0.15241 261918.400000
    160    162     1   0.12183 533627.360000
    160    364     1   0.13789 357815.680000
    161    163     1   0.12183 533627.360000
    161    389     1   0.13789 357815.680000
    166    169     1   0.15375 251793.120000
    166    172     1   0.14647 272713.120000
    169    189     1   0.14619 275056.160000
    172    173     1   0.14647 272713.120000
    172    176     1   0.14647 272713.120000
    173    182     1   0.15375 251793.120000
    176    179     1   0.15375 251793.120000
    179    185     1   0.15241 261918.400000
    182    186     1   0.15241 261918.400000
    185    187     1   0.12183 533627.360000
    185    414     1   0.13789 357815.680000
    186    188     1   0.12183 533627.360000
    186    439     1   0.13789 357815.680000
    191    194     1   0.15375 251793.120000
    191    197     1   0.14647 272713.120000
    194    214     1   0.14619 275056.160000
    197    198     1   0.14647 272713.120000
    197    201     1   0.14647 272713.120000
    198    207     1   0.15375 251793.120000
    201    204     1   0.15375 251793.120000
    204    210     1   0.15241 261918.400000
    207    211     1   0.15241 261918.400000
    210    212     1   0.12183 533627.360000
    210    464     1   0.13789 357815.680000
    211    213     1   0.12183 533627.360000
    211    489     1   0.13789 357815.680000
    216    219     1   0.15375 251793.120000
    216    222     1   0.14647 272713.120000
    219    239     1   0.14619 275056.160000
    222    223     1   0.14647 272713.120000
    222    226     1   0.14647 272713.120000
    223    232     1   0.15375 251793.120000
    226    229     1   0.15375 251793.120000
    229    235     1   0.15241 261918.400000
    232    236     1   0.15241 261918.400000
    235    237     1   0.12183 533627.360000
    235    514     1   0.13789 357815.680000
    236    238     1   0.12183 533627.360000
    236    539     1   0.13789 357815.680000
    241    244     1   0.15375 251793.120000
    241    247     1   0.14647 272713.120000
    244    264     1   0.14619 275056.160000
    247    248     1   0.14647 272713.120000
    247    251     1   0.14647 272713.120000
    248    257     1   0.15375 251793.120000
    251    254     1   0.15375 251793.120000
    254    260     1   0.15241 261918.400000
    257    261     1   0.15241 261918.400000
    260    262     1   0.12183 533627.360000
    260    564     1   0.13789 357815.680000
    261    263     1   0.12183 533627.360000
    261    589     1   0.13789 357815.680000
    266    269     1   0.15375 251793.120000
    266    272     1   0.14647 272713.120000
    269    289     1   0.14619 275056.160000
    272    273     1   0.14647 272713.120000
    272    276     1   0.14647 272713.120000
    273    282     1   0.15375 251793.120000
    276    279     1   0.15375 251793.120000
    279    285     1   0.15241 261918.400000
    282    286     1   0.15241 261918.400000
    285    287     1   0.12183 533627.360000
    285    614     1   0.13789 357815.680000
    286    288     1   0.12183 533627.360000
    286    639     1   0.13789 357815.680000
    291    294     1   0.15375 251793.120000
    291    297     1   0.14647 272713.120000
    294    314     1   0.14619 275056.160000
    297    298     1   0.14647 272713.120000
    297    301     1   0.14647 272713.120000
    298    307     1   0.15375 251793.120000
    301    304     1   0.15375 251793.120000
    304    310     1   0.15241 261918.400000
    307    311     1   0.15241 261918.400000
    310    312     1   0.12183 533627.360000
    310    664     1   0.13789 357815.680000
    311    313     1   0.12183 533627.360000
    311    689     1   0.13789 357815.680000
    316    319     1   0.15375 251793.120000
    316    322     1   0.14647 272713.120000
    319    339     1   0.14619 275056.160000
    322    323     1   0.14647 272713.120000
    322    326     1   0.14647 272713.120000
    323    332     1   0.15375 251793.120000
    326    329     1   0.15375 251793.120000
    329    335     1   0.15241 261918.400000
    332    336     1   0.15241 261918.400000
    335    337     1   0.12183 533627.360000
    335    714     1   0.13789 357815.680000
    336    338     1   0.12183 533627.360000
    336    739     1   0.13789 357815.680000
    341    344     1   0.15375 251793.120000
    341    347     1   0.14647 272713.120000
    344    364     1   0.14619 275056.160000
    347    348     1   0.14647 272713.120000
    347    351     1   0.14647 272713.120000
    348    357     1   0.15375 251793.120000
    351    354     1   0.15375 251793.120000
    354    360     1   0.15241 261918.400000
    357    361     1   0.15241 261918.400000
    360    741     1   0.13789 357815.680000
    360    362     1   0.12183 533627.360000
    361    363     1   0.12183 533627.360000
    361    768     1   0.13789 357815.680000
    366    369     1   0.15375 251793.120000
    366    372     1   0.14647 272713.120000
    369    389     1   0.14619 275056.160000
    372    373     1   0.14647 272713.120000
    372    376     1   0.14647 272713.120000
    373    382     1   0.15375 251793.120000
    376    379     1   0.15375 251793.120000
    379    385     1   0.15241 261918.400000
    382    386     1   0.15241 261918.400000
    385    795     1   0.13789 357815.680000
    385    387     1   0.12183 533627.360000
    386    388     1   0.12183 533627.360000
    386    822     1   0.13789 357815.680000
    391    394     1   0.15375 251793.120000
    391    397     1   0.14647 272713.120000
    394    414     1   0.14619 275056.160000
    397    398     1   0.14647 272713.120000
    397    401     1   0.14647 272713.120000
    398    407     1   0.15375 251793.120000
    401    404     1   0.15375 251793.120000
    404    410     1   0.15241 261918.400000
    407    411     1   0.15241 261918.400000
    410    849     1   0.13789 357815.680000
    410    412     1   0.12183 533627.360000
    411    413     1   0.12183 533627.360000
    411    876     1   0.13789 357815.680000
    416    419     1   0.15375 251793.120000
    416    422     1   0.14647 272713.120000
    419    439     1   0.14619 275056.160000
    422    423     1   0.14647 272713.120000
    422    426     1   0.14647 272713.120000
    423    432     1   0.15375 251793.120000
    426    429     1   0.15375 251793.120000
    429    435     1   0.15241 261918.400000
    432    436     1   0.15241 261918.400000
    435    903     1   0.13789 357815.680000
    435    437     1   0.12183 533627.360000
    436    438     1   0.12183 533627.360000
    436    930     1   0.13789 357815.680000
    441    444     1   0.15375 251793.120000
    441    447     1   0.14647 272713.120000
    444    464     1   0.14619 275056.160000
    447    448     1   0.14647 272713.120000
    447    451     1   0.14647 272713.120000
    448    457     1   0.15375 251793.120000
    451    454     1   0.15375 251793.120000
    454    460     1   0.15241 261918.400000
    457    461     1   0.15241 261918.400000
    460    957     1   0.13789 357815.680000
    460    462     1   0.12183 533627.360000
    461    463     1   0.12183 533627.360000
    461    984     1   0.13789 357815.680000
    466    469     1   0.15375 251793.120000
    466    472     1   0.14647 272713.120000
    469    489     1   0.14619 275056.160000
    472    473     1   0.14647 272713.120000
    472    476     1   0.14647 272713.120000
    473    482     1   0.15375 251793.120000
    476    479     1   0.15375 251793.120000
    479    485     1   0.15241 261918.400000
    482    486     1   0.15241 261918.400000
    485   1011     1   0.13789 357815.680000
    485    487     1   0.12183 533627.360000
    486    488     1   0.12183 533627.360000
    486   1038     1   0.13789 357815.680000
    491    494     1   0.15375 251793.120000
    491    497     1   0.14647 272713.120000
    494    514     1   0.14619 275056.160000
    497    498     1   0.14647 272713.120000
    497    501     1   0.14647 272713.120000
    498    507     1   0.15375 251793.120000
    501    504     1   0.15375 251793.120000
    504    510     1   0.15241 261918.400000
    507    511     1   0.15241 261918.400000
    510   1065     1   0.13789 357815.680000
    510    512     1   0.12183 533627.360000
    511    513     1   0.12183 533627.360000
    511   1092     1   0.13789 357815.680000
    516    519     1   0.15375 251793.120000
    516    522     1   0.14647 272713.120000
    519    539     1   0.14619 275056.160000
    522    523     1   0.14647 272713.120000
    522    526     1   0.14647 272713.120000
    523    532     1   0.15375 251793.120000
    526    529     1   0.15375 251793.120000
    529    535     1   0.15241 261918.400000
    532    536     1   0.15241 261918.400000
    535   1119     1   0.13789 357815.680000
    535    537     1   0.12183 533627.360000
    536    538     1   0.12183 533627.360000
    536   1146     1   0.13789 357815.680000
    541    544     1   0.15375 251793.120000
    541    547     1   0.14647 272713.120000
    544    564     1   0.14619 275056.160000
    547    548     1   0.14647 272713.120000
    547    551     1   0.14647 272713.120000
    548    557     1   0.15375 251793.120000
    551    554     1   0.15375 251793.120000
    554    560     1   0.15241 261918.400000
    557    561     1   0.15241 261918.400000
    560   1173     1   0.13789 357815.680000
    560    562     1   0.12183 533627.360000
    561    563     1   0.12183 533627.360000
    561   1200     1   0.13789 357815.680000
    566    569     1   0.15375 251793.120000
    566    572     1   0.14647 272713.120000
    569    589     1   0.14619 275056.160000
    572    573     1   0.14647 272713.120000
    572    576     1   0.14647 272713.120000
    573    582     1   0.15375 251793.120000
    576    579     1   0.15375 251793.120000
    579    585     1   0.15241 261918.400000
    582    586     1   0.15241 261918.400000
    585   1227     1   0.13789 357815.680000
    585    587     1   0.12183 533627.360000
    586    588     1   0.12183 533627.360000
    586   1254     1   0.13789 357815.680000
    591    594     1   0.15375 251793.120000
    591    597     1   0.14647 272713.120000
    594    614     1   0.14619 275056.160000
    597    598     1   0.14647 272713.120000
    597    601     1   0.14647 272713.120000
    598    607     1   0.15375 251793.120000
    601    604     1   0.15375 251793.120000
    604    610     1   0.15241 261918.400000
    607    611     1   0.15241 261918.400000
    610   1281     1   0.13789 357815.680000
    610    612     1   0.12183 533627.360000
    611    613     1   0.12183 533627.360000
    611   1308     1   0.13789 357815.680000
    616    619     1   0.15375 251793.120000
    616    622     1   0.14647 272713.120000
    619    639     1   0.14619 275056.160000
    622    623     1   0.14647 272713.120000
    622    626     1   0.14647 272713.120000
    623    632     1   0.15375 251793.120000
    626    629     1   0.15375 251793.120000
    629    635     1   0.15241 261918.400000
    632    636     1   0.15241 261918.400000
    635   1335     1   0.13789 357815.680000
    635    637     1   0.12183 533627.360000
    636    638     1   0.12183 533627.360000
    636   1362     1   0.13789 357815.680000
    641    644     1   0.15375 251793.120000
    641    647     1   0.14647 272713.120000
    644    664     1   0.14619 275056.160000
    647    648     1   0.14647 272713.120000
    647    651     1   0.14647 272713.120000
    648    657     1   0.15375 251793.120000
    651    654     1   0.15375 251793.120000
    654    660     1   0.15241 261918.400000
    657    661     1   0.15241 261918.400000
    660   1389     1   0.13789 357815.680000
    660    662     1   0.12183 533627.360000
    661    663     1   0.12183 533627.360000
    661   1416     1   0.13789 357815.680000
    666    669     1   0.15375 251793.120000
    666    672     1   0.14647 272713.120000
    669    689     1   0.14619 275056.160000
    672    673     1   0.14647 272713.120000
    672    676     1   0.14647 272713.120000
    673    682     1   0.15375 251793.120000
    676    679     1   0.15375 251793.120000
    679    685     1   0.15241 261918.400000
    682    686     1   0.15241 261918.400000
    685   1443     1   0.13789 357815.680000
    685    687     1   0.12183 533627.360000
    686    688     1   0.12183 533627.360000
    686   1470     1   0.13789 357815.680000
    691    694     1   0.15375 251793.120000
    691    697     1   0.14647 272713.120000
    694    714     1   0.14619 275056.160000
    697    698     1   0.14647 272713.120000
    697    701     1   0.14647 272713.120000
    698    707     1   0.15375 251793.120000
    701    704     1   0.15375 251793.120000
    704    710     1   0.15241 261918.400000
    707    711     1   0.15241 261918.400000
    710   1497     1   0.13789 357815.680000
    710    712     1   0.12183 533627.360000
    711    713     1   0.12183 533627.360000
    711   1524     1   0.13789 357815.680000
    716    719     1   0.15375 251793.120000
    716    722     1   0.14647 272713.120000
    719    739     1   0.14619 275056.160000
    722    723     1   0.14647 272713.120000
    722    726     1   0.14647 272713.120000
    723    732     1   0.15375 251793.120000
    726    729     1   0.15375 251793.120000
    729    735     1   0.15241 261918.400000
    732    736     1   0.15241 261918.400000
    735   1551     1   0.13789 357815.680000
    735    737     1   0.12183 533627.360000
    736   1578     1   0.13789 357815.680000
    736    738     1   0.12183 533627.360000
    741    743     1   0.14619 275056.160000
    743    745     1   0.15375 251793.120000
    745    749     1   0.14647 272713.120000
    749    750     1   0.14647 272713.120000
    749    751     1   0.14647 272713.120000
    750    762     1   0.15375 251793.120000
    751    753     1   0.15375 251793.120000
    753    757     1   0.15241 261918.400000
    757    758     1   0.12183 533627.360000
    757    759     1   0.12183 533627.360000
    762    765     1   0.15241 261918.400000
    765    766     1   0.12183 533627.360000
    765    767     1   0.12183 533627.360000
    768    770     1   0.14619 275056.160000
    770    772     1   0.15375 251793.120000
    772    776     1   0.14647 272713.120000
    776    777     1   0.14647 272713.120000
    776    778     1   0.14647 272713.120000
    777    789     1   0.15375 251793.120000
    778    780     1   0.15375 251793.120000
    780    784     1   0.15241 261918.400000
    784    785     1   0.12183 533627.360000
    784    786     1   0.12183 533627.360000
    789    792     1   0.15241 261918.400000
    792    793     1   0.12183 533627.360000
    792    794     1   0.12183 533627.360000
    795    797     1   0.14619 275056.160000
    797    799     1   0.15375 251793.120000
    799    803     1   0.14647 272713.120000
    803    804     1   0.14647 272713.120000
    803    805     1   0.14647 272713.120000
    804    816     1   0.15375 251793.120000
    805    807     1   0.15375 251793.120000
    807    811     1   0.15241 261918.400000
    811    812     1   0.12183 533627.360000
    811    813     1   0.12183 533627.360000
    816    819     1   0.15241 261918.400000
    819    820     1   0.12183 533627.360000
    819    821     1   0.12183 533627.360000
    822    824     1   0.14619 275056.160000
    824    826     1   0.15375 251793.120000
    826    830     1   0.14647 272713.120000
    830    831     1   0.14647 272713.120000
    830    832     1   0.14647 272713.120000
    831    843     1   0.15375 251793.120000
    832    834     1   0.15375 251793.120000
    834    838     1   0.15241 261918.400000
    838    839     1   0.12183 533627.360000
    838    840     1   0.12183 533627.360000
    843    846     1   0.15241 261918.400000
    846    847     1   0.12183 533627.360000
    846    848     1   0.12183 533627.360000
    849    851     1   0.14619 275056.160000
    851    853     1   0.15375 251793.120000
    853    857     1   0.14647 272713.120000
    857    858     1   0.14647 272713.120000
    857    859     1   0.14647 272713.120000
    858    870     1   0.15375 251793.120000
    859    861     1   0.15375 251793.120000
    861    865     1   0.15241 261918.400000
    865    866     1   0.12183 533627.360000
    865    867     1   0.12183 533627.360000
    870    873     1   0.15241 261918.400000
    873    874     1   0.12183 533627.360000
    873    875     1   0.12183 533627.360000
    876    878     1   0.14619 275056.160000
    878    880     1   0.15375 251793.120000
    880    884     1   0.14647 272713.120000
    884    885     1   0.14647 272713.120000
    884    886     1   0.14647 272713.120000
    885    897     1   0.15375 251793.120000
    886    888     1   0.15375 251793.120000
    888    892     1   0.15241 261918.400000
    892    893     1   0.12183 533627.360000
    892    894     1   0.12183 533627.360000
    897    900     1   0.15241 261918.400000
    900    901     1   0.12183 533627.360000
    900    902     1   0.12183 533627.360000
    903    905     1   0.14619 275056.160000
    905    907     1   0.15375 251793.120000
    907    911     1   0.14647 272713.120000
    911    912     1   0.14647 272713.120000
    911    913     1   0.14647 272713.120000
    912    924     1   0.15375 251793.120000
    913    915     1   0.15375 251793.120000
    915    919     1   0.15241 261918.400000
    919    920     1   0.12183 533627.360000
    919    921     1   0.12183 533627.360000
    924    927     1   0.15241 261918.400000
    927    928     1   0.12183 533627.360000
    927    929     1   0.12183 533627.360000
    930    932     1   0.14619 275056.160000
    932    934     1   0.15375 251793.120000
    934    938     1   0.14647 272713.120000
    938    939     1   0.14647 272713.120000
    938    940     1   0.14647 272713.120000
    939    951     1   0.15375 251793.120000
    940    942     1   0.15375 251793.120000
    942    946     1   0.15241 261918.400000
    946    947     1   0.12183 533627.360000
    946    948     1   0.12183 533627.360000
    951    954     1   0.15241 261918.400000
    954    955     1   0.12183 533627.360000
    954    956     1   0.12183 533627.360000
    957    959     1   0.14619 275056.160000
    959    961     1   0.15375 251793.120000
    961    965     1   0.14647 272713.120000
    965    966     1   0.14647 272713.120000
    965    967     1   0.14647 272713.120000
    966    978     1   0.15375 251793.120000
    967    969     1   0.15375 251793.120000
    969    973     1   0.15241 261918.400000
    973    974     1   0.12183 533627.360000
    973    975     1   0.12183 533627.360000
    978    981     1   0.15241 261918.400000
    981    982     1   0.12183 533627.360000
    981    983     1   0.12183 533627.360000
    984    986     1   0.14619 275056.160000
    986    988     1   0.15375 251793.120000
    988    992     1   0.14647 272713.120000
    992    993     1   0.14647 272713.120000
    992    994     1   0.14647 272713.120000
    993   1005     1   0.15375 251793.120000
    994    996     1   0.15375 251793.120000
    996   1000     1   0.15241 261918.400000
   1000   1001     1   0.12183 533627.360000
   1000   1002     1   0.12183 533627.360000
   1005   1008     1   0.15241 261918.400000
   1008   1009     1   0.12183 533627.360000
   1008   1010     1   0.12183 533627.360000
   1011   1013     1   0.14619 275056.160000
   1013   1015     1   0.15375 251793.120000
   1015   1019     1   0.14647 272713.120000
   1019   1020     1   0.14647 272713.120000
   1019   1021     1   0.14647 272713.120000
   1020   1032     1   0.15375 251793.120000
   1021   1023     1   0.15375 251793.120000
   1023   1027     1   0.15241 261918.400000
   1027   1028     1   0.12183 533627.360000
   1027   1029     1   0.12183 533627.360000
   1032   1035     1   0.15241 261918.400000
   1035   1036     1   0.12183 533627.360000
   1035   1037     1   0.12183 533627.360000
   1038   1040     1   0.14619 275056.160000
   1040   1042     1   0.15375 251793.120000
   1042   1046     1   0.14647 272713.120000
   1046   1047     1   0.14647 272713.120000
   1046   1048     1   0.14647 272713.120000
   1047   1059     1   0.15375 251793.120000
   1048   1050     1   0.15375 251793.120000
   1050   1054     1   0.15241 261918.400000
   1054   1055     1   0.12183 533627.360000
   1054   1056     1   0.12183 533627.360000
   1059   1062     1   0.15241 261918.400000
   1062   1063     1   0.12183 533627.360000
   1062   1064     1   0.12183 533627.360000
   1065   1067     1   0.14619 275056.160000
   1067   1069     1   0.15375 251793.120000
   1069   1073     1   0.14647 272713.120000
   1073   1074     1   0.14647 272713.120000
   1073   1075     1   0.14647 272713.120000
   1074   1086     1   0.15375 251793.120000
   1075   1077     1   0.15375 251793.120000
   1077   1081     1   0.15241 261918.400000
   1081   1082     1   0.12183 533627.360000
   1081   1083     1   0.12183 533627.360000
   1086   1089     1   0.15241 261918.400000
   1089   1090     1   0.12183 533627.360000
   1089   1091     1   0.12183 533627.360000
   1092   1094     1   0.14619 275056.160000
   1094   1096     1   0.15375 251793.120000
   1096   1100     1   0.14647 272713.120000
   1100   1101     1   0.14647 272713.120000
   1100   1102     1   0.14647 272713.120000
   1101   1113     1   0.15375 251793.120000
   1102   1104     1   0.15375 251793.120000
   1104   1108     1   0.15241 261918.400000
   1108   1109     1   0.12183 533627.360000
   1108   1110     1   0.12183 533627.360000
   1113   1116     1   0.15241 261918.400000
   1116   1117     1   0.12183 533627.360000
   1116   1118     1   0.12183 533627.360000
   1119   1121     1   0.14619 275056.160000
   1121   1123     1   0.15375 251793.120000
   1123   1127     1   0.14647 272713.120000
   1127   1128     1   0.14647 272713.120000
   1127   1129     1   0.14647 272713.120000
   1128   1140     1   0.15375 251793.120000
   1129   1131     1   0.15375 251793.120000
   1131   1135     1   0.15241 261918.400000
   1135   1136     1   0.12183 533627.360000
   1135   1137     1   0.12183 533627.360000
   1140   1143     1   0.15241 261918.400000
   1143   1144     1   0.12183 533627.360000
   1143   1145     1   0.12183 533627.360000
   1146   1148     1   0.14619 275056.160000
   1148   1150     1   0.15375 251793.120000
   1150   1154     1   0.14647 272713.120000
   1154   1155     1   0.14647 272713.120000
   1154   1156     1   0.14647 272713.120000
   1155   1167     1   0.15375 251793.120000
   1156   1158     1   0.15375 251793.120000
   1158   1162     1   0.15241 261918.400000
   1162   1163     1   0.12183 533627.360000
   1162   1164     1   0.12183 533627.360000
   1167   1170     1   0.15241 261918.400000
   1170   1171     1   0.12183 533627.360000
   1170   1172     1   0.12183 533627.360000
   1173   1175     1   0.14619 275056.160000
   1175   1177     1   0.15375 251793.120000
   1177   1181     1   0.14647 272713.120000
   1181   1182     1   0.14647 272713.120000
   1181   1183     1   0.14647 272713.120000
   1182   1194     1   0.15375 251793.120000
   1183   1185     1   0.15375 251793.120000
   1185   1189     1   0.15241 261918.400000
   1189   1190     1   0.12183 533627.360000
   1189   1191     1   0.12183 533627.360000
   1194   1197     1   0.15241 261918.400000
   1197   1198     1   0.12183 533627.360000
   1197   1199     1   0.12183 533627.360000
   1200   1202     1   0.14619 275056.160000
   1202   1204     1   0.15375 251793.120000
   1204   1208     1   0.14647 272713.120000
   1208   1209     1   0.14647 272713.120000
   1208   1210     1   0.14647 272713.120000
   1209   1221     1   0.15375 251793.120000
   1210   1212     1   0.15375 251793.120000
   1212   1216     1   0.15241 261918.400000
   1216   1217     1   0.12183 533627.360000
   1216   1218     1   0.12183 533627.360000
   1221   1224     1   0.15241 261918.400000
   1224   1225     1   0.12183 533627.360000
   1224   1226     1   0.12183 533627.360000
   1227   1229     1   0.14619 275056.160000
   1229   1231     1   0.15375 251793.120000
   1231   1235     1   0.14647 272713.120000
   1235   1236     1   0.14647 272713.120000
   1235   1237     1   0.14647 272713.120000
   1236   1248     1   0.15375 251793.120000
   1237   1239     1   0.15375 251793.120000
   1239   1243     1   0.15241 261918.400000
   1243   1244     1   0.12183 533627.360000
   1243   1245     1   0.12183 533627.360000
   1248   1251     1   0.15241 261918.400000
   1251   1252     1   0.12183 533627.360000
   1251   1253     1   0.12183 533627.360000
   1254   1256     1   0.14619 275056.160000
   1256   1258     1   0.15375 251793.120000
   1258   1262     1   0.14647 272713.120000
   1262   1263     1   0.14647 272713.120000
   1262   1264     1   0.14647 272713.120000
   1263   1275     1   0.15375 251793.120000
   1264   1266     1   0.15375 251793.120000
   1266   1270     1   0.15241 261918.400000
   1270   1271     1   0.12183 533627.360000
   1270   1272     1   0.12183 533627.360000
   1275   1278     1   0.15241 261918.400000
   1278   1279     1   0.12183 533627.360000
   1278   1280     1   0.12183 533627.360000
   1281   1283     1   0.14619 275056.160000
   1283   1285     1   0.15375 251793.120000
   1285   1289     1   0.14647 272713.120000
   1289   1290     1   0.14647 272713.120000
   1289   1291     1   0.14647 272713.120000
   1290   1302     1   0.15375 251793.120000
   1291   1293     1   0.15375 251793.120000
   1293   1297     1   0.15241 261918.400000
   1297   1298     1   0.12183 533627.360000
   1297   1299     1   0.12183 533627.360000
   1302   1305     1   0.15241 261918.400000
   1305   1306     1   0.12183 533627.360000
   1305   1307     1   0.12183 533627.360000
   1308   1310     1   0.14619 275056.160000
   1310   1312     1   0.15375 251793.120000
   1312   1316     1   0.14647 272713.120000
   1316   1317     1   0.14647 272713.120000
   1316   1318     1   0.14647 272713.120000
   1317   1329     1   0.15375 251793.120000
   1318   1320     1   0.15375 251793.120000
   1320   1324     1   0.15241 261918.400000
   1324   1325     1   0.12183 533627.360000
   1324   1326     1   0.12183 533627.360000
   1329   1332     1   0.15241 261918.400000
   1332   1333     1   0.12183 533627.360000
   1332   1334     1   0.12183 533627.360000
   1335   1337     1   0.14619 275056.160000
   1337   1339     1   0.15375 251793.120000
   1339   1343     1   0.14647 272713.120000
   1343   1344     1   0.14647 272713.120000
   1343   1345     1   0.14647 272713.120000
   1344   1356     1   0.15375 251793.120000
   1345   1347     1   0.15375 251793.120000
   1347   1351     1   0.15241 261918.400000
   1351   1352     1   0.12183 533627.360000
   1351   1353     1   0.12183 533627.360000
   1356   1359     1   0.15241 261918.400000
   1359   1360     1   0.12183 533627.360000
   1359   1361     1   0.12183 533627.360000
   1362   1364     1   0.14619 275056.160000
   1364   1366     1   0.15375 251793.120000
   1366   1370     1   0.14647 272713.120000
   1370   1371     1   0.14647 272713.120000
   1370   1372     1   0.14647 272713.120000
   1371   1383     1   0.15375 251793.120000
   1372   1374     1   0.15375 251793.120000
   1374   1378     1   0.15241 261918.400000
   1378   1379     1   0.12183 533627.360000
   1378   1380     1   0.12183 533627.360000
   1383   1386     1   0.15241 261918.400000
   1386   1387     1   0.12183 533627.360000
   1386   1388     1   0.12183 533627.360000
   1389   1391     1   0.14619 275056.160000
   1391   1393     1   0.15375 251793.120000
   1393   1397     1   0.14647 272713.120000
   1397   1398     1   0.14647 272713.120000
   1397   1399     1   0.14647 272713.120000
   1398   1410     1   0.15375 251793.120000
   1399   1401     1   0.15375 251793.120000
   1401   1405     1   0.15241 261918.400000
   1405   1406     1   0.12183 533627.360000
   1405   1407     1   0.12183 533627.360000
   1410   1413     1   0.15241 261918.400000
   1413   1414     1   0.12183 533627.360000
   1413   1415     1   0.12183 533627.360000
   1416   1418     1   0.14619 275056.160000
   1418   1420     1   0.15375 251793.120000
   1420   1424     1   0.14647 272713.120000
   1424   1425     1   0.14647 272713.120000
   1424   1426     1   0.14647 272713.120000
   1425   1437     1   0.15375 251793.120000
   1426   1428     1   0.15375 251793.120000
   1428   1432     1   0.15241 261918.400000
   1432   1433     1   0.12183 533627.360000
   1432   1434     1   0.12183 533627.360000
   1437   1440     1   0.15241 261918.400000
   1440   1441     1   0.12183 533627.360000
   1440   1442     1   0.12183 533627.360000
   1443   1445     1   0.14619 275056.160000
   1445   1447     1   0.15375 251793.120000
   1447   1451     1   0.14647 272713.120000
   1451   1452     1   0.14647 272713.120000
   1451   1453     1   0.14647 272713.120000
   1452   1464     1   0.15375 251793.120000
   1453   1455     1   0.15375 251793.120000
   1455   1459     1   0.15241 261918.400000
   1459   1460     1   0.12183 533627.360000
   1459   1461     1   0.12183 533627.360000
   1464   1467     1   0.15241 261918.400000
   1467   1468     1   0.12183 533627.360000
   1467   1469     1   0.12183 533627.360000
   1470   1472     1   0.14619 275056.160000
   1472   1474     1   0.15375 251793.120000
   1474   1478     1   0.14647 272713.120000
   1478   1479     1   0.14647 272713.120000
   1478   1480     1   0.14647 272713.120000
   1479   1491     1   0.15375 251793.120000
   1480   1482     1   0.15375 251793.120000
   1482   1486     1   0.15241 261918.400000
   1486   1487     1   0.12183 533627.360000
   1486   1488     1   0.12183 533627.360000
   1491   1494     1   0.15241 261918.400000
   1494   1495     1   0.12183 533627.360000
   1494   1496     1   0.12183 533627.360000
   1497   1499     1   0.14619 275056.160000
   1499   1501     1   0.15375 251793.120000
   1501   1505     1   0.14647 272713.120000
   1505   1506     1   0.14647 272713.120000
   1505   1507     1   0.14647 272713.120000
   1506   1518     1   0.15375 251793.120000
   1507   1509     1   0.15375 251793.120000
   1509   1513     1   0.15241 261918.400000
   1513   1514     1   0.12183 533627.360000
   1513   1515     1   0.12183 533627.360000
   1518   1521     1   0.15241 261918.400000
   1521   1522     1   0.12183 533627.360000
   1521   1523     1   0.12183 533627.360000
   1524   1526     1   0.14619 275056.160000
   1526   1528     1   0.15375 251793.120000
   1528   1532     1   0.14647 272713.120000
   1532   1533     1   0.14647 272713.120000
   1532   1534     1   0.14647 272713.120000
   1533   1545     1   0.15375 251793.120000
   1534   1536     1   0.15375 251793.120000
   1536   1540     1   0.15241 261918.400000
   1540   1541     1   0.12183 533627.360000
   1540   1542     1   0.12183 533627.360000
   1545   1548     1   0.15241 261918.400000
   1548   1549     1   0.12183 533627.360000
   1548   1550     1   0.12183 533627.360000
   1551   1553     1   0.14619 275056.160000
   1553   1555     1   0.15375 251793.120000
   1555   1559     1   0.14647 272713.120000
   1559   1560     1   0.14647 272713.120000
   1559   1561     1   0.14647 272713.120000
   1560   1572     1   0.15375 251793.120000
   1561   1563     1   0.15375 251793.120000
   1563   1567     1   0.15241 261918.400000
   1567   1568     1   0.12183 533627.360000
   1567   1569     1   0.12183 533627.360000
   1572   1575     1   0.15241 261918.400000
   1575   1576     1   0.12183 533627.360000
   1575   1577     1   0.12183 533627.360000
   1578   1580     1   0.14619 275056.160000
   1580   1582     1   0.15375 251793.120000
   1582   1586     1   0.14647 272713.120000
   1586   1587     1   0.14647 272713.120000
   1586   1588     1   0.14647 272713.120000
   1587   1599     1   0.15375 251793.120000
   1588   1590     1   0.15375 251793.120000
   1590   1594     1   0.15241 261918.400000
   1594   1595     1   0.12183 533627.360000
   1594   1596     1   0.12183 533627.360000
   1599   1602     1   0.15241 261918.400000
   1602   1603     1   0.12183 533627.360000
   1602   1604     1   0.12183 533627.360000
      1      2     1   0.10969 276646.080000
      1      3     1   0.10969 276646.080000
      4      5     1   0.10969 276646.080000
      4      6     1   0.10969 276646.080000
      9     10     1   0.10969 276646.080000
      9     11     1   0.10969 276646.080000
     12     13     1   0.10969 276646.080000
     12     14     1   0.10969 276646.080000
     15     16     1   0.10969 276646.080000
     15     17     1   0.10969 276646.080000
     18     19     1   0.10969 276646.080000
     18     20     1   0.10969 276646.080000
     21     22     1   0.10969 276646.080000
     21     23     1   0.10969 276646.080000
     24     25     1   0.10969 276646.080000
     24     26     1   0.10969 276646.080000
     27     28     1   0.10969 276646.080000
     27     29     1   0.10969 276646.080000
     30     31     1   0.10969 276646.080000
     30     32     1   0.10969 276646.080000
     41     42     1   0.10969 276646.080000
     41     43     1   0.10969 276646.080000
     44     45     1   0.10969 276646.080000
     44     46     1   0.10969 276646.080000
     48     49     1   0.10969 276646.080000
     48     50     1   0.10969 276646.080000
     51     52     1   0.10969 276646.080000
     51     53     1   0.10969 276646.080000
     54     55     1   0.10969 276646.080000
     54     56     1   0.10969 276646.080000
     57     58     1   0.10969 276646.080000
     57     59     1   0.10969 276646.080000
     64     65     1   0.10129 337397.760000
     66     67     1   0.10969 276646.080000
     66     68     1   0.10969 276646.080000
     69     70     1   0.10969 276646.080000
     69     71     1   0.10969 276646.080000
     73     74     1   0.10969 276646.080000
     73     75     1   0.10969 276646.080000
     76     77     1   0.10969 276646.080000
     76     78     1   0.10969 276646.080000
     79     80     1   0.10969 276646.080000
     79     81     1   0.10969 276646.080000
     82     83     1   0.10969 276646.080000
     82     84     1   0.10969 276646.080000
     89     90     1   0.10129 337397.760000
     91     92     1   0.10969 276646.080000
     91     93     1   0.10969 276646.080000
     94     95     1   0.10969 276646.080000
     94     96     1   0.10969 276646.080000
     98     99     1   0.10969 276646.080000
     98    100     1   0.10969 276646.080000
    101    102     1   0.10969 276646.080000
    101    103     1   0.10969 276646.080000
    104    105     1   0.10969 276646.080000
    104    106     1   0.10969 276646.080000
    107    108     1   0.10969 276646.080000
    107    109     1   0.10969 276646.080000
    114    115     1   0.10129 337397.760000
    116    117     1   0.10969 276646.080000
    116    118     1   0.10969 276646.080000
    119    120     1   0.10969 276646.080000
    119    121     1   0.10969 276646.080000
    123    124     1   0.10969 276646.080000
    123    125     1   0.10969 276646.080000
    126    127     1   0.10969 276646.080000
    126    128     1   0.10969 276646.080000
    129    130     1   0.10969 276646.080000
    129    131     1   0.10969 276646.080000
    132    133     1   0.10969 276646.080000
    132    134     1   0.10969 276646.080000
    139    140     1   0.10129 337397.760000
    141    142     1   0.10969 276646.080000
    141    143     1   0.10969 276646.080000
    144    145     1   0.10969 276646.080000
    144    146     1   0.10969 276646.080000
    148    149     1   0.10969 276646.080000
    148    150     1   0.10969 276646.080000
    151    152     1   0.10969 276646.080000
    151    153     1   0.10969 276646.080000
    154    155     1   0.10969 276646.080000
    154    156     1   0.10969 276646.080000
    157    158     1   0.10969 276646.080000
    157    159     1   0.10969 276646.080000
    164    165     1   0.10129 337397.760000
    166    167     1   0.10969 276646.080000
    166    168     1   0.10969 276646.080000
    169    170     1   0.10969 276646.080000
    169    171     1   0.10969 276646.080000
    173    174     1   0.10969 276646.080000
    173    175     1   0.10969 276646.080000
    176    177     1   0.10969 276646.080000
    176    178     1   0.10969 276646.080000
    179    180     1   0.10969 276646.080000
    179    181     1   0.10969 276646.080000
    182    183     1   0.10969 276646.080000
    182    184     1   0.10969 276646.080000
    189    190     1   0.10129 337397.760000
    191    192     1   0.10969 276646.080000
    191    193     1   0.10969 276646.080000
    194    195     1   0.10969 276646.080000
    194    196     1   0.10969 276646.080000
    198    199     1   0.10969 276646.080000
    198    200     1   0.10969 276646.080000
    201    202     1   0.10969 276646.080000
    201    203     1   0.10969 276646.080000
    204    205     1   0.10969 276646.080000
    204    206     1   0.10969 276646.080000
    207    208     1   0.10969 276646.080000
    207    209     1   0.10969 276646.080000
    214    215     1   0.10129 337397.760000
    216    217     1   0.10969 276646.080000
    216    218     1   0.10969 276646.080000
    219    220     1   0.10969 276646.080000
    219    221     1   0.10969 276646.080000
    223    224     1   0.10969 276646.080000
    223    225     1   0.10969 276646.080000
    226    227     1   0.10969 276646.080000
    226    228     1   0.10969 276646.080000
    229    230     1   0.10969 276646.080000
    229    231     1   0.10969 276646.080000
    232    233     1   0.10969 276646.080000
    232    234     1   0.10969 276646.080000
    239    240     1   0.10129 337397.760000
    241    242     1   0.10969 276646.080000
    241    243     1   0.10969 276646.080000
    244    245     1   0.10969 276646.080000
    244    246     1   0.10969 276646.080000
    248    249     1   0.10969 276646.080000
    248    250     1   0.10969 276646.080000
    251    252     1   0.10969 276646.080000
    251    253     1   0.10969 276646.080000
    254    255     1   0.10969 276646.080000
    254    256     1   0.10969 276646.080000
    257    258     1   0.10969 276646.080000
    257    259     1   0.10969 276646.080000
    264    265     1   0.10129 337397.760000
    266    267     1   0.10969 276646.080000
    266    268     1   0.10969 276646.080000
    269    270     1   0.10969 276646.080000
    269    271     1   0.10969 276646.080000
    273    274     1   0.10969 276646.080000
    273    275     1   0.10969 276646.080000
    276    277     1   0.10969 276646.080000
    276    278     1   0.10969 276646.080000
    279    280     1   0.10969 276646.080000
    279    281     1   0.10969 276646.080000
    282    283     1   0.10969 276646.080000
    282    284     1   0.10969 276646.080000
    289    290     1   0.10129 337397.760000
    291    292     1   0.10969 276646.080000
    291    293     1   0.10969 276646.080000
    294    295     1   0.10969 276646.080000
    294    296     1   0.10969 276646.080000
    298    299     1   0.10969 276646.080000
    298    300     1   0.10969 276646.080000
    301    302     1   0.10969 276646.080000
    301    303     1   0.10969 276646.080000
    304    305     1   0.10969 276646.080000
    304    306     1   0.10969 276646.080000
    307    308     1   0.10969 276646.080000
    307    309     1   0.10969 276646.080000
    314    315     1   0.10129 337397.760000
    316    317     1   0.10969 276646.080000
    316    318     1   0.10969 276646.080000
    319    320     1   0.10969 276646.080000
    319    321     1   0.10969 276646.080000
    323    324     1   0.10969 276646.080000
    323    325     1   0.10969 276646.080000
    326    327     1   0.10969 276646.080000
    326    328     1   0.10969 276646.080000
    329    330     1   0.10969 276646.080000
    329    331     1   0.10969 276646.080000
    332    333     1   0.10969 276646.080000
    332    334     1   0.10969 276646.080000
    339    340     1   0.10129 337397.760000
    341    342     1   0.10969 276646.080000
    341    343     1   0.10969 276646.080000
    344    345     1   0.10969 276646.080000
    344    346     1   0.10969 276646.080000
    348    349     1   0.10969 276646.080000
    348    350     1   0.10969 276646.080000
    351    352     1   0.10969 276646.080000
    351    353     1   0.10969 276646.080000
    354    355     1   0.10969 276646.080000
    354    356     1   0.10969 276646.080000
    357    358     1   0.10969 276646.080000
    357    359     1   0.10969 276646.080000
    364    365     1   0.10129 337397.760000
    366    367     1   0.10969 276646.080000
    366    368     1   0.10969 276646.080000
    369    370     1   0.10969 276646.080000
    369    371     1   0.10969 276646.080000
    373    374     1   0.10969 276646.080000
    373    375     1   0.10969 276646.080000
    376    377     1   0.10969 276646.080000
    376    378     1   0.10969 276646.080000
    379    380     1   0.10969 276646.080000
    379    381     1   0.10969 276646.080000
    382    383     1   0.10969 276646.080000
    382    384     1   0.10969 276646.080000
    389    390     1   0.10129 337397.760000
    391    392     1   0.10969 276646.080000
    391    393     1   0.10969 276646.080000
    394    395     1   0.10969 276646.080000
    394    396     1   0.10969 276646.080000
    398    399     1   0.10969 276646.080000
    398    400     1   0.10969 276646.080000
    401    402     1   0.10969 276646.080000
    401    403     1   0.10969 276646.080000
    404    405     1   0.10969 276646.080000
    404    406     1   0.10969 276646.080000
    407    408     1   0.10969 276646.080000
    407    409     1   0.10969 276646.080000
    414    415     1   0.10129 337397.760000
    416    417     1   0.10969 276646.080000
    416    418     1   0.10969 276646.080000
    419    420     1   0.10969 276646.080000
    419    421     1   0.10969 276646.080000
    423    424     1   0.10969 276646.080000
    423    425     1   0.10969 276646.080000
    426    427     1   0.10969 276646.080000
    426    428     1   0.10969 276646.080000
    429    430     1   0.10969 276646.080000
    429    431     1   0.10969 276646.080000
    432    433     1   0.10969 276646.080000
    432    434     1   0.10969 276646.080000
    439    440     1   0.10129 337397.760000
    441    442     1   0.10969 276646.080000
    441    443     1   0.10969 276646.080000
    444    445     1   0.10969 276646.080000
    444    446     1   0.10969 276646.080000
    448    449     1   0.10969 276646.080000
    448    450     1   0.10969 276646.080000
    451    452     1   0.10969 276646.080000
    451    453     1   0.10969 276646.080000
    454    455     1   0.10969 276646.080000
    454    456     1   0.10969 276646.080000
    457    458     1   0.10969 276646.080000
    457    459     1   0.10969 276646.080000
    464    465     1   0.10129 337397.760000
    466    467     1   0.10969 276646.080000
    466    468     1   0.10969 276646.080000
    469    470     1   0.10969 276646.080000
    469    471     1   0.10969 276646.080000
    473    474     1   0.10969 276646.080000
    473    475     1   0.10969 276646.080000
    476    477     1   0.10969 276646.080000
    476    478     1   0.10969 276646.080000
    479    480     1   0.10969 276646.080000
    479    481     1   0.10969 276646.080000
    482    483     1   0.10969 276646.080000
    482    484     1   0.10969 276646.080000
    489    490     1   0.10129 337397.760000
    491    492     1   0.10969 276646.080000
    491    493     1   0.10969 276646.080000
    494    495     1   0.10969 276646.080000
    494    496     1   0.10969 276646.080000
    498    499     1   0.10969 276646.080000
    498    500     1   0.10969 276646.080000
    501    502     1   0.10969 276646.080000
    501    503     1   0.10969 276646.080000
    504    505     1   0.10969 276646.080000
    504    506     1   0.10969 276646.080000
    507    508     1   0.10969 276646.080000
    507    509     1   0.10969 276646.080000
    514    515     1   0.10129 337397.760000
    516    517     1   0.10969 276646.080000
    516    518     1   0.10969 276646.080000
    519    520     1   0.10969 276646.080000
    519    521     1   0.10969 276646.080000
    523    524     1   0.10969 276646.080000
    523    525     1   0.10969 276646.080000
    526    527     1   0.10969 276646.080000
    526    528     1   0.10969 276646.080000
    529    530     1   0.10969 276646.080000
    529    531     1   0.10969 276646.080000
    532    533     1   0.10969 276646.080000
    532    534     1   0.10969 276646.080000
    539    540     1   0.10129 337397.760000
    541    542     1   0.10969 276646.080000
    541    543     1   0.10969 276646.080000
    544    545     1   0.10969 276646.080000
    544    546     1   0.10969 276646.080000
    548    549     1   0.10969 276646.080000
    548    550     1   0.10969 276646.080000
    551    552     1   0.10969 276646.080000
    551    553     1   0.10969 276646.080000
    554    555     1   0.10969 276646.080000
    554    556     1   0.10969 276646.080000
    557    558     1   0.10969 276646.080000
    557    559     1   0.10969 276646.080000
    564    565     1   0.10129 337397.760000
    566    567     1   0.10969 276646.080000
    566    568     1   0.10969 276646.080000
    569    570     1   0.10969 276646.080000
    569    571     1   0.10969 276646.080000
    573    574     1   0.10969 276646.080000
    573    575     1   0.10969 276646.080000
    576    577     1   0.10969 276646.080000
    576    578     1   0.10969 276646.080000
    579    580     1   0.10969 276646.080000
    579    581     1   0.10969 276646.080000
    582    583     1   0.10969 276646.080000
    582    584     1   0.10969 276646.080000
    589    590     1   0.10129 337397.760000
    591    592     1   0.10969 276646.080000
    591    593     1   0.10969 276646.080000
    594    595     1   0.10969 276646.080000
    594    596     1   0.10969 276646.080000
    598    599     1   0.10969 276646.080000
    598    600     1   0.10969 276646.080000
    601    602     1   0.10969 276646.080000
    601    603     1   0.10969 276646.080000
    604    605     1   0.10969 276646.080000
    604    606     1   0.10969 276646.080000
    607    608     1   0.10969 276646.080000
    607    609     1   0.10969 276646.080000
    614    615     1   0.10129 337397.760000
    616    617     1   0.10969 276646.080000
    616    618     1   0.10969 276646.080000
    619    620     1   0.10969 276646.080000
    619    621     1   0.10969 276646.080000
    623    624     1   0.10969 276646.080000
    623    625     1   0.10969 276646.080000
    626    627     1   0.10969 276646.080000
    626    628     1   0.10969 276646.080000
    629    630     1   0.10969 276646.080000
    629    631     1   0.10969 276646.080000
    632    633     1   0.10969 276646.080000
    632    634     1   0.10969 276646.080000
    639    640     1   0.10129 337397.760000
    641    642     1   0.10969 276646.080000
    641    643     1   0.10969 276646.080000
    644    645     1   0.10969 276646.080000
    644    646     1   0.10969 276646.080000
    648    649     1   0.10969 276646.080000
    648    650     1   0.10969 276646.080000
    651    652     1   0.10969 276646.080000
    651    653     1   0.10969 276646.080000
    654    655     1   0.10969 276646.080000
    654    656     1   0.10969 276646.080000
    657    658     1   0.10969 276646.080000
    657    659     1   0.10969 276646.080000
    664    665     1   0.10129 337397.760000
    666    667     1   0.10969 276646.080000
    666    668     1   0.10969 276646.080000
    669    670     1   0.10969 276646.080000
    669    671     1   0.10969 276646.080000
    673    674     1   0.10969 276646.080000
    673    675     1   0.10969 276646.080000
    676    677     1   0.10969 276646.080000
    676    678     1   0.10969 276646.080000
    679    680     1   0.10969 276646.080000
    679    681     1   0.10969 276646.080000
    682    683     1   0.10969 276646.080000
    682    684     1   0.10969 276646.080000
    689    690     1   0.10129 337397.760000
    691    692     1   0.10969 276646.080000
    691    693     1   0.10969 276646.080000
    694    695     1   0.10969 276646.080000
    694    696     1   0.10969 276646.080000
    698    699     1   0.10969 276646.080000
    698    700     1   0.10969 276646.080000
    701    702     1   0.10969 276646.080000
    701    703     1   0.10969 276646.080000
    704    705     1   0.10969 276646.080000
    704    706     1   0.10969 276646.080000
    707    708     1   0.10969 276646.080000
    707    709     1   0.10969 276646.080000
    714    715     1   0.10129 337397.760000
    716    717     1   0.10969 276646.080000
    716    718     1   0.10969 276646.080000
    719    720     1   0.10969 276646.080000
    719    721     1   0.10969 276646.080000
    723    724     1   0.10969 276646.080000
    723    725     1   0.10969 276646.080000
    726    727     1   0.10969 276646.080000
    726    728     1   0.10969 276646.080000
    729    730     1   0.10969 276646.080000
    729    731     1   0.10969 276646.080000
    732    733     1   0.10969 276646.080000
    732    734     1   0.10969 276646.080000
    739    740     1   0.10129 337397.760000
    741    742     1   0.10129 337397.760000
    743    744     1   0.10969 276646.080000
    743    746     1   0.10969 276646.080000
    745    747     1   0.10969 276646.080000
    745    748     1   0.10969 276646.080000
    750    760     1   0.10969 276646.080000
    750    761     1   0.10969 276646.080000
    751    752     1   0.10969 276646.080000
    751    754     1   0.10969 276646.080000
    753    755     1   0.10969 276646.080000
    753    756     1   0.10969 276646.080000
    762    763     1   0.10969 276646.080000
    762    764     1   0.10969 276646.080000
    768    769     1   0.10129 337397.760000
    770    771     1   0.10969 276646.080000
    770    773     1   0.10969 276646.080000
    772    774     1   0.10969 276646.080000
    772    775     1   0.10969 276646.080000
    777    787     1   0.10969 276646.080000
    777    788     1   0.10969 276646.080000
    778    779     1   0.10969 276646.080000
    778    781     1   0.10969 276646.080000
    780    782     1   0.10969 276646.080000
    780    783     1   0.10969 276646.080000
    789    790     1   0.10969 276646.080000
    789    791     1   0.10969 276646.080000
    795    796     1   0.10129 337397.760000
    797    798     1   0.10969 276646.080000
    797    800     1   0.10969 276646.080000
    799    801     1   0.10969 276646.080000
    799    802     1   0.10969 276646.080000
    804    814     1   0.10969 276646.080000
    804    815     1   0.10969 276646.080000
    805    806     1   0.10969 276646.080000
    805    808     1   0.10969 276646.080000
    807    809     1   0.10969 276646.080000
    807    810     1   0.10969 276646.080000
    816    817     1   0.10969 276646.080000
    816    818     1   0.10969 276646.080000
    822    823     1   0.10129 337397.760000
    824    825     1   0.10969 276646.080000
    824    827     1   0.10969 276646.080000
    826    828     1   0.10969 276646.080000
    826    829     1   0.10969 276646.080000
    831    841     1   0.10969 276646.080000
    831    842     1   0.10969 276646.080000
    832    833     1   0.10969 276646.080000
    832    835     1   0.10969 276646.080000
    834    836     1   0.10969 276646.080000
    834    837     1   0.10969 276646.080000
    843    844     1   0.10969 276646.080000
    843    845     1   0.10969 276646.080000
    849    850     1   0.10129 337397.760000
    851    852     1   0.10969 276646.080000
    851    854     1   0.10969 276646.080000
    853    855     1   0.10969 276646.080000
    853    856     1   0.10969 276646.080000
    858    868     1   0.10969 276646.080000
    858    869     1   0.10969 276646.080000
    859    860     1   0.10969 276646.080000
    859    862     1   0.10969 276646.080000
    861    863     1   0.10969 276646.080000
    861    864     1   0.10969 276646.080000
    870    871     1   0.10969 276646.080000
    870    872     1   0.10969 276646.080000
    876    877     1   0.10129 337397.760000
    878    879     1   0.10969 276646.080000
    878    881     1   0.10969 276646.080000
    880    882     1   0.10969 276646.080000
    880    883     1   0.10969 276646.080000
    885    895     1   0.10969 276646.080000
    885    896     1   0.10969 276646.080000
    886    887     1   0.10969 276646.080000
    886    889     1   0.10969 276646.080000
    888    890     1   0.10969 276646.080000
    888    891     1   0.10969 276646.080000
    897    898     1   0.10969 276646.080000
    897    899     1   0.10969 276646.080000
    903    904     1   0.10129 337397.760000
    905    906     1   0.10969 276646.080000
    905    908     1   0.10969 276646.080000
    907    909     1   0.10969 276646.080000
    907    910     1   0.10969 276646.080000
    912    922     1   0.10969 276646.080000
    912    923     1   0.10969 276646.080000
    913    914     1   0.10969 276646.080000
    913    916     1   0.10969 276646.080000
    915    917     1   0.10969 276646.080000
    915    918     1   0.10969 276646.080000
    924    925     1   0.10969 276646.080000
    924    926     1   0.10969 276646.080000
    930    931     1   0.10129 337397.760000
    932    933     1   0.10969 276646.080000
    932    935     1   0.10969 276646.080000
    934    936     1   0.10969 276646.080000
    934    937     1   0.10969 276646.080000
    939    949     1   0.10969 276646.080000
    939    950     1   0.10969 276646.080000
    940    941     1   0.10969 276646.080000
    940    943     1   0.10969 276646.080000
    942    944     1   0.10969 276646.080000
    942    945     1   0.10969 276646.080000
    951    952     1   0.10969 276646.080000
    951    953     1   0.10969 276646.080000
    957    958     1   0.10129 337397.760000
    959    960     1   0.10969 276646.080000
    959    962     1   0.10969 276646.080000
    961    963     1   0.10969 276646.080000
    961    964     1   0.10969 276646.080000
    966    976     1   0.10969 276646.080000
    966    977     1   0.10969 276646.080000
    967    968     1   0.10969 276646.080000
    967    970     1   0.10969 276646.080000
    969    971     1   0.10969 276646.080000
    969    972     1   0.10969 276646.080000
    978    979     1   0.10969 276646.080000
    978    980     1   0.10969 276646.080000
    984    985     1   0.10129 337397.760000
    986    987     1   0.10969 276646.080000
    986    989     1   0.10969 276646.080000
    988    990     1   0.10969 276646.080000
    988    991     1   0.10969 276646.080000
    993   1003     1   0.10969 276646.080000
    993   1004     1   0.10969 276646.080000
    994    995     1   0.10969 276646.080000
    994    997     1   0.10969 276646.080000
    996    998     1   0.10969 276646.080000
    996    999     1   0.10969 276646.080000
   1005   1006     1   0.10969 276646.080000
   1005   1007     1   0.10969 276646.080000
   1011   1012     1   0.10129 337397.760000
   1013   1014     1   0.10969 276646.080000
   1013   1016     1   0.10969 276646.080000
   1015   1017     1   0.10969 276646.080000
   1015   1018     1   0.10969 276646.080000
   1020   1030     1   0.10969 276646.080000
   1020   1031     1   0.10969 276646.080000
   1021   1022     1   0.10969 276646.080000
   1021   1024     1   0.10969 276646.080000
   1023   1025     1   0.10969 276646.080000
   1023   1026     1   0.10969 276646.080000
   1032   1033     1   0.10969 276646.080000
   1032   1034     1   0.10969 276646.080000
   1038   1039     1   0.10129 337397.760000
   1040   1041     1   0.10969 276646.080000
   1040   1043     1   0.10969 276646.080000
   1042   1044     1   0.10969 276646.080000
   1042   1045     1   0.10969 276646.080000
   1047   1057     1   0.10969 276646.080000
   1047   1058     1   0.10969 276646.080000
   1048   1049     1   0.10969 276646.080000
   1048   1051     1   0.10969 276646.080000
   1050   1052     1   0.10969 276646.080000
   1050   1053     1   0.10969 276646.080000
   1059   1060     1   0.10969 276646.080000
   1059   1061     1   0.10969 276646.080000
   1065   1066     1   0.10129 337397.760000
   1067   1068     1   0.10969 276646.080000
   1067   1070     1   0.10969 276646.080000
   1069   1071     1   0.10969 276646.080000
   1069   1072     1   0.10969 276646.080000
   1074   1084     1   0.10969 276646.080000
   1074   1085     1   0.10969 276646.080000
   1075   1076     1   0.10969 276646.080000
   1075   1078     1   0.10969 276646.080000
   1077   1079     1   0.10969 276646.080000
   1077   1080     1   0.10969 276646.080000
   1086   1087     1   0.10969 276646.080000
   1086   1088     1   0.10969 276646.080000
   1092   1093     1   0.10129 337397.760000
   1094   1095     1   0.10969 276646.080000
   1094   1097     1   0.10969 276646.080000
   1096   1098     1   0.10969 276646.080000
   1096   1099     1   0.10969 276646.080000
   1101   1111     1   0.10969 276646.080000
   1101   1112     1   0.10969 276646.080000
   1102   1103     1   0.10969 276646.080000
   1102   1105     1   0.10969 276646.080000
   1104   1106     1   0.10969 276646.080000
   1104   1107     1   0.10969 276646.080000
   1113   1114     1   0.10969 276646.080000
   1113   1115     1   0.10969 276646.080000
   1119   1120     1   0.10129 337397.760000
   1121   1122     1   0.10969 276646.080000
   1121   1124     1   0.10969 276646.080000
   1123   1125     1   0.10969 276646.080000
   1123   1126     1   0.10969 276646.080000
   1128   1138     1   0.10969 276646.080000
   1128   1139     1   0.10969 276646.080000
   1129   1130     1   0.10969 276646.080000
   1129   1132     1   0.10969 276646.080000
   1131   1133     1   0.10969 276646.080000
   1131   1134     1   0.10969 276646.080000
   1140   1141     1   0.10969 276646.080000
   1140   1142     1   0.10969 276646.080000
   1146   1147     1   0.10129 337397.760000
   1148   1149     1   0.10969 276646.080000
   1148   1151     1   0.10969 276646.080000
   1150   1152     1   0.10969 276646.080000
   1150   1153     1   0.10969 276646.080000
   1155   1165     1   0.10969 276646.080000
   1155   1166     1   0.10969 276646.080000
   1156   1157     1   0.10969 276646.080000
   1156   1159     1   0.10969 276646.080000
   1158   1160     1   0.10969 276646.080000
   1158   1161     1   0.10969 276646.080000
   1167   1168     1   0.10969 276646.080000
   1167   1169     1   0.10969 276646.080000
   1173   1174     1   0.10129 337397.760000
   1175   1176     1   0.10969 276646.080000
   1175   1178     1   0.10969 276646.080000
   1177   1179     1   0.10969 276646.080000
   1177   1180     1   0.10969 276646.080000
   1182   1192     1   0.10969 276646.080000
   1182   1193     1   0.10969 276646.080000
   1183   1184     1   0.10969 276646.080000
   1183   1186     1   0.10969 276646.080000
   1185   1187     1   0.10969 276646.080000
   1185   1188     1   0.10969 276646.080000
   1194   1195     1   0.10969 276646.080000
   1194   1196     1   0.10969 276646.080000
   1200   1201     1   0.10129 337397.760000
   1202   1203     1   0.10969 276646.080000
   1202   1205     1   0.10969 276646.080000
   1204   1206     1   0.10969 276646.080000
   1204   1207     1   0.10969 276646.080000
   1209   1219     1   0.10969 276646.080000
   1209   1220     1   0.10969 276646.080000
   1210   1211     1   0.10969 276646.080000
   1210   1213     1   0.10969 276646.080000
   1212   1214     1   0.10969 276646.080000
   1212   1215     1   0.10969 276646.080000
   1221   1222     1   0.10969 276646.080000
   1221   1223     1   0.10969 276646.080000
   1227   1228     1   0.10129 337397.760000
   1229   1230     1   0.10969 276646.080000
   1229   1232     1   0.10969 276646.080000
   1231   1233     1   0.10969 276646.080000
   1231   1234     1   0.10969 276646.080000
   1236   1246     1   0.10969 276646.080000
   1236   1247     1   0.10969 276646.080000
   1237   1238     1   0.10969 276646.080000
   1237   1240     1   0.10969 276646.080000
   1239   1241     1   0.10969 276646.080000
   1239   1242     1   0.10969 276646.080000
   1248   1249     1   0.10969 276646.080000
   1248   1250     1   0.10969 276646.080000
   1254   1255     1   0.10129 337397.760000
   1256   1257     1   0.10969 276646.080000
   1256   1259     1   0.10969 276646.080000
   1258   1260     1   0.10969 276646.080000
   1258   1261     1   0.10969 276646.080000
   1263   1273     1   0.10969 276646.080000
   1263   1274     1   0.10969 276646.080000
   1264   1265     1   0.10969 276646.080000
   1264   1267     1   0.10969 276646.080000
   1266   1268     1   0.10969 276646.080000
   1266   1269     1   0.10969 276646.080000
   1275   1276     1   0.10969 276646.080000
   1275   1277     1   0.10969 276646.080000
   1281   1282     1   0.10129 337397.760000
   1283   1284     1   0.10969 276646.080000
   1283   1286     1   0.10969 276646.080000
   1285   1287     1   0.10969 276646.080000
   1285   1288     1   0.10969 276646.080000
   1290   1300     1   0.10969 276646.080000
   1290   1301     1   0.10969 276646.080000
   1291   1292     1   0.10969 276646.080000
   1291   1294     1   0.10969 276646.080000
   1293   1295     1   0.10969 276646.080000
   1293   1296     1   0.10969 276646.080000
   1302   1303     1   0.10969 276646.080000
   1302   1304     1   0.10969 276646.080000
   1308   1309     1   0.10129 337397.760000
   1310   1311     1   0.10969 276646.080000
   1310   1313     1   0.10969 276646.080000
   1312   1314     1   0.10969 276646.080000
   1312   1315     1   0.10969 276646.080000
   1317   1327     1   0.10969 276646.080000
   1317   1328     1   0.10969 276646.080000
   1318   1319     1   0.10969 276646.080000
   1318   1321     1   0.10969 276646.080000
   1320   1322     1   0.10969 276646.080000
   1320   1323     1   0.10969 276646.080000
   1329   1330     1   0.10969 276646.080000
   1329   1331     1   0.10969 276646.080000
   1335   1336     1   0.10129 337397.760000
   1337   1338     1   0.10969 276646.080000
   1337   1340     1   0.10969 276646.080000
   1339   1341     1   0.10969 276646.080000
   1339   1342     1   0.10969 276646.080000
   1344   1354     1   0.10969 276646.080000
   1344   1355     1   0.10969 276646.080000
   1345   1346     1   0.10969 276646.080000
   1345   1348     1   0.10969 276646.080000
   1347   1349     1   0.10969 276646.080000
   1347   1350     1   0.10969 276646.080000
   1356   1357     1   0.10969 276646.080000
   1356   1358     1   0.10969 276646.080000
   1362   1363     1   0.10129 337397.760000
   1364   1365     1   0.10969 276646.080000
   1364   1367     1   0.10969 276646.080000
   1366   1368     1   0.10969 276646.080000
   1366   1369     1   0.10969 276646.080000
   1371   1381     1   0.10969 276646.080000
   1371   1382     1   0.10969 276646.080000
   1372   1373     1   0.10969 276646.080000
   1372   1375     1   0.10969 276646.080000
   1374   1376     1   0.10969 276646.080000
   1374   1377     1   0.10969 276646.080000
   1383   1384     1   0.10969 276646.080000
   1383   1385     1   0.10969 276646.080000
   1389   1390     1   0.10129 337397.760000
   1391   1392     1   0.10969 276646.080000
   1391   1394     1   0.10969 276646.080000
   1393   1395     1   0.10969 276646.080000
   1393   1396     1   0.10969 276646.080000
   1398   1408     1   0.10969 276646.080000
   1398   1409     1   0.10969 276646.080000
   1399   1400     1   0.10969 276646.080000
   1399   1402     1   0.10969 276646.080000
   1401   1403     1   0.10969 276646.080000
   1401   1404     1   0.10969 276646.080000
   1410   1411     1   0.10969 276646.080000
   1410   1412     1   0.10969 276646.080000
   1416   1417     1   0.10129 337397.760000
   1418   1419     1   0.10969 276646.080000
   1418   1421     1   0.10969 276646.080000
   1420   1422     1   0.10969 276646.080000
   1420   1423     1   0.10969 276646.080000
   1425   1435     1   0.10969 276646.080000
   1425   1436     1   0.10969 276646.080000
   1426   1427     1   0.10969 276646.080000
   1426   1429     1   0.10969 276646.080000
   1428   1430     1   0.10969 276646.080000
   1428   1431     1   0.10969 276646.080000
   1437   1438     1   0.10969 276646.080000
   1437   1439     1   0.10969 276646.080000
   1443   1444     1   0.10129 337397.760000
   1445   1446     1   0.10969 276646.080000
   1445   1448     1   0.10969 276646.080000
   1447   1449     1   0.10969 276646.080000
   1447   1450     1   0.10969 276646.080000
   1452   1462     1   0.10969 276646.080000
   1452   1463     1   0.10969 276646.080000
   1453   1454     1   0.10969 276646.080000
   1453   1456     1   0.10969 276646.080000
   1455   1457     1   0.10969 276646.080000
   1455   1458     1   0.10969 276646.080000
   1464   1465     1   0.10969 276646.080000
   1464   1466     1   0.10969 276646.080000
   1470   1471     1   0.10129 337397.760000
   1472   1473     1   0.10969 276646.080000
   1472   1475     1   0.10969 276646.080000
   1474   1476     1   0.10969 276646.080000
   1474   1477     1   0.10969 276646.080000
   1479   1489     1   0.10969 276646.080000
   1479   1490     1   0.10969 276646.080000
   1480   1481     1   0.10969 276646.080000
   1480   1483     1   0.10969 276646.080000
   1482   1484     1   0.10969 276646.080000
   1482   1485     1   0.10969 276646.080000
   1491   1492     1   0.10969 276646.080000
   1491   1493     1   0.10969 276646.080000
   1497   1498     1   0.10129 337397.760000
   1499   1500     1   0.10969 276646.080000
   1499   1502     1   0.10969 276646.080000
   1501   1503     1   0.10969 276646.080000
   1501   1504     1   0.10969 276646.080000
   1506   1516     1   0.10969 276646.080000
   1506   1517     1   0.10969 276646.080000
   1507   1508     1   0.10969 276646.080000
   1507   1510     1   0.10969 276646.080000
   1509   1511     1   0.10969 276646.080000
   1509   1512     1   0.10969 276646.080000
   1518   1519     1   0.10969 276646.080000
   1518   1520     1   0.10969 276646.080000
   1524   1525     1   0.10129 337397.760000
   1526   1527     1   0.10969 276646.080000
   1526   1529     1   0.10969 276646.080000
   1528   1530     1   0.10969 276646.080000
   1528   1531     1   0.10969 276646.080000
   1533   1543     1   0.10969 276646.080000
   1533   1544     1   0.10969 276646.080000
   1534   1535     1   0.10969 276646.080000
   1534   1537     1   0.10969 276646.080000
   1536   1538     1   0.10969 276646.080000
   1536   1539     1   0.10969 276646.080000
   1545   1546     1   0.10969 276646.080000
   1545   1547     1   0.10969 276646.080000
   1551   1552     1   0.10129 337397.760000
   1553   1554     1   0.10969 276646.080000
   1553   1556     1   0.10969 276646.080000
   1555   1557     1   0.10969 276646.080000
   1555   1558     1   0.10969 276646.080000
   1560   1570     1   0.10969 276646.080000
   1560   1571     1   0.10969 276646.080000
   1561   1562     1   0.10969 276646.080000
   1561   1564     1   0.10969 276646.080000
   1563   1565     1   0.10969 276646.080000
   1563   1566     1   0.10969 276646.080000
   1572   1573     1   0.10969 276646.080000
   1572   1574     1   0.10969 276646.080000
   1578   1579     1   0.10129 337397.760000
   1580   1581     1   0.10969 276646.080000
   1580   1583     1   0.10969 276646.080000
   1582   1584     1   0.10969 276646.080000
   1582   1585     1   0.10969 276646.080000
   1587   1597     1   0.10969 276646.080000
   1587   1598     1   0.10969 276646.080000
   1588   1589     1   0.10969 276646.080000
   1588   1591     1   0.10969 276646.080000
   1590   1592     1   0.10969 276646.080000
   1590   1593     1   0.10969 276646.080000
   1599   1600     1   0.10969 276646.080000
   1599   1601     1   0.10969 276646.080000

[ pairs ]
;    ai     aj funct         c0         c1         c2         c3
      1     15     1
      1     18     1
      1     30     1
      1     27     1
      4      9     1
      4     12     1
      4     21     1
      4     24     1
      8      7     1
      7     35     1
      7     36     1
      8     34     1
      8     33     1
      9     27     1
      9     40     1
      9     89     1
     12     30     1
     12     37     1
     12     64     1
     15     24     1
     15     38     1
     15    114     1
     18     21     1
     18     39     1
     18    139     1
     21     94     1
     24    119     1
     27     44     1
     30     69     1
     33     41     1
     34     66     1
     35     91     1
     36    116     1
     37     44     1
     38     94     1
     39    119     1
     40     69     1
     41     57     1
     41     54     1
     44     48     1
     44     51     1
     47     64     1
     47     61     1
     47     60     1
     48     54     1
     48     63     1
     48    189     1
     51     57     1
     51     62     1
     51    164     1
     54    144     1
     57    169     1
     60    141     1
     61    166     1
     62    144     1
     63    169     1
     66     82     1
     66     79     1
     69     73     1
     69     76     1
     72     89     1
     72     86     1
     72     85     1
     73     79     1
     73     88     1
     73    239     1
     76     82     1
     76     87     1
     76    214     1
     79    194     1
     82    219     1
     85    191     1
     86    216     1
     87    194     1
     88    219     1
     91    107     1
     91    104     1
     94     98     1
     94    101     1
     97    114     1
     97    111     1
     97    110     1
     98    104     1
     98    113     1
     98    289     1
    101    107     1
    101    112     1
    101    264     1
    104    244     1
    107    269     1
    110    241     1
    111    266     1
    112    244     1
    113    269     1
    116    132     1
    116    129     1
    119    123     1
    119    126     1
    122    139     1
    122    136     1
    122    135     1
    123    129     1
    123    138     1
    123    339     1
    126    132     1
    126    137     1
    126    314     1
    129    294     1
    132    319     1
    135    291     1
    136    316     1
    137    294     1
    138    319     1
    141    157     1
    141    154     1
    144    148     1
    144    151     1
    147    164     1
    147    161     1
    147    160     1
    148    154     1
    148    163     1
    148    389     1
    151    157     1
    151    162     1
    151    364     1
    154    344     1
    157    369     1
    160    341     1
    161    366     1
    162    344     1
    163    369     1
    166    182     1
    166    179     1
    169    173     1
    169    176     1
    172    189     1
    172    186     1
    172    185     1
    173    179     1
    173    188     1
    173    439     1
    176    182     1
    176    187     1
    176    414     1
    179    394     1
    182    419     1
    185    391     1
    186    416     1
    187    394     1
    188    419     1
    191    207     1
    191    204     1
    194    198     1
    194    201     1
    197    214     1
    197    211     1
    197    210     1
    198    204     1
    198    213     1
    198    489     1
    201    207     1
    201    212     1
    201    464     1
    204    444     1
    207    469     1
    210    441     1
    211    466     1
    212    444     1
    213    469     1
    216    232     1
    216    229     1
    219    223     1
    219    226     1
    222    239     1
    222    236     1
    222    235     1
    223    229     1
    223    238     1
    223    539     1
    226    232     1
    226    237     1
    226    514     1
    229    494     1
    232    519     1
    235    491     1
    236    516     1
    237    494     1
    238    519     1
    241    257     1
    241    254     1
    244    248     1
    244    251     1
    247    264     1
    247    261     1
    247    260     1
    248    254     1
    248    263     1
    248    589     1
    251    257     1
    251    262     1
    251    564     1
    254    544     1
    257    569     1
    260    541     1
    261    566     1
    262    544     1
    263    569     1
    266    282     1
    266    279     1
    269    273     1
    269    276     1
    272    289     1
    272    286     1
    272    285     1
    273    279     1
    273    288     1
    273    639     1
    276    282     1
    276    287     1
    276    614     1
    279    594     1
    282    619     1
    285    591     1
    286    616     1
    287    594     1
    288    619     1
    291    307     1
    291    304     1
    294    298     1
    294    301     1
    297    314     1
    297    311     1
    297    310     1
    298    304     1
    298    313     1
    298    689     1
    301    307     1
    301    312     1
    301    664     1
    304    644     1
    307    669     1
    310    641     1
    311    666     1
    312    644     1
    313    669     1
    316    332     1
    316    329     1
    319    323     1
    319    326     1
    322    339     1
    322    336     1
    322    335     1
    323    329     1
    323    338     1
    323    739     1
    326    332     1
    326    337     1
    326    714     1
    329    694     1
    332    719     1
    335    691     1
    336    716     1
    337    694     1
    338    719     1
    341    357     1
    341    354     1
    344    348     1
    344    351     1
    347    364     1
    347    361     1
    347    360     1
    348    354     1
    348    363     1
    348    768     1
    351    357     1
    351    741     1
    351    362     1
    354    743     1
    357    770     1
    360    745     1
    361    772     1
    362    743     1
    363    770     1
    366    382     1
    366    379     1
    369    373     1
    369    376     1
    372    389     1
    372    386     1
    372    385     1
    373    379     1
    373    388     1
    373    822     1
    376    382     1
    376    795     1
    376    387     1
    379    797     1
    382    824     1
    385    799     1
    386    826     1
    387    797     1
    388    824     1
    391    407     1
    391    404     1
    394    398     1
    394    401     1
    397    414     1
    397    411     1
    397    410     1
    398    404     1
    398    413     1
    398    876     1
    401    407     1
    401    849     1
    401    412     1
    404    851     1
    407    878     1
    410    853     1
    411    880     1
    412    851     1
    413    878     1
    416    432     1
    416    429     1
    419    423     1
    419    426     1
    422    439     1
    422    436     1
    422    435     1
    423    429     1
    423    438     1
    423    930     1
    426    432     1
    426    903     1
    426    437     1
    429    905     1
    432    932     1
    435    907     1
    436    934     1
    437    905     1
    438    932     1
    441    457     1
    441    454     1
    444    448     1
    444    451     1
    447    464     1
    447    461     1
    447    460     1
    448    454     1
    448    463     1
    448    984     1
    451    457     1
    451    957     1
    451    462     1
    454    959     1
    457    986     1
    460    961     1
    461    988     1
    462    959     1
    463    986     1
    466    482     1
    466    479     1
    469    473     1
    469    476     1
    472    489     1
    472    486     1
    472    485     1
    473    479     1
    473    488     1
    473   1038     1
    476    482     1
    476   1011     1
    476    487     1
    479   1013     1
    482   1040     1
    485   1015     1
    486   1042     1
    487   1013     1
    488   1040     1
    491    507     1
    491    504     1
    494    498     1
    494    501     1
    497    514     1
    497    511     1
    497    510     1
    498    504     1
    498    513     1
    498   1092     1
    501    507     1
    501   1065     1
    501    512     1
    504   1067     1
    507   1094     1
    510   1069     1
    511   1096     1
    512   1067     1
    513   1094     1
    516    532     1
    516    529     1
    519    523     1
    519    526     1
    522    539     1
    522    536     1
    522    535     1
    523    529     1
    523    538     1
    523   1146     1
    526    532     1
    526   1119     1
    526    537     1
    529   1121     1
    532   1148     1
    535   1123     1
    536   1150     1
    537   1121     1
    538   1148     1
    541    557     1
    541    554     1
    544    548     1
    544    551     1
    547    564     1
    547    561     1
    547    560     1
    548    554     1
    548    563     1
    548   1200     1
    551    557     1
    551   1173     1
    551    562     1
    554   1175     1
    557   1202     1
    560   1177     1
    561   1204     1
    562   1175     1
    563   1202     1
    566    582     1
    566    579     1
    569    573     1
    569    576     1
    572    589     1
    572    586     1
    572    585     1
    573    579     1
    573    588     1
    573   1254     1
    576    582     1
    576   1227     1
    576    587     1
    579   1229     1
    582   1256     1
    585   1231     1
    586   1258     1
    587   1229     1
    588   1256     1
    591    607     1
    591    604     1
    594    598     1
    594    601     1
    597    614     1
    597    611     1
    597    610     1
    598    604     1
    598    613     1
    598   1308     1
    601    607     1
    601   1281     1
    601    612     1
    604   1283     1
    607   1310     1
    610   1285     1
    611   1312     1
    612   1283     1
    613   1310     1
    616    632     1
    616    629     1
    619    623     1
    619    626     1
    622    639     1
    622    636     1
    622    635     1
    623    629     1
    623    638     1
    623   1362     1
    626    632     1
    626   1335     1
    626    637     1
    629   1337     1
    632   1364     1
    635   1339     1
    636   1366     1
    637   1337     1
    638   1364     1
    641    657     1
    641    654     1
    644    648     1
    644    651     1
    647    664     1
    647    661     1
    647    660     1
    648    654     1
    648    663     1
    648   1416     1
    651    657     1
    651   1389     1
    651    662     1
    654   1391     1
    657   1418     1
    660   1393     1
    661   1420     1
    662   1391     1
    663   1418     1
    666    682     1
    666    679     1
    669    673     1
    669    676     1
    672    689     1
    672    686     1
    672    685     1
    673    679     1
    673    688     1
    673   1470     1
    676    682     1
    676   1443     1
    676    687     1
    679   1445     1
    682   1472     1
    685   1447     1
    686   1474     1
    687   1445     1
    688   1472     1
    691    707     1
    691    704     1
    694    698     1
    694    701     1
    697    714     1
    697    711     1
    697    710     1
    698    704     1
    698    713     1
    698   1524     1
    701    707     1
    701   1497     1
    701    712     1
    704   1499     1
    707   1526     1
    710   1501     1
    711   1528     1
    712   1499     1
    713   1526     1
    716    732     1
    716    729     1
    719    723     1
    719    726     1
    722    739     1
    722    736     1
    722    735     1
    723    729     1
    723   1578     1
    723    738     1
    726    732     1
    726   1551     1
    726    737     1
    729   1553     1
    732   1580     1
    735   1555     1
    736   1582     1
    737   1553     1
    738   1580     1
    741    749     1
    743    750     1
    743    751     1
    745    762     1
    745    753     1
    749    765     1
    749    757     1
    750    753     1
    750    766     1
    750    767     1
    751    762     1
    751    758     1
    751    759     1
    768    776     1
    770    777     1
    770    778     1
    772    789     1
    772    780     1
    776    792     1
    776    784     1
    777    793     1
    777    794     1
    777    780     1
    778    785     1
    778    786     1
    778    789     1
    795    803     1
    797    804     1
    797    805     1
    799    816     1
    799    807     1
    803    819     1
    803    811     1
    804    807     1
    804    820     1
    804    821     1
    805    816     1
    805    812     1
    805    813     1
    822    830     1
    824    831     1
    824    832     1
    826    843     1
    826    834     1
    830    846     1
    830    838     1
    831    847     1
    831    848     1
    831    834     1
    832    839     1
    832    840     1
    832    843     1
    849    857     1
    851    858     1
    851    859     1
    853    870     1
    853    861     1
    857    873     1
    857    865     1
    858    861     1
    858    874     1
    858    875     1
    859    870     1
    859    866     1
    859    867     1
    876    884     1
    878    885     1
    878    886     1
    880    897     1
    880    888     1
    884    900     1
    884    892     1
    885    901     1
    885    902     1
    885    888     1
    886    893     1
    886    894     1
    886    897     1
    903    911     1
    905    912     1
    905    913     1
    907    924     1
    907    915     1
    911    927     1
    911    919     1
    912    915     1
    912    928     1
    912    929     1
    913    924     1
    913    920     1
    913    921     1
    930    938     1
    932    939     1
    932    940     1
    934    951     1
    934    942     1
    938    954     1
    938    946     1
    939    955     1
    939    956     1
    939    942     1
    940    947     1
    940    948     1
    940    951     1
    957    965     1
    959    966     1
    959    967     1
    961    978     1
    961    969     1
    965    981     1
    965    973     1
    966    969     1
    966    982     1
    966    983     1
    967    978     1
    967    974     1
    967    975     1
    984    992     1
    986    993     1
    986    994     1
    988   1005     1
    988    996     1
    992   1008     1
    992   1000     1
    993   1009     1
    993   1010     1
    993    996     1
    994   1001     1
    994   1002     1
    994   1005     1
   1011   1019     1
   1013   1020     1
   1013   1021     1
   1015   1032     1
   1015   1023     1
   1019   1035     1
   1019   1027     1
   1020   1023     1
   1020   1036     1
   1020   1037     1
   1021   1032     1
   1021   1028     1
   1021   1029     1
   1038   1046     1
   1040   1047     1
   1040   1048     1
   1042   1059     1
   1042   1050     1
   1046   1062     1
   1046   1054     1
   1047   1063     1
   1047   1064     1
   1047   1050     1
   1048   1055     1
   1048   1056     1
   1048   1059     1
   1065   1073     1
   1067   1074     1
   1067   1075     1
   1069   1086     1
   1069   1077     1
   1073   1089     1
   1073   1081     1
   1074   1077     1
   1074   1090     1
   1074   1091     1
   1075   1086     1
   1075   1082     1
   1075   1083     1
   1092   1100     1
   1094   1101     1
   1094   1102     1
   1096   1113     1
   1096   1104     1
   1100   1116     1
   1100   1108     1
   1101   1117     1
   1101   1118     1
   1101   1104     1
   1102   1109     1
   1102   1110     1
   1102   1113     1
   1119   1127     1
   1121   1128     1
   1121   1129     1
   1123   1140     1
   1123   1131     1
   1127   1143     1
   1127   1135     1
   1128   1131     1
   1128   1144     1
   1128   1145     1
   1129   1140     1
   1129   1136     1
   1129   1137     1
   1146   1154     1
   1148   1155     1
   1148   1156     1
   1150   1167     1
   1150   1158     1
   1154   1170     1
   1154   1162     1
   1155   1171     1
   1155   1172     1
   1155   1158     1
   1156   1163     1
   1156   1164     1
   1156   1167     1
   1173   1181     1
   1175   1182     1
   1175   1183     1
   1177   1194     1
   1177   1185     1
   1181   1197     1
   1181   1189     1
   1182   1185     1
   1182   1198     1
   1182   1199     1
   1183   1194     1
   1183   1190     1
   1183   1191     1
   1200   1208     1
   1202   1209     1
   1202   1210     1
   1204   1221     1
   1204   1212     1
   1208   1224     1
   1208   1216     1
   1209   1225     1
   1209   1226     1
   1209   1212     1
   1210   1217     1
   1210   1218     1
   1210   1221     1
   1227   1235     1
   1229   1236     1
   1229   1237     1
   1231   1248     1
   1231   1239     1
   1235   1251     1
   1235   1243     1
   1236   1239     1
   1236   1252     1
   1236   1253     1
   1237   1248     1
   1237   1244     1
   1237   1245     1
   1254   1262     1
   1256   1263     1
   1256   1264     1
   1258   1275     1
   1258   1266     1
   1262   1278     1
   1262   1270     1
   1263   1279     1
   1263   1280     1
   1263   1266     1
   1264   1271     1
   1264   1272     1
   1264   1275     1
   1281   1289     1
   1283   1290     1
   1283   1291     1
   1285   1302     1
   1285   1293     1
   1289   1305     1
   1289   1297     1
   1290   1293     1
   1290   1306     1
   1290   1307     1
   1291   1302     1
   1291   1298     1
   1291   1299     1
   1308   1316     1
   1310   1317     1
   1310   1318     1
   1312   1329     1
   1312   1320     1
   1316   1332     1
   1316   1324     1
   1317   1333     1
   1317   1334     1
   1317   1320     1
   1318   1325     1
   1318   1326     1
   1318   1329     1
   1335   1343     1
   1337   1344     1
   1337   1345     1
   1339   1356     1
   1339   1347     1
   1343   1359     1
   1343   1351     1
   1344   1347     1
   1344   1360     1
   1344   1361     1
   1345   1356     1
   1345   1352     1
   1345   1353     1
   1362   1370     1
   1364   1371     1
   1364   1372     1
   1366   1383     1
   1366   1374     1
   1370   1386     1
   1370   1378     1
   1371   1387     1
   1371   1388     1
   1371   1374     1
   1372   1379     1
   1372   1380     1
   1372   1383     1
   1389   1397     1
   1391   1398     1
   1391   1399     1
   1393   1410     1
   1393   1401     1
   1397   1413     1
   1397   1405     1
   1398   1401     1
   1398   1414     1
   1398   1415     1
   1399   1410     1
   1399   1406     1
   1399   1407     1
   1416   1424     1
   1418   1425     1
   1418   1426     1
   1420   1437     1
   1420   1428     1
   1424   1440     1
   1424   1432     1
   1425   1441     1
   1425   1442     1
   1425   1428     1
   1426   1433     1
   1426   1434     1
   1426   1437     1
   1443   1451     1
   1445   1452     1
   1445   1453     1
   1447   1464     1
   1447   1455     1
   1451   1467     1
   1451   1459     1
   1452   1455     1
   1452   1468     1
   1452   1469     1
   1453   1464     1
   1453   1460     1
   1453   1461     1
   1470   1478     1
   1472   1479     1
   1472   1480     1
   1474   1491     1
   1474   1482     1
   1478   1494     1
   1478   1486     1
   1479   1495     1
   1479   1496     1
   1479   1482     1
   1480   1487     1
   1480   1488     1
   1480   1491     1
   1497   1505     1
   1499   1506     1
   1499   1507     1
   1501   1518     1
   1501   1509     1
   1505   1521     1
   1505   1513     1
   1506   1509     1
   1506   1522     1
   1506   1523     1
   1507   1518     1
   1507   1514     1
   1507   1515     1
   1524   1532     1
   1526   1533     1
   1526   1534     1
   1528   1545     1
   1528   1536     1
   1532   1548     1
   1532   1540     1
   1533   1549     1
   1533   1550     1
   1533   1536     1
   1534   1541     1
   1534   1542     1
   1534   1545     1
   1551   1559     1
   1553   1560     1
   1553   1561     1
   1555   1572     1
   1555   1563     1
   1559   1575     1
   1559   1567     1
   1560   1563     1
   1560   1576     1
   1560   1577     1
   1561   1572     1
   1561   1568     1
   1561   1569     1
   1578   1586     1
   1580   1587     1
   1580   1588     1
   1582   1599     1
   1582   1590     1
   1586   1602     1
   1586   1594     1
   1587   1603     1
   1587   1604     1
   1587   1590     1
   1588   1595     1
   1588   1596     1
   1588   1599     1
      1     10     1
      1     11     1
      1     13     1
      1     14     1
      2      7     1
      2      5     1
      2      6     1
      2      9     1
      2     12     1
      3      7     1
      3      5     1
      3      6     1
      3      9     1
      3     12     1
      4     16     1
      4     17     1
      4     19     1
      4     20     1
      8      5     1
      5     15     1
      5     18     1
      8      6     1
      6     15     1
      6     18     1
      7     22     1
      7     23     1
      7     25     1
      7     26     1
      8     31     1
      8     32     1
      8     28     1
      8     29     1
      9     13     1
      9     14     1
     10     12     1
     10     34     1
     10     31     1
     10     32     1
     11     12     1
     11     34     1
     11     31     1
     11     32     1
     13     33     1
     13     28     1
     13     29     1
     14     33     1
     14     28     1
     14     29     1
     15     19     1
     15     20     1
     16     18     1
     16     35     1
     16     22     1
     16     23     1
     17     18     1
     17     35     1
     17     22     1
     17     23     1
     19     36     1
     19     25     1
     19     26     1
     20     36     1
     20     25     1
     20     26     1
     21    115     1
     22     38     1
     22    114     1
     23     38     1
     23    114     1
     24    140     1
     25     39     1
     25    139     1
     26     39     1
     26    139     1
     27     65     1
     28     37     1
     28     64     1
     29     37     1
     29     64     1
     30     90     1
     31     40     1
     31     89     1
     32     40     1
     32     89     1
     33     45     1
     33     46     1
     34     70     1
     34     71     1
     35     95     1
     35     96     1
     36    120     1
     36    121     1
     37     65     1
     38    115     1
     39    140     1
     40     90     1
     41     65     1
     41     49     1
     41     50     1
     41     52     1
     41     53     1
     42     64     1
     42     45     1
     42     46     1
     42     48     1
     42     51     1
     43     64     1
     43     45     1
     43     46     1
     43     48     1
     43     51     1
     45     47     1
     45     65     1
     46     47     1
     46     65     1
     47     58     1
     47     59     1
     47     55     1
     47     56     1
     48     52     1
     48     53     1
     49     51     1
     49     61     1
     49     58     1
     49     59     1
     50     51     1
     50     61     1
     50     58     1
     50     59     1
     52     60     1
     52     55     1
     52     56     1
     53     60     1
     53     55     1
     53     56     1
     54    165     1
     55     62     1
     55    164     1
     56     62     1
     56    164     1
     57    190     1
     58     63     1
     58    189     1
     59     63     1
     59    189     1
     60    145     1
     60    146     1
     61    170     1
     61    171     1
     62    165     1
     63    190     1
     66     90     1
     66     74     1
     66     75     1
     66     77     1
     66     78     1
     67     89     1
     67     70     1
     67     71     1
     67     73     1
     67     76     1
     68     89     1
     68     70     1
     68     71     1
     68     73     1
     68     76     1
     70     72     1
     70     90     1
     71     72     1
     71     90     1
     72     83     1
     72     84     1
     72     80     1
     72     81     1
     73     77     1
     73     78     1
     74     76     1
     74     86     1
     74     83     1
     74     84     1
     75     76     1
     75     86     1
     75     83     1
     75     84     1
     77     85     1
     77     80     1
     77     81     1
     78     85     1
     78     80     1
     78     81     1
     79    215     1
     80     87     1
     80    214     1
     81     87     1
     81    214     1
     82    240     1
     83     88     1
     83    239     1
     84     88     1
     84    239     1
     85    195     1
     85    196     1
     86    220     1
     86    221     1
     87    215     1
     88    240     1
     91    115     1
     91     99     1
     91    100     1
     91    102     1
     91    103     1
     92    114     1
     92     95     1
     92     96     1
     92     98     1
     92    101     1
     93    114     1
     93     95     1
     93     96     1
     93     98     1
     93    101     1
     95     97     1
     95    115     1
     96     97     1
     96    115     1
     97    108     1
     97    109     1
     97    105     1
     97    106     1
     98    102     1
     98    103     1
     99    101     1
     99    111     1
     99    108     1
     99    109     1
    100    101     1
    100    111     1
    100    108     1
    100    109     1
    102    110     1
    102    105     1
    102    106     1
    103    110     1
    103    105     1
    103    106     1
    104    265     1
    105    112     1
    105    264     1
    106    112     1
    106    264     1
    107    290     1
    108    113     1
    108    289     1
    109    113     1
    109    289     1
    110    245     1
    110    246     1
    111    270     1
    111    271     1
    112    265     1
    113    290     1
    116    140     1
    116    124     1
    116    125     1
    116    127     1
    116    128     1
    117    139     1
    117    120     1
    117    121     1
    117    123     1
    117    126     1
    118    139     1
    118    120     1
    118    121     1
    118    123     1
    118    126     1
    120    122     1
    120    140     1
    121    122     1
    121    140     1
    122    133     1
    122    134     1
    122    130     1
    122    131     1
    123    127     1
    123    128     1
    124    126     1
    124    136     1
    124    133     1
    124    134     1
    125    126     1
    125    136     1
    125    133     1
    125    134     1
    127    135     1
    127    130     1
    127    131     1
    128    135     1
    128    130     1
    128    131     1
    129    315     1
    130    137     1
    130    314     1
    131    137     1
    131    314     1
    132    340     1
    133    138     1
    133    339     1
    134    138     1
    134    339     1
    135    295     1
    135    296     1
    136    320     1
    136    321     1
    137    315     1
    138    340     1
    141    165     1
    141    149     1
    141    150     1
    141    152     1
    141    153     1
    142    164     1
    142    145     1
    142    146     1
    142    148     1
    142    151     1
    143    164     1
    143    145     1
    143    146     1
    143    148     1
    143    151     1
    145    147     1
    145    165     1
    146    147     1
    146    165     1
    147    158     1
    147    159     1
    147    155     1
    147    156     1
    148    152     1
    148    153     1
    149    151     1
    149    161     1
    149    158     1
    149    159     1
    150    151     1
    150    161     1
    150    158     1
    150    159     1
    152    160     1
    152    155     1
    152    156     1
    153    160     1
    153    155     1
    153    156     1
    154    365     1
    155    162     1
    155    364     1
    156    162     1
    156    364     1
    157    390     1
    158    163     1
    158    389     1
    159    163     1
    159    389     1
    160    345     1
    160    346     1
    161    370     1
    161    371     1
    162    365     1
    163    390     1
    166    190     1
    166    174     1
    166    175     1
    166    177     1
    166    178     1
    167    189     1
    167    170     1
    167    171     1
    167    173     1
    167    176     1
    168    189     1
    168    170     1
    168    171     1
    168    173     1
    168    176     1
    170    172     1
    170    190     1
    171    172     1
    171    190     1
    172    183     1
    172    184     1
    172    180     1
    172    181     1
    173    177     1
    173    178     1
    174    176     1
    174    186     1
    174    183     1
    174    184     1
    175    176     1
    175    186     1
    175    183     1
    175    184     1
    177    185     1
    177    180     1
    177    181     1
    178    185     1
    178    180     1
    178    181     1
    179    415     1
    180    187     1
    180    414     1
    181    187     1
    181    414     1
    182    440     1
    183    188     1
    183    439     1
    184    188     1
    184    439     1
    185    395     1
    185    396     1
    186    420     1
    186    421     1
    187    415     1
    188    440     1
    191    215     1
    191    199     1
    191    200     1
    191    202     1
    191    203     1
    192    214     1
    192    195     1
    192    196     1
    192    198     1
    192    201     1
    193    214     1
    193    195     1
    193    196     1
    193    198     1
    193    201     1
    195    197     1
    195    215     1
    196    197     1
    196    215     1
    197    208     1
    197    209     1
    197    205     1
    197    206     1
    198    202     1
    198    203     1
    199    201     1
    199    211     1
    199    208     1
    199    209     1
    200    201     1
    200    211     1
    200    208     1
    200    209     1
    202    210     1
    202    205     1
    202    206     1
    203    210     1
    203    205     1
    203    206     1
    204    465     1
    205    212     1
    205    464     1
    206    212     1
    206    464     1
    207    490     1
    208    213     1
    208    489     1
    209    213     1
    209    489     1
    210    445     1
    210    446     1
    211    470     1
    211    471     1
    212    465     1
    213    490     1
    216    240     1
    216    224     1
    216    225     1
    216    227     1
    216    228     1
    217    239     1
    217    220     1
    217    221     1
    217    223     1
    217    226     1
    218    239     1
    218    220     1
    218    221     1
    218    223     1
    218    226     1
    220    222     1
    220    240     1
    221    222     1
    221    240     1
    222    233     1
    222    234     1
    222    230     1
    222    231     1
    223    227     1
    223    228     1
    224    226     1
    224    236     1
    224    233     1
    224    234     1
    225    226     1
    225    236     1
    225    233     1
    225    234     1
    227    235     1
    227    230     1
    227    231     1
    228    235     1
    228    230     1
    228    231     1
    229    515     1
    230    237     1
    230    514     1
    231    237     1
    231    514     1
    232    540     1
    233    238     1
    233    539     1
    234    238     1
    234    539     1
    235    495     1
    235    496     1
    236    520     1
    236    521     1
    237    515     1
    238    540     1
    241    265     1
    241    249     1
    241    250     1
    241    252     1
    241    253     1
    242    264     1
    242    245     1
    242    246     1
    242    248     1
    242    251     1
    243    264     1
    243    245     1
    243    246     1
    243    248     1
    243    251     1
    245    247     1
    245    265     1
    246    247     1
    246    265     1
    247    258     1
    247    259     1
    247    255     1
    247    256     1
    248    252     1
    248    253     1
    249    251     1
    249    261     1
    249    258     1
    249    259     1
    250    251     1
    250    261     1
    250    258     1
    250    259     1
    252    260     1
    252    255     1
    252    256     1
    253    260     1
    253    255     1
    253    256     1
    254    565     1
    255    262     1
    255    564     1
    256    262     1
    256    564     1
    257    590     1
    258    263     1
    258    589     1
    259    263     1
    259    589     1
    260    545     1
    260    546     1
    261    570     1
    261    571     1
    262    565     1
    263    590     1
    266    290     1
    266    274     1
    266    275     1
    266    277     1
    266    278     1
    267    289     1
    267    270     1
    267    271     1
    267    273     1
    267    276     1
    268    289     1
    268    270     1
    268    271     1
    268    273     1
    268    276     1
    270    272     1
    270    290     1
    271    272     1
    271    290     1
    272    283     1
    272    284     1
    272    280     1
    272    281     1
    273    277     1
    273    278     1
    274    276     1
    274    286     1
    274    283     1
    274    284     1
    275    276     1
    275    286     1
    275    283     1
    275    284     1
    277    285     1
    277    280     1
    277    281     1
    278    285     1
    278    280     1
    278    281     1
    279    615     1
    280    287     1
    280    614     1
    281    287     1
    281    614     1
    282    640     1
    283    288     1
    283    639     1
    284    288     1
    284    639     1
    285    595     1
    285    596     1
    286    620     1
    286    621     1
    287    615     1
    288    640     1
    291    315     1
    291    299     1
    291    300     1
    291    302     1
    291    303     1
    292    314     1
    292    295     1
    292    296     1
    292    298     1
    292    301     1
    293    314     1
    293    295     1
    293    296     1
    293    298     1
    293    301     1
    295    297     1
    295    315     1
    296    297     1
    296    315     1
    297    308     1
    297    309     1
    297    305     1
    297    306     1
    298    302     1
    298    303     1
    299    301     1
    299    311     1
    299    308     1
    299    309     1
    300    301     1
    300    311     1
    300    308     1
    300    309     1
    302    310     1
    302    305     1
    302    306     1
    303    310     1
    303    305     1
    303    306     1
    304    665     1
    305    312     1
    305    664     1
    306    312     1
    306    664     1
    307    690     1
    308    313     1
    308    689     1
    309    313     1
    309    689     1
    310    645     1
    310    646     1
    311    670     1
    311    671     1
    312    665     1
    313    690     1
    316    340     1
    316    324     1
    316    325     1
    316    327     1
    316    328     1
    317    339     1
    317    320     1
    317    321     1
    317    323     1
    317    326     1
    318    339     1
    318    320     1
    318    321     1
    318    323     1
    318    326     1
    320    322     1
    320    340     1
    321    322     1
    321    340     1
    322    333     1
    322    334     1
    322    330     1
    322    331     1
    323    327     1
    323    328     1
    324    326     1
    324    336     1
    324    333     1
    324    334     1
    325    326     1
    325    336     1
    325    333     1
    325    334     1
    327    335     1
    327    330     1
    327    331     1
    328    335     1
    328    330     1
    328    331     1
    329    715     1
    330    337     1
    330    714     1
    331    337     1
    331    714     1
    332    740     1
    333    338     1
    333    739     1
    334    338     1
    334    739     1
    335    695     1
    335    696     1
    336    720     1
    336    721     1
    337    715     1
    338    740     1
    341    365     1
    341    349     1
    341    350     1
    341    352     1
    341    353     1
    342    364     1
    342    345     1
    342    346     1
    342    348     1
    342    351     1
    343    364     1
    343    345     1
    343    346     1
    343    348     1
    343    351     1
    345    347     1
    345    365     1
    346    347     1
    346    365     1
    347    358     1
    347    359     1
    347    355     1
    347    356     1
    348    352     1
    348    353     1
    349    351     1
    349    361     1
    349    358     1
    349    359     1
    350    351     1
    350    361     1
    350    358     1
    350    359     1
    352    360     1
    352    355     1
    352    356     1
    353    360     1
    353    355     1
    353    356     1
    354    742     1
    355    741     1
    355    362     1
    356    741     1
    356    362     1
    357    769     1
    358    363     1
    358    768     1
    359    363     1
    359    768     1
    360    744     1
    360    746     1
    361    771     1
    361    773     1
    362    742     1
    363    769     1
    366    390     1
    366    374     1
    366    375     1
    366    377     1
    366    378     1
    367    389     1
    367    370     1
    367    371     1
    367    373     1
    367    376     1
    368    389     1
    368    370     1
    368    371     1
    368    373     1
    368    376     1
    370    372     1
    370    390     1
    371    372     1
    371    390     1
    372    383     1
    372    384     1
    372    380     1
    372    381     1
    373    377     1
    373    378     1
    374    376     1
    374    386     1
    374    383     1
    374    384     1
    375    376     1
    375    386     1
    375    383     1
    375    384     1
    377    385     1
    377    380     1
    377    381     1
    378    385     1
    378    380     1
    378    381     1
    379    796     1
    380    795     1
    380    387     1
    381    795     1
    381    387     1
    382    823     1
    383    388     1
    383    822     1
    384    388     1
    384    822     1
    385    798     1
    385    800     1
    386    825     1
    386    827     1
    387    796     1
    388    823     1
    391    415     1
    391    399     1
    391    400     1
    391    402     1
    391    403     1
    392    414     1
    392    395     1
    392    396     1
    392    398     1
    392    401     1
    393    414     1
    393    395     1
    393    396     1
    393    398     1
    393    401     1
    395    397     1
    395    415     1
    396    397     1
    396    415     1
    397    408     1
    397    409     1
    397    405     1
    397    406     1
    398    402     1
    398    403     1
    399    401     1
    399    411     1
    399    408     1
    399    409     1
    400    401     1
    400    411     1
    400    408     1
    400    409     1
    402    410     1
    402    405     1
    402    406     1
    403    410     1
    403    405     1
    403    406     1
    404    850     1
    405    849     1
    405    412     1
    406    849     1
    406    412     1
    407    877     1
    408    413     1
    408    876     1
    409    413     1
    409    876     1
    410    852     1
    410    854     1
    411    879     1
    411    881     1
    412    850     1
    413    877     1
    416    440     1
    416    424     1
    416    425     1
    416    427     1
    416    428     1
    417    439     1
    417    420     1
    417    421     1
    417    423     1
    417    426     1
    418    439     1
    418    420     1
    418    421     1
    418    423     1
    418    426     1
    420    422     1
    420    440     1
    421    422     1
    421    440     1
    422    433     1
    422    434     1
    422    430     1
    422    431     1
    423    427     1
    423    428     1
    424    426     1
    424    436     1
    424    433     1
    424    434     1
    425    426     1
    425    436     1
    425    433     1
    425    434     1
    427    435     1
    427    430     1
    427    431     1
    428    435     1
    428    430     1
    428    431     1
    429    904     1
    430    903     1
    430    437     1
    431    903     1
    431    437     1
    432    931     1
    433    438     1
    433    930     1
    434    438     1
    434    930     1
    435    906     1
    435    908     1
    436    933     1
    436    935     1
    437    904     1
    438    931     1
    441    465     1
    441    449     1
    441    450     1
    441    452     1
    441    453     1
    442    464     1
    442    445     1
    442    446     1
    442    448     1
    442    451     1
    443    464     1
    443    445     1
    443    446     1
    443    448     1
    443    451     1
    445    447     1
    445    465     1
    446    447     1
    446    465     1
    447    458     1
    447    459     1
    447    455     1
    447    456     1
    448    452     1
    448    453     1
    449    451     1
    449    461     1
    449    458     1
    449    459     1
    450    451     1
    450    461     1
    450    458     1
    450    459     1
    452    460     1
    452    455     1
    452    456     1
    453    460     1
    453    455     1
    453    456     1
    454    958     1
    455    957     1
    455    462     1
    456    957     1
    456    462     1
    457    985     1
    458    463     1
    458    984     1
    459    463     1
    459    984     1
    460    960     1
    460    962     1
    461    987     1
    461    989     1
    462    958     1
    463    985     1
    466    490     1
    466    474     1
    466    475     1
    466    477     1
    466    478     1
    467    489     1
    467    470     1
    467    471     1
    467    473     1
    467    476     1
    468    489     1
    468    470     1
    468    471     1
    468    473     1
    468    476     1
    470    472     1
    470    490     1
    471    472     1
    471    490     1
    472    483     1
    472    484     1
    472    480     1
    472    481     1
    473    477     1
    473    478     1
    474    476     1
    474    486     1
    474    483     1
    474    484     1
    475    476     1
    475    486     1
    475    483     1
    475    484     1
    477    485     1
    477    480     1
    477    481     1
    478    485     1
    478    480     1
    478    481     1
    479   1012     1
    480   1011     1
    480    487     1
    481   1011     1
    481    487     1
    482   1039     1
    483    488     1
    483   1038     1
    484    488     1
    484   1038     1
    485   1014     1
    485   1016     1
    486   1041     1
    486   1043     1
    487   1012     1
    488   1039     1
    491    515     1
    491    499     1
    491    500     1
    491    502     1
    491    503     1
    492    514     1
    492    495     1
    492    496     1
    492    498     1
    492    501     1
    493    514     1
    493    495     1
    493    496     1
    493    498     1
    493    501     1
    495    497     1
    495    515     1
    496    497     1
    496    515     1
    497    508     1
    497    509     1
    497    505     1
    497    506     1
    498    502     1
    498    503     1
    499    501     1
    499    511     1
    499    508     1
    499    509     1
    500    501     1
    500    511     1
    500    508     1
    500    509     1
    502    510     1
    502    505     1
    502    506     1
    503    510     1
    503    505     1
    503    506     1
    504   1066     1
    505   1065     1
    505    512     1
    506   1065     1
    506    512     1
    507   1093     1
    508    513     1
    508   1092     1
    509    513     1
    509   1092     1
    510   1068     1
    510   1070     1
    511   1095     1
    511   1097     1
    512   1066     1
    513   1093     1
    516    540     1
    516    524     1
    516    525     1
    516    527     1
    516    528     1
    517    539     1
    517    520     1
    517    521     1
    517    523     1
    517    526     1
    518    539     1
    518    520     1
    518    521     1
    518    523     1
    518    526     1
    520    522     1
    520    540     1
    521    522     1
    521    540     1
    522    533     1
    522    534     1
    522    530     1
    522    531     1
    523    527     1
    523    528     1
    524    526     1
    524    536     1
    524    533     1
    524    534     1
    525    526     1
    525    536     1
    525    533     1
    525    534     1
    527    535     1
    527    530     1
    527    531     1
    528    535     1
    528    530     1
    528    531     1
    529   1120     1
    530   1119     1
    530    537     1
    531   1119     1
    531    537     1
    532   1147     1
    533    538     1
    533   1146     1
    534    538     1
    534   1146     1
    535   1122     1
    535   1124     1
    536   1149     1
    536   1151     1
    537   1120     1
    538   1147     1
    541    565     1
    541    549     1
    541    550     1
    541    552     1
    541    553     1
    542    564     1
    542    545     1
    542    546     1
    542    548     1
    542    551     1
    543    564     1
    543    545     1
    543    546     1
    543    548     1
    543    551     1
    545    547     1
    545    565     1
    546    547     1
    546    565     1
    547    558     1
    547    559     1
    547    555     1
    547    556     1
    548    552     1
    548    553     1
    549    551     1
    549    561     1
    549    558     1
    549    559     1
    550    551     1
    550    561     1
    550    558     1
    550    559     1
    552    560     1
    552    555     1
    552    556     1
    553    560     1
    553    555     1
    553    556     1
    554   1174     1
    555   1173     1
    555    562     1
    556   1173     1
    556    562     1
    557   1201     1
    558    563     1
    558   1200     1
    559    563     1
    559   1200     1
    560   1176     1
    560   1178     1
    561   1203     1
    561   1205     1
    562   1174     1
    563   1201     1
    566    590     1
    566    574     1
    566    575     1
    566    577     1
    566    578     1
    567    589     1
    567    570     1
    567    571     1
    567    573     1
    567    576     1
    568    589     1
    568    570     1
    568    571     1
    568    573     1
    568    576     1
    570    572     1
    570    590     1
    571    572     1
    571    590     1
    572    583     1
    572    584     1
    572    580     1
    572    581     1
    573    577     1
    573    578     1
    574    576     1
    574    586     1
    574    583     1
    574    584     1
    575    576     1
    575    586     1
    575    583     1
    575    584     1
    577    585     1
    577    580     1
    577    581     1
    578    585     1
    578    580     1
    578    581     1
    579   1228     1
    580   1227     1
    580    587     1
    581   1227     1
    581    587     1
    582   1255     1
    583    588     1
    583   1254     1
    584    588     1
    584   1254     1
    585   1230     1
    585   1232     1
    586   1257     1
    586   1259     1
    587   1228     1
    588   1255     1
    591    615     1
    591    599     1
    591    600     1
    591    602     1
    591    603     1
    592    614     1
    592    595     1
    592    596     1
    592    598     1
    592    601     1
    593    614     1
    593    595     1
    593    596     1
    593    598     1
    593    601     1
    595    597     1
    595    615     1
    596    597     1
    596    615     1
    597    608     1
    597    609     1
    597    605     1
    597    606     1
    598    602     1
    598    603     1
    599    601     1
    599    611     1
    599    608     1
    599    609     1
    600    601     1
    600    611     1
    600    608     1
    600    609     1
    602    610     1
    602    605     1
    602    606     1
    603    610     1
    603    605     1
    603    606     1
    604   1282     1
    605   1281     1
    605    612     1
    606   1281     1
    606    612     1
    607   1309     1
    608    613     1
    608   1308     1
    609    613     1
    609   1308     1
    610   1284     1
    610   1286     1
    611   1311     1
    611   1313     1
    612   1282     1
    613   1309     1
    616    640     1
    616    624     1
    616    625     1
    616    627     1
    616    628     1
    617    639     1
    617    620     1
    617    621     1
    617    623     1
    617    626     1
    618    639     1
    618    620     1
    618    621     1
    618    623     1
    618    626     1
    620    622     1
    620    640     1
    621    622     1
    621    640     1
    622    633     1
    622    634     1
    622    630     1
    622    631     1
    623    627     1
    623    628     1
    624    626     1
    624    636     1
    624    633     1
    624    634     1
    625    626     1
    625    636     1
    625    633     1
    625    634     1
    627    635     1
    627    630     1
    627    631     1
    628    635     1
    628    630     1
    628    631     1
    629   1336     1
    630   1335     1
    630    637     1
    631   1335     1
    631    637     1
    632   1363     1
    633    638     1
    633   1362     1
    634    638     1
    634   1362     1
    635   1338     1
    635   1340     1
    636   1365     1
    636   1367     1
    637   1336     1
    638   1363     1
    641    665     1
    641    649     1
    641    650     1
    641    652     1
    641    653     1
    642    664     1
    642    645     1
    642    646     1
    642    648     1
    642    651     1
    643    664     1
    643    645     1
    643    646     1
    643    648     1
    643    651     1
    645    647     1
    645    665     1
    646    647     1
    646    665     1
    647    658     1
    647    659     1
    647    655     1
    647    656     1
    648    652     1
    648    653     1
    649    651     1
    649    661     1
    649    658     1
    649    659     1
    650    651     1
    650    661     1
    650    658     1
    650    659     1
    652    660     1
    652    655     1
    652    656     1
    653    660     1
    653    655     1
    653    656     1
    654   1390     1
    655   1389     1
    655    662     1
    656   1389     1
    656    662     1
    657   1417     1
    658    663     1
    658   1416     1
    659    663     1
    659   1416     1
    660   1392     1
    660   1394     1
    661   1419     1
    661   1421     1
    662   1390     1
    663   1417     1
    666    690     1
    666    674     1
    666    675     1
    666    677     1
    666    678     1
    667    689     1
    667    670     1
    667    671     1
    667    673     1
    667    676     1
    668    689     1
    668    670     1
    668    671     1
    668    673     1
    668    676     1
    670    672     1
    670    690     1
    671    672     1
    671    690     1
    672    683     1
    672    684     1
    672    680     1
    672    681     1
    673    677     1
    673    678     1
    674    676     1
    674    686     1
    674    683     1
    674    684     1
    675    676     1
    675    686     1
    675    683     1
    675    684     1
    677    685     1
    677    680     1
    677    681     1
    678    685     1
    678    680     1
    678    681     1
    679   1444     1
    680   1443     1
    680    687     1
    681   1443     1
    681    687     1
    682   1471     1
    683    688     1
    683   1470     1
    684    688     1
    684   1470     1
    685   1446     1
    685   1448     1
    686   1473     1
    686   1475     1
    687   1444     1
    688   1471     1
    691    715     1
    691    699     1
    691    700     1
    691    702     1
    691    703     1
    692    714     1
    692    695     1
    692    696     1
    692    698     1
    692    701     1
    693    714     1
    693    695     1
    693    696     1
    693    698     1
    693    701     1
    695    697     1
    695    715     1
    696    697     1
    696    715     1
    697    708     1
    697    709     1
    697    705     1
    697    706     1
    698    702     1
    698    703     1
    699    701     1
    699    711     1
    699    708     1
    699    709     1
    700    701     1
    700    711     1
    700    708     1
    700    709     1
    702    710     1
    702    705     1
    702    706     1
    703    710     1
    703    705     1
    703    706     1
    704   1498     1
    705   1497     1
    705    712     1
    706   1497     1
    706    712     1
    707   1525     1
    708    713     1
    708   1524     1
    709    713     1
    709   1524     1
    710   1500     1
    710   1502     1
    711   1527     1
    711   1529     1
    712   1498     1
    713   1525     1
    716    740     1
    716    724     1
    716    725     1
    716    727     1
    716    728     1
    717    739     1
    717    720     1
    717    721     1
    717    723     1
    717    726     1
    718    739     1
    718    720     1
    718    721     1
    718    723     1
    718    726     1
    720    722     1
    720    740     1
    721    722     1
    721    740     1
    722    733     1
    722    734     1
    722    730     1
    722    731     1
    723    727     1
    723    728     1
    724    726     1
    724    736     1
    724    733     1
    724    734     1
    725    726     1
    725    736     1
    725    733     1
    725    734     1
    727    735     1
    727    730     1
    727    731     1
    728    735     1
    728    730     1
    728    731     1
    729   1552     1
    730   1551     1
    730    737     1
    731   1551     1
    731    737     1
    732   1579     1
    733   1578     1
    733    738     1
    734   1578     1
    734    738     1
    735   1554     1
    735   1556     1
    736   1581     1
    736   1583     1
    737   1552     1
    738   1579     1
    741    747     1
    741    748     1
    742    745     1
    742    744     1
    742    746     1
    744    749     1
    744    747     1
    744    748     1
    745    760     1
    745    761     1
    745    752     1
    745    754     1
    746    749     1
    746    747     1
    746    748     1
    747    750     1
    747    751     1
    748    750     1
    748    751     1
    749    763     1
    749    764     1
    749    755     1
    749    756     1
    750    752     1
    750    754     1
    751    760     1
    751    761     1
    752    757     1
    752    755     1
    752    756     1
    754    757     1
    754    755     1
    754    756     1
    755    758     1
    755    759     1
    756    758     1
    756    759     1
    760    765     1
    760    763     1
    760    764     1
    761    765     1
    761    763     1
    761    764     1
    763    766     1
    763    767     1
    764    766     1
    764    767     1
    768    774     1
    768    775     1
    769    772     1
    769    771     1
    769    773     1
    771    776     1
    771    774     1
    771    775     1
    772    787     1
    772    788     1
    772    779     1
    772    781     1
    773    776     1
    773    774     1
    773    775     1
    774    777     1
    774    778     1
    775    777     1
    775    778     1
    776    790     1
    776    791     1
    776    782     1
    776    783     1
    777    779     1
    777    781     1
    778    787     1
    778    788     1
    779    784     1
    779    782     1
    779    783     1
    781    784     1
    781    782     1
    781    783     1
    782    785     1
    782    786     1
    783    785     1
    783    786     1
    787    792     1
    787    790     1
    787    791     1
    788    792     1
    788    790     1
    788    791     1
    790    793     1
    790    794     1
    791    793     1
    791    794     1
    795    801     1
    795    802     1
    796    799     1
    796    798     1
    796    800     1
    798    803     1
    798    801     1
    798    802     1
    799    814     1
    799    815     1
    799    806     1
    799    808     1
    800    803     1
    800    801     1
    800    802     1
    801    804     1
    801    805     1
    802    804     1
    802    805     1
    803    817     1
    803    818     1
    803    809     1
    803    810     1
    804    806     1
    804    808     1
    805    814     1
    805    815     1
    806    811     1
    806    809     1
    806    810     1
    808    811     1
    808    809     1
    808    810     1
    809    812     1
    809    813     1
    810    812     1
    810    813     1
    814    819     1
    814    817     1
    814    818     1
    815    819     1
    815    817     1
    815    818     1
    817    820     1
    817    821     1
    818    820     1
    818    821     1
    822    828     1
    822    829     1
    823    826     1
    823    825     1
    823    827     1
    825    830     1
    825    828     1
    825    829     1
    826    841     1
    826    842     1
    826    833     1
    826    835     1
    827    830     1
    827    828     1
    827    829     1
    828    831     1
    828    832     1
    829    831     1
    829    832     1
    830    844     1
    830    845     1
    830    836     1
    830    837     1
    831    833     1
    831    835     1
    832    841     1
    832    842     1
    833    838     1
    833    836     1
    833    837     1
    835    838     1
    835    836     1
    835    837     1
    836    839     1
    836    840     1
    837    839     1
    837    840     1
    841    846     1
    841    844     1
    841    845     1
    842    846     1
    842    844     1
    842    845     1
    844    847     1
    844    848     1
    845    847     1
    845    848     1
    849    855     1
    849    856     1
    850    853     1
    850    852     1
    850    854     1
    852    857     1
    852    855     1
    852    856     1
    853    868     1
    853    869     1
    853    860     1
    853    862     1
    854    857     1
    854    855     1
    854    856     1
    855    858     1
    855    859     1
    856    858     1
    856    859     1
    857    871     1
    857    872     1
    857    863     1
    857    864     1
    858    860     1
    858    862     1
    859    868     1
    859    869     1
    860    865     1
    860    863     1
    860    864     1
    862    865     1
    862    863     1
    862    864     1
    863    866     1
    863    867     1
    864    866     1
    864    867     1
    868    873     1
    868    871     1
    868    872     1
    869    873     1
    869    871     1
    869    872     1
    871    874     1
    871    875     1
    872    874     1
    872    875     1
    876    882     1
    876    883     1
    877    880     1
    877    879     1
    877    881     1
    879    884     1
    879    882     1
    879    883     1
    880    895     1
    880    896     1
    880    887     1
    880    889     1
    881    884     1
    881    882     1
    881    883     1
    882    885     1
    882    886     1
    883    885     1
    883    886     1
    884    898     1
    884    899     1
    884    890     1
    884    891     1
    885    887     1
    885    889     1
    886    895     1
    886    896     1
    887    892     1
    887    890     1
    887    891     1
    889    892     1
    889    890     1
    889    891     1
    890    893     1
    890    894     1
    891    893     1
    891    894     1
    895    900     1
    895    898     1
    895    899     1
    896    900     1
    896    898     1
    896    899     1
    898    901     1
    898    902     1
    899    901     1
    899    902     1
    903    909     1
    903    910     1
    904    907     1
    904    906     1
    904    908     1
    906    911     1
    906    909     1
    906    910     1
    907    922     1
    907    923     1
    907    914     1
    907    916     1
    908    911     1
    908    909     1
    908    910     1
    909    912     1
    909    913     1
    910    912     1
    910    913     1
    911    925     1
    911    926     1
    911    917     1
    911    918     1
    912    914     1
    912    916     1
    913    922     1
    913    923     1
    914    919     1
    914    917     1
    914    918     1
    916    919     1
    916    917     1
    916    918     1
    917    920     1
    917    921     1
    918    920     1
    918    921     1
    922    927     1
    922    925     1
    922    926     1
    923    927     1
    923    925     1
    923    926     1
    925    928     1
    925    929     1
    926    928     1
    926    929     1
    930    936     1
    930    937     1
    931    934     1
    931    933     1
    931    935     1
    933    938     1
    933    936     1
    933    937     1
    934    949     1
    934    950     1
    934    941     1
    934    943     1
    935    938     1
    935    936     1
    935    937     1
    936    939     1
    936    940     1
    937    939     1
    937    940     1
    938    952     1
    938    953     1
    938    944     1
    938    945     1
    939    941     1
    939    943     1
    940    949     1
    940    950     1
    941    946     1
    941    944     1
    941    945     1
    943    946     1
    943    944     1
    943    945     1
    944    947     1
    944    948     1
    945    947     1
    945    948     1
    949    954     1
    949    952     1
    949    953     1
    950    954     1
    950    952     1
    950    953     1
    952    955     1
    952    956     1
    953    955     1
    953    956     1
    957    963     1
    957    964     1
    958    961     1
    958    960     1
    958    962     1
    960    965     1
    960    963     1
    960    964     1
    961    976     1
    961    977     1
    961    968     1
    961    970     1
    962    965     1
    962    963     1
    962    964     1
    963    966     1
    963    967     1
    964    966     1
    964    967     1
    965    979     1
    965    980     1
    965    971     1
    965    972     1
    966    968     1
    966    970     1
    967    976     1
    967    977     1
    968    973     1
    968    971     1
    968    972     1
    970    973     1
    970    971     1
    970    972     1
    971    974     1
    971    975     1
    972    974     1
    972    975     1
    976    981     1
    976    979     1
    976    980     1
    977    981     1
    977    979     1
    977    980     1
    979    982     1
    979    983     1
    980    982     1
    980    983     1
    984    990     1
    984    991     1
    985    988     1
    985    987     1
    985    989     1
    987    992     1
    987    990     1
    987    991     1
    988   1003     1
    988   1004     1
    988    995     1
    988    997     1
    989    992     1
    989    990     1
    989    991     1
    990    993     1
    990    994     1
    991    993     1
    991    994     1
    992   1006     1
    992   1007     1
    992    998     1
    992    999     1
    993    995     1
    993    997     1
    994   1003     1
    994   1004     1
    995   1000     1
    995    998     1
    995    999     1
    997   1000     1
    997    998     1
    997    999     1
    998   1001     1
    998   1002     1
    999   1001     1
    999   1002     1
   1003   1008     1
   1003   1006     1
   1003   1007     1
   1004   1008     1
   1004   1006     1
   1004   1007     1
   1006   1009     1
   1006   1010     1
   1007   1009     1
   1007   1010     1
   1011   1017     1
   1011   1018     1
   1012   1015     1
   1012   1014     1
   1012   1016     1
   1014   1019     1
   1014   1017     1
   1014   1018     1
   1015   1030     1
   1015   1031     1
   1015   1022     1
   1015   1024     1
   1016   1019     1
   1016   1017     1
   1016   1018     1
   1017   1020     1
   1017   1021     1
   1018   1020     1
   1018   1021     1
   1019   1033     1
   1019   1034     1
   1019   1025     1
   1019   1026     1
   1020   1022     1
   1020   1024     1
   1021   1030     1
   1021   1031     1
   1022   1027     1
   1022   1025     1
   1022   1026     1
   1024   1027     1
   1024   1025     1
   1024   1026     1
   1025   1028     1
   1025   1029     1
   1026   1028     1
   1026   1029     1
   1030   1035     1
   1030   1033     1
   1030   1034     1
   1031   1035     1
   1031   1033     1
   1031   1034     1
   1033   1036     1
   1033   1037     1
   1034   1036     1
   1034   1037     1
   1038   1044     1
   1038   1045     1
   1039   1042     1
   1039   1041     1
   1039   1043     1
   1041   1046     1
   1041   1044     1
   1041   1045     1
   1042   1057     1
   1042   1058     1
   1042   1049     1
   1042   1051     1
   1043   1046     1
   1043   1044     1
   1043   1045     1
   1044   1047     1
   1044   1048     1
   1045   1047     1
   1045   1048     1
   1046   1060     1
   1046   1061     1
   1046   1052     1
   1046   1053     1
   1047   1049     1
   1047   1051     1
   1048   1057     1
   1048   1058     1
   1049   1054     1
   1049   1052     1
   1049   1053     1
   1051   1054     1
   1051   1052     1
   1051   1053     1
   1052   1055     1
   1052   1056     1
   1053   1055     1
   1053   1056     1
   1057   1062     1
   1057   1060     1
   1057   1061     1
   1058   1062     1
   1058   1060     1
   1058   1061     1
   1060   1063     1
   1060   1064     1
   1061   1063     1
   1061   1064     1
   1065   1071     1
   1065   1072     1
   1066   1069     1
   1066   1068     1
   1066   1070     1
   1068   1073     1
   1068   1071     1
   1068   1072     1
   1069   1084     1
   1069   1085     1
   1069   1076     1
   1069   1078     1
   1070   1073     1
   1070   1071     1
   1070   1072     1
   1071   1074     1
   1071   1075     1
   1072   1074     1
   1072   1075     1
   1073   1087     1
   1073   1088     1
   1073   1079     1
   1073   1080     1
   1074   1076     1
   1074   1078     1
   1075   1084     1
   1075   1085     1
   1076   1081     1
   1076   1079     1
   1076   1080     1
   1078   1081     1
   1078   1079     1
   1078   1080     1
   1079   1082     1
   1079   1083     1
   1080   1082     1
   1080   1083     1
   1084   1089     1
   1084   1087     1
   1084   1088     1
   1085   1089     1
   1085   1087     1
   1085   1088     1
   1087   1090     1
   1087   1091     1
   1088   1090     1
   1088   1091     1
   1092   1098     1
   1092   1099     1
   1093   1096     1
   1093   1095     1
   1093   1097     1
   1095   1100     1
   1095   1098     1
   1095   1099     1
   1096   1111     1
   1096   1112     1
   1096   1103     1
   1096   1105     1
   1097   1100     1
   1097   1098     1
   1097   1099     1
   1098   1101     1
   1098   1102     1
   1099   1101     1
   1099   1102     1
   1100   1114     1
   1100   1115     1
   1100   1106     1
   1100   1107     1
   1101   1103     1
   1101   1105     1
   1102   1111     1
   1102   1112     1
   1103   1108     1
   1103   1106     1
   1103   1107     1
   1105   1108     1
   1105   1106     1
   1105   1107     1
   1106   1109     1
   1106   1110     1
   1107   1109     1
   1107   1110     1
   1111   1116     1
   1111   1114     1
   1111   1115     1
   1112   1116     1
   1112   1114     1
   1112   1115     1
   1114   1117     1
   1114   1118     1
   1115   1117     1
   1115   1118     1
   1119   1125     1
   1119   1126     1
   1120   1123     1
   1120   1122     1
   1120   1124     1
   1122   1127     1
   1122   1125     1
   1122   1126     1
   1123   1138     1
   1123   1139     1
   1123   1130     1
   1123   1132     1
   1124   1127     1
   1124   1125     1
   1124   1126     1
   1125   1128     1
   1125   1129     1
   1126   1128     1
   1126   1129     1
   1127   1141     1
   1127   1142     1
   1127   1133     1
   1127   1134     1
   1128   1130     1
   1128   1132     1
   1129   1138     1
   1129   1139     1
   1130   1135     1
   1130   1133     1
   1130   1134     1
   1132   1135     1
   1132   1133     1
   1132   1134     1
   1133   1136     1
   1133   1137     1
   1134   1136     1
   1134   1137     1
   1138   1143     1
   1138   1141     1
   1138   1142     1
   1139   1143     1
   1139   1141     1
   1139   1142     1
   1141   1144     1
   1141   1145     1
   1142   1144     1
   1142   1145     1
   1146   1152     1
   1146   1153     1
   1147   1150     1
   1147   1149     1
   1147   1151     1
   1149   1154     1
   1149   1152     1
   1149   1153     1
   1150   1165     1
   1150   1166     1
   1150   1157     1
   1150   1159     1
   1151   1154     1
   1151   1152     1
   1151   1153     1
   1152   1155     1
   1152   1156     1
   1153   1155     1
   1153   1156     1
   1154   1168     1
   1154   1169     1
   1154   1160     1
   1154   1161     1
   1155   1157     1
   1155   1159     1
   1156   1165     1
   1156   1166     1
   1157   1162     1
   1157   1160     1
   1157   1161     1
   1159   1162     1
   1159   1160     1
   1159   1161     1
   1160   1163     1
   1160   1164     1
   1161   1163     1
   1161   1164     1
   1165   1170     1
   1165   1168     1
   1165   1169     1
   1166   1170     1
   1166   1168     1
   1166   1169     1
   1168   1171     1
   1168   1172     1
   1169   1171     1
   1169   1172     1
   1173   1179     1
   1173   1180     1
   1174   1177     1
   1174   1176     1
   1174   1178     1
   1176   1181     1
   1176   1179     1
   1176   1180     1
   1177   1192     1
   1177   1193     1
   1177   1184     1
   1177   1186     1
   1178   1181     1
   1178   1179     1
   1178   1180     1
   1179   1182     1
   1179   1183     1
   1180   1182     1
   1180   1183     1
   1181   1195     1
   1181   1196     1
   1181   1187     1
   1181   1188     1
   1182   1184     1
   1182   1186     1
   1183   1192     1
   1183   1193     1
   1184   1189     1
   1184   1187     1
   1184   1188     1
   1186   1189     1
   1186   1187     1
   1186   1188     1
   1187   1190     1
   1187   1191     1
   1188   1190     1
   1188   1191     1
   1192   1197     1
   1192   1195     1
   1192   1196     1
   1193   1197     1
   1193   1195     1
   1193   1196     1
   1195   1198     1
   1195   1199     1
   1196   1198     1
   1196   1199     1
   1200   1206     1
   1200   1207     1
   1201   1204     1
   1201   1203     1
   1201   1205     1
   1203   1208     1
   1203   1206     1
   1203   1207     1
   1204   1219     1
   1204   1220     1
   1204   1211     1
   1204   1213     1
   1205   1208     1
   1205   1206     1
   1205   1207     1
   1206   1209     1
   1206   1210     1
   1207   1209     1
   1207   1210     1
   1208   1222     1
   1208   1223     1
   1208   1214     1
   1208   1215     1
   1209   1211     1
   1209   1213     1
   1210   1219     1
   1210   1220     1
   1211   1216     1
   1211   1214     1
   1211   1215     1
   1213   1216     1
   1213   1214     1
   1213   1215     1
   1214   1217     1
   1214   1218     1
   1215   1217     1
   1215   1218     1
   1219   1224     1
   1219   1222     1
   1219   1223     1
   1220   1224     1
   1220   1222     1
   1220   1223     1
   1222   1225     1
   1222   1226     1
   1223   1225     1
   1223   1226     1
   1227   1233     1
   1227   1234     1
   1228   1231     1
   1228   1230     1
   1228   1232     1
   1230   1235     1
   1230   1233     1
   1230   1234     1
   1231   1246     1
   1231   1247     1
   1231   1238     1
   1231   1240     1
   1232   1235     1
   1232   1233     1
   1232   1234     1
   1233   1236     1
   1233   1237     1
   1234   1236     1
   1234   1237     1
   1235   1249     1
   1235   1250     1
   1235   1241     1
   1235   1242     1
   1236   1238     1
   1236   1240     1
   1237   1246     1
   1237   1247     1
   1238   1243     1
   1238   1241     1
   1238   1242     1
   1240   1243     1
   1240   1241     1
   1240   1242     1
   1241   1244     1
   1241   1245     1
   1242   1244     1
   1242   1245     1
   1246   1251     1
   1246   1249     1
   1246   1250     1
   1247   1251     1
   1247   1249     1
   1247   1250     1
   1249   1252     1
   1249   1253     1
   1250   1252     1
   1250   1253     1
   1254   1260     1
   1254   1261     1
   1255   1258     1
   1255   1257     1
   1255   1259     1
   1257   1262     1
   1257   1260     1
   1257   1261     1
   1258   1273     1
   1258   1274     1
   1258   1265     1
   1258   1267     1
   1259   1262     1
   1259   1260     1
   1259   1261     1
   1260   1263     1
   1260   1264     1
   1261   1263     1
   1261   1264     1
   1262   1276     1
   1262   1277     1
   1262   1268     1
   1262   1269     1
   1263   1265     1
   1263   1267     1
   1264   1273     1
   1264   1274     1
   1265   1270     1
   1265   1268     1
   1265   1269     1
   1267   1270     1
   1267   1268     1
   1267   1269     1
   1268   1271     1
   1268   1272     1
   1269   1271     1
   1269   1272     1
   1273   1278     1
   1273   1276     1
   1273   1277     1
   1274   1278     1
   1274   1276     1
   1274   1277     1
   1276   1279     1
   1276   1280     1
   1277   1279     1
   1277   1280     1
   1281   1287     1
   1281   1288     1
   1282   1285     1
   1282   1284     1
   1282   1286     1
   1284   1289     1
   1284   1287     1
   1284   1288     1
   1285   1300     1
   1285   1301     1
   1285   1292     1
   1285   1294     1
   1286   1289     1
   1286   1287     1
   1286   1288     1
   1287   1290     1
   1287   1291     1
   1288   1290     1
   1288   1291     1
   1289   1303     1
   1289   1304     1
   1289   1295     1
   1289   1296     1
   1290   1292     1
   1290   1294     1
   1291   1300     1
   1291   1301     1
   1292   1297     1
   1292   1295     1
   1292   1296     1
   1294   1297     1
   1294   1295     1
   1294   1296     1
   1295   1298     1
   1295   1299     1
   1296   1298     1
   1296   1299     1
   1300   1305     1
   1300   1303     1
   1300   1304     1
   1301   1305     1
   1301   1303     1
   1301   1304     1
   1303   1306     1
   1303   1307     1
   1304   1306     1
   1304   1307     1
   1308   1314     1
   1308   1315     1
   1309   1312     1
   1309   1311     1
   1309   1313     1
   1311   1316     1
   1311   1314     1
   1311   1315     1
   1312   1327     1
   1312   1328     1
   1312   1319     1
   1312   1321     1
   1313   1316     1
   1313   1314     1
   1313   1315     1
   1314   1317     1
   1314   1318     1
   1315   1317     1
   1315   1318     1
   1316   1330     1
   1316   1331     1
   1316   1322     1
   1316   1323     1
   1317   1319     1
   1317   1321     1
   1318   1327     1
   1318   1328     1
   1319   1324     1
   1319   1322     1
   1319   1323     1
   1321   1324     1
   1321   1322     1
   1321   1323     1
   1322   1325     1
   1322   1326     1
   1323   1325     1
   1323   1326     1
   1327   1332     1
   1327   1330     1
   1327   1331     1
   1328   1332     1
   1328   1330     1
   1328   1331     1
   1330   1333     1
   1330   1334     1
   1331   1333     1
   1331   1334     1
   1335   1341     1
   1335   1342     1
   1336   1339     1
   1336   1338     1
   1336   1340     1
   1338   1343     1
   1338   1341     1
   1338   1342     1
   1339   1354     1
   1339   1355     1
   1339   1346     1
   1339   1348     1
   1340   1343     1
   1340   1341     1
   1340   1342     1
   1341   1344     1
   1341   1345     1
   1342   1344     1
   1342   1345     1
   1343   1357     1
   1343   1358     1
   1343   1349     1
   1343   1350     1
   1344   1346     1
   1344   1348     1
   1345   1354     1
   1345   1355     1
   1346   1351     1
   1346   1349     1
   1346   1350     1
   1348   1351     1
   1348   1349     1
   1348   1350     1
   1349   1352     1
   1349   1353     1
   1350   1352     1
   1350   1353     1
   1354   1359     1
   1354   1357     1
   1354   1358     1
   1355   1359     1
   1355   1357     1
   1355   1358     1
   1357   1360     1
   1357   1361     1
   1358   1360     1
   1358   1361     1
   1362   1368     1
   1362   1369     1
   1363   1366     1
   1363   1365     1
   1363   1367     1
   1365   1370     1
   1365   1368     1
   1365   1369     1
   1366   1381     1
   1366   1382     1
   1366   1373     1
   1366   1375     1
   1367   1370     1
   1367   1368     1
   1367   1369     1
   1368   1371     1
   1368   1372     1
   1369   1371     1
   1369   1372     1
   1370   1384     1
   1370   1385     1
   1370   1376     1
   1370   1377     1
   1371   1373     1
   1371   1375     1
   1372   1381     1
   1372   1382     1
   1373   1378     1
   1373   1376     1
   1373   1377     1
   1375   1378     1
   1375   1376     1
   1375   1377     1
   1376   1379     1
   1376   1380     1
   1377   1379     1
   1377   1380     1
   1381   1386     1
   1381   1384     1
   1381   1385     1
   1382   1386     1
   1382   1384     1
   1382   1385     1
   1384   1387     1
   1384   1388     1
   1385   1387     1
   1385   1388     1
   1389   1395     1
   1389   1396     1
   1390   1393     1
   1390   1392     1
   1390   1394     1
   1392   1397     1
   1392   1395     1
   1392   1396     1
   1393   1408     1
   1393   1409     1
   1393   1400     1
   1393   1402     1
   1394   1397     1
   1394   1395     1
   1394   1396     1
   1395   1398     1
   1395   1399     1
   1396   1398     1
   1396   1399     1
   1397   1411     1
   1397   1412     1
   1397   1403     1
   1397   1404     1
   1398   1400     1
   1398   1402     1
   1399   1408     1
   1399   1409     1
   1400   1405     1
   1400   1403     1
   1400   1404     1
   1402   1405     1
   1402   1403     1
   1402   1404     1
   1403   1406     1
   1403   1407     1
   1404   1406     1
   1404   1407     1
   1408   1413     1
   1408   1411     1
   1408   1412     1
   1409   1413     1
   1409   1411     1
   1409   1412     1
   1411   1414     1
   1411   1415     1
   1412   1414     1
   1412   1415     1
   1416   1422     1
   1416   1423     1
   1417   1420     1
   1417   1419     1
   1417   1421     1
   1419   1424     1
   1419   1422     1
   1419   1423     1
   1420   1435     1
   1420   1436     1
   1420   1427     1
   1420   1429     1
   1421   1424     1
   1421   1422     1
   1421   1423     1
   1422   1425     1
   1422   1426     1
   1423   1425     1
   1423   1426     1
   1424   1438     1
   1424   1439     1
   1424   1430     1
   1424   1431     1
   1425   1427     1
   1425   1429     1
   1426   1435     1
   1426   1436     1
   1427   1432     1
   1427   1430     1
   1427   1431     1
   1429   1432     1
   1429   1430     1
   1429   1431     1
   1430   1433     1
   1430   1434     1
   1431   1433     1
   1431   1434     1
   1435   1440     1
   1435   1438     1
   1435   1439     1
   1436   1440     1
   1436   1438     1
   1436   1439     1
   1438   1441     1
   1438   1442     1
   1439   1441     1
   1439   1442     1
   1443   1449     1
   1443   1450     1
   1444   1447     1
   1444   1446     1
   1444   1448     1
   1446   1451     1
   1446   1449     1
   1446   1450     1
   1447   1462     1
   1447   1463     1
   1447   1454     1
   1447   1456     1
   1448   1451     1
   1448   1449     1
   1448   1450     1
   1449   1452     1
   1449   1453     1
   1450   1452     1
   1450   1453     1
   1451   1465     1
   1451   1466     1
   1451   1457     1
   1451   1458     1
   1452   1454     1
   1452   1456     1
   1453   1462     1
   1453   1463     1
   1454   1459     1
   1454   1457     1
   1454   1458     1
   1456   1459     1
   1456   1457     1
   1456   1458     1
   1457   1460     1
   1457   1461     1
   1458   1460     1
   1458   1461     1
   1462   1467     1
   1462   1465     1
   1462   1466     1
   1463   1467     1
   1463   1465     1
   1463   1466     1
   1465   1468     1
   1465   1469     1
   1466   1468     1
   1466   1469     1
   1470   1476     1
   1470   1477     1
   1471   1474     1
   1471   1473     1
   1471   1475     1
   1473   1478     1
   1473   1476     1
   1473   1477     1
   1474   1489     1
   1474   1490     1
   1474   1481     1
   1474   1483     1
   1475   1478     1
   1475   1476     1
   1475   1477     1
   1476   1479     1
   1476   1480     1
   1477   1479     1
   1477   1480     1
   1478   1492     1
   1478   1493     1
   1478   1484     1
   1478   1485     1
   1479   1481     1
   1479   1483     1
   1480   1489     1
   1480   1490     1
   1481   1486     1
   1481   1484     1
   1481   1485     1
   1483   1486     1
   1483   1484     1
   1483   1485     1
   1484   1487     1
   1484   1488     1
   1485   1487     1
   1485   1488     1
   1489   1494     1
   1489   1492     1
   1489   1493     1
   1490   1494     1
   1490   1492     1
   1490   1493     1
   1492   1495     1
   1492   1496     1
   1493   1495     1
   1493   1496     1
   1497   1503     1
   1497   1504     1
   1498   1501     1
   1498   1500     1
   1498   1502     1
   1500   1505     1
   1500   1503     1
   1500   1504     1
   1501   1516     1
   1501   1517     1
   1501   1508     1
   1501   1510     1
   1502   1505     1
   1502   1503     1
   1502   1504     1
   1503   1506     1
   1503   1507     1
   1504   1506     1
   1504   1507     1
   1505   1519     1
   1505   1520     1
   1505   1511     1
   1505   1512     1
   1506   1508     1
   1506   1510     1
   1507   1516     1
   1507   1517     1
   1508   1513     1
   1508   1511     1
   1508   1512     1
   1510   1513     1
   1510   1511     1
   1510   1512     1
   1511   1514     1
   1511   1515     1
   1512   1514     1
   1512   1515     1
   1516   1521     1
   1516   1519     1
   1516   1520     1
   1517   1521     1
   1517   1519     1
   1517   1520     1
   1519   1522     1
   1519   1523     1
   1520   1522     1
   1520   1523     1
   1524   1530     1
   1524   1531     1
   1525   1528     1
   1525   1527     1
   1525   1529     1
   1527   1532     1
   1527   1530     1
   1527   1531     1
   1528   1543     1
   1528   1544     1
   1528   1535     1
   1528   1537     1
   1529   1532     1
   1529   1530     1
   1529   1531     1
   1530   1533     1
   1530   1534     1
   1531   1533     1
   1531   1534     1
   1532   1546     1
   1532   1547     1
   1532   1538     1
   1532   1539     1
   1533   1535     1
   1533   1537     1
   1534   1543     1
   1534   1544     1
   1535   1540     1
   1535   1538     1
   1535   1539     1
   1537   1540     1
   1537   1538     1
   1537   1539     1
   1538   1541     1
   1538   1542     1
   1539   1541     1
   1539   1542     1
   1543   1548     1
   1543   1546     1
   1543   1547     1
   1544   1548     1
   1544   1546     1
   1544   1547     1
   1546   1549     1
   1546   1550     1
   1547   1549     1
   1547   1550     1
   1551   1557     1
   1551   1558     1
   1552   1555     1
   1552   1554     1
   1552   1556     1
   1554   1559     1
   1554   1557     1
   1554   1558     1
   1555   1570     1
   1555   1571     1
   1555   1562     1
   1555   1564     1
   1556   1559     1
   1556   1557     1
   1556   1558     1
   1557   1560     1
   1557   1561     1
   1558   1560     1
   1558   1561     1
   1559   1573     1
   1559   1574     1
   1559   1565     1
   1559   1566     1
   1560   1562     1
   1560   1564     1
   1561   1570     1
   1561   1571     1
   1562   1567     1
   1562   1565     1
   1562   1566     1
   1564   1567     1
   1564   1565     1
   1564   1566     1
   1565   1568     1
   1565   1569     1
   1566   1568     1
   1566   1569     1
   1570   1575     1
   1570   1573     1
   1570   1574     1
   1571   1575     1
   1571   1573     1
   1571   1574     1
   1573   1576     1
   1573   1577     1
   1574   1576     1
   1574   1577     1
   1578   1584     1
   1578   1585     1
   1579   1582     1
   1579   1581     1
   1579   1583     1
   1581   1586     1
   1581   1584     1
   1581   1585     1
   1582   1597     1
   1582   1598     1
   1582   1589     1
   1582   1591     1
   1583   1586     1
   1583   1584     1
   1583   1585     1
   1584   1587     1
   1584   1588     1
   1585   1587     1
   1585   1588     1
   1586   1600     1
   1586   1601     1
   1586   1592     1
   1586   1593     1
   1587   1589     1
   1587   1591     1
   1588   1597     1
   1588   1598     1
   1589   1594     1
   1589   1592     1
   1589   1593     1
   1591   1594     1
   1591   1592     1
   1591   1593     1
   1592   1595     1
   1592   1596     1
   1593   1595     1
   1593   1596     1
   1597   1602     1
   1597   1600     1
   1597   1601     1
   1598   1602     1
   1598   1600     1
   1598   1601     1
   1600   1603     1
   1600   1604     1
   1601   1603     1
   1601   1604     1

[ angles ]
;    ai     aj     ak funct         c0         c1         c2         c3
      1      4      7     1   111.0400475 552.288000
      1      8      9     1   112.3500484 533.878400
      1      8     12     1   112.3500484 533.878400
      4      1      8     1   111.0400475 552.288000
      4      7     15     1   112.3500484 533.878400
      4      7     18     1   112.3500484 533.878400
      7     15     21     1   111.0400475 552.288000
      7     18     24     1   111.0400475 552.288000
      8      9     30     1   111.0400475 552.288000
      8     12     27     1   111.0400475 552.288000
      9      8     12     1   112.3500484 533.878400
      9     30     34     1   111.0400475 529.694400
     12     27     33     1   111.0400475 529.694400
     15      7     18     1   112.3500484 533.878400
     15     21     35     1   111.0400475 529.694400
     18     24     36     1   111.0400475 529.694400
     21     35     38     1   123.2000528 564.003200
     21     35    114     1   115.1800491 558.982400
     24     36     39     1   123.2000528 564.003200
     24     36    139     1   115.1800491 558.982400
     27     33     37     1   123.2000528 564.003200
     27     33     64     1   115.1800491 558.982400
     30     34     40     1   123.2000528 564.003200
     30     34     89     1   115.1800491 558.982400
     33     64     44     1   120.6900519 530.531200
     34     89     69     1   120.6900519 530.531200
     35    114     94     1   120.6900519 530.531200
     36    139    119     1   120.6900519 530.531200
     37     33     64     1   123.0500530 620.905600
     38     35    114     1   123.0500530 620.905600
     39     36    139     1   123.0500530 620.905600
     40     34     89     1   123.0500530 620.905600
     41     44     64     1   111.6100477 551.451200
     41     47     48     1   112.3500484 533.878400
     41     47     51     1   112.3500484 533.878400
     44     41     47     1   111.0400475 552.288000
     47     48     57     1   111.0400475 552.288000
     47     51     54     1   111.0400475 552.288000
     48     47     51     1   112.3500484 533.878400
     48     57     61     1   111.0400475 529.694400
     51     54     60     1   111.0400475 529.694400
     54     60     62     1   123.2000528 564.003200
     54     60    164     1   115.1800491 558.982400
     57     61     63     1   123.2000528 564.003200
     57     61    189     1   115.1800491 558.982400
     60    164    144     1   120.6900519 530.531200
     61    189    169     1   120.6900519 530.531200
     62     60    164     1   123.0500530 620.905600
     63     61    189     1   123.0500530 620.905600
     66     69     89     1   111.6100477 551.451200
     66     72     73     1   112.3500484 533.878400
     66     72     76     1   112.3500484 533.878400
     69     66     72     1   111.0400475 552.288000
     72     73     82     1   111.0400475 552.288000
     72     76     79     1   111.0400475 552.288000
     73     72     76     1   112.3500484 533.878400
     73     82     86     1   111.0400475 529.694400
     76     79     85     1   111.0400475 529.694400
     79     85     87     1   123.2000528 564.003200
     79     85    214     1   115.1800491 558.982400
     82     86     88     1   123.2000528 564.003200
     82     86    239     1   115.1800491 558.982400
     85    214    194     1   120.6900519 530.531200
     86    239    219     1   120.6900519 530.531200
     87     85    214     1   123.0500530 620.905600
     88     86    239     1   123.0500530 620.905600
     91     94    114     1   111.6100477 551.451200
     91     97     98     1   112.3500484 533.878400
     91     97    101     1   112.3500484 533.878400
     94     91     97     1   111.0400475 552.288000
     97     98    107     1   111.0400475 552.288000
     97    101    104     1   111.0400475 552.288000
     98     97    101     1   112.3500484 533.878400
     98    107    111     1   111.0400475 529.694400
    101    104    110     1   111.0400475 529.694400
    104    110    112     1   123.2000528 564.003200
    104    110    264     1   115.1800491 558.982400
    107    111    113     1   123.2000528 564.003200
    107    111    289     1   115.1800491 558.982400
    110    264    244     1   120.6900519 530.531200
    111    289    269     1   120.6900519 530.531200
    112    110    264     1   123.0500530 620.905600
    113    111    289     1   123.0500530 620.905600
    116    119    139     1   111.6100477 551.451200
    116    122    123     1   112.3500484 533.878400
    116    122    126     1   112.3500484 533.878400
    119    116    122     1   111.0400475 552.288000
    122    123    132     1   111.0400475 552.288000
    122    126    129     1   111.0400475 552.288000
    123    122    126     1   112.3500484 533.878400
    123    132    136     1   111.0400475 529.694400
    126    129    135     1   111.0400475 529.694400
    129    135    137     1   123.2000528 564.003200
    129    135    314     1   115.1800491 558.982400
    132    136    138     1   123.2000528 564.003200
    132    136    339     1   115.1800491 558.982400
    135    314    294     1   120.6900519 530.531200
    136    339    319     1   120.6900519 530.531200
    137    135    314     1   123.0500530 620.905600
    138    136    339     1   123.0500530 620.905600
    141    144    164     1   111.6100477 551.451200
    141    147    148     1   112.3500484 533.878400
    141    147    151     1   112.3500484 533.878400
    144    141    147     1   111.0400475 552.288000
    147    148    157     1   111.0400475 552.288000
    147    151    154     1   111.0400475 552.288000
    148    147    151     1   112.3500484 533.878400
    148    157    161     1   111.0400475 529.694400
    151    154    160     1   111.0400475 529.694400
    154    160    162     1   123.2000528 564.003200
    154    160    364     1   115.1800491 558.982400
    157    161    163     1   123.2000528 564.003200
    157    161    389     1   115.1800491 558.982400
    160    364    344     1   120.6900519 530.531200
    161    389    369     1   120.6900519 530.531200
    162    160    364     1   123.0500530 620.905600
    163    161    389     1   123.0500530 620.905600
    166    169    189     1   111.6100477 551.451200
    166    172    173     1   112.3500484 533.878400
    166    172    176     1   112.3500484 533.878400
    169    166    172     1   111.0400475 552.288000
    172    173    182     1   111.0400475 552.288000
    172    176    179     1   111.0400475 552.288000
    173    172    176     1   112.3500484 533.878400
    173    182    186     1   111.0400475 529.694400
    176    179    185     1   111.0400475 529.694400
    179    185    187     1   123.2000528 564.003200
    179    185    414     1   115.1800491 558.982400
    182    186    188     1   123.2000528 564.003200
    182    186    439     1   115.1800491 558.982400
    185    414    394     1   120.6900519 530.531200
    186    439    419     1   120.6900519 530.531200
    187    185    414     1   123.0500530 620.905600
    188    186    439     1   123.0500530 620.905600
    191    194    214     1   111.6100477 551.451200
    191    197    198     1   112.3500484 533.878400
    191    197    201     1   112.3500484 533.878400
    194    191    197     1   111.0400475 552.288000
    197    198    207     1   111.0400475 552.288000
    197    201    204     1   111.0400475 552.288000
    198    197    201     1   112.3500484 533.878400
    198    207    211     1   111.0400475 529.694400
    201    204    210     1   111.0400475 529.694400
    204    210    212     1   123.2000528 564.003200
    204    210    464     1   115.1800491 558.982400
    207    211    213     1   123.2000528 564.003200
    207    211    489     1   115.1800491 558.982400
    210    464    444     1   120.6900519 530.531200
    211    489    469     1   120.6900519 530.531200
    212    210    464     1   123.0500530 620.905600
    213    211    489     1   123.0500530 620.905600
    216    219    239     1   111.6100477 551.451200
    216    222    223     1   112.3500484 533.878400
    216    222    226     1   112.3500484 533.878400
    219    216    222     1   111.0400475 552.288000
    222    223    232     1   111.0400475 552.288000
    222    226    229     1   111.0400475 552.288000
    223    222    226     1   112.3500484 533.878400
    223    232    236     1   111.0400475 529.694400
    226    229    235     1   111.0400475 529.694400
    229    235    237     1   123.2000528 564.003200
    229    235    514     1   115.1800491 558.982400
    232    236    238     1   123.2000528 564.003200
    232    236    539     1   115.1800491 558.982400
    235    514    494     1   120.6900519 530.531200
    236    539    519     1   120.6900519 530.531200
    237    235    514     1   123.0500530 620.905600
    238    236    539     1   123.0500530 620.905600
    241    244    264     1   111.6100477 551.451200
    241    247    248     1   112.3500484 533.878400
    241    247    251     1   112.3500484 533.878400
    244    241    247     1   111.0400475 552.288000
    247    248    257     1   111.0400475 552.288000
    247    251    254     1   111.0400475 552.288000
    248    247    251     1   112.3500484 533.878400
    248    257    261     1   111.0400475 529.694400
    251    254    260     1   111.0400475 529.694400
    254    260    262     1   123.2000528 564.003200
    254    260    564     1   115.1800491 558.982400
    257    261    263     1   123.2000528 564.003200
    257    261    589     1   115.1800491 558.982400
    260    564    544     1   120.6900519 530.531200
    261    589    569     1   120.6900519 530.531200
    262    260    564     1   123.0500530 620.905600
    263    261    589     1   123.0500530 620.905600
    266    269    289     1   111.6100477 551.451200
    266    272    273     1   112.3500484 533.878400
    266    272    276     1   112.3500484 533.878400
    269    266    272     1   111.0400475 552.288000
    272    273    282     1   111.0400475 552.288000
    272    276    279     1   111.0400475 552.288000
    273    272    276     1   112.3500484 533.878400
    273    282    286     1   111.0400475 529.694400
    276    279    285     1   111.0400475 529.694400
    279    285    287     1   123.2000528 564.003200
    279    285    614     1   115.1800491 558.982400
    282    286    288     1   123.2000528 564.003200
    282    286    639     1   115.1800491 558.982400
    285    614    594     1   120.6900519 530.531200
    286    639    619     1   120.6900519 530.531200
    287    285    614     1   123.0500530 620.905600
    288    286    639     1   123.0500530 620.905600
    291    294    314     1   111.6100477 551.451200
    291    297    298     1   112.3500484 533.878400
    291    297    301     1   112.3500484 533.878400
    294    291    297     1   111.0400475 552.288000
    297    298    307     1   111.0400475 552.288000
    297    301    304     1   111.0400475 552.288000
    298    297    301     1   112.3500484 533.878400
    298    307    311     1   111.0400475 529.694400
    301    304    310     1   111.0400475 529.694400
    304    310    312     1   123.2000528 564.003200
    304    310    664     1   115.1800491 558.982400
    307    311    313     1   123.2000528 564.003200
    307    311    689     1   115.1800491 558.982400
    310    664    644     1   120.6900519 530.531200
    311    689    669     1   120.6900519 530.531200
    312    310    664     1   123.0500530 620.905600
    313    311    689     1   123.0500530 620.905600
    316    319    339     1   111.6100477 551.451200
    316    322    323     1   112.3500484 533.878400
    316    322    326     1   112.3500484 533.878400
    319    316    322     1   111.0400475 552.288000
    322    323    332     1   111.0400475 552.288000
    322    326    329     1   111.0400475 552.288000
    323    322    326     1   112.3500484 533.878400
    323    332    336     1   111.0400475 529.694400
    326    329    335     1   111.0400475 529.694400
    329    335    337     1   123.2000528 564.003200
    329    335    714     1   115.1800491 558.982400
    332    336    338     1   123.2000528 564.003200
    332    336    739     1   115.1800491 558.982400
    335    714    694     1   120.6900519 530.531200
    336    739    719     1   120.6900519 530.531200
    337    335    714     1   123.0500530 620.905600
    338    336    739     1   123.0500530 620.905600
    341    344    364     1   111.6100477 551.451200
    341    347    348     1   112.3500484 533.878400
    341    347    351     1   112.3500484 533.878400
    344    341    347     1   111.0400475 552.288000
    347    348    357     1   111.0400475 552.288000
    347    351    354     1   111.0400475 552.288000
    348    347    351     1   112.3500484 533.878400
    348    357    361     1   111.0400475 529.694400
    351    354    360     1   111.0400475 529.694400
    354    360    741     1   115.1800491 558.982400
    354    360    362     1   123.2000528 564.003200
    357    361    363     1   123.2000528 564.003200
    357    361    768     1   115.1800491 558.982400
    360    741    743     1   120.6900519 530.531200
    361    768    770     1   120.6900519 530.531200
    362    360    741     1   123.0500530 620.905600
    363    361    768     1   123.0500530 620.905600
    366    369    389     1   111.6100477 551.451200
    366    372    373     1   112.3500484 533.878400
    366    372    376     1   112.3500484 533.878400
    369    366    372     1   111.0400475 552.288000
    372    373    382     1   111.0400475 552.288000
    372    376    379     1   111.0400475 552.288000
    373    372    376     1   112.3500484 533.878400
    373    382    386     1   111.0400475 529.694400
    376    379    385     1   111.0400475 529.694400
    379    385    795     1   115.1800491 558.982400
    379    385    387     1   123.2000528 564.003200
    382    386    388     1   123.2000528 564.003200
    382    386    822     1   115.1800491 558.982400
    385    795    797     1   120.6900519 530.531200
    386    822    824     1   120.6900519 530.531200
    387    385    795     1   123.0500530 620.905600
    388    386    822     1   123.0500530 620.905600
    391    394    414     1   111.6100477 551.451200
    391    397    398     1   112.3500484 533.878400
    391    397    401     1   112.3500484 533.878400
    394    391    397     1   111.0400475 552.288000
    397    398    407     1   111.0400475 552.288000
    397    401    404     1   111.0400475 552.288000
    398    397    401     1   112.3500484 533.878400
    398    407    411     1   111.0400475 529.694400
    401    404    410     1   111.0400475 529.694400
    404    410    849     1   115.1800491 558.982400
    404    410    412     1   123.2000528 564.003200
    407    411    413     1   123.2000528 564.003200
    407    411    876     1   115.1800491 558.982400
    410    849    851     1   120.6900519 530.531200
    411    876    878     1   120.6900519 530.531200
    412    410    849     1   123.0500530 620.905600
    413    411    876     1   123.0500530 620.905600
    416    419    439     1   111.6100477 551.451200
    416    422    423     1   112.3500484 533.878400
    416    422    426     1   112.3500484 533.878400
    419    416    422     1   111.0400475 552.288000
    422    423    432     1   111.0400475 552.288000
    422    426    429     1   111.0400475 552.288000
    423    422    426     1   112.3500484 533.878400
    423    432    436     1   111.0400475 529.694400
    426    429    435     1   111.0400475 529.694400
    429    435    903     1   115.1800491 558.982400
    429    435    437     1   123.2000528 564.003200
    432    436    438     1   123.2000528 564.003200
    432    436    930     1   115.1800491 558.982400
    435    903    905     1   120.6900519 530.531200
    436    930    932     1   120.6900519 530.531200
    437    435    903     1   123.0500530 620.905600
    438    436    930     1   123.0500530 620.905600
    441    444    464     1   111.6100477 551.451200
    441    447    448     1   112.3500484 533.878400
    441    447    451     1   112.3500484 533.878400
    444    441    447     1   111.0400475 552.288000
    447    448    457     1   111.0400475 552.288000
    447    451    454     1   111.0400475 552.288000
    448    447    451     1   112.3500484 533.878400
    448    457    461     1   111.0400475 529.694400
    451    454    460     1   111.0400475 529.694400
    454    460    957     1   115.1800491 558.982400
    454    460    462     1   123.2000528 564.003200
    457    461    463     1   123.2000528 564.003200
    457    461    984     1   115.1800491 558.982400
    460    957    959     1   120.6900519 530.531200
    461    984    986     1   120.6900519 530.531200
    462    460    957     1   123.0500530 620.905600
    463    461    984     1   123.0500530 620.905600
    466    469    489     1   111.6100477 551.451200
    466    472    473     1   112.3500484 533.878400
    466    472    476     1   112.3500484 533.878400
    469    466    472     1   111.0400475 552.288000
    472    473    482     1   111.0400475 552.288000
    472    476    479     1   111.0400475 552.288000
    473    472    476     1   112.3500484 533.878400
    473    482    486     1   111.0400475 529.694400
    476    479    485     1   111.0400475 529.694400
    479    485   1011     1   115.1800491 558.982400
    479    485    487     1   123.2000528 564.003200
    482    486    488     1   123.2000528 564.003200
    482    486   1038     1   115.1800491 558.982400
    485   1011   1013     1   120.6900519 530.531200
    486   1038   1040     1   120.6900519 530.531200
    487    485   1011     1   123.0500530 620.905600
    488    486   1038     1   123.0500530 620.905600
    491    494    514     1   111.6100477 551.451200
    491    497    498     1   112.3500484 533.878400
    491    497    501     1   112.3500484 533.878400
    494    491    497     1   111.0400475 552.288000
    497    498    507     1   111.0400475 552.288000
    497    501    504     1   111.0400475 552.288000
    498    497    501     1   112.3500484 533.878400
    498    507    511     1   111.0400475 529.694400
    501    504    510     1   111.0400475 529.694400
    504    510   1065     1   115.1800491 558.982400
    504    510    512     1   123.2000528 564.003200
    507    511    513     1   123.2000528 564.003200
    507    511   1092     1   115.1800491 558.982400
    510   1065   1067     1   120.6900519 530.531200
    511   1092   1094     1   120.6900519 530.531200
    512    510   1065     1   123.0500530 620.905600
    513    511   1092     1   123.0500530 620.905600
    516    519    539     1   111.6100477 551.451200
    516    522    523     1   112.3500484 533.878400
    516    522    526     1   112.3500484 533.878400
    519    516    522     1   111.0400475 552.288000
    522    523    532     1   111.0400475 552.288000
    522    526    529     1   111.0400475 552.288000
    523    522    526     1   112.3500484 533.878400
    523    532    536     1   111.0400475 529.694400
    526    529    535     1   111.0400475 529.694400
    529    535   1119     1   115.1800491 558.982400
    529    535    537     1   123.2000528 564.003200
    532    536    538     1   123.2000528 564.003200
    532    536   1146     1   115.1800491 558.982400
    535   1119   1121     1   120.6900519 530.531200
    536   1146   1148     1   120.6900519 530.531200
    537    535   1119     1   123.0500530 620.905600
    538    536   1146     1   123.0500530 620.905600
    541    544    564     1   111.6100477 551.451200
    541    547    548     1   112.3500484 533.878400
    541    547    551     1   112.3500484 533.878400
    544    541    547     1   111.0400475 552.288000
    547    548    557     1   111.0400475 552.288000
    547    551    554     1   111.0400475 552.288000
    548    547    551     1   112.3500484 533.878400
    548    557    561     1   111.0400475 529.694400
    551    554    560     1   111.0400475 529.694400
    554    560   1173     1   115.1800491 558.982400
    554    560    562     1   123.2000528 564.003200
    557    561    563     1   123.2000528 564.003200
    557    561   1200     1   115.1800491 558.982400
    560   1173   1175     1   120.6900519 530.531200
    561   1200   1202     1   120.6900519 530.531200
    562    560   1173     1   123.0500530 620.905600
    563    561   1200     1   123.0500530 620.905600
    566    569    589     1   111.6100477 551.451200
    566    572    573     1   112.3500484 533.878400
    566    572    576     1   112.3500484 533.878400
    569    566    572     1   111.0400475 552.288000
    572    573    582     1   111.0400475 552.288000
    572    576    579     1   111.0400475 552.288000
    573    572    576     1   112.3500484 533.878400
    573    582    586     1   111.0400475 529.694400
    576    579    585     1   111.0400475 529.694400
    579    585   1227     1   115.1800491 558.982400
    579    585    587     1   123.2000528 564.003200
    582    586    588     1   123.2000528 564.003200
    582    586   1254     1   115.1800491 558.982400
    585   1227   1229     1   120.6900519 530.531200
    586   1254   1256     1   120.6900519 530.531200
    587    585   1227     1   123.0500530 620.905600
    588    586   1254     1   123.0500530 620.905600
    591    594    614     1   111.6100477 551.451200
    591    597    598     1   112.3500484 533.878400
    591    597    601     1   112.3500484 533.878400
    594    591    597     1   111.0400475 552.288000
    597    598    607     1   111.0400475 552.288000
    597    601    604     1   111.0400475 552.288000
    598    597    601     1   112.3500484 533.878400
    598    607    611     1   111.0400475 529.694400
    601    604    610     1   111.0400475 529.694400
    604    610   1281     1   115.1800491 558.982400
    604    610    612     1   123.2000528 564.003200
    607    611    613     1   123.2000528 564.003200
    607    611   1308     1   115.1800491 558.982400
    610   1281   1283     1   120.6900519 530.531200
    611   1308   1310     1   120.6900519 530.531200
    612    610   1281     1   123.0500530 620.905600
    613    611   1308     1   123.0500530 620.905600
    616    619    639     1   111.6100477 551.451200
    616    622    623     1   112.3500484 533.878400
    616    622    626     1   112.3500484 533.878400
    619    616    622     1   111.0400475 552.288000
    622    623    632     1   111.0400475 552.288000
    622    626    629     1   111.0400475 552.288000
    623    622    626     1   112.3500484 533.878400
    623    632    636     1   111.0400475 529.694400
    626    629    635     1   111.0400475 529.694400
    629    635   1335     1   115.1800491 558.982400
    629    635    637     1   123.2000528 564.003200
    632    636    638     1   123.2000528 564.003200
    632    636   1362     1   115.1800491 558.982400
    635   1335   1337     1   120.6900519 530.531200
    636   1362   1364     1   120.6900519 530.531200
    637    635   1335     1   123.0500530 620.905600
    638    636   1362     1   123.0500530 620.905600
    641    644    664     1   111.6100477 551.451200
    641    647    648     1   112.3500484 533.878400
    641    647    651     1   112.3500484 533.878400
    644    641    647     1   111.0400475 552.288000
    647    648    657     1   111.0400475 552.288000
    647    651    654     1   111.0400475 552.288000
    648    647    651     1   112.3500484 533.878400
    648    657    661     1   111.0400475 529.694400
    651    654    660     1   111.0400475 529.694400
    654    660   1389     1   115.1800491 558.982400
    654    660    662     1   123.2000528 564.003200
    657    661    663     1   123.2000528 564.003200
    657    661   1416     1   115.1800491 558.982400
    660   1389   1391     1   120.6900519 530.531200
    661   1416   1418     1   120.6900519 530.531200
    662    660   1389     1   123.0500530 620.905600
    663    661   1416     1   123.0500530 620.905600
    666    669    689     1   111.6100477 551.451200
    666    672    673     1   112.3500484 533.878400
    666    672    676     1   112.3500484 533.878400
    669    666    672     1   111.0400475 552.288000
    672    673    682     1   111.0400475 552.288000
    672    676    679     1   111.0400475 552.288000
    673    672    676     1   112.3500484 533.878400
    673    682    686     1   111.0400475 529.694400
    676    679    685     1   111.0400475 529.694400
    679    685   1443     1   115.1800491 558.982400
    679    685    687     1   123.2000528 564.003200
    682    686    688     1   123.2000528 564.003200
    682    686   1470     1   115.1800491 558.982400
    685   1443   1445     1   120.6900519 530.531200
    686   1470   1472     1   120.6900519 530.531200
    687    685   1443     1   123.0500530 620.905600
    688    686   1470     1   123.0500530 620.905600
    691    694    714     1   111.6100477 551.451200
    691    697    698     1   112.3500484 533.878400
    691    697    701     1   112.3500484 533.878400
    694    691    697     1   111.0400475 552.288000
    697    698    707     1   111.0400475 552.288000
    697    701    704     1   111.0400475 552.288000
    698    697    701     1   112.3500484 533.878400
    698    707    711     1   111.0400475 529.694400
    701    704    710     1   111.0400475 529.694400
    704    710   1497     1   115.1800491 558.982400
    704    710    712     1   123.2000528 564.003200
    707    711    713     1   123.2000528 564.003200
    707    711   1524     1   115.1800491 558.982400
    710   1497   1499     1   120.6900519 530.531200
    711   1524   1526     1   120.6900519 530.531200
    712    710   1497     1   123.0500530 620.905600
    713    711   1524     1   123.0500530 620.905600
    716    719    739     1   111.6100477 551.451200
    716    722    723     1   112.3500484 533.878400
    716    722    726     1   112.3500484 533.878400
    719    716    722     1   111.0400475 552.288000
    722    723    732     1   111.0400475 552.288000
    722    726    729     1   111.0400475 552.288000
    723    722    726     1   112.3500484 533.878400
    723    732    736     1   111.0400475 529.694400
    726    729    735     1   111.0400475 529.694400
    729    735   1551     1   115.1800491 558.982400
    729    735    737     1   123.2000528 564.003200
    732    736   1578     1   115.1800491 558.982400
    732    736    738     1   123.2000528 564.003200
    735   1551   1553     1   120.6900519 530.531200
    736   1578   1580     1   120.6900519 530.531200
    737    735   1551     1   123.0500530 620.905600
    738    736   1578     1   123.0500530 620.905600
    741    743    745     1   111.6100477 551.451200
    743    745    749     1   111.0400475 552.288000
    745    749    750     1   112.3500484 533.878400
    745    749    751     1   112.3500484 533.878400
    749    750    762     1   111.0400475 552.288000
    749    751    753     1   111.0400475 552.288000
    750    749    751     1   112.3500484 533.878400
    750    762    765     1   111.0400475 529.694400
    751    753    757     1   111.0400475 529.694400
    753    757    758     1   123.2000528 564.003200
    753    757    759     1   123.2000528 564.003200
    758    757    759     1   130.2500561 651.867200
    762    765    766     1   123.2000528 564.003200
    762    765    767     1   123.2000528 564.003200
    766    765    767     1   130.2500561 651.867200
    768    770    772     1   111.6100477 551.451200
    770    772    776     1   111.0400475 552.288000
    772    776    777     1   112.3500484 533.878400
    772    776    778     1   112.3500484 533.878400
    776    777    789     1   111.0400475 552.288000
    776    778    780     1   111.0400475 552.288000
    777    789    792     1   111.0400475 529.694400
    777    776    778     1   112.3500484 533.878400
    778    780    784     1   111.0400475 529.694400
    780    784    785     1   123.2000528 564.003200
    780    784    786     1   123.2000528 564.003200
    785    784    786     1   130.2500561 651.867200
    789    792    793     1   123.2000528 564.003200
    789    792    794     1   123.2000528 564.003200
    793    792    794     1   130.2500561 651.867200
    795    797    799     1   111.6100477 551.451200
    797    799    803     1   111.0400475 552.288000
    799    803    804     1   112.3500484 533.878400
    799    803    805     1   112.3500484 533.878400
    803    804    816     1   111.0400475 552.288000
    803    805    807     1   111.0400475 552.288000
    804    803    805     1   112.3500484 533.878400
    804    816    819     1   111.0400475 529.694400
    805    807    811     1   111.0400475 529.694400
    807    811    812     1   123.2000528 564.003200
    807    811    813     1   123.2000528 564.003200
    812    811    813     1   130.2500561 651.867200
    816    819    820     1   123.2000528 564.003200
    816    819    821     1   123.2000528 564.003200
    820    819    821     1   130.2500561 651.867200
    822    824    826     1   111.6100477 551.451200
    824    826    830     1   111.0400475 552.288000
    826    830    831     1   112.3500484 533.878400
    826    830    832     1   112.3500484 533.878400
    830    831    843     1   111.0400475 552.288000
    830    832    834     1   111.0400475 552.288000
    831    843    846     1   111.0400475 529.694400
    831    830    832     1   112.3500484 533.878400
    832    834    838     1   111.0400475 529.694400
    834    838    839     1   123.2000528 564.003200
    834    838    840     1   123.2000528 564.003200
    839    838    840     1   130.2500561 651.867200
    843    846    847     1   123.2000528 564.003200
    843    846    848     1   123.2000528 564.003200
    847    846    848     1   130.2500561 651.867200
    849    851    853     1   111.6100477 551.451200
    851    853    857     1   111.0400475 552.288000
    853    857    858     1   112.3500484 533.878400
    853    857    859     1   112.3500484 533.878400
    857    858    870     1   111.0400475 552.288000
    857    859    861     1   111.0400475 552.288000
    858    857    859     1   112.3500484 533.878400
    858    870    873     1   111.0400475 529.694400
    859    861    865     1   111.0400475 529.694400
    861    865    866     1   123.2000528 564.003200
    861    865    867     1   123.2000528 564.003200
    866    865    867     1   130.2500561 651.867200
    870    873    874     1   123.2000528 564.003200
    870    873    875     1   123.2000528 564.003200
    874    873    875     1   130.2500561 651.867200
    876    878    880     1   111.6100477 551.451200
    878    880    884     1   111.0400475 552.288000
    880    884    885     1   112.3500484 533.878400
    880    884    886     1   112.3500484 533.878400
    884    885    897     1   111.0400475 552.288000
    884    886    888     1   111.0400475 552.288000
    885    897    900     1   111.0400475 529.694400
    885    884    886     1   112.3500484 533.878400
    886    888    892     1   111.0400475 529.694400
    888    892    893     1   123.2000528 564.003200
    888    892    894     1   123.2000528 564.003200
    893    892    894     1   130.2500561 651.867200
    897    900    901     1   123.2000528 564.003200
    897    900    902     1   123.2000528 564.003200
    901    900    902     1   130.2500561 651.867200
    903    905    907     1   111.6100477 551.451200
    905    907    911     1   111.0400475 552.288000
    907    911    912     1   112.3500484 533.878400
    907    911    913     1   112.3500484 533.878400
    911    912    924     1   111.0400475 552.288000
    911    913    915     1   111.0400475 552.288000
    912    911    913     1   112.3500484 533.878400
    912    924    927     1   111.0400475 529.694400
    913    915    919     1   111.0400475 529.694400
    915    919    920     1   123.2000528 564.003200
    915    919    921     1   123.2000528 564.003200
    920    919    921     1   130.2500561 651.867200
    924    927    928     1   123.2000528 564.003200
    924    927    929     1   123.2000528 564.003200
    928    927    929     1   130.2500561 651.867200
    930    932    934     1   111.6100477 551.451200
    932    934    938     1   111.0400475 552.288000
    934    938    939     1   112.3500484 533.878400
    934    938    940     1   112.3500484 533.878400
    938    939    951     1   111.0400475 552.288000
    938    940    942     1   111.0400475 552.288000
    939    951    954     1   111.0400475 529.694400
    939    938    940     1   112.3500484 533.878400
    940    942    946     1   111.0400475 529.694400
    942    946    947     1   123.2000528 564.003200
    942    946    948     1   123.2000528 564.003200
    947    946    948     1   130.2500561 651.867200
    951    954    955     1   123.2000528 564.003200
    951    954    956     1   123.2000528 564.003200
    955    954    956     1   130.2500561 651.867200
    957    959    961     1   111.6100477 551.451200
    959    961    965     1   111.0400475 552.288000
    961    965    966     1   112.3500484 533.878400
    961    965    967     1   112.3500484 533.878400
    965    966    978     1   111.0400475 552.288000
    965    967    969     1   111.0400475 552.288000
    966    965    967     1   112.3500484 533.878400
    966    978    981     1   111.0400475 529.694400
    967    969    973     1   111.0400475 529.694400
    969    973    974     1   123.2000528 564.003200
    969    973    975     1   123.2000528 564.003200
    974    973    975     1   130.2500561 651.867200
    978    981    982     1   123.2000528 564.003200
    978    981    983     1   123.2000528 564.003200
    982    981    983     1   130.2500561 651.867200
    984    986    988     1   111.6100477 551.451200
    986    988    992     1   111.0400475 552.288000
    988    992    993     1   112.3500484 533.878400
    988    992    994     1   112.3500484 533.878400
    992    993   1005     1   111.0400475 552.288000
    992    994    996     1   111.0400475 552.288000
    993   1005   1008     1   111.0400475 529.694400
    993    992    994     1   112.3500484 533.878400
    994    996   1000     1   111.0400475 529.694400
    996   1000   1001     1   123.2000528 564.003200
    996   1000   1002     1   123.2000528 564.003200
   1001   1000   1002     1   130.2500561 651.867200
   1005   1008   1009     1   123.2000528 564.003200
   1005   1008   1010     1   123.2000528 564.003200
   1009   1008   1010     1   130.2500561 651.867200
   1011   1013   1015     1   111.6100477 551.451200
   1013   1015   1019     1   111.0400475 552.288000
   1015   1019   1020     1   112.3500484 533.878400
   1015   1019   1021     1   112.3500484 533.878400
   1019   1020   1032     1   111.0400475 552.288000
   1019   1021   1023     1   111.0400475 552.288000
   1020   1019   1021     1   112.3500484 533.878400
   1020   1032   1035     1   111.0400475 529.694400
   1021   1023   1027     1   111.0400475 529.694400
   1023   1027   1028     1   123.2000528 564.003200
   1023   1027   1029     1   123.2000528 564.003200
   1028   1027   1029     1   130.2500561 651.867200
   1032   1035   1036     1   123.2000528 564.003200
   1032   1035   1037     1   123.2000528 564.003200
   1036   1035   1037     1   130.2500561 651.867200
   1038   1040   1042     1   111.6100477 551.451200
   1040   1042   1046     1   111.0400475 552.288000
   1042   1046   1047     1   112.3500484 533.878400
   1042   1046   1048     1   112.3500484 533.878400
   1046   1047   1059     1   111.0400475 552.288000
   1046   1048   1050     1   111.0400475 552.288000
   1047   1059   1062     1   111.0400475 529.694400
   1047   1046   1048     1   112.3500484 533.878400
   1048   1050   1054     1   111.0400475 529.694400
   1050   1054   1055     1   123.2000528 564.003200
   1050   1054   1056     1   123.2000528 564.003200
   1055   1054   1056     1   130.2500561 651.867200
   1059   1062   1063     1   123.2000528 564.003200
   1059   1062   1064     1   123.2000528 564.003200
   1063   1062   1064     1   130.2500561 651.867200
   1065   1067   1069     1   111.6100477 551.451200
   1067   1069   1073     1   111.0400475 552.288000
   1069   1073   1074     1   112.3500484 533.878400
   1069   1073   1075     1   112.3500484 533.878400
   1073   1074   1086     1   111.0400475 552.288000
   1073   1075   1077     1   111.0400475 552.288000
   1074   1073   1075     1   112.3500484 533.878400
   1074   1086   1089     1   111.0400475 529.694400
   1075   1077   1081     1   111.0400475 529.694400
   1077   1081   1082     1   123.2000528 564.003200
   1077   1081   1083     1   123.2000528 564.003200
   1082   1081   1083     1   130.2500561 651.867200
   1086   1089   1090     1   123.2000528 564.003200
   1086   1089   1091     1   123.2000528 564.003200
   1090   1089   1091     1   130.2500561 651.867200
   1092   1094   1096     1   111.6100477 551.451200
   1094   1096   1100     1   111.0400475 552.288000
   1096   1100   1101     1   112.3500484 533.878400
   1096   1100   1102     1   112.3500484 533.878400
   1100   1101   1113     1   111.0400475 552.288000
   1100   1102   1104     1   111.0400475 552.288000
   1101   1113   1116     1   111.0400475 529.694400
   1101   1100   1102     1   112.3500484 533.878400
   1102   1104   1108     1   111.0400475 529.694400
   1104   1108   1109     1   123.2000528 564.003200
   1104   1108   1110     1   123.2000528 564.003200
   1109   1108   1110     1   130.2500561 651.867200
   1113   1116   1117     1   123.2000528 564.003200
   1113   1116   1118     1   123.2000528 564.003200
   1117   1116   1118     1   130.2500561 651.867200
   1119   1121   1123     1   111.6100477 551.451200
   1121   1123   1127     1   111.0400475 552.288000
   1123   1127   1128     1   112.3500484 533.878400
   1123   1127   1129     1   112.3500484 533.878400
   1127   1128   1140     1   111.0400475 552.288000
   1127   1129   1131     1   111.0400475 552.288000
   1128   1127   1129     1   112.3500484 533.878400
   1128   1140   1143     1   111.0400475 529.694400
   1129   1131   1135     1   111.0400475 529.694400
   1131   1135   1136     1   123.2000528 564.003200
   1131   1135   1137     1   123.2000528 564.003200
   1136   1135   1137     1   130.2500561 651.867200
   1140   1143   1144     1   123.2000528 564.003200
   1140   1143   1145     1   123.2000528 564.003200
   1144   1143   1145     1   130.2500561 651.867200
   1146   1148   1150     1   111.6100477 551.451200
   1148   1150   1154     1   111.0400475 552.288000
   1150   1154   1155     1   112.3500484 533.878400
   1150   1154   1156     1   112.3500484 533.878400
   1154   1155   1167     1   111.0400475 552.288000
   1154   1156   1158     1   111.0400475 552.288000
   1155   1167   1170     1   111.0400475 529.694400
   1155   1154   1156     1   112.3500484 533.878400
   1156   1158   1162     1   111.0400475 529.694400
   1158   1162   1163     1   123.2000528 564.003200
   1158   1162   1164     1   123.2000528 564.003200
   1163   1162   1164     1   130.2500561 651.867200
   1167   1170   1171     1   123.2000528 564.003200
   1167   1170   1172     1   123.2000528 564.003200
   1171   1170   1172     1   130.2500561 651.867200
   1173   1175   1177     1   111.6100477 551.451200
   1175   1177   1181     1   111.0400475 552.288000
   1177   1181   1182     1   112.3500484 533.878400
   1177   1181   1183     1   112.3500484 533.878400
   1181   1182   1194     1   111.0400475 552.288000
   1181   1183   1185     1   111.0400475 552.288000
   1182   1181   1183     1   112.3500484 533.878400
   1182   1194   1197     1   111.0400475 529.694400
   1183   1185   1189     1   111.0400475 529.694400
   1185   1189   1190     1   123.2000528 564.003200
   1185   1189   1191     1   123.2000528 564.003200
   1190   1189   1191     1   130.2500561 651.867200
   1194   1197   1198     1   123.2000528 564.003200
   1194   1197   1199     1   123.2000528 564.003200
   1198   1197   1199     1   130.2500561 651.867200
   1200   1202   1204     1   111.6100477 551.451200
   1202   1204   1208     1   111.0400475 552.288000
   1204   1208   1209     1   112.3500484 533.878400
   1204   1208   1210     1   112.3500484 533.878400
   1208   1209   1221     1   111.0400475 552.288000
   1208   1210   1212     1   111.0400475 552.288000
   1209   1221   1224     1   111.0400475 529.694400
   1209   1208   1210     1   112.3500484 533.878400
   1210   1212   1216     1   111.0400475 529.694400
   1212   1216   1217     1   123.2000528 564.003200
   1212   1216   1218     1   123.2000528 564.003200
   1217   1216   1218     1   130.2500561 651.867200
   1221   1224   1225     1   123.2000528 564.003200
   1221   1224   1226     1   123.2000528 564.003200
   1225   1224   1226     1   130.2500561 651.867200
   1227   1229   1231     1   111.6100477 551.451200
   1229   1231   1235     1   111.0400475 552.288000
   1231   1235   1236     1   112.3500484 533.878400
   1231   1235   1237     1   112.3500484 533.878400
   1235   1236   1248     1   111.0400475 552.288000
   1235   1237   1239     1   111.0400475 552.288000
   1236   1235   1237     1   112.3500484 533.878400
   1236   1248   1251     1   111.0400475 529.694400
   1237   1239   1243     1   111.0400475 529.694400
   1239   1243   1244     1   123.2000528 564.003200
   1239   1243   1245     1   123.2000528 564.003200
   1244   1243   1245     1   130.2500561 651.867200
   1248   1251   1252     1   123.2000528 564.003200
   1248   1251   1253     1   123.2000528 564.003200
   1252   1251   1253     1   130.2500561 651.867200
   1254   1256   1258     1   111.6100477 551.451200
   1256   1258   1262     1   111.0400475 552.288000
   1258   1262   1263     1   112.3500484 533.878400
   1258   1262   1264     1   112.3500484 533.878400
   1262   1263   1275     1   111.0400475 552.288000
   1262   1264   1266     1   111.0400475 552.288000
   1263   1275   1278     1   111.0400475 529.694400
   1263   1262   1264     1   112.3500484 533.878400
   1264   1266   1270     1   111.0400475 529.694400
   1266   1270   1271     1   123.2000528 564.003200
   1266   1270   1272     1   123.2000528 564.003200
   1271   1270   1272     1   130.2500561 651.867200
   1275   1278   1279     1   123.2000528 564.003200
   1275   1278   1280     1   123.2000528 564.003200
   1279   1278   1280     1   130.2500561 651.867200
   1281   1283   1285     1   111.6100477 551.451200
   1283   1285   1289     1   111.0400475 552.288000
   1285   1289   1290     1   112.3500484 533.878400
   1285   1289   1291     1   112.3500484 533.878400
   1289   1290   1302     1   111.0400475 552.288000
   1289   1291   1293     1   111.0400475 552.288000
   1290   1289   1291     1   112.3500484 533.878400
   1290   1302   1305     1   111.0400475 529.694400
   1291   1293   1297     1   111.0400475 529.694400
   1293   1297   1298     1   123.2000528 564.003200
   1293   1297   1299     1   123.2000528 564.003200
   1298   1297   1299     1   130.2500561 651.867200
   1302   1305   1306     1   123.2000528 564.003200
   1302   1305   1307     1   123.2000528 564.003200
   1306   1305   1307     1   130.2500561 651.867200
   1308   1310   1312     1   111.6100477 551.451200
   1310   1312   1316     1   111.0400475 552.288000
   1312   1316   1317     1   112.3500484 533.878400
   1312   1316   1318     1   112.3500484 533.878400
   1316   1317   1329     1   111.0400475 552.288000
   1316   1318   1320     1   111.0400475 552.288000
   1317   1329   1332     1   111.0400475 529.694400
   1317   1316   1318     1   112.3500484 533.878400
   1318   1320   1324     1   111.0400475 529.694400
   1320   1324   1325     1   123.2000528 564.003200
   1320   1324   1326     1   123.2000528 564.003200
   1325   1324   1326     1   130.2500561 651.867200
   1329   1332   1333     1   123.2000528 564.003200
   1329   1332   1334     1   123.2000528 564.003200
   1333   1332   1334     1   130.2500561 651.867200
   1335   1337   1339     1   111.6100477 551.451200
   1337   1339   1343     1   111.0400475 552.288000
   1339   1343   1344     1   112.3500484 533.878400
   1339   1343   1345     1   112.3500484 533.878400
   1343   1344   1356     1   111.0400475 552.288000
   1343   1345   1347     1   111.0400475 552.288000
   1344   1343   1345     1   112.3500484 533.878400
   1344   1356   1359     1   111.0400475 529.694400
   1345   1347   1351     1   111.0400475 529.694400
   1347   1351   1352     1   123.2000528 564.003200
   1347   1351   1353     1   123.2000528 564.003200
   1352   1351   1353     1   130.2500561 651.867200
   1356   1359   1360     1   123.2000528 564.003200
   1356   1359   1361     1   123.2000528 564.003200
   1360   1359   1361     1   130.2500561 651.867200
   1362   1364   1366     1   111.6100477 551.451200
   1364   1366   1370     1   111.0400475 552.288000
   1366   1370   1371     1   112.3500484 533.878400
   1366   1370   1372     1   112.3500484 533.878400
   1370   1371   1383     1   111.0400475 552.288000
   1370   1372   1374     1   111.0400475 552.288000
   1371   1383   1386     1   111.0400475 529.694400
   1371   1370   1372     1   112.3500484 533.878400
   1372   1374   1378     1   111.0400475 529.694400
   1374   1378   1379     1   123.2000528 564.003200
   1374   1378   1380     1   123.2000528 564.003200
   1379   1378   1380     1   130.2500561 651.867200
   1383   1386   1387     1   123.2000528 564.003200
   1383   1386   1388     1   123.2000528 564.003200
   1387   1386   1388     1   130.2500561 651.867200
   1389   1391   1393     1   111.6100477 551.451200
   1391   1393   1397     1   111.0400475 552.288000
   1393   1397   1398     1   112.3500484 533.878400
   1393   1397   1399     1   112.3500484 533.878400
   1397   1398   1410     1   111.0400475 552.288000
   1397   1399   1401     1   111.0400475 552.288000
   1398   1397   1399     1   112.3500484 533.878400
   1398   1410   1413     1   111.0400475 529.694400
   1399   1401   1405     1   111.0400475 529.694400
   1401   1405   1406     1   123.2000528 564.003200
   1401   1405   1407     1   123.2000528 564.003200
   1406   1405   1407     1   130.2500561 651.867200
   1410   1413   1414     1   123.2000528 564.003200
   1410   1413   1415     1   123.2000528 564.003200
   1414   1413   1415     1   130.2500561 651.867200
   1416   1418   1420     1   111.6100477 551.451200
   1418   1420   1424     1   111.0400475 552.288000
   1420   1424   1425     1   112.3500484 533.878400
   1420   1424   1426     1   112.3500484 533.878400
   1424   1425   1437     1   111.0400475 552.288000
   1424   1426   1428     1   111.0400475 552.288000
   1425   1437   1440     1   111.0400475 529.694400
   1425   1424   1426     1   112.3500484 533.878400
   1426   1428   1432     1   111.0400475 529.694400
   1428   1432   1433     1   123.2000528 564.003200
   1428   1432   1434     1   123.2000528 564.003200
   1433   1432   1434     1   130.2500561 651.867200
   1437   1440   1441     1   123.2000528 564.003200
   1437   1440   1442     1   123.2000528 564.003200
   1441   1440   1442     1   130.2500561 651.867200
   1443   1445   1447     1   111.6100477 551.451200
   1445   1447   1451     1   111.0400475 552.288000
   1447   1451   1452     1   112.3500484 533.878400
   1447   1451   1453     1   112.3500484 533.878400
   1451   1452   1464     1   111.0400475 552.288000
   1451   1453   1455     1   111.0400475 552.288000
   1452   1451   1453     1   112.3500484 533.878400
   1452   1464   1467     1   111.0400475 529.694400
   1453   1455   1459     1   111.0400475 529.694400
   1455   1459   1460     1   123.2000528 564.003200
   1455   1459   1461     1   123.2000528 564.003200
   1460   1459   1461     1   130.2500561 651.867200
   1464   1467   1468     1   123.2000528 564.003200
   1464   1467   1469     1   123.2000528 564.003200
   1468   1467   1469     1   130.2500561 651.867200
   1470   1472   1474     1   111.6100477 551.451200
   1472   1474   1478     1   111.0400475 552.288000
   1474   1478   1479     1   112.3500484 533.878400
   1474   1478   1480     1   112.3500484 533.878400
   1478   1479   1491     1   111.0400475 552.288000
   1478   1480   1482     1   111.0400475 552.288000
   1479   1491   1494     1   111.0400475 529.694400
   1479   1478   1480     1   112.3500484 533.878400
   1480   1482   1486     1   111.0400475 529.694400
   1482   1486   1487     1   123.2000528 564.003200
   1482   1486   1488     1   123.2000528 564.003200
   1487   1486   1488     1   130.2500561 651.867200
   1491   1494   1495     1   123.2000528 564.003200
   1491   1494   1496     1   123.2000528 564.003200
   1495   1494   1496     1   130.2500561 651.867200
   1497   1499   1501     1   111.6100477 551.451200
   1499   1501   1505     1   111.0400475 552.288000
   1501   1505   1506     1   112.3500484 533.878400
   1501   1505   1507     1   112.3500484 533.878400
   1505   1506   1518     1   111.0400475 552.288000
   1505   1507   1509     1   111.0400475 552.288000
   1506   1505   1507     1   112.3500484 533.878400
   1506   1518   1521     1   111.0400475 529.694400
   1507   1509   1513     1   111.0400475 529.694400
   1509   1513   1514     1   123.2000528 564.003200
   1509   1513   1515     1   123.2000528 564.003200
   1514   1513   1515     1   130.2500561 651.867200
   1518   1521   1522     1   123.2000528 564.003200
   1518   1521   1523     1   123.2000528 564.003200
   1522   1521   1523     1   130.2500561 651.867200
   1524   1526   1528     1   111.6100477 551.451200
   1526   1528   1532     1   111.0400475 552.288000
   1528   1532   1533     1   112.3500484 533.878400
   1528   1532   1534     1   112.3500484 533.878400
   1532   1533   1545     1   111.0400475 552.288000
   1532   1534   1536     1   111.0400475 552.288000
   1533   1545   1548     1   111.0400475 529.694400
   1533   1532   1534     1   112.3500484 533.878400
   1534   1536   1540     1   111.0400475 529.694400
   1536   1540   1541     1   123.2000528 564.003200
   1536   1540   1542     1   123.2000528 564.003200
   1541   1540   1542     1   130.2500561 651.867200
   1545   1548   1549     1   123.2000528 564.003200
   1545   1548   1550     1   123.2000528 564.003200
   1549   1548   1550     1   130.2500561 651.867200
   1551   1553   1555     1   111.6100477 551.451200
   1553   1555   1559     1   111.0400475 552.288000
   1555   1559   1560     1   112.3500484 533.878400
   1555   1559   1561     1   112.3500484 533.878400
   1559   1560   1572     1   111.0400475 552.288000
   1559   1561   1563     1   111.0400475 552.288000
   1560   1559   1561     1   112.3500484 533.878400
   1560   1572   1575     1   111.0400475 529.694400
   1561   1563   1567     1   111.0400475 529.694400
   1563   1567   1568     1   123.2000528 564.003200
   1563   1567   1569     1   123.2000528 564.003200
   1568   1567   1569     1   130.2500561 651.867200
   1572   1575   1576     1   123.2000528 564.003200
   1572   1575   1577     1   123.2000528 564.003200
   1576   1575   1577     1   130.2500561 651.867200
   1578   1580   1582     1   111.6100477 551.451200
   1580   1582   1586     1   111.0400475 552.288000
   1582   1586   1587     1   112.3500484 533.878400
   1582   1586   1588     1   112.3500484 533.878400
   1586   1587   1599     1   111.0400475 552.288000
   1586   1588   1590     1   111.0400475 552.288000
   1587   1599   1602     1   111.0400475 529.694400
   1587   1586   1588     1   112.3500484 533.878400
   1588   1590   1594     1   111.0400475 529.694400
   1590   1594   1595     1   123.2000528 564.003200
   1590   1594   1596     1   123.2000528 564.003200
   1595   1594   1596     1   130.2500561 651.867200
   1599   1602   1603     1   123.2000528 564.003200
   1599   1602   1604     1   123.2000528 564.003200
   1603   1602   1604     1   130.2500561 651.867200
      1      4      5     1   109.5600471 388.275200
      1      4      6     1   109.5600471 388.275200
      2      1      4     1   109.5600471 388.275200
      2      1      8     1   109.8800469 414.216000
      2      1      3     1   108.4600466 328.025600
      3      1      4     1   109.5600471 388.275200
      3      1      8     1   109.8800469 414.216000
      5      4      7     1   109.8800469 414.216000
      5      4      6     1   108.4600466 328.025600
      6      4      7     1   109.8800469 414.216000
      7     15     16     1   109.8800469 414.216000
      7     15     17     1   109.8800469 414.216000
      7     18     19     1   109.8800469 414.216000
      7     18     20     1   109.8800469 414.216000
      8      9     10     1   109.8800469 414.216000
      8      9     11     1   109.8800469 414.216000
      8     12     13     1   109.8800469 414.216000
      8     12     14     1   109.8800469 414.216000
      9     30     31     1   109.8000471 387.438400
      9     30     32     1   109.8000471 387.438400
     10      9     30     1   109.5600471 388.275200
     10      9     11     1   108.4600466 328.025600
     11      9     30     1   109.5600471 388.275200
     12     27     28     1   109.8000471 387.438400
     12     27     29     1   109.8000471 387.438400
     13     12     27     1   109.5600471 388.275200
     13     12     14     1   108.4600466 328.025600
     14     12     27     1   109.5600471 388.275200
     15     21     22     1   109.8000471 387.438400
     15     21     23     1   109.8000471 387.438400
     16     15     21     1   109.5600471 388.275200
     16     15     17     1   108.4600466 328.025600
     17     15     21     1   109.5600471 388.275200
     18     24     25     1   109.8000471 387.438400
     18     24     26     1   109.8000471 387.438400
     19     18     24     1   109.5600471 388.275200
     19     18     20     1   108.4600466 328.025600
     20     18     24     1   109.5600471 388.275200
     22     21     35     1   108.7700466 392.459200
     22     21     23     1   107.5800459 329.699200
     23     21     35     1   108.7700466 392.459200
     25     24     36     1   108.7700466 392.459200
     25     24     26     1   107.5800459 329.699200
     26     24     36     1   108.7700466 392.459200
     28     27     33     1   108.7700466 392.459200
     28     27     29     1   107.5800459 329.699200
     29     27     33     1   108.7700466 392.459200
     31     30     34     1   108.7700466 392.459200
     31     30     32     1   107.5800459 329.699200
     32     30     34     1   108.7700466 392.459200
     33     64     65     1   117.5500507 404.174400
     34     89     90     1   117.5500507 404.174400
     35    114    115     1   117.5500507 404.174400
     36    139    140     1   117.5500507 404.174400
     41     44     45     1   109.5600471 388.275200
     41     44     46     1   109.5600471 388.275200
     42     41     44     1   109.5600471 388.275200
     42     41     47     1   109.8800469 414.216000
     42     41     43     1   108.4600466 328.025600
     43     41     44     1   109.5600471 388.275200
     43     41     47     1   109.8800469 414.216000
     44     64     65     1   117.6800502 383.254400
     45     44     64     1   108.8800464 416.726400
     45     44     46     1   108.4600466 328.025600
     46     44     64     1   108.8800464 416.726400
     47     48     49     1   109.8800469 414.216000
     47     48     50     1   109.8800469 414.216000
     47     51     52     1   109.8800469 414.216000
     47     51     53     1   109.8800469 414.216000
     48     57     58     1   109.8000471 387.438400
     48     57     59     1   109.8000471 387.438400
     49     48     57     1   109.5600471 388.275200
     49     48     50     1   108.4600466 328.025600
     50     48     57     1   109.5600471 388.275200
     51     54     55     1   109.8000471 387.438400
     51     54     56     1   109.8000471 387.438400
     52     51     54     1   109.5600471 388.275200
     52     51     53     1   108.4600466 328.025600
     53     51     54     1   109.5600471 388.275200
     55     54     60     1   108.7700466 392.459200
     55     54     56     1   107.5800459 329.699200
     56     54     60     1   108.7700466 392.459200
     58     57     61     1   108.7700466 392.459200
     58     57     59     1   107.5800459 329.699200
     59     57     61     1   108.7700466 392.459200
     60    164    165     1   117.5500507 404.174400
     61    189    190     1   117.5500507 404.174400
     66     69     70     1   109.5600471 388.275200
     66     69     71     1   109.5600471 388.275200
     67     66     69     1   109.5600471 388.275200
     67     66     72     1   109.8800469 414.216000
     67     66     68     1   108.4600466 328.025600
     68     66     69     1   109.5600471 388.275200
     68     66     72     1   109.8800469 414.216000
     69     89     90     1   117.6800502 383.254400
     70     69     89     1   108.8800464 416.726400
     70     69     71     1   108.4600466 328.025600
     71     69     89     1   108.8800464 416.726400
     72     73     74     1   109.8800469 414.216000
     72     73     75     1   109.8800469 414.216000
     72     76     77     1   109.8800469 414.216000
     72     76     78     1   109.8800469 414.216000
     73     82     83     1   109.8000471 387.438400
     73     82     84     1   109.8000471 387.438400
     74     73     82     1   109.5600471 388.275200
     74     73     75     1   108.4600466 328.025600
     75     73     82     1   109.5600471 388.275200
     76     79     80     1   109.8000471 387.438400
     76     79     81     1   109.8000471 387.438400
     77     76     79     1   109.5600471 388.275200
     77     76     78     1   108.4600466 328.025600
     78     76     79     1   109.5600471 388.275200
     80     79     85     1   108.7700466 392.459200
     80     79     81     1   107.5800459 329.699200
     81     79     85     1   108.7700466 392.459200
     83     82     86     1   108.7700466 392.459200
     83     82     84     1   107.5800459 329.699200
     84     82     86     1   108.7700466 392.459200
     85    214    215     1   117.5500507 404.174400
     86    239    240     1   117.5500507 404.174400
     91     94     95     1   109.5600471 388.275200
     91     94     96     1   109.5600471 388.275200
     92     91     94     1   109.5600471 388.275200
     92     91     97     1   109.8800469 414.216000
     92     91     93     1   108.4600466 328.025600
     93     91     94     1   109.5600471 388.275200
     93     91     97     1   109.8800469 414.216000
     94    114    115     1   117.6800502 383.254400
     95     94    114     1   108.8800464 416.726400
     95     94     96     1   108.4600466 328.025600
     96     94    114     1   108.8800464 416.726400
     97     98     99     1   109.8800469 414.216000
     97     98    100     1   109.8800469 414.216000
     97    101    102     1   109.8800469 414.216000
     97    101    103     1   109.8800469 414.216000
     98    107    108     1   109.8000471 387.438400
     98    107    109     1   109.8000471 387.438400
     99     98    107     1   109.5600471 388.275200
     99     98    100     1   108.4600466 328.025600
    100     98    107     1   109.5600471 388.275200
    101    104    105     1   109.8000471 387.438400
    101    104    106     1   109.8000471 387.438400
    102    101    104     1   109.5600471 388.275200
    102    101    103     1   108.4600466 328.025600
    103    101    104     1   109.5600471 388.275200
    105    104    110     1   108.7700466 392.459200
    105    104    106     1   107.5800459 329.699200
    106    104    110     1   108.7700466 392.459200
    108    107    111     1   108.7700466 392.459200
    108    107    109     1   107.5800459 329.699200
    109    107    111     1   108.7700466 392.459200
    110    264    265     1   117.5500507 404.174400
    111    289    290     1   117.5500507 404.174400
    116    119    120     1   109.5600471 388.275200
    116    119    121     1   109.5600471 388.275200
    117    116    119     1   109.5600471 388.275200
    117    116    122     1   109.8800469 414.216000
    117    116    118     1   108.4600466 328.025600
    118    116    119     1   109.5600471 388.275200
    118    116    122     1   109.8800469 414.216000
    119    139    140     1   117.6800502 383.254400
    120    119    139     1   108.8800464 416.726400
    120    119    121     1   108.4600466 328.025600
    121    119    139     1   108.8800464 416.726400
    122    123    124     1   109.8800469 414.216000
    122    123    125     1   109.8800469 414.216000
    122    126    127     1   109.8800469 414.216000
    122    126    128     1   109.8800469 414.216000
    123    132    133     1   109.8000471 387.438400
    123    132    134     1   109.8000471 387.438400
    124    123    132     1   109.5600471 388.275200
    124    123    125     1   108.4600466 328.025600
    125    123    132     1   109.5600471 388.275200
    126    129    130     1   109.8000471 387.438400
    126    129    131     1   109.8000471 387.438400
    127    126    129     1   109.5600471 388.275200
    127    126    128     1   108.4600466 328.025600
    128    126    129     1   109.5600471 388.275200
    130    129    135     1   108.7700466 392.459200
    130    129    131     1   107.5800459 329.699200
    131    129    135     1   108.7700466 392.459200
    133    132    136     1   108.7700466 392.459200
    133    132    134     1   107.5800459 329.699200
    134    132    136     1   108.7700466 392.459200
    135    314    315     1   117.5500507 404.174400
    136    339    340     1   117.5500507 404.174400
    141    144    145     1   109.5600471 388.275200
    141    144    146     1   109.5600471 388.275200
    142    141    144     1   109.5600471 388.275200
    142    141    147     1   109.8800469 414.216000
    142    141    143     1   108.4600466 328.025600
    143    141    144     1   109.5600471 388.275200
    143    141    147     1   109.8800469 414.216000
    144    164    165     1   117.6800502 383.254400
    145    144    164     1   108.8800464 416.726400
    145    144    146     1   108.4600466 328.025600
    146    144    164     1   108.8800464 416.726400
    147    148    149     1   109.8800469 414.216000
    147    148    150     1   109.8800469 414.216000
    147    151    152     1   109.8800469 414.216000
    147    151    153     1   109.8800469 414.216000
    148    157    158     1   109.8000471 387.438400
    148    157    159     1   109.8000471 387.438400
    149    148    157     1   109.5600471 388.275200
    149    148    150     1   108.4600466 328.025600
    150    148    157     1   109.5600471 388.275200
    151    154    155     1   109.8000471 387.438400
    151    154    156     1   109.8000471 387.438400
    152    151    154     1   109.5600471 388.275200
    152    151    153     1   108.4600466 328.025600
    153    151    154     1   109.5600471 388.275200
    155    154    160     1   108.7700466 392.459200
    155    154    156     1   107.5800459 329.699200
    156    154    160     1   108.7700466 392.459200
    158    157    161     1   108.7700466 392.459200
    158    157    159     1   107.5800459 329.699200
    159    157    161     1   108.7700466 392.459200
    160    364    365     1   117.5500507 404.174400
    161    389    390     1   117.5500507 404.174400
    166    169    170     1   109.5600471 388.275200
    166    169    171     1   109.5600471 388.275200
    167    166    169     1   109.5600471 388.275200
    167    166    172     1   109.8800469 414.216000
    167    166    168     1   108.4600466 328.025600
    168    166    169     1   109.5600471 388.275200
    168    166    172     1   109.8800469 414.216000
    169    189    190     1   117.6800502 383.254400
    170    169    189     1   108.8800464 416.726400
    170    169    171     1   108.4600466 328.025600
    171    169    189     1   108.8800464 416.726400
    172    173    174     1   109.8800469 414.216000
    172    173    175     1   109.8800469 414.216000
    172    176    177     1   109.8800469 414.216000
    172    176    178     1   109.8800469 414.216000
    173    182    183     1   109.8000471 387.438400
    173    182    184     1   109.8000471 387.438400
    174    173    182     1   109.5600471 388.275200
    174    173    175     1   108.4600466 328.025600
    175    173    182     1   109.5600471 388.275200
    176    179    180     1   109.8000471 387.438400
    176    179    181     1   109.8000471 387.438400
    177    176    179     1   109.5600471 388.275200
    177    176    178     1   108.4600466 328.025600
    178    176    179     1   109.5600471 388.275200
    180    179    185     1   108.7700466 392.459200
    180    179    181     1   107.5800459 329.699200
    181    179    185     1   108.7700466 392.459200
    183    182    186     1   108.7700466 392.459200
    183    182    184     1   107.5800459 329.699200
    184    182    186     1   108.7700466 392.459200
    185    414    415     1   117.5500507 404.174400
    186    439    440     1   117.5500507 404.174400
    191    194    195     1   109.5600471 388.275200
    191    194    196     1   109.5600471 388.275200
    192    191    194     1   109.5600471 388.275200
    192    191    197     1   109.8800469 414.216000
    192    191    193     1   108.4600466 328.025600
    193    191    194     1   109.5600471 388.275200
    193    191    197     1   109.8800469 414.216000
    194    214    215     1   117.6800502 383.254400
    195    194    214     1   108.8800464 416.726400
    195    194    196     1   108.4600466 328.025600
    196    194    214     1   108.8800464 416.726400
    197    198    199     1   109.8800469 414.216000
    197    198    200     1   109.8800469 414.216000
    197    201    202     1   109.8800469 414.216000
    197    201    203     1   109.8800469 414.216000
    198    207    208     1   109.8000471 387.438400
    198    207    209     1   109.8000471 387.438400
    199    198    207     1   109.5600471 388.275200
    199    198    200     1   108.4600466 328.025600
    200    198    207     1   109.5600471 388.275200
    201    204    205     1   109.8000471 387.438400
    201    204    206     1   109.8000471 387.438400
    202    201    204     1   109.5600471 388.275200
    202    201    203     1   108.4600466 328.025600
    203    201    204     1   109.5600471 388.275200
    205    204    210     1   108.7700466 392.459200
    205    204    206     1   107.5800459 329.699200
    206    204    210     1   108.7700466 392.459200
    208    207    211     1   108.7700466 392.459200
    208    207    209     1   107.5800459 329.699200
    209    207    211     1   108.7700466 392.459200
    210    464    465     1   117.5500507 404.174400
    211    489    490     1   117.5500507 404.174400
    216    219    220     1   109.5600471 388.275200
    216    219    221     1   109.5600471 388.275200
    217    216    219     1   109.5600471 388.275200
    217    216    222     1   109.8800469 414.216000
    217    216    218     1   108.4600466 328.025600
    218    216    219     1   109.5600471 388.275200
    218    216    222     1   109.8800469 414.216000
    219    239    240     1   117.6800502 383.254400
    220    219    239     1   108.8800464 416.726400
    220    219    221     1   108.4600466 328.025600
    221    219    239     1   108.8800464 416.726400
    222    223    224     1   109.8800469 414.216000
    222    223    225     1   109.8800469 414.216000
    222    226    227     1   109.8800469 414.216000
    222    226    228     1   109.8800469 414.216000
    223    232    233     1   109.8000471 387.438400
    223    232    234     1   109.8000471 387.438400
    224    223    232     1   109.5600471 388.275200
    224    223    225     1   108.4600466 328.025600
    225    223    232     1   109.5600471 388.275200
    226    229    230     1   109.8000471 387.438400
    226    229    231     1   109.8000471 387.438400
    227    226    229     1   109.5600471 388.275200
    227    226    228     1   108.4600466 328.025600
    228    226    229     1   109.5600471 388.275200
    230    229    235     1   108.7700466 392.459200
    230    229    231     1   107.5800459 329.699200
    231    229    235     1   108.7700466 392.459200
    233    232    236     1   108.7700466 392.459200
    233    232    234     1   107.5800459 329.699200
    234    232    236     1   108.7700466 392.459200
    235    514    515     1   117.5500507 404.174400
    236    539    540     1   117.5500507 404.174400
    241    244    245     1   109.5600471 388.275200
    241    244    246     1   109.5600471 388.275200
    242    241    244     1   109.5600471 388.275200
    242    241    247     1   109.8800469 414.216000
    242    241    243     1   108.4600466 328.025600
    243    241    244     1   109.5600471 388.275200
    243    241    247     1   109.8800469 414.216000
    244    264    265     1   117.6800502 383.254400
    245    244    264     1   108.8800464 416.726400
    245    244    246     1   108.4600466 328.025600
    246    244    264     1   108.8800464 416.726400
    247    248    249     1   109.8800469 414.216000
    247    248    250     1   109.8800469 414.216000
    247    251    252     1   109.8800469 414.216000
    247    251    253     1   109.8800469 414.216000
    248    257    258     1   109.8000471 387.438400
    248    257    259     1   109.8000471 387.438400
    249    248    257     1   109.5600471 388.275200
    249    248    250     1   108.4600466 328.025600
    250    248    257     1   109.5600471 388.275200
    251    254    255     1   109.8000471 387.438400
    251    254    256     1   109.8000471 387.438400
    252    251    254     1   109.5600471 388.275200
    252    251    253     1   108.4600466 328.025600
    253    251    254     1   109.5600471 388.275200
    255    254    260     1   108.7700466 392.459200
    255    254    256     1   107.5800459 329.699200
    256    254    260     1   108.7700466 392.459200
    258    257    261     1   108.7700466 392.459200
    258    257    259     1   107.5800459 329.699200
    259    257    261     1   108.7700466 392.459200
    260    564    565     1   117.5500507 404.174400
    261    589    590     1   117.5500507 404.174400
    266    269    270     1   109.5600471 388.275200
    266    269    271     1   109.5600471 388.275200
    267    266    269     1   109.5600471 388.275200
    267    266    272     1   109.8800469 414.216000
    267    266    268     1   108.4600466 328.025600
    268    266    269     1   109.5600471 388.275200
    268    266    272     1   109.8800469 414.216000
    269    289    290     1   117.6800502 383.254400
    270    269    289     1   108.8800464 416.726400
    270    269    271     1   108.4600466 328.025600
    271    269    289     1   108.8800464 416.726400
    272    273    274     1   109.8800469 414.216000
    272    273    275     1   109.8800469 414.216000
    272    276    277     1   109.8800469 414.216000
    272    276    278     1   109.8800469 414.216000
    273    282    283     1   109.8000471 387.438400
    273    282    284     1   109.8000471 387.438400
    274    273    282     1   109.5600471 388.275200
    274    273    275     1   108.4600466 328.025600
    275    273    282     1   109.5600471 388.275200
    276    279    280     1   109.8000471 387.438400
    276    279    281     1   109.8000471 387.438400
    277    276    279     1   109.5600471 388.275200
    277    276    278     1   108.4600466 328.025600
    278    276    279     1   109.5600471 388.275200
    280    279    285     1   108.7700466 392.459200
    280    279    281     1   107.5800459 329.699200
    281    279    285     1   108.7700466 392.459200
    283    282    286     1   108.7700466 392.459200
    283    282    284     1   107.5800459 329.699200
    284    282    286     1   108.7700466 392.459200
    285    614    615     1   117.5500507 404.174400
    286    639    640     1   117.5500507 404.174400
    291    294    295     1   109.5600471 388.275200
    291    294    296     1   109.5600471 388.275200
    292    291    294     1   109.5600471 388.275200
    292    291    297     1   109.8800469 414.216000
    292    291    293     1   108.4600466 328.025600
    293    291    294     1   109.5600471 388.275200
    293    291    297     1   109.8800469 414.216000
    294    314    315     1   117.6800502 383.254400
    295    294    314     1   108.8800464 416.726400
    295    294    296     1   108.4600466 328.025600
    296    294    314     1   108.8800464 416.726400
    297    298    299     1   109.8800469 414.216000
    297    298    300     1   109.8800469 414.216000
    297    301    302     1   109.8800469 414.216000
    297    301    303     1   109.8800469 414.216000
    298    307    308     1   109.8000471 387.438400
    298    307    309     1   109.8000471 387.438400
    299    298    307     1   109.5600471 388.275200
    299    298    300     1   108.4600466 328.025600
    300    298    307     1   109.5600471 388.275200
    301    304    305     1   109.8000471 387.438400
    301    304    306     1   109.8000471 387.438400
    302    301    304     1   109.5600471 388.275200
    302    301    303     1   108.4600466 328.025600
    303    301    304     1   109.5600471 388.275200
    305    304    310     1   108.7700466 392.459200
    305    304    306     1   107.5800459 329.699200
    306    304    310     1   108.7700466 392.459200
    308    307    311     1   108.7700466 392.459200
    308    307    309     1   107.5800459 329.699200
    309    307    311     1   108.7700466 392.459200
    310    664    665     1   117.5500507 404.174400
    311    689    690     1   117.5500507 404.174400
    316    319    320     1   109.5600471 388.275200
    316    319    321     1   109.5600471 388.275200
    317    316    319     1   109.5600471 388.275200
    317    316    322     1   109.8800469 414.216000
    317    316    318     1   108.4600466 328.025600
    318    316    319     1   109.5600471 388.275200
    318    316    322     1   109.8800469 414.216000
    319    339    340     1   117.6800502 383.254400
    320    319    339     1   108.8800464 416.726400
    320    319    321     1   108.4600466 328.025600
    321    319    339     1   108.8800464 416.726400
    322    323    324     1   109.8800469 414.216000
    322    323    325     1   109.8800469 414.216000
    322    326    327     1   109.8800469 414.216000
    322    326    328     1   109.8800469 414.216000
    323    332    333     1   109.8000471 387.438400
    323    332    334     1   109.8000471 387.438400
    324    323    332     1   109.5600471 388.275200
    324    323    325     1   108.4600466 328.025600
    325    323    332     1   109.5600471 388.275200
    326    329    330     1   109.8000471 387.438400
    326    329    331     1   109.8000471 387.438400
    327    326    329     1   109.5600471 388.275200
    327    326    328     1   108.4600466 328.025600
    328    326    329     1   109.5600471 388.275200
    330    329    335     1   108.7700466 392.459200
    330    329    331     1   107.5800459 329.699200
    331    329    335     1   108.7700466 392.459200
    333    332    336     1   108.7700466 392.459200
    333    332    334     1   107.5800459 329.699200
    334    332    336     1   108.7700466 392.459200
    335    714    715     1   117.5500507 404.174400
    336    739    740     1   117.5500507 404.174400
    341    344    345     1   109.5600471 388.275200
    341    344    346     1   109.5600471 388.275200
    342    341    344     1   109.5600471 388.275200
    342    341    347     1   109.8800469 414.216000
    342    341    343     1   108.4600466 328.025600
    343    341    344     1   109.5600471 388.275200
    343    341    347     1   109.8800469 414.216000
    344    364    365     1   117.6800502 383.254400
    345    344    364     1   108.8800464 416.726400
    345    344    346     1   108.4600466 328.025600
    346    344    364     1   108.8800464 416.726400
    347    348    349     1   109.8800469 414.216000
    347    348    350     1   109.8800469 414.216000
    347    351    352     1   109.8800469 414.216000
    347    351    353     1   109.8800469 414.216000
    348    357    358     1   109.8000471 387.438400
    348    357    359     1   109.8000471 387.438400
    349    348    357     1   109.5600471 388.275200
    349    348    350     1   108.4600466 328.025600
    350    348    357     1   109.5600471 388.275200
    351    354    355     1   109.8000471 387.438400
    351    354    356     1   109.8000471 387.438400
    352    351    354     1   109.5600471 388.275200
    352    351    353     1   108.4600466 328.025600
    353    351    354     1   109.5600471 388.275200
    355    354    360     1   108.7700466 392.459200
    355    354    356     1   107.5800459 329.699200
    356    354    360     1   108.7700466 392.459200
    358    357    361     1   108.7700466 392.459200
    358    357    359     1   107.5800459 329.699200
    359    357    361     1   108.7700466 392.459200
    360    741    742     1   117.5500507 404.174400
    361    768    769     1   117.5500507 404.174400
    366    369    370     1   109.5600471 388.275200
    366    369    371     1   109.5600471 388.275200
    367    366    369     1   109.5600471 388.275200
    367    366    372     1   109.8800469 414.216000
    367    366    368     1   108.4600466 328.025600
    368    366    369     1   109.5600471 388.275200
    368    366    372     1   109.8800469 414.216000
    369    389    390     1   117.6800502 383.254400
    370    369    389     1   108.8800464 416.726400
    370    369    371     1   108.4600466 328.025600
    371    369    389     1   108.8800464 416.726400
    372    373    374     1   109.8800469 414.216000
    372    373    375     1   109.8800469 414.216000
    372    376    377     1   109.8800469 414.216000
    372    376    378     1   109.8800469 414.216000
    373    382    383     1   109.8000471 387.438400
    373    382    384     1   109.8000471 387.438400
    374    373    382     1   109.5600471 388.275200
    374    373    375     1   108.4600466 328.025600
    375    373    382     1   109.5600471 388.275200
    376    379    380     1   109.8000471 387.438400
    376    379    381     1   109.8000471 387.438400
    377    376    379     1   109.5600471 388.275200
    377    376    378     1   108.4600466 328.025600
    378    376    379     1   109.5600471 388.275200
    380    379    385     1   108.7700466 392.459200
    380    379    381     1   107.5800459 329.699200
    381    379    385     1   108.7700466 392.459200
    383    382    386     1   108.7700466 392.459200
    383    382    384     1   107.5800459 329.699200
    384    382    386     1   108.7700466 392.459200
    385    795    796     1   117.5500507 404.174400
    386    822    823     1   117.5500507 404.174400
    391    394    395     1   109.5600471 388.275200
    391    394    396     1   109.5600471 388.275200
    392    391    394     1   109.5600471 388.275200
    392    391    397     1   109.8800469 414.216000
    392    391    393     1   108.4600466 328.025600
    393    391    394     1   109.5600471 388.275200
    393    391    397     1   109.8800469 414.216000
    394    414    415     1   117.6800502 383.254400
    395    394    414     1   108.8800464 416.726400
    395    394    396     1   108.4600466 328.025600
    396    394    414     1   108.8800464 416.726400
    397    398    399     1   109.8800469 414.216000
    397    398    400     1   109.8800469 414.216000
    397    401    402     1   109.8800469 414.216000
    397    401    403     1   109.8800469 414.216000
    398    407    408     1   109.8000471 387.438400
    398    407    409     1   109.8000471 387.438400
    399    398    407     1   109.5600471 388.275200
    399    398    400     1   108.4600466 328.025600
    400    398    407     1   109.5600471 388.275200
    401    404    405     1   109.8000471 387.438400
    401    404    406     1   109.8000471 387.438400
    402    401    404     1   109.5600471 388.275200
    402    401    403     1   108.4600466 328.025600
    403    401    404     1   109.5600471 388.275200
    405    404    410     1   108.7700466 392.459200
    405    404    406     1   107.5800459 329.699200
    406    404    410     1   108.7700466 392.459200
    408    407    411     1   108.7700466 392.459200
    408    407    409     1   107.5800459 329.699200
    409    407    411     1   108.7700466 392.459200
    410    849    850     1   117.5500507 404.174400
    411    876    877     1   117.5500507 404.174400
    416    419    420     1   109.5600471 388.275200
    416    419    421     1   109.5600471 388.275200
    417    416    419     1   109.5600471 388.275200
    417    416    422     1   109.8800469 414.216000
    417    416    418     1   108.4600466 328.025600
    418    416    419     1   109.5600471 388.275200
    418    416    422     1   109.8800469 414.216000
    419    439    440     1   117.6800502 383.254400
    420    419    439     1   108.8800464 416.726400
    420    419    421     1   108.4600466 328.025600
    421    419    439     1   108.8800464 416.726400
    422    423    424     1   109.8800469 414.216000
    422    423    425     1   109.8800469 414.216000
    422    426    427     1   109.8800469 414.216000
    422    426    428     1   109.8800469 414.216000
    423    432    433     1   109.8000471 387.438400
    423    432    434     1   109.8000471 387.438400
    424    423    432     1   109.5600471 388.275200
    424    423    425     1   108.4600466 328.025600
    425    423    432     1   109.5600471 388.275200
    426    429    430     1   109.8000471 387.438400
    426    429    431     1   109.8000471 387.438400
    427    426    429     1   109.5600471 388.275200
    427    426    428     1   108.4600466 328.025600
    428    426    429     1   109.5600471 388.275200
    430    429    435     1   108.7700466 392.459200
    430    429    431     1   107.5800459 329.699200
    431    429    435     1   108.7700466 392.459200
    433    432    436     1   108.7700466 392.459200
    433    432    434     1   107.5800459 329.699200
    434    432    436     1   108.7700466 392.459200
    435    903    904     1   117.5500507 404.174400
    436    930    931     1   117.5500507 404.174400
    441    444    445     1   109.5600471 388.275200
    441    444    446     1   109.5600471 388.275200
    442    441    444     1   109.5600471 388.275200
    442    441    447     1   109.8800469 414.216000
    442    441    443     1   108.4600466 328.025600
    443    441    444     1   109.5600471 388.275200
    443    441    447     1   109.8800469 414.216000
    444    464    465     1   117.6800502 383.254400
    445    444    464     1   108.8800464 416.726400
    445    444    446     1   108.4600466 328.025600
    446    444    464     1   108.8800464 416.726400
    447    448    449     1   109.8800469 414.216000
    447    448    450     1   109.8800469 414.216000
    447    451    452     1   109.8800469 414.216000
    447    451    453     1   109.8800469 414.216000
    448    457    458     1   109.8000471 387.438400
    448    457    459     1   109.8000471 387.438400
    449    448    457     1   109.5600471 388.275200
    449    448    450     1   108.4600466 328.025600
    450    448    457     1   109.5600471 388.275200
    451    454    455     1   109.8000471 387.438400
    451    454    456     1   109.8000471 387.438400
    452    451    454     1   109.5600471 388.275200
    452    451    453     1   108.4600466 328.025600
    453    451    454     1   109.5600471 388.275200
    455    454    460     1   108.7700466 392.459200
    455    454    456     1   107.5800459 329.699200
    456    454    460     1   108.7700466 392.459200
    458    457    461     1   108.7700466 392.459200
    458    457    459     1   107.5800459 329.699200
    459    457    461     1   108.7700466 392.459200
    460    957    958     1   117.5500507 404.174400
    461    984    985     1   117.5500507 404.174400
    466    469    470     1   109.5600471 388.275200
    466    469    471     1   109.5600471 388.275200
    467    466    469     1   109.5600471 388.275200
    467    466    472     1   109.8800469 414.216000
    467    466    468     1   108.4600466 328.025600
    468    466    469     1   109.5600471 388.275200
    468    466    472     1   109.8800469 414.216000
    469    489    490     1   117.6800502 383.254400
    470    469    489     1   108.8800464 416.726400
    470    469    471     1   108.4600466 328.025600
    471    469    489     1   108.8800464 416.726400
    472    473    474     1   109.8800469 414.216000
    472    473    475     1   109.8800469 414.216000
    472    476    477     1   109.8800469 414.216000
    472    476    478     1   109.8800469 414.216000
    473    482    483     1   109.8000471 387.438400
    473    482    484     1   109.8000471 387.438400
    474    473    482     1   109.5600471 388.275200
    474    473    475     1   108.4600466 328.025600
    475    473    482     1   109.5600471 388.275200
    476    479    480     1   109.8000471 387.438400
    476    479    481     1   109.8000471 387.438400
    477    476    479     1   109.5600471 388.275200
    477    476    478     1   108.4600466 328.025600
    478    476    479     1   109.5600471 388.275200
    480    479    485     1   108.7700466 392.459200
    480    479    481     1   107.5800459 329.699200
    481    479    485     1   108.7700466 392.459200
    483    482    486     1   108.7700466 392.459200
    483    482    484     1   107.5800459 329.699200
    484    482    486     1   108.7700466 392.459200
    485   1011   1012     1   117.5500507 404.174400
    486   1038   1039     1   117.5500507 404.174400
    491    494    495     1   109.5600471 388.275200
    491    494    496     1   109.5600471 388.275200
    492    491    494     1   109.5600471 388.275200
    492    491    497     1   109.8800469 414.216000
    492    491    493     1   108.4600466 328.025600
    493    491    494     1   109.5600471 388.275200
    493    491    497     1   109.8800469 414.216000
    494    514    515     1   117.6800502 383.254400
    495    494    514     1   108.8800464 416.726400
    495    494    496     1   108.4600466 328.025600
    496    494    514     1   108.8800464 416.726400
    497    498    499     1   109.8800469 414.216000
    497    498    500     1   109.8800469 414.216000
    497    501    502     1   109.8800469 414.216000
    497    501    503     1   109.8800469 414.216000
    498    507    508     1   109.8000471 387.438400
    498    507    509     1   109.8000471 387.438400
    499    498    507     1   109.5600471 388.275200
    499    498    500     1   108.4600466 328.025600
    500    498    507     1   109.5600471 388.275200
    501    504    505     1   109.8000471 387.438400
    501    504    506     1   109.8000471 387.438400
    502    501    504     1   109.5600471 388.275200
    502    501    503     1   108.4600466 328.025600
    503    501    504     1   109.5600471 388.275200
    505    504    510     1   108.7700466 392.459200
    505    504    506     1   107.5800459 329.699200
    506    504    510     1   108.7700466 392.459200
    508    507    511     1   108.7700466 392.459200
    508    507    509     1   107.5800459 329.699200
    509    507    511     1   108.7700466 392.459200
    510   1065   1066     1   117.5500507 404.174400
    511   1092   1093     1   117.5500507 404.174400
    516    519    520     1   109.5600471 388.275200
    516    519    521     1   109.5600471 388.275200
    517    516    519     1   109.5600471 388.275200
    517    516    522     1   109.8800469 414.216000
    517    516    518     1   108.4600466 328.025600
    518    516    519     1   109.5600471 388.275200
    518    516    522     1   109.8800469 414.216000
    519    539    540     1   117.6800502 383.254400
    520    519    539     1   108.8800464 416.726400
    520    519    521     1   108.4600466 328.025600
    521    519    539     1   108.8800464 416.726400
    522    523    524     1   109.8800469 414.216000
    522    523    525     1   109.8800469 414.216000
    522    526    527     1   109.8800469 414.216000
    522    526    528     1   109.8800469 414.216000
    523    532    533     1   109.8000471 387.438400
    523    532    534     1   109.8000471 387.438400
    524    523    532     1   109.5600471 388.275200
    524    523    525     1   108.4600466 328.025600
    525    523    532     1   109.5600471 388.275200
    526    529    530     1   109.8000471 387.438400
    526    529    531     1   109.8000471 387.438400
    527    526    529     1   109.5600471 388.275200
    527    526    528     1   108.4600466 328.025600
    528    526    529     1   109.5600471 388.275200
    530    529    535     1   108.7700466 392.459200
    530    529    531     1   107.5800459 329.699200
    531    529    535     1   108.7700466 392.459200
    533    532    536     1   108.7700466 392.459200
    533    532    534     1   107.5800459 329.699200
    534    532    536     1   108.7700466 392.459200
    535   1119   1120     1   117.5500507 404.174400
    536   1146   1147     1   117.5500507 404.174400
    541    544    545     1   109.5600471 388.275200
    541    544    546     1   109.5600471 388.275200
    542    541    544     1   109.5600471 388.275200
    542    541    547     1   109.8800469 414.216000
    542    541    543     1   108.4600466 328.025600
    543    541    544     1   109.5600471 388.275200
    543    541    547     1   109.8800469 414.216000
    544    564    565     1   117.6800502 383.254400
    545    544    564     1   108.8800464 416.726400
    545    544    546     1   108.4600466 328.025600
    546    544    564     1   108.8800464 416.726400
    547    548    549     1   109.8800469 414.216000
    547    548    550     1   109.8800469 414.216000
    547    551    552     1   109.8800469 414.216000
    547    551    553     1   109.8800469 414.216000
    548    557    558     1   109.8000471 387.438400
    548    557    559     1   109.8000471 387.438400
    549    548    557     1   109.5600471 388.275200
    549    548    550     1   108.4600466 328.025600
    550    548    557     1   109.5600471 388.275200
    551    554    555     1   109.8000471 387.438400
    551    554    556     1   109.8000471 387.438400
    552    551    554     1   109.5600471 388.275200
    552    551    553     1   108.4600466 328.025600
    553    551    554     1   109.5600471 388.275200
    555    554    560     1   108.7700466 392.459200
    555    554    556     1   107.5800459 329.699200
    556    554    560     1   108.7700466 392.459200
    558    557    561     1   108.7700466 392.459200
    558    557    559     1   107.5800459 329.699200
    559    557    561     1   108.7700466 392.459200
    560   1173   1174     1   117.5500507 404.174400
    561   1200   1201     1   117.5500507 404.174400
    566    569    570     1   109.5600471 388.275200
    566    569    571     1   109.5600471 388.275200
    567    566    569     1   109.5600471 388.275200
    567    566    572     1   109.8800469 414.216000
    567    566    568     1   108.4600466 328.025600
    568    566    569     1   109.5600471 388.275200
    568    566    572     1   109.8800469 414.216000
    569    589    590     1   117.6800502 383.254400
    570    569    589     1   108.8800464 416.726400
    570    569    571     1   108.4600466 328.025600
    571    569    589     1   108.8800464 416.726400
    572    573    574     1   109.8800469 414.216000
    572    573    575     1   109.8800469 414.216000
    572    576    577     1   109.8800469 414.216000
    572    576    578     1   109.8800469 414.216000
    573    582    583     1   109.8000471 387.438400
    573    582    584     1   109.8000471 387.438400
    574    573    582     1   109.5600471 388.275200
    574    573    575     1   108.4600466 328.025600
    575    573    582     1   109.5600471 388.275200
    576    579    580     1   109.8000471 387.438400
    576    579    581     1   109.8000471 387.438400
    577    576    579     1   109.5600471 388.275200
    577    576    578     1   108.4600466 328.025600
    578    576    579     1   109.5600471 388.275200
    580    579    585     1   108.7700466 392.459200
    580    579    581     1   107.5800459 329.699200
    581    579    585     1   108.7700466 392.459200
    583    582    586     1   108.7700466 392.459200
    583    582    584     1   107.5800459 329.699200
    584    582    586     1   108.7700466 392.459200
    585   1227   1228     1   117.5500507 404.174400
    586   1254   1255     1   117.5500507 404.174400
    591    594    595     1   109.5600471 388.275200
    591    594    596     1   109.5600471 388.275200
    592    591    594     1   109.5600471 388.275200
    592    591    597     1   109.8800469 414.216000
    592    591    593     1   108.4600466 328.025600
    593    591    594     1   109.5600471 388.275200
    593    591    597     1   109.8800469 414.216000
    594    614    615     1   117.6800502 383.254400
    595    594    614     1   108.8800464 416.726400
    595    594    596     1   108.4600466 328.025600
    596    594    614     1   108.8800464 416.726400
    597    598    599     1   109.8800469 414.216000
    597    598    600     1   109.8800469 414.216000
    597    601    602     1   109.8800469 414.216000
    597    601    603     1   109.8800469 414.216000
    598    607    608     1   109.8000471 387.438400
    598    607    609     1   109.8000471 387.438400
    599    598    607     1   109.5600471 388.275200
    599    598    600     1   108.4600466 328.025600
    600    598    607     1   109.5600471 388.275200
    601    604    605     1   109.8000471 387.438400
    601    604    606     1   109.8000471 387.438400
    602    601    604     1   109.5600471 388.275200
    602    601    603     1   108.4600466 328.025600
    603    601    604     1   109.5600471 388.275200
    605    604    610     1   108.7700466 392.459200
    605    604    606     1   107.5800459 329.699200
    606    604    610     1   108.7700466 392.459200
    608    607    611     1   108.7700466 392.459200
    608    607    609     1   107.5800459 329.699200
    609    607    611     1   108.7700466 392.459200
    610   1281   1282     1   117.5500507 404.174400
    611   1308   1309     1   117.5500507 404.174400
    616    619    620     1   109.5600471 388.275200
    616    619    621     1   109.5600471 388.275200
    617    616    619     1   109.5600471 388.275200
    617    616    622     1   109.8800469 414.216000
    617    616    618     1   108.4600466 328.025600
    618    616    619     1   109.5600471 388.275200
    618    616    622     1   109.8800469 414.216000
    619    639    640     1   117.6800502 383.254400
    620    619    639     1   108.8800464 416.726400
    620    619    621     1   108.4600466 328.025600
    621    619    639     1   108.8800464 416.726400
    622    623    624     1   109.8800469 414.216000
    622    623    625     1   109.8800469 414.216000
    622    626    627     1   109.8800469 414.216000
    622    626    628     1   109.8800469 414.216000
    623    632    633     1   109.8000471 387.438400
    623    632    634     1   109.8000471 387.438400
    624    623    632     1   109.5600471 388.275200
    624    623    625     1   108.4600466 328.025600
    625    623    632     1   109.5600471 388.275200
    626    629    630     1   109.8000471 387.438400
    626    629    631     1   109.8000471 387.438400
    627    626    629     1   109.5600471 388.275200
    627    626    628     1   108.4600466 328.025600
    628    626    629     1   109.5600471 388.275200
    630    629    635     1   108.7700466 392.459200
    630    629    631     1   107.5800459 329.699200
    631    629    635     1   108.7700466 392.459200
    633    632    636     1   108.7700466 392.459200
    633    632    634     1   107.5800459 329.699200
    634    632    636     1   108.7700466 392.459200
    635   1335   1336     1   117.5500507 404.174400
    636   1362   1363     1   117.5500507 404.174400
    641    644    645     1   109.5600471 388.275200
    641    644    646     1   109.5600471 388.275200
    642    641    644     1   109.5600471 388.275200
    642    641    647     1   109.8800469 414.216000
    642    641    643     1   108.4600466 328.025600
    643    641    644     1   109.5600471 388.275200
    643    641    647     1   109.8800469 414.216000
    644    664    665     1   117.6800502 383.254400
    645    644    664     1   108.8800464 416.726400
    645    644    646     1   108.4600466 328.025600
    646    644    664     1   108.8800464 416.726400
    647    648    649     1   109.8800469 414.216000
    647    648    650     1   109.8800469 414.216000
    647    651    652     1   109.8800469 414.216000
    647    651    653     1   109.8800469 414.216000
    648    657    658     1   109.8000471 387.438400
    648    657    659     1   109.8000471 387.438400
    649    648    657     1   109.5600471 388.275200
    649    648    650     1   108.4600466 328.025600
    650    648    657     1   109.5600471 388.275200
    651    654    655     1   109.8000471 387.438400
    651    654    656     1   109.8000471 387.438400
    652    651    654     1   109.5600471 388.275200
    652    651    653     1   108.4600466 328.025600
    653    651    654     1   109.5600471 388.275200
    655    654    660     1   108.7700466 392.459200
    655    654    656     1   107.5800459 329.699200
    656    654    660     1   108.7700466 392.459200
    658    657    661     1   108.7700466 392.459200
    658    657    659     1   107.5800459 329.699200
    659    657    661     1   108.7700466 392.459200
    660   1389   1390     1   117.5500507 404.174400
    661   1416   1417     1   117.5500507 404.174400
    666    669    670     1   109.5600471 388.275200
    666    669    671     1   109.5600471 388.275200
    667    666    669     1   109.5600471 388.275200
    667    666    672     1   109.8800469 414.216000
    667    666    668     1   108.4600466 328.025600
    668    666    669     1   109.5600471 388.275200
    668    666    672     1   109.8800469 414.216000
    669    689    690     1   117.6800502 383.254400
    670    669    689     1   108.8800464 416.726400
    670    669    671     1   108.4600466 328.025600
    671    669    689     1   108.8800464 416.726400
    672    673    674     1   109.8800469 414.216000
    672    673    675     1   109.8800469 414.216000
    672    676    677     1   109.8800469 414.216000
    672    676    678     1   109.8800469 414.216000
    673    682    683     1   109.8000471 387.438400
    673    682    684     1   109.8000471 387.438400
    674    673    682     1   109.5600471 388.275200
    674    673    675     1   108.4600466 328.025600
    675    673    682     1   109.5600471 388.275200
    676    679    680     1   109.8000471 387.438400
    676    679    681     1   109.8000471 387.438400
    677    676    679     1   109.5600471 388.275200
    677    676    678     1   108.4600466 328.025600
    678    676    679     1   109.5600471 388.275200
    680    679    685     1   108.7700466 392.459200
    680    679    681     1   107.5800459 329.699200
    681    679    685     1   108.7700466 392.459200
    683    682    686     1   108.7700466 392.459200
    683    682    684     1   107.5800459 329.699200
    684    682    686     1   108.7700466 392.459200
    685   1443   1444     1   117.5500507 404.174400
    686   1470   1471     1   117.5500507 404.174400
    691    694    695     1   109.5600471 388.275200
    691    694    696     1   109.5600471 388.275200
    692    691    694     1   109.5600471 388.275200
    692    691    697     1   109.8800469 414.216000
    692    691    693     1   108.4600466 328.025600
    693    691    694     1   109.5600471 388.275200
    693    691    697     1   109.8800469 414.216000
    694    714    715     1   117.6800502 383.254400
    695    694    714     1   108.8800464 416.726400
    695    694    696     1   108.4600466 328.025600
    696    694    714     1   108.8800464 416.726400
    697    698    699     1   109.8800469 414.216000
    697    698    700     1   109.8800469 414.216000
    697    701    702     1   109.8800469 414.216000
    697    701    703     1   109.8800469 414.216000
    698    707    708     1   109.8000471 387.438400
    698    707    709     1   109.8000471 387.438400
    699    698    707     1   109.5600471 388.275200
    699    698    700     1   108.4600466 328.025600
    700    698    707     1   109.5600471 388.275200
    701    704    705     1   109.8000471 387.438400
    701    704    706     1   109.8000471 387.438400
    702    701    704     1   109.5600471 388.275200
    702    701    703     1   108.4600466 328.025600
    703    701    704     1   109.5600471 388.275200
    705    704    710     1   108.7700466 392.459200
    705    704    706     1   107.5800459 329.699200
    706    704    710     1   108.7700466 392.459200
    708    707    711     1   108.7700466 392.459200
    708    707    709     1   107.5800459 329.699200
    709    707    711     1   108.7700466 392.459200
    710   1497   1498     1   117.5500507 404.174400
    711   1524   1525     1   117.5500507 404.174400
    716    719    720     1   109.5600471 388.275200
    716    719    721     1   109.5600471 388.275200
    717    716    719     1   109.5600471 388.275200
    717    716    722     1   109.8800469 414.216000
    717    716    718     1   108.4600466 328.025600
    718    716    719     1   109.5600471 388.275200
    718    716    722     1   109.8800469 414.216000
    719    739    740     1   117.6800502 383.254400
    720    719    739     1   108.8800464 416.726400
    720    719    721     1   108.4600466 328.025600
    721    719    739     1   108.8800464 416.726400
    722    723    724     1   109.8800469 414.216000
    722    723    725     1   109.8800469 414.216000
    722    726    727     1   109.8800469 414.216000
    722    726    728     1   109.8800469 414.216000
    723    732    733     1   109.8000471 387.438400
    723    732    734     1   109.8000471 387.438400
    724    723    732     1   109.5600471 388.275200
    724    723    725     1   108.4600466 328.025600
    725    723    732     1   109.5600471 388.275200
    726    729    730     1   109.8000471 387.438400
    726    729    731     1   109.8000471 387.438400
    727    726    729     1   109.5600471 388.275200
    727    726    728     1   108.4600466 328.025600
    728    726    729     1   109.5600471 388.275200
    730    729    735     1   108.7700466 392.459200
    730    729    731     1   107.5800459 329.699200
    731    729    735     1   108.7700466 392.459200
    733    732    736     1   108.7700466 392.459200
    733    732    734     1   107.5800459 329.699200
    734    732    736     1   108.7700466 392.459200
    735   1551   1552     1   117.5500507 404.174400
    736   1578   1579     1   117.5500507 404.174400
    741    743    744     1   108.8800464 416.726400
    741    743    746     1   108.8800464 416.726400
    742    741    743     1   117.6800502 383.254400
    743    745    747     1   109.5600471 388.275200
    743    745    748     1   109.5600471 388.275200
    744    743    745     1   109.5600471 388.275200
    744    743    746     1   108.4600466 328.025600
    745    743    746     1   109.5600471 388.275200
    747    745    749     1   109.8800469 414.216000
    747    745    748     1   108.4600466 328.025600
    748    745    749     1   109.8800469 414.216000
    749    750    760     1   109.8800469 414.216000
    749    750    761     1   109.8800469 414.216000
    749    751    752     1   109.8800469 414.216000
    749    751    754     1   109.8800469 414.216000
    750    762    763     1   109.8000471 387.438400
    750    762    764     1   109.8000471 387.438400
    751    753    755     1   109.8000471 387.438400
    751    753    756     1   109.8000471 387.438400
    752    751    753     1   109.5600471 388.275200
    752    751    754     1   108.4600466 328.025600
    753    751    754     1   109.5600471 388.275200
    755    753    757     1   108.7700466 392.459200
    755    753    756     1   107.5800459 329.699200
    756    753    757     1   108.7700466 392.459200
    760    750    762     1   109.5600471 388.275200
    760    750    761     1   108.4600466 328.025600
    761    750    762     1   109.5600471 388.275200
    763    762    765     1   108.7700466 392.459200
    763    762    764     1   107.5800459 329.699200
    764    762    765     1   108.7700466 392.459200
    768    770    771     1   108.8800464 416.726400
    768    770    773     1   108.8800464 416.726400
    769    768    770     1   117.6800502 383.254400
    770    772    774     1   109.5600471 388.275200
    770    772    775     1   109.5600471 388.275200
    771    770    772     1   109.5600471 388.275200
    771    770    773     1   108.4600466 328.025600
    772    770    773     1   109.5600471 388.275200
    774    772    776     1   109.8800469 414.216000
    774    772    775     1   108.4600466 328.025600
    775    772    776     1   109.8800469 414.216000
    776    777    787     1   109.8800469 414.216000
    776    777    788     1   109.8800469 414.216000
    776    778    779     1   109.8800469 414.216000
    776    778    781     1   109.8800469 414.216000
    777    789    790     1   109.8000471 387.438400
    777    789    791     1   109.8000471 387.438400
    778    780    782     1   109.8000471 387.438400
    778    780    783     1   109.8000471 387.438400
    779    778    780     1   109.5600471 388.275200
    779    778    781     1   108.4600466 328.025600
    780    778    781     1   109.5600471 388.275200
    782    780    784     1   108.7700466 392.459200
    782    780    783     1   107.5800459 329.699200
    783    780    784     1   108.7700466 392.459200
    787    777    789     1   109.5600471 388.275200
    787    777    788     1   108.4600466 328.025600
    788    777    789     1   109.5600471 388.275200
    790    789    792     1   108.7700466 392.459200
    790    789    791     1   107.5800459 329.699200
    791    789    792     1   108.7700466 392.459200
    795    797    798     1   108.8800464 416.726400
    795    797    800     1   108.8800464 416.726400
    796    795    797     1   117.6800502 383.254400
    797    799    801     1   109.5600471 388.275200
    797    799    802     1   109.5600471 388.275200
    798    797    799     1   109.5600471 388.275200
    798    797    800     1   108.4600466 328.025600
    799    797    800     1   109.5600471 388.275200
    801    799    803     1   109.8800469 414.216000
    801    799    802     1   108.4600466 328.025600
    802    799    803     1   109.8800469 414.216000
    803    804    814     1   109.8800469 414.216000
    803    804    815     1   109.8800469 414.216000
    803    805    806     1   109.8800469 414.216000
    803    805    808     1   109.8800469 414.216000
    804    816    817     1   109.8000471 387.438400
    804    816    818     1   109.8000471 387.438400
    805    807    809     1   109.8000471 387.438400
    805    807    810     1   109.8000471 387.438400
    806    805    807     1   109.5600471 388.275200
    806    805    808     1   108.4600466 328.025600
    807    805    808     1   109.5600471 388.275200
    809    807    811     1   108.7700466 392.459200
    809    807    810     1   107.5800459 329.699200
    810    807    811     1   108.7700466 392.459200
    814    804    816     1   109.5600471 388.275200
    814    804    815     1   108.4600466 328.025600
    815    804    816     1   109.5600471 388.275200
    817    816    819     1   108.7700466 392.459200
    817    816    818     1   107.5800459 329.699200
    818    816    819     1   108.7700466 392.459200
    822    824    825     1   108.8800464 416.726400
    822    824    827     1   108.8800464 416.726400
    823    822    824     1   117.6800502 383.254400
    824    826    828     1   109.5600471 388.275200
    824    826    829     1   109.5600471 388.275200
    825    824    826     1   109.5600471 388.275200
    825    824    827     1   108.4600466 328.025600
    826    824    827     1   109.5600471 388.275200
    828    826    830     1   109.8800469 414.216000
    828    826    829     1   108.4600466 328.025600
    829    826    830     1   109.8800469 414.216000
    830    831    841     1   109.8800469 414.216000
    830    831    842     1   109.8800469 414.216000
    830    832    833     1   109.8800469 414.216000
    830    832    835     1   109.8800469 414.216000
    831    843    844     1   109.8000471 387.438400
    831    843    845     1   109.8000471 387.438400
    832    834    836     1   109.8000471 387.438400
    832    834    837     1   109.8000471 387.438400
    833    832    834     1   109.5600471 388.275200
    833    832    835     1   108.4600466 328.025600
    834    832    835     1   109.5600471 388.275200
    836    834    838     1   108.7700466 392.459200
    836    834    837     1   107.5800459 329.699200
    837    834    838     1   108.7700466 392.459200
    841    831    843     1   109.5600471 388.275200
    841    831    842     1   108.4600466 328.025600
    842    831    843     1   109.5600471 388.275200
    844    843    846     1   108.7700466 392.459200
    844    843    845     1   107.5800459 329.699200
    845    843    846     1   108.7700466 392.459200
    849    851    852     1   108.8800464 416.726400
    849    851    854     1   108.8800464 416.726400
    850    849    851     1   117.6800502 383.254400
    851    853    855     1   109.5600471 388.275200
    851    853    856     1   109.5600471 388.275200
    852    851    853     1   109.5600471 388.275200
    852    851    854     1   108.4600466 328.025600
    853    851    854     1   109.5600471 388.275200
    855    853    857     1   109.8800469 414.216000
    855    853    856     1   108.4600466 328.025600
    856    853    857     1   109.8800469 414.216000
    857    858    868     1   109.8800469 414.216000
    857    858    869     1   109.8800469 414.216000
    857    859    860     1   109.8800469 414.216000
    857    859    862     1   109.8800469 414.216000
    858    870    871     1   109.8000471 387.438400
    858    870    872     1   109.8000471 387.438400
    859    861    863     1   109.8000471 387.438400
    859    861    864     1   109.8000471 387.438400
    860    859    861     1   109.5600471 388.275200
    860    859    862     1   108.4600466 328.025600
    861    859    862     1   109.5600471 388.275200
    863    861    865     1   108.7700466 392.459200
    863    861    864     1   107.5800459 329.699200
    864    861    865     1   108.7700466 392.459200
    868    858    870     1   109.5600471 388.275200
    868    858    869     1   108.4600466 328.025600
    869    858    870     1   109.5600471 388.275200
    871    870    873     1   108.7700466 392.459200
    871    870    872     1   107.5800459 329.699200
    872    870    873     1   108.7700466 392.459200
    876    878    879     1   108.8800464 416.726400
    876    878    881     1   108.8800464 416.726400
    877    876    878     1   117.6800502 383.254400
    878    880    882     1   109.5600471 388.275200
    878    880    883     1   109.5600471 388.275200
    879    878    880     1   109.5600471 388.275200
    879    878    881     1   108.4600466 328.025600
    880    878    881     1   109.5600471 388.275200
    882    880    884     1   109.8800469 414.216000
    882    880    883     1   108.4600466 328.025600
    883    880    884     1   109.8800469 414.216000
    884    885    895     1   109.8800469 414.216000
    884    885    896     1   109.8800469 414.216000
    884    886    887     1   109.8800469 414.216000
    884    886    889     1   109.8800469 414.216000
    885    897    898     1   109.8000471 387.438400
    885    897    899     1   109.8000471 387.438400
    886    888    890     1   109.8000471 387.438400
    886    888    891     1   109.8000471 387.438400
    887    886    888     1   109.5600471 388.275200
    887    886    889     1   108.4600466 328.025600
    888    886    889     1   109.5600471 388.275200
    890    888    892     1   108.7700466 392.459200
    890    888    891     1   107.5800459 329.699200
    891    888    892     1   108.7700466 392.459200
    895    885    897     1   109.5600471 388.275200
    895    885    896     1   108.4600466 328.025600
    896    885    897     1   109.5600471 388.275200
    898    897    900     1   108.7700466 392.459200
    898    897    899     1   107.5800459 329.699200
    899    897    900     1   108.7700466 392.459200
    903    905    906     1   108.8800464 416.726400
    903    905    908     1   108.8800464 416.726400
    904    903    905     1   117.6800502 383.254400
    905    907    909     1   109.5600471 388.275200
    905    907    910     1   109.5600471 388.275200
    906    905    907     1   109.5600471 388.275200
    906    905    908     1   108.4600466 328.025600
    907    905    908     1   109.5600471 388.275200
    909    907    911     1   109.8800469 414.216000
    909    907    910     1   108.4600466 328.025600
    910    907    911     1   109.8800469 414.216000
    911    912    922     1   109.8800469 414.216000
    911    912    923     1   109.8800469 414.216000
    911    913    914     1   109.8800469 414.216000
    911    913    916     1   109.8800469 414.216000
    912    924    925     1   109.8000471 387.438400
    912    924    926     1   109.8000471 387.438400
    913    915    917     1   109.8000471 387.438400
    913    915    918     1   109.8000471 387.438400
    914    913    915     1   109.5600471 388.275200
    914    913    916     1   108.4600466 328.025600
    915    913    916     1   109.5600471 388.275200
    917    915    919     1   108.7700466 392.459200
    917    915    918     1   107.5800459 329.699200
    918    915    919     1   108.7700466 392.459200
    922    912    924     1   109.5600471 388.275200
    922    912    923     1   108.4600466 328.025600
    923    912    924     1   109.5600471 388.275200
    925    924    927     1   108.7700466 392.459200
    925    924    926     1   107.5800459 329.699200
    926    924    927     1   108.7700466 392.459200
    930    932    933     1   108.8800464 416.726400
    930    932    935     1   108.8800464 416.726400
    931    930    932     1   117.6800502 383.254400
    932    934    936     1   109.5600471 388.275200
    932    934    937     1   109.5600471 388.275200
    933    932    934     1   109.5600471 388.275200
    933    932    935     1   108.4600466 328.025600
    934    932    935     1   109.5600471 388.275200
    936    934    938     1   109.8800469 414.216000
    936    934    937     1   108.4600466 328.025600
    937    934    938     1   109.8800469 414.216000
    938    939    949     1   109.8800469 414.216000
    938    939    950     1   109.8800469 414.216000
    938    940    941     1   109.8800469 414.216000
    938    940    943     1   109.8800469 414.216000
    939    951    952     1   109.8000471 387.438400
    939    951    953     1   109.8000471 387.438400
    940    942    944     1   109.8000471 387.438400
    940    942    945     1   109.8000471 387.438400
    941    940    942     1   109.5600471 388.275200
    941    940    943     1   108.4600466 328.025600
    942    940    943     1   109.5600471 388.275200
    944    942    946     1   108.7700466 392.459200
    944    942    945     1   107.5800459 329.699200
    945    942    946     1   108.7700466 392.459200
    949    939    951     1   109.5600471 388.275200
    949    939    950     1   108.4600466 328.025600
    950    939    951     1   109.5600471 388.275200
    952    951    954     1   108.7700466 392.459200
    952    951    953     1   107.5800459 329.699200
    953    951    954     1   108.7700466 392.459200
    957    959    960     1   108.8800464 416.726400
    957    959    962     1   108.8800464 416.726400
    958    957    959     1   117.6800502 383.254400
    959    961    963     1   109.5600471 388.275200
    959    961    964     1   109.5600471 388.275200
    960    959    961     1   109.5600471 388.275200
    960    959    962     1   108.4600466 328.025600
    961    959    962     1   109.5600471 388.275200
    963    961    965     1   109.8800469 414.216000
    963    961    964     1   108.4600466 328.025600
    964    961    965     1   109.8800469 414.216000
    965    966    976     1   109.8800469 414.216000
    965    966    977     1   109.8800469 414.216000
    965    967    968     1   109.8800469 414.216000
    965    967    970     1   109.8800469 414.216000
    966    978    979     1   109.8000471 387.438400
    966    978    980     1   109.8000471 387.438400
    967    969    971     1   109.8000471 387.438400
    967    969    972     1   109.8000471 387.438400
    968    967    969     1   109.5600471 388.275200
    968    967    970     1   108.4600466 328.025600
    969    967    970     1   109.5600471 388.275200
    971    969    973     1   108.7700466 392.459200
    971    969    972     1   107.5800459 329.699200
    972    969    973     1   108.7700466 392.459200
    976    966    978     1   109.5600471 388.275200
    976    966    977     1   108.4600466 328.025600
    977    966    978     1   109.5600471 388.275200
    979    978    981     1   108.7700466 392.459200
    979    978    980     1   107.5800459 329.699200
    980    978    981     1   108.7700466 392.459200
    984    986    987     1   108.8800464 416.726400
    984    986    989     1   108.8800464 416.726400
    985    984    986     1   117.6800502 383.254400
    986    988    990     1   109.5600471 388.275200
    986    988    991     1   109.5600471 388.275200
    987    986    988     1   109.5600471 388.275200
    987    986    989     1   108.4600466 328.025600
    988    986    989     1   109.5600471 388.275200
    990    988    992     1   109.8800469 414.216000
    990    988    991     1   108.4600466 328.025600
    991    988    992     1   109.8800469 414.216000
    992    993   1003     1   109.8800469 414.216000
    992    993   1004     1   109.8800469 414.216000
    992    994    995     1   109.8800469 414.216000
    992    994    997     1   109.8800469 414.216000
    993   1005   1006     1   109.8000471 387.438400
    993   1005   1007     1   109.8000471 387.438400
    994    996    998     1   109.8000471 387.438400
    994    996    999     1   109.8000471 387.438400
    995    994    996     1   109.5600471 388.275200
    995    994    997     1   108.4600466 328.025600
    996    994    997     1   109.5600471 388.275200
    998    996   1000     1   108.7700466 392.459200
    998    996    999     1   107.5800459 329.699200
    999    996   1000     1   108.7700466 392.459200
   1003    993   1005     1   109.5600471 388.275200
   1003    993   1004     1   108.4600466 328.025600
   1004    993   1005     1   109.5600471 388.275200
   1006   1005   1008     1   108.7700466 392.459200
   1006   1005   1007     1   107.5800459 329.699200
   1007   1005   1008     1   108.7700466 392.459200
   1011   1013   1014     1   108.8800464 416.726400
   1011   1013   1016     1   108.8800464 416.726400
   1012   1011   1013     1   117.6800502 383.254400
   1013   1015   1017     1   109.5600471 388.275200
   1013   1015   1018     1   109.5600471 388.275200
   1014   1013   1015     1   109.5600471 388.275200
   1014   1013   1016     1   108.4600466 328.025600
   1015   1013   1016     1   109.5600471 388.275200
   1017   1015   1019     1   109.8800469 414.216000
   1017   1015   1018     1   108.4600466 328.025600
   1018   1015   1019     1   109.8800469 414.216000
   1019   1020   1030     1   109.8800469 414.216000
   1019   1020   1031     1   109.8800469 414.216000
   1019   1021   1022     1   109.8800469 414.216000
   1019   1021   1024     1   109.8800469 414.216000
   1020   1032   1033     1   109.8000471 387.438400
   1020   1032   1034     1   109.8000471 387.438400
   1021   1023   1025     1   109.8000471 387.438400
   1021   1023   1026     1   109.8000471 387.438400
   1022   1021   1023     1   109.5600471 388.275200
   1022   1021   1024     1   108.4600466 328.025600
   1023   1021   1024     1   109.5600471 388.275200
   1025   1023   1027     1   108.7700466 392.459200
   1025   1023   1026     1   107.5800459 329.699200
   1026   1023   1027     1   108.7700466 392.459200
   1030   1020   1032     1   109.5600471 388.275200
   1030   1020   1031     1   108.4600466 328.025600
   1031   1020   1032     1   109.5600471 388.275200
   1033   1032   1035     1   108.7700466 392.459200
   1033   1032   1034     1   107.5800459 329.699200
   1034   1032   1035     1   108.7700466 392.459200
   1038   1040   1041     1   108.8800464 416.726400
   1038   1040   1043     1   108.8800464 416.726400
   1039   1038   1040     1   117.6800502 383.254400
   1040   1042   1044     1   109.5600471 388.275200
   1040   1042   1045     1   109.5600471 388.275200
   1041   1040   1042     1   109.5600471 388.275200
   1041   1040   1043     1   108.4600466 328.025600
   1042   1040   1043     1   109.5600471 388.275200
   1044   1042   1046     1   109.8800469 414.216000
   1044   1042   1045     1   108.4600466 328.025600
   1045   1042   1046     1   109.8800469 414.216000
   1046   1047   1057     1   109.8800469 414.216000
   1046   1047   1058     1   109.8800469 414.216000
   1046   1048   1049     1   109.8800469 414.216000
   1046   1048   1051     1   109.8800469 414.216000
   1047   1059   1060     1   109.8000471 387.438400
   1047   1059   1061     1   109.8000471 387.438400
   1048   1050   1052     1   109.8000471 387.438400
   1048   1050   1053     1   109.8000471 387.438400
   1049   1048   1050     1   109.5600471 388.275200
   1049   1048   1051     1   108.4600466 328.025600
   1050   1048   1051     1   109.5600471 388.275200
   1052   1050   1054     1   108.7700466 392.459200
   1052   1050   1053     1   107.5800459 329.699200
   1053   1050   1054     1   108.7700466 392.459200
   1057   1047   1059     1   109.5600471 388.275200
   1057   1047   1058     1   108.4600466 328.025600
   1058   1047   1059     1   109.5600471 388.275200
   1060   1059   1062     1   108.7700466 392.459200
   1060   1059   1061     1   107.5800459 329.699200
   1061   1059   1062     1   108.7700466 392.459200
   1065   1067   1068     1   108.8800464 416.726400
   1065   1067   1070     1   108.8800464 416.726400
   1066   1065   1067     1   117.6800502 383.254400
   1067   1069   1071     1   109.5600471 388.275200
   1067   1069   1072     1   109.5600471 388.275200
   1068   1067   1069     1   109.5600471 388.275200
   1068   1067   1070     1   108.4600466 328.025600
   1069   1067   1070     1   109.5600471 388.275200
   1071   1069   1073     1   109.8800469 414.216000
   1071   1069   1072     1   108.4600466 328.025600
   1072   1069   1073     1   109.8800469 414.216000
   1073   1074   1084     1   109.8800469 414.216000
   1073   1074   1085     1   109.8800469 414.216000
   1073   1075   1076     1   109.8800469 414.216000
   1073   1075   1078     1   109.8800469 414.216000
   1074   1086   1087     1   109.8000471 387.438400
   1074   1086   1088     1   109.8000471 387.438400
   1075   1077   1079     1   109.8000471 387.438400
   1075   1077   1080     1   109.8000471 387.438400
   1076   1075   1077     1   109.5600471 388.275200
   1076   1075   1078     1   108.4600466 328.025600
   1077   1075   1078     1   109.5600471 388.275200
   1079   1077   1081     1   108.7700466 392.459200
   1079   1077   1080     1   107.5800459 329.699200
   1080   1077   1081     1   108.7700466 392.459200
   1084   1074   1086     1   109.5600471 388.275200
   1084   1074   1085     1   108.4600466 328.025600
   1085   1074   1086     1   109.5600471 388.275200
   1087   1086   1089     1   108.7700466 392.459200
   1087   1086   1088     1   107.5800459 329.699200
   1088   1086   1089     1   108.7700466 392.459200
   1092   1094   1095     1   108.8800464 416.726400
   1092   1094   1097     1   108.8800464 416.726400
   1093   1092   1094     1   117.6800502 383.254400
   1094   1096   1098     1   109.5600471 388.275200
   1094   1096   1099     1   109.5600471 388.275200
   1095   1094   1096     1   109.5600471 388.275200
   1095   1094   1097     1   108.4600466 328.025600
   1096   1094   1097     1   109.5600471 388.275200
   1098   1096   1100     1   109.8800469 414.216000
   1098   1096   1099     1   108.4600466 328.025600
   1099   1096   1100     1   109.8800469 414.216000
   1100   1101   1111     1   109.8800469 414.216000
   1100   1101   1112     1   109.8800469 414.216000
   1100   1102   1103     1   109.8800469 414.216000
   1100   1102   1105     1   109.8800469 414.216000
   1101   1113   1114     1   109.8000471 387.438400
   1101   1113   1115     1   109.8000471 387.438400
   1102   1104   1106     1   109.8000471 387.438400
   1102   1104   1107     1   109.8000471 387.438400
   1103   1102   1104     1   109.5600471 388.275200
   1103   1102   1105     1   108.4600466 328.025600
   1104   1102   1105     1   109.5600471 388.275200
   1106   1104   1108     1   108.7700466 392.459200
   1106   1104   1107     1   107.5800459 329.699200
   1107   1104   1108     1   108.7700466 392.459200
   1111   1101   1113     1   109.5600471 388.275200
   1111   1101   1112     1   108.4600466 328.025600
   1112   1101   1113     1   109.5600471 388.275200
   1114   1113   1116     1   108.7700466 392.459200
   1114   1113   1115     1   107.5800459 329.699200
   1115   1113   1116     1   108.7700466 392.459200
   1119   1121   1122     1   108.8800464 416.726400
   1119   1121   1124     1   108.8800464 416.726400
   1120   1119   1121     1   117.6800502 383.254400
   1121   1123   1125     1   109.5600471 388.275200
   1121   1123   1126     1   109.5600471 388.275200
   1122   1121   1123     1   109.5600471 388.275200
   1122   1121   1124     1   108.4600466 328.025600
   1123   1121   1124     1   109.5600471 388.275200
   1125   1123   1127     1   109.8800469 414.216000
   1125   1123   1126     1   108.4600466 328.025600
   1126   1123   1127     1   109.8800469 414.216000
   1127   1128   1138     1   109.8800469 414.216000
   1127   1128   1139     1   109.8800469 414.216000
   1127   1129   1130     1   109.8800469 414.216000
   1127   1129   1132     1   109.8800469 414.216000
   1128   1140   1141     1   109.8000471 387.438400
   1128   1140   1142     1   109.8000471 387.438400
   1129   1131   1133     1   109.8000471 387.438400
   1129   1131   1134     1   109.8000471 387.438400
   1130   1129   1131     1   109.5600471 388.275200
   1130   1129   1132     1   108.4600466 328.025600
   1131   1129   1132     1   109.5600471 388.275200
   1133   1131   1135     1   108.7700466 392.459200
   1133   1131   1134     1   107.5800459 329.699200
   1134   1131   1135     1   108.7700466 392.459200
   1138   1128   1140     1   109.5600471 388.275200
   1138   1128   1139     1   108.4600466 328.025600
   1139   1128   1140     1   109.5600471 388.275200
   1141   1140   1143     1   108.7700466 392.459200
   1141   1140   1142     1   107.5800459 329.699200
   1142   1140   1143     1   108.7700466 392.459200
   1146   1148   1149     1   108.8800464 416.726400
   1146   1148   1151     1   108.8800464 416.726400
   1147   1146   1148     1   117.6800502 383.254400
   1148   1150   1152     1   109.5600471 388.275200
   1148   1150   1153     1   109.5600471 388.275200
   1149   1148   1150     1   109.5600471 388.275200
   1149   1148   1151     1   108.4600466 328.025600
   1150   1148   1151     1   109.5600471 388.275200
   1152   1150   1154     1   109.8800469 414.216000
   1152   1150   1153     1   108.4600466 328.025600
   1153   1150   1154     1   109.8800469 414.216000
   1154   1155   1165     1   109.8800469 414.216000
   1154   1155   1166     1   109.8800469 414.216000
   1154   1156   1157     1   109.8800469 414.216000
   1154   1156   1159     1   109.8800469 414.216000
   1155   1167   1168     1   109.8000471 387.438400
   1155   1167   1169     1   109.8000471 387.438400
   1156   1158   1160     1   109.8000471 387.438400
   1156   1158   1161     1   109.8000471 387.438400
   1157   1156   1158     1   109.5600471 388.275200
   1157   1156   1159     1   108.4600466 328.025600
   1158   1156   1159     1   109.5600471 388.275200
   1160   1158   1162     1   108.7700466 392.459200
   1160   1158   1161     1   107.5800459 329.699200
   1161   1158   1162     1   108.7700466 392.459200
   1165   1155   1167     1   109.5600471 388.275200
   1165   1155   1166     1   108.4600466 328.025600
   1166   1155   1167     1   109.5600471 388.275200
   1168   1167   1170     1   108.7700466 392.459200
   1168   1167   1169     1   107.5800459 329.699200
   1169   1167   1170     1   108.7700466 392.459200
   1173   1175   1176     1   108.8800464 416.726400
   1173   1175   1178     1   108.8800464 416.726400
   1174   1173   1175     1   117.6800502 383.254400
   1175   1177   1179     1   109.5600471 388.275200
   1175   1177   1180     1   109.5600471 388.275200
   1176   1175   1177     1   109.5600471 388.275200
   1176   1175   1178     1   108.4600466 328.025600
   1177   1175   1178     1   109.5600471 388.275200
   1179   1177   1181     1   109.8800469 414.216000
   1179   1177   1180     1   108.4600466 328.025600
   1180   1177   1181     1   109.8800469 414.216000
   1181   1182   1192     1   109.8800469 414.216000
   1181   1182   1193     1   109.8800469 414.216000
   1181   1183   1184     1   109.8800469 414.216000
   1181   1183   1186     1   109.8800469 414.216000
   1182   1194   1195     1   109.8000471 387.438400
   1182   1194   1196     1   109.8000471 387.438400
   1183   1185   1187     1   109.8000471 387.438400
   1183   1185   1188     1   109.8000471 387.438400
   1184   1183   1185     1   109.5600471 388.275200
   1184   1183   1186     1   108.4600466 328.025600
   1185   1183   1186     1   109.5600471 388.275200
   1187   1185   1189     1   108.7700466 392.459200
   1187   1185   1188     1   107.5800459 329.699200
   1188   1185   1189     1   108.7700466 392.459200
   1192   1182   1194     1   109.5600471 388.275200
   1192   1182   1193     1   108.4600466 328.025600
   1193   1182   1194     1   109.5600471 388.275200
   1195   1194   1197     1   108.7700466 392.459200
   1195   1194   1196     1   107.5800459 329.699200
   1196   1194   1197     1   108.7700466 392.459200
   1200   1202   1203     1   108.8800464 416.726400
   1200   1202   1205     1   108.8800464 416.726400
   1201   1200   1202     1   117.6800502 383.254400
   1202   1204   1206     1   109.5600471 388.275200
   1202   1204   1207     1   109.5600471 388.275200
   1203   1202   1204     1   109.5600471 388.275200
   1203   1202   1205     1   108.4600466 328.025600
   1204   1202   1205     1   109.5600471 388.275200
   1206   1204   1208     1   109.8800469 414.216000
   1206   1204   1207     1   108.4600466 328.025600
   1207   1204   1208     1   109.8800469 414.216000
   1208   1209   1219     1   109.8800469 414.216000
   1208   1209   1220     1   109.8800469 414.216000
   1208   1210   1211     1   109.8800469 414.216000
   1208   1210   1213     1   109.8800469 414.216000
   1209   1221   1222     1   109.8000471 387.438400
   1209   1221   1223     1   109.8000471 387.438400
   1210   1212   1214     1   109.8000471 387.438400
   1210   1212   1215     1   109.8000471 387.438400
   1211   1210   1212     1   109.5600471 388.275200
   1211   1210   1213     1   108.4600466 328.025600
   1212   1210   1213     1   109.5600471 388.275200
   1214   1212   1216     1   108.7700466 392.459200
   1214   1212   1215     1   107.5800459 329.699200
   1215   1212   1216     1   108.7700466 392.459200
   1219   1209   1221     1   109.5600471 388.275200
   1219   1209   1220     1   108.4600466 328.025600
   1220   1209   1221     1   109.5600471 388.275200
   1222   1221   1224     1   108.7700466 392.459200
   1222   1221   1223     1   107.5800459 329.699200
   1223   1221   1224     1   108.7700466 392.459200
   1227   1229   1230     1   108.8800464 416.726400
   1227   1229   1232     1   108.8800464 416.726400
   1228   1227   1229     1   117.6800502 383.254400
   1229   1231   1233     1   109.5600471 388.275200
   1229   1231   1234     1   109.5600471 388.275200
   1230   1229   1231     1   109.5600471 388.275200
   1230   1229   1232     1   108.4600466 328.025600
   1231   1229   1232     1   109.5600471 388.275200
   1233   1231   1235     1   109.8800469 414.216000
   1233   1231   1234     1   108.4600466 328.025600
   1234   1231   1235     1   109.8800469 414.216000
   1235   1236   1246     1   109.8800469 414.216000
   1235   1236   1247     1   109.8800469 414.216000
   1235   1237   1238     1   109.8800469 414.216000
   1235   1237   1240     1   109.8800469 414.216000
   1236   1248   1249     1   109.8000471 387.438400
   1236   1248   1250     1   109.8000471 387.438400
   1237   1239   1241     1   109.8000471 387.438400
   1237   1239   1242     1   109.8000471 387.438400
   1238   1237   1239     1   109.5600471 388.275200
   1238   1237   1240     1   108.4600466 328.025600
   1239   1237   1240     1   109.5600471 388.275200
   1241   1239   1243     1   108.7700466 392.459200
   1241   1239   1242     1   107.5800459 329.699200
   1242   1239   1243     1   108.7700466 392.459200
   1246   1236   1248     1   109.5600471 388.275200
   1246   1236   1247     1   108.4600466 328.025600
   1247   1236   1248     1   109.5600471 388.275200
   1249   1248   1251     1   108.7700466 392.459200
   1249   1248   1250     1   107.5800459 329.699200
   1250   1248   1251     1   108.7700466 392.459200
   1254   1256   1257     1   108.8800464 416.726400
   1254   1256   1259     1   108.8800464 416.726400
   1255   1254   1256     1   117.6800502 383.254400
   1256   1258   1260     1   109.5600471 388.275200
   1256   1258   1261     1   109.5600471 388.275200
   1257   1256   1258     1   109.5600471 388.275200
   1257   1256   1259     1   108.4600466 328.025600
   1258   1256   1259     1   109.5600471 388.275200
   1260   1258   1262     1   109.8800469 414.216000
   1260   1258   1261     1   108.4600466 328.025600
   1261   1258   1262     1   109.8800469 414.216000
   1262   1263   1273     1   109.8800469 414.216000
   1262   1263   1274     1   109.8800469 414.216000
   1262   1264   1265     1   109.8800469 414.216000
   1262   1264   1267     1   109.8800469 414.216000
   1263   1275   1276     1   109.8000471 387.438400
   1263   1275   1277     1   109.8000471 387.438400
   1264   1266   1268     1   109.8000471 387.438400
   1264   1266   1269     1   109.8000471 387.438400
   1265   1264   1266     1   109.5600471 388.275200
   1265   1264   1267     1   108.4600466 328.025600
   1266   1264   1267     1   109.5600471 388.275200
   1268   1266   1270     1   108.7700466 392.459200
   1268   1266   1269     1   107.5800459 329.699200
   1269   1266   1270     1   108.7700466 392.459200
   1273   1263   1275     1   109.5600471 388.275200
   1273   1263   1274     1   108.4600466 328.025600
   1274   1263   1275     1   109.5600471 388.275200
   1276   1275   1278     1   108.7700466 392.459200
   1276   1275   1277     1   107.5800459 329.699200
   1277   1275   1278     1   108.7700466 392.459200
   1281   1283   1284     1   108.8800464 416.726400
   1281   1283   1286     1   108.8800464 416.726400
   1282   1281   1283     1   117.6800502 383.254400
   1283   1285   1287     1   109.5600471 388.275200
   1283   1285   1288     1   109.5600471 388.275200
   1284   1283   1285     1   109.5600471 388.275200
   1284   1283   1286     1   108.4600466 328.025600
   1285   1283   1286     1   109.5600471 388.275200
   1287   1285   1289     1   109.8800469 414.216000
   1287   1285   1288     1   108.4600466 328.025600
   1288   1285   1289     1   109.8800469 414.216000
   1289   1290   1300     1   109.8800469 414.216000
   1289   1290   1301     1   109.8800469 414.216000
   1289   1291   1292     1   109.8800469 414.216000
   1289   1291   1294     1   109.8800469 414.216000
   1290   1302   1303     1   109.8000471 387.438400
   1290   1302   1304     1   109.8000471 387.438400
   1291   1293   1295     1   109.8000471 387.438400
   1291   1293   1296     1   109.8000471 387.438400
   1292   1291   1293     1   109.5600471 388.275200
   1292   1291   1294     1   108.4600466 328.025600
   1293   1291   1294     1   109.5600471 388.275200
   1295   1293   1297     1   108.7700466 392.459200
   1295   1293   1296     1   107.5800459 329.699200
   1296   1293   1297     1   108.7700466 392.459200
   1300   1290   1302     1   109.5600471 388.275200
   1300   1290   1301     1   108.4600466 328.025600
   1301   1290   1302     1   109.5600471 388.275200
   1303   1302   1305     1   108.7700466 392.459200
   1303   1302   1304     1   107.5800459 329.699200
   1304   1302   1305     1   108.7700466 392.459200
   1308   1310   1311     1   108.8800464 416.726400
   1308   1310   1313     1   108.8800464 416.726400
   1309   1308   1310     1   117.6800502 383.254400
   1310   1312   1314     1   109.5600471 388.275200
   1310   1312   1315     1   109.5600471 388.275200
   1311   1310   1312     1   109.5600471 388.275200
   1311   1310   1313     1   108.4600466 328.025600
   1312   1310   1313     1   109.5600471 388.275200
   1314   1312   1316     1   109.8800469 414.216000
   1314   1312   1315     1   108.4600466 328.025600
   1315   1312   1316     1   109.8800469 414.216000
   1316   1317   1327     1   109.8800469 414.216000
   1316   1317   1328     1   109.8800469 414.216000
   1316   1318   1319     1   109.8800469 414.216000
   1316   1318   1321     1   109.8800469 414.216000
   1317   1329   1330     1   109.8000471 387.438400
   1317   1329   1331     1   109.8000471 387.438400
   1318   1320   1322     1   109.8000471 387.438400
   1318   1320   1323     1   109.8000471 387.438400
   1319   1318   1320     1   109.5600471 388.275200
   1319   1318   1321     1   108.4600466 328.025600
   1320   1318   1321     1   109.5600471 388.275200
   1322   1320   1324     1   108.7700466 392.459200
   1322   1320   1323     1   107.5800459 329.699200
   1323   1320   1324     1   108.7700466 392.459200
   1327   1317   1329     1   109.5600471 388.275200
   1327   1317   1328     1   108.4600466 328.025600
   1328   1317   1329     1   109.5600471 388.275200
   1330   1329   1332     1   108.7700466 392.459200
   1330   1329   1331     1   107.5800459 329.699200
   1331   1329   1332     1   108.7700466 392.459200
   1335   1337   1338     1   108.8800464 416.726400
   1335   1337   1340     1   108.8800464 416.726400
   1336   1335   1337     1   117.6800502 383.254400
   1337   1339   1341     1   109.5600471 388.275200
   1337   1339   1342     1   109.5600471 388.275200
   1338   1337   1339     1   109.5600471 388.275200
   1338   1337   1340     1   108.4600466 328.025600
   1339   1337   1340     1   109.5600471 388.275200
   1341   1339   1343     1   109.8800469 414.216000
   1341   1339   1342     1   108.4600466 328.025600
   1342   1339   1343     1   109.8800469 414.216000
   1343   1344   1354     1   109.8800469 414.216000
   1343   1344   1355     1   109.8800469 414.216000
   1343   1345   1346     1   109.8800469 414.216000
   1343   1345   1348     1   109.8800469 414.216000
   1344   1356   1357     1   109.8000471 387.438400
   1344   1356   1358     1   109.8000471 387.438400
   1345   1347   1349     1   109.8000471 387.438400
   1345   1347   1350     1   109.8000471 387.438400
   1346   1345   1347     1   109.5600471 388.275200
   1346   1345   1348     1   108.4600466 328.025600
   1347   1345   1348     1   109.5600471 388.275200
   1349   1347   1351     1   108.7700466 392.459200
   1349   1347   1350     1   107.5800459 329.699200
   1350   1347   1351     1   108.7700466 392.459200
   1354   1344   1356     1   109.5600471 388.275200
   1354   1344   1355     1   108.4600466 328.025600
   1355   1344   1356     1   109.5600471 388.275200
   1357   1356   1359     1   108.7700466 392.459200
   1357   1356   1358     1   107.5800459 329.699200
   1358   1356   1359     1   108.7700466 392.459200
   1362   1364   1365     1   108.8800464 416.726400
   1362   1364   1367     1   108.8800464 416.726400
   1363   1362   1364     1   117.6800502 383.254400
   1364   1366   1368     1   109.5600471 388.275200
   1364   1366   1369     1   109.5600471 388.275200
   1365   1364   1366     1   109.5600471 388.275200
   1365   1364   1367     1   108.4600466 328.025600
   1366   1364   1367     1   109.5600471 388.275200
   1368   1366   1370     1   109.8800469 414.216000
   1368   1366   1369     1   108.4600466 328.025600
   1369   1366   1370     1   109.8800469 414.216000
   1370   1371   1381     1   109.8800469 414.216000
   1370   1371   1382     1   109.8800469 414.216000
   1370   1372   1373     1   109.8800469 414.216000
   1370   1372   1375     1   109.8800469 414.216000
   1371   1383   1384     1   109.8000471 387.438400
   1371   1383   1385     1   109.8000471 387.438400
   1372   1374   1376     1   109.8000471 387.438400
   1372   1374   1377     1   109.8000471 387.438400
   1373   1372   1374     1   109.5600471 388.275200
   1373   1372   1375     1   108.4600466 328.025600
   1374   1372   1375     1   109.5600471 388.275200
   1376   1374   1378     1   108.7700466 392.459200
   1376   1374   1377     1   107.5800459 329.699200
   1377   1374   1378     1   108.7700466 392.459200
   1381   1371   1383     1   109.5600471 388.275200
   1381   1371   1382     1   108.4600466 328.025600
   1382   1371   1383     1   109.5600471 388.275200
   1384   1383   1386     1   108.7700466 392.459200
   1384   1383   1385     1   107.5800459 329.699200
   1385   1383   1386     1   108.7700466 392.459200
   1389   1391   1392     1   108.8800464 416.726400
   1389   1391   1394     1   108.8800464 416.726400
   1390   1389   1391     1   117.6800502 383.254400
   1391   1393   1395     1   109.5600471 388.275200
   1391   1393   1396     1   109.5600471 388.275200
   1392   1391   1393     1   109.5600471 388.275200
   1392   1391   1394     1   108.4600466 328.025600
   1393   1391   1394     1   109.5600471 388.275200
   1395   1393   1397     1   109.8800469 414.216000
   1395   1393   1396     1   108.4600466 328.025600
   1396   1393   1397     1   109.8800469 414.216000
   1397   1398   1408     1   109.8800469 414.216000
   1397   1398   1409     1   109.8800469 414.216000
   1397   1399   1400     1   109.8800469 414.216000
   1397   1399   1402     1   109.8800469 414.216000
   1398   1410   1411     1   109.8000471 387.438400
   1398   1410   1412     1   109.8000471 387.438400
   1399   1401   1403     1   109.8000471 387.438400
   1399   1401   1404     1   109.8000471 387.438400
   1400   1399   1401     1   109.5600471 388.275200
   1400   1399   1402     1   108.4600466 328.025600
   1401   1399   1402     1   109.5600471 388.275200
   1403   1401   1405     1   108.7700466 392.459200
   1403   1401   1404     1   107.5800459 329.699200
   1404   1401   1405     1   108.7700466 392.459200
   1408   1398   1410     1   109.5600471 388.275200
   1408   1398   1409     1   108.4600466 328.025600
   1409   1398   1410     1   109.5600471 388.275200
   1411   1410   1413     1   108.7700466 392.459200
   1411   1410   1412     1   107.5800459 329.699200
   1412   1410   1413     1   108.7700466 392.459200
   1416   1418   1419     1   108.8800464 416.726400
   1416   1418   1421     1   108.8800464 416.726400
   1417   1416   1418     1   117.6800502 383.254400
   1418   1420   1422     1   109.5600471 388.275200
   1418   1420   1423     1   109.5600471 388.275200
   1419   1418   1420     1   109.5600471 388.275200
   1419   1418   1421     1   108.4600466 328.025600
   1420   1418   1421     1   109.5600471 388.275200
   1422   1420   1424     1   109.8800469 414.216000
   1422   1420   1423     1   108.4600466 328.025600
   1423   1420   1424     1   109.8800469 414.216000
   1424   1425   1435     1   109.8800469 414.216000
   1424   1425   1436     1   109.8800469 414.216000
   1424   1426   1427     1   109.8800469 414.216000
   1424   1426   1429     1   109.8800469 414.216000
   1425   1437   1438     1   109.8000471 387.438400
   1425   1437   1439     1   109.8000471 387.438400
   1426   1428   1430     1   109.8000471 387.438400
   1426   1428   1431     1   109.8000471 387.438400
   1427   1426   1428     1   109.5600471 388.275200
   1427   1426   1429     1   108.4600466 328.025600
   1428   1426   1429     1   109.5600471 388.275200
   1430   1428   1432     1   108.7700466 392.459200
   1430   1428   1431     1   107.5800459 329.699200
   1431   1428   1432     1   108.7700466 392.459200
   1435   1425   1437     1   109.5600471 388.275200
   1435   1425   1436     1   108.4600466 328.025600
   1436   1425   1437     1   109.5600471 388.275200
   1438   1437   1440     1   108.7700466 392.459200
   1438   1437   1439     1   107.5800459 329.699200
   1439   1437   1440     1   108.7700466 392.459200
   1443   1445   1446     1   108.8800464 416.726400
   1443   1445   1448     1   108.8800464 416.726400
   1444   1443   1445     1   117.6800502 383.254400
   1445   1447   1449     1   109.5600471 388.275200
   1445   1447   1450     1   109.5600471 388.275200
   1446   1445   1447     1   109.5600471 388.275200
   1446   1445   1448     1   108.4600466 328.025600
   1447   1445   1448     1   109.5600471 388.275200
   1449   1447   1451     1   109.8800469 414.216000
   1449   1447   1450     1   108.4600466 328.025600
   1450   1447   1451     1   109.8800469 414.216000
   1451   1452   1462     1   109.8800469 414.216000
   1451   1452   1463     1   109.8800469 414.216000
   1451   1453   1454     1   109.8800469 414.216000
   1451   1453   1456     1   109.8800469 414.216000
   1452   1464   1465     1   109.8000471 387.438400
   1452   1464   1466     1   109.8000471 387.438400
   1453   1455   1457     1   109.8000471 387.438400
   1453   1455   1458     1   109.8000471 387.438400
   1454   1453   1455     1   109.5600471 388.275200
   1454   1453   1456     1   108.4600466 328.025600
   1455   1453   1456     1   109.5600471 388.275200
   1457   1455   1459     1   108.7700466 392.459200
   1457   1455   1458     1   107.5800459 329.699200
   1458   1455   1459     1   108.7700466 392.459200
   1462   1452   1464     1   109.5600471 388.275200
   1462   1452   1463     1   108.4600466 328.025600
   1463   1452   1464     1   109.5600471 388.275200
   1465   1464   1467     1   108.7700466 392.459200
   1465   1464   1466     1   107.5800459 329.699200
   1466   1464   1467     1   108.7700466 392.459200
   1470   1472   1473     1   108.8800464 416.726400
   1470   1472   1475     1   108.8800464 416.726400
   1471   1470   1472     1   117.6800502 383.254400
   1472   1474   1476     1   109.5600471 388.275200
   1472   1474   1477     1   109.5600471 388.275200
   1473   1472   1474     1   109.5600471 388.275200
   1473   1472   1475     1   108.4600466 328.025600
   1474   1472   1475     1   109.5600471 388.275200
   1476   1474   1478     1   109.8800469 414.216000
   1476   1474   1477     1   108.4600466 328.025600
   1477   1474   1478     1   109.8800469 414.216000
   1478   1479   1489     1   109.8800469 414.216000
   1478   1479   1490     1   109.8800469 414.216000
   1478   1480   1481     1   109.8800469 414.216000
   1478   1480   1483     1   109.8800469 414.216000
   1479   1491   1492     1   109.8000471 387.438400
   1479   1491   1493     1   109.8000471 387.438400
   1480   1482   1484     1   109.8000471 387.438400
   1480   1482   1485     1   109.8000471 387.438400
   1481   1480   1482     1   109.5600471 388.275200
   1481   1480   1483     1   108.4600466 328.025600
   1482   1480   1483     1   109.5600471 388.275200
   1484   1482   1486     1   108.7700466 392.459200
   1484   1482   1485     1   107.5800459 329.699200
   1485   1482   1486     1   108.7700466 392.459200
   1489   1479   1491     1   109.5600471 388.275200
   1489   1479   1490     1   108.4600466 328.025600
   1490   1479   1491     1   109.5600471 388.275200
   1492   1491   1494     1   108.7700466 392.459200
   1492   1491   1493     1   107.5800459 329.699200
   1493   1491   1494     1   108.7700466 392.459200
   1497   1499   1500     1   108.8800464 416.726400
   1497   1499   1502     1   108.8800464 416.726400
   1498   1497   1499     1   117.6800502 383.254400
   1499   1501   1503     1   109.5600471 388.275200
   1499   1501   1504     1   109.5600471 388.275200
   1500   1499   1501     1   109.5600471 388.275200
   1500   1499   1502     1   108.4600466 328.025600
   1501   1499   1502     1   109.5600471 388.275200
   1503   1501   1505     1   109.8800469 414.216000
   1503   1501   1504     1   108.4600466 328.025600
   1504   1501   1505     1   109.8800469 414.216000
   1505   1506   1516     1   109.8800469 414.216000
   1505   1506   1517     1   109.8800469 414.216000
   1505   1507   1508     1   109.8800469 414.216000
   1505   1507   1510     1   109.8800469 414.216000
   1506   1518   1519     1   109.8000471 387.438400
   1506   1518   1520     1   109.8000471 387.438400
   1507   1509   1511     1   109.8000471 387.438400
   1507   1509   1512     1   109.8000471 387.438400
   1508   1507   1509     1   109.5600471 388.275200
   1508   1507   1510     1   108.4600466 328.025600
   1509   1507   1510     1   109.5600471 388.275200
   1511   1509   1513     1   108.7700466 392.459200
   1511   1509   1512     1   107.5800459 329.699200
   1512   1509   1513     1   108.7700466 392.459200
   1516   1506   1518     1   109.5600471 388.275200
   1516   1506   1517     1   108.4600466 328.025600
   1517   1506   1518     1   109.5600471 388.275200
   1519   1518   1521     1   108.7700466 392.459200
   1519   1518   1520     1   107.5800459 329.699200
   1520   1518   1521     1   108.7700466 392.459200
   1524   1526   1527     1   108.8800464 416.726400
   1524   1526   1529     1   108.8800464 416.726400
   1525   1524   1526     1   117.6800502 383.254400
   1526   1528   1530     1   109.5600471 388.275200
   1526   1528   1531     1   109.5600471 388.275200
   1527   1526   1528     1   109.5600471 388.275200
   1527   1526   1529     1   108.4600466 328.025600
   1528   1526   1529     1   109.5600471 388.275200
   1530   1528   1532     1   109.8800469 414.216000
   1530   1528   1531     1   108.4600466 328.025600
   1531   1528   1532     1   109.8800469 414.216000
   1532   1533   1543     1   109.8800469 414.216000
   1532   1533   1544     1   109.8800469 414.216000
   1532   1534   1535     1   109.8800469 414.216000
   1532   1534   1537     1   109.8800469 414.216000
   1533   1545   1546     1   109.8000471 387.438400
   1533   1545   1547     1   109.8000471 387.438400
   1534   1536   1538     1   109.8000471 387.438400
   1534   1536   1539     1   109.8000471 387.438400
   1535   1534   1536     1   109.5600471 388.275200
   1535   1534   1537     1   108.4600466 328.025600
   1536   1534   1537     1   109.5600471 388.275200
   1538   1536   1540     1   108.7700466 392.459200
   1538   1536   1539     1   107.5800459 329.699200
   1539   1536   1540     1   108.7700466 392.459200
   1543   1533   1545     1   109.5600471 388.275200
   1543   1533   1544     1   108.4600466 328.025600
   1544   1533   1545     1   109.5600471 388.275200
   1546   1545   1548     1   108.7700466 392.459200
   1546   1545   1547     1   107.5800459 329.699200
   1547   1545   1548     1   108.7700466 392.459200
   1551   1553   1554     1   108.8800464 416.726400
   1551   1553   1556     1   108.8800464 416.726400
   1552   1551   1553     1   117.6800502 383.254400
   1553   1555   1557     1   109.5600471 388.275200
   1553   1555   1558     1   109.5600471 388.275200
   1554   1553   1555     1   109.5600471 388.275200
   1554   1553   1556     1   108.4600466 328.025600
   1555   1553   1556     1   109.5600471 388.275200
   1557   1555   1559     1   109.8800469 414.216000
   1557   1555   1558     1   108.4600466 328.025600
   1558   1555   1559     1   109.8800469 414.216000
   1559   1560   1570     1   109.8800469 414.216000
   1559   1560   1571     1   109.8800469 414.216000
   1559   1561   1562     1   109.8800469 414.216000
   1559   1561   1564     1   109.8800469 414.216000
   1560   1572   1573     1   109.8000471 387.438400
   1560   1572   1574     1   109.8000471 387.438400
   1561   1563   1565     1   109.8000471 387.438400
   1561   1563   1566     1   109.8000471 387.438400
   1562   1561   1563     1   109.5600471 388.275200
   1562   1561   1564     1   108.4600466 328.025600
   1563   1561   1564     1   109.5600471 388.275200
   1565   1563   1567     1   108.7700466 392.459200
   1565   1563   1566     1   107.5800459 329.699200
   1566   1563   1567     1   108.7700466 392.459200
   1570   1560   1572     1   109.5600471 388.275200
   1570   1560   1571     1   108.4600466 328.025600
   1571   1560   1572     1   109.5600471 388.275200
   1573   1572   1575     1   108.7700466 392.459200
   1573   1572   1574     1   107.5800459 329.699200
   1574   1572   1575     1   108.7700466 392.459200
   1578   1580   1581     1   108.8800464 416.726400
   1578   1580   1583     1   108.8800464 416.726400
   1579   1578   1580     1   117.6800502 383.254400
   1580   1582   1584     1   109.5600471 388.275200
   1580   1582   1585     1   109.5600471 388.275200
   1581   1580   1582     1   109.5600471 388.275200
   1581   1580   1583     1   108.4600466 328.025600
   1582   1580   1583     1   109.5600471 388.275200
   1584   1582   1586     1   109.8800469 414.216000
   1584   1582   1585     1   108.4600466 328.025600
   1585   1582   1586     1   109.8800469 414.216000
   1586   1587   1597     1   109.8800469 414.216000
   1586   1587   1598     1   109.8800469 414.216000
   1586   1588   1589     1   109.8800469 414.216000
   1586   1588   1591     1   109.8800469 414.216000
   1587   1599   1600     1   109.8000471 387.438400
   1587   1599   1601     1   109.8000471 387.438400
   1588   1590   1592     1   109.8000471 387.438400
   1588   1590   1593     1   109.8000471 387.438400
   1589   1588   1590     1   109.5600471 388.275200
   1589   1588   1591     1   108.4600466 328.025600
   1590   1588   1591     1   109.5600471 388.275200
   1592   1590   1594     1   108.7700466 392.459200
   1592   1590   1593     1   107.5800459 329.699200
   1593   1590   1594     1   108.7700466 392.459200
   1597   1587   1599     1   109.5600471 388.275200
   1597   1587   1598     1   108.4600466 328.025600
   1598   1587   1599     1   109.5600471 388.275200
   1600   1599   1602     1   108.7700466 392.459200
   1600   1599   1601     1   107.5800459 329.699200
   1601   1599   1602     1   108.7700466 392.459200

[ dihedrals ]
;    ai     aj     ak     al funct         c0         c1         c2         c3         c4         c5
      1      4      7     15     1  180.0000771  2.0083200  2
      1      4      7     15     1  0.0000000  1.2552000  3
      1      4      7     18     1  180.0000771  2.0083200  2
      1      4      7     18     1  0.0000000  1.2552000  3
      1      8      9     30     1  180.0000771  2.0083200  2
      1      8      9     30     1  0.0000000  1.2552000  3
      1      8     12     27     1  180.0000771  2.0083200  2
      1      8     12     27     1  0.0000000  1.2552000  3
      4      1      8      9     1  180.0000771  2.0083200  2
      4      1      8      9     1  0.0000000  1.2552000  3
      4      1      8     12     1  180.0000771  2.0083200  2
      4      1      8     12     1  0.0000000  1.2552000  3
      4      7     15     21     1  180.0000771  2.0083200  2
      4      7     15     21     1  0.0000000  1.2552000  3
      4      7     18     24     1  180.0000771  2.0083200  2
      4      7     18     24     1  0.0000000  1.2552000  3
      8      1      4      7     1  0.0000000  0.6508444  3
      7     15     21     35     1  0.0000000  0.6508444  3
      7     18     24     36     1  0.0000000  0.6508444  3
      8      9     30     34     1  0.0000000  0.6508444  3
      8     12     27     33     1  0.0000000  0.6508444  3
      9      8     12     27     1  180.0000771  2.0083200  2
      9      8     12     27     1  0.0000000  1.2552000  3
      9     30     34     40     1  180.0000771  0.0000000  2
      9     30     34     89     1  0.0000000  0.2928800  2
      9     30     34     89     1  0.0000000  0.4184000  4
     12      8      9     30     1  180.0000771  2.0083200  2
     12      8      9     30     1  0.0000000  1.2552000  3
     12     27     33     37     1  180.0000771  0.0000000  2
     12     27     33     64     1  0.0000000  0.2928800  2
     12     27     33     64     1  0.0000000  0.4184000  4
     15      7     18     24     1  180.0000771  2.0083200  2
     15      7     18     24     1  0.0000000  1.2552000  3
     15     21     35     38     1  180.0000771  0.0000000  2
     15     21     35    114     1  0.0000000  0.2928800  2
     15     21     35    114     1  0.0000000  0.4184000  4
     18      7     15     21     1  180.0000771  2.0083200  2
     18      7     15     21     1  0.0000000  1.2552000  3
     18     24     36     39     1  180.0000771  0.0000000  2
     18     24     36    139     1  0.0000000  0.2928800  2
     18     24     36    139     1  0.0000000  0.4184000  4
     21     35    114     94     1  180.0000771  6.2760000  1
     21     35    114     94     1  0.0000000  0.0000000  2
     24     36    139    119     1  180.0000771  6.2760000  1
     24     36    139    119     1  0.0000000  0.0000000  2
     27     33     64     44     1  180.0000771  6.2760000  1
     27     33     64     44     1  0.0000000  0.0000000  2
     30     34     89     69     1  180.0000771  6.2760000  1
     30     34     89     69     1  0.0000000  0.0000000  2
     33     64     44     41     1  0.0000000  2.2175200  1
     33     64     44     41     1  0.0000000  0.0000000  2
     33     64     44     41     1  180.0000771  0.6276000  3
     33     64     44     41     1  180.0000771  2.0920000  4
     34     89     69     66     1  0.0000000  2.2175200  1
     34     89     69     66     1  0.0000000  0.0000000  2
     34     89     69     66     1  180.0000771  0.6276000  3
     34     89     69     66     1  180.0000771  2.0920000  4
     35    114     94     91     1  0.0000000  2.2175200  1
     35    114     94     91     1  0.0000000  0.0000000  2
     35    114     94     91     1  180.0000771  0.6276000  3
     35    114     94     91     1  180.0000771  2.0920000  4
     36    139    119    116     1  0.0000000  2.2175200  1
     36    139    119    116     1  0.0000000  0.0000000  2
     36    139    119    116     1  180.0000771  0.6276000  3
     36    139    119    116     1  180.0000771  2.0920000  4
     37     33     64     44     1  180.0000771  10.4600000  2
     38     35    114     94     1  180.0000771  10.4600000  2
     39     36    139    119     1  180.0000771  10.4600000  2
     40     34     89     69     1  180.0000771  10.4600000  2
     41     47     48     57     1  180.0000771  2.0083200  2
     41     47     48     57     1  0.0000000  1.2552000  3
     41     47     51     54     1  180.0000771  2.0083200  2
     41     47     51     54     1  0.0000000  1.2552000  3
     44     41     47     48     1  180.0000771  2.0083200  2
     44     41     47     48     1  0.0000000  1.2552000  3
     44     41     47     51     1  180.0000771  2.0083200  2
     44     41     47     51     1  0.0000000  1.2552000  3
     47     41     44     64     1  0.0000000  0.6508444  3
     47     48     57     61     1  0.0000000  0.6508444  3
     47     51     54     60     1  0.0000000  0.6508444  3
     48     47     51     54     1  180.0000771  2.0083200  2
     48     47     51     54     1  0.0000000  1.2552000  3
     48     57     61     63     1  180.0000771  0.0000000  2
     48     57     61    189     1  0.0000000  0.2928800  2
     48     57     61    189     1  0.0000000  0.4184000  4
     51     47     48     57     1  180.0000771  2.0083200  2
     51     47     48     57     1  0.0000000  1.2552000  3
     51     54     60     62     1  180.0000771  0.0000000  2
     51     54     60    164     1  0.0000000  0.2928800  2
     51     54     60    164     1  0.0000000  0.4184000  4
     54     60    164    144     1  180.0000771  6.2760000  1
     54     60    164    144     1  0.0000000  0.0000000  2
     57     61    189    169     1  180.0000771  6.2760000  1
     57     61    189    169     1  0.0000000  0.0000000  2
     60    164    144    141     1  0.0000000  2.2175200  1
     60    164    144    141     1  0.0000000  0.0000000  2
     60    164    144    141     1  180.0000771  0.6276000  3
     60    164    144    141     1  180.0000771  2.0920000  4
     61    189    169    166     1  0.0000000  2.2175200  1
     61    189    169    166     1  0.0000000  0.0000000  2
     61    189    169    166     1  180.0000771  0.6276000  3
     61    189    169    166     1  180.0000771  2.0920000  4
     62     60    164    144     1  180.0000771  10.4600000  2
     63     61    189    169     1  180.0000771  10.4600000  2
     66     72     73     82     1  180.0000771  2.0083200  2
     66     72     73     82     1  0.0000000  1.2552000  3
     66     72     76     79     1  180.0000771  2.0083200  2
     66     72     76     79     1  0.0000000  1.2552000  3
     69     66     72     73     1  180.0000771  2.0083200  2
     69     66     72     73     1  0.0000000  1.2552000  3
     69     66     72     76     1  180.0000771  2.0083200  2
     69     66     72     76     1  0.0000000  1.2552000  3
     72     66     69     89     1  0.0000000  0.6508444  3
     72     73     82     86     1  0.0000000  0.6508444  3
     72     76     79     85     1  0.0000000  0.6508444  3
     73     72     76     79     1  180.0000771  2.0083200  2
     73     72     76     79     1  0.0000000  1.2552000  3
     73     82     86     88     1  180.0000771  0.0000000  2
     73     82     86    239     1  0.0000000  0.2928800  2
     73     82     86    239     1  0.0000000  0.4184000  4
     76     72     73     82     1  180.0000771  2.0083200  2
     76     72     73     82     1  0.0000000  1.2552000  3
     76     79     85     87     1  180.0000771  0.0000000  2
     76     79     85    214     1  0.0000000  0.2928800  2
     76     79     85    214     1  0.0000000  0.4184000  4
     79     85    214    194     1  180.0000771  6.2760000  1
     79     85    214    194     1  0.0000000  0.0000000  2
     82     86    239    219     1  180.0000771  6.2760000  1
     82     86    239    219     1  0.0000000  0.0000000  2
     85    214    194    191     1  0.0000000  2.2175200  1
     85    214    194    191     1  0.0000000  0.0000000  2
     85    214    194    191     1  180.0000771  0.6276000  3
     85    214    194    191     1  180.0000771  2.0920000  4
     86    239    219    216     1  0.0000000  2.2175200  1
     86    239    219    216     1  0.0000000  0.0000000  2
     86    239    219    216     1  180.0000771  0.6276000  3
     86    239    219    216     1  180.0000771  2.0920000  4
     87     85    214    194     1  180.0000771  10.4600000  2
     88     86    239    219     1  180.0000771  10.4600000  2
     91     97     98    107     1  180.0000771  2.0083200  2
     91     97     98    107     1  0.0000000  1.2552000  3
     91     97    101    104     1  180.0000771  2.0083200  2
     91     97    101    104     1  0.0000000  1.2552000  3
     94     91     97     98     1  180.0000771  2.0083200  2
     94     91     97     98     1  0.0000000  1.2552000  3
     94     91     97    101     1  180.0000771  2.0083200  2
     94     91     97    101     1  0.0000000  1.2552000  3
     97     91     94    114     1  0.0000000  0.6508444  3
     97     98    107    111     1  0.0000000  0.6508444  3
     97    101    104    110     1  0.0000000  0.6508444  3
     98     97    101    104     1  180.0000771  2.0083200  2
     98     97    101    104     1  0.0000000  1.2552000  3
     98    107    111    113     1  180.0000771  0.0000000  2
     98    107    111    289     1  0.0000000  0.2928800  2
     98    107    111    289     1  0.0000000  0.4184000  4
    101     97     98    107     1  180.0000771  2.0083200  2
    101     97     98    107     1  0.0000000  1.2552000  3
    101    104    110    112     1  180.0000771  0.0000000  2
    101    104    110    264     1  0.0000000  0.2928800  2
    101    104    110    264     1  0.0000000  0.4184000  4
    104    110    264    244     1  180.0000771  6.2760000  1
    104    110    264    244     1  0.0000000  0.0000000  2
    107    111    289    269     1  180.0000771  6.2760000  1
    107    111    289    269     1  0.0000000  0.0000000  2
    110    264    244    241     1  0.0000000  2.2175200  1
    110    264    244    241     1  0.0000000  0.0000000  2
    110    264    244    241     1  180.0000771  0.6276000  3
    110    264    244    241     1  180.0000771  2.0920000  4
    111    289    269    266     1  0.0000000  2.2175200  1
    111    289    269    266     1  0.0000000  0.0000000  2
    111    289    269    266     1  180.0000771  0.6276000  3
    111    289    269    266     1  180.0000771  2.0920000  4
    112    110    264    244     1  180.0000771  10.4600000  2
    113    111    289    269     1  180.0000771  10.4600000  2
    116    122    123    132     1  180.0000771  2.0083200  2
    116    122    123    132     1  0.0000000  1.2552000  3
    116    122    126    129     1  180.0000771  2.0083200  2
    116    122    126    129     1  0.0000000  1.2552000  3
    119    116    122    123     1  180.0000771  2.0083200  2
    119    116    122    123     1  0.0000000  1.2552000  3
    119    116    122    126     1  180.0000771  2.0083200  2
    119    116    122    126     1  0.0000000  1.2552000  3
    122    116    119    139     1  0.0000000  0.6508444  3
    122    123    132    136     1  0.0000000  0.6508444  3
    122    126    129    135     1  0.0000000  0.6508444  3
    123    122    126    129     1  180.0000771  2.0083200  2
    123    122    126    129     1  0.0000000  1.2552000  3
    123    132    136    138     1  180.0000771  0.0000000  2
    123    132    136    339     1  0.0000000  0.2928800  2
    123    132    136    339     1  0.0000000  0.4184000  4
    126    122    123    132     1  180.0000771  2.0083200  2
    126    122    123    132     1  0.0000000  1.2552000  3
    126    129    135    137     1  180.0000771  0.0000000  2
    126    129    135    314     1  0.0000000  0.2928800  2
    126    129    135    314     1  0.0000000  0.4184000  4
    129    135    314    294     1  180.0000771  6.2760000  1
    129    135    314    294     1  0.0000000  0.0000000  2
    132    136    339    319     1  180.0000771  6.2760000  1
    132    136    339    319     1  0.0000000  0.0000000  2
    135    314    294    291     1  0.0000000  2.2175200  1
    135    314    294    291     1  0.0000000  0.0000000  2
    135    314    294    291     1  180.0000771  0.6276000  3
    135    314    294    291     1  180.0000771  2.0920000  4
    136    339    319    316     1  0.0000000  2.2175200  1
    136    339    319    316     1  0.0000000  0.0000000  2
    136    339    319    316     1  180.0000771  0.6276000  3
    136    339    319    316     1  180.0000771  2.0920000  4
    137    135    314    294     1  180.0000771  10.4600000  2
    138    136    339    319     1  180.0000771  10.4600000  2
    141    147    148    157     1  180.0000771  2.0083200  2
    141    147    148    157     1  0.0000000  1.2552000  3
    141    147    151    154     1  180.0000771  2.0083200  2
    141    147    151    154     1  0.0000000  1.2552000  3
    144    141    147    148     1  180.0000771  2.0083200  2
    144    141    147    148     1  0.0000000  1.2552000  3
    144    141    147    151     1  180.0000771  2.0083200  2
    144    141    147    151     1  0.0000000  1.2552000  3
    147    141    144    164     1  0.0000000  0.6508444  3
    147    148    157    161     1  0.0000000  0.6508444  3
    147    151    154    160     1  0.0000000  0.6508444  3
    148    147    151    154     1  180.0000771  2.0083200  2
    148    147    151    154     1  0.0000000  1.2552000  3
    148    157    161    163     1  180.0000771  0.0000000  2
    148    157    161    389     1  0.0000000  0.2928800  2
    148    157    161    389     1  0.0000000  0.4184000  4
    151    147    148    157     1  180.0000771  2.0083200  2
    151    147    148    157     1  0.0000000  1.2552000  3
    151    154    160    162     1  180.0000771  0.0000000  2
    151    154    160    364     1  0.0000000  0.2928800  2
    151    154    160    364     1  0.0000000  0.4184000  4
    154    160    364    344     1  180.0000771  6.2760000  1
    154    160    364    344     1  0.0000000  0.0000000  2
    157    161    389    369     1  180.0000771  6.2760000  1
    157    161    389    369     1  0.0000000  0.0000000  2
    160    364    344    341     1  0.0000000  2.2175200  1
    160    364    344    341     1  0.0000000  0.0000000  2
    160    364    344    341     1  180.0000771  0.6276000  3
    160    364    344    341     1  180.0000771  2.0920000  4
    161    389    369    366     1  0.0000000  2.2175200  1
    161    389    369    366     1  0.0000000  0.0000000  2
    161    389    369    366     1  180.0000771  0.6276000  3
    161    389    369    366     1  180.0000771  2.0920000  4
    162    160    364    344     1  180.0000771  10.4600000  2
    163    161    389    369     1  180.0000771  10.4600000  2
    166    172    173    182     1  180.0000771  2.0083200  2
    166    172    173    182     1  0.0000000  1.2552000  3
    166    172    176    179     1  180.0000771  2.0083200  2
    166    172    176    179     1  0.0000000  1.2552000  3
    169    166    172    173     1  180.0000771  2.0083200  2
    169    166    172    173     1  0.0000000  1.2552000  3
    169    166    172    176     1  180.0000771  2.0083200  2
    169    166    172    176     1  0.0000000  1.2552000  3
    172    166    169    189     1  0.0000000  0.6508444  3
    172    173    182    186     1  0.0000000  0.6508444  3
    172    176    179    185     1  0.0000000  0.6508444  3
    173    172    176    179     1  180.0000771  2.0083200  2
    173    172    176    179     1  0.0000000  1.2552000  3
    173    182    186    188     1  180.0000771  0.0000000  2
    173    182    186    439     1  0.0000000  0.2928800  2
    173    182    186    439     1  0.0000000  0.4184000  4
    176    172    173    182     1  180.0000771  2.0083200  2
    176    172    173    182     1  0.0000000  1.2552000  3
    176    179    185    187     1  180.0000771  0.0000000  2
    176    179    185    414     1  0.0000000  0.2928800  2
    176    179    185    414     1  0.0000000  0.4184000  4
    179    185    414    394     1  180.0000771  6.2760000  1
    179    185    414    394     1  0.0000000  0.0000000  2
    182    186    439    419     1  180.0000771  6.2760000  1
    182    186    439    419     1  0.0000000  0.0000000  2
    185    414    394    391     1  0.0000000  2.2175200  1
    185    414    394    391     1  0.0000000  0.0000000  2
    185    414    394    391     1  180.0000771  0.6276000  3
    185    414    394    391     1  180.0000771  2.0920000  4
    186    439    419    416     1  0.0000000  2.2175200  1
    186    439    419    416     1  0.0000000  0.0000000  2
    186    439    419    416     1  180.0000771  0.6276000  3
    186    439    419    416     1  180.0000771  2.0920000  4
    187    185    414    394     1  180.0000771  10.4600000  2
    188    186    439    419     1  180.0000771  10.4600000  2
    191    197    198    207     1  180.0000771  2.0083200  2
    191    197    198    207     1  0.0000000  1.2552000  3
    191    197    201    204     1  180.0000771  2.0083200  2
    191    197    201    204     1  0.0000000  1.2552000  3
    194    191    197    198     1  180.0000771  2.0083200  2
    194    191    197    198     1  0.0000000  1.2552000  3
    194    191    197    201     1  180.0000771  2.0083200  2
    194    191    197    201     1  0.0000000  1.2552000  3
    197    191    194    214     1  0.0000000  0.6508444  3
    197    198    207    211     1  0.0000000  0.6508444  3
    197    201    204    210     1  0.0000000  0.6508444  3
    198    197    201    204     1  180.0000771  2.0083200  2
    198    197    201    204     1  0.0000000  1.2552000  3
    198    207    211    213     1  180.0000771  0.0000000  2
    198    207    211    489     1  0.0000000  0.2928800  2
    198    207    211    489     1  0.0000000  0.4184000  4
    201    197    198    207     1  180.0000771  2.0083200  2
    201    197    198    207     1  0.0000000  1.2552000  3
    201    204    210    212     1  180.0000771  0.0000000  2
    201    204    210    464     1  0.0000000  0.2928800  2
    201    204    210    464     1  0.0000000  0.4184000  4
    204    210    464    444     1  180.0000771  6.2760000  1
    204    210    464    444     1  0.0000000  0.0000000  2
    207    211    489    469     1  180.0000771  6.2760000  1
    207    211    489    469     1  0.0000000  0.0000000  2
    210    464    444    441     1  0.0000000  2.2175200  1
    210    464    444    441     1  0.0000000  0.0000000  2
    210    464    444    441     1  180.0000771  0.6276000  3
    210    464    444    441     1  180.0000771  2.0920000  4
    211    489    469    466     1  0.0000000  2.2175200  1
    211    489    469    466     1  0.0000000  0.0000000  2
    211    489    469    466     1  180.0000771  0.6276000  3
    211    489    469    466     1  180.0000771  2.0920000  4
    212    210    464    444     1  180.0000771  10.4600000  2
    213    211    489    469     1  180.0000771  10.4600000  2
    216    222    223    232     1  180.0000771  2.0083200  2
    216    222    223    232     1  0.0000000  1.2552000  3
    216    222    226    229     1  180.0000771  2.0083200  2
    216    222    226    229     1  0.0000000  1.2552000  3
    219    216    222    223     1  180.0000771  2.0083200  2
    219    216    222    223     1  0.0000000  1.2552000  3
    219    216    222    226     1  180.0000771  2.0083200  2
    219    216    222    226     1  0.0000000  1.2552000  3
    222    216    219    239     1  0.0000000  0.6508444  3
    222    223    232    236     1  0.0000000  0.6508444  3
    222    226    229    235     1  0.0000000  0.6508444  3
    223    222    226    229     1  180.0000771  2.0083200  2
    223    222    226    229     1  0.0000000  1.2552000  3
    223    232    236    238     1  180.0000771  0.0000000  2
    223    232    236    539     1  0.0000000  0.2928800  2
    223    232    236    539     1  0.0000000  0.4184000  4
    226    222    223    232     1  180.0000771  2.0083200  2
    226    222    223    232     1  0.0000000  1.2552000  3
    226    229    235    237     1  180.0000771  0.0000000  2
    226    229    235    514     1  0.0000000  0.2928800  2
    226    229    235    514     1  0.0000000  0.4184000  4
    229    235    514    494     1  180.0000771  6.2760000  1
    229    235    514    494     1  0.0000000  0.0000000  2
    232    236    539    519     1  180.0000771  6.2760000  1
    232    236    539    519     1  0.0000000  0.0000000  2
    235    514    494    491     1  0.0000000  2.2175200  1
    235    514    494    491     1  0.0000000  0.0000000  2
    235    514    494    491     1  180.0000771  0.6276000  3
    235    514    494    491     1  180.0000771  2.0920000  4
    236    539    519    516     1  0.0000000  2.2175200  1
    236    539    519    516     1  0.0000000  0.0000000  2
    236    539    519    516     1  180.0000771  0.6276000  3
    236    539    519    516     1  180.0000771  2.0920000  4
    237    235    514    494     1  180.0000771  10.4600000  2
    238    236    539    519     1  180.0000771  10.4600000  2
    241    247    248    257     1  180.0000771  2.0083200  2
    241    247    248    257     1  0.0000000  1.2552000  3
    241    247    251    254     1  180.0000771  2.0083200  2
    241    247    251    254     1  0.0000000  1.2552000  3
    244    241    247    248     1  180.0000771  2.0083200  2
    244    241    247    248     1  0.0000000  1.2552000  3
    244    241    247    251     1  180.0000771  2.0083200  2
    244    241    247    251     1  0.0000000  1.2552000  3
    247    241    244    264     1  0.0000000  0.6508444  3
    247    248    257    261     1  0.0000000  0.6508444  3
    247    251    254    260     1  0.0000000  0.6508444  3
    248    247    251    254     1  180.0000771  2.0083200  2
    248    247    251    254     1  0.0000000  1.2552000  3
    248    257    261    263     1  180.0000771  0.0000000  2
    248    257    261    589     1  0.0000000  0.2928800  2
    248    257    261    589     1  0.0000000  0.4184000  4
    251    247    248    257     1  180.0000771  2.0083200  2
    251    247    248    257     1  0.0000000  1.2552000  3
    251    254    260    262     1  180.0000771  0.0000000  2
    251    254    260    564     1  0.0000000  0.2928800  2
    251    254    260    564     1  0.0000000  0.4184000  4
    254    260    564    544     1  180.0000771  6.2760000  1
    254    260    564    544     1  0.0000000  0.0000000  2
    257    261    589    569     1  180.0000771  6.2760000  1
    257    261    589    569     1  0.0000000  0.0000000  2
    260    564    544    541     1  0.0000000  2.2175200  1
    260    564    544    541     1  0.0000000  0.0000000  2
    260    564    544    541     1  180.0000771  0.6276000  3
    260    564    544    541     1  180.0000771  2.0920000  4
    261    589    569    566     1  0.0000000  2.2175200  1
    261    589    569    566     1  0.0000000  0.0000000  2
    261    589    569    566     1  180.0000771  0.6276000  3
    261    589    569    566     1  180.0000771  2.0920000  4
    262    260    564    544     1  180.0000771  10.4600000  2
    263    261    589    569     1  180.0000771  10.4600000  2
    266    272    273    282     1  180.0000771  2.0083200  2
    266    272    273    282     1  0.0000000  1.2552000  3
    266    272    276    279     1  180.0000771  2.0083200  2
    266    272    276    279     1  0.0000000  1.2552000  3
    269    266    272    273     1  180.0000771  2.0083200  2
    269    266    272    273     1  0.0000000  1.2552000  3
    269    266    272    276     1  180.0000771  2.0083200  2
    269    266    272    276     1  0.0000000  1.2552000  3
    272    266    269    289     1  0.0000000  0.6508444  3
    272    273    282    286     1  0.0000000  0.6508444  3
    272    276    279    285     1  0.0000000  0.6508444  3
    273    272    276    279     1  180.0000771  2.0083200  2
    273    272    276    279     1  0.0000000  1.2552000  3
    273    282    286    288     1  180.0000771  0.0000000  2
    273    282    286    639     1  0.0000000  0.2928800  2
    273    282    286    639     1  0.0000000  0.4184000  4
    276    272    273    282     1  180.0000771  2.0083200  2
    276    272    273    282     1  0.0000000  1.2552000  3
    276    279    285    287     1  180.0000771  0.0000000  2
    276    279    285    614     1  0.0000000  0.2928800  2
    276    279    285    614     1  0.0000000  0.4184000  4
    279    285    614    594     1  180.0000771  6.2760000  1
    279    285    614    594     1  0.0000000  0.0000000  2
    282    286    639    619     1  180.0000771  6.2760000  1
    282    286    639    619     1  0.0000000  0.0000000  2
    285    614    594    591     1  0.0000000  2.2175200  1
    285    614    594    591     1  0.0000000  0.0000000  2
    285    614    594    591     1  180.0000771  0.6276000  3
    285    614    594    591     1  180.0000771  2.0920000  4
    286    639    619    616     1  0.0000000  2.2175200  1
    286    639    619    616     1  0.0000000  0.0000000  2
    286    639    619    616     1  180.0000771  0.6276000  3
    286    639    619    616     1  180.0000771  2.0920000  4
    287    285    614    594     1  180.0000771  10.4600000  2
    288    286    639    619     1  180.0000771  10.4600000  2
    291    297    298    307     1  180.0000771  2.0083200  2
    291    297    298    307     1  0.0000000  1.2552000  3
    291    297    301    304     1  180.0000771  2.0083200  2
    291    297    301    304     1  0.0000000  1.2552000  3
    294    291    297    298     1  180.0000771  2.0083200  2
    294    291    297    298     1  0.0000000  1.2552000  3
    294    291    297    301     1  180.0000771  2.0083200  2
    294    291    297    301     1  0.0000000  1.2552000  3
    297    291    294    314     1  0.0000000  0.6508444  3
    297    298    307    311     1  0.0000000  0.6508444  3
    297    301    304    310     1  0.0000000  0.6508444  3
    298    297    301    304     1  180.0000771  2.0083200  2
    298    297    301    304     1  0.0000000  1.2552000  3
    298    307    311    313     1  180.0000771  0.0000000  2
    298    307    311    689     1  0.0000000  0.2928800  2
    298    307    311    689     1  0.0000000  0.4184000  4
    301    297    298    307     1  180.0000771  2.0083200  2
    301    297    298    307     1  0.0000000  1.2552000  3
    301    304    310    312     1  180.0000771  0.0000000  2
    301    304    310    664     1  0.0000000  0.2928800  2
    301    304    310    664     1  0.0000000  0.4184000  4
    304    310    664    644     1  180.0000771  6.2760000  1
    304    310    664    644     1  0.0000000  0.0000000  2
    307    311    689    669     1  180.0000771  6.2760000  1
    307    311    689    669     1  0.0000000  0.0000000  2
    310    664    644    641     1  0.0000000  2.2175200  1
    310    664    644    641     1  0.0000000  0.0000000  2
    310    664    644    641     1  180.0000771  0.6276000  3
    310    664    644    641     1  180.0000771  2.0920000  4
    311    689    669    666     1  0.0000000  2.2175200  1
    311    689    669    666     1  0.0000000  0.0000000  2
    311    689    669    666     1  180.0000771  0.6276000  3
    311    689    669    666     1  180.0000771  2.0920000  4
    312    310    664    644     1  180.0000771  10.4600000  2
    313    311    689    669     1  180.0000771  10.4600000  2
    316    322    323    332     1  180.0000771  2.0083200  2
    316    322    323    332     1  0.0000000  1.2552000  3
    316    322    326    329     1  180.0000771  2.0083200  2
    316    322    326    329     1  0.0000000  1.2552000  3
    319    316    322    323     1  180.0000771  2.0083200  2
    319    316    322    323     1  0.0000000  1.2552000  3
    319    316    322    326     1  180.0000771  2.0083200  2
    319    316    322    326     1  0.0000000  1.2552000  3
    322    316    319    339     1  0.0000000  0.6508444  3
    322    323    332    336     1  0.0000000  0.6508444  3
    322    326    329    335     1  0.0000000  0.6508444  3
    323    322    326    329     1  180.0000771  2.0083200  2
    323    322    326    329     1  0.0000000  1.2552000  3
    323    332    336    338     1  180.0000771  0.0000000  2
    323    332    336    739     1  0.0000000  0.2928800  2
    323    332    336    739     1  0.0000000  0.4184000  4
    326    322    323    332     1  180.0000771  2.0083200  2
    326    322    323    332     1  0.0000000  1.2552000  3
    326    329    335    337     1  180.0000771  0.0000000  2
    326    329    335    714     1  0.0000000  0.2928800  2
    326    329    335    714     1  0.0000000  0.4184000  4
    329    335    714    694     1  180.0000771  6.2760000  1
    329    335    714    694     1  0.0000000  0.0000000  2
    332    336    739    719     1  180.0000771  6.2760000  1
    332    336    739    719     1  0.0000000  0.0000000  2
    335    714    694    691     1  0.0000000  2.2175200  1
    335    714    694    691     1  0.0000000  0.0000000  2
    335    714    694    691     1  180.0000771  0.6276000  3
    335    714    694    691     1  180.0000771  2.0920000  4
    336    739    719    716     1  0.0000000  2.2175200  1
    336    739    719    716     1  0.0000000  0.0000000  2
    336    739    719    716     1  180.0000771  0.6276000  3
    336    739    719    716     1  180.0000771  2.0920000  4
    337    335    714    694     1  180.0000771  10.4600000  2
    338    336    739    719     1  180.0000771  10.4600000  2
    341    347    348    357     1  180.0000771  2.0083200  2
    341    347    348    357     1  0.0000000  1.2552000  3
    341    347    351    354     1  180.0000771  2.0083200  2
    341    347    351    354     1  0.0000000  1.2552000  3
    344    341    347    348     1  180.0000771  2.0083200  2
    344    341    347    348     1  0.0000000  1.2552000  3
    344    341    347    351     1  180.0000771  2.0083200  2
    344    341    347    351     1  0.0000000  1.2552000  3
    347    341    344    364     1  0.0000000  0.6508444  3
    347    348    357    361     1  0.0000000  0.6508444  3
    347    351    354    360     1  0.0000000  0.6508444  3
    348    347    351    354     1  180.0000771  2.0083200  2
    348    347    351    354     1  0.0000000  1.2552000  3
    348    357    361    363     1  180.0000771  0.0000000  2
    348    357    361    768     1  0.0000000  0.2928800  2
    348    357    361    768     1  0.0000000  0.4184000  4
    351    347    348    357     1  180.0000771  2.0083200  2
    351    347    348    357     1  0.0000000  1.2552000  3
    351    354    360    741     1  0.0000000  0.2928800  2
    351    354    360    741     1  0.0000000  0.4184000  4
    351    354    360    362     1  180.0000771  0.0000000  2
    354    360    741    743     1  180.0000771  6.2760000  1
    354    360    741    743     1  0.0000000  0.0000000  2
    357    361    768    770     1  180.0000771  6.2760000  1
    357    361    768    770     1  0.0000000  0.0000000  2
    360    741    743    745     1  0.0000000  2.2175200  1
    360    741    743    745     1  0.0000000  0.0000000  2
    360    741    743    745     1  180.0000771  0.6276000  3
    360    741    743    745     1  180.0000771  2.0920000  4
    361    768    770    772     1  0.0000000  2.2175200  1
    361    768    770    772     1  0.0000000  0.0000000  2
    361    768    770    772     1  180.0000771  0.6276000  3
    361    768    770    772     1  180.0000771  2.0920000  4
    362    360    741    743     1  180.0000771  10.4600000  2
    363    361    768    770     1  180.0000771  10.4600000  2
    366    372    373    382     1  180.0000771  2.0083200  2
    366    372    373    382     1  0.0000000  1.2552000  3
    366    372    376    379     1  180.0000771  2.0083200  2
    366    372    376    379     1  0.0000000  1.2552000  3
    369    366    372    373     1  180.0000771  2.0083200  2
    369    366    372    373     1  0.0000000  1.2552000  3
    369    366    372    376     1  180.0000771  2.0083200  2
    369    366    372    376     1  0.0000000  1.2552000  3
    372    366    369    389     1  0.0000000  0.6508444  3
    372    373    382    386     1  0.0000000  0.6508444  3
    372    376    379    385     1  0.0000000  0.6508444  3
    373    372    376    379     1  180.0000771  2.0083200  2
    373    372    376    379     1  0.0000000  1.2552000  3
    373    382    386    388     1  180.0000771  0.0000000  2
    373    382    386    822     1  0.0000000  0.2928800  2
    373    382    386    822     1  0.0000000  0.4184000  4
    376    372    373    382     1  180.0000771  2.0083200  2
    376    372    373    382     1  0.0000000  1.2552000  3
    376    379    385    795     1  0.0000000  0.2928800  2
    376    379    385    795     1  0.0000000  0.4184000  4
    376    379    385    387     1  180.0000771  0.0000000  2
    379    385    795    797     1  180.0000771  6.2760000  1
    379    385    795    797     1  0.0000000  0.0000000  2
    382    386    822    824     1  180.0000771  6.2760000  1
    382    386    822    824     1  0.0000000  0.0000000  2
    385    795    797    799     1  0.0000000  2.2175200  1
    385    795    797    799     1  0.0000000  0.0000000  2
    385    795    797    799     1  180.0000771  0.6276000  3
    385    795    797    799     1  180.0000771  2.0920000  4
    386    822    824    826     1  0.0000000  2.2175200  1
    386    822    824    826     1  0.0000000  0.0000000  2
    386    822    824    826     1  180.0000771  0.6276000  3
    386    822    824    826     1  180.0000771  2.0920000  4
    387    385    795    797     1  180.0000771  10.4600000  2
    388    386    822    824     1  180.0000771  10.4600000  2
    391    397    398    407     1  180.0000771  2.0083200  2
    391    397    398    407     1  0.0000000  1.2552000  3
    391    397    401    404     1  180.0000771  2.0083200  2
    391    397    401    404     1  0.0000000  1.2552000  3
    394    391    397    398     1  180.0000771  2.0083200  2
    394    391    397    398     1  0.0000000  1.2552000  3
    394    391    397    401     1  180.0000771  2.0083200  2
    394    391    397    401     1  0.0000000  1.2552000  3
    397    391    394    414     1  0.0000000  0.6508444  3
    397    398    407    411     1  0.0000000  0.6508444  3
    397    401    404    410     1  0.0000000  0.6508444  3
    398    397    401    404     1  180.0000771  2.0083200  2
    398    397    401    404     1  0.0000000  1.2552000  3
    398    407    411    413     1  180.0000771  0.0000000  2
    398    407    411    876     1  0.0000000  0.2928800  2
    398    407    411    876     1  0.0000000  0.4184000  4
    401    397    398    407     1  180.0000771  2.0083200  2
    401    397    398    407     1  0.0000000  1.2552000  3
    401    404    410    849     1  0.0000000  0.2928800  2
    401    404    410    849     1  0.0000000  0.4184000  4
    401    404    410    412     1  180.0000771  0.0000000  2
    404    410    849    851     1  180.0000771  6.2760000  1
    404    410    849    851     1  0.0000000  0.0000000  2
    407    411    876    878     1  180.0000771  6.2760000  1
    407    411    876    878     1  0.0000000  0.0000000  2
    410    849    851    853     1  0.0000000  2.2175200  1
    410    849    851    853     1  0.0000000  0.0000000  2
    410    849    851    853     1  180.0000771  0.6276000  3
    410    849    851    853     1  180.0000771  2.0920000  4
    411    876    878    880     1  0.0000000  2.2175200  1
    411    876    878    880     1  0.0000000  0.0000000  2
    411    876    878    880     1  180.0000771  0.6276000  3
    411    876    878    880     1  180.0000771  2.0920000  4
    412    410    849    851     1  180.0000771  10.4600000  2
    413    411    876    878     1  180.0000771  10.4600000  2
    416    422    423    432     1  180.0000771  2.0083200  2
    416    422    423    432     1  0.0000000  1.2552000  3
    416    422    426    429     1  180.0000771  2.0083200  2
    416    422    426    429     1  0.0000000  1.2552000  3
    419    416    422    423     1  180.0000771  2.0083200  2
    419    416    422    423     1  0.0000000  1.2552000  3
    419    416    422    426     1  180.0000771  2.0083200  2
    419    416    422    426     1  0.0000000  1.2552000  3
    422    416    419    439     1  0.0000000  0.6508444  3
    422    423    432    436     1  0.0000000  0.6508444  3
    422    426    429    435     1  0.0000000  0.6508444  3
    423    422    426    429     1  180.0000771  2.0083200  2
    423    422    426    429     1  0.0000000  1.2552000  3
    423    432    436    438     1  180.0000771  0.0000000  2
    423    432    436    930     1  0.0000000  0.2928800  2
    423    432    436    930     1  0.0000000  0.4184000  4
    426    422    423    432     1  180.0000771  2.0083200  2
    426    422    423    432     1  0.0000000  1.2552000  3
    426    429    435    903     1  0.0000000  0.2928800  2
    426    429    435    903     1  0.0000000  0.4184000  4
    426    429    435    437     1  180.0000771  0.0000000  2
    429    435    903    905     1  180.0000771  6.2760000  1
    429    435    903    905     1  0.0000000  0.0000000  2
    432    436    930    932     1  180.0000771  6.2760000  1
    432    436    930    932     1  0.0000000  0.0000000  2
    435    903    905    907     1  0.0000000  2.2175200  1
    435    903    905    907     1  0.0000000  0.0000000  2
    435    903    905    907     1  180.0000771  0.6276000  3
    435    903    905    907     1  180.0000771  2.0920000  4
    436    930    932    934     1  0.0000000  2.2175200  1
    436    930    932    934     1  0.0000000  0.0000000  2
    436    930    932    934     1  180.0000771  0.6276000  3
    436    930    932    934     1  180.0000771  2.0920000  4
    437    435    903    905     1  180.0000771  10.4600000  2
    438    436    930    932     1  180.0000771  10.4600000  2
    441    447    448    457     1  180.0000771  2.0083200  2
    441    447    448    457     1  0.0000000  1.2552000  3
    441    447    451    454     1  180.0000771  2.0083200  2
    441    447    451    454     1  0.0000000  1.2552000  3
    444    441    447    448     1  180.0000771  2.0083200  2
    444    441    447    448     1  0.0000000  1.2552000  3
    444    441    447    451     1  180.0000771  2.0083200  2
    444    441    447    451     1  0.0000000  1.2552000  3
    447    441    444    464     1  0.0000000  0.6508444  3
    447    448    457    461     1  0.0000000  0.6508444  3
    447    451    454    460     1  0.0000000  0.6508444  3
    448    447    451    454     1  180.0000771  2.0083200  2
    448    447    451    454     1  0.0000000  1.2552000  3
    448    457    461    463     1  180.0000771  0.0000000  2
    448    457    461    984     1  0.0000000  0.2928800  2
    448    457    461    984     1  0.0000000  0.4184000  4
    451    447    448    457     1  180.0000771  2.0083200  2
    451    447    448    457     1  0.0000000  1.2552000  3
    451    454    460    957     1  0.0000000  0.2928800  2
    451    454    460    957     1  0.0000000  0.4184000  4
    451    454    460    462     1  180.0000771  0.0000000  2
    454    460    957    959     1  180.0000771  6.2760000  1
    454    460    957    959     1  0.0000000  0.0000000  2
    457    461    984    986     1  180.0000771  6.2760000  1
    457    461    984    986     1  0.0000000  0.0000000  2
    460    957    959    961     1  0.0000000  2.2175200  1
    460    957    959    961     1  0.0000000  0.0000000  2
    460    957    959    961     1  180.0000771  0.6276000  3
    460    957    959    961     1  180.0000771  2.0920000  4
    461    984    986    988     1  0.0000000  2.2175200  1
    461    984    986    988     1  0.0000000  0.0000000  2
    461    984    986    988     1  180.0000771  0.6276000  3
    461    984    986    988     1  180.0000771  2.0920000  4
    462    460    957    959     1  180.0000771  10.4600000  2
    463    461    984    986     1  180.0000771  10.4600000  2
    466    472    473    482     1  180.0000771  2.0083200  2
    466    472    473    482     1  0.0000000  1.2552000  3
    466    472    476    479     1  180.0000771  2.0083200  2
    466    472    476    479     1  0.0000000  1.2552000  3
    469    466    472    473     1  180.0000771  2.0083200  2
    469    466    472    473     1  0.0000000  1.2552000  3
    469    466    472    476     1  180.0000771  2.0083200  2
    469    466    472    476     1  0.0000000  1.2552000  3
    472    466    469    489     1  0.0000000  0.6508444  3
    472    473    482    486     1  0.0000000  0.6508444  3
    472    476    479    485     1  0.0000000  0.6508444  3
    473    472    476    479     1  180.0000771  2.0083200  2
    473    472    476    479     1  0.0000000  1.2552000  3
    473    482    486    488     1  180.0000771  0.0000000  2
    473    482    486   1038     1  0.0000000  0.2928800  2
    473    482    486   1038     1  0.0000000  0.4184000  4
    476    472    473    482     1  180.0000771  2.0083200  2
    476    472    473    482     1  0.0000000  1.2552000  3
    476    479    485   1011     1  0.0000000  0.2928800  2
    476    479    485   1011     1  0.0000000  0.4184000  4
    476    479    485    487     1  180.0000771  0.0000000  2
    479    485   1011   1013     1  180.0000771  6.2760000  1
    479    485   1011   1013     1  0.0000000  0.0000000  2
    482    486   1038   1040     1  180.0000771  6.2760000  1
    482    486   1038   1040     1  0.0000000  0.0000000  2
    485   1011   1013   1015     1  0.0000000  2.2175200  1
    485   1011   1013   1015     1  0.0000000  0.0000000  2
    485   1011   1013   1015     1  180.0000771  0.6276000  3
    485   1011   1013   1015     1  180.0000771  2.0920000  4
    486   1038   1040   1042     1  0.0000000  2.2175200  1
    486   1038   1040   1042     1  0.0000000  0.0000000  2
    486   1038   1040   1042     1  180.0000771  0.6276000  3
    486   1038   1040   1042     1  180.0000771  2.0920000  4
    487    485   1011   1013     1  180.0000771  10.4600000  2
    488    486   1038   1040     1  180.0000771  10.4600000  2
    491    497    498    507     1  180.0000771  2.0083200  2
    491    497    498    507     1  0.0000000  1.2552000  3
    491    497    501    504     1  180.0000771  2.0083200  2
    491    497    501    504     1  0.0000000  1.2552000  3
    494    491    497    498     1  180.0000771  2.0083200  2
    494    491    497    498     1  0.0000000  1.2552000  3
    494    491    497    501     1  180.0000771  2.0083200  2
    494    491    497    501     1  0.0000000  1.2552000  3
    497    491    494    514     1  0.0000000  0.6508444  3
    497    498    507    511     1  0.0000000  0.6508444  3
    497    501    504    510     1  0.0000000  0.6508444  3
    498    497    501    504     1  180.0000771  2.0083200  2
    498    497    501    504     1  0.0000000  1.2552000  3
    498    507    511    513     1  180.0000771  0.0000000  2
    498    507    511   1092     1  0.0000000  0.2928800  2
    498    507    511   1092     1  0.0000000  0.4184000  4
    501    497    498    507     1  180.0000771  2.0083200  2
    501    497    498    507     1  0.0000000  1.2552000  3
    501    504    510   1065     1  0.0000000  0.2928800  2
    501    504    510   1065     1  0.0000000  0.4184000  4
    501    504    510    512     1  180.0000771  0.0000000  2
    504    510   1065   1067     1  180.0000771  6.2760000  1
    504    510   1065   1067     1  0.0000000  0.0000000  2
    507    511   1092   1094     1  180.0000771  6.2760000  1
    507    511   1092   1094     1  0.0000000  0.0000000  2
    510   1065   1067   1069     1  0.0000000  2.2175200  1
    510   1065   1067   1069     1  0.0000000  0.0000000  2
    510   1065   1067   1069     1  180.0000771  0.6276000  3
    510   1065   1067   1069     1  180.0000771  2.0920000  4
    511   1092   1094   1096     1  0.0000000  2.2175200  1
    511   1092   1094   1096     1  0.0000000  0.0000000  2
    511   1092   1094   1096     1  180.0000771  0.6276000  3
    511   1092   1094   1096     1  180.0000771  2.0920000  4
    512    510   1065   1067     1  180.0000771  10.4600000  2
    513    511   1092   1094     1  180.0000771  10.4600000  2
    516    522    523    532     1  180.0000771  2.0083200  2
    516    522    523    532     1  0.0000000  1.2552000  3
    516    522    526    529     1  180.0000771  2.0083200  2
    516    522    526    529     1  0.0000000  1.2552000  3
    519    516    522    523     1  180.0000771  2.0083200  2
    519    516    522    523     1  0.0000000  1.2552000  3
    519    516    522    526     1  180.0000771  2.0083200  2
    519    516    522    526     1  0.0000000  1.2552000  3
    522    516    519    539     1  0.0000000  0.6508444  3
    522    523    532    536     1  0.0000000  0.6508444  3
    522    526    529    535     1  0.0000000  0.6508444  3
    523    522    526    529     1  180.0000771  2.0083200  2
    523    522    526    529     1  0.0000000  1.2552000  3
    523    532    536    538     1  180.0000771  0.0000000  2
    523    532    536   1146     1  0.0000000  0.2928800  2
    523    532    536   1146     1  0.0000000  0.4184000  4
    526    522    523    532     1  180.0000771  2.0083200  2
    526    522    523    532     1  0.0000000  1.2552000  3
    526    529    535   1119     1  0.0000000  0.2928800  2
    526    529    535   1119     1  0.0000000  0.4184000  4
    526    529    535    537     1  180.0000771  0.0000000  2
    529    535   1119   1121     1  180.0000771  6.2760000  1
    529    535   1119   1121     1  0.0000000  0.0000000  2
    532    536   1146   1148     1  180.0000771  6.2760000  1
    532    536   1146   1148     1  0.0000000  0.0000000  2
    535   1119   1121   1123     1  0.0000000  2.2175200  1
    535   1119   1121   1123     1  0.0000000  0.0000000  2
    535   1119   1121   1123     1  180.0000771  0.6276000  3
    535   1119   1121   1123     1  180.0000771  2.0920000  4
    536   1146   1148   1150     1  0.0000000  2.2175200  1
    536   1146   1148   1150     1  0.0000000  0.0000000  2
    536   1146   1148   1150     1  180.0000771  0.6276000  3
    536   1146   1148   1150     1  180.0000771  2.0920000  4
    537    535   1119   1121     1  180.0000771  10.4600000  2
    538    536   1146   1148     1  180.0000771  10.4600000  2
    541    547    548    557     1  180.0000771  2.0083200  2
    541    547    548    557     1  0.0000000  1.2552000  3
    541    547    551    554     1  180.0000771  2.0083200  2
    541    547    551    554     1  0.0000000  1.2552000  3
    544    541    547    548     1  180.0000771  2.0083200  2
    544    541    547    548     1  0.0000000  1.2552000  3
    544    541    547    551     1  180.0000771  2.0083200  2
    544    541    547    551     1  0.0000000  1.2552000  3
    547    541    544    564     1  0.0000000  0.6508444  3
    547    548    557    561     1  0.0000000  0.6508444  3
    547    551    554    560     1  0.0000000  0.6508444  3
    548    547    551    554     1  180.0000771  2.0083200  2
    548    547    551    554     1  0.0000000  1.2552000  3
    548    557    561    563     1  180.0000771  0.0000000  2
    548    557    561   1200     1  0.0000000  0.2928800  2
    548    557    561   1200     1  0.0000000  0.4184000  4
    551    547    548    557     1  180.0000771  2.0083200  2
    551    547    548    557     1  0.0000000  1.2552000  3
    551    554    560   1173     1  0.0000000  0.2928800  2
    551    554    560   1173     1  0.0000000  0.4184000  4
    551    554    560    562     1  180.0000771  0.0000000  2
    554    560   1173   1175     1  180.0000771  6.2760000  1
    554    560   1173   1175     1  0.0000000  0.0000000  2
    557    561   1200   1202     1  180.0000771  6.2760000  1
    557    561   1200   1202     1  0.0000000  0.0000000  2
    560   1173   1175   1177     1  0.0000000  2.2175200  1
    560   1173   1175   1177     1  0.0000000  0.0000000  2
    560   1173   1175   1177     1  180.0000771  0.6276000  3
    560   1173   1175   1177     1  180.0000771  2.0920000  4
    561   1200   1202   1204     1  0.0000000  2.2175200  1
    561   1200   1202   1204     1  0.0000000  0.0000000  2
    561   1200   1202   1204     1  180.0000771  0.6276000  3
    561   1200   1202   1204     1  180.0000771  2.0920000  4
    562    560   1173   1175     1  180.0000771  10.4600000  2
    563    561   1200   1202     1  180.0000771  10.4600000  2
    566    572    573    582     1  180.0000771  2.0083200  2
    566    572    573    582     1  0.0000000  1.2552000  3
    566    572    576    579     1  180.0000771  2.0083200  2
    566    572    576    579     1  0.0000000  1.2552000  3
    569    566    572    573     1  180.0000771  2.0083200  2
    569    566    572    573     1  0.0000000  1.2552000  3
    569    566    572    576     1  180.0000771  2.0083200  2
    569    566    572    576     1  0.0000000  1.2552000  3
    572    566    569    589     1  0.0000000  0.6508444  3
    572    573    582    586     1  0.0000000  0.6508444  3
    572    576    579    585     1  0.0000000  0.6508444  3
    573    572    576    579     1  180.0000771  2.0083200  2
    573    572    576    579     1  0.0000000  1.2552000  3
    573    582    586    588     1  180.0000771  0.0000000  2
    573    582    586   1254     1  0.0000000  0.2928800  2
    573    582    586   1254     1  0.0000000  0.4184000  4
    576    572    573    582     1  180.0000771  2.0083200  2
    576    572    573    582     1  0.0000000  1.2552000  3
    576    579    585   1227     1  0.0000000  0.2928800  2
    576    579    585   1227     1  0.0000000  0.4184000  4
    576    579    585    587     1  180.0000771  0.0000000  2
    579    585   1227   1229     1  180.0000771  6.2760000  1
    579    585   1227   1229     1  0.0000000  0.0000000  2
    582    586   1254   1256     1  180.0000771  6.2760000  1
    582    586   1254   1256     1  0.0000000  0.0000000  2
    585   1227   1229   1231     1  0.0000000  2.2175200  1
    585   1227   1229   1231     1  0.0000000  0.0000000  2
    585   1227   1229   1231     1  180.0000771  0.6276000  3
    585   1227   1229   1231     1  180.0000771  2.0920000  4
    586   1254   1256   1258     1  0.0000000  2.2175200  1
    586   1254   1256   1258     1  0.0000000  0.0000000  2
    586   1254   1256   1258     1  180.0000771  0.6276000  3
    586   1254   1256   1258     1  180.0000771  2.0920000  4
    587    585   1227   1229     1  180.0000771  10.4600000  2
    588    586   1254   1256     1  180.0000771  10.4600000  2
    591    597    598    607     1  180.0000771  2.0083200  2
    591    597    598    607     1  0.0000000  1.2552000  3
    591    597    601    604     1  180.0000771  2.0083200  2
    591    597    601    604     1  0.0000000  1.2552000  3
    594    591    597    598     1  180.0000771  2.0083200  2
    594    591    597    598     1  0.0000000  1.2552000  3
    594    591    597    601     1  180.0000771  2.0083200  2
    594    591    597    601     1  0.0000000  1.2552000  3
    597    591    594    614     1  0.0000000  0.6508444  3
    597    598    607    611     1  0.0000000  0.6508444  3
    597    601    604    610     1  0.0000000  0.6508444  3
    598    597    601    604     1  180.0000771  2.0083200  2
    598    597    601    604     1  0.0000000  1.2552000  3
    598    607    611    613     1  180.0000771  0.0000000  2
    598    607    611   1308     1  0.0000000  0.2928800  2
    598    607    611   1308     1  0.0000000  0.4184000  4
    601    597    598    607     1  180.0000771  2.0083200  2
    601    597    598    607     1  0.0000000  1.2552000  3
    601    604    610   1281     1  0.0000000  0.2928800  2
    601    604    610   1281     1  0.0000000  0.4184000  4
    601    604    610    612     1  180.0000771  0.0000000  2
    604    610   1281   1283     1  180.0000771  6.2760000  1
    604    610   1281   1283     1  0.0000000  0.0000000  2
    607    611   1308   1310     1  180.0000771  6.2760000  1
    607    611   1308   1310     1  0.0000000  0.0000000  2
    610   1281   1283   1285     1  0.0000000  2.2175200  1
    610   1281   1283   1285     1  0.0000000  0.0000000  2
    610   1281   1283   1285     1  180.0000771  0.6276000  3
    610   1281   1283   1285     1  180.0000771  2.0920000  4
    611   1308   1310   1312     1  0.0000000  2.2175200  1
    611   1308   1310   1312     1  0.0000000  0.0000000  2
    611   1308   1310   1312     1  180.0000771  0.6276000  3
    611   1308   1310   1312     1  180.0000771  2.0920000  4
    612    610   1281   1283     1  180.0000771  10.4600000  2
    613    611   1308   1310     1  180.0000771  10.4600000  2
    616    622    623    632     1  180.0000771  2.0083200  2
    616    622    623    632     1  0.0000000  1.2552000  3
    616    622    626    629     1  180.0000771  2.0083200  2
    616    622    626    629     1  0.0000000  1.2552000  3
    619    616    622    623     1  180.0000771  2.0083200  2
    619    616    622    623     1  0.0000000  1.2552000  3
    619    616    622    626     1  180.0000771  2.0083200  2
    619    616    622    626     1  0.0000000  1.2552000  3
    622    616    619    639     1  0.0000000  0.6508444  3
    622    623    632    636     1  0.0000000  0.6508444  3
    622    626    629    635     1  0.0000000  0.6508444  3
    623    622    626    629     1  180.0000771  2.0083200  2
    623    622    626    629     1  0.0000000  1.2552000  3
    623    632    636    638     1  180.0000771  0.0000000  2
    623    632    636   1362     1  0.0000000  0.2928800  2
    623    632    636   1362     1  0.0000000  0.4184000  4
    626    622    623    632     1  180.0000771  2.0083200  2
    626    622    623    632     1  0.0000000  1.2552000  3
    626    629    635   1335     1  0.0000000  0.2928800  2
    626    629    635   1335     1  0.0000000  0.4184000  4
    626    629    635    637     1  180.0000771  0.0000000  2
    629    635   1335   1337     1  180.0000771  6.2760000  1
    629    635   1335   1337     1  0.0000000  0.0000000  2
    632    636   1362   1364     1  180.0000771  6.2760000  1
    632    636   1362   1364     1  0.0000000  0.0000000  2
    635   1335   1337   1339     1  0.0000000  2.2175200  1
    635   1335   1337   1339     1  0.0000000  0.0000000  2
    635   1335   1337   1339     1  180.0000771  0.6276000  3
    635   1335   1337   1339     1  180.0000771  2.0920000  4
    636   1362   1364   1366     1  0.0000000  2.2175200  1
    636   1362   1364   1366     1  0.0000000  0.0000000  2
    636   1362   1364   1366     1  180.0000771  0.6276000  3
    636   1362   1364   1366     1  180.0000771  2.0920000  4
    637    635   1335   1337     1  180.0000771  10.4600000  2
    638    636   1362   1364     1  180.0000771  10.4600000  2
    641    647    648    657     1  180.0000771  2.0083200  2
    641    647    648    657     1  0.0000000  1.2552000  3
    641    647    651    654     1  180.0000771  2.0083200  2
    641    647    651    654     1  0.0000000  1.2552000  3
    644    641    647    648     1  180.0000771  2.0083200  2
    644    641    647    648     1  0.0000000  1.2552000  3
    644    641    647    651     1  180.0000771  2.0083200  2
    644    641    647    651     1  0.0000000  1.2552000  3
    647    641    644    664     1  0.0000000  0.6508444  3
    647    648    657    661     1  0.0000000  0.6508444  3
    647    651    654    660     1  0.0000000  0.6508444  3
    648    647    651    654     1  180.0000771  2.0083200  2
    648    647    651    654     1  0.0000000  1.2552000  3
    648    657    661    663     1  180.0000771  0.0000000  2
    648    657    661   1416     1  0.0000000  0.2928800  2
    648    657    661   1416     1  0.0000000  0.4184000  4
    651    647    648    657     1  180.0000771  2.0083200  2
    651    647    648    657     1  0.0000000  1.2552000  3
    651    654    660   1389     1  0.0000000  0.2928800  2
    651    654    660   1389     1  0.0000000  0.4184000  4
    651    654    660    662     1  180.0000771  0.0000000  2
    654    660   1389   1391     1  180.0000771  6.2760000  1
    654    660   1389   1391     1  0.0000000  0.0000000  2
    657    661   1416   1418     1  180.0000771  6.2760000  1
    657    661   1416   1418     1  0.0000000  0.0000000  2
    660   1389   1391   1393     1  0.0000000  2.2175200  1
    660   1389   1391   1393     1  0.0000000  0.0000000  2
    660   1389   1391   1393     1  180.0000771  0.6276000  3
    660   1389   1391   1393     1  180.0000771  2.0920000  4
    661   1416   1418   1420     1  0.0000000  2.2175200  1
    661   1416   1418   1420     1  0.0000000  0.0000000  2
    661   1416   1418   1420     1  180.0000771  0.6276000  3
    661   1416   1418   1420     1  180.0000771  2.0920000  4
    662    660   1389   1391     1  180.0000771  10.4600000  2
    663    661   1416   1418     1  180.0000771  10.4600000  2
    666    672    673    682     1  180.0000771  2.0083200  2
    666    672    673    682     1  0.0000000  1.2552000  3
    666    672    676    679     1  180.0000771  2.0083200  2
    666    672    676    679     1  0.0000000  1.2552000  3
    669    666    672    673     1  180.0000771  2.0083200  2
    669    666    672    673     1  0.0000000  1.2552000  3
    669    666    672    676     1  180.0000771  2.0083200  2
    669    666    672    676     1  0.0000000  1.2552000  3
    672    666    669    689     1  0.0000000  0.6508444  3
    672    673    682    686     1  0.0000000  0.6508444  3
    672    676    679    685     1  0.0000000  0.6508444  3
    673    672    676    679     1  180.0000771  2.0083200  2
    673    672    676    679     1  0.0000000  1.2552000  3
    673    682    686    688     1  180.0000771  0.0000000  2
    673    682    686   1470     1  0.0000000  0.2928800  2
    673    682    686   1470     1  0.0000000  0.4184000  4
    676    672    673    682     1  180.0000771  2.0083200  2
    676    672    673    682     1  0.0000000  1.2552000  3
    676    679    685   1443     1  0.0000000  0.2928800  2
    676    679    685   1443     1  0.0000000  0.4184000  4
    676    679    685    687     1  180.0000771  0.0000000  2
    679    685   1443   1445     1  180.0000771  6.2760000  1
    679    685   1443   1445     1  0.0000000  0.0000000  2
    682    686   1470   1472     1  180.0000771  6.2760000  1
    682    686   1470   1472     1  0.0000000  0.0000000  2
    685   1443   1445   1447     1  0.0000000  2.2175200  1
    685   1443   1445   1447     1  0.0000000  0.0000000  2
    685   1443   1445   1447     1  180.0000771  0.6276000  3
    685   1443   1445   1447     1  180.0000771  2.0920000  4
    686   1470   1472   1474     1  0.0000000  2.2175200  1
    686   1470   1472   1474     1  0.0000000  0.0000000  2
    686   1470   1472   1474     1  180.0000771  0.6276000  3
    686   1470   1472   1474     1  180.0000771  2.0920000  4
    687    685   1443   1445     1  180.0000771  10.4600000  2
    688    686   1470   1472     1  180.0000771  10.4600000  2
    691    697    698    707     1  180.0000771  2.0083200  2
    691    697    698    707     1  0.0000000  1.2552000  3
    691    697    701    704     1  180.0000771  2.0083200  2
    691    697    701    704     1  0.0000000  1.2552000  3
    694    691    697    698     1  180.0000771  2.0083200  2
    694    691    697    698     1  0.0000000  1.2552000  3
    694    691    697    701     1  180.0000771  2.0083200  2
    694    691    697    701     1  0.0000000  1.2552000  3
    697    691    694    714     1  0.0000000  0.6508444  3
    697    698    707    711     1  0.0000000  0.6508444  3
    697    701    704    710     1  0.0000000  0.6508444  3
    698    697    701    704     1  180.0000771  2.0083200  2
    698    697    701    704     1  0.0000000  1.2552000  3
    698    707    711    713     1  180.0000771  0.0000000  2
    698    707    711   1524     1  0.0000000  0.2928800  2
    698    707    711   1524     1  0.0000000  0.4184000  4
    701    697    698    707     1  180.0000771  2.0083200  2
    701    697    698    707     1  0.0000000  1.2552000  3
    701    704    710   1497     1  0.0000000  0.2928800  2
    701    704    710   1497     1  0.0000000  0.4184000  4
    701    704    710    712     1  180.0000771  0.0000000  2
    704    710   1497   1499     1  180.0000771  6.2760000  1
    704    710   1497   1499     1  0.0000000  0.0000000  2
    707    711   1524   1526     1  180.0000771  6.2760000  1
    707    711   1524   1526     1  0.0000000  0.0000000  2
    710   1497   1499   1501     1  0.0000000  2.2175200  1
    710   1497   1499   1501     1  0.0000000  0.0000000  2
    710   1497   1499   1501     1  180.0000771  0.6276000  3
    710   1497   1499   1501     1  180.0000771  2.0920000  4
    711   1524   1526   1528     1  0.0000000  2.2175200  1
    711   1524   1526   1528     1  0.0000000  0.0000000  2
    711   1524   1526   1528     1  180.0000771  0.6276000  3
    711   1524   1526   1528     1  180.0000771  2.0920000  4
    712    710   1497   1499     1  180.0000771  10.4600000  2
    713    711   1524   1526     1  180.0000771  10.4600000  2
    716    722    723    732     1  180.0000771  2.0083200  2
    716    722    723    732     1  0.0000000  1.2552000  3
    716    722    726    729     1  180.0000771  2.0083200  2
    716    722    726    729     1  0.0000000  1.2552000  3
    719    716    722    723     1  180.0000771  2.0083200  2
    719    716    722    723     1  0.0000000  1.2552000  3
    719    716    722    726     1  180.0000771  2.0083200  2
    719    716    722    726     1  0.0000000  1.2552000  3
    722    716    719    739     1  0.0000000  0.6508444  3
    722    723    732    736     1  0.0000000  0.6508444  3
    722    726    729    735     1  0.0000000  0.6508444  3
    723    722    726    729     1  180.0000771  2.0083200  2
    723    722    726    729     1  0.0000000  1.2552000  3
    723    732    736   1578     1  0.0000000  0.2928800  2
    723    732    736   1578     1  0.0000000  0.4184000  4
    723    732    736    738     1  180.0000771  0.0000000  2
    726    722    723    732     1  180.0000771  2.0083200  2
    726    722    723    732     1  0.0000000  1.2552000  3
    726    729    735   1551     1  0.0000000  0.2928800  2
    726    729    735   1551     1  0.0000000  0.4184000  4
    726    729    735    737     1  180.0000771  0.0000000  2
    729    735   1551   1553     1  180.0000771  6.2760000  1
    729    735   1551   1553     1  0.0000000  0.0000000  2
    732    736   1578   1580     1  180.0000771  6.2760000  1
    732    736   1578   1580     1  0.0000000  0.0000000  2
    735   1551   1553   1555     1  0.0000000  2.2175200  1
    735   1551   1553   1555     1  0.0000000  0.0000000  2
    735   1551   1553   1555     1  180.0000771  0.6276000  3
    735   1551   1553   1555     1  180.0000771  2.0920000  4
    736   1578   1580   1582     1  0.0000000  2.2175200  1
    736   1578   1580   1582     1  0.0000000  0.0000000  2
    736   1578   1580   1582     1  180.0000771  0.6276000  3
    736   1578   1580   1582     1  180.0000771  2.0920000  4
    737    735   1551   1553     1  180.0000771  10.4600000  2
    738    736   1578   1580     1  180.0000771  10.4600000  2
    741    743    745    749     1  0.0000000  0.6508444  3
    743    745    749    750     1  180.0000771  2.0083200  2
    743    745    749    750     1  0.0000000  1.2552000  3
    743    745    749    751     1  180.0000771  2.0083200  2
    743    745    749    751     1  0.0000000  1.2552000  3
    745    749    750    762     1  180.0000771  2.0083200  2
    745    749    750    762     1  0.0000000  1.2552000  3
    745    749    751    753     1  180.0000771  2.0083200  2
    745    749    751    753     1  0.0000000  1.2552000  3
    749    750    762    765     1  0.0000000  0.6508444  3
    749    751    753    757     1  0.0000000  0.6508444  3
    750    749    751    753     1  180.0000771  2.0083200  2
    750    749    751    753     1  0.0000000  1.2552000  3
    750    762    765    766     1  180.0000771  0.0000000  2
    750    762    765    767     1  180.0000771  0.0000000  2
    751    749    750    762     1  180.0000771  2.0083200  2
    751    749    750    762     1  0.0000000  1.2552000  3
    751    753    757    758     1  180.0000771  0.0000000  2
    751    753    757    759     1  180.0000771  0.0000000  2
    768    770    772    776     1  0.0000000  0.6508444  3
    770    772    776    777     1  180.0000771  2.0083200  2
    770    772    776    777     1  0.0000000  1.2552000  3
    770    772    776    778     1  180.0000771  2.0083200  2
    770    772    776    778     1  0.0000000  1.2552000  3
    772    776    777    789     1  180.0000771  2.0083200  2
    772    776    777    789     1  0.0000000  1.2552000  3
    772    776    778    780     1  180.0000771  2.0083200  2
    772    776    778    780     1  0.0000000  1.2552000  3
    776    777    789    792     1  0.0000000  0.6508444  3
    776    778    780    784     1  0.0000000  0.6508444  3
    777    789    792    793     1  180.0000771  0.0000000  2
    777    789    792    794     1  180.0000771  0.0000000  2
    777    776    778    780     1  180.0000771  2.0083200  2
    777    776    778    780     1  0.0000000  1.2552000  3
    778    780    784    785     1  180.0000771  0.0000000  2
    778    780    784    786     1  180.0000771  0.0000000  2
    778    776    777    789     1  180.0000771  2.0083200  2
    778    776    777    789     1  0.0000000  1.2552000  3
    795    797    799    803     1  0.0000000  0.6508444  3
    797    799    803    804     1  180.0000771  2.0083200  2
    797    799    803    804     1  0.0000000  1.2552000  3
    797    799    803    805     1  180.0000771  2.0083200  2
    797    799    803    805     1  0.0000000  1.2552000  3
    799    803    804    816     1  180.0000771  2.0083200  2
    799    803    804    816     1  0.0000000  1.2552000  3
    799    803    805    807     1  180.0000771  2.0083200  2
    799    803    805    807     1  0.0000000  1.2552000  3
    803    804    816    819     1  0.0000000  0.6508444  3
    803    805    807    811     1  0.0000000  0.6508444  3
    804    803    805    807     1  180.0000771  2.0083200  2
    804    803    805    807     1  0.0000000  1.2552000  3
    804    816    819    820     1  180.0000771  0.0000000  2
    804    816    819    821     1  180.0000771  0.0000000  2
    805    803    804    816     1  180.0000771  2.0083200  2
    805    803    804    816     1  0.0000000  1.2552000  3
    805    807    811    812     1  180.0000771  0.0000000  2
    805    807    811    813     1  180.0000771  0.0000000  2
    822    824    826    830     1  0.0000000  0.6508444  3
    824    826    830    831     1  180.0000771  2.0083200  2
    824    826    830    831     1  0.0000000  1.2552000  3
    824    826    830    832     1  180.0000771  2.0083200  2
    824    826    830    832     1  0.0000000  1.2552000  3
    826    830    831    843     1  180.0000771  2.0083200  2
    826    830    831    843     1  0.0000000  1.2552000  3
    826    830    832    834     1  180.0000771  2.0083200  2
    826    830    832    834     1  0.0000000  1.2552000  3
    830    831    843    846     1  0.0000000  0.6508444  3
    830    832    834    838     1  0.0000000  0.6508444  3
    831    843    846    847     1  180.0000771  0.0000000  2
    831    843    846    848     1  180.0000771  0.0000000  2
    831    830    832    834     1  180.0000771  2.0083200  2
    831    830    832    834     1  0.0000000  1.2552000  3
    832    834    838    839     1  180.0000771  0.0000000  2
    832    834    838    840     1  180.0000771  0.0000000  2
    832    830    831    843     1  180.0000771  2.0083200  2
    832    830    831    843     1  0.0000000  1.2552000  3
    849    851    853    857     1  0.0000000  0.6508444  3
    851    853    857    858     1  180.0000771  2.0083200  2
    851    853    857    858     1  0.0000000  1.2552000  3
    851    853    857    859     1  180.0000771  2.0083200  2
    851    853    857    859     1  0.0000000  1.2552000  3
    853    857    858    870     1  180.0000771  2.0083200  2
    853    857    858    870     1  0.0000000  1.2552000  3
    853    857    859    861     1  180.0000771  2.0083200  2
    853    857    859    861     1  0.0000000  1.2552000  3
    857    858    870    873     1  0.0000000  0.6508444  3
    857    859    861    865     1  0.0000000  0.6508444  3
    858    857    859    861     1  180.0000771  2.0083200  2
    858    857    859    861     1  0.0000000  1.2552000  3
    858    870    873    874     1  180.0000771  0.0000000  2
    858    870    873    875     1  180.0000771  0.0000000  2
    859    857    858    870     1  180.0000771  2.0083200  2
    859    857    858    870     1  0.0000000  1.2552000  3
    859    861    865    866     1  180.0000771  0.0000000  2
    859    861    865    867     1  180.0000771  0.0000000  2
    876    878    880    884     1  0.0000000  0.6508444  3
    878    880    884    885     1  180.0000771  2.0083200  2
    878    880    884    885     1  0.0000000  1.2552000  3
    878    880    884    886     1  180.0000771  2.0083200  2
    878    880    884    886     1  0.0000000  1.2552000  3
    880    884    885    897     1  180.0000771  2.0083200  2
    880    884    885    897     1  0.0000000  1.2552000  3
    880    884    886    888     1  180.0000771  2.0083200  2
    880    884    886    888     1  0.0000000  1.2552000  3
    884    885    897    900     1  0.0000000  0.6508444  3
    884    886    888    892     1  0.0000000  0.6508444  3
    885    897    900    901     1  180.0000771  0.0000000  2
    885    897    900    902     1  180.0000771  0.0000000  2
    885    884    886    888     1  180.0000771  2.0083200  2
    885    884    886    888     1  0.0000000  1.2552000  3
    886    888    892    893     1  180.0000771  0.0000000  2
    886    888    892    894     1  180.0000771  0.0000000  2
    886    884    885    897     1  180.0000771  2.0083200  2
    886    884    885    897     1  0.0000000  1.2552000  3
    903    905    907    911     1  0.0000000  0.6508444  3
    905    907    911    912     1  180.0000771  2.0083200  2
    905    907    911    912     1  0.0000000  1.2552000  3
    905    907    911    913     1  180.0000771  2.0083200  2
    905    907    911    913     1  0.0000000  1.2552000  3
    907    911    912    924     1  180.0000771  2.0083200  2
    907    911    912    924     1  0.0000000  1.2552000  3
    907    911    913    915     1  180.0000771  2.0083200  2
    907    911    913    915     1  0.0000000  1.2552000  3
    911    912    924    927     1  0.0000000  0.6508444  3
    911    913    915    919     1  0.0000000  0.6508444  3
    912    911    913    915     1  180.0000771  2.0083200  2
    912    911    913    915     1  0.0000000  1.2552000  3
    912    924    927    928     1  180.0000771  0.0000000  2
    912    924    927    929     1  180.0000771  0.0000000  2
    913    911    912    924     1  180.0000771  2.0083200  2
    913    911    912    924     1  0.0000000  1.2552000  3
    913    915    919    920     1  180.0000771  0.0000000  2
    913    915    919    921     1  180.0000771  0.0000000  2
    930    932    934    938     1  0.0000000  0.6508444  3
    932    934    938    939     1  180.0000771  2.0083200  2
    932    934    938    939     1  0.0000000  1.2552000  3
    932    934    938    940     1  180.0000771  2.0083200  2
    932    934    938    940     1  0.0000000  1.2552000  3
    934    938    939    951     1  180.0000771  2.0083200  2
    934    938    939    951     1  0.0000000  1.2552000  3
    934    938    940    942     1  180.0000771  2.0083200  2
    934    938    940    942     1  0.0000000  1.2552000  3
    938    939    951    954     1  0.0000000  0.6508444  3
    938    940    942    946     1  0.0000000  0.6508444  3
    939    951    954    955     1  180.0000771  0.0000000  2
    939    951    954    956     1  180.0000771  0.0000000  2
    939    938    940    942     1  180.0000771  2.0083200  2
    939    938    940    942     1  0.0000000  1.2552000  3
    940    942    946    947     1  180.0000771  0.0000000  2
    940    942    946    948     1  180.0000771  0.0000000  2
    940    938    939    951     1  180.0000771  2.0083200  2
    940    938    939    951     1  0.0000000  1.2552000  3
    957    959    961    965     1  0.0000000  0.6508444  3
    959    961    965    966     1  180.0000771  2.0083200  2
    959    961    965    966     1  0.0000000  1.2552000  3
    959    961    965    967     1  180.0000771  2.0083200  2
    959    961    965    967     1  0.0000000  1.2552000  3
    961    965    966    978     1  180.0000771  2.0083200  2
    961    965    966    978     1  0.0000000  1.2552000  3
    961    965    967    969     1  180.0000771  2.0083200  2
    961    965    967    969     1  0.0000000  1.2552000  3
    965    966    978    981     1  0.0000000  0.6508444  3
    965    967    969    973     1  0.0000000  0.6508444  3
    966    965    967    969     1  180.0000771  2.0083200  2
    966    965    967    969     1  0.0000000  1.2552000  3
    966    978    981    982     1  180.0000771  0.0000000  2
    966    978    981    983     1  180.0000771  0.0000000  2
    967    965    966    978     1  180.0000771  2.0083200  2
    967    965    966    978     1  0.0000000  1.2552000  3
    967    969    973    974     1  180.0000771  0.0000000  2
    967    969    973    975     1  180.0000771  0.0000000  2
    984    986    988    992     1  0.0000000  0.6508444  3
    986    988    992    993     1  180.0000771  2.0083200  2
    986    988    992    993     1  0.0000000  1.2552000  3
    986    988    992    994     1  180.0000771  2.0083200  2
    986    988    992    994     1  0.0000000  1.2552000  3
    988    992    993   1005     1  180.0000771  2.0083200  2
    988    992    993   1005     1  0.0000000  1.2552000  3
    988    992    994    996     1  180.0000771  2.0083200  2
    988    992    994    996     1  0.0000000  1.2552000  3
    992    993   1005   1008     1  0.0000000  0.6508444  3
    992    994    996   1000     1  0.0000000  0.6508444  3
    993   1005   1008   1009     1  180.0000771  0.0000000  2
    993   1005   1008   1010     1  180.0000771  0.0000000  2
    993    992    994    996     1  180.0000771  2.0083200  2
    993    992    994    996     1  0.0000000  1.2552000  3
    994    996   1000   1001     1  180.0000771  0.0000000  2
    994    996   1000   1002     1  180.0000771  0.0000000  2
    994    992    993   1005     1  180.0000771  2.0083200  2
    994    992    993   1005     1  0.0000000  1.2552000  3
   1011   1013   1015   1019     1  0.0000000  0.6508444  3
   1013   1015   1019   1020     1  180.0000771  2.0083200  2
   1013   1015   1019   1020     1  0.0000000  1.2552000  3
   1013   1015   1019   1021     1  180.0000771  2.0083200  2
   1013   1015   1019   1021     1  0.0000000  1.2552000  3
   1015   1019   1020   1032     1  180.0000771  2.0083200  2
   1015   1019   1020   1032     1  0.0000000  1.2552000  3
   1015   1019   1021   1023     1  180.0000771  2.0083200  2
   1015   1019   1021   1023     1  0.0000000  1.2552000  3
   1019   1020   1032   1035     1  0.0000000  0.6508444  3
   1019   1021   1023   1027     1  0.0000000  0.6508444  3
   1020   1019   1021   1023     1  180.0000771  2.0083200  2
   1020   1019   1021   1023     1  0.0000000  1.2552000  3
   1020   1032   1035   1036     1  180.0000771  0.0000000  2
   1020   1032   1035   1037     1  180.0000771  0.0000000  2
   1021   1019   1020   1032     1  180.0000771  2.0083200  2
   1021   1019   1020   1032     1  0.0000000  1.2552000  3
   1021   1023   1027   1028     1  180.0000771  0.0000000  2
   1021   1023   1027   1029     1  180.0000771  0.0000000  2
   1038   1040   1042   1046     1  0.0000000  0.6508444  3
   1040   1042   1046   1047     1  180.0000771  2.0083200  2
   1040   1042   1046   1047     1  0.0000000  1.2552000  3
   1040   1042   1046   1048     1  180.0000771  2.0083200  2
   1040   1042   1046   1048     1  0.0000000  1.2552000  3
   1042   1046   1047   1059     1  180.0000771  2.0083200  2
   1042   1046   1047   1059     1  0.0000000  1.2552000  3
   1042   1046   1048   1050     1  180.0000771  2.0083200  2
   1042   1046   1048   1050     1  0.0000000  1.2552000  3
   1046   1047   1059   1062     1  0.0000000  0.6508444  3
   1046   1048   1050   1054     1  0.0000000  0.6508444  3
   1047   1059   1062   1063     1  180.0000771  0.0000000  2
   1047   1059   1062   1064     1  180.0000771  0.0000000  2
   1047   1046   1048   1050     1  180.0000771  2.0083200  2
   1047   1046   1048   1050     1  0.0000000  1.2552000  3
   1048   1050   1054   1055     1  180.0000771  0.0000000  2
   1048   1050   1054   1056     1  180.0000771  0.0000000  2
   1048   1046   1047   1059     1  180.0000771  2.0083200  2
   1048   1046   1047   1059     1  0.0000000  1.2552000  3
   1065   1067   1069   1073     1  0.0000000  0.6508444  3
   1067   1069   1073   1074     1  180.0000771  2.0083200  2
   1067   1069   1073   1074     1  0.0000000  1.2552000  3
   1067   1069   1073   1075     1  180.0000771  2.0083200  2
   1067   1069   1073   1075     1  0.0000000  1.2552000  3
   1069   1073   1074   1086     1  180.0000771  2.0083200  2
   1069   1073   1074   1086     1  0.0000000  1.2552000  3
   1069   1073   1075   1077     1  180.0000771  2.0083200  2
   1069   1073   1075   1077     1  0.0000000  1.2552000  3
   1073   1074   1086   1089     1  0.0000000  0.6508444  3
   1073   1075   1077   1081     1  0.0000000  0.6508444  3
   1074   1073   1075   1077     1  180.0000771  2.0083200  2
   1074   1073   1075   1077     1  0.0000000  1.2552000  3
   1074   1086   1089   1090     1  180.0000771  0.0000000  2
   1074   1086   1089   1091     1  180.0000771  0.0000000  2
   1075   1073   1074   1086     1  180.0000771  2.0083200  2
   1075   1073   1074   1086     1  0.0000000  1.2552000  3
   1075   1077   1081   1082     1  180.0000771  0.0000000  2
   1075   1077   1081   1083     1  180.0000771  0.0000000  2
   1092   1094   1096   1100     1  0.0000000  0.6508444  3
   1094   1096   1100   1101     1  180.0000771  2.0083200  2
   1094   1096   1100   1101     1  0.0000000  1.2552000  3
   1094   1096   1100   1102     1  180.0000771  2.0083200  2
   1094   1096   1100   1102     1  0.0000000  1.2552000  3
   1096   1100   1101   1113     1  180.0000771  2.0083200  2
   1096   1100   1101   1113     1  0.0000000  1.2552000  3
   1096   1100   1102   1104     1  180.0000771  2.0083200  2
   1096   1100   1102   1104     1  0.0000000  1.2552000  3
   1100   1101   1113   1116     1  0.0000000  0.6508444  3
   1100   1102   1104   1108     1  0.0000000  0.6508444  3
   1101   1113   1116   1117     1  180.0000771  0.0000000  2
   1101   1113   1116   1118     1  180.0000771  0.0000000  2
   1101   1100   1102   1104     1  180.0000771  2.0083200  2
   1101   1100   1102   1104     1  0.0000000  1.2552000  3
   1102   1104   1108   1109     1  180.0000771  0.0000000  2
   1102   1104   1108   1110     1  180.0000771  0.0000000  2
   1102   1100   1101   1113     1  180.0000771  2.0083200  2
   1102   1100   1101   1113     1  0.0000000  1.2552000  3
   1119   1121   1123   1127     1  0.0000000  0.6508444  3
   1121   1123   1127   1128     1  180.0000771  2.0083200  2
   1121   1123   1127   1128     1  0.0000000  1.2552000  3
   1121   1123   1127   1129     1  180.0000771  2.0083200  2
   1121   1123   1127   1129     1  0.0000000  1.2552000  3
   1123   1127   1128   1140     1  180.0000771  2.0083200  2
   1123   1127   1128   1140     1  0.0000000  1.2552000  3
   1123   1127   1129   1131     1  180.0000771  2.0083200  2
   1123   1127   1129   1131     1  0.0000000  1.2552000  3
   1127   1128   1140   1143     1  0.0000000  0.6508444  3
   1127   1129   1131   1135     1  0.0000000  0.6508444  3
   1128   1127   1129   1131     1  180.0000771  2.0083200  2
   1128   1127   1129   1131     1  0.0000000  1.2552000  3
   1128   1140   1143   1144     1  180.0000771  0.0000000  2
   1128   1140   1143   1145     1  180.0000771  0.0000000  2
   1129   1127   1128   1140     1  180.0000771  2.0083200  2
   1129   1127   1128   1140     1  0.0000000  1.2552000  3
   1129   1131   1135   1136     1  180.0000771  0.0000000  2
   1129   1131   1135   1137     1  180.0000771  0.0000000  2
   1146   1148   1150   1154     1  0.0000000  0.6508444  3
   1148   1150   1154   1155     1  180.0000771  2.0083200  2
   1148   1150   1154   1155     1  0.0000000  1.2552000  3
   1148   1150   1154   1156     1  180.0000771  2.0083200  2
   1148   1150   1154   1156     1  0.0000000  1.2552000  3
   1150   1154   1155   1167     1  180.0000771  2.0083200  2
   1150   1154   1155   1167     1  0.0000000  1.2552000  3
   1150   1154   1156   1158     1  180.0000771  2.0083200  2
   1150   1154   1156   1158     1  0.0000000  1.2552000  3
   1154   1155   1167   1170     1  0.0000000  0.6508444  3
   1154   1156   1158   1162     1  0.0000000  0.6508444  3
   1155   1167   1170   1171     1  180.0000771  0.0000000  2
   1155   1167   1170   1172     1  180.0000771  0.0000000  2
   1155   1154   1156   1158     1  180.0000771  2.0083200  2
   1155   1154   1156   1158     1  0.0000000  1.2552000  3
   1156   1158   1162   1163     1  180.0000771  0.0000000  2
   1156   1158   1162   1164     1  180.0000771  0.0000000  2
   1156   1154   1155   1167     1  180.0000771  2.0083200  2
   1156   1154   1155   1167     1  0.0000000  1.2552000  3
   1173   1175   1177   1181     1  0.0000000  0.6508444  3
   1175   1177   1181   1182     1  180.0000771  2.0083200  2
   1175   1177   1181   1182     1  0.0000000  1.2552000  3
   1175   1177   1181   1183     1  180.0000771  2.0083200  2
   1175   1177   1181   1183     1  0.0000000  1.2552000  3
   1177   1181   1182   1194     1  180.0000771  2.0083200  2
   1177   1181   1182   1194     1  0.0000000  1.2552000  3
   1177   1181   1183   1185     1  180.0000771  2.0083200  2
   1177   1181   1183   1185     1  0.0000000  1.2552000  3
   1181   1182   1194   1197     1  0.0000000  0.6508444  3
   1181   1183   1185   1189     1  0.0000000  0.6508444  3
   1182   1181   1183   1185     1  180.0000771  2.0083200  2
   1182   1181   1183   1185     1  0.0000000  1.2552000  3
   1182   1194   1197   1198     1  180.0000771  0.0000000  2
   1182   1194   1197   1199     1  180.0000771  0.0000000  2
   1183   1181   1182   1194     1  180.0000771  2.0083200  2
   1183   1181   1182   1194     1  0.0000000  1.2552000  3
   1183   1185   1189   1190     1  180.0000771  0.0000000  2
   1183   1185   1189   1191     1  180.0000771  0.0000000  2
   1200   1202   1204   1208     1  0.0000000  0.6508444  3
   1202   1204   1208   1209     1  180.0000771  2.0083200  2
   1202   1204   1208   1209     1  0.0000000  1.2552000  3
   1202   1204   1208   1210     1  180.0000771  2.0083200  2
   1202   1204   1208   1210     1  0.0000000  1.2552000  3
   1204   1208   1209   1221     1  180.0000771  2.0083200  2
   1204   1208   1209   1221     1  0.0000000  1.2552000  3
   1204   1208   1210   1212     1  180.0000771  2.0083200  2
   1204   1208   1210   1212     1  0.0000000  1.2552000  3
   1208   1209   1221   1224     1  0.0000000  0.6508444  3
   1208   1210   1212   1216     1  0.0000000  0.6508444  3
   1209   1221   1224   1225     1  180.0000771  0.0000000  2
   1209   1221   1224   1226     1  180.0000771  0.0000000  2
   1209   1208   1210   1212     1  180.0000771  2.0083200  2
   1209   1208   1210   1212     1  0.0000000  1.2552000  3
   1210   1212   1216   1217     1  180.0000771  0.0000000  2
   1210   1212   1216   1218     1  180.0000771  0.0000000  2
   1210   1208   1209   1221     1  180.0000771  2.0083200  2
   1210   1208   1209   1221     1  0.0000000  1.2552000  3
   1227   1229   1231   1235     1  0.0000000  0.6508444  3
   1229   1231   1235   1236     1  180.0000771  2.0083200  2
   1229   1231   1235   1236     1  0.0000000  1.2552000  3
   1229   1231   1235   1237     1  180.0000771  2.0083200  2
   1229   1231   1235   1237     1  0.0000000  1.2552000  3
   1231   1235   1236   1248     1  180.0000771  2.0083200  2
   1231   1235   1236   1248     1  0.0000000  1.2552000  3
   1231   1235   1237   1239     1  180.0000771  2.0083200  2
   1231   1235   1237   1239     1  0.0000000  1.2552000  3
   1235   1236   1248   1251     1  0.0000000  0.6508444  3
   1235   1237   1239   1243     1  0.0000000  0.6508444  3
   1236   1235   1237   1239     1  180.0000771  2.0083200  2
   1236   1235   1237   1239     1  0.0000000  1.2552000  3
   1236   1248   1251   1252     1  180.0000771  0.0000000  2
   1236   1248   1251   1253     1  180.0000771  0.0000000  2
   1237   1235   1236   1248     1  180.0000771  2.0083200  2
   1237   1235   1236   1248     1  0.0000000  1.2552000  3
   1237   1239   1243   1244     1  180.0000771  0.0000000  2
   1237   1239   1243   1245     1  180.0000771  0.0000000  2
   1254   1256   1258   1262     1  0.0000000  0.6508444  3
   1256   1258   1262   1263     1  180.0000771  2.0083200  2
   1256   1258   1262   1263     1  0.0000000  1.2552000  3
   1256   1258   1262   1264     1  180.0000771  2.0083200  2
   1256   1258   1262   1264     1  0.0000000  1.2552000  3
   1258   1262   1263   1275     1  180.0000771  2.0083200  2
   1258   1262   1263   1275     1  0.0000000  1.2552000  3
   1258   1262   1264   1266     1  180.0000771  2.0083200  2
   1258   1262   1264   1266     1  0.0000000  1.2552000  3
   1262   1263   1275   1278     1  0.0000000  0.6508444  3
   1262   1264   1266   1270     1  0.0000000  0.6508444  3
   1263   1275   1278   1279     1  180.0000771  0.0000000  2
   1263   1275   1278   1280     1  180.0000771  0.0000000  2
   1263   1262   1264   1266     1  180.0000771  2.0083200  2
   1263   1262   1264   1266     1  0.0000000  1.2552000  3
   1264   1266   1270   1271     1  180.0000771  0.0000000  2
   1264   1266   1270   1272     1  180.0000771  0.0000000  2
   1264   1262   1263   1275     1  180.0000771  2.0083200  2
   1264   1262   1263   1275     1  0.0000000  1.2552000  3
   1281   1283   1285   1289     1  0.0000000  0.6508444  3
   1283   1285   1289   1290     1  180.0000771  2.0083200  2
   1283   1285   1289   1290     1  0.0000000  1.2552000  3
   1283   1285   1289   1291     1  180.0000771  2.0083200  2
   1283   1285   1289   1291     1  0.0000000  1.2552000  3
   1285   1289   1290   1302     1  180.0000771  2.0083200  2
   1285   1289   1290   1302     1  0.0000000  1.2552000  3
   1285   1289   1291   1293     1  180.0000771  2.0083200  2
   1285   1289   1291   1293     1  0.0000000  1.2552000  3
   1289   1290   1302   1305     1  0.0000000  0.6508444  3
   1289   1291   1293   1297     1  0.0000000  0.6508444  3
   1290   1289   1291   1293     1  180.0000771  2.0083200  2
   1290   1289   1291   1293     1  0.0000000  1.2552000  3
   1290   1302   1305   1306     1  180.0000771  0.0000000  2
   1290   1302   1305   1307     1  180.0000771  0.0000000  2
   1291   1289   1290   1302     1  180.0000771  2.0083200  2
   1291   1289   1290   1302     1  0.0000000  1.2552000  3
   1291   1293   1297   1298     1  180.0000771  0.0000000  2
   1291   1293   1297   1299     1  180.0000771  0.0000000  2
   1308   1310   1312   1316     1  0.0000000  0.6508444  3
   1310   1312   1316   1317     1  180.0000771  2.0083200  2
   1310   1312   1316   1317     1  0.0000000  1.2552000  3
   1310   1312   1316   1318     1  180.0000771  2.0083200  2
   1310   1312   1316   1318     1  0.0000000  1.2552000  3
   1312   1316   1317   1329     1  180.0000771  2.0083200  2
   1312   1316   1317   1329     1  0.0000000  1.2552000  3
   1312   1316   1318   1320     1  180.0000771  2.0083200  2
   1312   1316   1318   1320     1  0.0000000  1.2552000  3
   1316   1317   1329   1332     1  0.0000000  0.6508444  3
   1316   1318   1320   1324     1  0.0000000  0.6508444  3
   1317   1329   1332   1333     1  180.0000771  0.0000000  2
   1317   1329   1332   1334     1  180.0000771  0.0000000  2
   1317   1316   1318   1320     1  180.0000771  2.0083200  2
   1317   1316   1318   1320     1  0.0000000  1.2552000  3
   1318   1320   1324   1325     1  180.0000771  0.0000000  2
   1318   1320   1324   1326     1  180.0000771  0.0000000  2
   1318   1316   1317   1329     1  180.0000771  2.0083200  2
   1318   1316   1317   1329     1  0.0000000  1.2552000  3
   1335   1337   1339   1343     1  0.0000000  0.6508444  3
   1337   1339   1343   1344     1  180.0000771  2.0083200  2
   1337   1339   1343   1344     1  0.0000000  1.2552000  3
   1337   1339   1343   1345     1  180.0000771  2.0083200  2
   1337   1339   1343   1345     1  0.0000000  1.2552000  3
   1339   1343   1344   1356     1  180.0000771  2.0083200  2
   1339   1343   1344   1356     1  0.0000000  1.2552000  3
   1339   1343   1345   1347     1  180.0000771  2.0083200  2
   1339   1343   1345   1347     1  0.0000000  1.2552000  3
   1343   1344   1356   1359     1  0.0000000  0.6508444  3
   1343   1345   1347   1351     1  0.0000000  0.6508444  3
   1344   1343   1345   1347     1  180.0000771  2.0083200  2
   1344   1343   1345   1347     1  0.0000000  1.2552000  3
   1344   1356   1359   1360     1  180.0000771  0.0000000  2
   1344   1356   1359   1361     1  180.0000771  0.0000000  2
   1345   1343   1344   1356     1  180.0000771  2.0083200  2
   1345   1343   1344   1356     1  0.0000000  1.2552000  3
   1345   1347   1351   1352     1  180.0000771  0.0000000  2
   1345   1347   1351   1353     1  180.0000771  0.0000000  2
   1362   1364   1366   1370     1  0.0000000  0.6508444  3
   1364   1366   1370   1371     1  180.0000771  2.0083200  2
   1364   1366   1370   1371     1  0.0000000  1.2552000  3
   1364   1366   1370   1372     1  180.0000771  2.0083200  2
   1364   1366   1370   1372     1  0.0000000  1.2552000  3
   1366   1370   1371   1383     1  180.0000771  2.0083200  2
   1366   1370   1371   1383     1  0.0000000  1.2552000  3
   1366   1370   1372   1374     1  180.0000771  2.0083200  2
   1366   1370   1372   1374     1  0.0000000  1.2552000  3
   1370   1371   1383   1386     1  0.0000000  0.6508444  3
   1370   1372   1374   1378     1  0.0000000  0.6508444  3
   1371   1383   1386   1387     1  180.0000771  0.0000000  2
   1371   1383   1386   1388     1  180.0000771  0.0000000  2
   1371   1370   1372   1374     1  180.0000771  2.0083200  2
   1371   1370   1372   1374     1  0.0000000  1.2552000  3
   1372   1374   1378   1379     1  180.0000771  0.0000000  2
   1372   1374   1378   1380     1  180.0000771  0.0000000  2
   1372   1370   1371   1383     1  180.0000771  2.0083200  2
   1372   1370   1371   1383     1  0.0000000  1.2552000  3
   1389   1391   1393   1397     1  0.0000000  0.6508444  3
   1391   1393   1397   1398     1  180.0000771  2.0083200  2
   1391   1393   1397   1398     1  0.0000000  1.2552000  3
   1391   1393   1397   1399     1  180.0000771  2.0083200  2
   1391   1393   1397   1399     1  0.0000000  1.2552000  3
   1393   1397   1398   1410     1  180.0000771  2.0083200  2
   1393   1397   1398   1410     1  0.0000000  1.2552000  3
   1393   1397   1399   1401     1  180.0000771  2.0083200  2
   1393   1397   1399   1401     1  0.0000000  1.2552000  3
   1397   1398   1410   1413     1  0.0000000  0.6508444  3
   1397   1399   1401   1405     1  0.0000000  0.6508444  3
   1398   1397   1399   1401     1  180.0000771  2.0083200  2
   1398   1397   1399   1401     1  0.0000000  1.2552000  3
   1398   1410   1413   1414     1  180.0000771  0.0000000  2
   1398   1410   1413   1415     1  180.0000771  0.0000000  2
   1399   1397   1398   1410     1  180.0000771  2.0083200  2
   1399   1397   1398   1410     1  0.0000000  1.2552000  3
   1399   1401   1405   1406     1  180.0000771  0.0000000  2
   1399   1401   1405   1407     1  180.0000771  0.0000000  2
   1416   1418   1420   1424     1  0.0000000  0.6508444  3
   1418   1420   1424   1425     1  180.0000771  2.0083200  2
   1418   1420   1424   1425     1  0.0000000  1.2552000  3
   1418   1420   1424   1426     1  180.0000771  2.0083200  2
   1418   1420   1424   1426     1  0.0000000  1.2552000  3
   1420   1424   1425   1437     1  180.0000771  2.0083200  2
   1420   1424   1425   1437     1  0.0000000  1.2552000  3
   1420   1424   1426   1428     1  180.0000771  2.0083200  2
   1420   1424   1426   1428     1  0.0000000  1.2552000  3
   1424   1425   1437   1440     1  0.0000000  0.6508444  3
   1424   1426   1428   1432     1  0.0000000  0.6508444  3
   1425   1437   1440   1441     1  180.0000771  0.0000000  2
   1425   1437   1440   1442     1  180.0000771  0.0000000  2
   1425   1424   1426   1428     1  180.0000771  2.0083200  2
   1425   1424   1426   1428     1  0.0000000  1.2552000  3
   1426   1428   1432   1433     1  180.0000771  0.0000000  2
   1426   1428   1432   1434     1  180.0000771  0.0000000  2
   1426   1424   1425   1437     1  180.0000771  2.0083200  2
   1426   1424   1425   1437     1  0.0000000  1.2552000  3
   1443   1445   1447   1451     1  0.0000000  0.6508444  3
   1445   1447   1451   1452     1  180.0000771  2.0083200  2
   1445   1447   1451   1452     1  0.0000000  1.2552000  3
   1445   1447   1451   1453     1  180.0000771  2.0083200  2
   1445   1447   1451   1453     1  0.0000000  1.2552000  3
   1447   1451   1452   1464     1  180.0000771  2.0083200  2
   1447   1451   1452   1464     1  0.0000000  1.2552000  3
   1447   1451   1453   1455     1  180.0000771  2.0083200  2
   1447   1451   1453   1455     1  0.0000000  1.2552000  3
   1451   1452   1464   1467     1  0.0000000  0.6508444  3
   1451   1453   1455   1459     1  0.0000000  0.6508444  3
   1452   1451   1453   1455     1  180.0000771  2.0083200  2
   1452   1451   1453   1455     1  0.0000000  1.2552000  3
   1452   1464   1467   1468     1  180.0000771  0.0000000  2
   1452   1464   1467   1469     1  180.0000771  0.0000000  2
   1453   1451   1452   1464     1  180.0000771  2.0083200  2
   1453   1451   1452   1464     1  0.0000000  1.2552000  3
   1453   1455   1459   1460     1  180.0000771  0.0000000  2
   1453   1455   1459   1461     1  180.0000771  0.0000000  2
   1470   1472   1474   1478     1  0.0000000  0.6508444  3
   1472   1474   1478   1479     1  180.0000771  2.0083200  2
   1472   1474   1478   1479     1  0.0000000  1.2552000  3
   1472   1474   1478   1480     1  180.0000771  2.0083200  2
   1472   1474   1478   1480     1  0.0000000  1.2552000  3
   1474   1478   1479   1491     1  180.0000771  2.0083200  2
   1474   1478   1479   1491     1  0.0000000  1.2552000  3
   1474   1478   1480   1482     1  180.0000771  2.0083200  2
   1474   1478   1480   1482     1  0.0000000  1.2552000  3
   1478   1479   1491   1494     1  0.0000000  0.6508444  3
   1478   1480   1482   1486     1  0.0000000  0.6508444  3
   1479   1491   1494   1495     1  180.0000771  0.0000000  2
   1479   1491   1494   1496     1  180.0000771  0.0000000  2
   1479   1478   1480   1482     1  180.0000771  2.0083200  2
   1479   1478   1480   1482     1  0.0000000  1.2552000  3
   1480   1482   1486   1487     1  180.0000771  0.0000000  2
   1480   1482   1486   1488     1  180.0000771  0.0000000  2
   1480   1478   1479   1491     1  180.0000771  2.0083200  2
   1480   1478   1479   1491     1  0.0000000  1.2552000  3
   1497   1499   1501   1505     1  0.0000000  0.6508444  3
   1499   1501   1505   1506     1  180.0000771  2.0083200  2
   1499   1501   1505   1506     1  0.0000000  1.2552000  3
   1499   1501   1505   1507     1  180.0000771  2.0083200  2
   1499   1501   1505   1507     1  0.0000000  1.2552000  3
   1501   1505   1506   1518     1  180.0000771  2.0083200  2
   1501   1505   1506   1518     1  0.0000000  1.2552000  3
   1501   1505   1507   1509     1  180.0000771  2.0083200  2
   1501   1505   1507   1509     1  0.0000000  1.2552000  3
   1505   1506   1518   1521     1  0.0000000  0.6508444  3
   1505   1507   1509   1513     1  0.0000000  0.6508444  3
   1506   1505   1507   1509     1  180.0000771  2.0083200  2
   1506   1505   1507   1509     1  0.0000000  1.2552000  3
   1506   1518   1521   1522     1  180.0000771  0.0000000  2
   1506   1518   1521   1523     1  180.0000771  0.0000000  2
   1507   1505   1506   1518     1  180.0000771  2.0083200  2
   1507   1505   1506   1518     1  0.0000000  1.2552000  3
   1507   1509   1513   1514     1  180.0000771  0.0000000  2
   1507   1509   1513   1515     1  180.0000771  0.0000000  2
   1524   1526   1528   1532     1  0.0000000  0.6508444  3
   1526   1528   1532   1533     1  180.0000771  2.0083200  2
   1526   1528   1532   1533     1  0.0000000  1.2552000  3
   1526   1528   1532   1534     1  180.0000771  2.0083200  2
   1526   1528   1532   1534     1  0.0000000  1.2552000  3
   1528   1532   1533   1545     1  180.0000771  2.0083200  2
   1528   1532   1533   1545     1  0.0000000  1.2552000  3
   1528   1532   1534   1536     1  180.0000771  2.0083200  2
   1528   1532   1534   1536     1  0.0000000  1.2552000  3
   1532   1533   1545   1548     1  0.0000000  0.6508444  3
   1532   1534   1536   1540     1  0.0000000  0.6508444  3
   1533   1545   1548   1549     1  180.0000771  0.0000000  2
   1533   1545   1548   1550     1  180.0000771  0.0000000  2
   1533   1532   1534   1536     1  180.0000771  2.0083200  2
   1533   1532   1534   1536     1  0.0000000  1.2552000  3
   1534   1536   1540   1541     1  180.0000771  0.0000000  2
   1534   1536   1540   1542     1  180.0000771  0.0000000  2
   1534   1532   1533   1545     1  180.0000771  2.0083200  2
   1534   1532   1533   1545     1  0.0000000  1.2552000  3
   1551   1553   1555   1559     1  0.0000000  0.6508444  3
   1553   1555   1559   1560     1  180.0000771  2.0083200  2
   1553   1555   1559   1560     1  0.0000000  1.2552000  3
   1553   1555   1559   1561     1  180.0000771  2.0083200  2
   1553   1555   1559   1561     1  0.0000000  1.2552000  3
   1555   1559   1560   1572     1  180.0000771  2.0083200  2
   1555   1559   1560   1572     1  0.0000000  1.2552000  3
   1555   1559   1561   1563     1  180.0000771  2.0083200  2
   1555   1559   1561   1563     1  0.0000000  1.2552000  3
   1559   1560   1572   1575     1  0.0000000  0.6508444  3
   1559   1561   1563   1567     1  0.0000000  0.6508444  3
   1560   1559   1561   1563     1  180.0000771  2.0083200  2
   1560   1559   1561   1563     1  0.0000000  1.2552000  3
   1560   1572   1575   1576     1  180.0000771  0.0000000  2
   1560   1572   1575   1577     1  180.0000771  0.0000000  2
   1561   1559   1560   1572     1  180.0000771  2.0083200  2
   1561   1559   1560   1572     1  0.0000000  1.2552000  3
   1561   1563   1567   1568     1  180.0000771  0.0000000  2
   1561   1563   1567   1569     1  180.0000771  0.0000000  2
   1578   1580   1582   1586     1  0.0000000  0.6508444  3
   1580   1582   1586   1587     1  180.0000771  2.0083200  2
   1580   1582   1586   1587     1  0.0000000  1.2552000  3
   1580   1582   1586   1588     1  180.0000771  2.0083200  2
   1580   1582   1586   1588     1  0.0000000  1.2552000  3
   1582   1586   1587   1599     1  180.0000771  2.0083200  2
   1582   1586   1587   1599     1  0.0000000  1.2552000  3
   1582   1586   1588   1590     1  180.0000771  2.0083200  2
   1582   1586   1588   1590     1  0.0000000  1.2552000  3
   1586   1587   1599   1602     1  0.0000000  0.6508444  3
   1586   1588   1590   1594     1  0.0000000  0.6508444  3
   1587   1599   1602   1603     1  180.0000771  0.0000000  2
   1587   1599   1602   1604     1  180.0000771  0.0000000  2
   1587   1586   1588   1590     1  180.0000771  2.0083200  2
   1587   1586   1588   1590     1  0.0000000  1.2552000  3
   1588   1590   1594   1595     1  180.0000771  0.0000000  2
   1588   1590   1594   1596     1  180.0000771  0.0000000  2
   1588   1586   1587   1599     1  180.0000771  2.0083200  2
   1588   1586   1587   1599     1  0.0000000  1.2552000  3
     27     64     33     37     4  180.0000771  43.9320000  2
     30     89     34     40     4  180.0000771  43.9320000  2
     21    114     35     38     4  180.0000771  43.9320000  2
     24    139     36     39     4  180.0000771  43.9320000  2
     54    164     60     62     4  180.0000771  43.9320000  2
     57    189     61     63     4  180.0000771  43.9320000  2
     79    214     85     87     4  180.0000771  43.9320000  2
     82    239     86     88     4  180.0000771  43.9320000  2
    104    264    110    112     4  180.0000771  43.9320000  2
    107    289    111    113     4  180.0000771  43.9320000  2
    129    314    135    137     4  180.0000771  43.9320000  2
    132    339    136    138     4  180.0000771  43.9320000  2
    154    364    160    162     4  180.0000771  43.9320000  2
    157    389    161    163     4  180.0000771  43.9320000  2
    179    414    185    187     4  180.0000771  43.9320000  2
    182    439    186    188     4  180.0000771  43.9320000  2
    204    464    210    212     4  180.0000771  43.9320000  2
    207    489    211    213     4  180.0000771  43.9320000  2
    229    514    235    237     4  180.0000771  43.9320000  2
    232    539    236    238     4  180.0000771  43.9320000  2
    254    564    260    262     4  180.0000771  43.9320000  2
    257    589    261    263     4  180.0000771  43.9320000  2
    279    614    285    287     4  180.0000771  43.9320000  2
    282    639    286    288     4  180.0000771  43.9320000  2
    304    664    310    312     4  180.0000771  43.9320000  2
    307    689    311    313     4  180.0000771  43.9320000  2
    329    714    335    337     4  180.0000771  43.9320000  2
    332    739    336    338     4  180.0000771  43.9320000  2
    354    741    360    362     4  180.0000771  43.9320000  2
    357    768    361    363     4  180.0000771  43.9320000  2
    379    795    385    387     4  180.0000771  43.9320000  2
    382    822    386    388     4  180.0000771  43.9320000  2
    404    849    410    412     4  180.0000771  43.9320000  2
    407    876    411    413     4  180.0000771  43.9320000  2
    429    903    435    437     4  180.0000771  43.9320000  2
    432    930    436    438     4  180.0000771  43.9320000  2
    454    957    460    462     4  180.0000771  43.9320000  2
    457    984    461    463     4  180.0000771  43.9320000  2
    479   1011    485    487     4  180.0000771  43.9320000  2
    482   1038    486    488     4  180.0000771  43.9320000  2
    504   1065    510    512     4  180.0000771  43.9320000  2
    507   1092    511    513     4  180.0000771  43.9320000  2
    529   1119    535    537     4  180.0000771  43.9320000  2
    532   1146    536    538     4  180.0000771  43.9320000  2
    554   1173    560    562     4  180.0000771  43.9320000  2
    557   1200    561    563     4  180.0000771  43.9320000  2
    579   1227    585    587     4  180.0000771  43.9320000  2
    582   1254    586    588     4  180.0000771  43.9320000  2
    604   1281    610    612     4  180.0000771  43.9320000  2
    607   1308    611    613     4  180.0000771  43.9320000  2
    629   1335    635    637     4  180.0000771  43.9320000  2
    632   1362    636    638     4  180.0000771  43.9320000  2
    654   1389    660    662     4  180.0000771  43.9320000  2
    657   1416    661    663     4  180.0000771  43.9320000  2
    679   1443    685    687     4  180.0000771  43.9320000  2
    682   1470    686    688     4  180.0000771  43.9320000  2
    704   1497    710    712     4  180.0000771  43.9320000  2
    707   1524    711    713     4  180.0000771  43.9320000  2
    729   1551    735    737     4  180.0000771  43.9320000  2
    732   1578    736    738     4  180.0000771  43.9320000  2
    753    758    757    759     4  180.0000771  4.6024000  2
    762    766    765    767     4  180.0000771  4.6024000  2
    780    785    784    786     4  180.0000771  4.6024000  2
    789    793    792    794     4  180.0000771  4.6024000  2
    807    812    811    813     4  180.0000771  4.6024000  2
    816    820    819    821     4  180.0000771  4.6024000  2
    834    839    838    840     4  180.0000771  4.6024000  2
    843    847    846    848     4  180.0000771  4.6024000  2
    861    866    865    867     4  180.0000771  4.6024000  2
    870    874    873    875     4  180.0000771  4.6024000  2
    888    893    892    894     4  180.0000771  4.6024000  2
    897    901    900    902     4  180.0000771  4.6024000  2
    915    920    919    921     4  180.0000771  4.6024000  2
    924    928    927    929     4  180.0000771  4.6024000  2
    942    947    946    948     4  180.0000771  4.6024000  2
    951    955    954    956     4  180.0000771  4.6024000  2
    969    974    973    975     4  180.0000771  4.6024000  2
    978    982    981    983     4  180.0000771  4.6024000  2
    996   1001   1000   1002     4  180.0000771  4.6024000  2
   1005   1009   1008   1010     4  180.0000771  4.6024000  2
   1023   1028   1027   1029     4  180.0000771  4.6024000  2
   1032   1036   1035   1037     4  180.0000771  4.6024000  2
   1050   1055   1054   1056     4  180.0000771  4.6024000  2
   1059   1063   1062   1064     4  180.0000771  4.6024000  2
   1077   1082   1081   1083     4  180.0000771  4.6024000  2
   1086   1090   1089   1091     4  180.0000771  4.6024000  2
   1104   1109   1108   1110     4  180.0000771  4.6024000  2
   1113   1117   1116   1118     4  180.0000771  4.6024000  2
   1131   1136   1135   1137     4  180.0000771  4.6024000  2
   1140   1144   1143   1145     4  180.0000771  4.6024000  2
   1158   1163   1162   1164     4  180.0000771  4.6024000  2
   1167   1171   1170   1172     4  180.0000771  4.6024000  2
   1185   1190   1189   1191     4  180.0000771  4.6024000  2
   1194   1198   1197   1199     4  180.0000771  4.6024000  2
   1212   1217   1216   1218     4  180.0000771  4.6024000  2
   1221   1225   1224   1226     4  180.0000771  4.6024000  2
   1239   1244   1243   1245     4  180.0000771  4.6024000  2
   1248   1252   1251   1253     4  180.0000771  4.6024000  2
   1266   1271   1270   1272     4  180.0000771  4.6024000  2
   1275   1279   1278   1280     4  180.0000771  4.6024000  2
   1293   1298   1297   1299     4  180.0000771  4.6024000  2
   1302   1306   1305   1307     4  180.0000771  4.6024000  2
   1320   1325   1324   1326     4  180.0000771  4.6024000  2
   1329   1333   1332   1334     4  180.0000771  4.6024000  2
   1347   1352   1351   1353     4  180.0000771  4.6024000  2
   1356   1360   1359   1361     4  180.0000771  4.6024000  2
   1374   1379   1378   1380     4  180.0000771  4.6024000  2
   1383   1387   1386   1388     4  180.0000771  4.6024000  2
   1401   1406   1405   1407     4  180.0000771  4.6024000  2
   1410   1414   1413   1415     4  180.0000771  4.6024000  2
   1428   1433   1432   1434     4  180.0000771  4.6024000  2
   1437   1441   1440   1442     4  180.0000771  4.6024000  2
   1455   1460   1459   1461     4  180.0000771  4.6024000  2
   1464   1468   1467   1469     4  180.0000771  4.6024000  2
   1482   1487   1486   1488     4  180.0000771  4.6024000  2
   1491   1495   1494   1496     4  180.0000771  4.6024000  2
   1509   1514   1513   1515     4  180.0000771  4.6024000  2
   1518   1522   1521   1523     4  180.0000771  4.6024000  2
   1536   1541   1540   1542     4  180.0000771  4.6024000  2
   1545   1549   1548   1550     4  180.0000771  4.6024000  2
   1563   1568   1567   1569     4  180.0000771  4.6024000  2
   1572   1576   1575   1577     4  180.0000771  4.6024000  2
   1590   1595   1594   1596     4  180.0000771  4.6024000  2
   1599   1603   1602   1604     4  180.0000771  4.6024000  2
      1      8      9     10     1  0.0000000  1.2552000  3
      1      8      9     11     1  0.0000000  1.2552000  3
      1      8     12     13     1  0.0000000  1.2552000  3
      1      8     12     14     1  0.0000000  1.2552000  3
      2      1      4      7     1  0.0000000  0.6508444  3
      2      1      4      5     1  0.0000000  0.6508444  3
      2      1      4      6     1  0.0000000  0.6508444  3
      2      1      8      9     1  0.0000000  1.2552000  3
      2      1      8     12     1  0.0000000  1.2552000  3
      3      1      4      7     1  0.0000000  0.6508444  3
      3      1      4      5     1  0.0000000  0.6508444  3
      3      1      4      6     1  0.0000000  0.6508444  3
      3      1      8      9     1  0.0000000  1.2552000  3
      3      1      8     12     1  0.0000000  1.2552000  3
      4      7     15     16     1  0.0000000  1.2552000  3
      4      7     15     17     1  0.0000000  1.2552000  3
      4      7     18     19     1  0.0000000  1.2552000  3
      4      7     18     20     1  0.0000000  1.2552000  3
      8      1      4      5     1  0.0000000  0.6508444  3
      5      4      7     15     1  0.0000000  1.2552000  3
      5      4      7     18     1  0.0000000  1.2552000  3
      8      1      4      6     1  0.0000000  0.6508444  3
      6      4      7     15     1  0.0000000  1.2552000  3
      6      4      7     18     1  0.0000000  1.2552000  3
      7     15     21     22     1  0.0000000  0.6508444  3
      7     15     21     23     1  0.0000000  0.6508444  3
      7     18     24     25     1  0.0000000  0.6508444  3
      7     18     24     26     1  0.0000000  0.6508444  3
      8      9     30     31     1  0.0000000  0.6508444  3
      8      9     30     32     1  0.0000000  0.6508444  3
      8     12     27     28     1  0.0000000  0.6508444  3
      8     12     27     29     1  0.0000000  0.6508444  3
      9      8     12     13     1  0.0000000  1.2552000  3
      9      8     12     14     1  0.0000000  1.2552000  3
     10      9      8     12     1  0.0000000  1.2552000  3
     10      9     30     34     1  0.0000000  0.6508444  3
     10      9     30     31     1  0.0000000  0.6508444  3
     10      9     30     32     1  0.0000000  0.6508444  3
     11      9      8     12     1  0.0000000  1.2552000  3
     11      9     30     34     1  0.0000000  0.6508444  3
     11      9     30     31     1  0.0000000  0.6508444  3
     11      9     30     32     1  0.0000000  0.6508444  3
     13     12     27     33     1  0.0000000  0.6508444  3
     13     12     27     28     1  0.0000000  0.6508444  3
     13     12     27     29     1  0.0000000  0.6508444  3
     14     12     27     33     1  0.0000000  0.6508444  3
     14     12     27     28     1  0.0000000  0.6508444  3
     14     12     27     29     1  0.0000000  0.6508444  3
     15      7     18     19     1  0.0000000  1.2552000  3
     15      7     18     20     1  0.0000000  1.2552000  3
     16     15      7     18     1  0.0000000  1.2552000  3
     16     15     21     35     1  0.0000000  0.6508444  3
     16     15     21     22     1  0.0000000  0.6508444  3
     16     15     21     23     1  0.0000000  0.6508444  3
     17     15      7     18     1  0.0000000  1.2552000  3
     17     15     21     35     1  0.0000000  0.6508444  3
     17     15     21     22     1  0.0000000  0.6508444  3
     17     15     21     23     1  0.0000000  0.6508444  3
     19     18     24     36     1  0.0000000  0.6508444  3
     19     18     24     25     1  0.0000000  0.6508444  3
     19     18     24     26     1  0.0000000  0.6508444  3
     20     18     24     36     1  0.0000000  0.6508444  3
     20     18     24     25     1  0.0000000  0.6508444  3
     20     18     24     26     1  0.0000000  0.6508444  3
     21     35    114    115     1  180.0000771  10.4600000  2
     22     21     35     38     1  0.0000000  3.3472000  1
     22     21     35     38     1  0.0000000  0.0000000  2
     22     21     35     38     1  180.0000771  0.3347200  3
     22     21     35    114     1  180.0000771  0.0000000  2
     23     21     35     38     1  0.0000000  3.3472000  1
     23     21     35     38     1  0.0000000  0.0000000  2
     23     21     35     38     1  180.0000771  0.3347200  3
     23     21     35    114     1  180.0000771  0.0000000  2
     24     36    139    140     1  180.0000771  10.4600000  2
     25     24     36     39     1  0.0000000  3.3472000  1
     25     24     36     39     1  0.0000000  0.0000000  2
     25     24     36     39     1  180.0000771  0.3347200  3
     25     24     36    139     1  180.0000771  0.0000000  2
     26     24     36     39     1  0.0000000  3.3472000  1
     26     24     36     39     1  0.0000000  0.0000000  2
     26     24     36     39     1  180.0000771  0.3347200  3
     26     24     36    139     1  180.0000771  0.0000000  2
     27     33     64     65     1  180.0000771  10.4600000  2
     28     27     33     37     1  0.0000000  3.3472000  1
     28     27     33     37     1  0.0000000  0.0000000  2
     28     27     33     37     1  180.0000771  0.3347200  3
     28     27     33     64     1  180.0000771  0.0000000  2
     29     27     33     37     1  0.0000000  3.3472000  1
     29     27     33     37     1  0.0000000  0.0000000  2
     29     27     33     37     1  180.0000771  0.3347200  3
     29     27     33     64     1  180.0000771  0.0000000  2
     30     34     89     90     1  180.0000771  10.4600000  2
     31     30     34     40     1  0.0000000  3.3472000  1
     31     30     34     40     1  0.0000000  0.0000000  2
     31     30     34     40     1  180.0000771  0.3347200  3
     31     30     34     89     1  180.0000771  0.0000000  2
     32     30     34     40     1  0.0000000  3.3472000  1
     32     30     34     40     1  0.0000000  0.0000000  2
     32     30     34     40     1  180.0000771  0.3347200  3
     32     30     34     89     1  180.0000771  0.0000000  2
     33     64     44     45     1  0.0000000  0.0000000  2
     33     64     44     46     1  0.0000000  0.0000000  2
     34     89     69     70     1  0.0000000  0.0000000  2
     34     89     69     71     1  0.0000000  0.0000000  2
     35    114     94     95     1  0.0000000  0.0000000  2
     35    114     94     96     1  0.0000000  0.0000000  2
     36    139    119    120     1  0.0000000  0.0000000  2
     36    139    119    121     1  0.0000000  0.0000000  2
     37     33     64     65     1  0.0000000  8.3680000  1
     37     33     64     65     1  180.0000771  10.4600000  2
     38     35    114    115     1  0.0000000  8.3680000  1
     38     35    114    115     1  180.0000771  10.4600000  2
     39     36    139    140     1  0.0000000  8.3680000  1
     39     36    139    140     1  180.0000771  10.4600000  2
     40     34     89     90     1  0.0000000  8.3680000  1
     40     34     89     90     1  180.0000771  10.4600000  2
     41     44     64     65     1  0.0000000  0.0000000  2
     41     47     48     49     1  0.0000000  1.2552000  3
     41     47     48     50     1  0.0000000  1.2552000  3
     41     47     51     52     1  0.0000000  1.2552000  3
     41     47     51     53     1  0.0000000  1.2552000  3
     42     41     44     64     1  0.0000000  0.6508444  3
     42     41     44     45     1  0.0000000  0.6508444  3
     42     41     44     46     1  0.0000000  0.6508444  3
     42     41     47     48     1  0.0000000  1.2552000  3
     42     41     47     51     1  0.0000000  1.2552000  3
     43     41     44     64     1  0.0000000  0.6508444  3
     43     41     44     45     1  0.0000000  0.6508444  3
     43     41     44     46     1  0.0000000  0.6508444  3
     43     41     47     48     1  0.0000000  1.2552000  3
     43     41     47     51     1  0.0000000  1.2552000  3
     45     44     41     47     1  0.0000000  0.6508444  3
     45     44     64     65     1  0.0000000  0.0000000  2
     46     44     41     47     1  0.0000000  0.6508444  3
     46     44     64     65     1  0.0000000  0.0000000  2
     47     48     57     58     1  0.0000000  0.6508444  3
     47     48     57     59     1  0.0000000  0.6508444  3
     47     51     54     55     1  0.0000000  0.6508444  3
     47     51     54     56     1  0.0000000  0.6508444  3
     48     47     51     52     1  0.0000000  1.2552000  3
     48     47     51     53     1  0.0000000  1.2552000  3
     49     48     47     51     1  0.0000000  1.2552000  3
     49     48     57     61     1  0.0000000  0.6508444  3
     49     48     57     58     1  0.0000000  0.6508444  3
     49     48     57     59     1  0.0000000  0.6508444  3
     50     48     47     51     1  0.0000000  1.2552000  3
     50     48     57     61     1  0.0000000  0.6508444  3
     50     48     57     58     1  0.0000000  0.6508444  3
     50     48     57     59     1  0.0000000  0.6508444  3
     52     51     54     60     1  0.0000000  0.6508444  3
     52     51     54     55     1  0.0000000  0.6508444  3
     52     51     54     56     1  0.0000000  0.6508444  3
     53     51     54     60     1  0.0000000  0.6508444  3
     53     51     54     55     1  0.0000000  0.6508444  3
     53     51     54     56     1  0.0000000  0.6508444  3
     54     60    164    165     1  180.0000771  10.4600000  2
     55     54     60     62     1  0.0000000  3.3472000  1
     55     54     60     62     1  0.0000000  0.0000000  2
     55     54     60     62     1  180.0000771  0.3347200  3
     55     54     60    164     1  180.0000771  0.0000000  2
     56     54     60     62     1  0.0000000  3.3472000  1
     56     54     60     62     1  0.0000000  0.0000000  2
     56     54     60     62     1  180.0000771  0.3347200  3
     56     54     60    164     1  180.0000771  0.0000000  2
     57     61    189    190     1  180.0000771  10.4600000  2
     58     57     61     63     1  0.0000000  3.3472000  1
     58     57     61     63     1  0.0000000  0.0000000  2
     58     57     61     63     1  180.0000771  0.3347200  3
     58     57     61    189     1  180.0000771  0.0000000  2
     59     57     61     63     1  0.0000000  3.3472000  1
     59     57     61     63     1  0.0000000  0.0000000  2
     59     57     61     63     1  180.0000771  0.3347200  3
     59     57     61    189     1  180.0000771  0.0000000  2
     60    164    144    145     1  0.0000000  0.0000000  2
     60    164    144    146     1  0.0000000  0.0000000  2
     61    189    169    170     1  0.0000000  0.0000000  2
     61    189    169    171     1  0.0000000  0.0000000  2
     62     60    164    165     1  0.0000000  8.3680000  1
     62     60    164    165     1  180.0000771  10.4600000  2
     63     61    189    190     1  0.0000000  8.3680000  1
     63     61    189    190     1  180.0000771  10.4600000  2
     66     69     89     90     1  0.0000000  0.0000000  2
     66     72     73     74     1  0.0000000  1.2552000  3
     66     72     73     75     1  0.0000000  1.2552000  3
     66     72     76     77     1  0.0000000  1.2552000  3
     66     72     76     78     1  0.0000000  1.2552000  3
     67     66     69     89     1  0.0000000  0.6508444  3
     67     66     69     70     1  0.0000000  0.6508444  3
     67     66     69     71     1  0.0000000  0.6508444  3
     67     66     72     73     1  0.0000000  1.2552000  3
     67     66     72     76     1  0.0000000  1.2552000  3
     68     66     69     89     1  0.0000000  0.6508444  3
     68     66     69     70     1  0.0000000  0.6508444  3
     68     66     69     71     1  0.0000000  0.6508444  3
     68     66     72     73     1  0.0000000  1.2552000  3
     68     66     72     76     1  0.0000000  1.2552000  3
     70     69     66     72     1  0.0000000  0.6508444  3
     70     69     89     90     1  0.0000000  0.0000000  2
     71     69     66     72     1  0.0000000  0.6508444  3
     71     69     89     90     1  0.0000000  0.0000000  2
     72     73     82     83     1  0.0000000  0.6508444  3
     72     73     82     84     1  0.0000000  0.6508444  3
     72     76     79     80     1  0.0000000  0.6508444  3
     72     76     79     81     1  0.0000000  0.6508444  3
     73     72     76     77     1  0.0000000  1.2552000  3
     73     72     76     78     1  0.0000000  1.2552000  3
     74     73     72     76     1  0.0000000  1.2552000  3
     74     73     82     86     1  0.0000000  0.6508444  3
     74     73     82     83     1  0.0000000  0.6508444  3
     74     73     82     84     1  0.0000000  0.6508444  3
     75     73     72     76     1  0.0000000  1.2552000  3
     75     73     82     86     1  0.0000000  0.6508444  3
     75     73     82     83     1  0.0000000  0.6508444  3
     75     73     82     84     1  0.0000000  0.6508444  3
     77     76     79     85     1  0.0000000  0.6508444  3
     77     76     79     80     1  0.0000000  0.6508444  3
     77     76     79     81     1  0.0000000  0.6508444  3
     78     76     79     85     1  0.0000000  0.6508444  3
     78     76     79     80     1  0.0000000  0.6508444  3
     78     76     79     81     1  0.0000000  0.6508444  3
     79     85    214    215     1  180.0000771  10.4600000  2
     80     79     85     87     1  0.0000000  3.3472000  1
     80     79     85     87     1  0.0000000  0.0000000  2
     80     79     85     87     1  180.0000771  0.3347200  3
     80     79     85    214     1  180.0000771  0.0000000  2
     81     79     85     87     1  0.0000000  3.3472000  1
     81     79     85     87     1  0.0000000  0.0000000  2
     81     79     85     87     1  180.0000771  0.3347200  3
     81     79     85    214     1  180.0000771  0.0000000  2
     82     86    239    240     1  180.0000771  10.4600000  2
     83     82     86     88     1  0.0000000  3.3472000  1
     83     82     86     88     1  0.0000000  0.0000000  2
     83     82     86     88     1  180.0000771  0.3347200  3
     83     82     86    239     1  180.0000771  0.0000000  2
     84     82     86     88     1  0.0000000  3.3472000  1
     84     82     86     88     1  0.0000000  0.0000000  2
     84     82     86     88     1  180.0000771  0.3347200  3
     84     82     86    239     1  180.0000771  0.0000000  2
     85    214    194    195     1  0.0000000  0.0000000  2
     85    214    194    196     1  0.0000000  0.0000000  2
     86    239    219    220     1  0.0000000  0.0000000  2
     86    239    219    221     1  0.0000000  0.0000000  2
     87     85    214    215     1  0.0000000  8.3680000  1
     87     85    214    215     1  180.0000771  10.4600000  2
     88     86    239    240     1  0.0000000  8.3680000  1
     88     86    239    240     1  180.0000771  10.4600000  2
     91     94    114    115     1  0.0000000  0.0000000  2
     91     97     98     99     1  0.0000000  1.2552000  3
     91     97     98    100     1  0.0000000  1.2552000  3
     91     97    101    102     1  0.0000000  1.2552000  3
     91     97    101    103     1  0.0000000  1.2552000  3
     92     91     94    114     1  0.0000000  0.6508444  3
     92     91     94     95     1  0.0000000  0.6508444  3
     92     91     94     96     1  0.0000000  0.6508444  3
     92     91     97     98     1  0.0000000  1.2552000  3
     92     91     97    101     1  0.0000000  1.2552000  3
     93     91     94    114     1  0.0000000  0.6508444  3
     93     91     94     95     1  0.0000000  0.6508444  3
     93     91     94     96     1  0.0000000  0.6508444  3
     93     91     97     98     1  0.0000000  1.2552000  3
     93     91     97    101     1  0.0000000  1.2552000  3
     95     94     91     97     1  0.0000000  0.6508444  3
     95     94    114    115     1  0.0000000  0.0000000  2
     96     94     91     97     1  0.0000000  0.6508444  3
     96     94    114    115     1  0.0000000  0.0000000  2
     97     98    107    108     1  0.0000000  0.6508444  3
     97     98    107    109     1  0.0000000  0.6508444  3
     97    101    104    105     1  0.0000000  0.6508444  3
     97    101    104    106     1  0.0000000  0.6508444  3
     98     97    101    102     1  0.0000000  1.2552000  3
     98     97    101    103     1  0.0000000  1.2552000  3
     99     98     97    101     1  0.0000000  1.2552000  3
     99     98    107    111     1  0.0000000  0.6508444  3
     99     98    107    108     1  0.0000000  0.6508444  3
     99     98    107    109     1  0.0000000  0.6508444  3
    100     98     97    101     1  0.0000000  1.2552000  3
    100     98    107    111     1  0.0000000  0.6508444  3
    100     98    107    108     1  0.0000000  0.6508444  3
    100     98    107    109     1  0.0000000  0.6508444  3
    102    101    104    110     1  0.0000000  0.6508444  3
    102    101    104    105     1  0.0000000  0.6508444  3
    102    101    104    106     1  0.0000000  0.6508444  3
    103    101    104    110     1  0.0000000  0.6508444  3
    103    101    104    105     1  0.0000000  0.6508444  3
    103    101    104    106     1  0.0000000  0.6508444  3
    104    110    264    265     1  180.0000771  10.4600000  2
    105    104    110    112     1  0.0000000  3.3472000  1
    105    104    110    112     1  0.0000000  0.0000000  2
    105    104    110    112     1  180.0000771  0.3347200  3
    105    104    110    264     1  180.0000771  0.0000000  2
    106    104    110    112     1  0.0000000  3.3472000  1
    106    104    110    112     1  0.0000000  0.0000000  2
    106    104    110    112     1  180.0000771  0.3347200  3
    106    104    110    264     1  180.0000771  0.0000000  2
    107    111    289    290     1  180.0000771  10.4600000  2
    108    107    111    113     1  0.0000000  3.3472000  1
    108    107    111    113     1  0.0000000  0.0000000  2
    108    107    111    113     1  180.0000771  0.3347200  3
    108    107    111    289     1  180.0000771  0.0000000  2
    109    107    111    113     1  0.0000000  3.3472000  1
    109    107    111    113     1  0.0000000  0.0000000  2
    109    107    111    113     1  180.0000771  0.3347200  3
    109    107    111    289     1  180.0000771  0.0000000  2
    110    264    244    245     1  0.0000000  0.0000000  2
    110    264    244    246     1  0.0000000  0.0000000  2
    111    289    269    270     1  0.0000000  0.0000000  2
    111    289    269    271     1  0.0000000  0.0000000  2
    112    110    264    265     1  0.0000000  8.3680000  1
    112    110    264    265     1  180.0000771  10.4600000  2
    113    111    289    290     1  0.0000000  8.3680000  1
    113    111    289    290     1  180.0000771  10.4600000  2
    116    119    139    140     1  0.0000000  0.0000000  2
    116    122    123    124     1  0.0000000  1.2552000  3
    116    122    123    125     1  0.0000000  1.2552000  3
    116    122    126    127     1  0.0000000  1.2552000  3
    116    122    126    128     1  0.0000000  1.2552000  3
    117    116    119    139     1  0.0000000  0.6508444  3
    117    116    119    120     1  0.0000000  0.6508444  3
    117    116    119    121     1  0.0000000  0.6508444  3
    117    116    122    123     1  0.0000000  1.2552000  3
    117    116    122    126     1  0.0000000  1.2552000  3
    118    116    119    139     1  0.0000000  0.6508444  3
    118    116    119    120     1  0.0000000  0.6508444  3
    118    116    119    121     1  0.0000000  0.6508444  3
    118    116    122    123     1  0.0000000  1.2552000  3
    118    116    122    126     1  0.0000000  1.2552000  3
    120    119    116    122     1  0.0000000  0.6508444  3
    120    119    139    140     1  0.0000000  0.0000000  2
    121    119    116    122     1  0.0000000  0.6508444  3
    121    119    139    140     1  0.0000000  0.0000000  2
    122    123    132    133     1  0.0000000  0.6508444  3
    122    123    132    134     1  0.0000000  0.6508444  3
    122    126    129    130     1  0.0000000  0.6508444  3
    122    126    129    131     1  0.0000000  0.6508444  3
    123    122    126    127     1  0.0000000  1.2552000  3
    123    122    126    128     1  0.0000000  1.2552000  3
    124    123    122    126     1  0.0000000  1.2552000  3
    124    123    132    136     1  0.0000000  0.6508444  3
    124    123    132    133     1  0.0000000  0.6508444  3
    124    123    132    134     1  0.0000000  0.6508444  3
    125    123    122    126     1  0.0000000  1.2552000  3
    125    123    132    136     1  0.0000000  0.6508444  3
    125    123    132    133     1  0.0000000  0.6508444  3
    125    123    132    134     1  0.0000000  0.6508444  3
    127    126    129    135     1  0.0000000  0.6508444  3
    127    126    129    130     1  0.0000000  0.6508444  3
    127    126    129    131     1  0.0000000  0.6508444  3
    128    126    129    135     1  0.0000000  0.6508444  3
    128    126    129    130     1  0.0000000  0.6508444  3
    128    126    129    131     1  0.0000000  0.6508444  3
    129    135    314    315     1  180.0000771  10.4600000  2
    130    129    135    137     1  0.0000000  3.3472000  1
    130    129    135    137     1  0.0000000  0.0000000  2
    130    129    135    137     1  180.0000771  0.3347200  3
    130    129    135    314     1  180.0000771  0.0000000  2
    131    129    135    137     1  0.0000000  3.3472000  1
    131    129    135    137     1  0.0000000  0.0000000  2
    131    129    135    137     1  180.0000771  0.3347200  3
    131    129    135    314     1  180.0000771  0.0000000  2
    132    136    339    340     1  180.0000771  10.4600000  2
    133    132    136    138     1  0.0000000  3.3472000  1
    133    132    136    138     1  0.0000000  0.0000000  2
    133    132    136    138     1  180.0000771  0.3347200  3
    133    132    136    339     1  180.0000771  0.0000000  2
    134    132    136    138     1  0.0000000  3.3472000  1
    134    132    136    138     1  0.0000000  0.0000000  2
    134    132    136    138     1  180.0000771  0.3347200  3
    134    132    136    339     1  180.0000771  0.0000000  2
    135    314    294    295     1  0.0000000  0.0000000  2
    135    314    294    296     1  0.0000000  0.0000000  2
    136    339    319    320     1  0.0000000  0.0000000  2
    136    339    319    321     1  0.0000000  0.0000000  2
    137    135    314    315     1  0.0000000  8.3680000  1
    137    135    314    315     1  180.0000771  10.4600000  2
    138    136    339    340     1  0.0000000  8.3680000  1
    138    136    339    340     1  180.0000771  10.4600000  2
    141    144    164    165     1  0.0000000  0.0000000  2
    141    147    148    149     1  0.0000000  1.2552000  3
    141    147    148    150     1  0.0000000  1.2552000  3
    141    147    151    152     1  0.0000000  1.2552000  3
    141    147    151    153     1  0.0000000  1.2552000  3
    142    141    144    164     1  0.0000000  0.6508444  3
    142    141    144    145     1  0.0000000  0.6508444  3
    142    141    144    146     1  0.0000000  0.6508444  3
    142    141    147    148     1  0.0000000  1.2552000  3
    142    141    147    151     1  0.0000000  1.2552000  3
    143    141    144    164     1  0.0000000  0.6508444  3
    143    141    144    145     1  0.0000000  0.6508444  3
    143    141    144    146     1  0.0000000  0.6508444  3
    143    141    147    148     1  0.0000000  1.2552000  3
    143    141    147    151     1  0.0000000  1.2552000  3
    145    144    141    147     1  0.0000000  0.6508444  3
    145    144    164    165     1  0.0000000  0.0000000  2
    146    144    141    147     1  0.0000000  0.6508444  3
    146    144    164    165     1  0.0000000  0.0000000  2
    147    148    157    158     1  0.0000000  0.6508444  3
    147    148    157    159     1  0.0000000  0.6508444  3
    147    151    154    155     1  0.0000000  0.6508444  3
    147    151    154    156     1  0.0000000  0.6508444  3
    148    147    151    152     1  0.0000000  1.2552000  3
    148    147    151    153     1  0.0000000  1.2552000  3
    149    148    147    151     1  0.0000000  1.2552000  3
    149    148    157    161     1  0.0000000  0.6508444  3
    149    148    157    158     1  0.0000000  0.6508444  3
    149    148    157    159     1  0.0000000  0.6508444  3
    150    148    147    151     1  0.0000000  1.2552000  3
    150    148    157    161     1  0.0000000  0.6508444  3
    150    148    157    158     1  0.0000000  0.6508444  3
    150    148    157    159     1  0.0000000  0.6508444  3
    152    151    154    160     1  0.0000000  0.6508444  3
    152    151    154    155     1  0.0000000  0.6508444  3
    152    151    154    156     1  0.0000000  0.6508444  3
    153    151    154    160     1  0.0000000  0.6508444  3
    153    151    154    155     1  0.0000000  0.6508444  3
    153    151    154    156     1  0.0000000  0.6508444  3
    154    160    364    365     1  180.0000771  10.4600000  2
    155    154    160    162     1  0.0000000  3.3472000  1
    155    154    160    162     1  0.0000000  0.0000000  2
    155    154    160    162     1  180.0000771  0.3347200  3
    155    154    160    364     1  180.0000771  0.0000000  2
    156    154    160    162     1  0.0000000  3.3472000  1
    156    154    160    162     1  0.0000000  0.0000000  2
    156    154    160    162     1  180.0000771  0.3347200  3
    156    154    160    364     1  180.0000771  0.0000000  2
    157    161    389    390     1  180.0000771  10.4600000  2
    158    157    161    163     1  0.0000000  3.3472000  1
    158    157    161    163     1  0.0000000  0.0000000  2
    158    157    161    163     1  180.0000771  0.3347200  3
    158    157    161    389     1  180.0000771  0.0000000  2
    159    157    161    163     1  0.0000000  3.3472000  1
    159    157    161    163     1  0.0000000  0.0000000  2
    159    157    161    163     1  180.0000771  0.3347200  3
    159    157    161    389     1  180.0000771  0.0000000  2
    160    364    344    345     1  0.0000000  0.0000000  2
    160    364    344    346     1  0.0000000  0.0000000  2
    161    389    369    370     1  0.0000000  0.0000000  2
    161    389    369    371     1  0.0000000  0.0000000  2
    162    160    364    365     1  0.0000000  8.3680000  1
    162    160    364    365     1  180.0000771  10.4600000  2
    163    161    389    390     1  0.0000000  8.3680000  1
    163    161    389    390     1  180.0000771  10.4600000  2
    166    169    189    190     1  0.0000000  0.0000000  2
    166    172    173    174     1  0.0000000  1.2552000  3
    166    172    173    175     1  0.0000000  1.2552000  3
    166    172    176    177     1  0.0000000  1.2552000  3
    166    172    176    178     1  0.0000000  1.2552000  3
    167    166    169    189     1  0.0000000  0.6508444  3
    167    166    169    170     1  0.0000000  0.6508444  3
    167    166    169    171     1  0.0000000  0.6508444  3
    167    166    172    173     1  0.0000000  1.2552000  3
    167    166    172    176     1  0.0000000  1.2552000  3
    168    166    169    189     1  0.0000000  0.6508444  3
    168    166    169    170     1  0.0000000  0.6508444  3
    168    166    169    171     1  0.0000000  0.6508444  3
    168    166    172    173     1  0.0000000  1.2552000  3
    168    166    172    176     1  0.0000000  1.2552000  3
    170    169    166    172     1  0.0000000  0.6508444  3
    170    169    189    190     1  0.0000000  0.0000000  2
    171    169    166    172     1  0.0000000  0.6508444  3
    171    169    189    190     1  0.0000000  0.0000000  2
    172    173    182    183     1  0.0000000  0.6508444  3
    172    173    182    184     1  0.0000000  0.6508444  3
    172    176    179    180     1  0.0000000  0.6508444  3
    172    176    179    181     1  0.0000000  0.6508444  3
    173    172    176    177     1  0.0000000  1.2552000  3
    173    172    176    178     1  0.0000000  1.2552000  3
    174    173    172    176     1  0.0000000  1.2552000  3
    174    173    182    186     1  0.0000000  0.6508444  3
    174    173    182    183     1  0.0000000  0.6508444  3
    174    173    182    184     1  0.0000000  0.6508444  3
    175    173    172    176     1  0.0000000  1.2552000  3
    175    173    182    186     1  0.0000000  0.6508444  3
    175    173    182    183     1  0.0000000  0.6508444  3
    175    173    182    184     1  0.0000000  0.6508444  3
    177    176    179    185     1  0.0000000  0.6508444  3
    177    176    179    180     1  0.0000000  0.6508444  3
    177    176    179    181     1  0.0000000  0.6508444  3
    178    176    179    185     1  0.0000000  0.6508444  3
    178    176    179    180     1  0.0000000  0.6508444  3
    178    176    179    181     1  0.0000000  0.6508444  3
    179    185    414    415     1  180.0000771  10.4600000  2
    180    179    185    187     1  0.0000000  3.3472000  1
    180    179    185    187     1  0.0000000  0.0000000  2
    180    179    185    187     1  180.0000771  0.3347200  3
    180    179    185    414     1  180.0000771  0.0000000  2
    181    179    185    187     1  0.0000000  3.3472000  1
    181    179    185    187     1  0.0000000  0.0000000  2
    181    179    185    187     1  180.0000771  0.3347200  3
    181    179    185    414     1  180.0000771  0.0000000  2
    182    186    439    440     1  180.0000771  10.4600000  2
    183    182    186    188     1  0.0000000  3.3472000  1
    183    182    186    188     1  0.0000000  0.0000000  2
    183    182    186    188     1  180.0000771  0.3347200  3
    183    182    186    439     1  180.0000771  0.0000000  2
    184    182    186    188     1  0.0000000  3.3472000  1
    184    182    186    188     1  0.0000000  0.0000000  2
    184    182    186    188     1  180.0000771  0.3347200  3
    184    182    186    439     1  180.0000771  0.0000000  2
    185    414    394    395     1  0.0000000  0.0000000  2
    185    414    394    396     1  0.0000000  0.0000000  2
    186    439    419    420     1  0.0000000  0.0000000  2
    186    439    419    421     1  0.0000000  0.0000000  2
    187    185    414    415     1  0.0000000  8.3680000  1
    187    185    414    415     1  180.0000771  10.4600000  2
    188    186    439    440     1  0.0000000  8.3680000  1
    188    186    439    440     1  180.0000771  10.4600000  2
    191    194    214    215     1  0.0000000  0.0000000  2
    191    197    198    199     1  0.0000000  1.2552000  3
    191    197    198    200     1  0.0000000  1.2552000  3
    191    197    201    202     1  0.0000000  1.2552000  3
    191    197    201    203     1  0.0000000  1.2552000  3
    192    191    194    214     1  0.0000000  0.6508444  3
    192    191    194    195     1  0.0000000  0.6508444  3
    192    191    194    196     1  0.0000000  0.6508444  3
    192    191    197    198     1  0.0000000  1.2552000  3
    192    191    197    201     1  0.0000000  1.2552000  3
    193    191    194    214     1  0.0000000  0.6508444  3
    193    191    194    195     1  0.0000000  0.6508444  3
    193    191    194    196     1  0.0000000  0.6508444  3
    193    191    197    198     1  0.0000000  1.2552000  3
    193    191    197    201     1  0.0000000  1.2552000  3
    195    194    191    197     1  0.0000000  0.6508444  3
    195    194    214    215     1  0.0000000  0.0000000  2
    196    194    191    197     1  0.0000000  0.6508444  3
    196    194    214    215     1  0.0000000  0.0000000  2
    197    198    207    208     1  0.0000000  0.6508444  3
    197    198    207    209     1  0.0000000  0.6508444  3
    197    201    204    205     1  0.0000000  0.6508444  3
    197    201    204    206     1  0.0000000  0.6508444  3
    198    197    201    202     1  0.0000000  1.2552000  3
    198    197    201    203     1  0.0000000  1.2552000  3
    199    198    197    201     1  0.0000000  1.2552000  3
    199    198    207    211     1  0.0000000  0.6508444  3
    199    198    207    208     1  0.0000000  0.6508444  3
    199    198    207    209     1  0.0000000  0.6508444  3
    200    198    197    201     1  0.0000000  1.2552000  3
    200    198    207    211     1  0.0000000  0.6508444  3
    200    198    207    208     1  0.0000000  0.6508444  3
    200    198    207    209     1  0.0000000  0.6508444  3
    202    201    204    210     1  0.0000000  0.6508444  3
    202    201    204    205     1  0.0000000  0.6508444  3
    202    201    204    206     1  0.0000000  0.6508444  3
    203    201    204    210     1  0.0000000  0.6508444  3
    203    201    204    205     1  0.0000000  0.6508444  3
    203    201    204    206     1  0.0000000  0.6508444  3
    204    210    464    465     1  180.0000771  10.4600000  2
    205    204    210    212     1  0.0000000  3.3472000  1
    205    204    210    212     1  0.0000000  0.0000000  2
    205    204    210    212     1  180.0000771  0.3347200  3
    205    204    210    464     1  180.0000771  0.0000000  2
    206    204    210    212     1  0.0000000  3.3472000  1
    206    204    210    212     1  0.0000000  0.0000000  2
    206    204    210    212     1  180.0000771  0.3347200  3
    206    204    210    464     1  180.0000771  0.0000000  2
    207    211    489    490     1  180.0000771  10.4600000  2
    208    207    211    213     1  0.0000000  3.3472000  1
    208    207    211    213     1  0.0000000  0.0000000  2
    208    207    211    213     1  180.0000771  0.3347200  3
    208    207    211    489     1  180.0000771  0.0000000  2
    209    207    211    213     1  0.0000000  3.3472000  1
    209    207    211    213     1  0.0000000  0.0000000  2
    209    207    211    213     1  180.0000771  0.3347200  3
    209    207    211    489     1  180.0000771  0.0000000  2
    210    464    444    445     1  0.0000000  0.0000000  2
    210    464    444    446     1  0.0000000  0.0000000  2
    211    489    469    470     1  0.0000000  0.0000000  2
    211    489    469    471     1  0.0000000  0.0000000  2
    212    210    464    465     1  0.0000000  8.3680000  1
    212    210    464    465     1  180.0000771  10.4600000  2
    213    211    489    490     1  0.0000000  8.3680000  1
    213    211    489    490     1  180.0000771  10.4600000  2
    216    219    239    240     1  0.0000000  0.0000000  2
    216    222    223    224     1  0.0000000  1.2552000  3
    216    222    223    225     1  0.0000000  1.2552000  3
    216    222    226    227     1  0.0000000  1.2552000  3
    216    222    226    228     1  0.0000000  1.2552000  3
    217    216    219    239     1  0.0000000  0.6508444  3
    217    216    219    220     1  0.0000000  0.6508444  3
    217    216    219    221     1  0.0000000  0.6508444  3
    217    216    222    223     1  0.0000000  1.2552000  3
    217    216    222    226     1  0.0000000  1.2552000  3
    218    216    219    239     1  0.0000000  0.6508444  3
    218    216    219    220     1  0.0000000  0.6508444  3
    218    216    219    221     1  0.0000000  0.6508444  3
    218    216    222    223     1  0.0000000  1.2552000  3
    218    216    222    226     1  0.0000000  1.2552000  3
    220    219    216    222     1  0.0000000  0.6508444  3
    220    219    239    240     1  0.0000000  0.0000000  2
    221    219    216    222     1  0.0000000  0.6508444  3
    221    219    239    240     1  0.0000000  0.0000000  2
    222    223    232    233     1  0.0000000  0.6508444  3
    222    223    232    234     1  0.0000000  0.6508444  3
    222    226    229    230     1  0.0000000  0.6508444  3
    222    226    229    231     1  0.0000000  0.6508444  3
    223    222    226    227     1  0.0000000  1.2552000  3
    223    222    226    228     1  0.0000000  1.2552000  3
    224    223    222    226     1  0.0000000  1.2552000  3
    224    223    232    236     1  0.0000000  0.6508444  3
    224    223    232    233     1  0.0000000  0.6508444  3
    224    223    232    234     1  0.0000000  0.6508444  3
    225    223    222    226     1  0.0000000  1.2552000  3
    225    223    232    236     1  0.0000000  0.6508444  3
    225    223    232    233     1  0.0000000  0.6508444  3
    225    223    232    234     1  0.0000000  0.6508444  3
    227    226    229    235     1  0.0000000  0.6508444  3
    227    226    229    230     1  0.0000000  0.6508444  3
    227    226    229    231     1  0.0000000  0.6508444  3
    228    226    229    235     1  0.0000000  0.6508444  3
    228    226    229    230     1  0.0000000  0.6508444  3
    228    226    229    231     1  0.0000000  0.6508444  3
    229    235    514    515     1  180.0000771  10.4600000  2
    230    229    235    237     1  0.0000000  3.3472000  1
    230    229    235    237     1  0.0000000  0.0000000  2
    230    229    235    237     1  180.0000771  0.3347200  3
    230    229    235    514     1  180.0000771  0.0000000  2
    231    229    235    237     1  0.0000000  3.3472000  1
    231    229    235    237     1  0.0000000  0.0000000  2
    231    229    235    237     1  180.0000771  0.3347200  3
    231    229    235    514     1  180.0000771  0.0000000  2
    232    236    539    540     1  180.0000771  10.4600000  2
    233    232    236    238     1  0.0000000  3.3472000  1
    233    232    236    238     1  0.0000000  0.0000000  2
    233    232    236    238     1  180.0000771  0.3347200  3
    233    232    236    539     1  180.0000771  0.0000000  2
    234    232    236    238     1  0.0000000  3.3472000  1
    234    232    236    238     1  0.0000000  0.0000000  2
    234    232    236    238     1  180.0000771  0.3347200  3
    234    232    236    539     1  180.0000771  0.0000000  2
    235    514    494    495     1  0.0000000  0.0000000  2
    235    514    494    496     1  0.0000000  0.0000000  2
    236    539    519    520     1  0.0000000  0.0000000  2
    236    539    519    521     1  0.0000000  0.0000000  2
    237    235    514    515     1  0.0000000  8.3680000  1
    237    235    514    515     1  180.0000771  10.4600000  2
    238    236    539    540     1  0.0000000  8.3680000  1
    238    236    539    540     1  180.0000771  10.4600000  2
    241    244    264    265     1  0.0000000  0.0000000  2
    241    247    248    249     1  0.0000000  1.2552000  3
    241    247    248    250     1  0.0000000  1.2552000  3
    241    247    251    252     1  0.0000000  1.2552000  3
    241    247    251    253     1  0.0000000  1.2552000  3
    242    241    244    264     1  0.0000000  0.6508444  3
    242    241    244    245     1  0.0000000  0.6508444  3
    242    241    244    246     1  0.0000000  0.6508444  3
    242    241    247    248     1  0.0000000  1.2552000  3
    242    241    247    251     1  0.0000000  1.2552000  3
    243    241    244    264     1  0.0000000  0.6508444  3
    243    241    244    245     1  0.0000000  0.6508444  3
    243    241    244    246     1  0.0000000  0.6508444  3
    243    241    247    248     1  0.0000000  1.2552000  3
    243    241    247    251     1  0.0000000  1.2552000  3
    245    244    241    247     1  0.0000000  0.6508444  3
    245    244    264    265     1  0.0000000  0.0000000  2
    246    244    241    247     1  0.0000000  0.6508444  3
    246    244    264    265     1  0.0000000  0.0000000  2
    247    248    257    258     1  0.0000000  0.6508444  3
    247    248    257    259     1  0.0000000  0.6508444  3
    247    251    254    255     1  0.0000000  0.6508444  3
    247    251    254    256     1  0.0000000  0.6508444  3
    248    247    251    252     1  0.0000000  1.2552000  3
    248    247    251    253     1  0.0000000  1.2552000  3
    249    248    247    251     1  0.0000000  1.2552000  3
    249    248    257    261     1  0.0000000  0.6508444  3
    249    248    257    258     1  0.0000000  0.6508444  3
    249    248    257    259     1  0.0000000  0.6508444  3
    250    248    247    251     1  0.0000000  1.2552000  3
    250    248    257    261     1  0.0000000  0.6508444  3
    250    248    257    258     1  0.0000000  0.6508444  3
    250    248    257    259     1  0.0000000  0.6508444  3
    252    251    254    260     1  0.0000000  0.6508444  3
    252    251    254    255     1  0.0000000  0.6508444  3
    252    251    254    256     1  0.0000000  0.6508444  3
    253    251    254    260     1  0.0000000  0.6508444  3
    253    251    254    255     1  0.0000000  0.6508444  3
    253    251    254    256     1  0.0000000  0.6508444  3
    254    260    564    565     1  180.0000771  10.4600000  2
    255    254    260    262     1  0.0000000  3.3472000  1
    255    254    260    262     1  0.0000000  0.0000000  2
    255    254    260    262     1  180.0000771  0.3347200  3
    255    254    260    564     1  180.0000771  0.0000000  2
    256    254    260    262     1  0.0000000  3.3472000  1
    256    254    260    262     1  0.0000000  0.0000000  2
    256    254    260    262     1  180.0000771  0.3347200  3
    256    254    260    564     1  180.0000771  0.0000000  2
    257    261    589    590     1  180.0000771  10.4600000  2
    258    257    261    263     1  0.0000000  3.3472000  1
    258    257    261    263     1  0.0000000  0.0000000  2
    258    257    261    263     1  180.0000771  0.3347200  3
    258    257    261    589     1  180.0000771  0.0000000  2
    259    257    261    263     1  0.0000000  3.3472000  1
    259    257    261    263     1  0.0000000  0.0000000  2
    259    257    261    263     1  180.0000771  0.3347200  3
    259    257    261    589     1  180.0000771  0.0000000  2
    260    564    544    545     1  0.0000000  0.0000000  2
    260    564    544    546     1  0.0000000  0.0000000  2
    261    589    569    570     1  0.0000000  0.0000000  2
    261    589    569    571     1  0.0000000  0.0000000  2
    262    260    564    565     1  0.0000000  8.3680000  1
    262    260    564    565     1  180.0000771  10.4600000  2
    263    261    589    590     1  0.0000000  8.3680000  1
    263    261    589    590     1  180.0000771  10.4600000  2
    266    269    289    290     1  0.0000000  0.0000000  2
    266    272    273    274     1  0.0000000  1.2552000  3
    266    272    273    275     1  0.0000000  1.2552000  3
    266    272    276    277     1  0.0000000  1.2552000  3
    266    272    276    278     1  0.0000000  1.2552000  3
    267    266    269    289     1  0.0000000  0.6508444  3
    267    266    269    270     1  0.0000000  0.6508444  3
    267    266    269    271     1  0.0000000  0.6508444  3
    267    266    272    273     1  0.0000000  1.2552000  3
    267    266    272    276     1  0.0000000  1.2552000  3
    268    266    269    289     1  0.0000000  0.6508444  3
    268    266    269    270     1  0.0000000  0.6508444  3
    268    266    269    271     1  0.0000000  0.6508444  3
    268    266    272    273     1  0.0000000  1.2552000  3
    268    266    272    276     1  0.0000000  1.2552000  3
    270    269    266    272     1  0.0000000  0.6508444  3
    270    269    289    290     1  0.0000000  0.0000000  2
    271    269    266    272     1  0.0000000  0.6508444  3
    271    269    289    290     1  0.0000000  0.0000000  2
    272    273    282    283     1  0.0000000  0.6508444  3
    272    273    282    284     1  0.0000000  0.6508444  3
    272    276    279    280     1  0.0000000  0.6508444  3
    272    276    279    281     1  0.0000000  0.6508444  3
    273    272    276    277     1  0.0000000  1.2552000  3
    273    272    276    278     1  0.0000000  1.2552000  3
    274    273    272    276     1  0.0000000  1.2552000  3
    274    273    282    286     1  0.0000000  0.6508444  3
    274    273    282    283     1  0.0000000  0.6508444  3
    274    273    282    284     1  0.0000000  0.6508444  3
    275    273    272    276     1  0.0000000  1.2552000  3
    275    273    282    286     1  0.0000000  0.6508444  3
    275    273    282    283     1  0.0000000  0.6508444  3
    275    273    282    284     1  0.0000000  0.6508444  3
    277    276    279    285     1  0.0000000  0.6508444  3
    277    276    279    280     1  0.0000000  0.6508444  3
    277    276    279    281     1  0.0000000  0.6508444  3
    278    276    279    285     1  0.0000000  0.6508444  3
    278    276    279    280     1  0.0000000  0.6508444  3
    278    276    279    281     1  0.0000000  0.6508444  3
    279    285    614    615     1  180.0000771  10.4600000  2
    280    279    285    287     1  0.0000000  3.3472000  1
    280    279    285    287     1  0.0000000  0.0000000  2
    280    279    285    287     1  180.0000771  0.3347200  3
    280    279    285    614     1  180.0000771  0.0000000  2
    281    279    285    287     1  0.0000000  3.3472000  1
    281    279    285    287     1  0.0000000  0.0000000  2
    281    279    285    287     1  180.0000771  0.3347200  3
    281    279    285    614     1  180.0000771  0.0000000  2
    282    286    639    640     1  180.0000771  10.4600000  2
    283    282    286    288     1  0.0000000  3.3472000  1
    283    282    286    288     1  0.0000000  0.0000000  2
    283    282    286    288     1  180.0000771  0.3347200  3
    283    282    286    639     1  180.0000771  0.0000000  2
    284    282    286    288     1  0.0000000  3.3472000  1
    284    282    286    288     1  0.0000000  0.0000000  2
    284    282    286    288     1  180.0000771  0.3347200  3
    284    282    286    639     1  180.0000771  0.0000000  2
    285    614    594    595     1  0.0000000  0.0000000  2
    285    614    594    596     1  0.0000000  0.0000000  2
    286    639    619    620     1  0.0000000  0.0000000  2
    286    639    619    621     1  0.0000000  0.0000000  2
    287    285    614    615     1  0.0000000  8.3680000  1
    287    285    614    615     1  180.0000771  10.4600000  2
    288    286    639    640     1  0.0000000  8.3680000  1
    288    286    639    640     1  180.0000771  10.4600000  2
    291    294    314    315     1  0.0000000  0.0000000  2
    291    297    298    299     1  0.0000000  1.2552000  3
    291    297    298    300     1  0.0000000  1.2552000  3
    291    297    301    302     1  0.0000000  1.2552000  3
    291    297    301    303     1  0.0000000  1.2552000  3
    292    291    294    314     1  0.0000000  0.6508444  3
    292    291    294    295     1  0.0000000  0.6508444  3
    292    291    294    296     1  0.0000000  0.6508444  3
    292    291    297    298     1  0.0000000  1.2552000  3
    292    291    297    301     1  0.0000000  1.2552000  3
    293    291    294    314     1  0.0000000  0.6508444  3
    293    291    294    295     1  0.0000000  0.6508444  3
    293    291    294    296     1  0.0000000  0.6508444  3
    293    291    297    298     1  0.0000000  1.2552000  3
    293    291    297    301     1  0.0000000  1.2552000  3
    295    294    291    297     1  0.0000000  0.6508444  3
    295    294    314    315     1  0.0000000  0.0000000  2
    296    294    291    297     1  0.0000000  0.6508444  3
    296    294    314    315     1  0.0000000  0.0000000  2
    297    298    307    308     1  0.0000000  0.6508444  3
    297    298    307    309     1  0.0000000  0.6508444  3
    297    301    304    305     1  0.0000000  0.6508444  3
    297    301    304    306     1  0.0000000  0.6508444  3
    298    297    301    302     1  0.0000000  1.2552000  3
    298    297    301    303     1  0.0000000  1.2552000  3
    299    298    297    301     1  0.0000000  1.2552000  3
    299    298    307    311     1  0.0000000  0.6508444  3
    299    298    307    308     1  0.0000000  0.6508444  3
    299    298    307    309     1  0.0000000  0.6508444  3
    300    298    297    301     1  0.0000000  1.2552000  3
    300    298    307    311     1  0.0000000  0.6508444  3
    300    298    307    308     1  0.0000000  0.6508444  3
    300    298    307    309     1  0.0000000  0.6508444  3
    302    301    304    310     1  0.0000000  0.6508444  3
    302    301    304    305     1  0.0000000  0.6508444  3
    302    301    304    306     1  0.0000000  0.6508444  3
    303    301    304    310     1  0.0000000  0.6508444  3
    303    301    304    305     1  0.0000000  0.6508444  3
    303    301    304    306     1  0.0000000  0.6508444  3
    304    310    664    665     1  180.0000771  10.4600000  2
    305    304    310    312     1  0.0000000  3.3472000  1
    305    304    310    312     1  0.0000000  0.0000000  2
    305    304    310    312     1  180.0000771  0.3347200  3
    305    304    310    664     1  180.0000771  0.0000000  2
    306    304    310    312     1  0.0000000  3.3472000  1
    306    304    310    312     1  0.0000000  0.0000000  2
    306    304    310    312     1  180.0000771  0.3347200  3
    306    304    310    664     1  180.0000771  0.0000000  2
    307    311    689    690     1  180.0000771  10.4600000  2
    308    307    311    313     1  0.0000000  3.3472000  1
    308    307    311    313     1  0.0000000  0.0000000  2
    308    307    311    313     1  180.0000771  0.3347200  3
    308    307    311    689     1  180.0000771  0.0000000  2
    309    307    311    313     1  0.0000000  3.3472000  1
    309    307    311    313     1  0.0000000  0.0000000  2
    309    307    311    313     1  180.0000771  0.3347200  3
    309    307    311    689     1  180.0000771  0.0000000  2
    310    664    644    645     1  0.0000000  0.0000000  2
    310    664    644    646     1  0.0000000  0.0000000  2
    311    689    669    670     1  0.0000000  0.0000000  2
    311    689    669    671     1  0.0000000  0.0000000  2
    312    310    664    665     1  0.0000000  8.3680000  1
    312    310    664    665     1  180.0000771  10.4600000  2
    313    311    689    690     1  0.0000000  8.3680000  1
    313    311    689    690     1  180.0000771  10.4600000  2
    316    319    339    340     1  0.0000000  0.0000000  2
    316    322    323    324     1  0.0000000  1.2552000  3
    316    322    323    325     1  0.0000000  1.2552000  3
    316    322    326    327     1  0.0000000  1.2552000  3
    316    322    326    328     1  0.0000000  1.2552000  3
    317    316    319    339     1  0.0000000  0.6508444  3
    317    316    319    320     1  0.0000000  0.6508444  3
    317    316    319    321     1  0.0000000  0.6508444  3
    317    316    322    323     1  0.0000000  1.2552000  3
    317    316    322    326     1  0.0000000  1.2552000  3
    318    316    319    339     1  0.0000000  0.6508444  3
    318    316    319    320     1  0.0000000  0.6508444  3
    318    316    319    321     1  0.0000000  0.6508444  3
    318    316    322    323     1  0.0000000  1.2552000  3
    318    316    322    326     1  0.0000000  1.2552000  3
    320    319    316    322     1  0.0000000  0.6508444  3
    320    319    339    340     1  0.0000000  0.0000000  2
    321    319    316    322     1  0.0000000  0.6508444  3
    321    319    339    340     1  0.0000000  0.0000000  2
    322    323    332    333     1  0.0000000  0.6508444  3
    322    323    332    334     1  0.0000000  0.6508444  3
    322    326    329    330     1  0.0000000  0.6508444  3
    322    326    329    331     1  0.0000000  0.6508444  3
    323    322    326    327     1  0.0000000  1.2552000  3
    323    322    326    328     1  0.0000000  1.2552000  3
    324    323    322    326     1  0.0000000  1.2552000  3
    324    323    332    336     1  0.0000000  0.6508444  3
    324    323    332    333     1  0.0000000  0.6508444  3
    324    323    332    334     1  0.0000000  0.6508444  3
    325    323    322    326     1  0.0000000  1.2552000  3
    325    323    332    336     1  0.0000000  0.6508444  3
    325    323    332    333     1  0.0000000  0.6508444  3
    325    323    332    334     1  0.0000000  0.6508444  3
    327    326    329    335     1  0.0000000  0.6508444  3
    327    326    329    330     1  0.0000000  0.6508444  3
    327    326    329    331     1  0.0000000  0.6508444  3
    328    326    329    335     1  0.0000000  0.6508444  3
    328    326    329    330     1  0.0000000  0.6508444  3
    328    326    329    331     1  0.0000000  0.6508444  3
    329    335    714    715     1  180.0000771  10.4600000  2
    330    329    335    337     1  0.0000000  3.3472000  1
    330    329    335    337     1  0.0000000  0.0000000  2
    330    329    335    337     1  180.0000771  0.3347200  3
    330    329    335    714     1  180.0000771  0.0000000  2
    331    329    335    337     1  0.0000000  3.3472000  1
    331    329    335    337     1  0.0000000  0.0000000  2
    331    329    335    337     1  180.0000771  0.3347200  3
    331    329    335    714     1  180.0000771  0.0000000  2
    332    336    739    740     1  180.0000771  10.4600000  2
    333    332    336    338     1  0.0000000  3.3472000  1
    333    332    336    338     1  0.0000000  0.0000000  2
    333    332    336    338     1  180.0000771  0.3347200  3
    333    332    336    739     1  180.0000771  0.0000000  2
    334    332    336    338     1  0.0000000  3.3472000  1
    334    332    336    338     1  0.0000000  0.0000000  2
    334    332    336    338     1  180.0000771  0.3347200  3
    334    332    336    739     1  180.0000771  0.0000000  2
    335    714    694    695     1  0.0000000  0.0000000  2
    335    714    694    696     1  0.0000000  0.0000000  2
    336    739    719    720     1  0.0000000  0.0000000  2
    336    739    719    721     1  0.0000000  0.0000000  2
    337    335    714    715     1  0.0000000  8.3680000  1
    337    335    714    715     1  180.0000771  10.4600000  2
    338    336    739    740     1  0.0000000  8.3680000  1
    338    336    739    740     1  180.0000771  10.4600000  2
    341    344    364    365     1  0.0000000  0.0000000  2
    341    347    348    349     1  0.0000000  1.2552000  3
    341    347    348    350     1  0.0000000  1.2552000  3
    341    347    351    352     1  0.0000000  1.2552000  3
    341    347    351    353     1  0.0000000  1.2552000  3
    342    341    344    364     1  0.0000000  0.6508444  3
    342    341    344    345     1  0.0000000  0.6508444  3
    342    341    344    346     1  0.0000000  0.6508444  3
    342    341    347    348     1  0.0000000  1.2552000  3
    342    341    347    351     1  0.0000000  1.2552000  3
    343    341    344    364     1  0.0000000  0.6508444  3
    343    341    344    345     1  0.0000000  0.6508444  3
    343    341    344    346     1  0.0000000  0.6508444  3
    343    341    347    348     1  0.0000000  1.2552000  3
    343    341    347    351     1  0.0000000  1.2552000  3
    345    344    341    347     1  0.0000000  0.6508444  3
    345    344    364    365     1  0.0000000  0.0000000  2
    346    344    341    347     1  0.0000000  0.6508444  3
    346    344    364    365     1  0.0000000  0.0000000  2
    347    348    357    358     1  0.0000000  0.6508444  3
    347    348    357    359     1  0.0000000  0.6508444  3
    347    351    354    355     1  0.0000000  0.6508444  3
    347    351    354    356     1  0.0000000  0.6508444  3
    348    347    351    352     1  0.0000000  1.2552000  3
    348    347    351    353     1  0.0000000  1.2552000  3
    349    348    347    351     1  0.0000000  1.2552000  3
    349    348    357    361     1  0.0000000  0.6508444  3
    349    348    357    358     1  0.0000000  0.6508444  3
    349    348    357    359     1  0.0000000  0.6508444  3
    350    348    347    351     1  0.0000000  1.2552000  3
    350    348    357    361     1  0.0000000  0.6508444  3
    350    348    357    358     1  0.0000000  0.6508444  3
    350    348    357    359     1  0.0000000  0.6508444  3
    352    351    354    360     1  0.0000000  0.6508444  3
    352    351    354    355     1  0.0000000  0.6508444  3
    352    351    354    356     1  0.0000000  0.6508444  3
    353    351    354    360     1  0.0000000  0.6508444  3
    353    351    354    355     1  0.0000000  0.6508444  3
    353    351    354    356     1  0.0000000  0.6508444  3
    354    360    741    742     1  180.0000771  10.4600000  2
    355    354    360    741     1  180.0000771  0.0000000  2
    355    354    360    362     1  0.0000000  3.3472000  1
    355    354    360    362     1  0.0000000  0.0000000  2
    355    354    360    362     1  180.0000771  0.3347200  3
    356    354    360    741     1  180.0000771  0.0000000  2
    356    354    360    362     1  0.0000000  3.3472000  1
    356    354    360    362     1  0.0000000  0.0000000  2
    356    354    360    362     1  180.0000771  0.3347200  3
    357    361    768    769     1  180.0000771  10.4600000  2
    358    357    361    363     1  0.0000000  3.3472000  1
    358    357    361    363     1  0.0000000  0.0000000  2
    358    357    361    363     1  180.0000771  0.3347200  3
    358    357    361    768     1  180.0000771  0.0000000  2
    359    357    361    363     1  0.0000000  3.3472000  1
    359    357    361    363     1  0.0000000  0.0000000  2
    359    357    361    363     1  180.0000771  0.3347200  3
    359    357    361    768     1  180.0000771  0.0000000  2
    360    741    743    744     1  0.0000000  0.0000000  2
    360    741    743    746     1  0.0000000  0.0000000  2
    361    768    770    771     1  0.0000000  0.0000000  2
    361    768    770    773     1  0.0000000  0.0000000  2
    362    360    741    742     1  0.0000000  8.3680000  1
    362    360    741    742     1  180.0000771  10.4600000  2
    363    361    768    769     1  0.0000000  8.3680000  1
    363    361    768    769     1  180.0000771  10.4600000  2
    366    369    389    390     1  0.0000000  0.0000000  2
    366    372    373    374     1  0.0000000  1.2552000  3
    366    372    373    375     1  0.0000000  1.2552000  3
    366    372    376    377     1  0.0000000  1.2552000  3
    366    372    376    378     1  0.0000000  1.2552000  3
    367    366    369    389     1  0.0000000  0.6508444  3
    367    366    369    370     1  0.0000000  0.6508444  3
    367    366    369    371     1  0.0000000  0.6508444  3
    367    366    372    373     1  0.0000000  1.2552000  3
    367    366    372    376     1  0.0000000  1.2552000  3
    368    366    369    389     1  0.0000000  0.6508444  3
    368    366    369    370     1  0.0000000  0.6508444  3
    368    366    369    371     1  0.0000000  0.6508444  3
    368    366    372    373     1  0.0000000  1.2552000  3
    368    366    372    376     1  0.0000000  1.2552000  3
    370    369    366    372     1  0.0000000  0.6508444  3
    370    369    389    390     1  0.0000000  0.0000000  2
    371    369    366    372     1  0.0000000  0.6508444  3
    371    369    389    390     1  0.0000000  0.0000000  2
    372    373    382    383     1  0.0000000  0.6508444  3
    372    373    382    384     1  0.0000000  0.6508444  3
    372    376    379    380     1  0.0000000  0.6508444  3
    372    376    379    381     1  0.0000000  0.6508444  3
    373    372    376    377     1  0.0000000  1.2552000  3
    373    372    376    378     1  0.0000000  1.2552000  3
    374    373    372    376     1  0.0000000  1.2552000  3
    374    373    382    386     1  0.0000000  0.6508444  3
    374    373    382    383     1  0.0000000  0.6508444  3
    374    373    382    384     1  0.0000000  0.6508444  3
    375    373    372    376     1  0.0000000  1.2552000  3
    375    373    382    386     1  0.0000000  0.6508444  3
    375    373    382    383     1  0.0000000  0.6508444  3
    375    373    382    384     1  0.0000000  0.6508444  3
    377    376    379    385     1  0.0000000  0.6508444  3
    377    376    379    380     1  0.0000000  0.6508444  3
    377    376    379    381     1  0.0000000  0.6508444  3
    378    376    379    385     1  0.0000000  0.6508444  3
    378    376    379    380     1  0.0000000  0.6508444  3
    378    376    379    381     1  0.0000000  0.6508444  3
    379    385    795    796     1  180.0000771  10.4600000  2
    380    379    385    795     1  180.0000771  0.0000000  2
    380    379    385    387     1  0.0000000  3.3472000  1
    380    379    385    387     1  0.0000000  0.0000000  2
    380    379    385    387     1  180.0000771  0.3347200  3
    381    379    385    795     1  180.0000771  0.0000000  2
    381    379    385    387     1  0.0000000  3.3472000  1
    381    379    385    387     1  0.0000000  0.0000000  2
    381    379    385    387     1  180.0000771  0.3347200  3
    382    386    822    823     1  180.0000771  10.4600000  2
    383    382    386    388     1  0.0000000  3.3472000  1
    383    382    386    388     1  0.0000000  0.0000000  2
    383    382    386    388     1  180.0000771  0.3347200  3
    383    382    386    822     1  180.0000771  0.0000000  2
    384    382    386    388     1  0.0000000  3.3472000  1
    384    382    386    388     1  0.0000000  0.0000000  2
    384    382    386    388     1  180.0000771  0.3347200  3
    384    382    386    822     1  180.0000771  0.0000000  2
    385    795    797    798     1  0.0000000  0.0000000  2
    385    795    797    800     1  0.0000000  0.0000000  2
    386    822    824    825     1  0.0000000  0.0000000  2
    386    822    824    827     1  0.0000000  0.0000000  2
    387    385    795    796     1  0.0000000  8.3680000  1
    387    385    795    796     1  180.0000771  10.4600000  2
    388    386    822    823     1  0.0000000  8.3680000  1
    388    386    822    823     1  180.0000771  10.4600000  2
    391    394    414    415     1  0.0000000  0.0000000  2
    391    397    398    399     1  0.0000000  1.2552000  3
    391    397    398    400     1  0.0000000  1.2552000  3
    391    397    401    402     1  0.0000000  1.2552000  3
    391    397    401    403     1  0.0000000  1.2552000  3
    392    391    394    414     1  0.0000000  0.6508444  3
    392    391    394    395     1  0.0000000  0.6508444  3
    392    391    394    396     1  0.0000000  0.6508444  3
    392    391    397    398     1  0.0000000  1.2552000  3
    392    391    397    401     1  0.0000000  1.2552000  3
    393    391    394    414     1  0.0000000  0.6508444  3
    393    391    394    395     1  0.0000000  0.6508444  3
    393    391    394    396     1  0.0000000  0.6508444  3
    393    391    397    398     1  0.0000000  1.2552000  3
    393    391    397    401     1  0.0000000  1.2552000  3
    395    394    391    397     1  0.0000000  0.6508444  3
    395    394    414    415     1  0.0000000  0.0000000  2
    396    394    391    397     1  0.0000000  0.6508444  3
    396    394    414    415     1  0.0000000  0.0000000  2
    397    398    407    408     1  0.0000000  0.6508444  3
    397    398    407    409     1  0.0000000  0.6508444  3
    397    401    404    405     1  0.0000000  0.6508444  3
    397    401    404    406     1  0.0000000  0.6508444  3
    398    397    401    402     1  0.0000000  1.2552000  3
    398    397    401    403     1  0.0000000  1.2552000  3
    399    398    397    401     1  0.0000000  1.2552000  3
    399    398    407    411     1  0.0000000  0.6508444  3
    399    398    407    408     1  0.0000000  0.6508444  3
    399    398    407    409     1  0.0000000  0.6508444  3
    400    398    397    401     1  0.0000000  1.2552000  3
    400    398    407    411     1  0.0000000  0.6508444  3
    400    398    407    408     1  0.0000000  0.6508444  3
    400    398    407    409     1  0.0000000  0.6508444  3
    402    401    404    410     1  0.0000000  0.6508444  3
    402    401    404    405     1  0.0000000  0.6508444  3
    402    401    404    406     1  0.0000000  0.6508444  3
    403    401    404    410     1  0.0000000  0.6508444  3
    403    401    404    405     1  0.0000000  0.6508444  3
    403    401    404    406     1  0.0000000  0.6508444  3
    404    410    849    850     1  180.0000771  10.4600000  2
    405    404    410    849     1  180.0000771  0.0000000  2
    405    404    410    412     1  0.0000000  3.3472000  1
    405    404    410    412     1  0.0000000  0.0000000  2
    405    404    410    412     1  180.0000771  0.3347200  3
    406    404    410    849     1  180.0000771  0.0000000  2
    406    404    410    412     1  0.0000000  3.3472000  1
    406    404    410    412     1  0.0000000  0.0000000  2
    406    404    410    412     1  180.0000771  0.3347200  3
    407    411    876    877     1  180.0000771  10.4600000  2
    408    407    411    413     1  0.0000000  3.3472000  1
    408    407    411    413     1  0.0000000  0.0000000  2
    408    407    411    413     1  180.0000771  0.3347200  3
    408    407    411    876     1  180.0000771  0.0000000  2
    409    407    411    413     1  0.0000000  3.3472000  1
    409    407    411    413     1  0.0000000  0.0000000  2
    409    407    411    413     1  180.0000771  0.3347200  3
    409    407    411    876     1  180.0000771  0.0000000  2
    410    849    851    852     1  0.0000000  0.0000000  2
    410    849    851    854     1  0.0000000  0.0000000  2
    411    876    878    879     1  0.0000000  0.0000000  2
    411    876    878    881     1  0.0000000  0.0000000  2
    412    410    849    850     1  0.0000000  8.3680000  1
    412    410    849    850     1  180.0000771  10.4600000  2
    413    411    876    877     1  0.0000000  8.3680000  1
    413    411    876    877     1  180.0000771  10.4600000  2
    416    419    439    440     1  0.0000000  0.0000000  2
    416    422    423    424     1  0.0000000  1.2552000  3
    416    422    423    425     1  0.0000000  1.2552000  3
    416    422    426    427     1  0.0000000  1.2552000  3
    416    422    426    428     1  0.0000000  1.2552000  3
    417    416    419    439     1  0.0000000  0.6508444  3
    417    416    419    420     1  0.0000000  0.6508444  3
    417    416    419    421     1  0.0000000  0.6508444  3
    417    416    422    423     1  0.0000000  1.2552000  3
    417    416    422    426     1  0.0000000  1.2552000  3
    418    416    419    439     1  0.0000000  0.6508444  3
    418    416    419    420     1  0.0000000  0.6508444  3
    418    416    419    421     1  0.0000000  0.6508444  3
    418    416    422    423     1  0.0000000  1.2552000  3
    418    416    422    426     1  0.0000000  1.2552000  3
    420    419    416    422     1  0.0000000  0.6508444  3
    420    419    439    440     1  0.0000000  0.0000000  2
    421    419    416    422     1  0.0000000  0.6508444  3
    421    419    439    440     1  0.0000000  0.0000000  2
    422    423    432    433     1  0.0000000  0.6508444  3
    422    423    432    434     1  0.0000000  0.6508444  3
    422    426    429    430     1  0.0000000  0.6508444  3
    422    426    429    431     1  0.0000000  0.6508444  3
    423    422    426    427     1  0.0000000  1.2552000  3
    423    422    426    428     1  0.0000000  1.2552000  3
    424    423    422    426     1  0.0000000  1.2552000  3
    424    423    432    436     1  0.0000000  0.6508444  3
    424    423    432    433     1  0.0000000  0.6508444  3
    424    423    432    434     1  0.0000000  0.6508444  3
    425    423    422    426     1  0.0000000  1.2552000  3
    425    423    432    436     1  0.0000000  0.6508444  3
    425    423    432    433     1  0.0000000  0.6508444  3
    425    423    432    434     1  0.0000000  0.6508444  3
    427    426    429    435     1  0.0000000  0.6508444  3
    427    426    429    430     1  0.0000000  0.6508444  3
    427    426    429    431     1  0.0000000  0.6508444  3
    428    426    429    435     1  0.0000000  0.6508444  3
    428    426    429    430     1  0.0000000  0.6508444  3
    428    426    429    431     1  0.0000000  0.6508444  3
    429    435    903    904     1  180.0000771  10.4600000  2
    430    429    435    903     1  180.0000771  0.0000000  2
    430    429    435    437     1  0.0000000  3.3472000  1
    430    429    435    437     1  0.0000000  0.0000000  2
    430    429    435    437     1  180.0000771  0.3347200  3
    431    429    435    903     1  180.0000771  0.0000000  2
    431    429    435    437     1  0.0000000  3.3472000  1
    431    429    435    437     1  0.0000000  0.0000000  2
    431    429    435    437     1  180.0000771  0.3347200  3
    432    436    930    931     1  180.0000771  10.4600000  2
    433    432    436    438     1  0.0000000  3.3472000  1
    433    432    436    438     1  0.0000000  0.0000000  2
    433    432    436    438     1  180.0000771  0.3347200  3
    433    432    436    930     1  180.0000771  0.0000000  2
    434    432    436    438     1  0.0000000  3.3472000  1
    434    432    436    438     1  0.0000000  0.0000000  2
    434    432    436    438     1  180.0000771  0.3347200  3
    434    432    436    930     1  180.0000771  0.0000000  2
    435    903    905    906     1  0.0000000  0.0000000  2
    435    903    905    908     1  0.0000000  0.0000000  2
    436    930    932    933     1  0.0000000  0.0000000  2
    436    930    932    935     1  0.0000000  0.0000000  2
    437    435    903    904     1  0.0000000  8.3680000  1
    437    435    903    904     1  180.0000771  10.4600000  2
    438    436    930    931     1  0.0000000  8.3680000  1
    438    436    930    931     1  180.0000771  10.4600000  2
    441    444    464    465     1  0.0000000  0.0000000  2
    441    447    448    449     1  0.0000000  1.2552000  3
    441    447    448    450     1  0.0000000  1.2552000  3
    441    447    451    452     1  0.0000000  1.2552000  3
    441    447    451    453     1  0.0000000  1.2552000  3
    442    441    444    464     1  0.0000000  0.6508444  3
    442    441    444    445     1  0.0000000  0.6508444  3
    442    441    444    446     1  0.0000000  0.6508444  3
    442    441    447    448     1  0.0000000  1.2552000  3
    442    441    447    451     1  0.0000000  1.2552000  3
    443    441    444    464     1  0.0000000  0.6508444  3
    443    441    444    445     1  0.0000000  0.6508444  3
    443    441    444    446     1  0.0000000  0.6508444  3
    443    441    447    448     1  0.0000000  1.2552000  3
    443    441    447    451     1  0.0000000  1.2552000  3
    445    444    441    447     1  0.0000000  0.6508444  3
    445    444    464    465     1  0.0000000  0.0000000  2
    446    444    441    447     1  0.0000000  0.6508444  3
    446    444    464    465     1  0.0000000  0.0000000  2
    447    448    457    458     1  0.0000000  0.6508444  3
    447    448    457    459     1  0.0000000  0.6508444  3
    447    451    454    455     1  0.0000000  0.6508444  3
    447    451    454    456     1  0.0000000  0.6508444  3
    448    447    451    452     1  0.0000000  1.2552000  3
    448    447    451    453     1  0.0000000  1.2552000  3
    449    448    447    451     1  0.0000000  1.2552000  3
    449    448    457    461     1  0.0000000  0.6508444  3
    449    448    457    458     1  0.0000000  0.6508444  3
    449    448    457    459     1  0.0000000  0.6508444  3
    450    448    447    451     1  0.0000000  1.2552000  3
    450    448    457    461     1  0.0000000  0.6508444  3
    450    448    457    458     1  0.0000000  0.6508444  3
    450    448    457    459     1  0.0000000  0.6508444  3
    452    451    454    460     1  0.0000000  0.6508444  3
    452    451    454    455     1  0.0000000  0.6508444  3
    452    451    454    456     1  0.0000000  0.6508444  3
    453    451    454    460     1  0.0000000  0.6508444  3
    453    451    454    455     1  0.0000000  0.6508444  3
    453    451    454    456     1  0.0000000  0.6508444  3
    454    460    957    958     1  180.0000771  10.4600000  2
    455    454    460    957     1  180.0000771  0.0000000  2
    455    454    460    462     1  0.0000000  3.3472000  1
    455    454    460    462     1  0.0000000  0.0000000  2
    455    454    460    462     1  180.0000771  0.3347200  3
    456    454    460    957     1  180.0000771  0.0000000  2
    456    454    460    462     1  0.0000000  3.3472000  1
    456    454    460    462     1  0.0000000  0.0000000  2
    456    454    460    462     1  180.0000771  0.3347200  3
    457    461    984    985     1  180.0000771  10.4600000  2
    458    457    461    463     1  0.0000000  3.3472000  1
    458    457    461    463     1  0.0000000  0.0000000  2
    458    457    461    463     1  180.0000771  0.3347200  3
    458    457    461    984     1  180.0000771  0.0000000  2
    459    457    461    463     1  0.0000000  3.3472000  1
    459    457    461    463     1  0.0000000  0.0000000  2
    459    457    461    463     1  180.0000771  0.3347200  3
    459    457    461    984     1  180.0000771  0.0000000  2
    460    957    959    960     1  0.0000000  0.0000000  2
    460    957    959    962     1  0.0000000  0.0000000  2
    461    984    986    987     1  0.0000000  0.0000000  2
    461    984    986    989     1  0.0000000  0.0000000  2
    462    460    957    958     1  0.0000000  8.3680000  1
    462    460    957    958     1  180.0000771  10.4600000  2
    463    461    984    985     1  0.0000000  8.3680000  1
    463    461    984    985     1  180.0000771  10.4600000  2
    466    469    489    490     1  0.0000000  0.0000000  2
    466    472    473    474     1  0.0000000  1.2552000  3
    466    472    473    475     1  0.0000000  1.2552000  3
    466    472    476    477     1  0.0000000  1.2552000  3
    466    472    476    478     1  0.0000000  1.2552000  3
    467    466    469    489     1  0.0000000  0.6508444  3
    467    466    469    470     1  0.0000000  0.6508444  3
    467    466    469    471     1  0.0000000  0.6508444  3
    467    466    472    473     1  0.0000000  1.2552000  3
    467    466    472    476     1  0.0000000  1.2552000  3
    468    466    469    489     1  0.0000000  0.6508444  3
    468    466    469    470     1  0.0000000  0.6508444  3
    468    466    469    471     1  0.0000000  0.6508444  3
    468    466    472    473     1  0.0000000  1.2552000  3
    468    466    472    476     1  0.0000000  1.2552000  3
    470    469    466    472     1  0.0000000  0.6508444  3
    470    469    489    490     1  0.0000000  0.0000000  2
    471    469    466    472     1  0.0000000  0.6508444  3
    471    469    489    490     1  0.0000000  0.0000000  2
    472    473    482    483     1  0.0000000  0.6508444  3
    472    473    482    484     1  0.0000000  0.6508444  3
    472    476    479    480     1  0.0000000  0.6508444  3
    472    476    479    481     1  0.0000000  0.6508444  3
    473    472    476    477     1  0.0000000  1.2552000  3
    473    472    476    478     1  0.0000000  1.2552000  3
    474    473    472    476     1  0.0000000  1.2552000  3
    474    473    482    486     1  0.0000000  0.6508444  3
    474    473    482    483     1  0.0000000  0.6508444  3
    474    473    482    484     1  0.0000000  0.6508444  3
    475    473    472    476     1  0.0000000  1.2552000  3
    475    473    482    486     1  0.0000000  0.6508444  3
    475    473    482    483     1  0.0000000  0.6508444  3
    475    473    482    484     1  0.0000000  0.6508444  3
    477    476    479    485     1  0.0000000  0.6508444  3
    477    476    479    480     1  0.0000000  0.6508444  3
    477    476    479    481     1  0.0000000  0.6508444  3
    478    476    479    485     1  0.0000000  0.6508444  3
    478    476    479    480     1  0.0000000  0.6508444  3
    478    476    479    481     1  0.0000000  0.6508444  3
    479    485   1011   1012     1  180.0000771  10.4600000  2
    480    479    485   1011     1  180.0000771  0.0000000  2
    480    479    485    487     1  0.0000000  3.3472000  1
    480    479    485    487     1  0.0000000  0.0000000  2
    480    479    485    487     1  180.0000771  0.3347200  3
    481    479    485   1011     1  180.0000771  0.0000000  2
    481    479    485    487     1  0.0000000  3.3472000  1
    481    479    485    487     1  0.0000000  0.0000000  2
    481    479    485    487     1  180.0000771  0.3347200  3
    482    486   1038   1039     1  180.0000771  10.4600000  2
    483    482    486    488     1  0.0000000  3.3472000  1
    483    482    486    488     1  0.0000000  0.0000000  2
    483    482    486    488     1  180.0000771  0.3347200  3
    483    482    486   1038     1  180.0000771  0.0000000  2
    484    482    486    488     1  0.0000000  3.3472000  1
    484    482    486    488     1  0.0000000  0.0000000  2
    484    482    486    488     1  180.0000771  0.3347200  3
    484    482    486   1038     1  180.0000771  0.0000000  2
    485   1011   1013   1014     1  0.0000000  0.0000000  2
    485   1011   1013   1016     1  0.0000000  0.0000000  2
    486   1038   1040   1041     1  0.0000000  0.0000000  2
    486   1038   1040   1043     1  0.0000000  0.0000000  2
    487    485   1011   1012     1  0.0000000  8.3680000  1
    487    485   1011   1012     1  180.0000771  10.4600000  2
    488    486   1038   1039     1  0.0000000  8.3680000  1
    488    486   1038   1039     1  180.0000771  10.4600000  2
    491    494    514    515     1  0.0000000  0.0000000  2
    491    497    498    499     1  0.0000000  1.2552000  3
    491    497    498    500     1  0.0000000  1.2552000  3
    491    497    501    502     1  0.0000000  1.2552000  3
    491    497    501    503     1  0.0000000  1.2552000  3
    492    491    494    514     1  0.0000000  0.6508444  3
    492    491    494    495     1  0.0000000  0.6508444  3
    492    491    494    496     1  0.0000000  0.6508444  3
    492    491    497    498     1  0.0000000  1.2552000  3
    492    491    497    501     1  0.0000000  1.2552000  3
    493    491    494    514     1  0.0000000  0.6508444  3
    493    491    494    495     1  0.0000000  0.6508444  3
    493    491    494    496     1  0.0000000  0.6508444  3
    493    491    497    498     1  0.0000000  1.2552000  3
    493    491    497    501     1  0.0000000  1.2552000  3
    495    494    491    497     1  0.0000000  0.6508444  3
    495    494    514    515     1  0.0000000  0.0000000  2
    496    494    491    497     1  0.0000000  0.6508444  3
    496    494    514    515     1  0.0000000  0.0000000  2
    497    498    507    508     1  0.0000000  0.6508444  3
    497    498    507    509     1  0.0000000  0.6508444  3
    497    501    504    505     1  0.0000000  0.6508444  3
    497    501    504    506     1  0.0000000  0.6508444  3
    498    497    501    502     1  0.0000000  1.2552000  3
    498    497    501    503     1  0.0000000  1.2552000  3
    499    498    497    501     1  0.0000000  1.2552000  3
    499    498    507    511     1  0.0000000  0.6508444  3
    499    498    507    508     1  0.0000000  0.6508444  3
    499    498    507    509     1  0.0000000  0.6508444  3
    500    498    497    501     1  0.0000000  1.2552000  3
    500    498    507    511     1  0.0000000  0.6508444  3
    500    498    507    508     1  0.0000000  0.6508444  3
    500    498    507    509     1  0.0000000  0.6508444  3
    502    501    504    510     1  0.0000000  0.6508444  3
    502    501    504    505     1  0.0000000  0.6508444  3
    502    501    504    506     1  0.0000000  0.6508444  3
    503    501    504    510     1  0.0000000  0.6508444  3
    503    501    504    505     1  0.0000000  0.6508444  3
    503    501    504    506     1  0.0000000  0.6508444  3
    504    510   1065   1066     1  180.0000771  10.4600000  2
    505    504    510   1065     1  180.0000771  0.0000000  2
    505    504    510    512     1  0.0000000  3.3472000  1
    505    504    510    512     1  0.0000000  0.0000000  2
    505    504    510    512     1  180.0000771  0.3347200  3
    506    504    510   1065     1  180.0000771  0.0000000  2
    506    504    510    512     1  0.0000000  3.3472000  1
    506    504    510    512     1  0.0000000  0.0000000  2
    506    504    510    512     1  180.0000771  0.3347200  3
    507    511   1092   1093     1  180.0000771  10.4600000  2
    508    507    511    513     1  0.0000000  3.3472000  1
    508    507    511    513     1  0.0000000  0.0000000  2
    508    507    511    513     1  180.0000771  0.3347200  3
    508    507    511   1092     1  180.0000771  0.0000000  2
    509    507    511    513     1  0.0000000  3.3472000  1
    509    507    511    513     1  0.0000000  0.0000000  2
    509    507    511    513     1  180.0000771  0.3347200  3
    509    507    511   1092     1  180.0000771  0.0000000  2
    510   1065   1067   1068     1  0.0000000  0.0000000  2
    510   1065   1067   1070     1  0.0000000  0.0000000  2
    511   1092   1094   1095     1  0.0000000  0.0000000  2
    511   1092   1094   1097     1  0.0000000  0.0000000  2
    512    510   1065   1066     1  0.0000000  8.3680000  1
    512    510   1065   1066     1  180.0000771  10.4600000  2
    513    511   1092   1093     1  0.0000000  8.3680000  1
    513    511   1092   1093     1  180.0000771  10.4600000  2
    516    519    539    540     1  0.0000000  0.0000000  2
    516    522    523    524     1  0.0000000  1.2552000  3
    516    522    523    525     1  0.0000000  1.2552000  3
    516    522    526    527     1  0.0000000  1.2552000  3
    516    522    526    528     1  0.0000000  1.2552000  3
    517    516    519    539     1  0.0000000  0.6508444  3
    517    516    519    520     1  0.0000000  0.6508444  3
    517    516    519    521     1  0.0000000  0.6508444  3
    517    516    522    523     1  0.0000000  1.2552000  3
    517    516    522    526     1  0.0000000  1.2552000  3
    518    516    519    539     1  0.0000000  0.6508444  3
    518    516    519    520     1  0.0000000  0.6508444  3
    518    516    519    521     1  0.0000000  0.6508444  3
    518    516    522    523     1  0.0000000  1.2552000  3
    518    516    522    526     1  0.0000000  1.2552000  3
    520    519    516    522     1  0.0000000  0.6508444  3
    520    519    539    540     1  0.0000000  0.0000000  2
    521    519    516    522     1  0.0000000  0.6508444  3
    521    519    539    540     1  0.0000000  0.0000000  2
    522    523    532    533     1  0.0000000  0.6508444  3
    522    523    532    534     1  0.0000000  0.6508444  3
    522    526    529    530     1  0.0000000  0.6508444  3
    522    526    529    531     1  0.0000000  0.6508444  3
    523    522    526    527     1  0.0000000  1.2552000  3
    523    522    526    528     1  0.0000000  1.2552000  3
    524    523    522    526     1  0.0000000  1.2552000  3
    524    523    532    536     1  0.0000000  0.6508444  3
    524    523    532    533     1  0.0000000  0.6508444  3
    524    523    532    534     1  0.0000000  0.6508444  3
    525    523    522    526     1  0.0000000  1.2552000  3
    525    523    532    536     1  0.0000000  0.6508444  3
    525    523    532    533     1  0.0000000  0.6508444  3
    525    523    532    534     1  0.0000000  0.6508444  3
    527    526    529    535     1  0.0000000  0.6508444  3
    527    526    529    530     1  0.0000000  0.6508444  3
    527    526    529    531     1  0.0000000  0.6508444  3
    528    526    529    535     1  0.0000000  0.6508444  3
    528    526    529    530     1  0.0000000  0.6508444  3
    528    526    529    531     1  0.0000000  0.6508444  3
    529    535   1119   1120     1  180.0000771  10.4600000  2
    530    529    535   1119     1  180.0000771  0.0000000  2
    530    529    535    537     1  0.0000000  3.3472000  1
    530    529    535    537     1  0.0000000  0.0000000  2
    530    529    535    537     1  180.0000771  0.3347200  3
    531    529    535   1119     1  180.0000771  0.0000000  2
    531    529    535    537     1  0.0000000  3.3472000  1
    531    529    535    537     1  0.0000000  0.0000000  2
    531    529    535    537     1  180.0000771  0.3347200  3
    532    536   1146   1147     1  180.0000771  10.4600000  2
    533    532    536    538     1  0.0000000  3.3472000  1
    533    532    536    538     1  0.0000000  0.0000000  2
    533    532    536    538     1  180.0000771  0.3347200  3
    533    532    536   1146     1  180.0000771  0.0000000  2
    534    532    536    538     1  0.0000000  3.3472000  1
    534    532    536    538     1  0.0000000  0.0000000  2
    534    532    536    538     1  180.0000771  0.3347200  3
    534    532    536   1146     1  180.0000771  0.0000000  2
    535   1119   1121   1122     1  0.0000000  0.0000000  2
    535   1119   1121   1124     1  0.0000000  0.0000000  2
    536   1146   1148   1149     1  0.0000000  0.0000000  2
    536   1146   1148   1151     1  0.0000000  0.0000000  2
    537    535   1119   1120     1  0.0000000  8.3680000  1
    537    535   1119   1120     1  180.0000771  10.4600000  2
    538    536   1146   1147     1  0.0000000  8.3680000  1
    538    536   1146   1147     1  180.0000771  10.4600000  2
    541    544    564    565     1  0.0000000  0.0000000  2
    541    547    548    549     1  0.0000000  1.2552000  3
    541    547    548    550     1  0.0000000  1.2552000  3
    541    547    551    552     1  0.0000000  1.2552000  3
    541    547    551    553     1  0.0000000  1.2552000  3
    542    541    544    564     1  0.0000000  0.6508444  3
    542    541    544    545     1  0.0000000  0.6508444  3
    542    541    544    546     1  0.0000000  0.6508444  3
    542    541    547    548     1  0.0000000  1.2552000  3
    542    541    547    551     1  0.0000000  1.2552000  3
    543    541    544    564     1  0.0000000  0.6508444  3
    543    541    544    545     1  0.0000000  0.6508444  3
    543    541    544    546     1  0.0000000  0.6508444  3
    543    541    547    548     1  0.0000000  1.2552000  3
    543    541    547    551     1  0.0000000  1.2552000  3
    545    544    541    547     1  0.0000000  0.6508444  3
    545    544    564    565     1  0.0000000  0.0000000  2
    546    544    541    547     1  0.0000000  0.6508444  3
    546    544    564    565     1  0.0000000  0.0000000  2
    547    548    557    558     1  0.0000000  0.6508444  3
    547    548    557    559     1  0.0000000  0.6508444  3
    547    551    554    555     1  0.0000000  0.6508444  3
    547    551    554    556     1  0.0000000  0.6508444  3
    548    547    551    552     1  0.0000000  1.2552000  3
    548    547    551    553     1  0.0000000  1.2552000  3
    549    548    547    551     1  0.0000000  1.2552000  3
    549    548    557    561     1  0.0000000  0.6508444  3
    549    548    557    558     1  0.0000000  0.6508444  3
    549    548    557    559     1  0.0000000  0.6508444  3
    550    548    547    551     1  0.0000000  1.2552000  3
    550    548    557    561     1  0.0000000  0.6508444  3
    550    548    557    558     1  0.0000000  0.6508444  3
    550    548    557    559     1  0.0000000  0.6508444  3
    552    551    554    560     1  0.0000000  0.6508444  3
    552    551    554    555     1  0.0000000  0.6508444  3
    552    551    554    556     1  0.0000000  0.6508444  3
    553    551    554    560     1  0.0000000  0.6508444  3
    553    551    554    555     1  0.0000000  0.6508444  3
    553    551    554    556     1  0.0000000  0.6508444  3
    554    560   1173   1174     1  180.0000771  10.4600000  2
    555    554    560   1173     1  180.0000771  0.0000000  2
    555    554    560    562     1  0.0000000  3.3472000  1
    555    554    560    562     1  0.0000000  0.0000000  2
    555    554    560    562     1  180.0000771  0.3347200  3
    556    554    560   1173     1  180.0000771  0.0000000  2
    556    554    560    562     1  0.0000000  3.3472000  1
    556    554    560    562     1  0.0000000  0.0000000  2
    556    554    560    562     1  180.0000771  0.3347200  3
    557    561   1200   1201     1  180.0000771  10.4600000  2
    558    557    561    563     1  0.0000000  3.3472000  1
    558    557    561    563     1  0.0000000  0.0000000  2
    558    557    561    563     1  180.0000771  0.3347200  3
    558    557    561   1200     1  180.0000771  0.0000000  2
    559    557    561    563     1  0.0000000  3.3472000  1
    559    557    561    563     1  0.0000000  0.0000000  2
    559    557    561    563     1  180.0000771  0.3347200  3
    559    557    561   1200     1  180.0000771  0.0000000  2
    560   1173   1175   1176     1  0.0000000  0.0000000  2
    560   1173   1175   1178     1  0.0000000  0.0000000  2
    561   1200   1202   1203     1  0.0000000  0.0000000  2
    561   1200   1202   1205     1  0.0000000  0.0000000  2
    562    560   1173   1174     1  0.0000000  8.3680000  1
    562    560   1173   1174     1  180.0000771  10.4600000  2
    563    561   1200   1201     1  0.0000000  8.3680000  1
    563    561   1200   1201     1  180.0000771  10.4600000  2
    566    569    589    590     1  0.0000000  0.0000000  2
    566    572    573    574     1  0.0000000  1.2552000  3
    566    572    573    575     1  0.0000000  1.2552000  3
    566    572    576    577     1  0.0000000  1.2552000  3
    566    572    576    578     1  0.0000000  1.2552000  3
    567    566    569    589     1  0.0000000  0.6508444  3
    567    566    569    570     1  0.0000000  0.6508444  3
    567    566    569    571     1  0.0000000  0.6508444  3
    567    566    572    573     1  0.0000000  1.2552000  3
    567    566    572    576     1  0.0000000  1.2552000  3
    568    566    569    589     1  0.0000000  0.6508444  3
    568    566    569    570     1  0.0000000  0.6508444  3
    568    566    569    571     1  0.0000000  0.6508444  3
    568    566    572    573     1  0.0000000  1.2552000  3
    568    566    572    576     1  0.0000000  1.2552000  3
    570    569    566    572     1  0.0000000  0.6508444  3
    570    569    589    590     1  0.0000000  0.0000000  2
    571    569    566    572     1  0.0000000  0.6508444  3
    571    569    589    590     1  0.0000000  0.0000000  2
    572    573    582    583     1  0.0000000  0.6508444  3
    572    573    582    584     1  0.0000000  0.6508444  3
    572    576    579    580     1  0.0000000  0.6508444  3
    572    576    579    581     1  0.0000000  0.6508444  3
    573    572    576    577     1  0.0000000  1.2552000  3
    573    572    576    578     1  0.0000000  1.2552000  3
    574    573    572    576     1  0.0000000  1.2552000  3
    574    573    582    586     1  0.0000000  0.6508444  3
    574    573    582    583     1  0.0000000  0.6508444  3
    574    573    582    584     1  0.0000000  0.6508444  3
    575    573    572    576     1  0.0000000  1.2552000  3
    575    573    582    586     1  0.0000000  0.6508444  3
    575    573    582    583     1  0.0000000  0.6508444  3
    575    573    582    584     1  0.0000000  0.6508444  3
    577    576    579    585     1  0.0000000  0.6508444  3
    577    576    579    580     1  0.0000000  0.6508444  3
    577    576    579    581     1  0.0000000  0.6508444  3
    578    576    579    585     1  0.0000000  0.6508444  3
    578    576    579    580     1  0.0000000  0.6508444  3
    578    576    579    581     1  0.0000000  0.6508444  3
    579    585   1227   1228     1  180.0000771  10.4600000  2
    580    579    585   1227     1  180.0000771  0.0000000  2
    580    579    585    587     1  0.0000000  3.3472000  1
    580    579    585    587     1  0.0000000  0.0000000  2
    580    579    585    587     1  180.0000771  0.3347200  3
    581    579    585   1227     1  180.0000771  0.0000000  2
    581    579    585    587     1  0.0000000  3.3472000  1
    581    579    585    587     1  0.0000000  0.0000000  2
    581    579    585    587     1  180.0000771  0.3347200  3
    582    586   1254   1255     1  180.0000771  10.4600000  2
    583    582    586    588     1  0.0000000  3.3472000  1
    583    582    586    588     1  0.0000000  0.0000000  2
    583    582    586    588     1  180.0000771  0.3347200  3
    583    582    586   1254     1  180.0000771  0.0000000  2
    584    582    586    588     1  0.0000000  3.3472000  1
    584    582    586    588     1  0.0000000  0.0000000  2
    584    582    586    588     1  180.0000771  0.3347200  3
    584    582    586   1254     1  180.0000771  0.0000000  2
    585   1227   1229   1230     1  0.0000000  0.0000000  2
    585   1227   1229   1232     1  0.0000000  0.0000000  2
    586   1254   1256   1257     1  0.0000000  0.0000000  2
    586   1254   1256   1259     1  0.0000000  0.0000000  2
    587    585   1227   1228     1  0.0000000  8.3680000  1
    587    585   1227   1228     1  180.0000771  10.4600000  2
    588    586   1254   1255     1  0.0000000  8.3680000  1
    588    586   1254   1255     1  180.0000771  10.4600000  2
    591    594    614    615     1  0.0000000  0.0000000  2
    591    597    598    599     1  0.0000000  1.2552000  3
    591    597    598    600     1  0.0000000  1.2552000  3
    591    597    601    602     1  0.0000000  1.2552000  3
    591    597    601    603     1  0.0000000  1.2552000  3
    592    591    594    614     1  0.0000000  0.6508444  3
    592    591    594    595     1  0.0000000  0.6508444  3
    592    591    594    596     1  0.0000000  0.6508444  3
    592    591    597    598     1  0.0000000  1.2552000  3
    592    591    597    601     1  0.0000000  1.2552000  3
    593    591    594    614     1  0.0000000  0.6508444  3
    593    591    594    595     1  0.0000000  0.6508444  3
    593    591    594    596     1  0.0000000  0.6508444  3
    593    591    597    598     1  0.0000000  1.2552000  3
    593    591    597    601     1  0.0000000  1.2552000  3
    595    594    591    597     1  0.0000000  0.6508444  3
    595    594    614    615     1  0.0000000  0.0000000  2
    596    594    591    597     1  0.0000000  0.6508444  3
    596    594    614    615     1  0.0000000  0.0000000  2
    597    598    607    608     1  0.0000000  0.6508444  3
    597    598    607    609     1  0.0000000  0.6508444  3
    597    601    604    605     1  0.0000000  0.6508444  3
    597    601    604    606     1  0.0000000  0.6508444  3
    598    597    601    602     1  0.0000000  1.2552000  3
    598    597    601    603     1  0.0000000  1.2552000  3
    599    598    597    601     1  0.0000000  1.2552000  3
    599    598    607    611     1  0.0000000  0.6508444  3
    599    598    607    608     1  0.0000000  0.6508444  3
    599    598    607    609     1  0.0000000  0.6508444  3
    600    598    597    601     1  0.0000000  1.2552000  3
    600    598    607    611     1  0.0000000  0.6508444  3
    600    598    607    608     1  0.0000000  0.6508444  3
    600    598    607    609     1  0.0000000  0.6508444  3
    602    601    604    610     1  0.0000000  0.6508444  3
    602    601    604    605     1  0.0000000  0.6508444  3
    602    601    604    606     1  0.0000000  0.6508444  3
    603    601    604    610     1  0.0000000  0.6508444  3
    603    601    604    605     1  0.0000000  0.6508444  3
    603    601    604    606     1  0.0000000  0.6508444  3
    604    610   1281   1282     1  180.0000771  10.4600000  2
    605    604    610   1281     1  180.0000771  0.0000000  2
    605    604    610    612     1  0.0000000  3.3472000  1
    605    604    610    612     1  0.0000000  0.0000000  2
    605    604    610    612     1  180.0000771  0.3347200  3
    606    604    610   1281     1  180.0000771  0.0000000  2
    606    604    610    612     1  0.0000000  3.3472000  1
    606    604    610    612     1  0.0000000  0.0000000  2
    606    604    610    612     1  180.0000771  0.3347200  3
    607    611   1308   1309     1  180.0000771  10.4600000  2
    608    607    611    613     1  0.0000000  3.3472000  1
    608    607    611    613     1  0.0000000  0.0000000  2
    608    607    611    613     1  180.0000771  0.3347200  3
    608    607    611   1308     1  180.0000771  0.0000000  2
    609    607    611    613     1  0.0000000  3.3472000  1
    609    607    611    613     1  0.0000000  0.0000000  2
    609    607    611    613     1  180.0000771  0.3347200  3
    609    607    611   1308     1  180.0000771  0.0000000  2
    610   1281   1283   1284     1  0.0000000  0.0000000  2
    610   1281   1283   1286     1  0.0000000  0.0000000  2
    611   1308   1310   1311     1  0.0000000  0.0000000  2
    611   1308   1310   1313     1  0.0000000  0.0000000  2
    612    610   1281   1282     1  0.0000000  8.3680000  1
    612    610   1281   1282     1  180.0000771  10.4600000  2
    613    611   1308   1309     1  0.0000000  8.3680000  1
    613    611   1308   1309     1  180.0000771  10.4600000  2
    616    619    639    640     1  0.0000000  0.0000000  2
    616    622    623    624     1  0.0000000  1.2552000  3
    616    622    623    625     1  0.0000000  1.2552000  3
    616    622    626    627     1  0.0000000  1.2552000  3
    616    622    626    628     1  0.0000000  1.2552000  3
    617    616    619    639     1  0.0000000  0.6508444  3
    617    616    619    620     1  0.0000000  0.6508444  3
    617    616    619    621     1  0.0000000  0.6508444  3
    617    616    622    623     1  0.0000000  1.2552000  3
    617    616    622    626     1  0.0000000  1.2552000  3
    618    616    619    639     1  0.0000000  0.6508444  3
    618    616    619    620     1  0.0000000  0.6508444  3
    618    616    619    621     1  0.0000000  0.6508444  3
    618    616    622    623     1  0.0000000  1.2552000  3
    618    616    622    626     1  0.0000000  1.2552000  3
    620    619    616    622     1  0.0000000  0.6508444  3
    620    619    639    640     1  0.0000000  0.0000000  2
    621    619    616    622     1  0.0000000  0.6508444  3
    621    619    639    640     1  0.0000000  0.0000000  2
    622    623    632    633     1  0.0000000  0.6508444  3
    622    623    632    634     1  0.0000000  0.6508444  3
    622    626    629    630     1  0.0000000  0.6508444  3
    622    626    629    631     1  0.0000000  0.6508444  3
    623    622    626    627     1  0.0000000  1.2552000  3
    623    622    626    628     1  0.0000000  1.2552000  3
    624    623    622    626     1  0.0000000  1.2552000  3
    624    623    632    636     1  0.0000000  0.6508444  3
    624    623    632    633     1  0.0000000  0.6508444  3
    624    623    632    634     1  0.0000000  0.6508444  3
    625    623    622    626     1  0.0000000  1.2552000  3
    625    623    632    636     1  0.0000000  0.6508444  3
    625    623    632    633     1  0.0000000  0.6508444  3
    625    623    632    634     1  0.0000000  0.6508444  3
    627    626    629    635     1  0.0000000  0.6508444  3
    627    626    629    630     1  0.0000000  0.6508444  3
    627    626    629    631     1  0.0000000  0.6508444  3
    628    626    629    635     1  0.0000000  0.6508444  3
    628    626    629    630     1  0.0000000  0.6508444  3
    628    626    629    631     1  0.0000000  0.6508444  3
    629    635   1335   1336     1  180.0000771  10.4600000  2
    630    629    635   1335     1  180.0000771  0.0000000  2
    630    629    635    637     1  0.0000000  3.3472000  1
    630    629    635    637     1  0.0000000  0.0000000  2
    630    629    635    637     1  180.0000771  0.3347200  3
    631    629    635   1335     1  180.0000771  0.0000000  2
    631    629    635    637     1  0.0000000  3.3472000  1
    631    629    635    637     1  0.0000000  0.0000000  2
    631    629    635    637     1  180.0000771  0.3347200  3
    632    636   1362   1363     1  180.0000771  10.4600000  2
    633    632    636    638     1  0.0000000  3.3472000  1
    633    632    636    638     1  0.0000000  0.0000000  2
    633    632    636    638     1  180.0000771  0.3347200  3
    633    632    636   1362     1  180.0000771  0.0000000  2
    634    632    636    638     1  0.0000000  3.3472000  1
    634    632    636    638     1  0.0000000  0.0000000  2
    634    632    636    638     1  180.0000771  0.3347200  3
    634    632    636   1362     1  180.0000771  0.0000000  2
    635   1335   1337   1338     1  0.0000000  0.0000000  2
    635   1335   1337   1340     1  0.0000000  0.0000000  2
    636   1362   1364   1365     1  0.0000000  0.0000000  2
    636   1362   1364   1367     1  0.0000000  0.0000000  2
    637    635   1335   1336     1  0.0000000  8.3680000  1
    637    635   1335   1336     1  180.0000771  10.4600000  2
    638    636   1362   1363     1  0.0000000  8.3680000  1
    638    636   1362   1363     1  180.0000771  10.4600000  2
    641    644    664    665     1  0.0000000  0.0000000  2
    641    647    648    649     1  0.0000000  1.2552000  3
    641    647    648    650     1  0.0000000  1.2552000  3
    641    647    651    652     1  0.0000000  1.2552000  3
    641    647    651    653     1  0.0000000  1.2552000  3
    642    641    644    664     1  0.0000000  0.6508444  3
    642    641    644    645     1  0.0000000  0.6508444  3
    642    641    644    646     1  0.0000000  0.6508444  3
    642    641    647    648     1  0.0000000  1.2552000  3
    642    641    647    651     1  0.0000000  1.2552000  3
    643    641    644    664     1  0.0000000  0.6508444  3
    643    641    644    645     1  0.0000000  0.6508444  3
    643    641    644    646     1  0.0000000  0.6508444  3
    643    641    647    648     1  0.0000000  1.2552000  3
    643    641    647    651     1  0.0000000  1.2552000  3
    645    644    641    647     1  0.0000000  0.6508444  3
    645    644    664    665     1  0.0000000  0.0000000  2
    646    644    641    647     1  0.0000000  0.6508444  3
    646    644    664    665     1  0.0000000  0.0000000  2
    647    648    657    658     1  0.0000000  0.6508444  3
    647    648    657    659     1  0.0000000  0.6508444  3
    647    651    654    655     1  0.0000000  0.6508444  3
    647    651    654    656     1  0.0000000  0.6508444  3
    648    647    651    652     1  0.0000000  1.2552000  3
    648    647    651    653     1  0.0000000  1.2552000  3
    649    648    647    651     1  0.0000000  1.2552000  3
    649    648    657    661     1  0.0000000  0.6508444  3
    649    648    657    658     1  0.0000000  0.6508444  3
    649    648    657    659     1  0.0000000  0.6508444  3
    650    648    647    651     1  0.0000000  1.2552000  3
    650    648    657    661     1  0.0000000  0.6508444  3
    650    648    657    658     1  0.0000000  0.6508444  3
    650    648    657    659     1  0.0000000  0.6508444  3
    652    651    654    660     1  0.0000000  0.6508444  3
    652    651    654    655     1  0.0000000  0.6508444  3
    652    651    654    656     1  0.0000000  0.6508444  3
    653    651    654    660     1  0.0000000  0.6508444  3
    653    651    654    655     1  0.0000000  0.6508444  3
    653    651    654    656     1  0.0000000  0.6508444  3
    654    660   1389   1390     1  180.0000771  10.4600000  2
    655    654    660   1389     1  180.0000771  0.0000000  2
    655    654    660    662     1  0.0000000  3.3472000  1
    655    654    660    662     1  0.0000000  0.0000000  2
    655    654    660    662     1  180.0000771  0.3347200  3
    656    654    660   1389     1  180.0000771  0.0000000  2
    656    654    660    662     1  0.0000000  3.3472000  1
    656    654    660    662     1  0.0000000  0.0000000  2
    656    654    660    662     1  180.0000771  0.3347200  3
    657    661   1416   1417     1  180.0000771  10.4600000  2
    658    657    661    663     1  0.0000000  3.3472000  1
    658    657    661    663     1  0.0000000  0.0000000  2
    658    657    661    663     1  180.0000771  0.3347200  3
    658    657    661   1416     1  180.0000771  0.0000000  2
    659    657    661    663     1  0.0000000  3.3472000  1
    659    657    661    663     1  0.0000000  0.0000000  2
    659    657    661    663     1  180.0000771  0.3347200  3
    659    657    661   1416     1  180.0000771  0.0000000  2
    660   1389   1391   1392     1  0.0000000  0.0000000  2
    660   1389   1391   1394     1  0.0000000  0.0000000  2
    661   1416   1418   1419     1  0.0000000  0.0000000  2
    661   1416   1418   1421     1  0.0000000  0.0000000  2
    662    660   1389   1390     1  0.0000000  8.3680000  1
    662    660   1389   1390     1  180.0000771  10.4600000  2
    663    661   1416   1417     1  0.0000000  8.3680000  1
    663    661   1416   1417     1  180.0000771  10.4600000  2
    666    669    689    690     1  0.0000000  0.0000000  2
    666    672    673    674     1  0.0000000  1.2552000  3
    666    672    673    675     1  0.0000000  1.2552000  3
    666    672    676    677     1  0.0000000  1.2552000  3
    666    672    676    678     1  0.0000000  1.2552000  3
    667    666    669    689     1  0.0000000  0.6508444  3
    667    666    669    670     1  0.0000000  0.6508444  3
    667    666    669    671     1  0.0000000  0.6508444  3
    667    666    672    673     1  0.0000000  1.2552000  3
    667    666    672    676     1  0.0000000  1.2552000  3
    668    666    669    689     1  0.0000000  0.6508444  3
    668    666    669    670     1  0.0000000  0.6508444  3
    668    666    669    671     1  0.0000000  0.6508444  3
    668    666    672    673     1  0.0000000  1.2552000  3
    668    666    672    676     1  0.0000000  1.2552000  3
    670    669    666    672     1  0.0000000  0.6508444  3
    670    669    689    690     1  0.0000000  0.0000000  2
    671    669    666    672     1  0.0000000  0.6508444  3
    671    669    689    690     1  0.0000000  0.0000000  2
    672    673    682    683     1  0.0000000  0.6508444  3
    672    673    682    684     1  0.0000000  0.6508444  3
    672    676    679    680     1  0.0000000  0.6508444  3
    672    676    679    681     1  0.0000000  0.6508444  3
    673    672    676    677     1  0.0000000  1.2552000  3
    673    672    676    678     1  0.0000000  1.2552000  3
    674    673    672    676     1  0.0000000  1.2552000  3
    674    673    682    686     1  0.0000000  0.6508444  3
    674    673    682    683     1  0.0000000  0.6508444  3
    674    673    682    684     1  0.0000000  0.6508444  3
    675    673    672    676     1  0.0000000  1.2552000  3
    675    673    682    686     1  0.0000000  0.6508444  3
    675    673    682    683     1  0.0000000  0.6508444  3
    675    673    682    684     1  0.0000000  0.6508444  3
    677    676    679    685     1  0.0000000  0.6508444  3
    677    676    679    680     1  0.0000000  0.6508444  3
    677    676    679    681     1  0.0000000  0.6508444  3
    678    676    679    685     1  0.0000000  0.6508444  3
    678    676    679    680     1  0.0000000  0.6508444  3
    678    676    679    681     1  0.0000000  0.6508444  3
    679    685   1443   1444     1  180.0000771  10.4600000  2
    680    679    685   1443     1  180.0000771  0.0000000  2
    680    679    685    687     1  0.0000000  3.3472000  1
    680    679    685    687     1  0.0000000  0.0000000  2
    680    679    685    687     1  180.0000771  0.3347200  3
    681    679    685   1443     1  180.0000771  0.0000000  2
    681    679    685    687     1  0.0000000  3.3472000  1
    681    679    685    687     1  0.0000000  0.0000000  2
    681    679    685    687     1  180.0000771  0.3347200  3
    682    686   1470   1471     1  180.0000771  10.4600000  2
    683    682    686    688     1  0.0000000  3.3472000  1
    683    682    686    688     1  0.0000000  0.0000000  2
    683    682    686    688     1  180.0000771  0.3347200  3
    683    682    686   1470     1  180.0000771  0.0000000  2
    684    682    686    688     1  0.0000000  3.3472000  1
    684    682    686    688     1  0.0000000  0.0000000  2
    684    682    686    688     1  180.0000771  0.3347200  3
    684    682    686   1470     1  180.0000771  0.0000000  2
    685   1443   1445   1446     1  0.0000000  0.0000000  2
    685   1443   1445   1448     1  0.0000000  0.0000000  2
    686   1470   1472   1473     1  0.0000000  0.0000000  2
    686   1470   1472   1475     1  0.0000000  0.0000000  2
    687    685   1443   1444     1  0.0000000  8.3680000  1
    687    685   1443   1444     1  180.0000771  10.4600000  2
    688    686   1470   1471     1  0.0000000  8.3680000  1
    688    686   1470   1471     1  180.0000771  10.4600000  2
    691    694    714    715     1  0.0000000  0.0000000  2
    691    697    698    699     1  0.0000000  1.2552000  3
    691    697    698    700     1  0.0000000  1.2552000  3
    691    697    701    702     1  0.0000000  1.2552000  3
    691    697    701    703     1  0.0000000  1.2552000  3
    692    691    694    714     1  0.0000000  0.6508444  3
    692    691    694    695     1  0.0000000  0.6508444  3
    692    691    694    696     1  0.0000000  0.6508444  3
    692    691    697    698     1  0.0000000  1.2552000  3
    692    691    697    701     1  0.0000000  1.2552000  3
    693    691    694    714     1  0.0000000  0.6508444  3
    693    691    694    695     1  0.0000000  0.6508444  3
    693    691    694    696     1  0.0000000  0.6508444  3
    693    691    697    698     1  0.0000000  1.2552000  3
    693    691    697    701     1  0.0000000  1.2552000  3
    695    694    691    697     1  0.0000000  0.6508444  3
    695    694    714    715     1  0.0000000  0.0000000  2
    696    694    691    697     1  0.0000000  0.6508444  3
    696    694    714    715     1  0.0000000  0.0000000  2
    697    698    707    708     1  0.0000000  0.6508444  3
    697    698    707    709     1  0.0000000  0.6508444  3
    697    701    704    705     1  0.0000000  0.6508444  3
    697    701    704    706     1  0.0000000  0.6508444  3
    698    697    701    702     1  0.0000000  1.2552000  3
    698    697    701    703     1  0.0000000  1.2552000  3
    699    698    697    701     1  0.0000000  1.2552000  3
    699    698    707    711     1  0.0000000  0.6508444  3
    699    698    707    708     1  0.0000000  0.6508444  3
    699    698    707    709     1  0.0000000  0.6508444  3
    700    698    697    701     1  0.0000000  1.2552000  3
    700    698    707    711     1  0.0000000  0.6508444  3
    700    698    707    708     1  0.0000000  0.6508444  3
    700    698    707    709     1  0.0000000  0.6508444  3
    702    701    704    710     1  0.0000000  0.6508444  3
    702    701    704    705     1  0.0000000  0.6508444  3
    702    701    704    706     1  0.0000000  0.6508444  3
    703    701    704    710     1  0.0000000  0.6508444  3
    703    701    704    705     1  0.0000000  0.6508444  3
    703    701    704    706     1  0.0000000  0.6508444  3
    704    710   1497   1498     1  180.0000771  10.4600000  2
    705    704    710   1497     1  180.0000771  0.0000000  2
    705    704    710    712     1  0.0000000  3.3472000  1
    705    704    710    712     1  0.0000000  0.0000000  2
    705    704    710    712     1  180.0000771  0.3347200  3
    706    704    710   1497     1  180.0000771  0.0000000  2
    706    704    710    712     1  0.0000000  3.3472000  1
    706    704    710    712     1  0.0000000  0.0000000  2
    706    704    710    712     1  180.0000771  0.3347200  3
    707    711   1524   1525     1  180.0000771  10.4600000  2
    708    707    711    713     1  0.0000000  3.3472000  1
    708    707    711    713     1  0.0000000  0.0000000  2
    708    707    711    713     1  180.0000771  0.3347200  3
    708    707    711   1524     1  180.0000771  0.0000000  2
    709    707    711    713     1  0.0000000  3.3472000  1
    709    707    711    713     1  0.0000000  0.0000000  2
    709    707    711    713     1  180.0000771  0.3347200  3
    709    707    711   1524     1  180.0000771  0.0000000  2
    710   1497   1499   1500     1  0.0000000  0.0000000  2
    710   1497   1499   1502     1  0.0000000  0.0000000  2
    711   1524   1526   1527     1  0.0000000  0.0000000  2
    711   1524   1526   1529     1  0.0000000  0.0000000  2
    712    710   1497   1498     1  0.0000000  8.3680000  1
    712    710   1497   1498     1  180.0000771  10.4600000  2
    713    711   1524   1525     1  0.0000000  8.3680000  1
    713    711   1524   1525     1  180.0000771  10.4600000  2
    716    719    739    740     1  0.0000000  0.0000000  2
    716    722    723    724     1  0.0000000  1.2552000  3
    716    722    723    725     1  0.0000000  1.2552000  3
    716    722    726    727     1  0.0000000  1.2552000  3
    716    722    726    728     1  0.0000000  1.2552000  3
    717    716    719    739     1  0.0000000  0.6508444  3
    717    716    719    720     1  0.0000000  0.6508444  3
    717    716    719    721     1  0.0000000  0.6508444  3
    717    716    722    723     1  0.0000000  1.2552000  3
    717    716    722    726     1  0.0000000  1.2552000  3
    718    716    719    739     1  0.0000000  0.6508444  3
    718    716    719    720     1  0.0000000  0.6508444  3
    718    716    719    721     1  0.0000000  0.6508444  3
    718    716    722    723     1  0.0000000  1.2552000  3
    718    716    722    726     1  0.0000000  1.2552000  3
    720    719    716    722     1  0.0000000  0.6508444  3
    720    719    739    740     1  0.0000000  0.0000000  2
    721    719    716    722     1  0.0000000  0.6508444  3
    721    719    739    740     1  0.0000000  0.0000000  2
    722    723    732    733     1  0.0000000  0.6508444  3
    722    723    732    734     1  0.0000000  0.6508444  3
    722    726    729    730     1  0.0000000  0.6508444  3
    722    726    729    731     1  0.0000000  0.6508444  3
    723    722    726    727     1  0.0000000  1.2552000  3
    723    722    726    728     1  0.0000000  1.2552000  3
    724    723    722    726     1  0.0000000  1.2552000  3
    724    723    732    736     1  0.0000000  0.6508444  3
    724    723    732    733     1  0.0000000  0.6508444  3
    724    723    732    734     1  0.0000000  0.6508444  3
    725    723    722    726     1  0.0000000  1.2552000  3
    725    723    732    736     1  0.0000000  0.6508444  3
    725    723    732    733     1  0.0000000  0.6508444  3
    725    723    732    734     1  0.0000000  0.6508444  3
    727    726    729    735     1  0.0000000  0.6508444  3
    727    726    729    730     1  0.0000000  0.6508444  3
    727    726    729    731     1  0.0000000  0.6508444  3
    728    726    729    735     1  0.0000000  0.6508444  3
    728    726    729    730     1  0.0000000  0.6508444  3
    728    726    729    731     1  0.0000000  0.6508444  3
    729    735   1551   1552     1  180.0000771  10.4600000  2
    730    729    735   1551     1  180.0000771  0.0000000  2
    730    729    735    737     1  0.0000000  3.3472000  1
    730    729    735    737     1  0.0000000  0.0000000  2
    730    729    735    737     1  180.0000771  0.3347200  3
    731    729    735   1551     1  180.0000771  0.0000000  2
    731    729    735    737     1  0.0000000  3.3472000  1
    731    729    735    737     1  0.0000000  0.0000000  2
    731    729    735    737     1  180.0000771  0.3347200  3
    732    736   1578   1579     1  180.0000771  10.4600000  2
    733    732    736   1578     1  180.0000771  0.0000000  2
    733    732    736    738     1  0.0000000  3.3472000  1
    733    732    736    738     1  0.0000000  0.0000000  2
    733    732    736    738     1  180.0000771  0.3347200  3
    734    732    736   1578     1  180.0000771  0.0000000  2
    734    732    736    738     1  0.0000000  3.3472000  1
    734    732    736    738     1  0.0000000  0.0000000  2
    734    732    736    738     1  180.0000771  0.3347200  3
    735   1551   1553   1554     1  0.0000000  0.0000000  2
    735   1551   1553   1556     1  0.0000000  0.0000000  2
    736   1578   1580   1581     1  0.0000000  0.0000000  2
    736   1578   1580   1583     1  0.0000000  0.0000000  2
    737    735   1551   1552     1  0.0000000  8.3680000  1
    737    735   1551   1552     1  180.0000771  10.4600000  2
    738    736   1578   1579     1  0.0000000  8.3680000  1
    738    736   1578   1579     1  180.0000771  10.4600000  2
    741    743    745    747     1  0.0000000  0.6508444  3
    741    743    745    748     1  0.0000000  0.6508444  3
    742    741    743    745     1  0.0000000  0.0000000  2
    742    741    743    744     1  0.0000000  0.0000000  2
    742    741    743    746     1  0.0000000  0.0000000  2
    744    743    745    749     1  0.0000000  0.6508444  3
    744    743    745    747     1  0.0000000  0.6508444  3
    744    743    745    748     1  0.0000000  0.6508444  3
    745    749    750    760     1  0.0000000  1.2552000  3
    745    749    750    761     1  0.0000000  1.2552000  3
    745    749    751    752     1  0.0000000  1.2552000  3
    745    749    751    754     1  0.0000000  1.2552000  3
    746    743    745    749     1  0.0000000  0.6508444  3
    746    743    745    747     1  0.0000000  0.6508444  3
    746    743    745    748     1  0.0000000  0.6508444  3
    747    745    749    750     1  0.0000000  1.2552000  3
    747    745    749    751     1  0.0000000  1.2552000  3
    748    745    749    750     1  0.0000000  1.2552000  3
    748    745    749    751     1  0.0000000  1.2552000  3
    749    750    762    763     1  0.0000000  0.6508444  3
    749    750    762    764     1  0.0000000  0.6508444  3
    749    751    753    755     1  0.0000000  0.6508444  3
    749    751    753    756     1  0.0000000  0.6508444  3
    750    749    751    752     1  0.0000000  1.2552000  3
    750    749    751    754     1  0.0000000  1.2552000  3
    751    749    750    760     1  0.0000000  1.2552000  3
    751    749    750    761     1  0.0000000  1.2552000  3
    752    751    753    757     1  0.0000000  0.6508444  3
    752    751    753    755     1  0.0000000  0.6508444  3
    752    751    753    756     1  0.0000000  0.6508444  3
    754    751    753    757     1  0.0000000  0.6508444  3
    754    751    753    755     1  0.0000000  0.6508444  3
    754    751    753    756     1  0.0000000  0.6508444  3
    755    753    757    758     1  0.0000000  3.3472000  1
    755    753    757    758     1  0.0000000  0.0000000  2
    755    753    757    758     1  180.0000771  0.3347200  3
    755    753    757    759     1  0.0000000  3.3472000  1
    755    753    757    759     1  0.0000000  0.0000000  2
    755    753    757    759     1  180.0000771  0.3347200  3
    756    753    757    758     1  0.0000000  3.3472000  1
    756    753    757    758     1  0.0000000  0.0000000  2
    756    753    757    758     1  180.0000771  0.3347200  3
    756    753    757    759     1  0.0000000  3.3472000  1
    756    753    757    759     1  0.0000000  0.0000000  2
    756    753    757    759     1  180.0000771  0.3347200  3
    760    750    762    765     1  0.0000000  0.6508444  3
    760    750    762    763     1  0.0000000  0.6508444  3
    760    750    762    764     1  0.0000000  0.6508444  3
    761    750    762    765     1  0.0000000  0.6508444  3
    761    750    762    763     1  0.0000000  0.6508444  3
    761    750    762    764     1  0.0000000  0.6508444  3
    763    762    765    766     1  0.0000000  3.3472000  1
    763    762    765    766     1  0.0000000  0.0000000  2
    763    762    765    766     1  180.0000771  0.3347200  3
    763    762    765    767     1  0.0000000  3.3472000  1
    763    762    765    767     1  0.0000000  0.0000000  2
    763    762    765    767     1  180.0000771  0.3347200  3
    764    762    765    766     1  0.0000000  3.3472000  1
    764    762    765    766     1  0.0000000  0.0000000  2
    764    762    765    766     1  180.0000771  0.3347200  3
    764    762    765    767     1  0.0000000  3.3472000  1
    764    762    765    767     1  0.0000000  0.0000000  2
    764    762    765    767     1  180.0000771  0.3347200  3
    768    770    772    774     1  0.0000000  0.6508444  3
    768    770    772    775     1  0.0000000  0.6508444  3
    769    768    770    772     1  0.0000000  0.0000000  2
    769    768    770    771     1  0.0000000  0.0000000  2
    769    768    770    773     1  0.0000000  0.0000000  2
    771    770    772    776     1  0.0000000  0.6508444  3
    771    770    772    774     1  0.0000000  0.6508444  3
    771    770    772    775     1  0.0000000  0.6508444  3
    772    776    777    787     1  0.0000000  1.2552000  3
    772    776    777    788     1  0.0000000  1.2552000  3
    772    776    778    779     1  0.0000000  1.2552000  3
    772    776    778    781     1  0.0000000  1.2552000  3
    773    770    772    776     1  0.0000000  0.6508444  3
    773    770    772    774     1  0.0000000  0.6508444  3
    773    770    772    775     1  0.0000000  0.6508444  3
    774    772    776    777     1  0.0000000  1.2552000  3
    774    772    776    778     1  0.0000000  1.2552000  3
    775    772    776    777     1  0.0000000  1.2552000  3
    775    772    776    778     1  0.0000000  1.2552000  3
    776    777    789    790     1  0.0000000  0.6508444  3
    776    777    789    791     1  0.0000000  0.6508444  3
    776    778    780    782     1  0.0000000  0.6508444  3
    776    778    780    783     1  0.0000000  0.6508444  3
    777    776    778    779     1  0.0000000  1.2552000  3
    777    776    778    781     1  0.0000000  1.2552000  3
    778    776    777    787     1  0.0000000  1.2552000  3
    778    776    777    788     1  0.0000000  1.2552000  3
    779    778    780    784     1  0.0000000  0.6508444  3
    779    778    780    782     1  0.0000000  0.6508444  3
    779    778    780    783     1  0.0000000  0.6508444  3
    781    778    780    784     1  0.0000000  0.6508444  3
    781    778    780    782     1  0.0000000  0.6508444  3
    781    778    780    783     1  0.0000000  0.6508444  3
    782    780    784    785     1  0.0000000  3.3472000  1
    782    780    784    785     1  0.0000000  0.0000000  2
    782    780    784    785     1  180.0000771  0.3347200  3
    782    780    784    786     1  0.0000000  3.3472000  1
    782    780    784    786     1  0.0000000  0.0000000  2
    782    780    784    786     1  180.0000771  0.3347200  3
    783    780    784    785     1  0.0000000  3.3472000  1
    783    780    784    785     1  0.0000000  0.0000000  2
    783    780    784    785     1  180.0000771  0.3347200  3
    783    780    784    786     1  0.0000000  3.3472000  1
    783    780    784    786     1  0.0000000  0.0000000  2
    783    780    784    786     1  180.0000771  0.3347200  3
    787    777    789    792     1  0.0000000  0.6508444  3
    787    777    789    790     1  0.0000000  0.6508444  3
    787    777    789    791     1  0.0000000  0.6508444  3
    788    777    789    792     1  0.0000000  0.6508444  3
    788    777    789    790     1  0.0000000  0.6508444  3
    788    777    789    791     1  0.0000000  0.6508444  3
    790    789    792    793     1  0.0000000  3.3472000  1
    790    789    792    793     1  0.0000000  0.0000000  2
    790    789    792    793     1  180.0000771  0.3347200  3
    790    789    792    794     1  0.0000000  3.3472000  1
    790    789    792    794     1  0.0000000  0.0000000  2
    790    789    792    794     1  180.0000771  0.3347200  3
    791    789    792    793     1  0.0000000  3.3472000  1
    791    789    792    793     1  0.0000000  0.0000000  2
    791    789    792    793     1  180.0000771  0.3347200  3
    791    789    792    794     1  0.0000000  3.3472000  1
    791    789    792    794     1  0.0000000  0.0000000  2
    791    789    792    794     1  180.0000771  0.3347200  3
    795    797    799    801     1  0.0000000  0.6508444  3
    795    797    799    802     1  0.0000000  0.6508444  3
    796    795    797    799     1  0.0000000  0.0000000  2
    796    795    797    798     1  0.0000000  0.0000000  2
    796    795    797    800     1  0.0000000  0.0000000  2
    798    797    799    803     1  0.0000000  0.6508444  3
    798    797    799    801     1  0.0000000  0.6508444  3
    798    797    799    802     1  0.0000000  0.6508444  3
    799    803    804    814     1  0.0000000  1.2552000  3
    799    803    804    815     1  0.0000000  1.2552000  3
    799    803    805    806     1  0.0000000  1.2552000  3
    799    803    805    808     1  0.0000000  1.2552000  3
    800    797    799    803     1  0.0000000  0.6508444  3
    800    797    799    801     1  0.0000000  0.6508444  3
    800    797    799    802     1  0.0000000  0.6508444  3
    801    799    803    804     1  0.0000000  1.2552000  3
    801    799    803    805     1  0.0000000  1.2552000  3
    802    799    803    804     1  0.0000000  1.2552000  3
    802    799    803    805     1  0.0000000  1.2552000  3
    803    804    816    817     1  0.0000000  0.6508444  3
    803    804    816    818     1  0.0000000  0.6508444  3
    803    805    807    809     1  0.0000000  0.6508444  3
    803    805    807    810     1  0.0000000  0.6508444  3
    804    803    805    806     1  0.0000000  1.2552000  3
    804    803    805    808     1  0.0000000  1.2552000  3
    805    803    804    814     1  0.0000000  1.2552000  3
    805    803    804    815     1  0.0000000  1.2552000  3
    806    805    807    811     1  0.0000000  0.6508444  3
    806    805    807    809     1  0.0000000  0.6508444  3
    806    805    807    810     1  0.0000000  0.6508444  3
    808    805    807    811     1  0.0000000  0.6508444  3
    808    805    807    809     1  0.0000000  0.6508444  3
    808    805    807    810     1  0.0000000  0.6508444  3
    809    807    811    812     1  0.0000000  3.3472000  1
    809    807    811    812     1  0.0000000  0.0000000  2
    809    807    811    812     1  180.0000771  0.3347200  3
    809    807    811    813     1  0.0000000  3.3472000  1
    809    807    811    813     1  0.0000000  0.0000000  2
    809    807    811    813     1  180.0000771  0.3347200  3
    810    807    811    812     1  0.0000000  3.3472000  1
    810    807    811    812     1  0.0000000  0.0000000  2
    810    807    811    812     1  180.0000771  0.3347200  3
    810    807    811    813     1  0.0000000  3.3472000  1
    810    807    811    813     1  0.0000000  0.0000000  2
    810    807    811    813     1  180.0000771  0.3347200  3
    814    804    816    819     1  0.0000000  0.6508444  3
    814    804    816    817     1  0.0000000  0.6508444  3
    814    804    816    818     1  0.0000000  0.6508444  3
    815    804    816    819     1  0.0000000  0.6508444  3
    815    804    816    817     1  0.0000000  0.6508444  3
    815    804    816    818     1  0.0000000  0.6508444  3
    817    816    819    820     1  0.0000000  3.3472000  1
    817    816    819    820     1  0.0000000  0.0000000  2
    817    816    819    820     1  180.0000771  0.3347200  3
    817    816    819    821     1  0.0000000  3.3472000  1
    817    816    819    821     1  0.0000000  0.0000000  2
    817    816    819    821     1  180.0000771  0.3347200  3
    818    816    819    820     1  0.0000000  3.3472000  1
    818    816    819    820     1  0.0000000  0.0000000  2
    818    816    819    820     1  180.0000771  0.3347200  3
    818    816    819    821     1  0.0000000  3.3472000  1
    818    816    819    821     1  0.0000000  0.0000000  2
    818    816    819    821     1  180.0000771  0.3347200  3
    822    824    826    828     1  0.0000000  0.6508444  3
    822    824    826    829     1  0.0000000  0.6508444  3
    823    822    824    826     1  0.0000000  0.0000000  2
    823    822    824    825     1  0.0000000  0.0000000  2
    823    822    824    827     1  0.0000000  0.0000000  2
    825    824    826    830     1  0.0000000  0.6508444  3
    825    824    826    828     1  0.0000000  0.6508444  3
    825    824    826    829     1  0.0000000  0.6508444  3
    826    830    831    841     1  0.0000000  1.2552000  3
    826    830    831    842     1  0.0000000  1.2552000  3
    826    830    832    833     1  0.0000000  1.2552000  3
    826    830    832    835     1  0.0000000  1.2552000  3
    827    824    826    830     1  0.0000000  0.6508444  3
    827    824    826    828     1  0.0000000  0.6508444  3
    827    824    826    829     1  0.0000000  0.6508444  3
    828    826    830    831     1  0.0000000  1.2552000  3
    828    826    830    832     1  0.0000000  1.2552000  3
    829    826    830    831     1  0.0000000  1.2552000  3
    829    826    830    832     1  0.0000000  1.2552000  3
    830    831    843    844     1  0.0000000  0.6508444  3
    830    831    843    845     1  0.0000000  0.6508444  3
    830    832    834    836     1  0.0000000  0.6508444  3
    830    832    834    837     1  0.0000000  0.6508444  3
    831    830    832    833     1  0.0000000  1.2552000  3
    831    830    832    835     1  0.0000000  1.2552000  3
    832    830    831    841     1  0.0000000  1.2552000  3
    832    830    831    842     1  0.0000000  1.2552000  3
    833    832    834    838     1  0.0000000  0.6508444  3
    833    832    834    836     1  0.0000000  0.6508444  3
    833    832    834    837     1  0.0000000  0.6508444  3
    835    832    834    838     1  0.0000000  0.6508444  3
    835    832    834    836     1  0.0000000  0.6508444  3
    835    832    834    837     1  0.0000000  0.6508444  3
    836    834    838    839     1  0.0000000  3.3472000  1
    836    834    838    839     1  0.0000000  0.0000000  2
    836    834    838    839     1  180.0000771  0.3347200  3
    836    834    838    840     1  0.0000000  3.3472000  1
    836    834    838    840     1  0.0000000  0.0000000  2
    836    834    838    840     1  180.0000771  0.3347200  3
    837    834    838    839     1  0.0000000  3.3472000  1
    837    834    838    839     1  0.0000000  0.0000000  2
    837    834    838    839     1  180.0000771  0.3347200  3
    837    834    838    840     1  0.0000000  3.3472000  1
    837    834    838    840     1  0.0000000  0.0000000  2
    837    834    838    840     1  180.0000771  0.3347200  3
    841    831    843    846     1  0.0000000  0.6508444  3
    841    831    843    844     1  0.0000000  0.6508444  3
    841    831    843    845     1  0.0000000  0.6508444  3
    842    831    843    846     1  0.0000000  0.6508444  3
    842    831    843    844     1  0.0000000  0.6508444  3
    842    831    843    845     1  0.0000000  0.6508444  3
    844    843    846    847     1  0.0000000  3.3472000  1
    844    843    846    847     1  0.0000000  0.0000000  2
    844    843    846    847     1  180.0000771  0.3347200  3
    844    843    846    848     1  0.0000000  3.3472000  1
    844    843    846    848     1  0.0000000  0.0000000  2
    844    843    846    848     1  180.0000771  0.3347200  3
    845    843    846    847     1  0.0000000  3.3472000  1
    845    843    846    847     1  0.0000000  0.0000000  2
    845    843    846    847     1  180.0000771  0.3347200  3
    845    843    846    848     1  0.0000000  3.3472000  1
    845    843    846    848     1  0.0000000  0.0000000  2
    845    843    846    848     1  180.0000771  0.3347200  3
    849    851    853    855     1  0.0000000  0.6508444  3
    849    851    853    856     1  0.0000000  0.6508444  3
    850    849    851    853     1  0.0000000  0.0000000  2
    850    849    851    852     1  0.0000000  0.0000000  2
    850    849    851    854     1  0.0000000  0.0000000  2
    852    851    853    857     1  0.0000000  0.6508444  3
    852    851    853    855     1  0.0000000  0.6508444  3
    852    851    853    856     1  0.0000000  0.6508444  3
    853    857    858    868     1  0.0000000  1.2552000  3
    853    857    858    869     1  0.0000000  1.2552000  3
    853    857    859    860     1  0.0000000  1.2552000  3
    853    857    859    862     1  0.0000000  1.2552000  3
    854    851    853    857     1  0.0000000  0.6508444  3
    854    851    853    855     1  0.0000000  0.6508444  3
    854    851    853    856     1  0.0000000  0.6508444  3
    855    853    857    858     1  0.0000000  1.2552000  3
    855    853    857    859     1  0.0000000  1.2552000  3
    856    853    857    858     1  0.0000000  1.2552000  3
    856    853    857    859     1  0.0000000  1.2552000  3
    857    858    870    871     1  0.0000000  0.6508444  3
    857    858    870    872     1  0.0000000  0.6508444  3
    857    859    861    863     1  0.0000000  0.6508444  3
    857    859    861    864     1  0.0000000  0.6508444  3
    858    857    859    860     1  0.0000000  1.2552000  3
    858    857    859    862     1  0.0000000  1.2552000  3
    859    857    858    868     1  0.0000000  1.2552000  3
    859    857    858    869     1  0.0000000  1.2552000  3
    860    859    861    865     1  0.0000000  0.6508444  3
    860    859    861    863     1  0.0000000  0.6508444  3
    860    859    861    864     1  0.0000000  0.6508444  3
    862    859    861    865     1  0.0000000  0.6508444  3
    862    859    861    863     1  0.0000000  0.6508444  3
    862    859    861    864     1  0.0000000  0.6508444  3
    863    861    865    866     1  0.0000000  3.3472000  1
    863    861    865    866     1  0.0000000  0.0000000  2
    863    861    865    866     1  180.0000771  0.3347200  3
    863    861    865    867     1  0.0000000  3.3472000  1
    863    861    865    867     1  0.0000000  0.0000000  2
    863    861    865    867     1  180.0000771  0.3347200  3
    864    861    865    866     1  0.0000000  3.3472000  1
    864    861    865    866     1  0.0000000  0.0000000  2
    864    861    865    866     1  180.0000771  0.3347200  3
    864    861    865    867     1  0.0000000  3.3472000  1
    864    861    865    867     1  0.0000000  0.0000000  2
    864    861    865    867     1  180.0000771  0.3347200  3
    868    858    870    873     1  0.0000000  0.6508444  3
    868    858    870    871     1  0.0000000  0.6508444  3
    868    858    870    872     1  0.0000000  0.6508444  3
    869    858    870    873     1  0.0000000  0.6508444  3
    869    858    870    871     1  0.0000000  0.6508444  3
    869    858    870    872     1  0.0000000  0.6508444  3
    871    870    873    874     1  0.0000000  3.3472000  1
    871    870    873    874     1  0.0000000  0.0000000  2
    871    870    873    874     1  180.0000771  0.3347200  3
    871    870    873    875     1  0.0000000  3.3472000  1
    871    870    873    875     1  0.0000000  0.0000000  2
    871    870    873    875     1  180.0000771  0.3347200  3
    872    870    873    874     1  0.0000000  3.3472000  1
    872    870    873    874     1  0.0000000  0.0000000  2
    872    870    873    874     1  180.0000771  0.3347200  3
    872    870    873    875     1  0.0000000  3.3472000  1
    872    870    873    875     1  0.0000000  0.0000000  2
    872    870    873    875     1  180.0000771  0.3347200  3
    876    878    880    882     1  0.0000000  0.6508444  3
    876    878    880    883     1  0.0000000  0.6508444  3
    877    876    878    880     1  0.0000000  0.0000000  2
    877    876    878    879     1  0.0000000  0.0000000  2
    877    876    878    881     1  0.0000000  0.0000000  2
    879    878    880    884     1  0.0000000  0.6508444  3
    879    878    880    882     1  0.0000000  0.6508444  3
    879    878    880    883     1  0.0000000  0.6508444  3
    880    884    885    895     1  0.0000000  1.2552000  3
    880    884    885    896     1  0.0000000  1.2552000  3
    880    884    886    887     1  0.0000000  1.2552000  3
    880    884    886    889     1  0.0000000  1.2552000  3
    881    878    880    884     1  0.0000000  0.6508444  3
    881    878    880    882     1  0.0000000  0.6508444  3
    881    878    880    883     1  0.0000000  0.6508444  3
    882    880    884    885     1  0.0000000  1.2552000  3
    882    880    884    886     1  0.0000000  1.2552000  3
    883    880    884    885     1  0.0000000  1.2552000  3
    883    880    884    886     1  0.0000000  1.2552000  3
    884    885    897    898     1  0.0000000  0.6508444  3
    884    885    897    899     1  0.0000000  0.6508444  3
    884    886    888    890     1  0.0000000  0.6508444  3
    884    886    888    891     1  0.0000000  0.6508444  3
    885    884    886    887     1  0.0000000  1.2552000  3
    885    884    886    889     1  0.0000000  1.2552000  3
    886    884    885    895     1  0.0000000  1.2552000  3
    886    884    885    896     1  0.0000000  1.2552000  3
    887    886    888    892     1  0.0000000  0.6508444  3
    887    886    888    890     1  0.0000000  0.6508444  3
    887    886    888    891     1  0.0000000  0.6508444  3
    889    886    888    892     1  0.0000000  0.6508444  3
    889    886    888    890     1  0.0000000  0.6508444  3
    889    886    888    891     1  0.0000000  0.6508444  3
    890    888    892    893     1  0.0000000  3.3472000  1
    890    888    892    893     1  0.0000000  0.0000000  2
    890    888    892    893     1  180.0000771  0.3347200  3
    890    888    892    894     1  0.0000000  3.3472000  1
    890    888    892    894     1  0.0000000  0.0000000  2
    890    888    892    894     1  180.0000771  0.3347200  3
    891    888    892    893     1  0.0000000  3.3472000  1
    891    888    892    893     1  0.0000000  0.0000000  2
    891    888    892    893     1  180.0000771  0.3347200  3
    891    888    892    894     1  0.0000000  3.3472000  1
    891    888    892    894     1  0.0000000  0.0000000  2
    891    888    892    894     1  180.0000771  0.3347200  3
    895    885    897    900     1  0.0000000  0.6508444  3
    895    885    897    898     1  0.0000000  0.6508444  3
    895    885    897    899     1  0.0000000  0.6508444  3
    896    885    897    900     1  0.0000000  0.6508444  3
    896    885    897    898     1  0.0000000  0.6508444  3
    896    885    897    899     1  0.0000000  0.6508444  3
    898    897    900    901     1  0.0000000  3.3472000  1
    898    897    900    901     1  0.0000000  0.0000000  2
    898    897    900    901     1  180.0000771  0.3347200  3
    898    897    900    902     1  0.0000000  3.3472000  1
    898    897    900    902     1  0.0000000  0.0000000  2
    898    897    900    902     1  180.0000771  0.3347200  3
    899    897    900    901     1  0.0000000  3.3472000  1
    899    897    900    901     1  0.0000000  0.0000000  2
    899    897    900    901     1  180.0000771  0.3347200  3
    899    897    900    902     1  0.0000000  3.3472000  1
    899    897    900    902     1  0.0000000  0.0000000  2
    899    897    900    902     1  180.0000771  0.3347200  3
    903    905    907    909     1  0.0000000  0.6508444  3
    903    905    907    910     1  0.0000000  0.6508444  3
    904    903    905    907     1  0.0000000  0.0000000  2
    904    903    905    906     1  0.0000000  0.0000000  2
    904    903    905    908     1  0.0000000  0.0000000  2
    906    905    907    911     1  0.0000000  0.6508444  3
    906    905    907    909     1  0.0000000  0.6508444  3
    906    905    907    910     1  0.0000000  0.6508444  3
    907    911    912    922     1  0.0000000  1.2552000  3
    907    911    912    923     1  0.0000000  1.2552000  3
    907    911    913    914     1  0.0000000  1.2552000  3
    907    911    913    916     1  0.0000000  1.2552000  3
    908    905    907    911     1  0.0000000  0.6508444  3
    908    905    907    909     1  0.0000000  0.6508444  3
    908    905    907    910     1  0.0000000  0.6508444  3
    909    907    911    912     1  0.0000000  1.2552000  3
    909    907    911    913     1  0.0000000  1.2552000  3
    910    907    911    912     1  0.0000000  1.2552000  3
    910    907    911    913     1  0.0000000  1.2552000  3
    911    912    924    925     1  0.0000000  0.6508444  3
    911    912    924    926     1  0.0000000  0.6508444  3
    911    913    915    917     1  0.0000000  0.6508444  3
    911    913    915    918     1  0.0000000  0.6508444  3
    912    911    913    914     1  0.0000000  1.2552000  3
    912    911    913    916     1  0.0000000  1.2552000  3
    913    911    912    922     1  0.0000000  1.2552000  3
    913    911    912    923     1  0.0000000  1.2552000  3
    914    913    915    919     1  0.0000000  0.6508444  3
    914    913    915    917     1  0.0000000  0.6508444  3
    914    913    915    918     1  0.0000000  0.6508444  3
    916    913    915    919     1  0.0000000  0.6508444  3
    916    913    915    917     1  0.0000000  0.6508444  3
    916    913    915    918     1  0.0000000  0.6508444  3
    917    915    919    920     1  0.0000000  3.3472000  1
    917    915    919    920     1  0.0000000  0.0000000  2
    917    915    919    920     1  180.0000771  0.3347200  3
    917    915    919    921     1  0.0000000  3.3472000  1
    917    915    919    921     1  0.0000000  0.0000000  2
    917    915    919    921     1  180.0000771  0.3347200  3
    918    915    919    920     1  0.0000000  3.3472000  1
    918    915    919    920     1  0.0000000  0.0000000  2
    918    915    919    920     1  180.0000771  0.3347200  3
    918    915    919    921     1  0.0000000  3.3472000  1
    918    915    919    921     1  0.0000000  0.0000000  2
    918    915    919    921     1  180.0000771  0.3347200  3
    922    912    924    927     1  0.0000000  0.6508444  3
    922    912    924    925     1  0.0000000  0.6508444  3
    922    912    924    926     1  0.0000000  0.6508444  3
    923    912    924    927     1  0.0000000  0.6508444  3
    923    912    924    925     1  0.0000000  0.6508444  3
    923    912    924    926     1  0.0000000  0.6508444  3
    925    924    927    928     1  0.0000000  3.3472000  1
    925    924    927    928     1  0.0000000  0.0000000  2
    925    924    927    928     1  180.0000771  0.3347200  3
    925    924    927    929     1  0.0000000  3.3472000  1
    925    924    927    929     1  0.0000000  0.0000000  2
    925    924    927    929     1  180.0000771  0.3347200  3
    926    924    927    928     1  0.0000000  3.3472000  1
    926    924    927    928     1  0.0000000  0.0000000  2
    926    924    927    928     1  180.0000771  0.3347200  3
    926    924    927    929     1  0.0000000  3.3472000  1
    926    924    927    929     1  0.0000000  0.0000000  2
    926    924    927    929     1  180.0000771  0.3347200  3
    930    932    934    936     1  0.0000000  0.6508444  3
    930    932    934    937     1  0.0000000  0.6508444  3
    931    930    932    934     1  0.0000000  0.0000000  2
    931    930    932    933     1  0.0000000  0.0000000  2
    931    930    932    935     1  0.0000000  0.0000000  2
    933    932    934    938     1  0.0000000  0.6508444  3
    933    932    934    936     1  0.0000000  0.6508444  3
    933    932    934    937     1  0.0000000  0.6508444  3
    934    938    939    949     1  0.0000000  1.2552000  3
    934    938    939    950     1  0.0000000  1.2552000  3
    934    938    940    941     1  0.0000000  1.2552000  3
    934    938    940    943     1  0.0000000  1.2552000  3
    935    932    934    938     1  0.0000000  0.6508444  3
    935    932    934    936     1  0.0000000  0.6508444  3
    935    932    934    937     1  0.0000000  0.6508444  3
    936    934    938    939     1  0.0000000  1.2552000  3
    936    934    938    940     1  0.0000000  1.2552000  3
    937    934    938    939     1  0.0000000  1.2552000  3
    937    934    938    940     1  0.0000000  1.2552000  3
    938    939    951    952     1  0.0000000  0.6508444  3
    938    939    951    953     1  0.0000000  0.6508444  3
    938    940    942    944     1  0.0000000  0.6508444  3
    938    940    942    945     1  0.0000000  0.6508444  3
    939    938    940    941     1  0.0000000  1.2552000  3
    939    938    940    943     1  0.0000000  1.2552000  3
    940    938    939    949     1  0.0000000  1.2552000  3
    940    938    939    950     1  0.0000000  1.2552000  3
    941    940    942    946     1  0.0000000  0.6508444  3
    941    940    942    944     1  0.0000000  0.6508444  3
    941    940    942    945     1  0.0000000  0.6508444  3
    943    940    942    946     1  0.0000000  0.6508444  3
    943    940    942    944     1  0.0000000  0.6508444  3
    943    940    942    945     1  0.0000000  0.6508444  3
    944    942    946    947     1  0.0000000  3.3472000  1
    944    942    946    947     1  0.0000000  0.0000000  2
    944    942    946    947     1  180.0000771  0.3347200  3
    944    942    946    948     1  0.0000000  3.3472000  1
    944    942    946    948     1  0.0000000  0.0000000  2
    944    942    946    948     1  180.0000771  0.3347200  3
    945    942    946    947     1  0.0000000  3.3472000  1
    945    942    946    947     1  0.0000000  0.0000000  2
    945    942    946    947     1  180.0000771  0.3347200  3
    945    942    946    948     1  0.0000000  3.3472000  1
    945    942    946    948     1  0.0000000  0.0000000  2
    945    942    946    948     1  180.0000771  0.3347200  3
    949    939    951    954     1  0.0000000  0.6508444  3
    949    939    951    952     1  0.0000000  0.6508444  3
    949    939    951    953     1  0.0000000  0.6508444  3
    950    939    951    954     1  0.0000000  0.6508444  3
    950    939    951    952     1  0.0000000  0.6508444  3
    950    939    951    953     1  0.0000000  0.6508444  3
    952    951    954    955     1  0.0000000  3.3472000  1
    952    951    954    955     1  0.0000000  0.0000000  2
    952    951    954    955     1  180.0000771  0.3347200  3
    952    951    954    956     1  0.0000000  3.3472000  1
    952    951    954    956     1  0.0000000  0.0000000  2
    952    951    954    956     1  180.0000771  0.3347200  3
    953    951    954    955     1  0.0000000  3.3472000  1
    953    951    954    955     1  0.0000000  0.0000000  2
    953    951    954    955     1  180.0000771  0.3347200  3
    953    951    954    956     1  0.0000000  3.3472000  1
    953    951    954    956     1  0.0000000  0.0000000  2
    953    951    954    956     1  180.0000771  0.3347200  3
    957    959    961    963     1  0.0000000  0.6508444  3
    957    959    961    964     1  0.0000000  0.6508444  3
    958    957    959    961     1  0.0000000  0.0000000  2
    958    957    959    960     1  0.0000000  0.0000000  2
    958    957    959    962     1  0.0000000  0.0000000  2
    960    959    961    965     1  0.0000000  0.6508444  3
    960    959    961    963     1  0.0000000  0.6508444  3
    960    959    961    964     1  0.0000000  0.6508444  3
    961    965    966    976     1  0.0000000  1.2552000  3
    961    965    966    977     1  0.0000000  1.2552000  3
    961    965    967    968     1  0.0000000  1.2552000  3
    961    965    967    970     1  0.0000000  1.2552000  3
    962    959    961    965     1  0.0000000  0.6508444  3
    962    959    961    963     1  0.0000000  0.6508444  3
    962    959    961    964     1  0.0000000  0.6508444  3
    963    961    965    966     1  0.0000000  1.2552000  3
    963    961    965    967     1  0.0000000  1.2552000  3
    964    961    965    966     1  0.0000000  1.2552000  3
    964    961    965    967     1  0.0000000  1.2552000  3
    965    966    978    979     1  0.0000000  0.6508444  3
    965    966    978    980     1  0.0000000  0.6508444  3
    965    967    969    971     1  0.0000000  0.6508444  3
    965    967    969    972     1  0.0000000  0.6508444  3
    966    965    967    968     1  0.0000000  1.2552000  3
    966    965    967    970     1  0.0000000  1.2552000  3
    967    965    966    976     1  0.0000000  1.2552000  3
    967    965    966    977     1  0.0000000  1.2552000  3
    968    967    969    973     1  0.0000000  0.6508444  3
    968    967    969    971     1  0.0000000  0.6508444  3
    968    967    969    972     1  0.0000000  0.6508444  3
    970    967    969    973     1  0.0000000  0.6508444  3
    970    967    969    971     1  0.0000000  0.6508444  3
    970    967    969    972     1  0.0000000  0.6508444  3
    971    969    973    974     1  0.0000000  3.3472000  1
    971    969    973    974     1  0.0000000  0.0000000  2
    971    969    973    974     1  180.0000771  0.3347200  3
    971    969    973    975     1  0.0000000  3.3472000  1
    971    969    973    975     1  0.0000000  0.0000000  2
    971    969    973    975     1  180.0000771  0.3347200  3
    972    969    973    974     1  0.0000000  3.3472000  1
    972    969    973    974     1  0.0000000  0.0000000  2
    972    969    973    974     1  180.0000771  0.3347200  3
    972    969    973    975     1  0.0000000  3.3472000  1
    972    969    973    975     1  0.0000000  0.0000000  2
    972    969    973    975     1  180.0000771  0.3347200  3
    976    966    978    981     1  0.0000000  0.6508444  3
    976    966    978    979     1  0.0000000  0.6508444  3
    976    966    978    980     1  0.0000000  0.6508444  3
    977    966    978    981     1  0.0000000  0.6508444  3
    977    966    978    979     1  0.0000000  0.6508444  3
    977    966    978    980     1  0.0000000  0.6508444  3
    979    978    981    982     1  0.0000000  3.3472000  1
    979    978    981    982     1  0.0000000  0.0000000  2
    979    978    981    982     1  180.0000771  0.3347200  3
    979    978    981    983     1  0.0000000  3.3472000  1
    979    978    981    983     1  0.0000000  0.0000000  2
    979    978    981    983     1  180.0000771  0.3347200  3
    980    978    981    982     1  0.0000000  3.3472000  1
    980    978    981    982     1  0.0000000  0.0000000  2
    980    978    981    982     1  180.0000771  0.3347200  3
    980    978    981    983     1  0.0000000  3.3472000  1
    980    978    981    983     1  0.0000000  0.0000000  2
    980    978    981    983     1  180.0000771  0.3347200  3
    984    986    988    990     1  0.0000000  0.6508444  3
    984    986    988    991     1  0.0000000  0.6508444  3
    985    984    986    988     1  0.0000000  0.0000000  2
    985    984    986    987     1  0.0000000  0.0000000  2
    985    984    986    989     1  0.0000000  0.0000000  2
    987    986    988    992     1  0.0000000  0.6508444  3
    987    986    988    990     1  0.0000000  0.6508444  3
    987    986    988    991     1  0.0000000  0.6508444  3
    988    992    993   1003     1  0.0000000  1.2552000  3
    988    992    993   1004     1  0.0000000  1.2552000  3
    988    992    994    995     1  0.0000000  1.2552000  3
    988    992    994    997     1  0.0000000  1.2552000  3
    989    986    988    992     1  0.0000000  0.6508444  3
    989    986    988    990     1  0.0000000  0.6508444  3
    989    986    988    991     1  0.0000000  0.6508444  3
    990    988    992    993     1  0.0000000  1.2552000  3
    990    988    992    994     1  0.0000000  1.2552000  3
    991    988    992    993     1  0.0000000  1.2552000  3
    991    988    992    994     1  0.0000000  1.2552000  3
    992    993   1005   1006     1  0.0000000  0.6508444  3
    992    993   1005   1007     1  0.0000000  0.6508444  3
    992    994    996    998     1  0.0000000  0.6508444  3
    992    994    996    999     1  0.0000000  0.6508444  3
    993    992    994    995     1  0.0000000  1.2552000  3
    993    992    994    997     1  0.0000000  1.2552000  3
    994    992    993   1003     1  0.0000000  1.2552000  3
    994    992    993   1004     1  0.0000000  1.2552000  3
    995    994    996   1000     1  0.0000000  0.6508444  3
    995    994    996    998     1  0.0000000  0.6508444  3
    995    994    996    999     1  0.0000000  0.6508444  3
    997    994    996   1000     1  0.0000000  0.6508444  3
    997    994    996    998     1  0.0000000  0.6508444  3
    997    994    996    999     1  0.0000000  0.6508444  3
    998    996   1000   1001     1  0.0000000  3.3472000  1
    998    996   1000   1001     1  0.0000000  0.0000000  2
    998    996   1000   1001     1  180.0000771  0.3347200  3
    998    996   1000   1002     1  0.0000000  3.3472000  1
    998    996   1000   1002     1  0.0000000  0.0000000  2
    998    996   1000   1002     1  180.0000771  0.3347200  3
    999    996   1000   1001     1  0.0000000  3.3472000  1
    999    996   1000   1001     1  0.0000000  0.0000000  2
    999    996   1000   1001     1  180.0000771  0.3347200  3
    999    996   1000   1002     1  0.0000000  3.3472000  1
    999    996   1000   1002     1  0.0000000  0.0000000  2
    999    996   1000   1002     1  180.0000771  0.3347200  3
   1003    993   1005   1008     1  0.0000000  0.6508444  3
   1003    993   1005   1006     1  0.0000000  0.6508444  3
   1003    993   1005   1007     1  0.0000000  0.6508444  3
   1004    993   1005   1008     1  0.0000000  0.6508444  3
   1004    993   1005   1006     1  0.0000000  0.6508444  3
   1004    993   1005   1007     1  0.0000000  0.6508444  3
   1006   1005   1008   1009     1  0.0000000  3.3472000  1
   1006   1005   1008   1009     1  0.0000000  0.0000000  2
   1006   1005   1008   1009     1  180.0000771  0.3347200  3
   1006   1005   1008   1010     1  0.0000000  3.3472000  1
   1006   1005   1008   1010     1  0.0000000  0.0000000  2
   1006   1005   1008   1010     1  180.0000771  0.3347200  3
   1007   1005   1008   1009     1  0.0000000  3.3472000  1
   1007   1005   1008   1009     1  0.0000000  0.0000000  2
   1007   1005   1008   1009     1  180.0000771  0.3347200  3
   1007   1005   1008   1010     1  0.0000000  3.3472000  1
   1007   1005   1008   1010     1  0.0000000  0.0000000  2
   1007   1005   1008   1010     1  180.0000771  0.3347200  3
   1011   1013   1015   1017     1  0.0000000  0.6508444  3
   1011   1013   1015   1018     1  0.0000000  0.6508444  3
   1012   1011   1013   1015     1  0.0000000  0.0000000  2
   1012   1011   1013   1014     1  0.0000000  0.0000000  2
   1012   1011   1013   1016     1  0.0000000  0.0000000  2
   1014   1013   1015   1019     1  0.0000000  0.6508444  3
   1014   1013   1015   1017     1  0.0000000  0.6508444  3
   1014   1013   1015   1018     1  0.0000000  0.6508444  3
   1015   1019   1020   1030     1  0.0000000  1.2552000  3
   1015   1019   1020   1031     1  0.0000000  1.2552000  3
   1015   1019   1021   1022     1  0.0000000  1.2552000  3
   1015   1019   1021   1024     1  0.0000000  1.2552000  3
   1016   1013   1015   1019     1  0.0000000  0.6508444  3
   1016   1013   1015   1017     1  0.0000000  0.6508444  3
   1016   1013   1015   1018     1  0.0000000  0.6508444  3
   1017   1015   1019   1020     1  0.0000000  1.2552000  3
   1017   1015   1019   1021     1  0.0000000  1.2552000  3
   1018   1015   1019   1020     1  0.0000000  1.2552000  3
   1018   1015   1019   1021     1  0.0000000  1.2552000  3
   1019   1020   1032   1033     1  0.0000000  0.6508444  3
   1019   1020   1032   1034     1  0.0000000  0.6508444  3
   1019   1021   1023   1025     1  0.0000000  0.6508444  3
   1019   1021   1023   1026     1  0.0000000  0.6508444  3
   1020   1019   1021   1022     1  0.0000000  1.2552000  3
   1020   1019   1021   1024     1  0.0000000  1.2552000  3
   1021   1019   1020   1030     1  0.0000000  1.2552000  3
   1021   1019   1020   1031     1  0.0000000  1.2552000  3
   1022   1021   1023   1027     1  0.0000000  0.6508444  3
   1022   1021   1023   1025     1  0.0000000  0.6508444  3
   1022   1021   1023   1026     1  0.0000000  0.6508444  3
   1024   1021   1023   1027     1  0.0000000  0.6508444  3
   1024   1021   1023   1025     1  0.0000000  0.6508444  3
   1024   1021   1023   1026     1  0.0000000  0.6508444  3
   1025   1023   1027   1028     1  0.0000000  3.3472000  1
   1025   1023   1027   1028     1  0.0000000  0.0000000  2
   1025   1023   1027   1028     1  180.0000771  0.3347200  3
   1025   1023   1027   1029     1  0.0000000  3.3472000  1
   1025   1023   1027   1029     1  0.0000000  0.0000000  2
   1025   1023   1027   1029     1  180.0000771  0.3347200  3
   1026   1023   1027   1028     1  0.0000000  3.3472000  1
   1026   1023   1027   1028     1  0.0000000  0.0000000  2
   1026   1023   1027   1028     1  180.0000771  0.3347200  3
   1026   1023   1027   1029     1  0.0000000  3.3472000  1
   1026   1023   1027   1029     1  0.0000000  0.0000000  2
   1026   1023   1027   1029     1  180.0000771  0.3347200  3
   1030   1020   1032   1035     1  0.0000000  0.6508444  3
   1030   1020   1032   1033     1  0.0000000  0.6508444  3
   1030   1020   1032   1034     1  0.0000000  0.6508444  3
   1031   1020   1032   1035     1  0.0000000  0.6508444  3
   1031   1020   1032   1033     1  0.0000000  0.6508444  3
   1031   1020   1032   1034     1  0.0000000  0.6508444  3
   1033   1032   1035   1036     1  0.0000000  3.3472000  1
   1033   1032   1035   1036     1  0.0000000  0.0000000  2
   1033   1032   1035   1036     1  180.0000771  0.3347200  3
   1033   1032   1035   1037     1  0.0000000  3.3472000  1
   1033   1032   1035   1037     1  0.0000000  0.0000000  2
   1033   1032   1035   1037     1  180.0000771  0.3347200  3
   1034   1032   1035   1036     1  0.0000000  3.3472000  1
   1034   1032   1035   1036     1  0.0000000  0.0000000  2
   1034   1032   1035   1036     1  180.0000771  0.3347200  3
   1034   1032   1035   1037     1  0.0000000  3.3472000  1
   1034   1032   1035   1037     1  0.0000000  0.0000000  2
   1034   1032   1035   1037     1  180.0000771  0.3347200  3
   1038   1040   1042   1044     1  0.0000000  0.6508444  3
   1038   1040   1042   1045     1  0.0000000  0.6508444  3
   1039   1038   1040   1042     1  0.0000000  0.0000000  2
   1039   1038   1040   1041     1  0.0000000  0.0000000  2
   1039   1038   1040   1043     1  0.0000000  0.0000000  2
   1041   1040   1042   1046     1  0.0000000  0.6508444  3
   1041   1040   1042   1044     1  0.0000000  0.6508444  3
   1041   1040   1042   1045     1  0.0000000  0.6508444  3
   1042   1046   1047   1057     1  0.0000000  1.2552000  3
   1042   1046   1047   1058     1  0.0000000  1.2552000  3
   1042   1046   1048   1049     1  0.0000000  1.2552000  3
   1042   1046   1048   1051     1  0.0000000  1.2552000  3
   1043   1040   1042   1046     1  0.0000000  0.6508444  3
   1043   1040   1042   1044     1  0.0000000  0.6508444  3
   1043   1040   1042   1045     1  0.0000000  0.6508444  3
   1044   1042   1046   1047     1  0.0000000  1.2552000  3
   1044   1042   1046   1048     1  0.0000000  1.2552000  3
   1045   1042   1046   1047     1  0.0000000  1.2552000  3
   1045   1042   1046   1048     1  0.0000000  1.2552000  3
   1046   1047   1059   1060     1  0.0000000  0.6508444  3
   1046   1047   1059   1061     1  0.0000000  0.6508444  3
   1046   1048   1050   1052     1  0.0000000  0.6508444  3
   1046   1048   1050   1053     1  0.0000000  0.6508444  3
   1047   1046   1048   1049     1  0.0000000  1.2552000  3
   1047   1046   1048   1051     1  0.0000000  1.2552000  3
   1048   1046   1047   1057     1  0.0000000  1.2552000  3
   1048   1046   1047   1058     1  0.0000000  1.2552000  3
   1049   1048   1050   1054     1  0.0000000  0.6508444  3
   1049   1048   1050   1052     1  0.0000000  0.6508444  3
   1049   1048   1050   1053     1  0.0000000  0.6508444  3
   1051   1048   1050   1054     1  0.0000000  0.6508444  3
   1051   1048   1050   1052     1  0.0000000  0.6508444  3
   1051   1048   1050   1053     1  0.0000000  0.6508444  3
   1052   1050   1054   1055     1  0.0000000  3.3472000  1
   1052   1050   1054   1055     1  0.0000000  0.0000000  2
   1052   1050   1054   1055     1  180.0000771  0.3347200  3
   1052   1050   1054   1056     1  0.0000000  3.3472000  1
   1052   1050   1054   1056     1  0.0000000  0.0000000  2
   1052   1050   1054   1056     1  180.0000771  0.3347200  3
   1053   1050   1054   1055     1  0.0000000  3.3472000  1
   1053   1050   1054   1055     1  0.0000000  0.0000000  2
   1053   1050   1054   1055     1  180.0000771  0.3347200  3
   1053   1050   1054   1056     1  0.0000000  3.3472000  1
   1053   1050   1054   1056     1  0.0000000  0.0000000  2
   1053   1050   1054   1056     1  180.0000771  0.3347200  3
   1057   1047   1059   1062     1  0.0000000  0.6508444  3
   1057   1047   1059   1060     1  0.0000000  0.6508444  3
   1057   1047   1059   1061     1  0.0000000  0.6508444  3
   1058   1047   1059   1062     1  0.0000000  0.6508444  3
   1058   1047   1059   1060     1  0.0000000  0.6508444  3
   1058   1047   1059   1061     1  0.0000000  0.6508444  3
   1060   1059   1062   1063     1  0.0000000  3.3472000  1
   1060   1059   1062   1063     1  0.0000000  0.0000000  2
   1060   1059   1062   1063     1  180.0000771  0.3347200  3
   1060   1059   1062   1064     1  0.0000000  3.3472000  1
   1060   1059   1062   1064     1  0.0000000  0.0000000  2
   1060   1059   1062   1064     1  180.0000771  0.3347200  3
   1061   1059   1062   1063     1  0.0000000  3.3472000  1
   1061   1059   1062   1063     1  0.0000000  0.0000000  2
   1061   1059   1062   1063     1  180.0000771  0.3347200  3
   1061   1059   1062   1064     1  0.0000000  3.3472000  1
   1061   1059   1062   1064     1  0.0000000  0.0000000  2
   1061   1059   1062   1064     1  180.0000771  0.3347200  3
   1065   1067   1069   1071     1  0.0000000  0.6508444  3
   1065   1067   1069   1072     1  0.0000000  0.6508444  3
   1066   1065   1067   1069     1  0.0000000  0.0000000  2
   1066   1065   1067   1068     1  0.0000000  0.0000000  2
   1066   1065   1067   1070     1  0.0000000  0.0000000  2
   1068   1067   1069   1073     1  0.0000000  0.6508444  3
   1068   1067   1069   1071     1  0.0000000  0.6508444  3
   1068   1067   1069   1072     1  0.0000000  0.6508444  3
   1069   1073   1074   1084     1  0.0000000  1.2552000  3
   1069   1073   1074   1085     1  0.0000000  1.2552000  3
   1069   1073   1075   1076     1  0.0000000  1.2552000  3
   1069   1073   1075   1078     1  0.0000000  1.2552000  3
   1070   1067   1069   1073     1  0.0000000  0.6508444  3
   1070   1067   1069   1071     1  0.0000000  0.6508444  3
   1070   1067   1069   1072     1  0.0000000  0.6508444  3
   1071   1069   1073   1074     1  0.0000000  1.2552000  3
   1071   1069   1073   1075     1  0.0000000  1.2552000  3
   1072   1069   1073   1074     1  0.0000000  1.2552000  3
   1072   1069   1073   1075     1  0.0000000  1.2552000  3
   1073   1074   1086   1087     1  0.0000000  0.6508444  3
   1073   1074   1086   1088     1  0.0000000  0.6508444  3
   1073   1075   1077   1079     1  0.0000000  0.6508444  3
   1073   1075   1077   1080     1  0.0000000  0.6508444  3
   1074   1073   1075   1076     1  0.0000000  1.2552000  3
   1074   1073   1075   1078     1  0.0000000  1.2552000  3
   1075   1073   1074   1084     1  0.0000000  1.2552000  3
   1075   1073   1074   1085     1  0.0000000  1.2552000  3
   1076   1075   1077   1081     1  0.0000000  0.6508444  3
   1076   1075   1077   1079     1  0.0000000  0.6508444  3
   1076   1075   1077   1080     1  0.0000000  0.6508444  3
   1078   1075   1077   1081     1  0.0000000  0.6508444  3
   1078   1075   1077   1079     1  0.0000000  0.6508444  3
   1078   1075   1077   1080     1  0.0000000  0.6508444  3
   1079   1077   1081   1082     1  0.0000000  3.3472000  1
   1079   1077   1081   1082     1  0.0000000  0.0000000  2
   1079   1077   1081   1082     1  180.0000771  0.3347200  3
   1079   1077   1081   1083     1  0.0000000  3.3472000  1
   1079   1077   1081   1083     1  0.0000000  0.0000000  2
   1079   1077   1081   1083     1  180.0000771  0.3347200  3
   1080   1077   1081   1082     1  0.0000000  3.3472000  1
   1080   1077   1081   1082     1  0.0000000  0.0000000  2
   1080   1077   1081   1082     1  180.0000771  0.3347200  3
   1080   1077   1081   1083     1  0.0000000  3.3472000  1
   1080   1077   1081   1083     1  0.0000000  0.0000000  2
   1080   1077   1081   1083     1  180.0000771  0.3347200  3
   1084   1074   1086   1089     1  0.0000000  0.6508444  3
   1084   1074   1086   1087     1  0.0000000  0.6508444  3
   1084   1074   1086   1088     1  0.0000000  0.6508444  3
   1085   1074   1086   1089     1  0.0000000  0.6508444  3
   1085   1074   1086   1087     1  0.0000000  0.6508444  3
   1085   1074   1086   1088     1  0.0000000  0.6508444  3
   1087   1086   1089   1090     1  0.0000000  3.3472000  1
   1087   1086   1089   1090     1  0.0000000  0.0000000  2
   1087   1086   1089   1090     1  180.0000771  0.3347200  3
   1087   1086   1089   1091     1  0.0000000  3.3472000  1
   1087   1086   1089   1091     1  0.0000000  0.0000000  2
   1087   1086   1089   1091     1  180.0000771  0.3347200  3
   1088   1086   1089   1090     1  0.0000000  3.3472000  1
   1088   1086   1089   1090     1  0.0000000  0.0000000  2
   1088   1086   1089   1090     1  180.0000771  0.3347200  3
   1088   1086   1089   1091     1  0.0000000  3.3472000  1
   1088   1086   1089   1091     1  0.0000000  0.0000000  2
   1088   1086   1089   1091     1  180.0000771  0.3347200  3
   1092   1094   1096   1098     1  0.0000000  0.6508444  3
   1092   1094   1096   1099     1  0.0000000  0.6508444  3
   1093   1092   1094   1096     1  0.0000000  0.0000000  2
   1093   1092   1094   1095     1  0.0000000  0.0000000  2
   1093   1092   1094   1097     1  0.0000000  0.0000000  2
   1095   1094   1096   1100     1  0.0000000  0.6508444  3
   1095   1094   1096   1098     1  0.0000000  0.6508444  3
   1095   1094   1096   1099     1  0.0000000  0.6508444  3
   1096   1100   1101   1111     1  0.0000000  1.2552000  3
   1096   1100   1101   1112     1  0.0000000  1.2552000  3
   1096   1100   1102   1103     1  0.0000000  1.2552000  3
   1096   1100   1102   1105     1  0.0000000  1.2552000  3
   1097   1094   1096   1100     1  0.0000000  0.6508444  3
   1097   1094   1096   1098     1  0.0000000  0.6508444  3
   1097   1094   1096   1099     1  0.0000000  0.6508444  3
   1098   1096   1100   1101     1  0.0000000  1.2552000  3
   1098   1096   1100   1102     1  0.0000000  1.2552000  3
   1099   1096   1100   1101     1  0.0000000  1.2552000  3
   1099   1096   1100   1102     1  0.0000000  1.2552000  3
   1100   1101   1113   1114     1  0.0000000  0.6508444  3
   1100   1101   1113   1115     1  0.0000000  0.6508444  3
   1100   1102   1104   1106     1  0.0000000  0.6508444  3
   1100   1102   1104   1107     1  0.0000000  0.6508444  3
   1101   1100   1102   1103     1  0.0000000  1.2552000  3
   1101   1100   1102   1105     1  0.0000000  1.2552000  3
   1102   1100   1101   1111     1  0.0000000  1.2552000  3
   1102   1100   1101   1112     1  0.0000000  1.2552000  3
   1103   1102   1104   1108     1  0.0000000  0.6508444  3
   1103   1102   1104   1106     1  0.0000000  0.6508444  3
   1103   1102   1104   1107     1  0.0000000  0.6508444  3
   1105   1102   1104   1108     1  0.0000000  0.6508444  3
   1105   1102   1104   1106     1  0.0000000  0.6508444  3
   1105   1102   1104   1107     1  0.0000000  0.6508444  3
   1106   1104   1108   1109     1  0.0000000  3.3472000  1
   1106   1104   1108   1109     1  0.0000000  0.0000000  2
   1106   1104   1108   1109     1  180.0000771  0.3347200  3
   1106   1104   1108   1110     1  0.0000000  3.3472000  1
   1106   1104   1108   1110     1  0.0000000  0.0000000  2
   1106   1104   1108   1110     1  180.0000771  0.3347200  3
   1107   1104   1108   1109     1  0.0000000  3.3472000  1
   1107   1104   1108   1109     1  0.0000000  0.0000000  2
   1107   1104   1108   1109     1  180.0000771  0.3347200  3
   1107   1104   1108   1110     1  0.0000000  3.3472000  1
   1107   1104   1108   1110     1  0.0000000  0.0000000  2
   1107   1104   1108   1110     1  180.0000771  0.3347200  3
   1111   1101   1113   1116     1  0.0000000  0.6508444  3
   1111   1101   1113   1114     1  0.0000000  0.6508444  3
   1111   1101   1113   1115     1  0.0000000  0.6508444  3
   1112   1101   1113   1116     1  0.0000000  0.6508444  3
   1112   1101   1113   1114     1  0.0000000  0.6508444  3
   1112   1101   1113   1115     1  0.0000000  0.6508444  3
   1114   1113   1116   1117     1  0.0000000  3.3472000  1
   1114   1113   1116   1117     1  0.0000000  0.0000000  2
   1114   1113   1116   1117     1  180.0000771  0.3347200  3
   1114   1113   1116   1118     1  0.0000000  3.3472000  1
   1114   1113   1116   1118     1  0.0000000  0.0000000  2
   1114   1113   1116   1118     1  180.0000771  0.3347200  3
   1115   1113   1116   1117     1  0.0000000  3.3472000  1
   1115   1113   1116   1117     1  0.0000000  0.0000000  2
   1115   1113   1116   1117     1  180.0000771  0.3347200  3
   1115   1113   1116   1118     1  0.0000000  3.3472000  1
   1115   1113   1116   1118     1  0.0000000  0.0000000  2
   1115   1113   1116   1118     1  180.0000771  0.3347200  3
   1119   1121   1123   1125     1  0.0000000  0.6508444  3
   1119   1121   1123   1126     1  0.0000000  0.6508444  3
   1120   1119   1121   1123     1  0.0000000  0.0000000  2
   1120   1119   1121   1122     1  0.0000000  0.0000000  2
   1120   1119   1121   1124     1  0.0000000  0.0000000  2
   1122   1121   1123   1127     1  0.0000000  0.6508444  3
   1122   1121   1123   1125     1  0.0000000  0.6508444  3
   1122   1121   1123   1126     1  0.0000000  0.6508444  3
   1123   1127   1128   1138     1  0.0000000  1.2552000  3
   1123   1127   1128   1139     1  0.0000000  1.2552000  3
   1123   1127   1129   1130     1  0.0000000  1.2552000  3
   1123   1127   1129   1132     1  0.0000000  1.2552000  3
   1124   1121   1123   1127     1  0.0000000  0.6508444  3
   1124   1121   1123   1125     1  0.0000000  0.6508444  3
   1124   1121   1123   1126     1  0.0000000  0.6508444  3
   1125   1123   1127   1128     1  0.0000000  1.2552000  3
   1125   1123   1127   1129     1  0.0000000  1.2552000  3
   1126   1123   1127   1128     1  0.0000000  1.2552000  3
   1126   1123   1127   1129     1  0.0000000  1.2552000  3
   1127   1128   1140   1141     1  0.0000000  0.6508444  3
   1127   1128   1140   1142     1  0.0000000  0.6508444  3
   1127   1129   1131   1133     1  0.0000000  0.6508444  3
   1127   1129   1131   1134     1  0.0000000  0.6508444  3
   1128   1127   1129   1130     1  0.0000000  1.2552000  3
   1128   1127   1129   1132     1  0.0000000  1.2552000  3
   1129   1127   1128   1138     1  0.0000000  1.2552000  3
   1129   1127   1128   1139     1  0.0000000  1.2552000  3
   1130   1129   1131   1135     1  0.0000000  0.6508444  3
   1130   1129   1131   1133     1  0.0000000  0.6508444  3
   1130   1129   1131   1134     1  0.0000000  0.6508444  3
   1132   1129   1131   1135     1  0.0000000  0.6508444  3
   1132   1129   1131   1133     1  0.0000000  0.6508444  3
   1132   1129   1131   1134     1  0.0000000  0.6508444  3
   1133   1131   1135   1136     1  0.0000000  3.3472000  1
   1133   1131   1135   1136     1  0.0000000  0.0000000  2
   1133   1131   1135   1136     1  180.0000771  0.3347200  3
   1133   1131   1135   1137     1  0.0000000  3.3472000  1
   1133   1131   1135   1137     1  0.0000000  0.0000000  2
   1133   1131   1135   1137     1  180.0000771  0.3347200  3
   1134   1131   1135   1136     1  0.0000000  3.3472000  1
   1134   1131   1135   1136     1  0.0000000  0.0000000  2
   1134   1131   1135   1136     1  180.0000771  0.3347200  3
   1134   1131   1135   1137     1  0.0000000  3.3472000  1
   1134   1131   1135   1137     1  0.0000000  0.0000000  2
   1134   1131   1135   1137     1  180.0000771  0.3347200  3
   1138   1128   1140   1143     1  0.0000000  0.6508444  3
   1138   1128   1140   1141     1  0.0000000  0.6508444  3
   1138   1128   1140   1142     1  0.0000000  0.6508444  3
   1139   1128   1140   1143     1  0.0000000  0.6508444  3
   1139   1128   1140   1141     1  0.0000000  0.6508444  3
   1139   1128   1140   1142     1  0.0000000  0.6508444  3
   1141   1140   1143   1144     1  0.0000000  3.3472000  1
   1141   1140   1143   1144     1  0.0000000  0.0000000  2
   1141   1140   1143   1144     1  180.0000771  0.3347200  3
   1141   1140   1143   1145     1  0.0000000  3.3472000  1
   1141   1140   1143   1145     1  0.0000000  0.0000000  2
   1141   1140   1143   1145     1  180.0000771  0.3347200  3
   1142   1140   1143   1144     1  0.0000000  3.3472000  1
   1142   1140   1143   1144     1  0.0000000  0.0000000  2
   1142   1140   1143   1144     1  180.0000771  0.3347200  3
   1142   1140   1143   1145     1  0.0000000  3.3472000  1
   1142   1140   1143   1145     1  0.0000000  0.0000000  2
   1142   1140   1143   1145     1  180.0000771  0.3347200  3
   1146   1148   1150   1152     1  0.0000000  0.6508444  3
   1146   1148   1150   1153     1  0.0000000  0.6508444  3
   1147   1146   1148   1150     1  0.0000000  0.0000000  2
   1147   1146   1148   1149     1  0.0000000  0.0000000  2
   1147   1146   1148   1151     1  0.0000000  0.0000000  2
   1149   1148   1150   1154     1  0.0000000  0.6508444  3
   1149   1148   1150   1152     1  0.0000000  0.6508444  3
   1149   1148   1150   1153     1  0.0000000  0.6508444  3
   1150   1154   1155   1165     1  0.0000000  1.2552000  3
   1150   1154   1155   1166     1  0.0000000  1.2552000  3
   1150   1154   1156   1157     1  0.0000000  1.2552000  3
   1150   1154   1156   1159     1  0.0000000  1.2552000  3
   1151   1148   1150   1154     1  0.0000000  0.6508444  3
   1151   1148   1150   1152     1  0.0000000  0.6508444  3
   1151   1148   1150   1153     1  0.0000000  0.6508444  3
   1152   1150   1154   1155     1  0.0000000  1.2552000  3
   1152   1150   1154   1156     1  0.0000000  1.2552000  3
   1153   1150   1154   1155     1  0.0000000  1.2552000  3
   1153   1150   1154   1156     1  0.0000000  1.2552000  3
   1154   1155   1167   1168     1  0.0000000  0.6508444  3
   1154   1155   1167   1169     1  0.0000000  0.6508444  3
   1154   1156   1158   1160     1  0.0000000  0.6508444  3
   1154   1156   1158   1161     1  0.0000000  0.6508444  3
   1155   1154   1156   1157     1  0.0000000  1.2552000  3
   1155   1154   1156   1159     1  0.0000000  1.2552000  3
   1156   1154   1155   1165     1  0.0000000  1.2552000  3
   1156   1154   1155   1166     1  0.0000000  1.2552000  3
   1157   1156   1158   1162     1  0.0000000  0.6508444  3
   1157   1156   1158   1160     1  0.0000000  0.6508444  3
   1157   1156   1158   1161     1  0.0000000  0.6508444  3
   1159   1156   1158   1162     1  0.0000000  0.6508444  3
   1159   1156   1158   1160     1  0.0000000  0.6508444  3
   1159   1156   1158   1161     1  0.0000000  0.6508444  3
   1160   1158   1162   1163     1  0.0000000  3.3472000  1
   1160   1158   1162   1163     1  0.0000000  0.0000000  2
   1160   1158   1162   1163     1  180.0000771  0.3347200  3
   1160   1158   1162   1164     1  0.0000000  3.3472000  1
   1160   1158   1162   1164     1  0.0000000  0.0000000  2
   1160   1158   1162   1164     1  180.0000771  0.3347200  3
   1161   1158   1162   1163     1  0.0000000  3.3472000  1
   1161   1158   1162   1163     1  0.0000000  0.0000000  2
   1161   1158   1162   1163     1  180.0000771  0.3347200  3
   1161   1158   1162   1164     1  0.0000000  3.3472000  1
   1161   1158   1162   1164     1  0.0000000  0.0000000  2
   1161   1158   1162   1164     1  180.0000771  0.3347200  3
   1165   1155   1167   1170     1  0.0000000  0.6508444  3
   1165   1155   1167   1168     1  0.0000000  0.6508444  3
   1165   1155   1167   1169     1  0.0000000  0.6508444  3
   1166   1155   1167   1170     1  0.0000000  0.6508444  3
   1166   1155   1167   1168     1  0.0000000  0.6508444  3
   1166   1155   1167   1169     1  0.0000000  0.6508444  3
   1168   1167   1170   1171     1  0.0000000  3.3472000  1
   1168   1167   1170   1171     1  0.0000000  0.0000000  2
   1168   1167   1170   1171     1  180.0000771  0.3347200  3
   1168   1167   1170   1172     1  0.0000000  3.3472000  1
   1168   1167   1170   1172     1  0.0000000  0.0000000  2
   1168   1167   1170   1172     1  180.0000771  0.3347200  3
   1169   1167   1170   1171     1  0.0000000  3.3472000  1
   1169   1167   1170   1171     1  0.0000000  0.0000000  2
   1169   1167   1170   1171     1  180.0000771  0.3347200  3
   1169   1167   1170   1172     1  0.0000000  3.3472000  1
   1169   1167   1170   1172     1  0.0000000  0.0000000  2
   1169   1167   1170   1172     1  180.0000771  0.3347200  3
   1173   1175   1177   1179     1  0.0000000  0.6508444  3
   1173   1175   1177   1180     1  0.0000000  0.6508444  3
   1174   1173   1175   1177     1  0.0000000  0.0000000  2
   1174   1173   1175   1176     1  0.0000000  0.0000000  2
   1174   1173   1175   1178     1  0.0000000  0.0000000  2
   1176   1175   1177   1181     1  0.0000000  0.6508444  3
   1176   1175   1177   1179     1  0.0000000  0.6508444  3
   1176   1175   1177   1180     1  0.0000000  0.6508444  3
   1177   1181   1182   1192     1  0.0000000  1.2552000  3
   1177   1181   1182   1193     1  0.0000000  1.2552000  3
   1177   1181   1183   1184     1  0.0000000  1.2552000  3
   1177   1181   1183   1186     1  0.0000000  1.2552000  3
   1178   1175   1177   1181     1  0.0000000  0.6508444  3
   1178   1175   1177   1179     1  0.0000000  0.6508444  3
   1178   1175   1177   1180     1  0.0000000  0.6508444  3
   1179   1177   1181   1182     1  0.0000000  1.2552000  3
   1179   1177   1181   1183     1  0.0000000  1.2552000  3
   1180   1177   1181   1182     1  0.0000000  1.2552000  3
   1180   1177   1181   1183     1  0.0000000  1.2552000  3
   1181   1182   1194   1195     1  0.0000000  0.6508444  3
   1181   1182   1194   1196     1  0.0000000  0.6508444  3
   1181   1183   1185   1187     1  0.0000000  0.6508444  3
   1181   1183   1185   1188     1  0.0000000  0.6508444  3
   1182   1181   1183   1184     1  0.0000000  1.2552000  3
   1182   1181   1183   1186     1  0.0000000  1.2552000  3
   1183   1181   1182   1192     1  0.0000000  1.2552000  3
   1183   1181   1182   1193     1  0.0000000  1.2552000  3
   1184   1183   1185   1189     1  0.0000000  0.6508444  3
   1184   1183   1185   1187     1  0.0000000  0.6508444  3
   1184   1183   1185   1188     1  0.0000000  0.6508444  3
   1186   1183   1185   1189     1  0.0000000  0.6508444  3
   1186   1183   1185   1187     1  0.0000000  0.6508444  3
   1186   1183   1185   1188     1  0.0000000  0.6508444  3
   1187   1185   1189   1190     1  0.0000000  3.3472000  1
   1187   1185   1189   1190     1  0.0000000  0.0000000  2
   1187   1185   1189   1190     1  180.0000771  0.3347200  3
   1187   1185   1189   1191     1  0.0000000  3.3472000  1
   1187   1185   1189   1191     1  0.0000000  0.0000000  2
   1187   1185   1189   1191     1  180.0000771  0.3347200  3
   1188   1185   1189   1190     1  0.0000000  3.3472000  1
   1188   1185   1189   1190     1  0.0000000  0.0000000  2
   1188   1185   1189   1190     1  180.0000771  0.3347200  3
   1188   1185   1189   1191     1  0.0000000  3.3472000  1
   1188   1185   1189   1191     1  0.0000000  0.0000000  2
   1188   1185   1189   1191     1  180.0000771  0.3347200  3
   1192   1182   1194   1197     1  0.0000000  0.6508444  3
   1192   1182   1194   1195     1  0.0000000  0.6508444  3
   1192   1182   1194   1196     1  0.0000000  0.6508444  3
   1193   1182   1194   1197     1  0.0000000  0.6508444  3
   1193   1182   1194   1195     1  0.0000000  0.6508444  3
   1193   1182   1194   1196     1  0.0000000  0.6508444  3
   1195   1194   1197   1198     1  0.0000000  3.3472000  1
   1195   1194   1197   1198     1  0.0000000  0.0000000  2
   1195   1194   1197   1198     1  180.0000771  0.3347200  3
   1195   1194   1197   1199     1  0.0000000  3.3472000  1
   1195   1194   1197   1199     1  0.0000000  0.0000000  2
   1195   1194   1197   1199     1  180.0000771  0.3347200  3
   1196   1194   1197   1198     1  0.0000000  3.3472000  1
   1196   1194   1197   1198     1  0.0000000  0.0000000  2
   1196   1194   1197   1198     1  180.0000771  0.3347200  3
   1196   1194   1197   1199     1  0.0000000  3.3472000  1
   1196   1194   1197   1199     1  0.0000000  0.0000000  2
   1196   1194   1197   1199     1  180.0000771  0.3347200  3
   1200   1202   1204   1206     1  0.0000000  0.6508444  3
   1200   1202   1204   1207     1  0.0000000  0.6508444  3
   1201   1200   1202   1204     1  0.0000000  0.0000000  2
   1201   1200   1202   1203     1  0.0000000  0.0000000  2
   1201   1200   1202   1205     1  0.0000000  0.0000000  2
   1203   1202   1204   1208     1  0.0000000  0.6508444  3
   1203   1202   1204   1206     1  0.0000000  0.6508444  3
   1203   1202   1204   1207     1  0.0000000  0.6508444  3
   1204   1208   1209   1219     1  0.0000000  1.2552000  3
   1204   1208   1209   1220     1  0.0000000  1.2552000  3
   1204   1208   1210   1211     1  0.0000000  1.2552000  3
   1204   1208   1210   1213     1  0.0000000  1.2552000  3
   1205   1202   1204   1208     1  0.0000000  0.6508444  3
   1205   1202   1204   1206     1  0.0000000  0.6508444  3
   1205   1202   1204   1207     1  0.0000000  0.6508444  3
   1206   1204   1208   1209     1  0.0000000  1.2552000  3
   1206   1204   1208   1210     1  0.0000000  1.2552000  3
   1207   1204   1208   1209     1  0.0000000  1.2552000  3
   1207   1204   1208   1210     1  0.0000000  1.2552000  3
   1208   1209   1221   1222     1  0.0000000  0.6508444  3
   1208   1209   1221   1223     1  0.0000000  0.6508444  3
   1208   1210   1212   1214     1  0.0000000  0.6508444  3
   1208   1210   1212   1215     1  0.0000000  0.6508444  3
   1209   1208   1210   1211     1  0.0000000  1.2552000  3
   1209   1208   1210   1213     1  0.0000000  1.2552000  3
   1210   1208   1209   1219     1  0.0000000  1.2552000  3
   1210   1208   1209   1220     1  0.0000000  1.2552000  3
   1211   1210   1212   1216     1  0.0000000  0.6508444  3
   1211   1210   1212   1214     1  0.0000000  0.6508444  3
   1211   1210   1212   1215     1  0.0000000  0.6508444  3
   1213   1210   1212   1216     1  0.0000000  0.6508444  3
   1213   1210   1212   1214     1  0.0000000  0.6508444  3
   1213   1210   1212   1215     1  0.0000000  0.6508444  3
   1214   1212   1216   1217     1  0.0000000  3.3472000  1
   1214   1212   1216   1217     1  0.0000000  0.0000000  2
   1214   1212   1216   1217     1  180.0000771  0.3347200  3
   1214   1212   1216   1218     1  0.0000000  3.3472000  1
   1214   1212   1216   1218     1  0.0000000  0.0000000  2
   1214   1212   1216   1218     1  180.0000771  0.3347200  3
   1215   1212   1216   1217     1  0.0000000  3.3472000  1
   1215   1212   1216   1217     1  0.0000000  0.0000000  2
   1215   1212   1216   1217     1  180.0000771  0.3347200  3
   1215   1212   1216   1218     1  0.0000000  3.3472000  1
   1215   1212   1216   1218     1  0.0000000  0.0000000  2
   1215   1212   1216   1218     1  180.0000771  0.3347200  3
   1219   1209   1221   1224     1  0.0000000  0.6508444  3
   1219   1209   1221   1222     1  0.0000000  0.6508444  3
   1219   1209   1221   1223     1  0.0000000  0.6508444  3
   1220   1209   1221   1224     1  0.0000000  0.6508444  3
   1220   1209   1221   1222     1  0.0000000  0.6508444  3
   1220   1209   1221   1223     1  0.0000000  0.6508444  3
   1222   1221   1224   1225     1  0.0000000  3.3472000  1
   1222   1221   1224   1225     1  0.0000000  0.0000000  2
   1222   1221   1224   1225     1  180.0000771  0.3347200  3
   1222   1221   1224   1226     1  0.0000000  3.3472000  1
   1222   1221   1224   1226     1  0.0000000  0.0000000  2
   1222   1221   1224   1226     1  180.0000771  0.3347200  3
   1223   1221   1224   1225     1  0.0000000  3.3472000  1
   1223   1221   1224   1225     1  0.0000000  0.0000000  2
   1223   1221   1224   1225     1  180.0000771  0.3347200  3
   1223   1221   1224   1226     1  0.0000000  3.3472000  1
   1223   1221   1224   1226     1  0.0000000  0.0000000  2
   1223   1221   1224   1226     1  180.0000771  0.3347200  3
   1227   1229   1231   1233     1  0.0000000  0.6508444  3
   1227   1229   1231   1234     1  0.0000000  0.6508444  3
   1228   1227   1229   1231     1  0.0000000  0.0000000  2
   1228   1227   1229   1230     1  0.0000000  0.0000000  2
   1228   1227   1229   1232     1  0.0000000  0.0000000  2
   1230   1229   1231   1235     1  0.0000000  0.6508444  3
   1230   1229   1231   1233     1  0.0000000  0.6508444  3
   1230   1229   1231   1234     1  0.0000000  0.6508444  3
   1231   1235   1236   1246     1  0.0000000  1.2552000  3
   1231   1235   1236   1247     1  0.0000000  1.2552000  3
   1231   1235   1237   1238     1  0.0000000  1.2552000  3
   1231   1235   1237   1240     1  0.0000000  1.2552000  3
   1232   1229   1231   1235     1  0.0000000  0.6508444  3
   1232   1229   1231   1233     1  0.0000000  0.6508444  3
   1232   1229   1231   1234     1  0.0000000  0.6508444  3
   1233   1231   1235   1236     1  0.0000000  1.2552000  3
   1233   1231   1235   1237     1  0.0000000  1.2552000  3
   1234   1231   1235   1236     1  0.0000000  1.2552000  3
   1234   1231   1235   1237     1  0.0000000  1.2552000  3
   1235   1236   1248   1249     1  0.0000000  0.6508444  3
   1235   1236   1248   1250     1  0.0000000  0.6508444  3
   1235   1237   1239   1241     1  0.0000000  0.6508444  3
   1235   1237   1239   1242     1  0.0000000  0.6508444  3
   1236   1235   1237   1238     1  0.0000000  1.2552000  3
   1236   1235   1237   1240     1  0.0000000  1.2552000  3
   1237   1235   1236   1246     1  0.0000000  1.2552000  3
   1237   1235   1236   1247     1  0.0000000  1.2552000  3
   1238   1237   1239   1243     1  0.0000000  0.6508444  3
   1238   1237   1239   1241     1  0.0000000  0.6508444  3
   1238   1237   1239   1242     1  0.0000000  0.6508444  3
   1240   1237   1239   1243     1  0.0000000  0.6508444  3
   1240   1237   1239   1241     1  0.0000000  0.6508444  3
   1240   1237   1239   1242     1  0.0000000  0.6508444  3
   1241   1239   1243   1244     1  0.0000000  3.3472000  1
   1241   1239   1243   1244     1  0.0000000  0.0000000  2
   1241   1239   1243   1244     1  180.0000771  0.3347200  3
   1241   1239   1243   1245     1  0.0000000  3.3472000  1
   1241   1239   1243   1245     1  0.0000000  0.0000000  2
   1241   1239   1243   1245     1  180.0000771  0.3347200  3
   1242   1239   1243   1244     1  0.0000000  3.3472000  1
   1242   1239   1243   1244     1  0.0000000  0.0000000  2
   1242   1239   1243   1244     1  180.0000771  0.3347200  3
   1242   1239   1243   1245     1  0.0000000  3.3472000  1
   1242   1239   1243   1245     1  0.0000000  0.0000000  2
   1242   1239   1243   1245     1  180.0000771  0.3347200  3
   1246   1236   1248   1251     1  0.0000000  0.6508444  3
   1246   1236   1248   1249     1  0.0000000  0.6508444  3
   1246   1236   1248   1250     1  0.0000000  0.6508444  3
   1247   1236   1248   1251     1  0.0000000  0.6508444  3
   1247   1236   1248   1249     1  0.0000000  0.6508444  3
   1247   1236   1248   1250     1  0.0000000  0.6508444  3
   1249   1248   1251   1252     1  0.0000000  3.3472000  1
   1249   1248   1251   1252     1  0.0000000  0.0000000  2
   1249   1248   1251   1252     1  180.0000771  0.3347200  3
   1249   1248   1251   1253     1  0.0000000  3.3472000  1
   1249   1248   1251   1253     1  0.0000000  0.0000000  2
   1249   1248   1251   1253     1  180.0000771  0.3347200  3
   1250   1248   1251   1252     1  0.0000000  3.3472000  1
   1250   1248   1251   1252     1  0.0000000  0.0000000  2
   1250   1248   1251   1252     1  180.0000771  0.3347200  3
   1250   1248   1251   1253     1  0.0000000  3.3472000  1
   1250   1248   1251   1253     1  0.0000000  0.0000000  2
   1250   1248   1251   1253     1  180.0000771  0.3347200  3
   1254   1256   1258   1260     1  0.0000000  0.6508444  3
   1254   1256   1258   1261     1  0.0000000  0.6508444  3
   1255   1254   1256   1258     1  0.0000000  0.0000000  2
   1255   1254   1256   1257     1  0.0000000  0.0000000  2
   1255   1254   1256   1259     1  0.0000000  0.0000000  2
   1257   1256   1258   1262     1  0.0000000  0.6508444  3
   1257   1256   1258   1260     1  0.0000000  0.6508444  3
   1257   1256   1258   1261     1  0.0000000  0.6508444  3
   1258   1262   1263   1273     1  0.0000000  1.2552000  3
   1258   1262   1263   1274     1  0.0000000  1.2552000  3
   1258   1262   1264   1265     1  0.0000000  1.2552000  3
   1258   1262   1264   1267     1  0.0000000  1.2552000  3
   1259   1256   1258   1262     1  0.0000000  0.6508444  3
   1259   1256   1258   1260     1  0.0000000  0.6508444  3
   1259   1256   1258   1261     1  0.0000000  0.6508444  3
   1260   1258   1262   1263     1  0.0000000  1.2552000  3
   1260   1258   1262   1264     1  0.0000000  1.2552000  3
   1261   1258   1262   1263     1  0.0000000  1.2552000  3
   1261   1258   1262   1264     1  0.0000000  1.2552000  3
   1262   1263   1275   1276     1  0.0000000  0.6508444  3
   1262   1263   1275   1277     1  0.0000000  0.6508444  3
   1262   1264   1266   1268     1  0.0000000  0.6508444  3
   1262   1264   1266   1269     1  0.0000000  0.6508444  3
   1263   1262   1264   1265     1  0.0000000  1.2552000  3
   1263   1262   1264   1267     1  0.0000000  1.2552000  3
   1264   1262   1263   1273     1  0.0000000  1.2552000  3
   1264   1262   1263   1274     1  0.0000000  1.2552000  3
   1265   1264   1266   1270     1  0.0000000  0.6508444  3
   1265   1264   1266   1268     1  0.0000000  0.6508444  3
   1265   1264   1266   1269     1  0.0000000  0.6508444  3
   1267   1264   1266   1270     1  0.0000000  0.6508444  3
   1267   1264   1266   1268     1  0.0000000  0.6508444  3
   1267   1264   1266   1269     1  0.0000000  0.6508444  3
   1268   1266   1270   1271     1  0.0000000  3.3472000  1
   1268   1266   1270   1271     1  0.0000000  0.0000000  2
   1268   1266   1270   1271     1  180.0000771  0.3347200  3
   1268   1266   1270   1272     1  0.0000000  3.3472000  1
   1268   1266   1270   1272     1  0.0000000  0.0000000  2
   1268   1266   1270   1272     1  180.0000771  0.3347200  3
   1269   1266   1270   1271     1  0.0000000  3.3472000  1
   1269   1266   1270   1271     1  0.0000000  0.0000000  2
   1269   1266   1270   1271     1  180.0000771  0.3347200  3
   1269   1266   1270   1272     1  0.0000000  3.3472000  1
   1269   1266   1270   1272     1  0.0000000  0.0000000  2
   1269   1266   1270   1272     1  180.0000771  0.3347200  3
   1273   1263   1275   1278     1  0.0000000  0.6508444  3
   1273   1263   1275   1276     1  0.0000000  0.6508444  3
   1273   1263   1275   1277     1  0.0000000  0.6508444  3
   1274   1263   1275   1278     1  0.0000000  0.6508444  3
   1274   1263   1275   1276     1  0.0000000  0.6508444  3
   1274   1263   1275   1277     1  0.0000000  0.6508444  3
   1276   1275   1278   1279     1  0.0000000  3.3472000  1
   1276   1275   1278   1279     1  0.0000000  0.0000000  2
   1276   1275   1278   1279     1  180.0000771  0.3347200  3
   1276   1275   1278   1280     1  0.0000000  3.3472000  1
   1276   1275   1278   1280     1  0.0000000  0.0000000  2
   1276   1275   1278   1280     1  180.0000771  0.3347200  3
   1277   1275   1278   1279     1  0.0000000  3.3472000  1
   1277   1275   1278   1279     1  0.0000000  0.0000000  2
   1277   1275   1278   1279     1  180.0000771  0.3347200  3
   1277   1275   1278   1280     1  0.0000000  3.3472000  1
   1277   1275   1278   1280     1  0.0000000  0.0000000  2
   1277   1275   1278   1280     1  180.0000771  0.3347200  3
   1281   1283   1285   1287     1  0.0000000  0.6508444  3
   1281   1283   1285   1288     1  0.0000000  0.6508444  3
   1282   1281   1283   1285     1  0.0000000  0.0000000  2
   1282   1281   1283   1284     1  0.0000000  0.0000000  2
   1282   1281   1283   1286     1  0.0000000  0.0000000  2
   1284   1283   1285   1289     1  0.0000000  0.6508444  3
   1284   1283   1285   1287     1  0.0000000  0.6508444  3
   1284   1283   1285   1288     1  0.0000000  0.6508444  3
   1285   1289   1290   1300     1  0.0000000  1.2552000  3
   1285   1289   1290   1301     1  0.0000000  1.2552000  3
   1285   1289   1291   1292     1  0.0000000  1.2552000  3
   1285   1289   1291   1294     1  0.0000000  1.2552000  3
   1286   1283   1285   1289     1  0.0000000  0.6508444  3
   1286   1283   1285   1287     1  0.0000000  0.6508444  3
   1286   1283   1285   1288     1  0.0000000  0.6508444  3
   1287   1285   1289   1290     1  0.0000000  1.2552000  3
   1287   1285   1289   1291     1  0.0000000  1.2552000  3
   1288   1285   1289   1290     1  0.0000000  1.2552000  3
   1288   1285   1289   1291     1  0.0000000  1.2552000  3
   1289   1290   1302   1303     1  0.0000000  0.6508444  3
   1289   1290   1302   1304     1  0.0000000  0.6508444  3
   1289   1291   1293   1295     1  0.0000000  0.6508444  3
   1289   1291   1293   1296     1  0.0000000  0.6508444  3
   1290   1289   1291   1292     1  0.0000000  1.2552000  3
   1290   1289   1291   1294     1  0.0000000  1.2552000  3
   1291   1289   1290   1300     1  0.0000000  1.2552000  3
   1291   1289   1290   1301     1  0.0000000  1.2552000  3
   1292   1291   1293   1297     1  0.0000000  0.6508444  3
   1292   1291   1293   1295     1  0.0000000  0.6508444  3
   1292   1291   1293   1296     1  0.0000000  0.6508444  3
   1294   1291   1293   1297     1  0.0000000  0.6508444  3
   1294   1291   1293   1295     1  0.0000000  0.6508444  3
   1294   1291   1293   1296     1  0.0000000  0.6508444  3
   1295   1293   1297   1298     1  0.0000000  3.3472000  1
   1295   1293   1297   1298     1  0.0000000  0.0000000  2
   1295   1293   1297   1298     1  180.0000771  0.3347200  3
   1295   1293   1297   1299     1  0.0000000  3.3472000  1
   1295   1293   1297   1299     1  0.0000000  0.0000000  2
   1295   1293   1297   1299     1  180.0000771  0.3347200  3
   1296   1293   1297   1298     1  0.0000000  3.3472000  1
   1296   1293   1297   1298     1  0.0000000  0.0000000  2
   1296   1293   1297   1298     1  180.0000771  0.3347200  3
   1296   1293   1297   1299     1  0.0000000  3.3472000  1
   1296   1293   1297   1299     1  0.0000000  0.0000000  2
   1296   1293   1297   1299     1  180.0000771  0.3347200  3
   1300   1290   1302   1305     1  0.0000000  0.6508444  3
   1300   1290   1302   1303     1  0.0000000  0.6508444  3
   1300   1290   1302   1304     1  0.0000000  0.6508444  3
   1301   1290   1302   1305     1  0.0000000  0.6508444  3
   1301   1290   1302   1303     1  0.0000000  0.6508444  3
   1301   1290   1302   1304     1  0.0000000  0.6508444  3
   1303   1302   1305   1306     1  0.0000000  3.3472000  1
   1303   1302   1305   1306     1  0.0000000  0.0000000  2
   1303   1302   1305   1306     1  180.0000771  0.3347200  3
   1303   1302   1305   1307     1  0.0000000  3.3472000  1
   1303   1302   1305   1307     1  0.0000000  0.0000000  2
   1303   1302   1305   1307     1  180.0000771  0.3347200  3
   1304   1302   1305   1306     1  0.0000000  3.3472000  1
   1304   1302   1305   1306     1  0.0000000  0.0000000  2
   1304   1302   1305   1306     1  180.0000771  0.3347200  3
   1304   1302   1305   1307     1  0.0000000  3.3472000  1
   1304   1302   1305   1307     1  0.0000000  0.0000000  2
   1304   1302   1305   1307     1  180.0000771  0.3347200  3
   1308   1310   1312   1314     1  0.0000000  0.6508444  3
   1308   1310   1312   1315     1  0.0000000  0.6508444  3
   1309   1308   1310   1312     1  0.0000000  0.0000000  2
   1309   1308   1310   1311     1  0.0000000  0.0000000  2
   1309   1308   1310   1313     1  0.0000000  0.0000000  2
   1311   1310   1312   1316     1  0.0000000  0.6508444  3
   1311   1310   1312   1314     1  0.0000000  0.6508444  3
   1311   1310   1312   1315     1  0.0000000  0.6508444  3
   1312   1316   1317   1327     1  0.0000000  1.2552000  3
   1312   1316   1317   1328     1  0.0000000  1.2552000  3
   1312   1316   1318   1319     1  0.0000000  1.2552000  3
   1312   1316   1318   1321     1  0.0000000  1.2552000  3
   1313   1310   1312   1316     1  0.0000000  0.6508444  3
   1313   1310   1312   1314     1  0.0000000  0.6508444  3
   1313   1310   1312   1315     1  0.0000000  0.6508444  3
   1314   1312   1316   1317     1  0.0000000  1.2552000  3
   1314   1312   1316   1318     1  0.0000000  1.2552000  3
   1315   1312   1316   1317     1  0.0000000  1.2552000  3
   1315   1312   1316   1318     1  0.0000000  1.2552000  3
   1316   1317   1329   1330     1  0.0000000  0.6508444  3
   1316   1317   1329   1331     1  0.0000000  0.6508444  3
   1316   1318   1320   1322     1  0.0000000  0.6508444  3
   1316   1318   1320   1323     1  0.0000000  0.6508444  3
   1317   1316   1318   1319     1  0.0000000  1.2552000  3
   1317   1316   1318   1321     1  0.0000000  1.2552000  3
   1318   1316   1317   1327     1  0.0000000  1.2552000  3
   1318   1316   1317   1328     1  0.0000000  1.2552000  3
   1319   1318   1320   1324     1  0.0000000  0.6508444  3
   1319   1318   1320   1322     1  0.0000000  0.6508444  3
   1319   1318   1320   1323     1  0.0000000  0.6508444  3
   1321   1318   1320   1324     1  0.0000000  0.6508444  3
   1321   1318   1320   1322     1  0.0000000  0.6508444  3
   1321   1318   1320   1323     1  0.0000000  0.6508444  3
   1322   1320   1324   1325     1  0.0000000  3.3472000  1
   1322   1320   1324   1325     1  0.0000000  0.0000000  2
   1322   1320   1324   1325     1  180.0000771  0.3347200  3
   1322   1320   1324   1326     1  0.0000000  3.3472000  1
   1322   1320   1324   1326     1  0.0000000  0.0000000  2
   1322   1320   1324   1326     1  180.0000771  0.3347200  3
   1323   1320   1324   1325     1  0.0000000  3.3472000  1
   1323   1320   1324   1325     1  0.0000000  0.0000000  2
   1323   1320   1324   1325     1  180.0000771  0.3347200  3
   1323   1320   1324   1326     1  0.0000000  3.3472000  1
   1323   1320   1324   1326     1  0.0000000  0.0000000  2
   1323   1320   1324   1326     1  180.0000771  0.3347200  3
   1327   1317   1329   1332     1  0.0000000  0.6508444  3
   1327   1317   1329   1330     1  0.0000000  0.6508444  3
   1327   1317   1329   1331     1  0.0000000  0.6508444  3
   1328   1317   1329   1332     1  0.0000000  0.6508444  3
   1328   1317   1329   1330     1  0.0000000  0.6508444  3
   1328   1317   1329   1331     1  0.0000000  0.6508444  3
   1330   1329   1332   1333     1  0.0000000  3.3472000  1
   1330   1329   1332   1333     1  0.0000000  0.0000000  2
   1330   1329   1332   1333     1  180.0000771  0.3347200  3
   1330   1329   1332   1334     1  0.0000000  3.3472000  1
   1330   1329   1332   1334     1  0.0000000  0.0000000  2
   1330   1329   1332   1334     1  180.0000771  0.3347200  3
   1331   1329   1332   1333     1  0.0000000  3.3472000  1
   1331   1329   1332   1333     1  0.0000000  0.0000000  2
   1331   1329   1332   1333     1  180.0000771  0.3347200  3
   1331   1329   1332   1334     1  0.0000000  3.3472000  1
   1331   1329   1332   1334     1  0.0000000  0.0000000  2
   1331   1329   1332   1334     1  180.0000771  0.3347200  3
   1335   1337   1339   1341     1  0.0000000  0.6508444  3
   1335   1337   1339   1342     1  0.0000000  0.6508444  3
   1336   1335   1337   1339     1  0.0000000  0.0000000  2
   1336   1335   1337   1338     1  0.0000000  0.0000000  2
   1336   1335   1337   1340     1  0.0000000  0.0000000  2
   1338   1337   1339   1343     1  0.0000000  0.6508444  3
   1338   1337   1339   1341     1  0.0000000  0.6508444  3
   1338   1337   1339   1342     1  0.0000000  0.6508444  3
   1339   1343   1344   1354     1  0.0000000  1.2552000  3
   1339   1343   1344   1355     1  0.0000000  1.2552000  3
   1339   1343   1345   1346     1  0.0000000  1.2552000  3
   1339   1343   1345   1348     1  0.0000000  1.2552000  3
   1340   1337   1339   1343     1  0.0000000  0.6508444  3
   1340   1337   1339   1341     1  0.0000000  0.6508444  3
   1340   1337   1339   1342     1  0.0000000  0.6508444  3
   1341   1339   1343   1344     1  0.0000000  1.2552000  3
   1341   1339   1343   1345     1  0.0000000  1.2552000  3
   1342   1339   1343   1344     1  0.0000000  1.2552000  3
   1342   1339   1343   1345     1  0.0000000  1.2552000  3
   1343   1344   1356   1357     1  0.0000000  0.6508444  3
   1343   1344   1356   1358     1  0.0000000  0.6508444  3
   1343   1345   1347   1349     1  0.0000000  0.6508444  3
   1343   1345   1347   1350     1  0.0000000  0.6508444  3
   1344   1343   1345   1346     1  0.0000000  1.2552000  3
   1344   1343   1345   1348     1  0.0000000  1.2552000  3
   1345   1343   1344   1354     1  0.0000000  1.2552000  3
   1345   1343   1344   1355     1  0.0000000  1.2552000  3
   1346   1345   1347   1351     1  0.0000000  0.6508444  3
   1346   1345   1347   1349     1  0.0000000  0.6508444  3
   1346   1345   1347   1350     1  0.0000000  0.6508444  3
   1348   1345   1347   1351     1  0.0000000  0.6508444  3
   1348   1345   1347   1349     1  0.0000000  0.6508444  3
   1348   1345   1347   1350     1  0.0000000  0.6508444  3
   1349   1347   1351   1352     1  0.0000000  3.3472000  1
   1349   1347   1351   1352     1  0.0000000  0.0000000  2
   1349   1347   1351   1352     1  180.0000771  0.3347200  3
   1349   1347   1351   1353     1  0.0000000  3.3472000  1
   1349   1347   1351   1353     1  0.0000000  0.0000000  2
   1349   1347   1351   1353     1  180.0000771  0.3347200  3
   1350   1347   1351   1352     1  0.0000000  3.3472000  1
   1350   1347   1351   1352     1  0.0000000  0.0000000  2
   1350   1347   1351   1352     1  180.0000771  0.3347200  3
   1350   1347   1351   1353     1  0.0000000  3.3472000  1
   1350   1347   1351   1353     1  0.0000000  0.0000000  2
   1350   1347   1351   1353     1  180.0000771  0.3347200  3
   1354   1344   1356   1359     1  0.0000000  0.6508444  3
   1354   1344   1356   1357     1  0.0000000  0.6508444  3
   1354   1344   1356   1358     1  0.0000000  0.6508444  3
   1355   1344   1356   1359     1  0.0000000  0.6508444  3
   1355   1344   1356   1357     1  0.0000000  0.6508444  3
   1355   1344   1356   1358     1  0.0000000  0.6508444  3
   1357   1356   1359   1360     1  0.0000000  3.3472000  1
   1357   1356   1359   1360     1  0.0000000  0.0000000  2
   1357   1356   1359   1360     1  180.0000771  0.3347200  3
   1357   1356   1359   1361     1  0.0000000  3.3472000  1
   1357   1356   1359   1361     1  0.0000000  0.0000000  2
   1357   1356   1359   1361     1  180.0000771  0.3347200  3
   1358   1356   1359   1360     1  0.0000000  3.3472000  1
   1358   1356   1359   1360     1  0.0000000  0.0000000  2
   1358   1356   1359   1360     1  180.0000771  0.3347200  3
   1358   1356   1359   1361     1  0.0000000  3.3472000  1
   1358   1356   1359   1361     1  0.0000000  0.0000000  2
   1358   1356   1359   1361     1  180.0000771  0.3347200  3
   1362   1364   1366   1368     1  0.0000000  0.6508444  3
   1362   1364   1366   1369     1  0.0000000  0.6508444  3
   1363   1362   1364   1366     1  0.0000000  0.0000000  2
   1363   1362   1364   1365     1  0.0000000  0.0000000  2
   1363   1362   1364   1367     1  0.0000000  0.0000000  2
   1365   1364   1366   1370     1  0.0000000  0.6508444  3
   1365   1364   1366   1368     1  0.0000000  0.6508444  3
   1365   1364   1366   1369     1  0.0000000  0.6508444  3
   1366   1370   1371   1381     1  0.0000000  1.2552000  3
   1366   1370   1371   1382     1  0.0000000  1.2552000  3
   1366   1370   1372   1373     1  0.0000000  1.2552000  3
   1366   1370   1372   1375     1  0.0000000  1.2552000  3
   1367   1364   1366   1370     1  0.0000000  0.6508444  3
   1367   1364   1366   1368     1  0.0000000  0.6508444  3
   1367   1364   1366   1369     1  0.0000000  0.6508444  3
   1368   1366   1370   1371     1  0.0000000  1.2552000  3
   1368   1366   1370   1372     1  0.0000000  1.2552000  3
   1369   1366   1370   1371     1  0.0000000  1.2552000  3
   1369   1366   1370   1372     1  0.0000000  1.2552000  3
   1370   1371   1383   1384     1  0.0000000  0.6508444  3
   1370   1371   1383   1385     1  0.0000000  0.6508444  3
   1370   1372   1374   1376     1  0.0000000  0.6508444  3
   1370   1372   1374   1377     1  0.0000000  0.6508444  3
   1371   1370   1372   1373     1  0.0000000  1.2552000  3
   1371   1370   1372   1375     1  0.0000000  1.2552000  3
   1372   1370   1371   1381     1  0.0000000  1.2552000  3
   1372   1370   1371   1382     1  0.0000000  1.2552000  3
   1373   1372   1374   1378     1  0.0000000  0.6508444  3
   1373   1372   1374   1376     1  0.0000000  0.6508444  3
   1373   1372   1374   1377     1  0.0000000  0.6508444  3
   1375   1372   1374   1378     1  0.0000000  0.6508444  3
   1375   1372   1374   1376     1  0.0000000  0.6508444  3
   1375   1372   1374   1377     1  0.0000000  0.6508444  3
   1376   1374   1378   1379     1  0.0000000  3.3472000  1
   1376   1374   1378   1379     1  0.0000000  0.0000000  2
   1376   1374   1378   1379     1  180.0000771  0.3347200  3
   1376   1374   1378   1380     1  0.0000000  3.3472000  1
   1376   1374   1378   1380     1  0.0000000  0.0000000  2
   1376   1374   1378   1380     1  180.0000771  0.3347200  3
   1377   1374   1378   1379     1  0.0000000  3.3472000  1
   1377   1374   1378   1379     1  0.0000000  0.0000000  2
   1377   1374   1378   1379     1  180.0000771  0.3347200  3
   1377   1374   1378   1380     1  0.0000000  3.3472000  1
   1377   1374   1378   1380     1  0.0000000  0.0000000  2
   1377   1374   1378   1380     1  180.0000771  0.3347200  3
   1381   1371   1383   1386     1  0.0000000  0.6508444  3
   1381   1371   1383   1384     1  0.0000000  0.6508444  3
   1381   1371   1383   1385     1  0.0000000  0.6508444  3
   1382   1371   1383   1386     1  0.0000000  0.6508444  3
   1382   1371   1383   1384     1  0.0000000  0.6508444  3
   1382   1371   1383   1385     1  0.0000000  0.6508444  3
   1384   1383   1386   1387     1  0.0000000  3.3472000  1
   1384   1383   1386   1387     1  0.0000000  0.0000000  2
   1384   1383   1386   1387     1  180.0000771  0.3347200  3
   1384   1383   1386   1388     1  0.0000000  3.3472000  1
   1384   1383   1386   1388     1  0.0000000  0.0000000  2
   1384   1383   1386   1388     1  180.0000771  0.3347200  3
   1385   1383   1386   1387     1  0.0000000  3.3472000  1
   1385   1383   1386   1387     1  0.0000000  0.0000000  2
   1385   1383   1386   1387     1  180.0000771  0.3347200  3
   1385   1383   1386   1388     1  0.0000000  3.3472000  1
   1385   1383   1386   1388     1  0.0000000  0.0000000  2
   1385   1383   1386   1388     1  180.0000771  0.3347200  3
   1389   1391   1393   1395     1  0.0000000  0.6508444  3
   1389   1391   1393   1396     1  0.0000000  0.6508444  3
   1390   1389   1391   1393     1  0.0000000  0.0000000  2
   1390   1389   1391   1392     1  0.0000000  0.0000000  2
   1390   1389   1391   1394     1  0.0000000  0.0000000  2
   1392   1391   1393   1397     1  0.0000000  0.6508444  3
   1392   1391   1393   1395     1  0.0000000  0.6508444  3
   1392   1391   1393   1396     1  0.0000000  0.6508444  3
   1393   1397   1398   1408     1  0.0000000  1.2552000  3
   1393   1397   1398   1409     1  0.0000000  1.2552000  3
   1393   1397   1399   1400     1  0.0000000  1.2552000  3
   1393   1397   1399   1402     1  0.0000000  1.2552000  3
   1394   1391   1393   1397     1  0.0000000  0.6508444  3
   1394   1391   1393   1395     1  0.0000000  0.6508444  3
   1394   1391   1393   1396     1  0.0000000  0.6508444  3
   1395   1393   1397   1398     1  0.0000000  1.2552000  3
   1395   1393   1397   1399     1  0.0000000  1.2552000  3
   1396   1393   1397   1398     1  0.0000000  1.2552000  3
   1396   1393   1397   1399     1  0.0000000  1.2552000  3
   1397   1398   1410   1411     1  0.0000000  0.6508444  3
   1397   1398   1410   1412     1  0.0000000  0.6508444  3
   1397   1399   1401   1403     1  0.0000000  0.6508444  3
   1397   1399   1401   1404     1  0.0000000  0.6508444  3
   1398   1397   1399   1400     1  0.0000000  1.2552000  3
   1398   1397   1399   1402     1  0.0000000  1.2552000  3
   1399   1397   1398   1408     1  0.0000000  1.2552000  3
   1399   1397   1398   1409     1  0.0000000  1.2552000  3
   1400   1399   1401   1405     1  0.0000000  0.6508444  3
   1400   1399   1401   1403     1  0.0000000  0.6508444  3
   1400   1399   1401   1404     1  0.0000000  0.6508444  3
   1402   1399   1401   1405     1  0.0000000  0.6508444  3
   1402   1399   1401   1403     1  0.0000000  0.6508444  3
   1402   1399   1401   1404     1  0.0000000  0.6508444  3
   1403   1401   1405   1406     1  0.0000000  3.3472000  1
   1403   1401   1405   1406     1  0.0000000  0.0000000  2
   1403   1401   1405   1406     1  180.0000771  0.3347200  3
   1403   1401   1405   1407     1  0.0000000  3.3472000  1
   1403   1401   1405   1407     1  0.0000000  0.0000000  2
   1403   1401   1405   1407     1  180.0000771  0.3347200  3
   1404   1401   1405   1406     1  0.0000000  3.3472000  1
   1404   1401   1405   1406     1  0.0000000  0.0000000  2
   1404   1401   1405   1406     1  180.0000771  0.3347200  3
   1404   1401   1405   1407     1  0.0000000  3.3472000  1
   1404   1401   1405   1407     1  0.0000000  0.0000000  2
   1404   1401   1405   1407     1  180.0000771  0.3347200  3
   1408   1398   1410   1413     1  0.0000000  0.6508444  3
   1408   1398   1410   1411     1  0.0000000  0.6508444  3
   1408   1398   1410   1412     1  0.0000000  0.6508444  3
   1409   1398   1410   1413     1  0.0000000  0.6508444  3
   1409   1398   1410   1411     1  0.0000000  0.6508444  3
   1409   1398   1410   1412     1  0.0000000  0.6508444  3
   1411   1410   1413   1414     1  0.0000000  3.3472000  1
   1411   1410   1413   1414     1  0.0000000  0.0000000  2
   1411   1410   1413   1414     1  180.0000771  0.3347200  3
   1411   1410   1413   1415     1  0.0000000  3.3472000  1
   1411   1410   1413   1415     1  0.0000000  0.0000000  2
   1411   1410   1413   1415     1  180.0000771  0.3347200  3
   1412   1410   1413   1414     1  0.0000000  3.3472000  1
   1412   1410   1413   1414     1  0.0000000  0.0000000  2
   1412   1410   1413   1414     1  180.0000771  0.3347200  3
   1412   1410   1413   1415     1  0.0000000  3.3472000  1
   1412   1410   1413   1415     1  0.0000000  0.0000000  2
   1412   1410   1413   1415     1  180.0000771  0.3347200  3
   1416   1418   1420   1422     1  0.0000000  0.6508444  3
   1416   1418   1420   1423     1  0.0000000  0.6508444  3
   1417   1416   1418   1420     1  0.0000000  0.0000000  2
   1417   1416   1418   1419     1  0.0000000  0.0000000  2
   1417   1416   1418   1421     1  0.0000000  0.0000000  2
   1419   1418   1420   1424     1  0.0000000  0.6508444  3
   1419   1418   1420   1422     1  0.0000000  0.6508444  3
   1419   1418   1420   1423     1  0.0000000  0.6508444  3
   1420   1424   1425   1435     1  0.0000000  1.2552000  3
   1420   1424   1425   1436     1  0.0000000  1.2552000  3
   1420   1424   1426   1427     1  0.0000000  1.2552000  3
   1420   1424   1426   1429     1  0.0000000  1.2552000  3
   1421   1418   1420   1424     1  0.0000000  0.6508444  3
   1421   1418   1420   1422     1  0.0000000  0.6508444  3
   1421   1418   1420   1423     1  0.0000000  0.6508444  3
   1422   1420   1424   1425     1  0.0000000  1.2552000  3
   1422   1420   1424   1426     1  0.0000000  1.2552000  3
   1423   1420   1424   1425     1  0.0000000  1.2552000  3
   1423   1420   1424   1426     1  0.0000000  1.2552000  3
   1424   1425   1437   1438     1  0.0000000  0.6508444  3
   1424   1425   1437   1439     1  0.0000000  0.6508444  3
   1424   1426   1428   1430     1  0.0000000  0.6508444  3
   1424   1426   1428   1431     1  0.0000000  0.6508444  3
   1425   1424   1426   1427     1  0.0000000  1.2552000  3
   1425   1424   1426   1429     1  0.0000000  1.2552000  3
   1426   1424   1425   1435     1  0.0000000  1.2552000  3
   1426   1424   1425   1436     1  0.0000000  1.2552000  3
   1427   1426   1428   1432     1  0.0000000  0.6508444  3
   1427   1426   1428   1430     1  0.0000000  0.6508444  3
   1427   1426   1428   1431     1  0.0000000  0.6508444  3
   1429   1426   1428   1432     1  0.0000000  0.6508444  3
   1429   1426   1428   1430     1  0.0000000  0.6508444  3
   1429   1426   1428   1431     1  0.0000000  0.6508444  3
   1430   1428   1432   1433     1  0.0000000  3.3472000  1
   1430   1428   1432   1433     1  0.0000000  0.0000000  2
   1430   1428   1432   1433     1  180.0000771  0.3347200  3
   1430   1428   1432   1434     1  0.0000000  3.3472000  1
   1430   1428   1432   1434     1  0.0000000  0.0000000  2
   1430   1428   1432   1434     1  180.0000771  0.3347200  3
   1431   1428   1432   1433     1  0.0000000  3.3472000  1
   1431   1428   1432   1433     1  0.0000000  0.0000000  2
   1431   1428   1432   1433     1  180.0000771  0.3347200  3
   1431   1428   1432   1434     1  0.0000000  3.3472000  1
   1431   1428   1432   1434     1  0.0000000  0.0000000  2
   1431   1428   1432   1434     1  180.0000771  0.3347200  3
   1435   1425   1437   1440     1  0.0000000  0.6508444  3
   1435   1425   1437   1438     1  0.0000000  0.6508444  3
   1435   1425   1437   1439     1  0.0000000  0.6508444  3
   1436   1425   1437   1440     1  0.0000000  0.6508444  3
   1436   1425   1437   1438     1  0.0000000  0.6508444  3
   1436   1425   1437   1439     1  0.0000000  0.6508444  3
   1438   1437   1440   1441     1  0.0000000  3.3472000  1
   1438   1437   1440   1441     1  0.0000000  0.0000000  2
   1438   1437   1440   1441     1  180.0000771  0.3347200  3
   1438   1437   1440   1442     1  0.0000000  3.3472000  1
   1438   1437   1440   1442     1  0.0000000  0.0000000  2
   1438   1437   1440   1442     1  180.0000771  0.3347200  3
   1439   1437   1440   1441     1  0.0000000  3.3472000  1
   1439   1437   1440   1441     1  0.0000000  0.0000000  2
   1439   1437   1440   1441     1  180.0000771  0.3347200  3
   1439   1437   1440   1442     1  0.0000000  3.3472000  1
   1439   1437   1440   1442     1  0.0000000  0.0000000  2
   1439   1437   1440   1442     1  180.0000771  0.3347200  3
   1443   1445   1447   1449     1  0.0000000  0.6508444  3
   1443   1445   1447   1450     1  0.0000000  0.6508444  3
   1444   1443   1445   1447     1  0.0000000  0.0000000  2
   1444   1443   1445   1446     1  0.0000000  0.0000000  2
   1444   1443   1445   1448     1  0.0000000  0.0000000  2
   1446   1445   1447   1451     1  0.0000000  0.6508444  3
   1446   1445   1447   1449     1  0.0000000  0.6508444  3
   1446   1445   1447   1450     1  0.0000000  0.6508444  3
   1447   1451   1452   1462     1  0.0000000  1.2552000  3
   1447   1451   1452   1463     1  0.0000000  1.2552000  3
   1447   1451   1453   1454     1  0.0000000  1.2552000  3
   1447   1451   1453   1456     1  0.0000000  1.2552000  3
   1448   1445   1447   1451     1  0.0000000  0.6508444  3
   1448   1445   1447   1449     1  0.0000000  0.6508444  3
   1448   1445   1447   1450     1  0.0000000  0.6508444  3
   1449   1447   1451   1452     1  0.0000000  1.2552000  3
   1449   1447   1451   1453     1  0.0000000  1.2552000  3
   1450   1447   1451   1452     1  0.0000000  1.2552000  3
   1450   1447   1451   1453     1  0.0000000  1.2552000  3
   1451   1452   1464   1465     1  0.0000000  0.6508444  3
   1451   1452   1464   1466     1  0.0000000  0.6508444  3
   1451   1453   1455   1457     1  0.0000000  0.6508444  3
   1451   1453   1455   1458     1  0.0000000  0.6508444  3
   1452   1451   1453   1454     1  0.0000000  1.2552000  3
   1452   1451   1453   1456     1  0.0000000  1.2552000  3
   1453   1451   1452   1462     1  0.0000000  1.2552000  3
   1453   1451   1452   1463     1  0.0000000  1.2552000  3
   1454   1453   1455   1459     1  0.0000000  0.6508444  3
   1454   1453   1455   1457     1  0.0000000  0.6508444  3
   1454   1453   1455   1458     1  0.0000000  0.6508444  3
   1456   1453   1455   1459     1  0.0000000  0.6508444  3
   1456   1453   1455   1457     1  0.0000000  0.6508444  3
   1456   1453   1455   1458     1  0.0000000  0.6508444  3
   1457   1455   1459   1460     1  0.0000000  3.3472000  1
   1457   1455   1459   1460     1  0.0000000  0.0000000  2
   1457   1455   1459   1460     1  180.0000771  0.3347200  3
   1457   1455   1459   1461     1  0.0000000  3.3472000  1
   1457   1455   1459   1461     1  0.0000000  0.0000000  2
   1457   1455   1459   1461     1  180.0000771  0.3347200  3
   1458   1455   1459   1460     1  0.0000000  3.3472000  1
   1458   1455   1459   1460     1  0.0000000  0.0000000  2
   1458   1455   1459   1460     1  180.0000771  0.3347200  3
   1458   1455   1459   1461     1  0.0000000  3.3472000  1
   1458   1455   1459   1461     1  0.0000000  0.0000000  2
   1458   1455   1459   1461     1  180.0000771  0.3347200  3
   1462   1452   1464   1467     1  0.0000000  0.6508444  3
   1462   1452   1464   1465     1  0.0000000  0.6508444  3
   1462   1452   1464   1466     1  0.0000000  0.6508444  3
   1463   1452   1464   1467     1  0.0000000  0.6508444  3
   1463   1452   1464   1465     1  0.0000000  0.6508444  3
   1463   1452   1464   1466     1  0.0000000  0.6508444  3
   1465   1464   1467   1468     1  0.0000000  3.3472000  1
   1465   1464   1467   1468     1  0.0000000  0.0000000  2
   1465   1464   1467   1468     1  180.0000771  0.3347200  3
   1465   1464   1467   1469     1  0.0000000  3.3472000  1
   1465   1464   1467   1469     1  0.0000000  0.0000000  2
   1465   1464   1467   1469     1  180.0000771  0.3347200  3
   1466   1464   1467   1468     1  0.0000000  3.3472000  1
   1466   1464   1467   1468     1  0.0000000  0.0000000  2
   1466   1464   1467   1468     1  180.0000771  0.3347200  3
   1466   1464   1467   1469     1  0.0000000  3.3472000  1
   1466   1464   1467   1469     1  0.0000000  0.0000000  2
   1466   1464   1467   1469     1  180.0000771  0.3347200  3
   1470   1472   1474   1476     1  0.0000000  0.6508444  3
   1470   1472   1474   1477     1  0.0000000  0.6508444  3
   1471   1470   1472   1474     1  0.0000000  0.0000000  2
   1471   1470   1472   1473     1  0.0000000  0.0000000  2
   1471   1470   1472   1475     1  0.0000000  0.0000000  2
   1473   1472   1474   1478     1  0.0000000  0.6508444  3
   1473   1472   1474   1476     1  0.0000000  0.6508444  3
   1473   1472   1474   1477     1  0.0000000  0.6508444  3
   1474   1478   1479   1489     1  0.0000000  1.2552000  3
   1474   1478   1479   1490     1  0.0000000  1.2552000  3
   1474   1478   1480   1481     1  0.0000000  1.2552000  3
   1474   1478   1480   1483     1  0.0000000  1.2552000  3
   1475   1472   1474   1478     1  0.0000000  0.6508444  3
   1475   1472   1474   1476     1  0.0000000  0.6508444  3
   1475   1472   1474   1477     1  0.0000000  0.6508444  3
   1476   1474   1478   1479     1  0.0000000  1.2552000  3
   1476   1474   1478   1480     1  0.0000000  1.2552000  3
   1477   1474   1478   1479     1  0.0000000  1.2552000  3
   1477   1474   1478   1480     1  0.0000000  1.2552000  3
   1478   1479   1491   1492     1  0.0000000  0.6508444  3
   1478   1479   1491   1493     1  0.0000000  0.6508444  3
   1478   1480   1482   1484     1  0.0000000  0.6508444  3
   1478   1480   1482   1485     1  0.0000000  0.6508444  3
   1479   1478   1480   1481     1  0.0000000  1.2552000  3
   1479   1478   1480   1483     1  0.0000000  1.2552000  3
   1480   1478   1479   1489     1  0.0000000  1.2552000  3
   1480   1478   1479   1490     1  0.0000000  1.2552000  3
   1481   1480   1482   1486     1  0.0000000  0.6508444  3
   1481   1480   1482   1484     1  0.0000000  0.6508444  3
   1481   1480   1482   1485     1  0.0000000  0.6508444  3
   1483   1480   1482   1486     1  0.0000000  0.6508444  3
   1483   1480   1482   1484     1  0.0000000  0.6508444  3
   1483   1480   1482   1485     1  0.0000000  0.6508444  3
   1484   1482   1486   1487     1  0.0000000  3.3472000  1
   1484   1482   1486   1487     1  0.0000000  0.0000000  2
   1484   1482   1486   1487     1  180.0000771  0.3347200  3
   1484   1482   1486   1488     1  0.0000000  3.3472000  1
   1484   1482   1486   1488     1  0.0000000  0.0000000  2
   1484   1482   1486   1488     1  180.0000771  0.3347200  3
   1485   1482   1486   1487     1  0.0000000  3.3472000  1
   1485   1482   1486   1487     1  0.0000000  0.0000000  2
   1485   1482   1486   1487     1  180.0000771  0.3347200  3
   1485   1482   1486   1488     1  0.0000000  3.3472000  1
   1485   1482   1486   1488     1  0.0000000  0.0000000  2
   1485   1482   1486   1488     1  180.0000771  0.3347200  3
   1489   1479   1491   1494     1  0.0000000  0.6508444  3
   1489   1479   1491   1492     1  0.0000000  0.6508444  3
   1489   1479   1491   1493     1  0.0000000  0.6508444  3
   1490   1479   1491   1494     1  0.0000000  0.6508444  3
   1490   1479   1491   1492     1  0.0000000  0.6508444  3
   1490   1479   1491   1493     1  0.0000000  0.6508444  3
   1492   1491   1494   1495     1  0.0000000  3.3472000  1
   1492   1491   1494   1495     1  0.0000000  0.0000000  2
   1492   1491   1494   1495     1  180.0000771  0.3347200  3
   1492   1491   1494   1496     1  0.0000000  3.3472000  1
   1492   1491   1494   1496     1  0.0000000  0.0000000  2
   1492   1491   1494   1496     1  180.0000771  0.3347200  3
   1493   1491   1494   1495     1  0.0000000  3.3472000  1
   1493   1491   1494   1495     1  0.0000000  0.0000000  2
   1493   1491   1494   1495     1  180.0000771  0.3347200  3
   1493   1491   1494   1496     1  0.0000000  3.3472000  1
   1493   1491   1494   1496     1  0.0000000  0.0000000  2
   1493   1491   1494   1496     1  180.0000771  0.3347200  3
   1497   1499   1501   1503     1  0.0000000  0.6508444  3
   1497   1499   1501   1504     1  0.0000000  0.6508444  3
   1498   1497   1499   1501     1  0.0000000  0.0000000  2
   1498   1497   1499   1500     1  0.0000000  0.0000000  2
   1498   1497   1499   1502     1  0.0000000  0.0000000  2
   1500   1499   1501   1505     1  0.0000000  0.6508444  3
   1500   1499   1501   1503     1  0.0000000  0.6508444  3
   1500   1499   1501   1504     1  0.0000000  0.6508444  3
   1501   1505   1506   1516     1  0.0000000  1.2552000  3
   1501   1505   1506   1517     1  0.0000000  1.2552000  3
   1501   1505   1507   1508     1  0.0000000  1.2552000  3
   1501   1505   1507   1510     1  0.0000000  1.2552000  3
   1502   1499   1501   1505     1  0.0000000  0.6508444  3
   1502   1499   1501   1503     1  0.0000000  0.6508444  3
   1502   1499   1501   1504     1  0.0000000  0.6508444  3
   1503   1501   1505   1506     1  0.0000000  1.2552000  3
   1503   1501   1505   1507     1  0.0000000  1.2552000  3
   1504   1501   1505   1506     1  0.0000000  1.2552000  3
   1504   1501   1505   1507     1  0.0000000  1.2552000  3
   1505   1506   1518   1519     1  0.0000000  0.6508444  3
   1505   1506   1518   1520     1  0.0000000  0.6508444  3
   1505   1507   1509   1511     1  0.0000000  0.6508444  3
   1505   1507   1509   1512     1  0.0000000  0.6508444  3
   1506   1505   1507   1508     1  0.0000000  1.2552000  3
   1506   1505   1507   1510     1  0.0000000  1.2552000  3
   1507   1505   1506   1516     1  0.0000000  1.2552000  3
   1507   1505   1506   1517     1  0.0000000  1.2552000  3
   1508   1507   1509   1513     1  0.0000000  0.6508444  3
   1508   1507   1509   1511     1  0.0000000  0.6508444  3
   1508   1507   1509   1512     1  0.0000000  0.6508444  3
   1510   1507   1509   1513     1  0.0000000  0.6508444  3
   1510   1507   1509   1511     1  0.0000000  0.6508444  3
   1510   1507   1509   1512     1  0.0000000  0.6508444  3
   1511   1509   1513   1514     1  0.0000000  3.3472000  1
   1511   1509   1513   1514     1  0.0000000  0.0000000  2
   1511   1509   1513   1514     1  180.0000771  0.3347200  3
   1511   1509   1513   1515     1  0.0000000  3.3472000  1
   1511   1509   1513   1515     1  0.0000000  0.0000000  2
   1511   1509   1513   1515     1  180.0000771  0.3347200  3
   1512   1509   1513   1514     1  0.0000000  3.3472000  1
   1512   1509   1513   1514     1  0.0000000  0.0000000  2
   1512   1509   1513   1514     1  180.0000771  0.3347200  3
   1512   1509   1513   1515     1  0.0000000  3.3472000  1
   1512   1509   1513   1515     1  0.0000000  0.0000000  2
   1512   1509   1513   1515     1  180.0000771  0.3347200  3
   1516   1506   1518   1521     1  0.0000000  0.6508444  3
   1516   1506   1518   1519     1  0.0000000  0.6508444  3
   1516   1506   1518   1520     1  0.0000000  0.6508444  3
   1517   1506   1518   1521     1  0.0000000  0.6508444  3
   1517   1506   1518   1519     1  0.0000000  0.6508444  3
   1517   1506   1518   1520     1  0.0000000  0.6508444  3
   1519   1518   1521   1522     1  0.0000000  3.3472000  1
   1519   1518   1521   1522     1  0.0000000  0.0000000  2
   1519   1518   1521   1522     1  180.0000771  0.3347200  3
   1519   1518   1521   1523     1  0.0000000  3.3472000  1
   1519   1518   1521   1523     1  0.0000000  0.0000000  2
   1519   1518   1521   1523     1  180.0000771  0.3347200  3
   1520   1518   1521   1522     1  0.0000000  3.3472000  1
   1520   1518   1521   1522     1  0.0000000  0.0000000  2
   1520   1518   1521   1522     1  180.0000771  0.3347200  3
   1520   1518   1521   1523     1  0.0000000  3.3472000  1
   1520   1518   1521   1523     1  0.0000000  0.0000000  2
   1520   1518   1521   1523     1  180.0000771  0.3347200  3
   1524   1526   1528   1530     1  0.0000000  0.6508444  3
   1524   1526   1528   1531     1  0.0000000  0.6508444  3
   1525   1524   1526   1528     1  0.0000000  0.0000000  2
   1525   1524   1526   1527     1  0.0000000  0.0000000  2
   1525   1524   1526   1529     1  0.0000000  0.0000000  2
   1527   1526   1528   1532     1  0.0000000  0.6508444  3
   1527   1526   1528   1530     1  0.0000000  0.6508444  3
   1527   1526   1528   1531     1  0.0000000  0.6508444  3
   1528   1532   1533   1543     1  0.0000000  1.2552000  3
   1528   1532   1533   1544     1  0.0000000  1.2552000  3
   1528   1532   1534   1535     1  0.0000000  1.2552000  3
   1528   1532   1534   1537     1  0.0000000  1.2552000  3
   1529   1526   1528   1532     1  0.0000000  0.6508444  3
   1529   1526   1528   1530     1  0.0000000  0.6508444  3
   1529   1526   1528   1531     1  0.0000000  0.6508444  3
   1530   1528   1532   1533     1  0.0000000  1.2552000  3
   1530   1528   1532   1534     1  0.0000000  1.2552000  3
   1531   1528   1532   1533     1  0.0000000  1.2552000  3
   1531   1528   1532   1534     1  0.0000000  1.2552000  3
   1532   1533   1545   1546     1  0.0000000  0.6508444  3
   1532   1533   1545   1547     1  0.0000000  0.6508444  3
   1532   1534   1536   1538     1  0.0000000  0.6508444  3
   1532   1534   1536   1539     1  0.0000000  0.6508444  3
   1533   1532   1534   1535     1  0.0000000  1.2552000  3
   1533   1532   1534   1537     1  0.0000000  1.2552000  3
   1534   1532   1533   1543     1  0.0000000  1.2552000  3
   1534   1532   1533   1544     1  0.0000000  1.2552000  3
   1535   1534   1536   1540     1  0.0000000  0.6508444  3
   1535   1534   1536   1538     1  0.0000000  0.6508444  3
   1535   1534   1536   1539     1  0.0000000  0.6508444  3
   1537   1534   1536   1540     1  0.0000000  0.6508444  3
   1537   1534   1536   1538     1  0.0000000  0.6508444  3
   1537   1534   1536   1539     1  0.0000000  0.6508444  3
   1538   1536   1540   1541     1  0.0000000  3.3472000  1
   1538   1536   1540   1541     1  0.0000000  0.0000000  2
   1538   1536   1540   1541     1  180.0000771  0.3347200  3
   1538   1536   1540   1542     1  0.0000000  3.3472000  1
   1538   1536   1540   1542     1  0.0000000  0.0000000  2
   1538   1536   1540   1542     1  180.0000771  0.3347200  3
   1539   1536   1540   1541     1  0.0000000  3.3472000  1
   1539   1536   1540   1541     1  0.0000000  0.0000000  2
   1539   1536   1540   1541     1  180.0000771  0.3347200  3
   1539   1536   1540   1542     1  0.0000000  3.3472000  1
   1539   1536   1540   1542     1  0.0000000  0.0000000  2
   1539   1536   1540   1542     1  180.0000771  0.3347200  3
   1543   1533   1545   1548     1  0.0000000  0.6508444  3
   1543   1533   1545   1546     1  0.0000000  0.6508444  3
   1543   1533   1545   1547     1  0.0000000  0.6508444  3
   1544   1533   1545   1548     1  0.0000000  0.6508444  3
   1544   1533   1545   1546     1  0.0000000  0.6508444  3
   1544   1533   1545   1547     1  0.0000000  0.6508444  3
   1546   1545   1548   1549     1  0.0000000  3.3472000  1
   1546   1545   1548   1549     1  0.0000000  0.0000000  2
   1546   1545   1548   1549     1  180.0000771  0.3347200  3
   1546   1545   1548   1550     1  0.0000000  3.3472000  1
   1546   1545   1548   1550     1  0.0000000  0.0000000  2
   1546   1545   1548   1550     1  180.0000771  0.3347200  3
   1547   1545   1548   1549     1  0.0000000  3.3472000  1
   1547   1545   1548   1549     1  0.0000000  0.0000000  2
   1547   1545   1548   1549     1  180.0000771  0.3347200  3
   1547   1545   1548   1550     1  0.0000000  3.3472000  1
   1547   1545   1548   1550     1  0.0000000  0.0000000  2
   1547   1545   1548   1550     1  180.0000771  0.3347200  3
   1551   1553   1555   1557     1  0.0000000  0.6508444  3
   1551   1553   1555   1558     1  0.0000000  0.6508444  3
   1552   1551   1553   1555     1  0.0000000  0.0000000  2
   1552   1551   1553   1554     1  0.0000000  0.0000000  2
   1552   1551   1553   1556     1  0.0000000  0.0000000  2
   1554   1553   1555   1559     1  0.0000000  0.6508444  3
   1554   1553   1555   1557     1  0.0000000  0.6508444  3
   1554   1553   1555   1558     1  0.0000000  0.6508444  3
   1555   1559   1560   1570     1  0.0000000  1.2552000  3
   1555   1559   1560   1571     1  0.0000000  1.2552000  3
   1555   1559   1561   1562     1  0.0000000  1.2552000  3
   1555   1559   1561   1564     1  0.0000000  1.2552000  3
   1556   1553   1555   1559     1  0.0000000  0.6508444  3
   1556   1553   1555   1557     1  0.0000000  0.6508444  3
   1556   1553   1555   1558     1  0.0000000  0.6508444  3
   1557   1555   1559   1560     1  0.0000000  1.2552000  3
   1557   1555   1559   1561     1  0.0000000  1.2552000  3
   1558   1555   1559   1560     1  0.0000000  1.2552000  3
   1558   1555   1559   1561     1  0.0000000  1.2552000  3
   1559   1560   1572   1573     1  0.0000000  0.6508444  3
   1559   1560   1572   1574     1  0.0000000  0.6508444  3
   1559   1561   1563   1565     1  0.0000000  0.6508444  3
   1559   1561   1563   1566     1  0.0000000  0.6508444  3
   1560   1559   1561   1562     1  0.0000000  1.2552000  3
   1560   1559   1561   1564     1  0.0000000  1.2552000  3
   1561   1559   1560   1570     1  0.0000000  1.2552000  3
   1561   1559   1560   1571     1  0.0000000  1.2552000  3
   1562   1561   1563   1567     1  0.0000000  0.6508444  3
   1562   1561   1563   1565     1  0.0000000  0.6508444  3
   1562   1561   1563   1566     1  0.0000000  0.6508444  3
   1564   1561   1563   1567     1  0.0000000  0.6508444  3
   1564   1561   1563   1565     1  0.0000000  0.6508444  3
   1564   1561   1563   1566     1  0.0000000  0.6508444  3
   1565   1563   1567   1568     1  0.0000000  3.3472000  1
   1565   1563   1567   1568     1  0.0000000  0.0000000  2
   1565   1563   1567   1568     1  180.0000771  0.3347200  3
   1565   1563   1567   1569     1  0.0000000  3.3472000  1
   1565   1563   1567   1569     1  0.0000000  0.0000000  2
   1565   1563   1567   1569     1  180.0000771  0.3347200  3
   1566   1563   1567   1568     1  0.0000000  3.3472000  1
   1566   1563   1567   1568     1  0.0000000  0.0000000  2
   1566   1563   1567   1568     1  180.0000771  0.3347200  3
   1566   1563   1567   1569     1  0.0000000  3.3472000  1
   1566   1563   1567   1569     1  0.0000000  0.0000000  2
   1566   1563   1567   1569     1  180.0000771  0.3347200  3
   1570   1560   1572   1575     1  0.0000000  0.6508444  3
   1570   1560   1572   1573     1  0.0000000  0.6508444  3
   1570   1560   1572   1574     1  0.0000000  0.6508444  3
   1571   1560   1572   1575     1  0.0000000  0.6508444  3
   1571   1560   1572   1573     1  0.0000000  0.6508444  3
   1571   1560   1572   1574     1  0.0000000  0.6508444  3
   1573   1572   1575   1576     1  0.0000000  3.3472000  1
   1573   1572   1575   1576     1  0.0000000  0.0000000  2
   1573   1572   1575   1576     1  180.0000771  0.3347200  3
   1573   1572   1575   1577     1  0.0000000  3.3472000  1
   1573   1572   1575   1577     1  0.0000000  0.0000000  2
   1573   1572   1575   1577     1  180.0000771  0.3347200  3
   1574   1572   1575   1576     1  0.0000000  3.3472000  1
   1574   1572   1575   1576     1  0.0000000  0.0000000  2
   1574   1572   1575   1576     1  180.0000771  0.3347200  3
   1574   1572   1575   1577     1  0.0000000  3.3472000  1
   1574   1572   1575   1577     1  0.0000000  0.0000000  2
   1574   1572   1575   1577     1  180.0000771  0.3347200  3
   1578   1580   1582   1584     1  0.0000000  0.6508444  3
   1578   1580   1582   1585     1  0.0000000  0.6508444  3
   1579   1578   1580   1582     1  0.0000000  0.0000000  2
   1579   1578   1580   1581     1  0.0000000  0.0000000  2
   1579   1578   1580   1583     1  0.0000000  0.0000000  2
   1581   1580   1582   1586     1  0.0000000  0.6508444  3
   1581   1580   1582   1584     1  0.0000000  0.6508444  3
   1581   1580   1582   1585     1  0.0000000  0.6508444  3
   1582   1586   1587   1597     1  0.0000000  1.2552000  3
   1582   1586   1587   1598     1  0.0000000  1.2552000  3
   1582   1586   1588   1589     1  0.0000000  1.2552000  3
   1582   1586   1588   1591     1  0.0000000  1.2552000  3
   1583   1580   1582   1586     1  0.0000000  0.6508444  3
   1583   1580   1582   1584     1  0.0000000  0.6508444  3
   1583   1580   1582   1585     1  0.0000000  0.6508444  3
   1584   1582   1586   1587     1  0.0000000  1.2552000  3
   1584   1582   1586   1588     1  0.0000000  1.2552000  3
   1585   1582   1586   1587     1  0.0000000  1.2552000  3
   1585   1582   1586   1588     1  0.0000000  1.2552000  3
   1586   1587   1599   1600     1  0.0000000  0.6508444  3
   1586   1587   1599   1601     1  0.0000000  0.6508444  3
   1586   1588   1590   1592     1  0.0000000  0.6508444  3
   1586   1588   1590   1593     1  0.0000000  0.6508444  3
   1587   1586   1588   1589     1  0.0000000  1.2552000  3
   1587   1586   1588   1591     1  0.0000000  1.2552000  3
   1588   1586   1587   1597     1  0.0000000  1.2552000  3
   1588   1586   1587   1598     1  0.0000000  1.2552000  3
   1589   1588   1590   1594     1  0.0000000  0.6508444  3
   1589   1588   1590   1592     1  0.0000000  0.6508444  3
   1589   1588   1590   1593     1  0.0000000  0.6508444  3
   1591   1588   1590   1594     1  0.0000000  0.6508444  3
   1591   1588   1590   1592     1  0.0000000  0.6508444  3
   1591   1588   1590   1593     1  0.0000000  0.6508444  3
   1592   1590   1594   1595     1  0.0000000  3.3472000  1
   1592   1590   1594   1595     1  0.0000000  0.0000000  2
   1592   1590   1594   1595     1  180.0000771  0.3347200  3
   1592   1590   1594   1596     1  0.0000000  3.3472000  1
   1592   1590   1594   1596     1  0.0000000  0.0000000  2
   1592   1590   1594   1596     1  180.0000771  0.3347200  3
   1593   1590   1594   1595     1  0.0000000  3.3472000  1
   1593   1590   1594   1595     1  0.0000000  0.0000000  2
   1593   1590   1594   1595     1  180.0000771  0.3347200  3
   1593   1590   1594   1596     1  0.0000000  3.3472000  1
   1593   1590   1594   1596     1  0.0000000  0.0000000  2
   1593   1590   1594   1596     1  180.0000771  0.3347200  3
   1597   1587   1599   1602     1  0.0000000  0.6508444  3
   1597   1587   1599   1600     1  0.0000000  0.6508444  3
   1597   1587   1599   1601     1  0.0000000  0.6508444  3
   1598   1587   1599   1602     1  0.0000000  0.6508444  3
   1598   1587   1599   1600     1  0.0000000  0.6508444  3
   1598   1587   1599   1601     1  0.0000000  0.6508444  3
   1600   1599   1602   1603     1  0.0000000  3.3472000  1
   1600   1599   1602   1603     1  0.0000000  0.0000000  2
   1600   1599   1602   1603     1  180.0000771  0.3347200  3
   1600   1599   1602   1604     1  0.0000000  3.3472000  1
   1600   1599   1602   1604     1  0.0000000  0.0000000  2
   1600   1599   1602   1604     1  180.0000771  0.3347200  3
   1601   1599   1602   1603     1  0.0000000  3.3472000  1
   1601   1599   1602   1603     1  0.0000000  0.0000000  2
   1601   1599   1602   1603     1  180.0000771  0.3347200  3
   1601   1599   1602   1604     1  0.0000000  3.3472000  1
   1601   1599   1602   1604     1  0.0000000  0.0000000  2
   1601   1599   1602   1604     1  180.0000771  0.3347200  3
     33     44     64     65     4  180.0000771  4.6024000  2
     34     69     89     90     4  180.0000771  4.6024000  2
     35     94    114    115     4  180.0000771  4.6024000  2
     36    119    139    140     4  180.0000771  4.6024000  2
     60    144    164    165     4  180.0000771  4.6024000  2
     61    169    189    190     4  180.0000771  4.6024000  2
     85    194    214    215     4  180.0000771  4.6024000  2
     86    219    239    240     4  180.0000771  4.6024000  2
    110    244    264    265     4  180.0000771  4.6024000  2
    111    269    289    290     4  180.0000771  4.6024000  2
    135    294    314    315     4  180.0000771  4.6024000  2
    136    319    339    340     4  180.0000771  4.6024000  2
    160    344    364    365     4  180.0000771  4.6024000  2
    161    369    389    390     4  180.0000771  4.6024000  2
    185    394    414    415     4  180.0000771  4.6024000  2
    186    419    439    440     4  180.0000771  4.6024000  2
    210    444    464    465     4  180.0000771  4.6024000  2
    211    469    489    490     4  180.0000771  4.6024000  2
    235    494    514    515     4  180.0000771  4.6024000  2
    236    519    539    540     4  180.0000771  4.6024000  2
    260    544    564    565     4  180.0000771  4.6024000  2
    261    569    589    590     4  180.0000771  4.6024000  2
    285    594    614    615     4  180.0000771  4.6024000  2
    286    619    639    640     4  180.0000771  4.6024000  2
    310    644    664    665     4  180.0000771  4.6024000  2
    311    669    689    690     4  180.0000771  4.6024000  2
    335    694    714    715     4  180.0000771  4.6024000  2
    336    719    739    740     4  180.0000771  4.6024000  2
    360    743    741    742     4  180.0000771  4.6024000  2
    361    770    768    769     4  180.0000771  4.6024000  2
    385    797    795    796     4  180.0000771  4.6024000  2
    386    824    822    823     4  180.0000771  4.6024000  2
    410    851    849    850     4  180.0000771  4.6024000  2
    411    878    876    877     4  180.0000771  4.6024000  2
    435    905    903    904     4  180.0000771  4.6024000  2
    436    932    930    931     4  180.0000771  4.6024000  2
    460    959    957    958     4  180.0000771  4.6024000  2
    461    986    984    985     4  180.0000771  4.6024000  2
    485   1013   1011   1012     4  180.0000771  4.6024000  2
    486   1040   1038   1039     4  180.0000771  4.6024000  2
    510   1067   1065   1066     4  180.0000771  4.6024000  2
    511   1094   1092   1093     4  180.0000771  4.6024000  2
    535   1121   1119   1120     4  180.0000771  4.6024000  2
    536   1148   1146   1147     4  180.0000771  4.6024000  2
    560   1175   1173   1174     4  180.0000771  4.6024000  2
    561   1202   1200   1201     4  180.0000771  4.6024000  2
    585   1229   1227   1228     4  180.0000771  4.6024000  2
    586   1256   1254   1255     4  180.0000771  4.6024000  2
    610   1283   1281   1282     4  180.0000771  4.6024000  2
    611   1310   1308   1309     4  180.0000771  4.6024000  2
    635   1337   1335   1336     4  180.0000771  4.6024000  2
    636   1364   1362   1363     4  180.0000771  4.6024000  2
    660   1391   1389   1390     4  180.0000771  4.6024000  2
    661   1418   1416   1417     4  180.0000771  4.6024000  2
    685   1445   1443   1444     4  180.0000771  4.6024000  2
    686   1472   1470   1471     4  180.0000771  4.6024000  2
    710   1499   1497   1498     4  180.0000771  4.6024000  2
    711   1526   1524   1525     4  180.0000771  4.6024000  2
    735   1553   1551   1552     4  180.0000771  4.6024000  2
    736   1580   1578   1579     4  180.0000771  4.6024000  2

;[ system ]
;; Name
;Generic title
;
;[ molecules ]
;; Compound       #mols
;system1              1
