G3.5-PAMAM in water
58362
    1aaa     C1    1   5.700   6.379   2.994 -0.0700  0.2581 -0.0859
    1aaa     H1    2   5.669   6.279   3.026  1.0380 -0.2514 -0.5301
    1aaa     H2    3   5.780   6.404   3.066  0.3051  0.8999 -0.7048
    1aaa     C2    4   5.586   6.484   3.007  0.9802  0.7321  0.2858
    1aaa     H3    5   5.634   6.582   3.008  0.2206  1.1384 -0.9827
    1aaa     H4    6   5.531   6.474   2.913  2.1635 -1.2352 -0.2729
    1aaa     N1    7   5.491   6.459   3.124 -0.3785 -0.4234  0.0807
    1aaa     N2    8   5.763   6.360   2.857 -0.5615  0.3278  0.5391
    1aaa     C3    9   5.839   6.478   2.816 -0.3225  0.1072 -0.2185
    1aaa     H5   10   5.774   6.565   2.798  1.0853  1.3174  0.2637
    1aaa     H6   11   5.899   6.448   2.729 -0.6781  0.7590 -0.6949
    1aaa     C4   12   5.671   6.321   2.744  0.0223 -0.1300 -0.3496
    1aaa     H7   13   5.588   6.393   2.741 -0.4360 -0.6005  0.4981
    1aaa     H8   14   5.730   6.329   2.652  1.2201 -1.2192  0.2907
    1aaa     C5   15   5.414   6.335   3.115  0.0856  0.6328  0.0570
    1aaa     H9   16   5.472   6.242   3.117  0.0582  0.5269 -1.9075
    1aaa    H10   17   5.357   6.327   3.209  0.8321 -2.2570  0.3599
    1aaa     C6   18   5.555   6.475   3.262 -0.2947  0.0264  0.4996
    1aaa    H11   19   5.658   6.511   3.245 -0.4133 -0.7583 -2.3553
    1aaa    H12   20   5.563   6.377   3.311 -0.8658 -1.5319 -2.3279
    1aaa     C7   21   5.306   6.331   3.000 -0.4143 -0.2494  0.2689
    1aaa    H13   22   5.255   6.427   2.991 -1.3277 -0.6922  0.5795
    1aaa    H14   23   5.355   6.328   2.902  1.1819  0.1908  1.0188
    1aaa     C8   24   5.469   6.578   3.330  0.2146  0.2459  0.5693
    1aaa    H15   25   5.466   6.671   3.273 -1.2880  1.4998  2.5442
    1aaa    H16   26   5.365   6.542   3.333  0.3886 -0.7433 -2.4583
    1aaa     C9   27   5.605   6.187   2.767  0.3633  0.2113 -0.1631
    1aaa    H17   28   5.685   6.112   2.772 -0.1227 -0.3356 -0.4736
    1aaa    H18   29   5.548   6.193   2.860 -0.9163 -1.8277 -0.7494
    1aaa    C10   30   5.935   6.535   2.921  0.0491  0.3468  0.0503
    1aaa    H19   31   5.888   6.590   3.003  3.2185  2.3859  0.6718
    1aaa    H20   32   5.997   6.457   2.967 -0.0569 -0.0239 -0.4259
    1aaa    C11   33   5.503   6.148   2.664  0.3748  0.1414  0.2167
    1aaa    C12   34   6.018   6.629   2.853  0.6634 -0.2880 -0.3306
    1aaa    C13   35   5.204   6.219   3.004 -0.0841  0.0912  0.4413
    1aaa    C14   36   5.517   6.611   3.469  0.2391 -0.3036  0.1581
    1aaa     O1   37   5.395   6.211   2.661  0.3570 -0.1882 -0.3121
    1aaa     O2   38   5.184   6.158   3.108  0.5941  0.0860 -0.5922
    1aaa     O3   39   5.637   6.623   3.497 -0.0296  0.5295 -0.4832
    1aaa     O4   40   6.126   6.591   2.810 -0.0535  0.1860 -0.0827
    2bbb     C1   41   5.319   5.936   2.482 -0.0883  0.2462 -0.3848
    2bbb     H1   42   5.255   5.995   2.549  1.3906  0.7439  0.6432
    2bbb     H2   43   5.337   5.839   2.531 -0.6204  1.5177  2.5586
    2bbb     C2   44   5.454   6.005   2.461 -0.1454  0.1159 -0.5456
    2bbb     H3   45   5.513   5.943   2.392  1.9124  1.7665 -0.3550
    2bbb     H4   46   5.439   6.100   2.409 -0.2653 -0.3902 -1.4629
    2bbb     N1   47   5.235   5.903   2.365  0.8989  0.2346  0.4596
    2bbb     C3   48   5.206   6.027   2.294 -0.3298 -0.4855  0.6508
    2bbb     H5   49   5.217   6.116   2.358 -0.2536  0.3474 -0.4864
    2bbb     H6   50   5.108   6.038   2.246  0.4998  2.4867 -0.5768
    2bbb     C4   51   5.101   5.852   2.412 -0.1505  0.3271 -0.2115
    2bbb     H7   52   5.052   5.915   2.487  0.0385  0.5483 -0.2739
    2bbb     H8   53   5.027   5.834   2.334 -1.5846 -1.3218  1.4072
    2bbb     C5   54   5.114   5.709   2.459  0.1993 -0.3616  0.5657
    2bbb     H9   55   5.173   5.646   2.392  4.0329 -0.5222  3.7208
    2bbb    H10   56   5.170   5.699   2.553 -0.2273  0.6220  0.9367
    2bbb     C6   57   5.301   6.043   2.171 -0.4766  0.2374 -0.4708
    2bbb    H11   58   5.407   6.023   2.193 -0.8107 -0.3509  0.6704
    2bbb    H12   59   5.273   5.975   2.090  1.2135  0.4957 -1.3151
    2bbb     C7   60   4.980   5.638   2.470 -0.6653 -0.4841 -0.7223
    2bbb     C8   61   5.303   6.185   2.129  0.9005  0.8550  1.5800
    2bbb     O1   62   4.876   5.692   2.500 -0.2077  0.5976 -0.2137
    2bbb     O2   63   5.320   6.279   2.202 -0.0857  0.3567  0.4655
    2bbb     N4   64   5.530   6.042   2.585 -0.0864 -0.3651  0.7643
    2bbb    H21   65   5.626   6.010   2.576 -0.2828 -1.1806  1.4962
    3bbb     C1   66   6.122   6.962   2.809  0.8727  0.3832 -0.0946
    3bbb     H1   67   6.171   7.019   2.729  0.5184  2.1099  0.8743
    3bbb     H2   68   6.193   6.899   2.865 -1.2000 -0.5512  1.5979
    3bbb     C2   69   6.018   6.863   2.753 -0.0411  0.9530  0.5102
    3bbb     H3   70   5.933   6.913   2.705 -1.5131 -0.9713  0.9827
    3bbb     H4   71   6.077   6.813   2.675 -0.1393  0.0850  0.9797
    3bbb     N1   72   6.081   7.058   2.917 -0.1178  0.4215  0.1139
    3bbb     C3   73   5.973   7.147   2.881 -0.1572  0.8125  0.4794
    3bbb     H5   74   5.954   7.215   2.964 -2.0090  1.2488 -0.2637
    3bbb     H6   75   5.875   7.098   2.869 -0.0398  0.7344 -0.2035
    3bbb     C4   76   6.045   6.984   3.044  0.4151 -0.6210  0.6148
    3bbb     H7   77   6.005   7.065   3.106  1.5665 -1.2601  2.2500
    3bbb     H8   78   5.967   6.909   3.026 -0.8717  0.7676  0.2722
    3bbb     C5   79   6.158   6.923   3.128 -0.3220  1.0376 -0.1637
    3bbb     H9   80   6.214   6.843   3.079  0.7462  2.1194 -0.7656
    3bbb    H10   81   6.237   6.995   3.152  2.3141 -0.9930 -2.1166
    3bbb     C6   82   6.000   7.229   2.758 -0.2731  0.3464 -0.6195
    3bbb    H11   83   6.078   7.301   2.786 -0.3021 -0.6002  2.1727
    3bbb    H12   84   6.029   7.176   2.666 -3.3968  0.0125 -1.5100
    3bbb     C7   85   6.103   6.866   3.260  1.0335  0.4298  0.1862
    3bbb     C8   86   5.883   7.309   2.717 -0.3604 -0.2891 -0.1463
    3bbb     O1   87   5.989   6.887   3.297  0.0803  0.4620 -0.3876
    3bbb     O2   88   5.830   7.295   2.611  0.3737 -0.0645  0.1479
    3bbb     N4   89   5.963   6.755   2.840  0.8594  0.2332  0.2528
    3bbb    H21   90   5.884   6.780   2.899  1.0905  0.8597  0.3048
    4bbb     C1   91   4.966   6.070   2.739 -0.3059 -0.0606  0.5041
    4bbb     H1   92   4.878   6.007   2.759 -0.1289 -0.4297  0.1444
    4bbb     H2   93   5.039   6.020   2.674  0.1853  0.4616  0.6537
    4bbb     C2   94   5.024   6.089   2.875 -0.4040 -0.1492 -0.6123
    4bbb     H3   95   4.941   6.113   2.942 -0.5623  1.4444 -1.3339
    4bbb     H4   96   5.053   5.993   2.921 -2.6818 -0.4584  0.2990
    4bbb     N1   97   4.917   6.198   2.682  0.1443  0.0129  0.0132
    4bbb     C3   98   4.905   6.189   2.538 -0.1129 -0.3110 -0.9795
    4bbb     H5   99   4.822   6.127   2.500  1.2009 -1.5428 -1.9764
    4bbb     H6  100   4.994   6.135   2.503  0.0844  0.4503 -1.6878
    4bbb     C4  101   4.804   6.257   2.747  0.3430  0.1808 -0.0881
    4bbb     H7  102   4.729   6.301   2.680  0.5296  1.3952  0.4733
    4bbb     H8  103   4.758   6.186   2.817 -1.0516  1.9257  0.8536
    4bbb     C5  104   4.857   6.381   2.815 -0.3224  0.2950  0.3298
    4bbb     H9  105   4.917   6.345   2.899 -0.4406  0.1253  0.3451
    4bbb    H10  106   4.928   6.424   2.744  1.2046 -1.4885  0.7138
    4bbb     C6  107   4.893   6.328   2.471  0.0149  0.7477  0.2922
    4bbb    H11  108   4.803   6.381   2.504 -2.3367 -1.4466 -2.0683
    4bbb    H12  109   4.976   6.396   2.494  0.7609  0.5001 -1.4925
    4bbb     C7  110   4.749   6.459   2.871  0.3196  0.5012  0.7095
    4bbb     C8  111   4.873   6.314   2.326 -0.1469 -0.2697 -0.0941
    4bbb     O1  112   4.669   6.406   2.946  0.6708  0.0626  0.1149
    4bbb     O2  113   4.946   6.374   2.246  0.6028 -0.9321 -0.7293
    4bbb     N4  114   5.132   6.194   2.887 -0.2811 -0.2544 -0.4618
    4bbb    H21  115   5.158   6.254   2.809  2.1150  1.7666  1.6997
    5bbb     C1  116   5.360   6.801   3.750 -0.8921  0.2090 -0.2682
    5bbb     H1  117   5.343   6.895   3.696  0.7808  0.7403  0.0740
    5bbb     H2  118   5.404   6.833   3.846  0.7580 -0.3382 -0.8045
    5bbb     C2  119   5.462   6.711   3.686 -0.4692 -0.1055  0.6892
    5bbb     H3  120   5.549   6.776   3.674 -0.1326 -0.5870  0.4868
    5bbb     H4  121   5.492   6.634   3.758  0.8050 -0.5337 -0.2473
    5bbb     N1  122   5.234   6.726   3.765  0.2552  0.0840 -0.0860
    5bbb     C3  123   5.247   6.618   3.869  0.0164  0.4458 -0.8150
    5bbb     H5  124   5.292   6.664   3.958 -0.2779 -1.7508  0.5356
    5bbb     H6  125   5.330   6.551   3.842 -0.5969 -0.8163  0.3279
    5bbb     C4  126   5.119   6.822   3.792  0.1005  0.3340 -0.6099
    5bbb     H7  127   5.110   6.898   3.714 -0.9547 -0.3849 -1.2021
    5bbb     H8  128   5.023   6.769   3.790  0.1609  0.1163  0.6995
    5bbb     C5  129   5.122   6.888   3.927 -0.6048 -0.3673 -0.8143
    5bbb     H9  130   5.151   6.824   4.011 -1.5267 -0.1694 -0.3301
    5bbb    H10  131   5.187   6.976   3.914  0.0617 -0.9425 -1.4606
    5bbb     C6  132   5.117   6.541   3.901  0.2233  0.3247  0.0986
    5bbb    H11  133   5.034   6.601   3.940  0.1503  0.5837 -0.4449
    5bbb    H12  134   5.078   6.502   3.807  1.1252  1.3394 -0.7195
    5bbb     C7  135   4.997   6.963   3.941 -0.0953  0.4381 -0.0738
    5bbb     C8  136   5.138   6.416   3.982 -0.1254 -0.2326 -0.2683
    5bbb     O1  137   4.962   7.056   3.871  0.0444  0.4708 -0.2833
    5bbb     O2  138   5.085   6.393   4.089  0.3936 -0.5945  0.4733
    5bbb     N4  139   5.422   6.657   3.554 -0.1223  1.2016  0.4846
    5bbb    H21  140   5.328   6.630   3.527  0.3279 -0.4045  0.3928
    6bbb     C1  141   4.848   5.323   2.314 -0.0091  0.9075  0.0929
    6bbb     H1  142   4.926   5.354   2.243  1.1715  1.4844  1.5797
    6bbb     H2  143   4.750   5.347   2.271  0.6681 -2.2041 -3.7515
    6bbb     C2  144   4.869   5.404   2.449 -0.0140  0.8122 -0.4861
    6bbb     H3  145   4.774   5.455   2.468 -1.2110 -1.3184 -0.4268
    6bbb     H4  146   4.896   5.336   2.532  0.3482 -0.1810 -1.3940
    6bbb     N1  147   4.875   5.177   2.334  0.1926 -0.1401 -0.5727
    6bbb     C3  148   5.011   5.150   2.355  0.2245  0.0794  0.2550
    6bbb     H5  149   5.052   5.218   2.431 -0.1903 -1.1153  1.5999
    6bbb     H6  150   5.071   5.159   2.263  0.5617  0.9556  0.5511
    6bbb     C4  151   4.816   5.105   2.213  0.1483  0.0681  0.1865
    6bbb     H7  152   4.854   5.145   2.119 -1.5851 -1.0313 -1.0452
    6bbb     H8  153   4.839   4.998   2.219  0.6172  0.2030  0.9655
    6bbb     C5  154   4.661   5.108   2.214 -0.5642 -0.0762  0.4108
    6bbb     H9  155   4.619   5.072   2.309  0.7426 -1.2797  0.5465
    6bbb    H10  156   4.616   5.206   2.189  1.4964  0.3436 -2.0443
    6bbb     C6  157   5.026   5.007   2.403 -0.2134  0.9475  0.0808
    6bbb    H11  158   4.932   4.976   2.450  0.7352  0.9950  2.0907
    6bbb    H12  159   5.041   4.943   2.315 -0.2625  1.4119 -0.2693
    6bbb     C7  160   4.619   5.013   2.103 -0.2939 -0.2815  0.3489
    6bbb     C8  161   5.139   4.989   2.498  0.7202  0.1374 -0.4929
    6bbb     O1  162   4.673   5.032   1.995 -0.0951  0.0501  0.1356
    6bbb     O2  163   5.253   4.992   2.454  0.1779  0.2556  0.4365
    6bbb     N4  164   4.988   5.502   2.436 -0.6198 -0.4673 -0.5558
    6bbb    H21  165   5.081   5.472   2.411 -0.6631 -0.7768 -0.3537
    7bbb     C1  166   5.381   6.366   1.831  0.3531 -0.1429  0.3199
    7bbb     H1  167   5.371   6.469   1.794 -0.9143 -0.2818  0.2288
    7bbb     H2  168   5.387   6.300   1.743 -1.3969  1.0393 -0.7648
    7bbb     C2  169   5.250   6.326   1.914  0.1708  0.0420 -0.4166
    7bbb     H3  170   5.232   6.410   1.982 -0.2064 -0.4143  0.0621
    7bbb     H4  171   5.167   6.319   1.843  1.2921 -2.1232 -1.6134
    7bbb     N1  172   5.497   6.353   1.917 -0.1025 -0.1497  0.6474
    7bbb     C3  173   5.621   6.316   1.847  0.7271 -0.1909 -0.3753
    7bbb     H5  174   5.697   6.313   1.926 -0.2028 -1.2484  0.5113
    7bbb     H6  175   5.633   6.393   1.770 -2.4896 -0.3572 -1.1790
    7bbb     C4  176   5.518   6.478   1.990 -0.4705  0.4924  0.2374
    7bbb     H7  177   5.545   6.556   1.918 -1.5140  0.1047 -0.6146
    7bbb     H8  178   5.421   6.507   2.033 -1.7176  0.2185 -2.1864
    7bbb     C5  179   5.620   6.471   2.098 -0.0034 -0.7003  0.2909
    7bbb     H9  180   5.592   6.381   2.153 -1.2852  0.6717  1.9796
    7bbb    H10  181   5.725   6.472   2.066 -0.2661  1.4046 -0.6894
    7bbb     C6  182   5.616   6.181   1.781  0.4739  0.1984 -0.4671
    7bbb    H11  183   5.546   6.110   1.827  0.2436 -0.3493 -1.6050
    7bbb    H12  184   5.568   6.201   1.684 -0.1960 -1.2997 -0.4748
    7bbb     C7  185   5.604   6.591   2.185  0.5471  0.0095  0.2412
    7bbb     C8  186   5.754   6.127   1.771  0.6257 -0.4988 -0.1444
    7bbb     O1  187   5.646   6.702   2.160 -0.4305 -0.5260 -0.2260
    7bbb     O2  188   5.827   6.165   1.684  0.2446  0.4144  0.1593
    7bbb     N4  189   5.266   6.197   1.994  0.2938 -0.0596  0.0235
    7bbb    H21  190   5.256   6.109   1.943 -1.7963  0.6002 -0.7916
    8bbb     C1  191   6.168   6.579   3.425  0.2819 -0.5223  0.5452
    8bbb     H1  192   6.099   6.550   3.344 -2.4846 -0.2056  2.6140
    8bbb     H2  193   6.136   6.515   3.509  0.3665 -1.8895 -0.4368
    8bbb     C2  194   6.168   6.727   3.459  0.4776 -0.6583  0.2769
    8bbb     H3  195   6.081   6.765   3.514  0.0321  1.2049 -1.5819
    8bbb     H4  196   6.247   6.738   3.534  0.3768 -0.4173  0.3464
    8bbb     N1  197   6.307   6.541   3.385  0.6012 -0.5187 -0.1445
    8bbb     C3  198   6.317   6.433   3.282  0.1319  0.3410  0.0152
    8bbb     H5  199   6.254   6.346   3.304  4.9021 -3.0532  2.0712
    8bbb     H6  200   6.419   6.399   3.257 -0.0419  1.6820 -2.9265
    8bbb     C4  201   6.378   6.498   3.502  0.7144 -0.3239  0.3351
    8bbb     H7  202   6.350   6.553   3.593  0.3405 -1.2701  0.8032
    8bbb     H8  203   6.356   6.393   3.523  2.3450 -0.3008  2.5888
    8bbb     C5  204   6.532   6.518   3.488 -0.6566 -0.2967  0.2619
    8bbb     H9  205   6.558   6.476   3.391 -1.3905 -1.5809  0.5919
    8bbb    H10  206   6.545   6.626   3.474  0.6287 -0.2638  1.4484
    8bbb     C6  207   6.271   6.490   3.143 -0.4209 -0.2178 -0.2799
    8bbb    H11  208   6.166   6.521   3.141 -0.8119 -1.4830 -0.2446
    8bbb    H12  209   6.327   6.582   3.123 -0.2588 -0.4088 -0.7245
    8bbb     C7  210   6.615   6.462   3.599 -0.1984 -0.5158  0.3125
    8bbb     C8  211   6.288   6.394   3.033 -0.8424  0.6352  0.2521
    8bbb     O1  212   6.612   6.508   3.710  0.4305  0.2455  0.2041
    8bbb     O2  213   6.346   6.431   2.926 -0.5863 -0.1309 -0.3689
    8bbb     N4  214   6.195   6.805   3.338  0.4625 -0.6823  0.0631
    8bbb    H21  215   6.288   6.808   3.297  0.0525  1.4057 -0.8150
    9bbb     C1  216   5.695   7.590   2.905 -0.0016  0.0194 -0.1196
    9bbb     H1  217   5.789   7.632   2.941 -0.1894  0.8222 -0.5437
    9bbb     H2  218   5.657   7.534   2.991  0.0184 -0.8801 -0.6864
    9bbb     C2  219   5.724   7.492   2.786 -0.4960  0.1039 -0.6840
    9bbb     H3  220   5.637   7.426   2.776 -0.6467 -0.4733  2.9985
    9bbb     H4  221   5.751   7.550   2.697  3.2942 -3.6099 -2.2919
    9bbb     N1  222   5.593   7.689   2.862  0.1761 -0.3295  0.3573
    9bbb     C3  223   5.595   7.817   2.932 -0.2157 -0.4698  0.0751
    9bbb     H5  224   5.524   7.890   2.891  0.3719  1.2238  1.9149
    9bbb     H6  225   5.694   7.864   2.919  0.1704 -1.1407  0.5576
    9bbb     C4  226   5.460   7.640   2.837  0.2451 -0.0015  0.0535
    9bbb     H7  227   5.461   7.540   2.792  1.8765  0.4705 -1.0486
    9bbb     H8  228   5.412   7.633   2.936  3.3270 -2.0015  1.5883
    9bbb     C5  229   5.382   7.727   2.737  0.6391  0.1123 -0.9413
    9bbb     H9  230   5.379   7.832   2.768  1.7020  0.8979 -3.2765
    9bbb    H10  231   5.432   7.716   2.640  1.3520 -1.9112 -0.4079
    9bbb     C6  232   5.577   7.790   3.080  0.6799  0.2187 -0.3252
    9bbb    H11  233   5.488   7.730   3.102  1.8769 -0.8001  2.1367
    9bbb    H12  234   5.665   7.740   3.123  0.6917  1.4012  1.1014
    9bbb     C7  235   5.251   7.654   2.716  0.2120  0.2377  0.2741
    9bbb     C8  236   5.552   7.912   3.165 -0.0166 -0.3499 -0.4132
    9bbb     O1  237   5.235   7.574   2.625 -0.0643  0.7426 -0.4024
    9bbb     O2  238   5.645   7.967   3.218 -0.2959  0.6044 -0.2582
    9bbb     N4  239   5.846   7.409   2.797  0.1456  0.3897 -0.0013
    9bbb    H21  240   5.906   7.421   2.878  0.1164  2.2704 -0.2257
   10bbb     C1  241   4.537   6.706   2.869  0.1162  0.1843 -0.1396
   10bbb     H1  242   4.483   6.779   2.931  1.1739  0.0163  1.0317
   10bbb     H2  243   4.491   6.610   2.895  2.1248 -0.5733  0.8499
   10bbb     C2  244   4.676   6.695   2.924 -0.4223  0.0469 -0.4069
   10bbb     H3  245   4.741   6.783   2.918  0.2456 -0.4979 -1.7031
   10bbb     H4  246   4.668   6.667   3.029 -0.2935 -0.0010 -0.4097
   10bbb     N1  247   4.539   6.739   2.729  0.6781  0.4785 -0.1748
   10bbb     C3  248   4.552   6.886   2.719  0.2731  0.2305 -0.1501
   10bbb     H5  249   4.619   6.927   2.795  0.8064 -0.0535 -0.4589
   10bbb     H6  250   4.450   6.924   2.732 -0.1039 -0.7705 -0.0458
   10bbb     C4  251   4.410   6.695   2.664  0.1112  0.1513 -0.3421
   10bbb     H7  252   4.327   6.717   2.732  1.0206 -0.2732  0.9402
   10bbb     H8  253   4.384   6.754   2.575 -1.5312 -1.5610 -1.0603
   10bbb     C5  254   4.426   6.541   2.641  0.5658 -0.2170  0.6178
   10bbb     H9  255   4.500   6.540   2.559 -0.8007 -0.4397 -0.6426
   10bbb    H10  256   4.473   6.488   2.725 -1.8700 -0.0616  2.1518
   10bbb     C6  257   4.612   6.921   2.586 -0.0505 -0.0127  0.6848
   10bbb    H11  258   4.707   6.867   2.576  0.0258  0.1027  0.7941
   10bbb    H12  259   4.551   6.898   2.498  2.6730 -2.5405 -0.7087
   10bbb     C7  260   4.296   6.498   2.591  0.0572  0.0939  0.1898
   10bbb     C8  261   4.646   7.069   2.583  0.2788  0.8044  0.7081
   10bbb     O1  262   4.203   6.492   2.666  0.5708 -0.2233 -0.3266
   10bbb     O2  263   4.751   7.119   2.617 -0.0088 -0.3854 -0.3409
   10bbb     N4  264   4.751   6.588   2.843  0.8598  0.5781  0.1915
   10bbb    H21  265   4.779   6.619   2.751 -2.0201  0.4646 -0.8359
   11bbb     C1  266   4.833   6.140   2.044  0.4803 -0.0362  0.1807
   11bbb     H1  267   4.928   6.197   2.047 -0.3681  1.4039  0.9877
   11bbb     H2  268   4.797   6.148   1.941  1.6822  1.7976 -0.1625
   11bbb     C2  269   4.746   6.221   2.141  0.2601  0.3404 -0.0862
   11bbb     H3  270   4.737   6.324   2.106 -0.7186  0.6839  1.1140
   11bbb     H4  271   4.645   6.176   2.141  1.2768 -2.1191  0.4793
   11bbb     N1  272   4.859   5.998   2.074  0.0948  0.6821 -0.8631
   11bbb     C3  273   4.962   5.937   1.988  0.4943 -0.8028 -0.5374
   11bbb     H5  274   4.979   5.833   2.018  0.3500 -0.8268 -0.5409
   11bbb     H6  275   5.054   5.993   2.011  0.9752 -1.6934 -0.2239
   11bbb     C4  276   4.735   5.915   2.081 -0.0320 -0.4543 -0.0229
   11bbb     H7  277   4.661   5.972   2.139  1.5209  2.8337 -1.0538
   11bbb     H8  278   4.692   5.886   1.985  2.8242 -2.1841 -0.8983
   11bbb     C5  279   4.768   5.787   2.156 -0.1959 -0.3391 -0.1792
   11bbb     H9  280   4.821   5.714   2.095  0.4763 -0.2335  0.2675
   11bbb    H10  281   4.827   5.817   2.244  1.5952 -0.4301 -1.3061
   11bbb     C6  282   4.936   5.935   1.835  0.9864  0.5359  0.7117
   11bbb    H11  283   4.867   5.853   1.810 -1.9169  2.5976  1.5124
   11bbb    H12  284   4.880   6.026   1.810  1.2312  0.6005  0.3907
   11bbb     C7  285   4.640   5.710   2.179  0.2318  0.2152  0.1646
   11bbb     C8  286   5.062   5.920   1.756  0.1221 -0.0811 -0.0880
   11bbb     O1  287   4.551   5.704   2.091  0.0403 -0.3838  0.2056
   11bbb     O2  288   5.160   5.862   1.802  0.2228 -0.5759  0.6338
   11bbb     N4  289   4.785   6.221   2.281 -0.0614 -0.0586  0.9155
   11bbb    H21  290   4.729   6.166   2.345 -1.3532 -0.0525 -0.1408
   12bbb     C1  291   4.920   7.043   4.282  0.3634 -0.4088  0.4702
   12bbb     H1  292   4.858   7.120   4.328  0.0858 -1.3364  1.6835
   12bbb     H2  293   5.017   7.087   4.255 -0.2091 -0.2657 -1.5581
   12bbb     C2  294   4.857   7.013   4.144 -0.6315 -0.4109  1.2834
   12bbb     H3  295   4.758   6.967   4.156 -0.2999 -1.1270  1.2733
   12bbb     H4  296   4.847   7.108   4.089  0.8237 -1.5423 -1.1240
   12bbb     N1  297   4.935   6.923   4.356  0.5210  1.1034 -0.7226
   12bbb     C3  298   4.805   6.867   4.400  0.0212  0.0432 -0.5327
   12bbb     H5  299   4.721   6.914   4.347 -1.3270 -1.4276  0.2044
   12bbb     H6  300   4.786   6.886   4.506 -2.7655 -0.6312 -0.8142
   12bbb     C4  301   5.016   6.947   4.474  0.2607  0.0062  0.3551
   12bbb     H7  302   4.981   7.047   4.504 -1.9081 -0.5412 -0.1578
   12bbb     H8  303   4.991   6.879   4.557 -1.0895  0.2052  0.1339
   12bbb     C5  304   5.165   6.942   4.451 -0.0546 -0.5168 -0.1572
   12bbb     H9  305   5.189   6.849   4.398 -0.9491 -0.2445 -1.0847
   12bbb    H10  306   5.189   7.022   4.381  0.4411  0.5901  1.2287
   12bbb     C6  307   4.802   6.720   4.386  0.3641 -0.1782 -0.4491
   12bbb    H11  308   4.882   6.685   4.452 -0.2808  0.8535  0.9230
   12bbb    H12  309   4.706   6.679   4.422 -0.3224  1.2588 -0.6002
   12bbb     C7  310   5.248   6.967   4.575  0.2649  0.1447 -0.7149
   12bbb     C8  311   4.814   6.678   4.249 -0.4578 -0.0198  0.0464
   12bbb     O1  312   5.201   6.960   4.683  0.4020 -0.4432 -0.2032
   12bbb     O2  313   4.926   6.670   4.200  0.7164 -0.1300 -0.1492
   12bbb     N4  314   4.937   6.925   4.055  0.2612  0.2262  0.6052
   12bbb    H21  315   4.984   6.853   4.109 -2.1135 -1.0940  1.0422
   13bbb     C1  316   5.377   6.138   3.995  0.2698  0.1191  0.4167
   13bbb     H1  317   5.450   6.141   3.913 -1.2143 -0.7347 -0.9917
   13bbb     H2  318   5.359   6.035   4.029 -1.0846  1.1085  3.0009
   13bbb     C2  319   5.233   6.182   3.954 -0.2829  0.7382 -0.0020
   13bbb     H3  320   5.207   6.130   3.861  2.7362  1.8522 -1.5980
   13bbb     H4  321   5.160   6.161   4.033  1.4590  0.3392  1.5766
   13bbb     N1  322   5.419   6.212   4.122 -0.0989 -0.0781  0.7045
   13bbb     C3  323   5.483   6.339   4.102 -0.0620 -0.4595  0.4578
   13bbb     H5  324   5.449   6.405   4.021  1.2964  1.2798  1.2398
   13bbb     H6  325   5.591   6.337   4.082  0.0249  0.8462  0.7040
   13bbb     C4  326   5.506   6.128   4.200  0.2145  1.1772  0.9257
   13bbb     H7  327   5.561   6.056   4.138 -2.6674 -1.8305  1.5783
   13bbb     H8  328   5.585   6.186   4.250  0.9771  1.3580 -0.4189
   13bbb     C5  329   5.421   6.047   4.295  0.1267 -0.5849 -0.5886
   13bbb     H9  330   5.340   5.991   4.246 -0.7895  0.9169 -0.8494
   13bbb    H10  331   5.483   5.977   4.352 -0.7622 -1.1012 -0.2207
   13bbb     C6  332   5.455   6.424   4.225  0.2875 -0.0057  0.0272
   13bbb    H11  333   5.348   6.422   4.246 -0.1731  0.4234 -2.0133
   13bbb    H12  334   5.513   6.379   4.306  1.3504 -0.3705 -0.9118
   13bbb     C7  335   5.342   6.130   4.387  0.4048 -1.0646 -0.4474
   13bbb     C8  336   5.512   6.565   4.207  0.4644  0.2089  0.2872
   13bbb     O1  337   5.366   6.127   4.510 -0.2705  0.1480  0.0399
   13bbb     O2  338   5.628   6.582   4.164  0.2389  0.0009  0.7563
   13bbb     N4  339   5.210   6.324   3.912  0.7172  0.7738 -0.3337
   13bbb    H21  340   5.245   6.350   3.821 -0.2987 -1.6691 -1.4904
   14bbb     C1  341   4.519   4.673   2.061  0.6494  0.3595  0.3295
   14bbb     H1  342   4.463   4.605   1.995 -0.1690  0.6840  0.6746
   14bbb     H2  343   4.472   4.662   2.159 -1.7108  0.7992 -0.6743
   14bbb     C2  344   4.489   4.817   2.012  0.4406 -0.0029 -0.1750
   14bbb     H3  345   4.542   4.828   1.917  0.0915 -1.1139 -0.5220
   14bbb     H4  346   4.380   4.820   2.001  0.3307 -1.5406  0.1594
   14bbb     N1  347   4.663   4.639   2.077 -0.4611  0.3865 -0.5370
   14bbb     C3  348   4.693   4.502   2.032  0.1898  0.4907  0.0236
   14bbb     H5  349   4.608   4.436   2.052  1.0542 -0.2678  1.3156
   14bbb     H6  350   4.783   4.459   2.076  0.2514  1.0541  0.4609
   14bbb     C4  351   4.714   4.670   2.213 -0.0591 -0.2565  0.3132
   14bbb     H7  352   4.679   4.768   2.248 -1.2238 -0.4145 -0.3709
   14bbb     H8  353   4.680   4.592   2.282  2.2039 -1.2853  0.3500
   14bbb     C5  354   4.862   4.678   2.217 -1.3486 -0.3394 -0.1651
   14bbb     H9  355   4.918   4.609   2.153  2.0073  0.2636  1.8379
   14bbb    H10  356   4.884   4.777   2.174 -1.0381 -0.2214  0.2564
   14bbb     C6  357   4.711   4.511   1.878  0.2054  0.2061 -0.2984
   14bbb    H11  358   4.706   4.414   1.826 -0.5439  0.4289 -0.6485
   14bbb    H12  359   4.627   4.569   1.840  0.7909  0.7424 -0.7897
   14bbb     C7  360   4.928   4.668   2.351  0.2821 -0.0979 -0.4873
   14bbb     C8  361   4.846   4.563   1.838 -0.3044 -0.0779 -0.5345
   14bbb     O1  362   4.877   4.699   2.463  0.1063 -0.0851 -0.3888
   14bbb     O2  363   4.932   4.495   1.779 -0.2864 -0.0736  0.5979
   14bbb     N4  364   4.525   4.916   2.118  0.5660 -0.1746  0.3502
   14bbb    H21  365   4.470   4.921   2.203  0.6353 -0.3208  0.4034
   15bbb     C1  366   5.141   5.014   2.882 -0.2456  0.4470 -0.5477
   15bbb     H1  367   5.206   5.058   2.958 -0.9380  2.9407 -1.2999
   15bbb     H2  368   5.123   4.912   2.918  1.2026 -0.5840 -2.5511
   15bbb     C2  369   5.196   4.993   2.742 -0.3301 -0.1306 -0.0441
   15bbb     H3  370   5.264   5.074   2.713 -0.8243  0.4240  0.3216
   15bbb     H4  371   5.268   4.910   2.751 -1.1683 -0.8563  0.1438
   15bbb     N1  372   5.022   5.101   2.890  0.1962  0.2638  0.1414
   15bbb     C3  373   5.062   5.241   2.889  0.6668  0.1315 -0.6300
   15bbb     H5  374   5.163   5.245   2.931  0.2895  1.5300  0.1765
   15bbb     H6  375   5.012   5.290   2.973  0.4477  0.0937 -0.7364
   15bbb     C4  376   4.943   5.059   3.004  0.4370  0.2222 -0.2782
   15bbb     H7  377   4.941   4.950   3.009 -0.2389  0.2718  0.8782
   15bbb     H8  378   4.986   5.090   3.100 -0.0797 -0.1227  0.0665
   15bbb     C5  379   4.800   5.103   2.993  0.6047 -0.0259  0.4996
   15bbb     H9  380   4.797   5.212   2.976  1.0156  0.1581  1.5074
   15bbb    H10  381   4.756   5.057   2.904  0.3802 -0.5818  0.8968
   15bbb     C6  382   5.051   5.311   2.758  0.3874 -0.3484  0.1421
   15bbb    H11  383   5.115   5.262   2.683 -0.7453  0.0185 -1.1018
   15bbb    H12  384   4.949   5.299   2.720  0.3575 -4.2402  0.9985
   15bbb     C7  385   4.714   5.080   3.113  0.3439 -0.5119  0.7914
   15bbb     C8  386   5.091   5.454   2.782 -0.8695  0.6442  0.0098
   15bbb     O1  387   4.760   5.020   3.207 -0.3293  0.5186 -0.6066
   15bbb     O2  388   5.015   5.541   2.817 -0.0458 -0.0930  0.5060
   15bbb     N4  389   5.104   4.966   2.629  0.4467  0.2302  0.6571
   15bbb    H21  390   5.006   4.961   2.654  0.6243 -3.2183  1.1273
   16bbb     C1  391   5.590   6.660   2.544 -0.1797 -0.5954  0.2402
   16bbb     H1  392   5.691   6.648   2.506 -0.0665 -0.6854  0.5640
   16bbb     H2  393   5.565   6.568   2.598  0.7985 -0.2512  1.3218
   16bbb     C2  394   5.509   6.664   2.415  0.6510 -0.4011 -0.2661
   16bbb     H3  395   5.403   6.658   2.443  0.6160 -0.0773 -0.3139
   16bbb     H4  396   5.516   6.766   2.375 -0.9806  1.2061  3.1545
   16bbb     N1  397   5.588   6.785   2.620  0.2442  0.6261  0.4465
   16bbb     C3  398   5.560   6.768   2.757  0.2922  0.3806 -0.1351
   16bbb     H5  399   5.588   6.863   2.803  3.1600  0.3718 -1.6147
   16bbb     H6  400   5.624   6.692   2.804  0.8253  1.8400  1.6345
   16bbb     C4  401   5.709   6.852   2.604 -0.8941  0.0727 -0.4082
   16bbb     H7  402   5.723   6.928   2.683 -0.6575 -0.4827  0.0922
   16bbb     H8  403   5.789   6.780   2.623 -0.7247  0.7929  1.8977
   16bbb     C5  404   5.730   6.918   2.466  0.3673  0.3354  0.1322
   16bbb     H9  405   5.711   6.851   2.381  1.2661  0.2299  0.0034
   16bbb    H10  406   5.668   7.008   2.459  0.0908  0.0376 -1.7296
   16bbb     C6  407   5.420   6.740   2.776  0.4532  0.2639  0.4395
   16bbb    H11  408   5.362   6.811   2.716 -0.0451 -0.8071 -0.3843
   16bbb    H12  409   5.393   6.637   2.749  0.6385 -0.0627  1.4617
   16bbb     C7  410   5.872   6.938   2.441 -0.0056 -0.1360 -0.2871
   16bbb     C8  411   5.372   6.767   2.916 -0.3414 -0.0114  0.0392
   16bbb     O1  412   5.944   6.841   2.417 -0.5623  0.4516 -0.1827
   16bbb     O2  413   5.441   6.817   2.995 -0.4010  0.1025 -0.3043
   16bbb     N4  414   5.545   6.565   2.310  0.4743 -0.8849  0.0201
   16bbb    H21  415   5.520   6.468   2.324  2.4766 -1.6117 -0.9478
   17bbb     C1  416   5.985   6.123   2.020 -0.2870  0.3622 -0.6291
   17bbb     H1  417   5.981   6.231   1.998 -1.3513  0.8415  1.6041
   17bbb     H2  418   6.093   6.107   2.024 -0.0787  0.8525 -2.9825
   17bbb     C2  419   5.933   6.027   1.913  0.5909 -0.4389 -0.3404
   17bbb     H3  420   5.996   6.043   1.825  0.3489  2.1343 -0.1343
   17bbb     H4  421   5.946   5.922   1.941 -1.9369 -0.1405  2.5702
   17bbb     N1  422   5.933   6.110   2.154  0.3833  0.8464 -0.4723
   17bbb     C3  423   5.808   6.180   2.168 -0.4615  0.9263  0.0229
   17bbb     H5  424   5.732   6.154   2.093  0.3715  2.5589 -1.4782
   17bbb     H6  425   5.837   6.284   2.146  2.8322  0.2830  0.7852
   17bbb     C4  426   5.930   5.966   2.199 -0.2917 -0.5241  0.0569
   17bbb     H7  427   5.887   5.967   2.300 -2.9150 -0.0231 -0.9672
   17bbb     H8  428   5.855   5.908   2.144 -0.4970  0.2003 -0.4326
   17bbb     C5  429   6.072   5.912   2.202 -0.4348 -0.1297  0.7702
   17bbb     H9  430   6.109   5.881   2.103  0.7165 -1.7842  1.6573
   17bbb    H10  431   6.146   5.979   2.246 -0.6186  1.3565 -1.0693
   17bbb     C6  432   5.745   6.177   2.300 -0.3224  0.3954 -0.1193
   17bbb    H11  433   5.654   6.238   2.296  0.7132  2.0009 -0.0529
   17bbb    H12  434   5.708   6.078   2.332 -2.8440  1.2825 -0.0692
   17bbb     C7  435   6.072   5.784   2.283 -0.1842 -0.6321  0.0456
   17bbb     C8  436   5.846   6.244   2.397 -0.0616 -0.2889 -0.5957
   17bbb     O1  437   6.067   5.781   2.403  0.8303 -0.2064 -0.2365
   17bbb     O2  438   5.861   6.364   2.419  0.2440  0.0416  0.2716
   17bbb     N4  439   5.789   6.042   1.879 -0.5876 -0.0088  0.0767
   17bbb    H21  440   5.720   6.023   1.951 -0.6509 -0.0406  0.0072
   18bbb     C1  441   6.752   6.106   3.623  0.7911 -0.7508 -0.0237
   18bbb     H1  442   6.761   6.040   3.711  1.4384  0.4856  0.8624
   18bbb     H2  443   6.847   6.137   3.578 -1.0765  3.4194 -1.6165
   18bbb     C2  444   6.696   6.241   3.672  0.1679 -0.8848 -0.2851
   18bbb     H3  445   6.607   6.231   3.735  0.1479  1.6069  0.1699
   18bbb     H4  446   6.769   6.273   3.747 -1.2038  0.1768  0.6369
   18bbb     N1  447   6.662   6.050   3.517  0.0920  0.0523  0.1921
   18bbb     C3  448   6.710   5.921   3.453  0.7706 -0.2939  0.5659
   18bbb     H5  449   6.637   5.892   3.377  0.7399 -0.7177  0.7565
   18bbb     H6  450   6.712   5.839   3.526  0.7953  0.5465  1.5407
   18bbb     C4  451   6.525   6.021   3.553  0.1324  0.9317  0.4955
   18bbb     H7  452   6.520   5.912   3.567  2.7454  0.5836 -0.8616
   18bbb     H8  453   6.494   6.069   3.647 -1.0327  1.3424 -0.0740
   18bbb     C5  454   6.435   6.062   3.432 -0.3924 -0.5193 -0.0530
   18bbb     H9  455   6.435   6.170   3.412 -0.5862 -0.3456  0.8531
   18bbb    H10  456   6.460   6.017   3.335  1.0941 -2.4935  1.1742
   18bbb     C6  457   6.836   5.954   3.370  0.3074 -0.1745 -0.8037
   18bbb    H11  458   6.820   6.032   3.294 -0.4380  0.1769 -0.3022
   18bbb    H12  459   6.920   5.981   3.434 -0.2794  2.0227 -0.8739
   18bbb     C7  460   6.300   6.022   3.463 -0.3801 -0.2650 -0.3189
   18bbb     C8  461   6.885   5.830   3.295 -0.4651 -0.4482 -0.4326
   18bbb     O1  462   6.226   6.094   3.526  0.4059 -0.0747  0.2088
   18bbb     O2  463   6.943   5.743   3.351 -0.5916  0.1956 -0.6144
   18bbb     N4  464   6.671   6.345   3.570 -0.3600  0.3974 -0.4671
   18bbb    H21  465   6.640   6.304   3.483  1.8222  1.8958 -2.0812
   19bbb     C1  466   6.144   6.028   3.047  0.0057 -0.7221 -0.1746
   19bbb     H1  467   6.185   6.012   3.147 -1.4077 -0.4696  0.4772
   19bbb     H2  468   6.170   5.940   2.986  2.1572  0.3140 -0.8557
   19bbb     C2  469   6.209   6.152   2.980 -0.6755 -0.1323  0.0709
   19bbb     H3  470   6.310   6.121   2.949 -0.1903  1.1518  0.2770
   19bbb     H4  471   6.156   6.173   2.886  1.2603 -1.8699 -1.5344
   19bbb     N1  472   6.001   6.054   3.056  0.0138 -0.2774  0.0737
   19bbb     C3  473   5.945   6.047   3.191 -0.0105 -0.4652  0.3362
   19bbb     H5  474   5.982   5.957   3.243  3.3017  0.1074 -0.7841
   19bbb     H6  475   5.836   6.054   3.189  0.0327  0.0719 -0.9130
   19bbb     C4  476   5.914   5.986   2.956  0.2360 -0.0365 -0.4882
   19bbb     H7  477   5.811   6.020   2.976  1.2958  3.1496  0.2648
   19bbb     H8  478   5.955   6.021   2.861  1.2710  0.1954  0.0278
   19bbb     C5  479   5.914   5.836   2.964 -0.9020  0.0336 -0.5106
   19bbb     H9  480   6.009   5.786   2.988 -1.4586 -1.0302 -0.4545
   19bbb    H10  481   5.839   5.814   3.041  0.7434  0.6222  1.3649
   19bbb     C6  482   5.979   6.164   3.275 -0.0454  0.2831  0.2837
   19bbb    H11  483   6.085   6.157   3.301  0.4604 -2.7486 -1.9004
   19bbb    H12  484   5.954   6.247   3.207 -1.4843 -1.3044 -1.2592
   19bbb     C7  485   5.854   5.768   2.847  0.6142 -0.1650 -0.1214
   19bbb     C8  486   5.892   6.174   3.397  0.2848  0.9543  0.3461
   19bbb     O1  487   5.741   5.781   2.813 -0.3818  0.0239 -0.2814
   19bbb     O2  488   5.783   6.230   3.392 -0.6543 -0.1023 -0.6960
   19bbb     N4  489   6.229   6.270   3.062  0.9986  0.1555 -0.3146
   19bbb    H21  490   6.169   6.272   3.144  0.2384  0.5687 -0.8626
   20bbb     C1  491   4.886   7.662   2.846  0.1699  0.8286 -0.5764
   20bbb     H1  492   4.800   7.699   2.788 -0.0308 -0.4038 -1.1168
   20bbb     H2  493   4.904   7.742   2.918  0.0964  0.9850 -0.7312
   20bbb     C2  494   5.001   7.661   2.738  0.2974  0.3411  0.8218
   20bbb     H3  495   4.998   7.568   2.681  0.3384 -0.7406  2.4979
   20bbb     H4  496   4.977   7.744   2.670 -0.6064  0.4448  1.2456
   20bbb     N1  497   4.863   7.538   2.922  0.1069 -0.0904  0.1156
   20bbb     C3  498   4.737   7.533   2.998 -0.6082 -0.3081  0.3318
   20bbb     H5  499   4.704   7.635   3.023  1.2080  0.3923  0.0176
   20bbb     H6  500   4.742   7.477   3.092  0.9635  1.4871  1.3748
   20bbb     C4  501   4.980   7.511   2.999  0.3153 -0.2287 -0.2521
   20bbb     H7  502   5.069   7.526   2.937  0.5079  0.4582  0.1805
   20bbb     H8  503   4.982   7.587   3.079  1.8088  1.3038 -1.6663
   20bbb     C5  504   4.973   7.374   3.060  0.1102 -0.1272 -0.1578
   20bbb     H9  505   4.929   7.369   3.160  1.1417 -1.0873  0.2694
   20bbb    H10  506   4.916   7.314   2.987 -0.5010 -1.1672  1.1286
   20bbb     C6  507   4.633   7.461   2.904  0.2932 -0.5265 -0.3095
   20bbb    H11  508   4.606   7.524   2.818  0.0219 -0.3615 -0.1038
   20bbb    H12  509   4.682   7.371   2.864  0.1031 -0.3143 -1.0260
   20bbb     C7  510   5.113   7.314   3.070  0.2176 -0.9871 -0.5395
   20bbb     C8  511   4.507   7.433   2.972 -0.1519  0.0999  0.1097
   20bbb     O1  512   5.182   7.313   3.171  0.2181 -0.0344 -0.0821
   20bbb     O2  513   4.440   7.522   3.015  0.2285  0.2263  0.1590
   20bbb     N4  514   5.138   7.692   2.792  0.3874  0.4121 -0.4399
   20bbb    H21  515   5.149   7.740   2.880 -1.8676 -0.6267  0.4743
   21bbb     C1  516   5.402   8.203   3.102  0.8572 -0.1869  0.3912
   21bbb     H1  517   5.507   8.200   3.070  0.6532 -1.5300 -0.2012
   21bbb     H2  518   5.379   8.301   3.147 -0.7271 -0.4726  0.2567
   21bbb     C2  519   5.397   8.098   3.212 -0.1681  0.1425 -0.0134
   21bbb     H3  520   5.472   8.127   3.287  0.7150  2.1907 -1.5638
   21bbb     H4  521   5.299   8.098   3.260 -0.2792 -1.4447 -0.1950
   21bbb     N1  522   5.307   8.178   2.988  0.5447  1.1430 -0.3841
   21bbb     C3  523   5.325   8.270   2.876 -0.0501 -0.1223  0.1459
   21bbb     H5  524   5.322   8.374   2.910  1.6090  0.8820 -2.4408
   21bbb     H6  525   5.242   8.259   2.806  1.2666  0.4485 -1.5959
   21bbb     C4  526   5.169   8.184   3.041 -0.8347  0.1859 -0.5324
   21bbb     H7  527   5.155   8.138   3.140  0.7199  1.8388  0.5187
   21bbb     H8  528   5.138   8.288   3.052 -1.9708 -0.0381 -1.3638
   21bbb     C5  529   5.073   8.111   2.948 -0.1854 -0.0611  0.1236
   21bbb     H9  530   5.056   8.162   2.853 -2.0690  0.1071  0.5038
   21bbb    H10  531   5.108   8.008   2.935  1.9523  0.4064  1.6430
   21bbb     C6  532   5.457   8.249   2.793  0.0798 -0.2239 -0.1600
   21bbb    H11  533   5.540   8.292   2.850 -1.2614 -0.3077  1.9993
   21bbb    H12  534   5.474   8.144   2.768  0.0901  0.3450 -2.8185
   21bbb     C7  535   4.932   8.091   3.008  0.7620 -0.3843  0.0764
   21bbb     C8  536   5.452   8.331   2.667  0.5686  0.0482  0.7018
   21bbb     O1  537   4.852   8.183   3.012 -0.0130  0.2465 -0.0928
   21bbb     O2  538   5.474   8.447   2.662 -0.5040  0.0401  0.5544
   21bbb     N4  539   5.424   7.956   3.176 -0.1852  0.1620  0.1519
   21bbb    H21  540   5.352   7.900   3.133  1.3840 -1.1013 -0.9671
   22bbb     C1  541   4.175   6.523   2.257 -0.5964 -0.3651 -0.1492
   22bbb     H1  542   4.096   6.486   2.192  0.8673 -1.3975 -1.4197
   22bbb     H2  543   4.267   6.511   2.197 -1.1660  0.7375 -1.2877
   22bbb     C2  544   4.174   6.424   2.377 -1.1332 -0.2813 -0.2804
   22bbb     H3  545   4.091   6.436   2.449 -0.9524  0.3678 -0.1719
   22bbb     H4  546   4.176   6.323   2.336 -1.8198  0.2459 -1.6890
   22bbb     N1  547   4.162   6.659   2.309  0.0965  0.5316 -0.2057
   22bbb     C3  548   4.023   6.680   2.340 -0.0782  0.2192 -0.4003
   22bbb     H5  549   3.976   6.591   2.382 -1.5175  2.0307  2.0777
   22bbb     H6  550   3.968   6.715   2.252 -1.7492  3.1711  1.6413
   22bbb     C4  551   4.215   6.770   2.231  0.7608  0.0030 -0.2978
   22bbb     H7  552   4.197   6.743   2.126 -3.2393  2.6602 -0.5199
   22bbb     H8  553   4.168   6.861   2.269 -1.1525 -0.9236 -0.3262
   22bbb     C5  554   4.366   6.779   2.264 -0.7682 -0.1019 -0.1934
   22bbb     H9  555   4.369   6.802   2.372 -0.4534 -0.4220 -0.1322
   22bbb    H10  556   4.419   6.686   2.240  1.3531  0.8189  0.5951
   22bbb     C6  557   4.017   6.770   2.464  0.2095 -0.3161 -1.1917
   22bbb    H11  558   4.079   6.734   2.547 -0.2218  1.4004 -0.0745
   22bbb    H12  559   4.056   6.872   2.451 -0.1271  0.0453  0.3938
   22bbb     C7  560   4.435   6.887   2.185 -0.5528  0.0422 -0.3710
   22bbb     C8  561   3.871   6.782   2.509 -0.2790 -0.7145 -0.9594
   22bbb     O1  562   4.379   6.981   2.135 -0.0844 -0.2955  0.1033
   22bbb     O2  563   3.778   6.750   2.440 -0.2177 -0.9640 -0.1203
   22bbb     N4  564   4.297   6.447   2.461 -0.5640  0.0423 -0.6503
   22bbb    H21  565   4.385   6.436   2.412  0.1602  2.0146  0.1236
   23bbb     C1  566   4.383   7.340   2.593  0.6490  0.5531 -0.4442
   23bbb     H1  567   4.343   7.281   2.676  3.3498 -0.2603  0.3913
   23bbb     H2  568   4.320   7.311   2.508 -2.9367  0.0781  2.1702
   23bbb     C2  569   4.528   7.290   2.575  0.0190 -0.5478 -0.0628
   23bbb     H3  570   4.547   7.342   2.481 -0.6403  1.6173  0.9380
   23bbb     H4  571   4.592   7.324   2.657  0.5684  0.5662 -0.9327
   23bbb     N1  572   4.374   7.479   2.634 -0.5594  0.5488 -0.4067
   23bbb     C3  573   4.252   7.504   2.713  1.0593  0.2016 -0.5388
   23bbb     H5  574   4.253   7.437   2.800  2.2283  0.1387 -0.5888
   23bbb     H6  575   4.167   7.475   2.650 -0.2723 -3.3745  2.5035
   23bbb     C4  576   4.410   7.570   2.528 -0.5207 -0.3553 -0.3628
   23bbb     H7  577   4.423   7.512   2.436 -1.4627 -0.9122 -0.1652
   23bbb     H8  578   4.318   7.627   2.506 -1.8835 -2.1199  0.4865
   23bbb     C5  579   4.538   7.642   2.570  0.5442 -0.2029  0.7871
   23bbb     H9  580   4.512   7.704   2.657  0.0607  1.3837 -0.4226
   23bbb    H10  581   4.613   7.569   2.599  0.2759 -0.2478  1.3706
   23bbb     C6  582   4.239   7.648   2.756  1.0979 -0.1470  0.1349
   23bbb    H11  583   4.333   7.671   2.807 -0.2870  0.2550  2.6588
   23bbb    H12  584   4.230   7.716   2.670 -1.3561 -2.9754 -2.0541
   23bbb     C7  585   4.584   7.727   2.456 -0.1171  0.7020 -0.0986
   23bbb     C8  586   4.121   7.661   2.847  0.0169 -0.4148  0.4055
   23bbb     O1  587   4.552   7.844   2.437  0.5715 -0.1998  0.4406
   23bbb     O2  588   4.015   7.702   2.799  0.2440 -0.3112 -0.3962
   23bbb     N4  589   4.539   7.143   2.553 -0.0711 -0.0980  0.0355
   23bbb    H21  590   4.449   7.096   2.548 -0.0064 -0.2265  0.0869
   24bbb     C1  591   4.487   5.560   2.499  0.2049 -0.3588  0.8920
   24bbb     H1  592   4.531   5.461   2.512 -0.9143 -0.7948  1.5356
   24bbb     H2  593   4.384   5.557   2.537  0.1234  2.2396  1.0384
   24bbb     C2  594   4.498   5.576   2.347  0.3360 -0.6147  0.4209
   24bbb     H3  595   4.470   5.483   2.296 -3.3358  0.9734 -0.8506
   24bbb     H4  596   4.414   5.643   2.322  1.3535  0.2958 -0.7262
   24bbb     N1  597   4.564   5.657   2.571 -0.0821 -0.1964  0.5988
   24bbb     C3  598   4.568   5.625   2.715 -0.3675  0.0140  0.2128
   24bbb     H5  599   4.464   5.604   2.742 -0.2879 -0.0038  0.5187
   24bbb     H6  600   4.604   5.702   2.784 -0.4931 -1.0058  1.4678
   24bbb     C4  601   4.515   5.796   2.548 -0.1985  0.2727 -0.0719
   24bbb     H7  602   4.480   5.815   2.445  0.5179  0.6922 -0.2442
   24bbb     H8  603   4.439   5.819   2.623 -0.1875  0.3281 -0.0779
   24bbb     C5  604   4.623   5.900   2.584  0.1250 -0.3229  0.2411
   24bbb     H9  605   4.668   5.886   2.683 -0.0526  0.3241  0.4236
   24bbb    H10  606   4.708   5.895   2.515  0.8393 -0.8655  1.1462
   24bbb     C6  607   4.651   5.504   2.741  0.5265 -0.4115 -0.7757
   24bbb    H11  608   4.625   5.415   2.683 -2.2430 -0.5051  0.4572
   24bbb    H12  609   4.756   5.521   2.715  0.4740  1.4245  0.0342
   24bbb     C7  610   4.565   6.037   2.578  0.6256 -0.3013  0.0290
   24bbb     C8  611   4.647   5.466   2.882  0.3770  0.3919 -0.7223
   24bbb     O1  612   4.567   6.105   2.480 -0.2569 -0.2532 -0.4918
   24bbb     O2  613   4.555   5.402   2.929  0.5936 -0.4644 -0.0111
   24bbb     N4  614   4.624   5.648   2.299  0.5053 -0.0172 -0.5789
   24bbb    H21  615   4.707   5.641   2.356 -0.4651 -0.5515  0.8367
   25bbb     C1  616   5.185   6.095   1.444 -0.6052 -0.6317 -0.0785
   25bbb     H1  617   5.091   6.145   1.419 -1.0501 -1.0673  0.6733
   25bbb     H2  618   5.181   5.993   1.405  1.0794 -1.3475  1.4424
   25bbb     C2  619   5.175   6.077   1.595 -0.0663 -0.2540  0.1240
   25bbb     H3  620   5.273   6.032   1.616  0.5747  0.0640 -1.9563
   25bbb     H4  621   5.176   6.173   1.647  1.8298 -0.3849  0.4038
   25bbb     N1  622   5.298   6.170   1.395  0.2271 -0.1359 -1.0647
   25bbb     C3  623   5.292   6.312   1.433 -0.3553 -0.0028  0.1425
   25bbb     H5  624   5.253   6.330   1.534  2.9897 -0.6867  1.6843
   25bbb     H6  625   5.226   6.367   1.364 -1.7420 -1.4758  0.2392
   25bbb     C4  626   5.321   6.143   1.251  0.2100 -0.1003 -0.1306
   25bbb     H7  627   5.224   6.139   1.199 -0.3459  1.3384  0.7315
   25bbb     H8  628   5.382   6.225   1.213  0.3019  2.0605  4.0558
   25bbb     C5  629   5.393   6.011   1.240 -0.0268  0.4618  0.6538
   25bbb     H9  630   5.343   5.926   1.288  0.9469 -0.4167  0.1539
   25bbb    H10  631   5.396   5.989   1.133 -1.3484 -0.6309  0.8172
   25bbb     C6  632   5.436   6.361   1.438 -0.4667  0.2118 -0.1361
   25bbb    H11  633   5.487   6.295   1.509 -1.9411 -0.8561 -0.0087
   25bbb    H12  634   5.498   6.348   1.349  1.2543  1.3563  0.8341
   25bbb     C7  635   5.529   6.023   1.300 -0.1953 -0.1975  0.1681
   25bbb     C8  636   5.449   6.500   1.485 -0.5125 -0.6551 -0.2055
   25bbb     O1  637   5.605   6.114   1.264  0.3840  0.3797  0.0991
   25bbb     O2  638   5.373   6.579   1.536  0.7024 -0.4158  0.2474
   25bbb     N4  639   5.061   5.996   1.641  0.2968  0.0028 -0.4941
   25bbb    H21  640   4.967   6.022   1.614 -0.4354 -0.2178  1.6856
   26bbb     C1  641   5.487   7.191   4.702 -0.6792 -0.1630  0.3512
   26bbb     H1  642   5.542   7.243   4.622 -0.9738  0.7934  0.7538
   26bbb     H2  643   5.548   7.192   4.793  1.2267 -0.6462 -0.8641
   26bbb     C2  644   5.472   7.040   4.670  0.1553  0.1685 -0.7208
   26bbb     H3  645   5.569   6.997   4.643  0.7943  0.9391  0.2658
   26bbb     H4  646   5.444   6.985   4.761  1.7038 -1.0001 -0.9242
   26bbb     N1  647   5.357   7.260   4.725  0.3387 -0.7843  0.2468
   26bbb     C3  648   5.371   7.369   4.823 -0.6531  0.6003  0.0252
   26bbb     H5  649   5.286   7.439   4.824  0.0984  1.5409 -0.3910
   26bbb     H6  650   5.466   7.420   4.806  0.7486 -2.0231 -0.6482
   26bbb     C4  651   5.301   7.315   4.597  0.7773 -0.5008  0.2358
   26bbb     H7  652   5.350   7.407   4.563 -0.3325  0.4367  1.0813
   26bbb     H8  653   5.319   7.244   4.516 -0.3237  0.8900 -1.2972
   26bbb     C5  654   5.153   7.359   4.609 -0.5159  0.0491 -0.6533
   26bbb     H9  655   5.092   7.285   4.663  0.9145 -0.2194  0.6950
   26bbb    H10  656   5.142   7.444   4.677 -0.1210 -0.5211  0.1443
   26bbb     C6  657   5.365   7.308   4.965 -0.3403  0.1771  0.1104
   26bbb    H11  658   5.262   7.278   4.990 -1.1000  0.7324 -2.1355
   26bbb    H12  659   5.423   7.215   4.971 -1.8751 -0.7525  1.6141
   26bbb     C7  660   5.091   7.385   4.472 -0.1784  0.2014 -0.3336
   26bbb     C8  661   5.410   7.406   5.063  0.8595 -0.6087  0.0356
   26bbb     O1  662   5.156   7.403   4.365 -0.3117 -0.3738 -0.1251
   26bbb     O2  663   5.343   7.510   5.075 -0.0130 -0.1372  0.3177
   26bbb     N4  664   5.379   7.004   4.556  0.5107  1.0808 -0.1501
   26bbb    H21  665   5.408   7.012   4.460  0.5737 -2.4941 -0.5600
   27bbb     C1  666   4.548   6.543   4.003  0.6526  0.1117  0.0449
   27bbb     H1  667   4.536   6.468   4.082 -0.5338  1.6417  1.3527
   27bbb     H2  668   4.558   6.485   3.910 -1.4977 -0.1509 -0.0565
   27bbb     C2  669   4.682   6.604   4.041  0.2166  0.2337 -0.2220
   27bbb     H3  670   4.756   6.523   4.036 -1.3248 -1.3849  1.5091
   27bbb     H4  671   4.712   6.692   3.983 -1.8345  0.3309 -1.2241
   27bbb     N1  672   4.439   6.635   3.996  0.7130  0.1367 -0.2142
   27bbb     C3  673   4.312   6.562   3.989  0.0732 -0.3409 -0.6470
   27bbb     H5  674   4.299   6.508   3.895  0.3781 -0.2934 -0.7182
   27bbb     H6  675   4.231   6.635   3.999 -0.1912 -0.2902 -2.7292
   27bbb     C4  676   4.449   6.729   3.891 -0.0712 -0.0538 -0.2251
   27bbb     H7  677   4.553   6.748   3.863 -0.2946 -0.7565 -1.5895
   27bbb     H8  678   4.386   6.719   3.802 -0.4244 -1.8079  0.1944
   27bbb     C5  679   4.412   6.859   3.959 -0.6696  0.0637 -0.3813
   27bbb     H9  680   4.318   6.855   4.017  0.3205  2.6470  1.6129
   27bbb    H10  681   4.491   6.903   4.021 -1.5184  3.1424 -1.2864
   27bbb     C6  682   4.292   6.473   4.115 -1.1146  0.1361 -0.1630
   27bbb    H11  683   4.337   6.376   4.091  1.3148  1.1250  0.1289
   27bbb    H12  684   4.341   6.514   4.204 -0.1288  0.5876 -0.8949
   27bbb     C7  685   4.395   6.977   3.866 -0.7445 -0.2127  0.8283
   27bbb     C8  686   4.150   6.450   4.140  0.5503  0.6408  1.2210
   27bbb     O1  687   4.464   6.997   3.765  0.0365  0.5532  0.0438
   27bbb     O2  688   4.083   6.515   4.216  0.7419  0.0449 -0.6571
   27bbb     N4  689   4.695   6.651   4.184 -0.2858 -0.0281  0.1063
   27bbb    H21  690   4.617   6.676   4.244  0.2719 -0.3623  0.9886
   28bbb     C1  691   4.991   6.169   4.432  0.3597  0.0023  0.0001
   28bbb     H1  692   5.011   6.072   4.480  1.1630  0.4354  0.5410
   28bbb     H2  693   4.946   6.143   4.335  0.4786 -0.3910  0.0498
   28bbb     C2  694   5.121   6.252   4.408 -0.3848 -0.4121 -0.9181
   28bbb     H3  695   5.083   6.347   4.368  1.2856  0.5160 -0.3773
   28bbb     H4  696   5.164   6.269   4.508  0.8063 -2.9311 -0.9268
   28bbb     N1  697   4.905   6.249   4.513  0.0386 -0.4389 -0.3008
   28bbb     C3  698   4.916   6.220   4.655  0.3288 -0.6689  0.4735
   28bbb     H5  699   5.021   6.200   4.679  1.1846  2.5913 -0.1670
   28bbb     H6  700   4.850   6.135   4.679 -0.9689  0.0017 -0.5868
   28bbb     C4  701   4.765   6.257   4.475  0.4451 -0.0341  0.1893
   28bbb     H7  702   4.706   6.164   4.478  0.9237 -0.3635 -0.4406
   28bbb     H8  703   4.723   6.331   4.544 -1.5278 -0.2841 -0.6839
   28bbb     C5  704   4.752   6.335   4.343 -0.2713 -0.5608 -0.0022
   28bbb     H9  705   4.661   6.396   4.343  1.0843  1.6200  2.1479
   28bbb    H10  706   4.834   6.406   4.331 -1.6311  1.2469  0.8734
   28bbb     C6  707   4.898   6.348   4.740  0.0680  0.4550  0.0766
   28bbb    H11  708   4.790   6.363   4.743  0.0235  0.4280 -1.0546
   28bbb    H12  709   4.936   6.339   4.843 -0.9904  0.3920  0.4765
   28bbb     C7  710   4.735   6.240   4.230  0.2725 -0.0481  0.1481
   28bbb     C8  711   4.958   6.470   4.684  0.1395 -0.5474 -1.1373
   28bbb     O1  712   4.662   6.139   4.239 -0.3055 -0.1446  0.0816
   28bbb     O2  713   4.886   6.570   4.675  0.6793 -0.3382 -0.2378
   28bbb     N4  714   5.228   6.189   4.335 -0.2098 -0.1689  0.0771
   28bbb    H21  715   5.228   6.187   4.233  1.3214  1.6183 -0.0012
   29bbb     C1  716   5.447   6.896   4.170  0.1005 -0.7788 -0.2999
   29bbb     H1  717   5.340   6.880   4.158 -0.3377  1.0006  0.7696
   29bbb     H2  718   5.504   6.872   4.079 -0.9813  0.0783 -1.2346
   29bbb     C2  719   5.491   6.807   4.283 -0.1431 -0.7062  0.1989
   29bbb     H3  720   5.601   6.805   4.283 -0.0276  1.8546  1.5330
   29bbb     H4  721   5.450   6.845   4.377 -1.2767 -3.3296  0.8501
   29bbb     N1  722   5.464   7.046   4.188  0.8314  0.0707  0.0207
   29bbb     C3  723   5.603   7.084   4.216  0.5496  0.1598 -0.1364
   29bbb     H5  724   5.654   7.109   4.122  1.5779  2.1254  0.8742
   29bbb     H6  725   5.653   7.003   4.270 -0.7617  1.1243  2.7095
   29bbb     C4  726   5.401   7.121   4.075 -0.7351  0.1145  0.0517
   29bbb     H7  727   5.458   7.213   4.059 -2.3472  1.4295  1.5195
   29bbb     H8  728   5.399   7.052   3.989  2.0547 -1.3865  1.0643
   29bbb     C5  729   5.260   7.166   4.116 -0.1008  1.0328 -0.9713
   29bbb     H9  730   5.196   7.076   4.119 -0.7558  1.4961  0.9627
   29bbb    H10  731   5.256   7.196   4.222  2.8701 -2.1617  0.2599
   29bbb     C6  732   5.607   7.207   4.305  0.7876 -0.3551 -0.8188
   29bbb    H11  733   5.565   7.293   4.252  2.1524  0.8015 -0.1046
   29bbb    H12  734   5.553   7.180   4.397 -1.2361  1.5632 -1.3631
   29bbb     C7  735   5.203   7.271   4.028 -0.0874  0.4760  0.3878
   29bbb     C8  736   5.745   7.235   4.348 -0.4400 -0.0545 -0.1262
   29bbb     O1  737   5.192   7.262   3.907 -0.1876 -0.4925 -0.6044
   29bbb     O2  738   5.813   7.302   4.272  0.3588 -0.0319 -0.1949
   29bbb     N4  739   5.439   6.674   4.259  0.6463  0.5411 -0.2993
   29bbb    H21  740   5.342   6.655   4.279  0.5755 -2.9069 -2.9379
   30ccc     N1  741   5.055   4.620   2.351 -0.5192 -0.3828 -0.5528
   30ccc     H4  742   5.095   4.576   2.270 -2.4361 -1.2051 -1.1048
   30ccc     C3  743   5.143   4.616   2.473 -0.0275 -0.9561  0.0826
   30ccc     H5  744   5.201   4.709   2.486 -0.1060 -0.9041  0.0600
   30ccc     C4  745   5.245   4.503   2.461  0.7730 -0.4409  0.2417
   30ccc     H6  746   5.083   4.597   2.563 -0.5385 -1.2364 -0.3131
   30ccc     H7  747   5.185   4.411   2.456 -0.6085  0.4285  0.1781
   30ccc     H8  748   5.296   4.508   2.557  0.9820  0.8626  0.0796
   30ccc     N2  749   5.347   4.507   2.354 -0.0714 -0.0476  0.2656
   30ccc     C5  750   5.433   4.384   2.351  0.3658  0.2808 -0.2674
   30ccc     C6  751   5.428   4.641   2.349  0.4779  0.3460  0.2466
   30ccc     H9  752   5.491   4.643   2.259 -0.1351  2.5653 -0.1918
   30ccc     C7  753   5.511   4.657   2.479  0.4411  0.7197  0.0763
   30ccc    H10  754   5.357   4.724   2.340 -1.6523 -1.2949  1.1085
   30ccc    H11  755   5.563   4.568   2.515 -0.4504  0.7885  1.6316
   30ccc    H12  756   5.447   4.682   2.565  1.2844  1.2012  0.5735
   30ccc     C8  757   5.610   4.774   2.476  0.5266 -0.8698 -0.2046
   30ccc     O2  758   5.701   4.775   2.553  0.7106  0.7822 -0.0445
   30ccc     O3  759   5.591   4.877   2.412 -0.1395 -0.0700  0.9855
   30ccc    H13  760   5.363   4.308   2.314 -0.4584  1.0134 -0.2550
   30ccc    H14  761   5.467   4.351   2.450 -3.9484  1.5398  1.8997
   30ccc     C9  762   5.549   4.391   2.252 -0.0766  0.4552  0.3416
   30ccc    H15  763   5.624   4.458   2.295  1.3113 -0.1970 -0.9672
   30ccc    H16  764   5.512   4.435   2.158  0.7201 -0.1027 -0.2444
   30ccc    C10  765   5.610   4.250   2.226 -0.4112  0.0256  0.4624
   30ccc     O4  766   5.549   4.147   2.248 -0.2530 -0.0703 -0.5376
   30ccc     O5  767   5.731   4.239   2.196 -0.1580  0.2636 -0.7910
   31ccc     N1  768   4.864   4.688   1.891  0.1043 -0.0987  0.6478
   31ccc     H4  769   4.783   4.721   1.942  0.8426  1.1783  1.0250
   31ccc     C3  770   4.966   4.775   1.847 -0.6571  0.3352  0.2315
   31ccc     H5  771   5.060   4.720   1.860  0.1456  1.2524 -1.4205
   31ccc     C4  772   4.965   4.916   1.927 -0.6849 -0.2868  0.0071
   31ccc     H6  773   4.960   4.797   1.740 -0.5561  1.2155  0.3971
   31ccc     H7  774   4.957   4.902   2.035  0.1035 -3.1939 -0.2354
   31ccc     H8  775   4.871   4.963   1.895 -0.5194  0.0196 -0.0332
   31ccc     N2  776   5.080   5.010   1.908  0.5102  0.0095  0.5369
   31ccc     C5  777   5.066   5.156   1.936  0.4478 -0.6763  0.1789
   31ccc     C6  778   5.208   4.943   1.961 -0.0293 -0.1158  0.4154
   31ccc     H9  779   5.207   4.837   1.933  1.2762 -0.2694  0.8566
   31ccc     C7  780   5.233   4.944   2.109 -1.1059  0.3750  0.3749
   31ccc    H10  781   5.292   4.976   1.898 -2.3914  0.8246 -2.4629
   31ccc    H11  782   5.182   4.860   2.157 -2.0381  1.7676  1.8936
   31ccc    H12  783   5.181   5.032   2.147 -0.8270  0.6352  0.1573
   31ccc     C8  784   5.383   4.954   2.142 -0.4405  0.6334  0.2406
   31ccc     O2  785   5.418   5.038   2.223  0.1468 -0.1282 -0.6892
   31ccc     O3  786   5.471   4.873   2.108  0.2679 -0.0623 -0.2012
   31ccc    H13  787   5.058   5.172   2.044 -1.7887 -1.5504  0.1949
   31ccc    H14  788   4.968   5.179   1.893 -0.2086 -0.2540  1.8478
   31ccc     C9  789   5.184   5.246   1.884 -0.0115  0.0039  0.7891
   31ccc    H15  790   5.143   5.341   1.847 -0.5804 -1.1644 -1.8610
   31ccc    H16  791   5.229   5.205   1.793 -1.5478 -0.8546  0.3701
   31ccc    C10  792   5.295   5.274   1.989  0.6522 -0.0821  0.2665
   31ccc     O4  793   5.257   5.307   2.098 -0.3494 -0.5312 -0.3151
   31ccc     O5  794   5.409   5.237   1.976  0.1799  0.0200 -0.9751
   32ccc     N1  795   4.590   5.137   3.102 -0.2794  0.2672 -0.0119
   32ccc     H4  796   4.562   5.171   3.010 -1.7077 -1.5127 -0.3107
   32ccc     C3  797   4.493   5.148   3.210  0.1890 -0.1801 -0.4932
   32ccc     H5  798   4.393   5.118   3.177 -0.2642  0.8692 -0.1258
   32ccc     C4  799   4.484   5.294   3.264  0.2863  0.1337  0.7655
   32ccc     H6  800   4.525   5.073   3.283  1.9619 -2.0739 -3.0425
   32ccc     H7  801   4.478   5.361   3.178 -2.6367 -3.0566 -1.8104
   32ccc     H8  802   4.586   5.305   3.302 -0.0049  1.2465  1.2577
   32ccc     N2  803   4.370   5.322   3.368  0.1779  0.2923 -0.0064
   32ccc     C5  804   4.381   5.450   3.443 -0.0469  0.5578  0.0737
   32ccc     C6  805   4.333   5.206   3.447 -0.3395  0.3947 -0.0286
   32ccc     H9  806   4.235   5.222   3.493  0.5450  0.8118  1.7895
   32ccc     C7  807   4.434   5.174   3.562 -0.3065  0.7757 -0.0406
   32ccc    H10  808   4.315   5.118   3.384  0.6098  0.8183 -0.9149
   32ccc    H11  809   4.445   5.257   3.632 -0.4168 -1.4809  2.8238
   32ccc    H12  810   4.529   5.141   3.520  0.1691  2.9186 -0.7995
   32ccc     C8  811   4.393   5.058   3.662  0.3574 -0.4929  0.2579
   32ccc     O2  812   4.438   4.945   3.642  1.1474  0.3688 -0.0302
   32ccc     O3  813   4.324   5.084   3.760  0.4332 -0.5553 -0.2504
   32ccc    H13  814   4.400   5.529   3.370  0.2243  0.8210  0.4232
   32ccc    H14  815   4.472   5.430   3.501  0.2198  0.8390 -0.2436
   32ccc     C9  816   4.271   5.496   3.536  0.3192  0.2745 -0.6412
   32ccc    H15  817   4.240   5.424   3.613 -0.3765  1.7197  0.4986
   32ccc    H16  818   4.184   5.528   3.477  0.3214 -0.6720 -1.1684
   32ccc    C10  819   4.318   5.624   3.608 -0.1603 -0.2362 -0.4627
   32ccc     O4  820   4.362   5.620   3.725  0.4508 -0.2830  0.7211
   32ccc     O5  821   4.284   5.737   3.566 -0.1266 -0.0534 -0.3376
   33ccc     N1  822   5.226   5.471   2.781  0.0670  0.4639  0.4159
   33ccc     H4  823   5.276   5.392   2.744 -1.7788 -1.2810  1.4522
   33ccc     C3  824   5.297   5.589   2.828  0.1253  0.0353 -0.2055
   33ccc     H5  825   5.236   5.680   2.817  1.6728  1.0612 -0.7271
   33ccc     C4  826   5.429   5.604   2.751 -0.1847  0.2825 -0.0925
   33ccc     H6  827   5.321   5.575   2.934  3.1492  2.3460 -0.4287
   33ccc     H7  828   5.501   5.671   2.800  0.6384 -1.4125  1.1359
   33ccc     H8  829   5.392   5.648   2.658 -2.3184 -0.9501  0.1080
   33ccc     N2  830   5.500   5.479   2.717 -0.1897  0.7737 -0.2871
   33ccc     C5  831   5.594   5.420   2.822 -0.0275 -0.3168 -0.5207
   33ccc     C6  832   5.566   5.496   2.587  0.5432  0.0675  0.4447
   33ccc     H9  833   5.489   5.530   2.516  0.2963 -2.6327 -0.7094
   33ccc     C7  834   5.611   5.368   2.509 -0.9019 -0.2546 -0.4732
   33ccc    H10  835   5.643   5.574   2.584 -0.0373  0.6485  0.3782
   33ccc    H11  836   5.701   5.327   2.556 -2.0627 -1.5776  0.7310
   33ccc    H12  837   5.647   5.401   2.411  0.9195  0.5732  0.4391
   33ccc     C8  838   5.517   5.248   2.499  0.0826 -0.6785  1.1069
   33ccc     O2  839   5.517   5.152   2.573  0.0021  0.2386  0.2601
   33ccc     O3  840   5.460   5.240   2.393 -0.2233  0.0310 -0.5770
   33ccc    H13  841   5.659   5.496   2.867 -0.3708  0.2121 -0.9061
   33ccc    H14  842   5.646   5.333   2.781  1.4820  1.0112 -1.5035
   33ccc     C9  843   5.508   5.361   2.940 -0.5206 -0.3964  0.0245
   33ccc    H15  844   5.413   5.319   2.906 -1.1697  0.9809  0.0440
   33ccc    H16  845   5.478   5.440   3.010 -1.4414  0.4225 -1.2409
   33ccc    C10  846   5.573   5.232   3.002 -0.5077  0.3144  0.5449
   33ccc     O4  847   5.634   5.235   3.104  0.4290 -0.0771  0.1168
   33ccc     O5  848   5.584   5.132   2.933  0.2175 -0.2709 -0.0457
   34ccc     N1  849   5.930   7.064   2.456 -0.4899  0.3320  0.5402
   34ccc     H4  850   5.876   7.137   2.502 -1.0824  0.4545 -0.3119
   34ccc     C3  851   6.060   7.110   2.388 -0.5043 -0.2163 -0.4260
   34ccc     H5  852   6.134   7.140   2.463  0.1217  3.3663 -2.2971
   34ccc     C4  853   6.031   7.229   2.294  0.5857 -0.0922 -0.1769
   34ccc     H6  854   6.103   7.025   2.334 -1.1847 -0.4159 -0.6650
   34ccc     H7  855   6.126   7.263   2.251  1.6797 -0.4562  1.8547
   34ccc     H8  856   5.987   7.307   2.357  0.3887 -1.7637  1.8715
   34ccc     N2  857   5.936   7.194   2.179  0.0893 -0.0774  0.3542
   34ccc     C5  858   5.793   7.209   2.209 -0.0854  0.4904 -0.9154
   34ccc     C6  859   5.978   7.087   2.087  0.3183  0.6821  0.6022
   34ccc     H9  860   6.005   6.994   2.138 -0.8482 -0.1029 -0.1437
   34ccc     C7  861   6.093   7.122   1.996  0.4043  0.3199 -0.3439
   34ccc    H10  862   5.903   7.050   2.016  3.4134  0.6285 -2.9208
   34ccc    H11  863   6.177   7.145   2.063  1.0478 -0.0065 -1.0212
   34ccc    H12  864   6.073   7.208   1.930 -0.1332 -0.4104 -1.1555
   34ccc     C8  865   6.135   7.002   1.905  0.3889 -0.1131  0.0260
   34ccc     O2  866   6.194   7.026   1.802 -0.0506  0.1617 -0.2333
   34ccc     O3  867   6.147   6.890   1.942  0.4694  0.2196  0.7112
   34ccc    H13  868   5.764   7.296   2.268 -2.1524 -1.0196  0.4324
   34ccc    H14  869   5.744   7.132   2.270  1.5636 -0.5666 -0.8685
   34ccc     C9  870   5.707   7.228   2.080 -0.0525 -0.0403 -0.2299
   34ccc    H15  871   5.672   7.132   2.040 -0.6946 -0.4567  1.2466
   34ccc    H16  872   5.759   7.283   2.000  1.8344  0.2521  1.1247
   34ccc    C10  873   5.574   7.296   2.109 -0.0725  1.0064 -0.7086
   34ccc     O4  874   5.561   7.409   2.146 -0.2873 -0.0809 -0.6988
   34ccc     O5  875   5.473   7.227   2.116 -0.3880 -0.3488 -0.4967
   35ccc     N1  876   5.247   6.722   2.956 -0.1131 -0.7386 -0.0428
   35ccc     H4  877   5.207   6.655   2.891  1.1070  0.0029 -1.6368
   35ccc     C3  878   5.214   6.714   3.101 -0.3834 -0.5046  0.1591
   35ccc     H5  879   5.253   6.620   3.141  1.7560  0.8215  1.3662
   35ccc     C4  880   5.062   6.714   3.119  0.1215  0.0366 -0.4849
   35ccc     H6  881   5.267   6.794   3.154  0.7915 -1.0050 -0.2390
   35ccc     H7  882   5.032   6.613   3.088  1.0035 -0.8013  1.2294
   35ccc     H8  883   5.023   6.786   3.047 -0.8726  0.3423  0.3328
   35ccc     N2  884   5.002   6.747   3.252 -0.3446  0.0425 -0.2019
   35ccc     C5  885   4.849   6.743   3.255 -0.4784 -0.4639  0.5662
   35ccc     C6  886   5.059   6.863   3.325  0.0844  0.6205 -0.2838
   35ccc     H9  887   5.018   6.861   3.427 -0.3635  2.7985 -0.3637
   35ccc     C7  888   5.020   6.998   3.260 -0.4186 -0.2683 -0.4390
   35ccc    H10  889   5.167   6.851   3.340 -0.3177  0.1116  2.8289
   35ccc    H11  890   4.938   6.997   3.188  0.9421 -0.3213 -2.0360
   35ccc    H12  891   5.102   7.026   3.193 -2.2925  2.1038 -1.9006
   35ccc     C8  892   5.000   7.109   3.371  0.2874  0.7116  1.0719
   35ccc     O2  893   4.889   7.162   3.386 -0.3118  0.0898 -0.4441
   35ccc     O3  894   5.089   7.143   3.444 -0.0557 -0.2337 -0.7909
   35ccc    H13  895   4.818   6.646   3.213 -2.5012 -0.4261  1.8502
   35ccc    H14  896   4.824   6.821   3.182  2.5756 -1.1843 -1.4447
   35ccc     C9  897   4.772   6.765   3.385 -0.4755  0.1825  0.3769
   35ccc    H15  898   4.788   6.865   3.427 -0.7618  2.1953 -3.7653
   35ccc    H16  899   4.795   6.684   3.455 -1.6678  0.4836  1.1391
   35ccc    C10  900   4.621   6.771   3.369  0.2046  0.6853  0.0017
   35ccc     O4  901   4.555   6.670   3.363  0.3823  0.0440 -0.0541
   35ccc     O5  902   4.554   6.873   3.380  0.1580  0.6448 -0.3090
   36ccc     N1  903   6.086   5.669   2.207 -0.2316 -0.2896 -0.5139
   36ccc     H4  904   6.093   5.674   2.106  1.7221 -0.0376 -0.3968
   36ccc     C3  905   6.084   5.540   2.272 -0.3210  0.3210 -0.5808
   36ccc     H5  906   6.148   5.537   2.361  0.3416  0.1088 -1.0590
   36ccc     C4  907   6.121   5.423   2.180  0.0706  0.0935  1.0947
   36ccc     H6  908   5.983   5.511   2.307  0.2697 -1.9536 -0.5750
   36ccc     H7  909   6.221   5.436   2.138  0.2827 -1.9622  0.8538
   36ccc     H8  910   6.064   5.438   2.087 -0.2016 -1.8101  0.9069
   36ccc     N2  911   6.119   5.289   2.224  0.8536  0.4094 -0.5907
   36ccc     C5  912   6.214   5.254   2.338  0.1381  0.0049 -0.4527
   36ccc     C6  913   5.987   5.241   2.259  0.2783 -0.0365  0.0128
   36ccc     H9  914   6.004   5.138   2.292  0.6053 -0.2410 -0.7830
   36ccc     C7  915   5.870   5.245   2.160  0.0140  0.0005 -0.2263
   36ccc    H10  916   5.958   5.286   2.355  1.8784  1.6897 -0.2694
   36ccc    H11  917   5.908   5.215   2.061  0.1188  1.6108 -0.6906
   36ccc    H12  918   5.839   5.349   2.151  0.5899  0.4728  2.5099
   36ccc     C8  919   5.752   5.162   2.207 -1.2509 -0.2539 -0.2428
   36ccc     O2  920   5.657   5.152   2.128 -0.2030 -0.1689  0.2898
   36ccc     O3  921   5.759   5.080   2.299  0.1412  0.0340  0.1846
   36ccc    H13  922   6.195   5.149   2.364 -1.9783 -0.2541 -2.6602
   36ccc    H14  923   6.180   5.315   2.421  2.5182 -0.9483  1.3385
   36ccc     C9  924   6.365   5.282   2.314  0.2353 -0.3665  0.3610
   36ccc    H15  925   6.380   5.364   2.243 -2.6308 -0.1830 -0.1583
   36ccc    H16  926   6.401   5.191   2.265  1.2042 -0.6347  1.5177
   36ccc    C10  927   6.443   5.294   2.443  0.6240 -0.5058  0.7022
   36ccc     O4  928   6.483   5.198   2.504 -0.3952 -0.0799 -0.0488
   36ccc     O5  929   6.471   5.407   2.481 -0.3395  0.3287  0.4312
   37ccc     N1  930   5.922   6.154   2.463 -0.4076 -0.6994 -0.1808
   37ccc     H4  931   5.908   6.059   2.430 -2.3331 -0.1257 -1.1840
   37ccc     C3  932   6.013   6.178   2.573 -1.1174  0.2426 -0.1644
   37ccc     H5  933   6.068   6.272   2.584  1.8793 -1.4686  0.4205
   37ccc     C4  934   6.120   6.067   2.565  0.0101  0.5404 -0.0556
   37ccc     H6  935   5.951   6.178   2.664 -2.3250  0.3131 -0.9582
   37ccc     H7  936   6.156   6.049   2.463 -0.2003 -0.2302 -0.0045
   37ccc     H8  937   6.065   5.972   2.565 -0.1793  0.6102  1.7123
   37ccc     N2  938   6.230   6.067   2.665  0.3881 -0.0630  0.2058
   37ccc     C5  939   6.303   6.196   2.672 -0.3398 -0.9207 -0.0690
   37ccc     C6  940   6.307   5.944   2.657 -0.7951 -0.2675  0.2224
   37ccc     H9  941   6.352   5.928   2.558 -0.2494 -0.6974  0.5321
   37ccc     C7  942   6.239   5.813   2.700  0.3110 -0.1125  0.0361
   37ccc    H10  943   6.388   5.964   2.729 -0.5550 -0.6351  0.0555
   37ccc    H11  944   6.181   5.786   2.611 -0.2698  1.7144 -0.1729
   37ccc    H12  945   6.168   5.827   2.782 -1.1158  0.7222 -1.2981
   37ccc     C8  946   6.337   5.702   2.740 -0.4505 -0.4868  0.1299
   37ccc     O2  947   6.400   5.643   2.655 -0.0463  0.2392 -0.2469
   37ccc     O3  948   6.353   5.679   2.858  0.3533 -0.0163 -0.5031
   37ccc    H13  949   6.385   6.195   2.746  0.2150 -0.4960 -0.6630
   37ccc    H14  950   6.237   6.280   2.697 -0.6056 -1.5564  1.4538
   37ccc     C9  951   6.370   6.237   2.534  0.0180 -0.3955 -0.1972
   37ccc    H15  952   6.290   6.252   2.461 -1.8093 -1.6115  1.4330
   37ccc    H16  953   6.433   6.161   2.486 -2.7530 -1.6702 -2.1034
   37ccc    C10  954   6.450   6.371   2.540 -0.9418  0.1856  0.4484
   37ccc     O4  955   6.560   6.373   2.484 -0.5751 -0.3664  0.0761
   37ccc     O5  956   6.453   6.449   2.628  0.3385  0.2211  0.1636
   38ccc     N1  957   6.260   5.895   3.423  0.1694  0.7534  0.0873
   38ccc     H4  958   6.339   5.844   3.385  1.2424  3.0295 -0.9436
   38ccc     C3  959   6.141   5.816   3.461  0.2364 -0.0278 -0.1271
   38ccc     H5  960   6.158   5.793   3.567  1.3226 -2.1782 -0.7148
   38ccc     C4  961   6.135   5.684   3.381 -0.0831 -0.5268 -0.2349
   38ccc     H6  962   6.052   5.878   3.444  0.5237  0.1488 -1.0490
   38ccc     H7  963   6.234   5.639   3.369 -0.0660 -0.9083  1.0967
   38ccc     H8  964   6.103   5.714   3.281  0.9823 -0.6844 -0.6319
   38ccc     N2  965   6.035   5.587   3.441  0.4052  0.3608  0.0154
   38ccc     C5  966   6.084   5.510   3.560 -0.4626  0.4713  0.1779
   38ccc     C6  967   5.900   5.644   3.468  0.6466 -0.1649  0.2173
   38ccc     H9  968   5.831   5.578   3.521 -0.8269  2.9530  2.5103
   38ccc     C7  969   5.828   5.698   3.343 -0.0970  0.0530 -0.0836
   38ccc    H10  970   5.899   5.726   3.541  1.0988  1.7833 -1.8382
   38ccc    H11  971   5.832   5.625   3.262  1.3515 -1.2104  1.0644
   38ccc    H12  972   5.882   5.789   3.312 -0.8131  0.2490 -0.7871
   38ccc     C8  973   5.690   5.725   3.378  0.5155 -0.2429 -0.9212
   38ccc     O2  974   5.644   5.836   3.353  0.1758 -0.2810 -0.5968
   38ccc     O3  975   5.613   5.645   3.433 -0.6286  0.1499  0.3603
   38ccc    H13  976   6.012   5.437   3.599  0.5520 -2.4292 -2.9195
   38ccc    H14  977   6.110   5.582   3.638 -1.6176  0.9012  0.1808
   38ccc     C9  978   6.202   5.426   3.529 -0.5967 -0.0134  0.1673
   38ccc    H15  979   6.295   5.473   3.497 -0.2997  1.0328  2.3733
   38ccc    H16  980   6.170   5.352   3.454  1.5476 -1.9475  1.0339
   38ccc    C10  981   6.244   5.341   3.651 -0.5970 -0.4743  0.1325
   38ccc     O4  982   6.255   5.220   3.644  0.6509  0.2104  0.2488
   38ccc     O5  983   6.275   5.391   3.760 -0.1614  0.5796 -0.1333
   39ccc     N1  984   6.862   5.831   3.160 -0.3568 -0.2973 -0.2086
   39ccc     H4  985   6.811   5.911   3.125  0.7893  0.0034 -1.2821
   39ccc     C3  986   6.960   5.783   3.073 -0.0741  0.0501 -0.1223
   39ccc     H5  987   7.059   5.805   3.118  0.0738  0.9595 -0.8497
   39ccc     C4  988   6.964   5.854   2.934 -0.1986 -0.2875 -0.1420
   39ccc     H6  989   6.935   5.677   3.069 -2.1547  0.4446  0.9537
   39ccc     H7  990   7.037   5.799   2.872 -0.3904 -1.3710  0.5737
   39ccc     H8  991   7.012   5.952   2.946  0.9918 -0.5638 -2.1134
   39ccc     N2  992   6.839   5.865   2.860 -0.1801  0.5526 -0.5498
   39ccc     C5  993   6.765   5.740   2.826 -0.1513  0.0670 -0.6855
   39ccc     C6  994   6.850   5.968   2.751  0.5255 -0.3166  0.4528
   39ccc     H9  995   6.930   6.040   2.769 -0.3985  1.5074 -2.1952
   39ccc     C7  996   6.714   6.038   2.729  0.1497 -0.6410 -0.2332
   39ccc    H10  997   6.873   5.917   2.657  1.0704  0.3713  0.2069
   39ccc    H11  998   6.705   6.096   2.821 -1.4213 -1.4713  0.1699
   39ccc    H12  999   6.632   5.968   2.709 -0.0381 -0.5982  0.3734
   39ccc     C8 1000   6.727   6.130   2.608  0.1847  0.1414  0.5794
   39ccc     O2 1001   6.762   6.246   2.614 -0.3495  0.2972 -0.0562
   39ccc     O3 1002   6.714   6.086   2.496 -0.3704 -0.1327  0.5104
   39ccc    H13 1003   6.673   5.759   2.770  0.3523  1.1430 -1.1744
   39ccc    H14 1004   6.739   5.691   2.921 -0.4313  1.1082 -0.2045
   39ccc     C9 1005   6.840   5.642   2.734 -0.0535 -0.1172  0.3878
   39ccc    H15 1006   6.940   5.611   2.766 -0.1998 -3.0449 -1.6024
   39ccc    H16 1007   6.857   5.694   2.638 -3.2428  0.8579  0.2225
   39ccc    C10 1008   6.757   5.517   2.703  0.2281 -0.0399  0.3454
   39ccc     O4 1009   6.646   5.532   2.659 -0.2739 -0.0487 -0.1970
   39ccc     O5 1010   6.794   5.402   2.713  0.4435  0.6206  0.1954
   40ccc     N1 1011   5.936   5.688   2.781 -0.6055  0.1730  0.4421
   40ccc     H4 1012   6.031   5.694   2.816  0.2641 -2.5948 -1.1337
   40ccc     C3 1013   5.909   5.586   2.673  0.0999 -0.4396  0.1940
   40ccc     H5 1014   5.818   5.533   2.702 -1.0757  0.9897 -0.7291
   40ccc     C4 1015   6.037   5.503   2.649  0.1826 -0.4577 -0.2697
   40ccc     H6 1016   5.896   5.628   2.573  1.8726 -3.6948 -1.5727
   40ccc     H7 1017   6.119   5.572   2.627 -0.2116  0.2225  0.3578
   40ccc     H8 1018   6.012   5.444   2.560 -1.9822  0.9917 -0.7234
   40ccc     N2 1019   6.070   5.420   2.767  0.4756  0.4140  0.4545
   40ccc     C5 1020   5.970   5.317   2.790 -0.6106 -0.0886  0.9742
   40ccc     C6 1021   6.215   5.371   2.760  0.6979  0.1686 -0.0732
   40ccc     H9 1022   6.220   5.310   2.668 -0.3691  1.3474 -0.9427
   40ccc     C7 1023   6.275   5.291   2.880 -0.7382 -0.1026 -0.1492
   40ccc    H10 1024   6.279   5.460   2.747  2.5451 -0.8763  1.3589
   40ccc    H11 1025   6.215   5.203   2.907  0.9366 -0.5371  2.4987
   40ccc    H12 1026   6.266   5.344   2.975 -0.5957  1.4862 -0.9827
   40ccc     C8 1027   6.418   5.252   2.857 -0.0438  0.2927  0.3248
   40ccc     O2 1028   6.499   5.335   2.811 -0.2995  0.0097 -0.4050
   40ccc     O3 1029   6.443   5.136   2.832 -0.1114  0.1330 -0.0306
   40ccc    H13 1030   5.871   5.364   2.789 -0.1912  0.8132 -0.1124
   40ccc    H14 1031   5.982   5.279   2.893 -0.1642  1.4312  1.5068
   40ccc     C9 1032   5.984   5.187   2.693  0.7931 -1.0061 -0.3424
   40ccc    H15 1033   6.078   5.133   2.711  0.6904 -1.1939 -0.3570
   40ccc    H16 1034   5.984   5.220   2.589  2.7915  3.8477  0.9191
   40ccc    C10 1035   5.863   5.089   2.714 -0.4335  0.4193  0.4261
   40ccc     O4 1036   5.841   5.054   2.824 -0.0673 -0.2741 -0.7900
   40ccc     O5 1037   5.786   5.049   2.632  0.0848 -0.2751 -0.1964
   41ccc     N1 1038   5.938   6.123   3.518 -0.1220 -0.2644  0.0729
   41ccc     H4 1039   6.031   6.084   3.523 -0.1187 -0.2011  0.5815
   41ccc     C3 1040   5.851   6.131   3.641  0.0203 -0.8576  0.2603
   41ccc     H5 1041   5.858   6.236   3.671 -0.4139 -0.2558 -1.5960
   41ccc     C4 1042   5.905   6.037   3.748  0.0526  0.6728 -0.0492
   41ccc     H6 1043   5.747   6.103   3.620 -0.5571  3.0308 -3.3266
   41ccc     H7 1044   6.007   6.055   3.783  0.6227  1.6692 -2.0900
   41ccc     H8 1045   5.909   5.939   3.699 -0.7432  0.2238  0.7317
   41ccc     N2 1046   5.807   6.030   3.856 -0.2095 -0.2446  0.2746
   41ccc     C5 1047   5.674   5.971   3.823 -0.2753 -0.4849  0.4440
   41ccc     C6 1048   5.794   6.151   3.936  1.6453 -0.2073  0.3011
   41ccc     H9 1049   5.762   6.232   3.869 -1.2481 -1.8091 -0.3862
   41ccc     C7 1050   5.919   6.198   4.011 -0.2668 -0.0031 -0.1786
   41ccc    H10 1051   5.706   6.144   4.000 -1.2870  0.3819 -3.3508
   41ccc    H11 1052   5.999   6.235   3.946 -0.7881  0.7558 -0.4048
   41ccc    H12 1053   5.965   6.107   4.050  1.7524  1.1411  0.2803
   41ccc     C8 1054   5.874   6.296   4.118 -0.3549  0.9923 -0.1237
   41ccc     O2 1055   5.874   6.415   4.098  0.3305 -0.2597 -0.0162
   41ccc     O3 1056   5.834   6.246   4.224 -0.7743  0.2158  0.2311
   41ccc    H13 1057   5.612   6.049   3.776 -0.2460 -0.6794  0.0804
   41ccc    H14 1058   5.631   5.948   3.921 -1.2027 -2.3973 -0.3565
   41ccc     C9 1059   5.668   5.841   3.734 -0.3823  0.0562 -0.6203
   41ccc    H15 1060   5.695   5.746   3.781 -2.0338  0.1569  0.6540
   41ccc    H16 1061   5.715   5.859   3.637 -1.3267 -0.2601 -1.1537
   41ccc    C10 1062   5.525   5.805   3.696  0.5339  0.0058  0.4112
   41ccc     O4 1063   5.463   5.861   3.608 -0.3010 -0.2832  0.1822
   41ccc     O5 1064   5.462   5.726   3.760  0.4549 -0.3385 -0.9449
   42ccc     N1 1065   5.162   7.263   2.954 -0.5805 -0.4500  0.1781
   42ccc     H4 1066   5.098   7.252   2.876 -1.1041 -2.2078  0.8234
   42ccc     C3 1067   5.285   7.181   2.940  0.9967  0.2795  0.8332
   42ccc     H5 1068   5.304   7.109   3.021  1.9663 -0.8916 -0.3943
   42ccc     C4 1069   5.403   7.275   2.936  0.1255  0.7659 -0.4001
   42ccc     H6 1070   5.279   7.125   2.846 -0.6188 -0.8674  1.5764
   42ccc     H7 1071   5.418   7.304   3.041 -0.1995 -0.7849  0.0977
   42ccc     H8 1072   5.374   7.371   2.891  1.1704  0.5650 -1.5583
   42ccc     N2 1073   5.526   7.216   2.874  1.2676  0.1135 -0.0465
   42ccc     C5 1074   5.512   7.158   2.736 -0.3521 -0.0885  0.5782
   42ccc     C6 1075   5.599   7.132   2.971 -0.3690  0.1552 -0.1094
   42ccc     H9 1076   5.526   7.058   3.006 -0.3800 -0.5004 -1.4472
   42ccc     C7 1077   5.662   7.219   3.082 -0.5451  1.0428  0.1496
   42ccc    H10 1078   5.681   7.075   2.924 -0.6145  0.5084 -0.9809
   42ccc    H11 1079   5.580   7.272   3.133  1.3993  2.1632  2.2746
   42ccc    H12 1080   5.736   7.292   3.047  0.1348  0.3569  0.1322
   42ccc     C8 1081   5.734   7.135   3.186 -0.4639  0.5310  0.2281
   42ccc     O2 1082   5.741   7.013   3.188  0.2959  0.5591  0.5163
   42ccc     O3 1083   5.775   7.192   3.287 -0.4655  0.2615  0.5421
   42ccc    H13 1084   5.463   7.059   2.734  1.3635 -0.9675 -0.8048
   42ccc    H14 1085   5.615   7.140   2.703 -0.4974 -0.4270  0.3027
   42ccc     C9 1086   5.444   7.246   2.624 -0.2670 -0.9268  0.5774
   42ccc    H15 1087   5.510   7.332   2.608 -0.7859 -0.9162 -1.9027
   42ccc    H16 1088   5.348   7.292   2.650 -0.9712  0.1079 -3.2173
   42ccc    C10 1089   5.440   7.193   2.485 -0.0444  0.5992  0.0315
   42ccc     O4 1090   5.403   7.081   2.461 -0.7585 -0.2780  0.0046
   42ccc     O5 1091   5.470   7.258   2.393 -0.3253 -0.0432 -0.2615
   43ccc     N1 1092   4.485   7.305   2.995  0.6585 -0.1306  0.0936
   43ccc     H4 1093   4.545   7.240   2.946  1.2162  1.4458 -1.3752
   43ccc     C3 1094   4.353   7.242   3.040 -0.1652 -0.0753 -0.6091
   43ccc     H5 1095   4.370   7.194   3.137 -1.8520 -0.0959 -0.3073
   43ccc     C4 1096   4.309   7.137   2.936  0.6301  1.0070 -0.0200
   43ccc     H6 1097   4.276   7.319   3.049 -0.2908 -0.1739 -0.8256
   43ccc     H7 1098   4.400   7.076   2.926  0.3797  0.6277 -0.0163
   43ccc     H8 1099   4.285   7.183   2.840 -1.3469 -1.2728 -0.6956
   43ccc     N2 1100   4.189   7.055   2.970  0.0689 -0.7495  0.2402
   43ccc     C5 1101   4.057   7.132   2.963  0.0501  0.1458 -0.3221
   43ccc     C6 1102   4.201   6.966   3.087  0.0822  0.1310 -0.0184
   43ccc     H9 1103   4.298   6.916   3.073 -0.1518 -0.1423 -0.7460
   43ccc     C7 1104   4.081   6.871   3.112  0.2718 -0.0639  0.1888
   43ccc    H10 1105   4.216   7.035   3.171 -0.4126  0.7576 -0.4338
   43ccc    H11 1106   4.064   6.802   3.029  0.6406 -0.0151  0.0726
   43ccc    H12 1107   3.989   6.929   3.126 -1.4272 -2.1775 -1.5658
   43ccc     C8 1108   4.088   6.790   3.238 -0.9230  0.1029 -0.4417
   43ccc     O2 1109   4.200   6.753   3.280  0.0382  0.0705 -0.4613
   43ccc     O3 1110   3.994   6.746   3.305 -0.1063 -0.2318 -0.4773
   43ccc    H13 1111   4.046   7.177   3.062 -1.7606 -0.8065 -0.0531
   43ccc    H14 1112   3.969   7.067   2.958 -0.1555  0.4789 -1.0486
   43ccc     C9 1113   4.032   7.240   2.851  0.2534  0.0638 -0.4428
   43ccc    H15 1114   4.055   7.201   2.750 -2.3118 -1.7807 -0.4159
   43ccc    H16 1115   4.091   7.331   2.866  0.6675 -0.4669  1.3312
   43ccc    C10 1116   3.883   7.285   2.845 -1.0151 -0.3478 -0.3565
   43ccc     O4 1117   3.819   7.278   2.949  0.2797 -0.1723  0.6417
   43ccc     O5 1118   3.828   7.317   2.740 -0.2098  1.0385 -0.1388
   44ccc     N1 1119   4.905   7.963   3.066  0.3402  0.0034 -0.4901
   44ccc     H4 1120   4.979   7.895   3.064 -0.0487 -0.5119  1.2023
   44ccc     C3 1121   4.810   7.925   3.172 -0.5569 -0.3387 -0.0590
   44ccc     H5 1122   4.798   8.002   3.249 -0.7031 -1.2460  0.8464
   44ccc     C4 1123   4.849   7.795   3.237 -1.5620 -0.7294  0.8139
   44ccc     H6 1124   4.706   7.917   3.137 -1.0665  1.8288  0.7424
   44ccc     H7 1125   4.845   7.719   3.158  2.7609 -1.1372  0.7266
   44ccc     H8 1126   4.780   7.768   3.318  0.0090 -0.7969  2.1927
   44ccc     N2 1127   4.994   7.800   3.295  1.0464 -0.0050  0.6685
   44ccc     C5 1128   5.041   7.922   3.355  0.3281 -0.8262 -0.5562
   44ccc     C6 1129   5.030   7.673   3.356 -0.5448  0.9483  0.0937
   44ccc     H9 1130   4.952   7.632   3.422 -0.4422 -0.0037 -0.3613
   44ccc     C7 1131   5.162   7.662   3.438  0.1024 -0.4177 -0.1487
   44ccc    H10 1132   5.035   7.603   3.272  2.0082  1.9160 -0.6546
   44ccc    H11 1133   5.158   7.715   3.534 -2.2658 -1.0710  0.1860
   44ccc    H12 1134   5.239   7.707   3.373  0.3814 -0.3444  0.2323
   44ccc     C8 1135   5.197   7.509   3.447 -0.2242 -0.3139 -0.5005
   44ccc     O2 1136   5.309   7.470   3.403  0.2406 -0.3586 -0.3338
   44ccc     O3 1137   5.105   7.424   3.445 -0.5062 -0.2563  0.1510
   44ccc    H13 1138   5.031   8.014   3.295 -0.7849 -0.6267 -0.0891
   44ccc    H14 1139   5.148   7.908   3.376  0.5116  0.1054 -0.8143
   44ccc     C9 1140   4.989   7.939   3.501 -0.2363  0.3168  0.1840
   44ccc    H15 1141   5.044   7.869   3.565 -0.2719  0.5912  0.5134
   44ccc    H16 1142   4.883   7.910   3.506 -0.1530  0.0375  0.3817
   44ccc    C10 1143   4.997   8.086   3.553  0.3983 -0.2173  0.0612
   44ccc     O4 1144   5.109   8.144   3.558  0.1669  0.4159 -0.1740
   44ccc     O5 1145   4.907   8.144   3.611  0.3045  0.4904 -0.0503
   45ccc     N1 1146   5.420   8.261   2.549  0.2921 -0.0821  0.2441
   45ccc     H4 1147   5.391   8.164   2.560 -0.8575  0.3679  1.3721
   45ccc     C3 1148   5.431   8.307   2.410 -0.4225  0.3147 -1.2606
   45ccc     H5 1149   5.350   8.376   2.380 -0.1956  0.4656 -1.5292
   45ccc     C4 1150   5.432   8.192   2.313 -0.6636  0.4795  0.7086
   45ccc     H6 1151   5.511   8.380   2.396 -0.2734 -0.0748 -2.5050
   45ccc     H7 1152   5.458   8.237   2.217  2.0108 -1.7597  0.2455
   45ccc     H8 1153   5.329   8.155   2.320 -1.4212  2.3119 -0.1143
   45ccc     N2 1154   5.545   8.099   2.333 -0.3709  0.4283 -0.0645
   45ccc     C5 1155   5.550   7.994   2.226 -0.6133 -0.0360 -0.7293
   45ccc     C6 1156   5.674   8.161   2.366  0.4279  0.6506  0.1359
   45ccc     H9 1157   5.654   8.212   2.461 -2.0271  3.2556 -1.6194
   45ccc     C7 1158   5.740   8.246   2.256  0.1403  0.2942 -0.2836
   45ccc    H10 1159   5.753   8.088   2.389  0.6744  0.4676 -1.2143
   45ccc    H11 1160   5.684   8.333   2.218 -0.7174 -0.1056  0.0189
   45ccc    H12 1161   5.762   8.180   2.171  0.9013  1.7266 -1.2309
   45ccc     C8 1162   5.877   8.310   2.297 -0.2051 -0.0047  0.3808
   45ccc     O2 1163   5.895   8.367   2.402 -0.7005 -0.5583 -0.1204
   45ccc     O3 1164   5.973   8.291   2.225  0.5749 -0.4897  0.8309
   45ccc    H13 1165   5.636   7.930   2.249 -0.2993  0.6397 -0.0093
   45ccc    H14 1166   5.575   8.037   2.129  0.9188 -0.0669 -0.3667
   45ccc     C9 1167   5.415   7.909   2.212 -0.8481  0.0653 -0.1737
   45ccc    H15 1168   5.338   7.959   2.152 -0.9439  0.2660  0.1104
   45ccc    H16 1169   5.370   7.886   2.309  0.6820 -0.6276  0.4075
   45ccc    C10 1170   5.443   7.779   2.140 -0.0796  0.2397  0.4129
   45ccc     O4 1171   5.391   7.756   2.028 -0.0510  0.8056  0.6158
   45ccc     O5 1172   5.495   7.682   2.194 -1.0908  0.2193 -0.7539
   46ccc     N1 1173   4.573   6.882   2.198 -0.1119  0.7306  0.3654
   46ccc     H4 1174   4.606   6.810   2.261 -0.5756  1.1342  1.0895
   46ccc     C3 1175   4.671   6.974   2.129 -0.8875  0.4707 -0.0917
   46ccc     H5 1176   4.765   6.920   2.112 -0.0690  2.5461 -2.9203
   46ccc     C4 1177   4.703   7.095   2.229 -0.2352 -0.4425 -0.4015
   46ccc     H6 1178   4.645   7.003   2.027 -1.3974  0.3843  0.0130
   46ccc     H7 1179   4.748   7.055   2.320  0.2188 -1.1718 -0.9351
   46ccc     H8 1180   4.606   7.142   2.251  0.0289 -0.0309 -0.1180
   46ccc     N2 1181   4.787   7.203   2.173 -0.2580 -1.0831  0.4818
   46ccc     C5 1182   4.727   7.287   2.071  0.7209 -0.0213 -0.0981
   46ccc     C6 1183   4.919   7.152   2.131 -0.2684 -0.1040 -0.1846
   46ccc     H9 1184   4.915   7.081   2.048  0.5305  0.0650 -0.3787
   46ccc     C7 1185   5.017   7.099   2.237  0.5133  0.3681  0.5846
   46ccc    H10 1186   4.963   7.244   2.091 -3.9328  2.5296  1.3317
   46ccc    H11 1187   5.015   6.991   2.219 -3.0986  0.0645  1.9439
   46ccc    H12 1188   4.993   7.117   2.343  1.5849  0.3995  0.8344
   46ccc     C8 1189   5.161   7.150   2.210  0.3608 -0.4352 -0.3717
   46ccc     O2 1190   5.225   7.091   2.123  0.5372 -0.0532 -0.1802
   46ccc     O3 1191   5.220   7.237   2.278 -0.0556 -0.1414  0.3303
   46ccc    H13 1192   4.688   7.214   2.000  0.4531 -0.1970  0.2290
   46ccc    H14 1193   4.799   7.356   2.024  1.0838 -1.6118 -1.9770
   46ccc     C9 1194   4.609   7.385   2.113  0.3024 -0.3334  0.2037
   46ccc    H15 1195   4.637   7.452   2.195  0.7739 -0.5421  0.2199
   46ccc    H16 1196   4.526   7.328   2.157  0.0170 -0.8291 -0.9379
   46ccc    C10 1197   4.539   7.465   1.994 -0.1152  0.3091 -0.1126
   46ccc     O4 1198   4.441   7.419   1.939 -0.2445  0.3368 -0.5062
   46ccc     O5 1199   4.589   7.565   1.944  0.0460 -0.1470  0.7865
   47ccc     N1 1200   3.856   6.828   2.635  0.1855  0.2626  0.6403
   47ccc     H4 1201   3.950   6.846   2.671  0.7176 -1.8668  0.4313
   47ccc     C3 1202   3.722   6.853   2.693  0.1773  0.0142  0.4218
   47ccc     H5 1203   3.651   6.896   2.621  0.9881 -1.4685 -1.3352
   47ccc     C4 1204   3.726   6.957   2.807  0.3030  0.3761  0.0074
   47ccc     H6 1205   3.681   6.756   2.725  1.1744 -0.7087 -0.4479
   47ccc     H7 1206   3.739   7.055   2.758  0.6848  0.5403  0.4342
   47ccc     H8 1207   3.819   6.936   2.860  0.2739  1.0864  0.3472
   47ccc     N2 1208   3.612   6.970   2.895 -0.5527 -0.4616  0.0846
   47ccc     C5 1209   3.494   7.014   2.821  0.2211 -0.4270  0.0074
   47ccc     C6 1210   3.571   6.858   2.987 -0.7481 -0.2575  0.5792
   47ccc     H9 1211   3.489   6.886   3.054 -2.2651 -0.5801 -1.0801
   47ccc     C7 1212   3.688   6.806   3.080  0.1386  0.4417 -0.0282
   47ccc    H10 1213   3.543   6.774   2.923  3.1484  0.7091 -2.8202
   47ccc    H11 1214   3.784   6.817   3.027  0.8189  0.7101  1.2188
   47ccc    H12 1215   3.677   6.699   3.104  1.2384 -0.0440 -1.5219
   47ccc     C8 1216   3.705   6.887   3.202  0.1351  0.1541  0.1785
   47ccc     O2 1217   3.750   7.005   3.192 -0.2426  0.3134 -0.0648
   47ccc     O3 1218   3.669   6.851   3.307  0.4793  0.1682 -0.7090
   47ccc    H13 1219   3.456   6.929   2.763  4.0651 -0.8541 -2.2833
   47ccc    H14 1220   3.518   7.089   2.744  0.5164  1.0701  1.5027
   47ccc     C9 1221   3.388   7.081   2.913  0.1934 -0.1040 -0.2715
   47ccc    H15 1222   3.332   7.005   2.970 -1.5818  1.7929  0.6472
   47ccc    H16 1223   3.319   7.146   2.858  0.5416  2.0373  1.6454
   47ccc    C10 1224   3.440   7.193   3.001  0.2498  0.2500 -0.7604
   47ccc     O4 1225   3.393   7.210   3.113  0.0521 -0.1830  0.1785
   47ccc     O5 1226   3.536   7.260   2.977 -0.1865 -0.3747  0.1426
   48ccc     N1 1227   4.686   7.667   2.389  0.0185  0.3945 -0.4322
   48ccc     H4 1228   4.718   7.576   2.422 -1.1569 -0.0652 -0.5196
   48ccc     C3 1229   4.757   7.738   2.283  0.1779 -0.0860 -0.6760
   48ccc     H5 1230   4.693   7.759   2.197 -2.5843 -2.6094  0.5704
   48ccc     C4 1231   4.871   7.642   2.231  0.3892  0.2811  0.0688
   48ccc     H6 1232   4.794   7.828   2.333 -2.5422  1.5097 -1.3432
   48ccc     H7 1233   4.829   7.548   2.195  1.4822  0.4716 -1.8076
   48ccc     H8 1234   4.939   7.621   2.315  1.6817  1.6494 -0.5851
   48ccc     N2 1235   4.941   7.718   2.124 -0.2806  0.3487 -0.0892
   48ccc     C5 1236   5.065   7.642   2.076 -0.5431 -0.4505  0.2819
   48ccc     C6 1237   4.971   7.861   2.136  0.6285 -0.0541 -0.7447
   48ccc     H9 1238   5.017   7.885   2.039 -1.4868 -0.7792 -1.9872
   48ccc     C7 1239   5.059   7.885   2.262  0.4419 -0.6251  0.8545
   48ccc    H10 1240   4.875   7.913   2.140  1.0618  0.7923 -0.9962
   48ccc    H11 1241   5.161   7.845   2.253  0.3753 -0.5406 -0.6860
   48ccc    H12 1242   5.015   7.848   2.355 -1.6461 -0.3012  0.0619
   48ccc     C8 1243   5.088   8.030   2.292 -0.3624 -0.5178  0.2447
   48ccc     O2 1244   5.099   8.067   2.406  0.3641 -0.3049  0.1234
   48ccc     O3 1245   5.068   8.115   2.203 -0.5461  0.0358 -0.1133
   48ccc    H13 1246   5.147   7.664   2.145  1.2126  1.1128 -2.1831
   48ccc    H14 1247   5.084   7.668   1.971 -1.6669 -0.1941  0.1303
   48ccc     C9 1248   5.049   7.492   2.066 -0.2595  0.2318 -0.7888
   48ccc    H15 1249   4.970   7.473   1.992 -2.4389  1.7373  1.0150
   48ccc    H16 1250   5.021   7.448   2.162  0.9863  1.3093  0.1084
   48ccc    C10 1251   5.182   7.426   2.031 -0.1761 -0.3422  0.1632
   48ccc     O4 1252   5.284   7.452   2.090 -0.0348 -0.2749 -0.3673
   48ccc     O5 1253   5.191   7.339   1.945 -0.5150 -1.2731 -0.0301
   49ccc     N1 1254   4.147   7.624   2.975 -0.0181 -0.2949  0.0299
   49ccc     H4 1255   4.237   7.591   3.009 -1.1557 -1.6947  1.9048
   49ccc     C3 1256   4.057   7.654   3.090  0.1484 -0.2746  0.2842
   49ccc     H5 1257   4.056   7.763   3.099  1.4961 -0.1953 -0.2180
   49ccc     C4 1258   4.114   7.594   3.212 -0.0092  0.2168 -0.4404
   49ccc     H6 1259   3.954   7.624   3.068 -0.4945  2.5972 -1.0619
   49ccc     H7 1260   4.068   7.642   3.300  1.6373 -0.6802  0.9715
   49ccc     H8 1261   4.220   7.617   3.222 -0.3546  1.8595 -0.3450
   49ccc     N2 1262   4.097   7.439   3.229 -0.0450 -0.2523  0.1581
   49ccc     C5 1263   3.950   7.398   3.208  0.3923 -0.0772 -0.9438
   49ccc     C6 1264   4.163   7.372   3.346  0.8461 -0.1664  0.4800
   49ccc     H9 1265   4.111   7.392   3.440 -2.1936 -0.9803 -0.9068
   49ccc     C7 1266   4.306   7.410   3.368  0.2700  0.2801 -0.6342
   49ccc    H10 1267   4.149   7.266   3.321 -1.2370  0.1706  0.0186
   49ccc    H11 1268   4.319   7.514   3.400  1.9210 -0.5626  1.6837
   49ccc    H12 1269   4.372   7.386   3.283  1.2897 -2.2485  0.7652
   49ccc     C8 1270   4.373   7.327   3.484 -0.1475 -0.4030 -0.1315
   49ccc     O2 1271   4.488   7.350   3.521  0.2728  0.0032  0.2281
   49ccc     O3 1272   4.341   7.211   3.516  0.0201  0.0566 -0.0394
   49ccc    H13 1273   3.946   7.289   3.196  0.4072 -0.1814 -0.0516
   49ccc    H14 1274   3.919   7.435   3.109  0.2836  0.2917 -0.7747
   49ccc     C9 1275   3.849   7.439   3.313 -0.6296  0.7634  0.0287
   49ccc    H15 1276   3.863   7.546   3.332  0.3781  0.4205  1.3352
   49ccc    H16 1277   3.864   7.384   3.407  1.8961 -0.4205 -0.9940
   49ccc    C10 1278   3.703   7.419   3.270  0.0730  0.2786 -0.4411
   49ccc     O4 1279   3.660   7.312   3.235  0.2945 -0.6944 -0.0245
   49ccc     O5 1280   3.639   7.510   3.225 -0.2473  0.1576 -0.2504
   50ccc     N1 1281   4.506   6.080   2.695  0.4778 -0.1110  1.0114
   50ccc     H4 1282   4.515   6.016   2.773  0.9515  0.9999  1.9004
   50ccc     C3 1283   4.423   6.199   2.712 -0.2227 -0.1047 -0.4738
   50ccc     H5 1284   4.486   6.281   2.677  1.1444 -0.7080  0.4940
   50ccc     C4 1285   4.389   6.232   2.859 -0.3037  0.6235 -0.1387
   50ccc     H6 1286   4.339   6.197   2.640 -1.5951  1.1302  1.0091
   50ccc     H7 1287   4.328   6.323   2.860  1.8660  2.1618  0.6536
   50ccc     H8 1288   4.479   6.238   2.922  0.1795  0.6877 -0.8161
   50ccc     N2 1289   4.311   6.117   2.926 -1.0359 -0.0832 -0.3055
   50ccc     C5 1290   4.307   6.144   3.070  0.0642  0.4500 -0.0374
   50ccc     C6 1291   4.176   6.081   2.867 -0.4558  0.7987  0.0438
   50ccc     H9 1292   4.189   6.044   2.764 -1.7087 -2.2162  0.8567
   50ccc     C7 1293   4.061   6.189   2.872  0.7286 -0.1621  0.1060
   50ccc    H10 1294   4.138   5.985   2.903  2.0754 -0.6388 -0.8612
   50ccc    H11 1295   4.085   6.272   2.805  3.1434 -1.1484 -0.3498
   50ccc    H12 1296   4.048   6.226   2.974 -2.0103  0.7544 -0.4835
   50ccc     C8 1297   3.929   6.123   2.828 -0.8916 -0.2385 -0.2604
   50ccc     O2 1298   3.905   6.099   2.711  0.0940  0.3162  0.4709
   50ccc     O3 1299   3.845   6.096   2.912 -0.0280 -0.0762  0.3337
   50ccc    H13 1300   4.253   6.236   3.096  0.4700  0.9645 -0.9676
   50ccc    H14 1301   4.408   6.151   3.111  0.5235 -0.6938 -0.9303
   50ccc     C9 1302   4.239   6.024   3.147  0.6814  0.3683 -0.0706
   50ccc    H15 1303   4.283   5.928   3.116  2.9517 -0.2052  4.2111
   50ccc    H16 1304   4.132   6.036   3.125  0.3708  3.1345  2.3202
   50ccc    C10 1305   4.232   6.041   3.302 -0.5708  0.9613 -0.5371
   50ccc     O4 1306   4.268   5.950   3.378  0.3239 -0.4323 -0.1429
   50ccc     O5 1307   4.182   6.141   3.353 -0.8640  0.3143 -0.0358
   51ccc     N1 1308   4.742   5.526   2.958 -0.3828  0.1007 -0.1883
   51ccc     H4 1309   4.812   5.569   2.899  0.1188 -0.6576 -0.1569
   51ccc     C3 1310   4.743   5.531   3.106 -0.2465  0.1027  0.1475
   51ccc     H5 1311   4.660   5.589   3.148 -0.0928  0.2939  0.1885
   51ccc     C4 1312   4.875   5.591   3.165  0.2612 -0.0950 -0.4927
   51ccc     H6 1313   4.738   5.429   3.146  0.7403  0.7292  1.9880
   51ccc     H7 1314   4.870   5.701   3.169  0.8551 -0.1126  1.0427
   51ccc     H8 1315   4.943   5.561   3.085  0.1149 -1.8488  0.0135
   51ccc     N2 1316   4.917   5.547   3.296 -0.1996  0.0442  0.0211
   51ccc     C5 1317   4.823   5.551   3.405 -0.3420 -0.1665 -0.3623
   51ccc     C6 1318   5.058   5.594   3.321  0.5183  0.1980 -0.2019
   51ccc     H9 1319   5.125   5.577   3.236  2.3007 -0.1223  1.2195
   51ccc     C7 1320   5.119   5.521   3.445 -0.4757 -0.1799 -0.1297
   51ccc    H10 1321   5.059   5.698   3.354 -2.0886 -0.4551  2.2931
   51ccc    H11 1322   5.115   5.412   3.439 -0.4008 -0.1158 -2.2520
   51ccc    H12 1323   5.059   5.543   3.534  0.7039  1.7615  0.2648
   51ccc     C8 1324   5.267   5.542   3.462 -0.3477  0.2417 -0.0275
   51ccc     O2 1325   5.302   5.655   3.482  0.0523 -0.1365 -0.2814
   51ccc     O3 1326   5.351   5.457   3.422  0.4067 -0.1809 -0.7490
   51ccc    H13 1327   4.856   5.487   3.487 -1.5165 -0.4125 -0.0687
   51ccc    H14 1328   4.728   5.511   3.368 -0.5432  1.2171 -1.4642
   51ccc     C9 1329   4.783   5.692   3.450  0.0061  0.5008  0.1002
   51ccc    H15 1330   4.738   5.738   3.361  0.8406 -0.9332 -1.0860
   51ccc    H16 1331   4.874   5.744   3.484 -0.6349  0.6230  1.7502
   51ccc    C10 1332   4.694   5.680   3.572 -0.8466 -0.5940 -0.5273
   51ccc     O4 1333   4.728   5.618   3.674  0.0332 -0.0800  0.1311
   51ccc     O5 1334   4.594   5.749   3.575  0.4760  0.0869 -0.3643
   52ccc     N1 1335   5.567   5.924   1.387  0.4009  0.2983 -0.4880
   52ccc     H4 1336   5.500   5.848   1.389 -1.9372  2.2796  1.2175
   52ccc     C3 1337   5.676   5.939   1.483 -0.1824 -0.2001 -0.4519
   52ccc     H5 1338   5.772   5.932   1.431  0.3406  0.7027  0.3560
   52ccc     C4 1339   5.668   5.816   1.579 -0.6204 -0.5915  0.2471
   52ccc     H6 1340   5.677   6.033   1.538  4.0408 -1.5651  2.2621
   52ccc     H7 1341   5.590   5.835   1.654  0.0926 -0.2688  0.9261
   52ccc     H8 1342   5.762   5.815   1.636  0.6919  0.8535 -1.7585
   52ccc     N2 1343   5.646   5.685   1.520 -0.0348  0.2412 -0.6094
   52ccc     C5 1344   5.596   5.585   1.613  0.3464  0.0440  0.0077
   52ccc     C6 1345   5.752   5.645   1.426  0.4705 -0.2234  0.2464
   52ccc     H9 1346   5.775   5.724   1.354 -0.8137 -0.2192 -0.2020
   52ccc     C7 1347   5.733   5.507   1.353  0.6057  0.0918 -0.2461
   52ccc    H10 1348   5.848   5.631   1.477  0.2233  0.5085  0.9203
   52ccc    H11 1349   5.657   5.508   1.274  1.3450  0.7273 -0.9655
   52ccc    H12 1350   5.711   5.429   1.427 -0.3776 -0.7591 -1.4049
   52ccc     C8 1351   5.863   5.468   1.289 -0.1656  0.0710 -0.2232
   52ccc     O2 1352   5.946   5.378   1.322  0.3753 -0.5455 -0.7999
   52ccc     O3 1353   5.885   5.529   1.186  0.4258 -0.6703  0.2248
   52ccc    H13 1354   5.544   5.506   1.557 -0.7843 -0.3094  1.4928
   52ccc    H14 1355   5.539   5.632   1.693  0.0293 -0.8791  0.3416
   52ccc     C9 1356   5.713   5.514   1.689  0.2073 -0.3432  0.2794
   52ccc    H15 1357   5.772   5.597   1.731  1.3600  1.3325 -4.0724
   52ccc    H16 1358   5.782   5.458   1.624  0.4226 -0.0967  0.2925
   52ccc    C10 1359   5.658   5.411   1.790 -0.3192 -0.3199 -0.2573
   52ccc     O4 1360   5.641   5.302   1.750 -0.8573  0.1715 -0.0870
   52ccc     O5 1361   5.653   5.421   1.915 -0.3254 -0.0373 -0.0359
   53ccc     N1 1362   5.573   6.549   1.465  0.4025 -0.1383  0.2170
   53ccc     H4 1363   5.634   6.490   1.410  0.5029  0.2242 -0.0680
   53ccc     C3 1364   5.620   6.683   1.503 -0.5465 -0.5991 -0.7849
   53ccc     H5 1365   5.714   6.713   1.455 -0.9328  5.6579  1.3796
   53ccc     C4 1366   5.640   6.686   1.655  0.2713 -0.0589 -0.5525
   53ccc     H6 1367   5.546   6.760   1.478  0.4442 -0.5774 -4.2364
   53ccc     H7 1368   5.688   6.594   1.689  1.4306  0.4246 -0.8540
   53ccc     H8 1369   5.544   6.681   1.709  0.9704 -0.7265  0.6619
   53ccc     N2 1370   5.714   6.803   1.710 -0.2785 -0.2992  0.6146
   53ccc     C5 1371   5.637   6.903   1.782 -0.1195  0.0279 -0.4203
   53ccc     C6 1372   5.837   6.760   1.784  0.0366  0.1897  0.7162
   53ccc     H9 1373   5.898   6.843   1.822 -1.3823  2.5530 -1.7704
   53ccc     C7 1374   5.943   6.684   1.691  0.4590  0.8394 -0.3581
   53ccc    H10 1375   5.807   6.691   1.864  0.1317  0.0011  0.5899
   53ccc    H11 1376   5.967   6.738   1.598  0.5024  0.4569 -0.5715
   53ccc    H12 1377   5.905   6.586   1.660 -0.5129  1.3913 -0.9394
   53ccc     C8 1378   6.083   6.664   1.756  0.1058  0.1555 -0.1168
   53ccc     O2 1379   6.095   6.602   1.857 -0.9594  0.1774  0.5227
   53ccc     O3 1380   6.181   6.704   1.696  0.0962 -1.4625 -0.1473
   53ccc    H13 1381   5.704   6.990   1.792  1.6778 -0.7761 -3.8373
   53ccc    H14 1382   5.607   6.871   1.882 -0.1666  1.6204  0.1030
   53ccc     C9 1383   5.514   6.962   1.708  0.3604  0.3314 -1.4465
   53ccc    H15 1384   5.446   6.878   1.689 -2.1029  1.3260  2.1473
   53ccc    H16 1385   5.541   7.015   1.616  1.4186  0.7770 -0.8932
   53ccc    C10 1386   5.433   7.046   1.804  0.2997 -0.4254  0.2857
   53ccc     O4 1387   5.384   7.005   1.904  0.5188 -0.5084 -0.2895
   53ccc     O5 1388   5.420   7.165   1.786 -0.2390 -0.4504 -0.1240
   54ccc     N1 1389   4.957   7.372   4.474  0.0289  0.7891 -0.5110
   54ccc     H4 1390   4.913   7.374   4.565 -1.6919 -1.6853 -1.1834
   54ccc     C3 1391   4.873   7.399   4.352  0.2518  0.4209  0.0437
   54ccc     H5 1392   4.873   7.508   4.336  0.7147  0.5832  1.0648
   54ccc     C4 1393   4.729   7.359   4.376  0.6206 -0.1187 -0.3906
   54ccc     H6 1394   4.914   7.355   4.261 -2.6347 -1.6548 -0.3537
   54ccc     H7 1395   4.674   7.452   4.395  0.1079 -0.4169 -0.3972
   54ccc     H8 1396   4.726   7.292   4.462 -0.2428  0.1637 -0.1889
   54ccc     N2 1397   4.655   7.292   4.261 -0.2263  0.2186  0.1986
   54ccc     C5 1398   4.533   7.229   4.310 -0.0756 -0.1527 -0.2340
   54ccc     C6 1399   4.650   7.368   4.132 -0.5112 -0.7620  0.0287
   54ccc     H9 1400   4.582   7.453   4.140 -0.0419 -0.2527 -1.1853
   54ccc     C7 1401   4.601   7.289   4.018 -0.3172  0.1958  0.7031
   54ccc    H10 1402   4.749   7.404   4.101  0.4790 -0.9894  2.6249
   54ccc    H11 1403   4.494   7.265   4.028 -0.5745 -0.0189 -1.8940
   54ccc    H12 1404   4.656   7.195   4.015 -0.5889 -0.0548  2.6493
   54ccc     C8 1405   4.600   7.360   3.879 -0.4125 -0.5997 -0.1449
   54ccc     O2 1406   4.598   7.480   3.863 -0.1304 -0.3123  0.4172
   54ccc     O3 1407   4.592   7.296   3.776  0.1077 -0.5416 -0.1767
   54ccc    H13 1408   4.549   7.184   4.408  2.1781 -0.6045 -0.7416
   54ccc    H14 1409   4.503   7.144   4.247 -1.4217  0.4533 -0.4461
   54ccc     C9 1410   4.420   7.332   4.334  0.8100 -0.2263 -0.5103
   54ccc    H15 1411   4.392   7.376   4.238  0.1648  2.5725  0.8649
   54ccc    H16 1412   4.455   7.415   4.396 -0.8308 -1.0330  1.6395
   54ccc    C10 1413   4.302   7.274   4.415  0.2323 -0.9910 -0.0914
   54ccc     O4 1414   4.274   7.160   4.405 -0.0656  0.3211 -0.3133
   54ccc     O5 1415   4.236   7.343   4.491 -0.5527  0.1418 -0.7511
   55ccc     N1 1416   5.524   7.381   5.134 -0.8860  0.4341 -0.2774
   55ccc     H4 1417   5.557   7.286   5.128 -0.7854  0.3008  1.5786
   55ccc     C3 1418   5.578   7.461   5.251  0.1973  0.2086  0.5744
   55ccc     H5 1419   5.610   7.559   5.214  0.1275  0.2848  0.7146
   55ccc     C4 1420   5.698   7.405   5.329 -0.0437 -0.5943 -0.4343
   55ccc     H6 1421   5.498   7.473   5.325  0.6363 -1.0977  1.2907
   55ccc     H7 1422   5.712   7.457   5.425 -0.5710 -2.2718  0.5950
   55ccc     H8 1423   5.785   7.433   5.269 -0.3128  0.1659 -0.4869
   55ccc     N2 1424   5.688   7.256   5.356 -0.1015 -0.6544  0.1229
   55ccc     C5 1425   5.572   7.209   5.435 -0.1826  0.0355 -0.8492
   55ccc     C6 1426   5.814   7.197   5.403 -0.3295  0.1925  0.9846
   55ccc     H9 1427   5.846   7.240   5.500 -1.6326  0.7974  1.1642
   55ccc     C7 1428   5.932   7.191   5.300  0.3250 -0.2781  0.6443
   55ccc    H10 1429   5.794   7.092   5.428  1.3362 -0.2727  0.4869
   55ccc    H11 1430   5.957   7.289   5.255  0.5025 -0.2218  0.8656
   55ccc    H12 1431   5.906   7.120   5.221  1.0077 -1.0343  1.0861
   55ccc     C8 1432   6.066   7.152   5.364  0.1707  0.3245  0.2041
   55ccc     O2 1433   6.129   7.064   5.307  0.2378 -0.4632  0.3229
   55ccc     O3 1434   6.101   7.180   5.478  0.1446  0.3322  0.1875
   55ccc    H13 1435   5.479   7.258   5.403 -0.6932 -0.9270 -0.8911
   55ccc    H14 1436   5.589   7.221   5.543 -2.0250 -0.5483 -0.4550
   55ccc     C9 1437   5.551   7.057   5.422  1.1460 -0.2982  0.0521
   55ccc    H15 1438   5.460   7.032   5.478  1.9038  0.4135  1.6747
   55ccc    H16 1439   5.627   6.995   5.470  0.7345  0.5628  1.9201
   55ccc    C10 1440   5.514   6.999   5.279 -0.3692 -0.1438  0.2769
   55ccc     O4 1441   5.511   6.876   5.260  0.1556  0.3932 -0.1166
   55ccc     O5 1442   5.474   7.065   5.185 -0.7394 -0.4688 -0.0917
   56ccc     N1 1443   4.286   7.055   3.903  0.7955  0.0589 -0.5182
   56ccc     H4 1444   4.255   7.025   3.995  0.0128 -2.6848 -1.5531
   56ccc     C3 1445   4.227   7.159   3.827  0.0348 -0.4406  0.1517
   56ccc     H5 1446   4.294   7.244   3.838 -0.1290 -0.1954 -0.7185
   56ccc     C4 1447   4.086   7.198   3.883 -0.3747  0.3024  0.0134
   56ccc     H6 1448   4.223   7.141   3.719  0.4191  0.7319 -0.0718
   56ccc     H7 1449   4.103   7.261   3.972  0.8885 -0.6874  0.5041
   56ccc     H8 1450   4.044   7.114   3.939 -1.1953  1.8094  1.8008
   56ccc     N2 1451   4.000   7.269   3.785 -0.3759  0.3447  0.3993
   56ccc     C5 1452   3.917   7.186   3.692 -0.6305  0.6687 -0.3287
   56ccc     C6 1453   4.067   7.376   3.708  0.9522  0.1771  0.0694
   56ccc     H9 1454   4.142   7.323   3.647 -0.4005 -0.3791 -1.1638
   56ccc     C7 1455   4.131   7.483   3.798 -0.2337  0.6634  0.0680
   56ccc    H10 1456   3.993   7.421   3.641  0.6775 -0.0986  0.1880
   56ccc    H11 1457   4.194   7.441   3.877  0.1803  0.0972 -0.5579
   56ccc    H12 1458   4.053   7.544   3.846 -1.6199 -0.5550 -0.5348
   56ccc     C8 1459   4.213   7.588   3.724 -0.9388  0.0438  0.3823
   56ccc     O2 1460   4.330   7.563   3.702 -0.2015  0.1782 -0.2739
   56ccc     O3 1461   4.164   7.689   3.684  0.3737 -0.0474 -0.0988
   56ccc    H13 1462   3.984   7.118   3.638 -2.2516  0.5330 -2.2677
   56ccc    H14 1463   3.847   7.235   3.624 -3.3443 -0.5883  1.3858
   56ccc     C9 1464   3.818   7.093   3.773  0.1797  0.2156  0.1605
   56ccc    H15 1465   3.749   7.160   3.825  0.3433  1.0472 -0.6483
   56ccc    H16 1466   3.858   7.019   3.843  1.3334  0.0134 -0.6734
   56ccc    C10 1467   3.730   7.011   3.665  0.2288 -0.1069 -0.1544
   56ccc     O4 1468   3.775   6.949   3.571  0.2311 -0.3265  0.7542
   56ccc     O5 1469   3.606   7.022   3.674 -0.9395 -0.0621 -0.1532
   57ccc     N1 1470   4.090   6.365   4.047  0.2169  0.3294 -0.8486
   57ccc     H4 1471   4.152   6.329   3.976  0.2239  0.7140 -1.0446
   57ccc     C3 1472   3.944   6.365   4.019 -0.4945  0.2435  0.5575
   57ccc     H5 1473   3.892   6.348   4.114 -0.2493  0.0640  0.6596
   57ccc     C4 1474   3.895   6.259   3.920 -0.1866  0.0071 -0.3826
   57ccc     H6 1475   3.908   6.465   3.993  1.5896  0.8582 -0.1391
   57ccc     H7 1476   3.786   6.271   3.924 -0.2106 -0.1814 -0.4809
   57ccc     H8 1477   3.917   6.163   3.968  0.9204  0.7335  0.6121
   57ccc     N2 1478   3.950   6.264   3.785 -0.2690 -0.2810 -0.6239
   57ccc     C5 1479   3.957   6.393   3.715  0.0864 -0.0553  0.1103
   57ccc     C6 1480   3.895   6.161   3.693 -0.2674  0.5542  0.1243
   57ccc     H9 1481   3.789   6.184   3.680 -0.2967 -0.2716 -1.2999
   57ccc     C7 1482   3.915   6.014   3.734  0.1401  0.1088  0.5192
   57ccc    H10 1483   3.940   6.183   3.596  0.4507 -0.2330  0.2655
   57ccc    H11 1484   3.867   5.954   3.656 -0.7431  1.2363  0.1689
   57ccc    H12 1485   3.875   5.993   3.834 -2.9911  3.2578  0.1093
   57ccc     C8 1486   4.061   5.970   3.731  0.0181  0.0884 -0.0048
   57ccc     O2 1487   4.112   5.961   3.621 -0.1868 -0.1317 -0.0659
   57ccc     O3 1488   4.135   5.949   3.831  0.4022 -0.2816 -0.5829
   57ccc    H13 1489   4.024   6.384   3.629 -1.3615  1.2199 -1.2119
   57ccc    H14 1490   4.013   6.469   3.773 -0.8414  3.2640 -2.9710
   57ccc     C9 1491   3.825   6.448   3.663 -0.4961  0.4248 -0.3660
   57ccc    H15 1492   3.748   6.462   3.740 -1.0118 -0.6883 -0.6574
   57ccc    H16 1493   3.789   6.372   3.593  1.4011 -1.2627  0.3929
   57ccc    C10 1494   3.842   6.573   3.582  0.6043 -0.3252  0.4891
   57ccc     O4 1495   3.949   6.629   3.561 -0.2147  0.1445 -0.0034
   57ccc     O5 1496   3.748   6.618   3.513  0.7969  0.7209  0.0902
   58ccc     N1 1497   4.825   6.260   4.133  0.0530 -0.2422 -0.5117
   58ccc     H4 1498   4.889   6.339   4.134 -1.4886  1.0711  0.6720
   58ccc     C3 1499   4.839   6.174   4.018  0.3047  0.4973 -0.2134
   58ccc     H5 1500   4.941   6.134   4.020 -0.0105 -0.4121 -1.2926
   58ccc     C4 1501   4.814   6.242   3.880 -0.7520 -0.5835 -1.0390
   58ccc     H6 1502   4.768   6.091   4.021 -0.4285  1.1439  1.5510
   58ccc     H7 1503   4.874   6.333   3.877 -2.0505  0.3636  0.2065
   58ccc     H8 1504   4.713   6.278   3.902  0.5538  2.1001  1.2762
   58ccc     N2 1505   4.825   6.162   3.757 -0.0044  0.3384  0.0544
   58ccc     C5 1506   4.960   6.128   3.726 -0.7740 -0.4223  0.4712
   58ccc     C6 1507   4.720   6.057   3.742 -0.5988  0.0677  0.2213
   58ccc     H9 1508   4.731   6.012   3.642 -0.9853  0.9216 -0.2192
   58ccc     C7 1509   4.575   6.103   3.759  0.1203 -0.2655 -0.0511
   58ccc    H10 1510   4.738   5.976   3.813  1.9375  1.1090  0.8890
   58ccc    H11 1511   4.543   6.183   3.692  0.2994  1.4682  1.8530
   58ccc    H12 1512   4.562   6.134   3.863  1.8086  0.3163  0.0213
   58ccc     C8 1513   4.486   5.987   3.731 -0.2129 -0.2422 -0.2994
   58ccc     O2 1514   4.463   5.892   3.807 -0.0795 -0.0933  0.7368
   58ccc     O3 1515   4.409   5.997   3.641  0.6447  0.2263  0.1014
   58ccc    H13 1516   4.988   6.064   3.810 -1.3032 -1.6730 -0.2741
   58ccc    H14 1517   5.029   6.214   3.724  1.3713 -2.0592  0.4069
   58ccc     C9 1518   4.994   6.053   3.595 -0.8934 -0.1481  0.0806
   58ccc    H15 1519   4.943   6.098   3.509 -0.7853  1.3887  0.7836
   58ccc    H16 1520   4.953   5.952   3.611  0.6860 -1.1140 -1.5941
   58ccc    C10 1521   5.145   6.049   3.570 -0.7169 -0.2318 -0.1600
   58ccc     O4 1522   5.200   6.132   3.504 -0.1420 -0.3021 -0.3844
   58ccc     O5 1523   5.216   5.960   3.622  0.0917 -0.9759  0.0389
   59ccc     N1 1524   5.093   6.471   4.664  0.0411  0.5433 -0.4162
   59ccc     H4 1525   5.141   6.389   4.698 -1.6912 -0.2281  0.2588
   59ccc     C3 1526   5.164   6.594   4.644 -0.1295 -0.1372 -0.1224
   59ccc     H5 1527   5.112   6.634   4.556 -2.1046  1.5773  1.6990
   59ccc     C4 1528   5.314   6.582   4.625 -0.3879  0.4241 -0.5227
   59ccc     H6 1529   5.140   6.658   4.729  0.1054  0.8119 -0.7516
   59ccc     H7 1530   5.353   6.684   4.620  0.1247  0.2950  0.5270
   59ccc     H8 1531   5.340   6.533   4.530  1.2675  0.4060 -0.0833
   59ccc     N2 1532   5.389   6.506   4.726  0.2028 -0.1257 -0.6653
   59ccc     C5 1533   5.501   6.421   4.671  0.1882  0.6860 -0.0065
   59ccc     C6 1534   5.424   6.580   4.857 -0.2873  0.2981 -0.1555
   59ccc     H9 1535   5.512   6.530   4.899 -0.5367  0.4800  0.6076
   59ccc     C7 1536   5.312   6.577   4.963 -0.5629 -0.0596  0.0293
   59ccc    H10 1537   5.459   6.680   4.832  1.5050 -0.5563 -1.2214
   59ccc    H11 1538   5.282   6.477   4.997  0.3935 -0.2947  0.2004
   59ccc    H12 1539   5.219   6.616   4.920 -0.4564 -2.0704 -2.2401
   59ccc     C8 1540   5.356   6.654   5.091  0.4381  0.8283  0.7601
   59ccc     O2 1541   5.437   6.609   5.170 -0.3228 -0.2818  0.5095
   59ccc     O3 1542   5.307   6.756   5.129  0.0583  0.3930  0.7183
   59ccc    H13 1543   5.465   6.350   4.597  3.2721 -0.3570 -0.6595
   59ccc    H14 1544   5.544   6.349   4.742  0.6632 -0.3563 -1.3102
   59ccc     C9 1545   5.614   6.500   4.598 -0.3530 -0.5588 -0.4750
   59ccc    H15 1546   5.677   6.556   4.668  1.1573 -0.1151 -2.1061
   59ccc    H16 1547   5.577   6.572   4.524 -0.4723  0.8683  0.9260
   59ccc    C10 1548   5.704   6.395   4.528  0.6505 -0.3890  0.0695
   59ccc     O4 1549   5.772   6.316   4.584 -0.0449  0.0930 -0.4058
   59ccc     O5 1550   5.740   6.418   4.415  0.0288  0.1016  0.0939
   60ccc     N1 1551   5.148   7.375   4.094  0.4208 -0.6965  0.4172
   60ccc     H4 1552   5.167   7.373   4.193  0.1793  0.3661  0.4984
   60ccc     C3 1553   5.037   7.447   4.037 -0.0245 -0.1892 -0.5325
   60ccc     H5 1554   4.964   7.392   3.976 -1.0313  0.7897 -0.2559
   60ccc     C4 1555   5.084   7.574   3.955  0.1403  1.1028  0.6758
   60ccc     H6 1556   4.986   7.492   4.123  1.8894  1.5037 -0.1919
   60ccc     H7 1557   5.146   7.548   3.868  1.2200  0.1960  1.6926
   60ccc     H8 1558   5.152   7.626   4.024 -0.8831  0.8336  1.9151
   60ccc     N2 1559   4.978   7.665   3.913 -0.2188  0.6656  0.1446
   60ccc     C5 1560   5.030   7.793   3.855 -0.3637  0.7890  0.3056
   60ccc     C6 1561   4.866   7.608   3.831 -0.4686  0.4102 -0.3851
   60ccc     H9 1562   4.836   7.513   3.877  2.7400 -0.4083  0.2871
   60ccc     C7 1563   4.897   7.591   3.678  0.1035 -0.4833  0.5650
   60ccc    H10 1564   4.784   7.680   3.836 -0.3402  0.5212  0.3862
   60ccc    H11 1565   4.982   7.523   3.666  0.4220  0.2142 -1.4945
   60ccc    H12 1566   4.926   7.685   3.630  1.1223 -1.4767 -0.8440
   60ccc     C8 1567   4.784   7.525   3.596  1.1658  0.7281  0.6175
   60ccc     O2 1568   4.795   7.416   3.536 -0.2363  0.8048 -0.5079
   60ccc     O3 1569   4.679   7.585   3.587 -0.1284 -0.9626 -0.3096
   60ccc    H13 1570   4.938   7.843   3.820 -2.2029 -2.3904  0.2270
   60ccc    H14 1571   5.091   7.776   3.765  0.2730  0.9462  0.7022
   60ccc     C9 1572   5.107   7.880   3.949  0.0308 -0.9160 -0.4667
   60ccc    H15 1573   5.211   7.845   3.954 -0.1601 -1.5903 -1.2056
   60ccc    H16 1574   5.077   7.863   4.053  1.2672 -2.5554 -0.3399
   60ccc    C10 1575   5.101   8.028   3.909  0.4335 -0.1252  0.2888
   60ccc     O4 1576   4.998   8.096   3.923 -0.3079 -0.4803 -0.6917
   60ccc     O5 1577   5.179   8.075   3.827  0.2342  0.0065 -0.1092
   61ccc     N1 1578   5.785   7.181   4.470 -0.0116 -0.1147 -0.2816
   61ccc     H4 1579   5.723   7.125   4.528 -0.5838  2.1666  1.4254
   61ccc     C3 1580   5.923   7.182   4.511  0.7363 -0.5003 -0.1456
   61ccc     H5 1581   5.968   7.118   4.435  0.4653  0.0019 -0.7371
   61ccc     C4 1582   5.935   7.117   4.653  0.1724  0.5668 -0.0573
   61ccc     H6 1583   5.967   7.282   4.511  0.2699 -0.2938 -0.1698
   61ccc     H7 1584   5.904   7.174   4.741  1.4332  0.4941  0.4539
   61ccc     H8 1585   6.043   7.106   4.668  0.5407 -1.3234 -3.2663
   61ccc     N2 1586   5.870   6.980   4.661  0.2222  0.6296 -0.3455
   61ccc     C5 1587   5.955   6.876   4.602 -0.7504 -0.5803 -0.2606
   61ccc     C6 1588   5.834   6.952   4.804  0.4422  0.3919  0.7222
   61ccc     H9 1589   5.923   6.950   4.868 -0.2849  0.8553  1.7696
   61ccc     C7 1590   5.762   6.817   4.822  0.1016 -0.0983  0.8607
   61ccc    H10 1591   5.768   7.029   4.845  0.6346  1.9372 -1.6557
   61ccc    H11 1592   5.831   6.734   4.802 -1.1878 -1.4380  1.8274
   61ccc    H12 1593   5.688   6.813   4.741 -0.0363 -2.9488  1.0551
   61ccc     C8 1594   5.704   6.806   4.958  0.2569 -0.2671  0.1902
   61ccc     O2 1595   5.581   6.814   4.977 -0.3851  0.1448 -0.4499
   61ccc     O3 1596   5.774   6.768   5.056 -0.3451  0.1009 -0.5558
   61ccc    H13 1597   6.021   6.825   4.674 -2.1787 -1.5889  0.3875
   61ccc    H14 1598   6.009   6.916   4.516 -0.0197 -5.4491 -2.4092
   61ccc     C9 1599   5.868   6.774   4.524  0.3248 -0.0885 -0.4239
   61ccc    H15 1600   5.779   6.823   4.483 -0.4532  0.1800  1.4693
   61ccc    H16 1601   5.831   6.700   4.595 -0.2933 -0.4132 -1.0837
   61ccc    C10 1602   5.950   6.704   4.416  0.3143 -0.5487 -0.6137
   61ccc     O4 1603   6.058   6.655   4.439  0.2453 -0.3908  0.6188
   61ccc     O5 1604   5.892   6.681   4.309 -0.1068 -0.1079 -0.0178
   62SOL     OW 1605   1.542   6.411   6.663  0.2452  0.4188  0.0603
   62SOL    HW1 1606   1.632   6.383   6.647  0.1667  0.4008 -0.3805
   62SOL    HW2 1607   1.551   6.488   6.719  0.4865 -0.1387  0.7929
   63SOL     OW 1608   6.816   4.479   3.619 -0.1009 -0.1777 -0.8085
   63SOL    HW1 1609   6.885   4.537   3.651  0.8102 -0.8254 -1.5477
   63SOL    HW2 1610   6.851   4.390   3.630 -0.1058 -0.4630 -2.6957
   64SOL     OW 1611   4.552   2.945   4.023  0.7172  0.5728  0.0504
   64SOL    HW1 1612   4.626   2.966   4.079  1.2788  0.1909 -0.5331
   64SOL    HW2 1613   4.494   2.893   4.078  1.1007  0.4867  0.3784
   65SOL     OW 1614   7.134   1.178   6.089  0.0849 -0.7980  0.1847
   65SOL    HW1 1615   7.077   1.169   6.012 -0.3745  1.4236  0.2028
   65SOL    HW2 1616   7.221   1.154   6.057 -0.2009 -0.4939 -0.8755
   66SOL     OW 1617   0.958   4.287   0.868  0.6458  0.1832  0.1438
   66SOL    HW1 1618   0.934   4.238   0.790  0.4164 -3.5246  2.3061
   66SOL    HW2 1619   0.918   4.373   0.855 -1.3423 -1.0078 -2.7768
   67SOL     OW 1620   1.315   1.890   3.925 -0.1852  0.4299 -0.2749
   67SOL    HW1 1621   1.332   1.816   3.983 -0.0637  0.7555  0.1120
   67SOL    HW2 1622   1.221   1.884   3.905  0.0581 -0.5390 -1.2510
   68SOL     OW 1623   4.304   3.226   6.214 -0.0674  0.0446 -0.9199
   68SOL    HW1 1624   4.243   3.196   6.147 -0.1759  0.5212 -1.0440
   68SOL    HW2 1625   4.288   3.321   6.219 -0.3320 -0.0395  0.0519
   69SOL     OW 1626   5.942   0.427   4.588 -0.6289  0.1455 -0.0691
   69SOL    HW1 1627   6.014   0.365   4.576 -0.3312  0.2686  1.0171
   69SOL    HW2 1628   5.895   0.426   4.504 -1.3858 -2.4994  0.2931
   70SOL     OW 1629   4.788   8.091   0.977 -0.1817  0.4104  0.2083
   70SOL    HW1 1630   4.779   8.175   0.932  0.3212  1.5981  2.1533
   70SOL    HW2 1631   4.698   8.062   0.992 -0.3825  1.0385  0.2584
   71SOL     OW 1632   6.622   5.971   8.134 -0.0477 -0.1365 -0.1187
   71SOL    HW1 1633   6.603   5.933   8.048  1.4822 -0.5784 -0.2955
   71SOL    HW2 1634   6.644   5.895   8.189  1.0741  0.2916  0.0670
   72SOL     OW 1635   7.273   5.516   3.095 -0.1437 -0.2967  0.3977
   72SOL    HW1 1636   7.196   5.459   3.099 -0.0965 -0.3251  0.9176
   72SOL    HW2 1637   7.284   5.548   3.185  0.0789  0.2006  0.2001
   73SOL     OW 1638   7.883   2.921   3.729 -0.0333  0.7245 -0.6687
   73SOL    HW1 1639   7.855   3.005   3.765 -0.2044  0.1351  0.6209
   73SOL    HW2 1640   7.802   2.871   3.718  0.2003  0.1679  0.0672
   74SOL     OW 1641   0.627   2.064   2.174  0.0983  0.2841 -0.0702
   74SOL    HW1 1642   0.663   2.032   2.091  1.8940 -0.3419  0.8872
   74SOL    HW2 1643   0.647   2.158   2.174  0.2691  0.2484 -0.2654
   75SOL     OW 1644   0.480   7.523   3.084 -0.0177 -0.1123  0.3795
   75SOL    HW1 1645   0.410   7.587   3.069 -0.4817 -0.5289  0.7447
   75SOL    HW2 1646   0.549   7.572   3.129 -0.1132  0.2783  0.0995
   76SOL     OW 1647   1.083   5.831   0.179  0.2079  0.8928 -0.6553
   76SOL    HW1 1648   1.137   5.816   0.257 -1.3069 -2.0757 -0.0113
   76SOL    HW2 1649   1.077   5.926   0.172  2.5030  1.2872  1.3191
   77SOL     OW 1650   5.358   3.579   3.551 -0.1448 -0.2780  0.2739
   77SOL    HW1 1651   5.438   3.595   3.501  0.4915 -1.5513  0.8395
   77SOL    HW2 1652   5.384   3.517   3.619 -1.4038  0.0130  1.0602
   78SOL     OW 1653   1.227   4.881   3.853 -0.2039  0.1090  0.6733
   78SOL    HW1 1654   1.263   4.892   3.941  0.1380 -0.0125  0.5508
   78SOL    HW2 1655   1.244   4.790   3.831  2.4373  0.8183 -0.6878
   79SOL     OW 1656   5.281   3.119   5.239 -0.4607 -0.2108 -0.5245
   79SOL    HW1 1657   5.272   3.033   5.199  0.6062 -0.1171 -0.9655
   79SOL    HW2 1658   5.191   3.144   5.261 -1.0775 -0.3259 -2.7011
   80SOL     OW 1659   3.434   3.446   1.857  0.7872 -0.1027  0.3021
   80SOL    HW1 1660   3.465   3.384   1.790  1.9392 -0.7419  1.3836
   80SOL    HW2 1661   3.447   3.400   1.940  1.1554  1.3794  1.0942
   81SOL     OW 1662   2.958   0.256   2.180  0.4077 -0.1082 -0.4632
   81SOL    HW1 1663   2.878   0.306   2.171  0.9808  0.6741 -1.2791
   81SOL    HW2 1664   2.993   0.248   2.092  1.4747 -0.0262 -0.0688
   82SOL     OW 1665   5.082   2.681   7.096  0.3211  0.6431 -0.2271
   82SOL    HW1 1666   5.156   2.652   7.149 -0.9560 -1.5810  0.4757
   82SOL    HW2 1667   5.117   2.686   7.007  1.5210  0.5792  0.2231
   83SOL     OW 1668   7.671   0.713   4.098 -0.4011 -0.1903 -0.5377
   83SOL    HW1 1669   7.693   0.798   4.060  0.7760  0.6738  1.8645
   83SOL    HW2 1670   7.752   0.682   4.137 -1.3817 -1.2367  0.7815
   84SOL     OW 1671   0.828   1.863   2.127  0.3287 -0.2574  0.3023
   84SOL    HW1 1672   0.749   1.867   2.072  0.4687 -0.3829  0.0920
   84SOL    HW2 1673   0.866   1.951   2.120 -0.6533  0.3175  1.6881
   85SOL     OW 1674   3.289   0.313   4.264 -0.2028  0.0392 -0.8211
   85SOL    HW1 1675   3.259   0.308   4.173 -1.2989 -0.9519 -0.4310
   85SOL    HW2 1676   3.211   0.337   4.313 -0.4470 -2.5693  0.2236
   86SOL     OW 1677   7.218   4.761   1.734 -0.6012  0.8764 -0.4364
   86SOL    HW1 1678   7.307   4.725   1.728 -0.7422  0.6912 -1.9845
   86SOL    HW2 1679   7.165   4.700   1.682 -1.3232  1.8792 -0.8966
   87SOL     OW 1680   5.435   0.473   7.178 -0.0681  0.2391 -0.0834
   87SOL    HW1 1681   5.412   0.381   7.161  0.6895  0.2468 -1.2822
   87SOL    HW2 1682   5.506   0.492   7.117  1.5284  0.9119  1.8822
   88SOL     OW 1683   8.212   4.550   0.202  0.4307  0.5588 -0.5782
   88SOL    HW1 1684   8.302   4.565   0.230  0.3567 -2.5006  1.8521
   88SOL    HW2 1685   8.165   4.629   0.228  2.2537  1.9892 -1.4107
   89SOL     OW 1686   2.913   4.228   7.020 -0.2055 -0.2690 -0.8020
   89SOL    HW1 1687   2.984   4.274   6.975 -0.3928 -0.1808 -1.0109
   89SOL    HW2 1688   2.919   4.258   7.111 -1.8660  2.1592 -1.3807
   90SOL     OW 1689   0.105   5.524   5.475 -0.2323  0.4035  0.0872
   90SOL    HW1 1690   0.128   5.441   5.434  0.5097  0.7995 -0.3176
   90SOL    HW2 1691   0.111   5.507   5.569 -1.0380 -0.2590  0.0192
   91SOL     OW 1692   4.875   5.715   1.565  0.3032 -0.0214  0.1251
   91SOL    HW1 1693   4.825   5.652   1.618  0.1108 -0.0570 -0.0997
   91SOL    HW2 1694   4.930   5.661   1.509  0.7238  0.0174  0.4871
   92SOL     OW 1695   3.260   2.342   1.137 -0.5519 -0.0374  0.0238
   92SOL    HW1 1696   3.197   2.371   1.071  0.5840  0.8338 -0.7123
   92SOL    HW2 1697   3.228   2.379   1.219  0.5360  2.9772 -0.7999
   93SOL     OW 1698   5.961   1.060   4.062 -0.5810 -0.0239  0.3300
   93SOL    HW1 1699   5.881   1.038   4.109 -2.4126 -0.5304 -2.7086
   93SOL    HW2 1700   5.957   1.156   4.053 -1.4512 -0.1296 -0.6644
   94SOL     OW 1701   2.079   1.937   4.159  0.2192  0.4825 -0.1576
   94SOL    HW1 1702   2.079   1.953   4.065 -1.6677  1.1742 -0.0787
   94SOL    HW2 1703   1.999   1.886   4.174  0.2835  0.7315  1.1140
   95SOL     OW 1704   6.007   4.732   4.442  0.2382  0.3991  0.6824
   95SOL    HW1 1705   5.979   4.642   4.422 -1.2280  1.0798 -0.5118
   95SOL    HW2 1706   6.092   4.741   4.399  0.6185 -0.5443  1.2056
   96SOL     OW 1707   1.036   5.030   3.103  0.0097 -0.0656  0.5570
   96SOL    HW1 1708   1.034   4.961   3.037  0.7457 -1.8310  2.2512
   96SOL    HW2 1709   0.981   4.996   3.174 -1.1408  1.9655  0.7307
   97SOL     OW 1710   5.185   6.975   1.084  0.5374  0.0966  0.1483
   97SOL    HW1 1711   5.092   6.992   1.100  0.1230 -1.4252 -0.4666
   97SOL    HW2 1712   5.230   7.049   1.125 -0.7886 -0.4004  2.7490
   98SOL     OW 1713   1.270   4.960   7.123 -0.4504 -0.5735 -0.0082
   98SOL    HW1 1714   1.292   4.949   7.030  0.1202 -1.6150  0.2323
   98SOL    HW2 1715   1.188   5.009   7.123  0.1284  0.4216 -1.0352
   99SOL     OW 1716   2.051   4.314   5.533 -0.2974 -0.4473 -0.7564
   99SOL    HW1 1717   1.964   4.348   5.511 -0.2102 -0.2944 -0.8585
   99SOL    HW2 1718   2.082   4.372   5.603 -0.5915 -0.9528 -0.1871
  100SOL     OW 1719   2.462   5.665   0.809  0.7164  0.2077 -0.0051
  100SOL    HW1 1720   2.373   5.698   0.820  0.8860  0.7319 -0.2067
  100SOL    HW2 1721   2.457   5.574   0.839  0.0114  0.0918 -0.4468
  101SOL     OW 1722   4.803   2.887   2.906 -0.5532 -0.4168  1.0844
  101SOL    HW1 1723   4.866   2.946   2.947 -0.9600  0.4588  0.4941
  101SOL    HW2 1724   4.819   2.802   2.946  1.1968 -0.2828  0.7180
  102SOL     OW 1725   6.618   0.670   0.356 -0.1094  0.1742  0.2734
  102SOL    HW1 1726   6.709   0.641   0.349 -0.1741  0.1514 -0.5907
  102SOL    HW2 1727   6.623   0.766   0.356 -0.0971  0.1743  0.0088
  103SOL     OW 1728   0.265   4.268   6.685  0.3785  0.4402 -0.1538
  103SOL    HW1 1729   0.297   4.178   6.679  0.1170  0.4074 -1.1731
  103SOL    HW2 1730   0.277   4.304   6.597 -1.4340  0.7324 -0.3176
  104SOL     OW 1731   1.910   7.040   7.603  0.3746  0.2386 -0.6706
  104SOL    HW1 1732   1.887   6.952   7.574 -0.2471  0.0446  0.3579
  104SOL    HW2 1733   1.954   7.080   7.528  0.6643 -0.9465 -1.1484
  105SOL     OW 1734   3.912   3.863   0.068  0.6237  0.4869  0.2257
  105SOL    HW1 1735   3.858   3.796   0.028 -0.1872  0.7107  0.9016
  105SOL    HW2 1736   3.926   3.928  -0.001 -1.3887  1.2483  0.4666
  106SOL     OW 1737   7.107   5.970   6.975 -0.1639  0.1281  0.0505
  106SOL    HW1 1738   7.162   5.938   6.904 -1.4604  0.1667 -0.9919
  106SOL    HW2 1739   7.166   5.973   7.051  0.9651 -0.9664 -0.7408
  107SOL     OW 1740   0.816   5.224   5.191  0.3489 -0.0065  0.0858
  107SOL    HW1 1741   0.885   5.158   5.191  0.7824  0.4459  0.3436
  107SOL    HW2 1742   0.832   5.277   5.269  0.9498  1.3811 -0.9393
  108SOL     OW 1743   2.095   3.002   4.321 -0.0620  0.4908  0.3959
  108SOL    HW1 1744   2.096   2.935   4.390  0.0422  0.5988  0.5010
  108SOL    HW2 1745   2.006   3.038   4.324  0.2728  1.3063  1.2704
  109SOL     OW 1746   3.237   1.361   2.902  0.0122 -0.2282  0.1337
  109SOL    HW1 1747   3.201   1.414   2.973 -0.0761 -1.7655  1.2867
  109SOL    HW2 1748   3.307   1.414   2.865 -0.5230  0.9598  0.7904
  110SOL     OW 1749   3.452   8.055   4.720 -0.5533  0.8910 -0.4673
  110SOL    HW1 1750   3.547   8.059   4.735 -0.4313  1.7651 -1.3563
  110SOL    HW2 1751   3.443   8.064   4.625 -1.5876  2.2049 -0.2690
  111SOL     OW 1752   4.020   7.517   1.500  0.0111 -0.5131  0.1226
  111SOL    HW1 1753   3.935   7.541   1.465 -0.3936 -0.4635  1.1163
  111SOL    HW2 1754   4.005   7.502   1.594  1.3447  0.8568  0.6035
  112SOL     OW 1755   1.775   5.542   2.699 -0.0206 -0.2679  0.4594
  112SOL    HW1 1756   1.796   5.549   2.606  1.1100  0.7241  0.7652
  112SOL    HW2 1757   1.826   5.467   2.729  0.1931 -0.1294  0.4404
  113SOL     OW 1758   8.223   8.292   6.025 -0.0013  0.2444  0.2360
  113SOL    HW1 1759   8.225   8.294   5.929 -0.3078 -1.0074  0.1857
  113SOL    HW2 1760   8.131   8.307   6.047  0.2437  1.6101  0.3883
  114SOL     OW 1761   3.974   6.216   1.046 -0.5219  0.4136 -0.1381
  114SOL    HW1 1762   4.004   6.278   1.112 -1.0426 -0.0138  0.5212
  114SOL    HW2 1763   3.985   6.130   1.087  0.3788  0.0378 -1.1092
  115SOL     OW 1764   3.871   5.013   0.912 -0.2754 -0.4761  0.4679
  115SOL    HW1 1765   3.958   5.013   0.953  0.0909  2.5255 -0.1156
  115SOL    HW2 1766   3.812   5.045   0.981 -0.1373  1.6804 -0.3330
  116SOL     OW 1767   4.349   1.636   5.105 -0.1393 -0.8005 -0.5930
  116SOL    HW1 1768   4.362   1.594   5.020  0.4324  0.7748 -1.3221
  116SOL    HW2 1769   4.415   1.597   5.161 -0.5684 -1.9093 -0.8214
  117SOL     OW 1770   2.052   4.772   4.830  0.4107  0.1713 -0.6517
  117SOL    HW1 1771   2.109   4.731   4.895 -2.2123 -0.0519  1.6698
  117SOL    HW2 1772   1.993   4.703   4.802  0.2993  0.7395 -1.8952
  118SOL     OW 1773   2.642   7.447   1.113 -0.2343  0.6183 -0.1089
  118SOL    HW1 1774   2.684   7.500   1.181 -0.3793  0.5563  0.0312
  118SOL    HW2 1775   2.630   7.508   1.040  1.4528  0.2713 -0.7214
  119SOL     OW 1776   5.977   2.661   5.286 -0.1150 -0.0895 -0.1455
  119SOL    HW1 1777   5.983   2.570   5.259  2.4975  0.1554 -0.5733
  119SOL    HW2 1778   5.912   2.700   5.227 -1.5402 -1.6953  0.2843
  120SOL     OW 1779   4.460   6.289   0.914  0.0833 -0.2050 -0.3881
  120SOL    HW1 1780   4.499   6.348   0.850 -0.9137  0.1834 -0.6665
  120SOL    HW2 1781   4.367   6.286   0.890 -1.0988  2.5851  2.9062
  121SOL     OW 1782   3.286   5.606   5.969  0.2475  0.5223  0.3982
  121SOL    HW1 1783   3.307   5.547   6.042  0.4109 -0.5615 -0.5111
  121SOL    HW2 1784   3.350   5.585   5.901  0.2056  1.6433 -0.0180
  122SOL     OW 1785   3.738   5.513   2.159 -0.3030 -0.0934  0.3430
  122SOL    HW1 1786   3.833   5.507   2.173 -0.0995 -1.2458 -1.2774
  122SOL    HW2 1787   3.727   5.500   2.064 -2.1789 -1.2043  0.6657
  123SOL     OW 1788   5.755   0.180   1.073 -0.0300  0.2893  0.2680
  123SOL    HW1 1789   5.677   0.236   1.069  0.1939  0.5579 -0.5680
  123SOL    HW2 1790   5.720   0.091   1.074 -0.3743  0.4274  1.0282
  124SOL     OW 1791   4.919   6.110   7.925  0.0708 -0.2815 -0.2839
  124SOL    HW1 1792   4.976   6.128   7.999  0.7630 -1.8539 -0.3953
  124SOL    HW2 1793   4.977   6.109   7.849 -0.5775  0.9566 -0.8420
  125SOL     OW 1794   1.395   8.245   1.398 -0.1145  0.2759  0.5085
  125SOL    HW1 1795   1.309   8.203   1.387 -0.1407  0.4063  0.1925
  125SOL    HW2 1796   1.457   8.179   1.367 -0.1645  0.5125 -0.1147
  126SOL     OW 1797   0.360   6.991   7.931  0.2499 -0.4490 -0.0301
  126SOL    HW1 1798   0.439   7.041   7.954  0.7757 -1.0601 -0.4666
  126SOL    HW2 1799   0.388   6.900   7.933 -1.0283 -0.8483  2.0340
  127SOL     OW 1800   8.270   8.028   7.280  0.1239 -0.0721 -0.7574
  127SOL    HW1 1801   8.186   8.029   7.325 -0.0979 -1.6179 -1.0811
  127SOL    HW2 1802   8.267   8.106   7.223 -0.2492  0.9845  0.6470
  128SOL     OW 1803   2.692   2.727   6.134  0.5955  0.1935  0.2232
  128SOL    HW1 1804   2.641   2.670   6.193  2.9696 -0.2121  2.0439
  128SOL    HW2 1805   2.781   2.693   6.140  1.3934  1.8038 -1.6456
  129SOL     OW 1806   7.026   4.947   1.505  0.1396 -0.6881 -0.8241
  129SOL    HW1 1807   7.036   4.973   1.597  0.4261  0.3115 -1.1300
  129SOL    HW2 1808   6.939   4.906   1.502  0.4566 -1.4514  0.0469
  130SOL     OW 1809   0.610   1.215   3.848  0.1233  0.2316 -0.4389
  130SOL    HW1 1810   0.590   1.206   3.942  0.0212  0.6591 -0.4171
  130SOL    HW2 1811   0.603   1.309   3.831  1.3800  0.3085 -0.6048
  131SOL     OW 1812   7.574   2.391   2.447  0.7836  0.2858  0.7944
  131SOL    HW1 1813   7.499   2.436   2.485 -1.6661 -0.0140 -3.2106
  131SOL    HW2 1814   7.571   2.303   2.484  0.2271  0.7775  1.9553
  132SOL     OW 1815   5.903   1.639   4.537 -0.2468  0.2638  0.1112
  132SOL    HW1 1816   5.878   1.707   4.600 -0.3105 -0.7621  1.2264
  132SOL    HW2 1817   5.820   1.600   4.510 -0.0993 -1.9168  2.4287
  133SOL     OW 1818   7.132   0.188   4.742 -0.7456 -0.3503  0.1855
  133SOL    HW1 1819   7.129   0.280   4.769 -2.6648 -0.7751  1.6555
  133SOL    HW2 1820   7.184   0.144   4.810 -0.9517 -0.5501  0.2157
  134SOL     OW 1821   0.582   0.064   7.832  0.5022 -0.2299  0.4757
  134SOL    HW1 1822   0.515   0.118   7.875  0.9993 -0.3941  1.4842
  134SOL    HW2 1823   0.665   0.101   7.862  0.9265 -3.0418  3.3007
  135SOL     OW 1824   0.024   0.509   3.456  0.4527 -0.1126  0.3033
  135SOL    HW1 1825  -0.050   0.455   3.483 -0.4337 -0.0103 -1.7811
  135SOL    HW2 1826  -0.000   0.598   3.483 -0.1756 -0.0869 -0.3311
  136SOL     OW 1827   7.196   1.641   5.255  0.5191 -0.0923 -0.1044
  136SOL    HW1 1828   7.103   1.646   5.232  1.2347  1.3428 -3.2759
  136SOL    HW2 1829   7.218   1.548   5.247 -0.3134 -0.2285 -0.9639
  137SOL     OW 1830   4.909   5.255   1.309  0.2085  0.0503  0.0361
  137SOL    HW1 1831   4.867   5.248   1.395 -0.9089  1.6061 -0.3211
  137SOL    HW2 1832   4.857   5.321   1.263  0.4663 -1.1070 -2.0373
  138SOL     OW 1833   5.748   2.517   1.734 -0.4308  0.0192 -0.4846
  138SOL    HW1 1834   5.686   2.506   1.662 -0.2116  1.5974 -0.9615
  138SOL    HW2 1835   5.771   2.610   1.731  1.0127 -0.2795  0.4523
  139SOL     OW 1836   4.878   3.384   6.891 -0.0525  0.3164  0.1775
  139SOL    HW1 1837   4.797   3.388   6.840 -0.4383 -0.2569  0.7389
  139SOL    HW2 1838   4.866   3.310   6.950  0.7861  0.3747  0.4362
  140SOL     OW 1839   4.152   1.788   7.886 -0.7054 -0.1152  0.2422
  140SOL    HW1 1840   4.064   1.811   7.855 -1.3680 -0.6514  1.6544
  140SOL    HW2 1841   4.180   1.864   7.937 -0.0980  0.2901 -0.6741
  141SOL     OW 1842   6.461   2.216   4.397  0.1480  0.4428 -0.1753
  141SOL    HW1 1843   6.385   2.167   4.367  0.0055  0.8007 -0.4150
  141SOL    HW2 1844   6.447   2.227   4.492  0.2394 -0.0671 -0.1017
  142SOL     OW 1845   4.315   7.696   4.591 -0.3686 -0.5891 -0.1006
  142SOL    HW1 1846   4.406   7.670   4.606 -0.4873 -1.2858 -0.5471
  142SOL    HW2 1847   4.263   7.629   4.635 -0.6751  0.0825  0.5892
  143SOL     OW 1848   6.433   4.701   1.871  0.4603  0.1966 -0.5360
  143SOL    HW1 1849   6.517   4.745   1.857  0.5978 -0.0758 -0.5935
  143SOL    HW2 1850   6.367   4.768   1.859  0.7344  0.8108  1.0860
  144SOL     OW 1851   8.188   4.197   7.382 -0.4097 -0.1200  0.0542
  144SOL    HW1 1852   8.238   4.117   7.367 -2.7241 -1.6540  0.0413
  144SOL    HW2 1853   8.190   4.210   7.477  1.9698  1.2534 -0.1103
  145SOL     OW 1854   7.845   0.662   0.318 -0.2948  0.2941 -0.0590
  145SOL    HW1 1855   7.823   0.745   0.362 -3.6708 -0.2376 -0.4503
  145SOL    HW2 1856   7.801   0.595   0.371  0.4645 -0.9989 -1.0209
  146SOL     OW 1857   1.766   3.729   2.564  0.4382 -0.1867 -0.1243
  146SOL    HW1 1858   1.812   3.748   2.646 -0.3063  0.0475  0.2565
  146SOL    HW2 1859   1.712   3.807   2.548 -1.0368 -1.0705  0.3134
  147SOL     OW 1860   7.128   1.826   7.526  0.0562  0.1202 -0.1960
  147SOL    HW1 1861   7.117   1.893   7.458  2.2664 -0.1854 -0.9415
  147SOL    HW2 1862   7.222   1.806   7.525  0.0721 -0.3760  2.5090
  148SOL     OW 1863   1.822   4.252   2.718  0.2121 -0.8295  0.4922
  148SOL    HW1 1864   1.817   4.218   2.628 -2.6884 -0.6990  0.5257
  148SOL    HW2 1865   1.792   4.179   2.772 -0.7372 -0.0288  1.0738
  149SOL     OW 1866   4.803   1.053   2.774  0.1699  0.0037 -0.0812
  149SOL    HW1 1867   4.758   1.005   2.844  0.5509 -1.7013 -0.9658
  149SOL    HW2 1868   4.829   0.986   2.712  0.7058  1.3868 -1.4000
  150SOL     OW 1869   7.639   5.034   1.008  0.1749 -0.4698  0.7411
  150SOL    HW1 1870   7.657   5.001   0.919 -0.0338 -1.2772  0.9869
  150SOL    HW2 1871   7.680   5.120   1.010  3.5799 -1.9616  1.0878
  151SOL     OW 1872   2.801   7.103   7.553 -0.0367  0.2271 -0.0119
  151SOL    HW1 1873   2.885   7.069   7.583 -0.3328 -0.6562 -0.1482
  151SOL    HW2 1874   2.799   7.193   7.583  1.2610  0.4705 -0.6094
  152SOL     OW 1875   6.689   7.721   7.968  0.6142 -0.2093  0.4529
  152SOL    HW1 1876   6.724   7.810   7.956  2.7070 -1.2487 -2.2164
  152SOL    HW2 1877   6.617   7.715   7.906 -0.6907  0.0959  1.8732
  153SOL     OW 1878   2.057   0.484   5.298 -0.0976 -0.2820 -0.4319
  153SOL    HW1 1879   1.977   0.480   5.245 -0.8999  0.4538  0.6832
  153SOL    HW2 1880   2.103   0.561   5.266  0.1023 -0.6214 -0.9767
  154SOL     OW 1881   6.517   2.771   5.804 -0.1898 -0.0762 -0.9252
  154SOL    HW1 1882   6.605   2.789   5.837 -0.4564 -0.7363  0.2111
  154SOL    HW2 1883   6.531   2.733   5.717  0.6233  0.1750 -0.9117
  155SOL     OW 1884   1.313   0.321   3.775  0.2667  0.1594 -0.2760
  155SOL    HW1 1885   1.376   0.387   3.744  1.3404 -0.3609  0.6976
  155SOL    HW2 1886   1.271   0.289   3.696  2.0700 -0.2856 -1.1038
  156SOL     OW 1887   5.512   2.809   4.402 -0.6228 -0.2322  0.0958
  156SOL    HW1 1888   5.552   2.723   4.412  0.0199  0.1490  0.9755
  156SOL    HW2 1889   5.581   2.870   4.429 -1.8543  0.4345  1.9248
  157SOL     OW 1890   7.447   2.875   0.507  0.3853 -0.0258  0.6099
  157SOL    HW1 1891   7.490   2.873   0.592  1.6678 -1.0629 -0.0143
  157SOL    HW2 1892   7.515   2.906   0.447 -0.0786 -0.5968 -0.2359
  158SOL     OW 1893   7.969   8.083   1.933  0.1697  0.2089  0.8689
  158SOL    HW1 1894   7.957   8.152   1.998 -0.4892  2.1977 -1.2243
  158SOL    HW2 1895   8.041   8.114   1.879  0.0522 -0.8872  0.0539
  159SOL     OW 1896   0.117   0.444   7.802 -0.0526 -0.0734 -0.4252
  159SOL    HW1 1897   0.050   0.481   7.745 -0.0865 -0.0998 -0.4032
  159SOL    HW2 1898   0.147   0.366   7.756 -0.2461 -0.2256 -0.2999
  160SOL     OW 1899   1.414   7.296   4.557 -0.0513 -0.3747 -0.0363
  160SOL    HW1 1900   1.464   7.302   4.476  0.9185 -0.4944  0.5419
  160SOL    HW2 1901   1.478   7.310   4.627 -1.2278  1.8615  0.6828
  161SOL     OW 1902   7.861   4.003   0.840 -0.4885 -0.6723  0.0114
  161SOL    HW1 1903   7.861   3.912   0.810 -1.4056 -0.2798 -1.2864
  161SOL    HW2 1904   7.776   4.038   0.811 -0.2397  0.5448  0.6589
  162SOL     OW 1905   4.625   1.032   6.610  0.2337 -0.4431  0.3402
  162SOL    HW1 1906   4.714   0.997   6.617  0.5015  0.2317  0.3188
  162SOL    HW2 1907   4.617   1.093   6.683  0.7164  1.5063 -1.1771
  163SOL     OW 1908   8.066   0.537   1.614  0.2000 -0.0612 -0.3552
  163SOL    HW1 1909   8.026   0.562   1.530 -0.1996  0.5391  0.0127
  163SOL    HW2 1910   8.103   0.618   1.648  0.3061 -0.2959  0.0867
  164SOL     OW 1911   0.610   5.368   1.936 -0.3931 -0.0531  0.6798
  164SOL    HW1 1912   0.630   5.421   2.013 -1.9899  1.7652 -0.0779
  164SOL    HW2 1913   0.621   5.278   1.965 -0.0638  0.6053  2.7556
  165SOL     OW 1914   4.537   0.343   5.083  0.8384  0.0627 -0.0142
  165SOL    HW1 1915   4.617   0.392   5.064  2.1376 -2.2117 -0.6442
  165SOL    HW2 1916   4.472   0.411   5.104  2.4440  2.0510 -1.1795
  166SOL     OW 1917   5.653   3.572   7.141 -0.0520 -0.1008 -0.6139
  166SOL    HW1 1918   5.628   3.575   7.048 -1.2746 -0.8587 -0.3347
  166SOL    HW2 1919   5.748   3.558   7.139 -0.3763 -2.8623 -1.8233
  167SOL     OW 1920   1.169   2.485   2.051  0.1849 -0.0945  0.0755
  167SOL    HW1 1921   1.083   2.462   2.015  0.4576  1.6983 -1.9164
  167SOL    HW2 1922   1.150   2.508   2.142 -1.2392 -0.9513  0.0305
  168SOL     OW 1923   2.700   6.709   1.315  0.3395  0.4197  0.4331
  168SOL    HW1 1924   2.640   6.683   1.245 -0.3636  1.3506  0.6717
  168SOL    HW2 1925   2.696   6.804   1.317  1.9059  0.5103  0.4102
  169SOL     OW 1926   5.168   5.436   0.629  0.7293 -0.2445 -0.3585
  169SOL    HW1 1927   5.098   5.494   0.660 -0.4548 -2.2807  1.0158
  169SOL    HW2 1928   5.176   5.369   0.697  2.8025 -1.1097 -1.3502
  170SOL     OW 1929   2.243   7.575   2.714  0.1115  0.5626 -0.2125
  170SOL    HW1 1930   2.245   7.653   2.659  1.1174  1.7170  1.3890
  170SOL    HW2 1931   2.267   7.504   2.655 -0.9738  1.4091 -1.7411
  171SOL     OW 1932   7.611   5.449   7.734  0.0242  0.5250 -0.0748
  171SOL    HW1 1933   7.605   5.418   7.825  0.6289 -0.8200 -0.4688
  171SOL    HW2 1934   7.687   5.404   7.698  0.1191  1.4633 -1.1065
  172SOL     OW 1935   3.909   6.149   7.527 -0.5096 -0.4038  0.1916
  172SOL    HW1 1936   3.866   6.230   7.551 -1.7086 -0.7656 -0.6696
  172SOL    HW2 1937   3.848   6.104   7.468  0.7049 -1.2871 -0.4732
  173SOL     OW 1938   1.711   2.834   5.610 -0.6612  0.3795  0.4067
  173SOL    HW1 1939   1.702   2.794   5.696  0.1221  0.1788  0.4054
  173SOL    HW2 1940   1.803   2.861   5.605 -1.0562  1.7705  0.2225
  174SOL     OW 1941   7.337   7.953   6.509 -0.1412 -0.3343 -0.1791
  174SOL    HW1 1942   7.245   7.980   6.519 -0.4667 -2.0746  2.4386
  174SOL    HW2 1943   7.375   7.965   6.596  2.7505  2.1013 -1.5855
  175SOL     OW 1944   0.846   4.078   1.748  0.4747 -0.0201  0.1973
  175SOL    HW1 1945   0.838   3.987   1.721 -1.2252  0.4924 -1.2091
  175SOL    HW2 1946   0.902   4.118   1.681 -1.4107  0.6233 -1.0762
  176SOL     OW 1947   6.871   4.917   4.657  0.5648 -0.1224  0.4393
  176SOL    HW1 1948   6.862   4.908   4.752  0.6909 -1.0835  0.3646
  176SOL    HW2 1949   6.950   4.970   4.645  0.3512  0.3048  0.8707
  177SOL     OW 1950   4.224   5.359   5.357  0.9061 -0.2534 -0.4653
  177SOL    HW1 1951   4.192   5.432   5.305  0.5464 -1.1711 -1.5852
  177SOL    HW2 1952   4.317   5.376   5.369  0.4015  1.5391  1.2807
  178SOL     OW 1953   0.770   1.412   8.165 -0.0567 -0.3439  0.1755
  178SOL    HW1 1954   0.678   1.415   8.193  0.5805 -2.1273  2.8908
  178SOL    HW2 1955   0.818   1.456   8.234  1.2679 -0.7470 -0.4468
  179SOL     OW 1956   7.778   7.520   0.838 -0.0180  0.7294 -0.3604
  179SOL    HW1 1957   7.770   7.539   0.931  0.0536  0.8531 -0.3782
  179SOL    HW2 1958   7.870   7.536   0.818  0.7430 -2.4064  0.2149
  180SOL     OW 1959   5.570   7.602   0.551  0.0457  0.8969  0.6682
  180SOL    HW1 1960   5.654   7.567   0.579 -0.2430  0.3453  0.8609
  180SOL    HW2 1961   5.529   7.529   0.504  0.0923  1.4773 -0.2954
  181SOL     OW 1962   3.110   1.540   0.866  0.1372 -0.5808 -0.3893
  181SOL    HW1 1963   3.156   1.592   0.800 -0.2752 -2.0063 -1.8614
  181SOL    HW2 1964   3.020   1.537   0.835 -0.5182  0.3566  1.3157
  182SOL     OW 1965   1.854   7.335   3.359 -0.0945 -0.1288 -0.1078
  182SOL    HW1 1966   1.908   7.264   3.395 -1.5903 -0.8740  0.7701
  182SOL    HW2 1967   1.865   7.407   3.421 -0.5117 -0.4720  0.3783
  183SOL     OW 1968   6.096   8.321   2.843 -0.0441 -0.2559 -0.7852
  183SOL    HW1 1969   6.175   8.303   2.792  0.9116  0.6983  0.3055
  183SOL    HW2 1970   6.024   8.305   2.782  0.9510 -1.8258 -1.5943
  184SOL     OW 1971   8.301   1.713   5.754  0.4320 -0.0047  0.5175
  184SOL    HW1 1972   8.253   1.793   5.732 -0.1867 -0.6081 -0.4127
  184SOL    HW2 1973   8.345   1.733   5.837  0.2000  1.2526  0.3536
  185SOL     OW 1974   7.297   7.987   0.265  0.7720 -0.3855 -0.0153
  185SOL    HW1 1975   7.256   8.002   0.350  0.9954 -0.2943  0.0766
  185SOL    HW2 1976   7.304   7.892   0.258  0.8290 -0.3900  0.1042
  186SOL     OW 1977   5.249   2.602   4.683 -0.5063 -0.1666 -0.6020
  186SOL    HW1 1978   5.265   2.683   4.731 -0.5275  0.4945 -1.6711
  186SOL    HW2 1979   5.334   2.578   4.646 -0.7728  0.1600 -1.4563
  187SOL     OW 1980   3.869   0.844   0.296 -0.3287  0.2980 -0.2106
  187SOL    HW1 1981   3.872   0.925   0.347  1.6602  1.9834 -2.7906
  187SOL    HW2 1982   3.936   0.788   0.336 -1.0326  0.2348  0.9549
  188SOL     OW 1983   2.827   7.085   0.054 -0.3032 -0.1600  0.1959
  188SOL    HW1 1984   2.738   7.050   0.049  0.6661 -2.7569 -1.2620
  188SOL    HW2 1985   2.816   7.178   0.071 -3.2853 -0.3949  0.0587
  189SOL     OW 1986   5.938   1.605   7.599  0.3919 -0.0835 -0.3095
  189SOL    HW1 1987   5.880   1.584   7.672  1.5841  0.2162  0.7513
  189SOL    HW2 1988   5.925   1.699   7.585  1.0763  0.1226  0.3636
  190SOL     OW 1989   2.249   6.119   1.459 -0.3760 -0.5601  0.0067
  190SOL    HW1 1990   2.335   6.140   1.423 -1.4675 -1.7029 -3.6595
  190SOL    HW2 1991   2.209   6.205   1.475  0.7054 -0.0132 -0.1224
  191SOL     OW 1992   4.802   8.291   0.228  0.3909  0.6494  0.0135
  191SOL    HW1 1993   4.856   8.362   0.193 -0.5316  0.6556 -1.4978
  191SOL    HW2 1994   4.712   8.321   0.214 -0.0214 -0.8414 -0.7751
  192SOL     OW 1995   6.346   2.791   2.116  0.4386 -0.2487 -0.0581
  192SOL    HW1 1996   6.386   2.747   2.191  1.3355  1.1032  0.2896
  192SOL    HW2 1997   6.300   2.866   2.153  1.7019  1.0009 -0.9039
  193SOL     OW 1998   7.719   4.743   3.927  0.6031  0.8089 -0.1435
  193SOL    HW1 1999   7.632   4.706   3.916  0.1926  2.3669 -2.9138
  193SOL    HW2 2000   7.769   4.673   3.969 -0.8475 -1.8073 -2.4273
  194SOL     OW 2001   5.092   1.412   2.164 -0.1494 -0.3001 -0.4179
  194SOL    HW1 2002   5.046   1.329   2.175  1.8569 -1.5156 -0.6122
  194SOL    HW2 2003   5.132   1.428   2.249  0.5138 -0.2219 -0.7390
  195SOL     OW 2004   6.370   2.153   5.269  0.6018 -0.3516  0.1407
  195SOL    HW1 2005   6.338   2.241   5.286  0.2243 -0.6241  0.9008
  195SOL    HW2 2006   6.447   2.165   5.213 -1.0463  0.3186 -2.1275
  196SOL     OW 2007   1.329   4.544   3.509 -0.1247 -0.1182  0.3306
  196SOL    HW1 2008   1.387   4.608   3.468  1.0996 -1.3445  0.0893
  196SOL    HW2 2009   1.385   4.497   3.571 -0.8723 -1.2944  0.1427
  197SOL     OW 2010   5.232   5.390   1.173 -0.1702  0.1201  0.1016
  197SOL    HW1 2011   5.264   5.320   1.116  0.0584 -0.3569  0.8016
  197SOL    HW2 2012   5.263   5.366   1.260 -0.2966  0.9717  0.3913
  198SOL     OW 2013   3.365   2.074   2.089  0.3956 -0.0909  0.1145
  198SOL    HW1 2014   3.380   2.004   2.025  1.6962  0.1578  0.1148
  198SOL    HW2 2015   3.297   2.129   2.050 -2.2974 -2.5016  1.0640
  199SOL     OW 2016   0.608   2.016   7.094  0.4959  0.0207  0.4611
  199SOL    HW1 2017   0.703   2.002   7.098  0.4882 -0.0395  0.4230
  199SOL    HW2 2018   0.598   2.095   7.041  0.6018  0.8133  1.5857
  200SOL     OW 2019   3.745   3.133   6.163 -0.3985  0.6308  0.4731
  200SOL    HW1 2020   3.654   3.161   6.150  0.0119  2.1598  0.6935
  200SOL    HW2 2021   3.741   3.071   6.235 -1.6007 -1.5094 -1.2999
  201SOL     OW 2022   6.035   1.763   7.306 -0.5579  0.1278  0.4833
  201SOL    HW1 2023   6.127   1.755   7.282 -0.8917 -1.4615 -0.4671
  201SOL    HW2 2024   6.035   1.804   7.392  1.0107  0.3366  0.4085
  202SOL     OW 2025   1.796   4.404   5.458 -1.3832  0.3243 -0.2755
  202SOL    HW1 2026   1.821   4.460   5.531  0.3132 -1.1133  0.3486
  202SOL    HW2 2027   1.776   4.464   5.386 -0.4391  1.7360  0.5917
  203SOL     OW 2028   7.023   1.580   4.597 -0.2178  0.3843  0.0338
  203SOL    HW1 2029   6.932   1.551   4.592  0.0161 -0.7821  1.5820
  203SOL    HW2 2030   7.036   1.602   4.689  1.7335 -1.9532  0.4191
  204SOL     OW 2031   2.365   0.310   8.242 -0.7857  0.0949  0.0571
  204SOL    HW1 2032   2.376   0.252   8.166 -0.4635  2.3407 -1.7326
  204SOL    HW2 2033   2.270   0.323   8.248 -0.7330  1.3069 -1.1647
  205SOL     OW 2034   7.798   1.966   0.975 -0.2064 -0.5231 -0.1029
  205SOL    HW1 2035   7.791   2.045   1.029 -0.4936 -0.5589 -0.0895
  205SOL    HW2 2036   7.883   1.975   0.932 -0.4201 -0.0007 -0.4307
  206SOL     OW 2037   2.567   2.534   4.768  1.0371  0.4711  0.1045
  206SOL    HW1 2038   2.573   2.438   4.763 -1.5293  0.3073 -1.6254
  206SOL    HW2 2039   2.604   2.556   4.853  4.2136 -1.7547 -0.4850
  207SOL     OW 2040   3.937   3.431   7.068 -0.2644  0.3538  0.2174
  207SOL    HW1 2041   3.894   3.377   7.001 -0.0076  1.3260 -0.7431
  207SOL    HW2 2042   3.865   3.460   7.124 -0.3533 -1.4154  1.1017
  208SOL     OW 2043   4.559   3.581   6.397  0.3987 -0.6835 -0.3491
  208SOL    HW1 2044   4.566   3.669   6.433  0.3283 -0.5639 -0.6258
  208SOL    HW2 2045   4.643   3.566   6.353 -0.0316 -0.2969 -1.3206
  209SOL     OW 2046   7.371   7.785   2.524  0.3881  0.3429 -0.3343
  209SOL    HW1 2047   7.278   7.763   2.521  0.6704 -1.0732  0.2962
  209SOL    HW2 2048   7.377   7.853   2.591  0.1871 -2.1018  2.3734
  210SOL     OW 2049   6.301   6.993   5.626 -0.3417 -0.3406  0.6282
  210SOL    HW1 2050   6.273   6.909   5.663 -0.1376 -0.5404  0.3385
  210SOL    HW2 2051   6.367   7.026   5.687 -0.8046 -0.1338  1.0214
  211SOL     OW 2052   4.128   4.054   3.216  0.2684  0.2230  0.1949
  211SOL    HW1 2053   4.169   4.024   3.297  0.6334 -0.2858 -0.1636
  211SOL    HW2 2054   4.137   3.980   3.156 -2.3651 -0.4232  0.4738
  212SOL     OW 2055   1.621   7.834   5.391  0.6968  0.4179  0.6288
  212SOL    HW1 2056   1.652   7.924   5.401 -1.3041  1.1954  0.4110
  212SOL    HW2 2057   1.533   7.844   5.355  1.3338 -1.6956 -1.8401
  213SOL     OW 2058   3.509   3.827   3.697  0.2646  0.1500 -0.7412
  213SOL    HW1 2059   3.560   3.892   3.648 -0.4469  2.4298  1.3137
  213SOL    HW2 2060   3.441   3.800   3.637  0.8530  0.9789 -1.8246
  214SOL     OW 2061   2.815   6.192   1.201 -0.2933  0.2031 -0.2766
  214SOL    HW1 2062   2.737   6.151   1.165 -0.2492 -0.1397  0.0133
  214SOL    HW2 2063   2.816   6.280   1.162 -1.1831  0.4481  0.2127
  215SOL     OW 2064   1.576   1.970   3.085  0.1011 -0.0152  0.0134
  215SOL    HW1 2065   1.553   1.948   3.175 -2.5417  1.6579 -0.1582
  215SOL    HW2 2066   1.662   2.012   3.091  0.2015 -0.4067  1.6527
  216SOL     OW 2067   1.081   3.279   0.185  0.0668  0.1503  0.3745
  216SOL    HW1 2068   1.134   3.202   0.167 -0.6758 -0.9111  2.3745
  216SOL    HW2 2069   1.041   3.302   0.101  2.5696  0.1813 -0.8892
  217SOL     OW 2070   3.160   5.063   7.009  0.1295 -0.5842  0.2701
  217SOL    HW1 2071   3.212   5.070   7.089 -0.7489 -0.8929  0.8840
  217SOL    HW2 2072   3.133   5.153   6.990  0.6261 -0.4624  0.1141
  218SOL     OW 2073   0.035   1.488   0.732  0.4941 -0.2461  0.3207
  218SOL    HW1 2074   0.071   1.404   0.704 -2.2437 -2.2018  2.1133
  218SOL    HW2 2075   0.111   1.546   0.740  2.7808 -3.0771  0.7920
  219SOL     OW 2076   2.656   4.408   4.756  0.0312  0.0634 -0.0820
  219SOL    HW1 2077   2.602   4.371   4.687 -1.4689 -0.4352  1.3243
  219SOL    HW2 2078   2.626   4.367   4.837  2.5206 -0.2463  0.7844
  220SOL     OW 2079   3.565   1.395   4.463  0.5087 -0.0336  0.0372
  220SOL    HW1 2080   3.645   1.432   4.427  0.0342 -0.9557 -2.0811
  220SOL    HW2 2081   3.594   1.318   4.512  1.2148  1.5311  2.2420
  221SOL     OW 2082   8.142   5.381   5.366 -0.4892 -0.4786 -0.4678
  221SOL    HW1 2083   8.161   5.438   5.441 -4.1007 -0.7150  0.8622
  221SOL    HW2 2084   8.157   5.436   5.289  2.8812 -0.0805  0.3255
  222SOL     OW 2085   5.585   4.004   3.502  0.1194 -0.3982 -0.5006
  222SOL    HW1 2086   5.509   3.954   3.531 -0.1434 -0.3481 -1.0815
  222SOL    HW2 2087   5.563   4.031   3.413  1.2731 -1.3122 -1.0881
  223SOL     OW 2088   6.087   8.335   5.340 -0.1073  0.4292  0.3673
  223SOL    HW1 2089   6.110   8.415   5.388 -0.8758  0.8017  0.1371
  223SOL    HW2 2090   6.151   8.270   5.369 -0.6541  0.5852  2.0285
  224SOL     OW 2091   4.494   7.006   0.304 -0.8374 -0.0929  0.7573
  224SOL    HW1 2092   4.534   7.048   0.381 -0.4107  1.0783 -0.0801
  224SOL    HW2 2093   4.407   6.979   0.334 -1.0494  1.2233  1.4001
  225SOL     OW 2094   8.247   5.221   2.568  0.4853 -0.4422  0.0991
  225SOL    HW1 2095   8.224   5.259   2.483  0.4587  1.1194  0.7775
  225SOL    HW2 2096   8.185   5.148   2.578  2.2091 -2.4203 -2.3718
  226SOL     OW 2097   8.105   5.081   7.339  0.6398 -0.0033 -0.0317
  226SOL    HW1 2098   8.083   5.032   7.260 -1.1715  1.2278 -0.3516
  226SOL    HW2 2099   8.155   5.157   7.307  1.4309 -0.4175  0.2077
  227SOL     OW 2100   1.974   6.784   2.397 -0.5664  0.2518  0.2083
  227SOL    HW1 2101   1.894   6.800   2.447 -0.3365 -1.0677  1.0414
  227SOL    HW2 2102   1.969   6.846   2.324 -2.0956  0.5360  0.5127
  228SOL     OW 2103   5.469   7.858   8.247 -0.1583 -0.1704 -0.7857
  228SOL    HW1 2104   5.533   7.894   8.185 -0.0701 -2.1254 -1.9022
  228SOL    HW2 2105   5.520   7.839   8.326 -0.0643  1.3219 -0.4427
  229SOL     OW 2106   5.848   3.409   3.853  0.7185 -0.5550  0.0425
  229SOL    HW1 2107   5.780   3.466   3.889  1.7295  0.2320  0.7643
  229SOL    HW2 2108   5.804   3.325   3.837 -0.5492  0.1164 -0.0736
  230SOL     OW 2109   5.541   0.110   3.916  0.0599 -0.1247 -0.5528
  230SOL    HW1 2110   5.513   0.165   3.989  1.6778 -0.0996  0.0903
  230SOL    HW2 2111   5.478   0.128   3.847 -1.1388  0.3361  0.6176
  231SOL     OW 2112   4.822   1.149   1.041  0.2196 -0.6924  0.7664
  231SOL    HW1 2113   4.795   1.152   0.949 -1.2004 -0.9876  1.1409
  231SOL    HW2 2114   4.761   1.207   1.086 -0.9533 -2.6740  1.9057
  232SOL     OW 2115   3.647   6.549   1.950  0.2564 -0.0155 -0.3120
  232SOL    HW1 2116   3.635   6.635   1.991  1.9561  0.1156  0.0023
  232SOL    HW2 2117   3.617   6.561   1.860  0.4288  0.8913 -0.2590
  233SOL     OW 2118   3.990   2.147   5.130 -0.1359 -0.1208 -0.3076
  233SOL    HW1 2119   4.041   2.195   5.195 -3.0630  1.1224  1.2760
  233SOL    HW2 2120   3.986   2.058   5.164 -0.0823  0.0713  0.2220
  234SOL     OW 2121   6.020   6.117   1.210 -0.0279 -0.0350  0.3357
  234SOL    HW1 2122   6.072   6.143   1.286 -0.6903  0.3089  0.6818
  234SOL    HW2 2123   6.082   6.117   1.137  0.2459  1.4528  0.5280
  235SOL     OW 2124   7.310   4.465   0.447 -0.7463 -0.0219  0.0830
  235SOL    HW1 2125   7.260   4.436   0.523 -2.0052  0.7918 -0.3920
  235SOL    HW2 2126   7.325   4.386   0.396 -0.2218 -0.5092  0.9823
  236SOL     OW 2127   4.411   2.503   3.822  0.5243  0.4033  0.2475
  236SOL    HW1 2128   4.422   2.417   3.862  1.0476  0.1188 -0.4890
  236SOL    HW2 2129   4.476   2.558   3.866  1.1721  0.0647 -0.2649
  237SOL     OW 2130   3.119   8.092   3.888  0.2655 -0.5893  0.1179
  237SOL    HW1 2131   3.087   8.181   3.903  1.5314  0.0428 -0.7382
  237SOL    HW2 2132   3.058   8.054   3.826 -0.5594 -0.5016  0.8559
  238SOL     OW 2133   1.519   1.959   3.712 -0.4400  0.7467 -0.1808
  238SOL    HW1 2134   1.515   1.974   3.806 -1.2215  1.5505 -0.3202
  238SOL    HW2 2135   1.459   1.886   3.697  0.1485  0.2210  0.0137
  239SOL     OW 2136   4.416   0.607   6.316  0.3451 -0.2538  0.0126
  239SOL    HW1 2137   4.365   0.671   6.365  0.1798  0.2791 -0.8402
  239SOL    HW2 2138   4.491   0.656   6.282  2.0072 -1.2248  2.0512
  240SOL     OW 2139   0.452   2.123   6.571  0.3295  0.4549  0.2790
  240SOL    HW1 2140   0.426   2.132   6.662 -1.2117  0.4919 -0.1341
  240SOL    HW2 2141   0.520   2.189   6.559  1.7618 -0.6619  1.7955
  241SOL     OW 2142   4.510   6.600   8.029 -0.4777  0.1434  0.1876
  241SOL    HW1 2143   4.492   6.689   7.999  1.1447  0.4810  0.1297
  241SOL    HW2 2144   4.520   6.550   7.948  0.2143  0.2681  0.1880
  242SOL     OW 2145   3.425   5.961   4.705  0.5301  0.1608  0.4759
  242SOL    HW1 2146   3.440   5.919   4.790 -1.3290 -0.5818  0.5016
  242SOL    HW2 2147   3.330   5.979   4.705  0.5892  0.5716 -1.2528
  243SOL     OW 2148   7.752   0.467   5.193  0.0159  0.3685 -0.0049
  243SOL    HW1 2149   7.710   0.517   5.264 -2.9439  0.4420 -1.6293
  243SOL    HW2 2150   7.803   0.400   5.238  0.9425  2.3841  2.1930
  244SOL     OW 2151   2.606   4.382   3.320 -0.2139  0.2862  0.1044
  244SOL    HW1 2152   2.580   4.364   3.229 -2.2323 -3.1593  1.1426
  244SOL    HW2 2153   2.695   4.348   3.327 -0.2347  0.1033 -0.4805
  245SOL     OW 2154   8.099   4.698   1.760 -0.2261  0.2875  0.2374
  245SOL    HW1 2155   8.117   4.732   1.673 -0.8393 -1.4883 -0.6280
  245SOL    HW2 2156   8.184   4.672   1.794 -0.0042  0.8408  0.1094
  246SOL     OW 2157   5.489   4.948   0.782 -0.0221 -0.2371 -0.3883
  246SOL    HW1 2158   5.395   4.946   0.802 -0.1807 -1.1872 -1.1691
  246SOL    HW2 2159   5.494   4.934   0.687  0.9193 -0.4157 -0.3219
  247SOL     OW 2160   1.919   7.415   1.133 -0.0544  0.2346  0.2020
  247SOL    HW1 2161   1.862   7.338   1.137  0.7163 -0.3838 -0.3295
  247SOL    HW2 2162   2.005   7.380   1.109  0.2503  1.2927 -0.3371
  248SOL     OW 2163   2.326   7.138   2.920  0.5486 -0.0449  0.5999
  248SOL    HW1 2164   2.292   7.189   2.993  0.8403  1.0185  0.0072
  248SOL    HW2 2165   2.413   7.111   2.949  0.2040 -0.6422  1.1099
  249SOL     OW 2166   6.957   3.640   2.034 -0.4002  0.5196  0.0663
  249SOL    HW1 2167   7.022   3.573   2.014 -2.0952 -0.8742 -1.0172
  249SOL    HW2 2168   6.926   3.671   1.949 -0.7982  1.5566  0.5620
  250SOL     OW 2169   5.076   0.185   3.596 -0.7871 -0.0614 -0.1155
  250SOL    HW1 2170   5.104   0.260   3.543  1.1172  0.1844  1.1488
  250SOL    HW2 2171   5.065   0.220   3.684 -0.1241 -1.1964  0.4470
  251SOL     OW 2172   3.194   7.697   0.619  0.5694  0.3245 -0.4107
  251SOL    HW1 2173   3.140   7.620   0.636  0.4641  0.9153  2.4315
  251SOL    HW2 2174   3.282   7.670   0.645  0.6318  0.9613  0.0651
  252SOL     OW 2175   0.443   1.617   1.774  0.1322  0.1793 -0.2527
  252SOL    HW1 2176   0.422   1.534   1.732  1.4518 -1.2939  1.8018
  252SOL    HW2 2177   0.498   1.593   1.848  0.3484  2.8924  0.5757
  253SOL     OW 2178   0.095   7.637   1.804 -0.1329  0.0946  0.0450
  253SOL    HW1 2179   0.095   7.543   1.825 -2.1551  0.0958  0.1679
  253SOL    HW2 2180   0.128   7.641   1.715 -1.9367 -0.9479 -0.7123
  254SOL     OW 2181   6.808   0.701   7.863  0.5062 -0.2855 -0.4097
  254SOL    HW1 2182   6.822   0.796   7.871  2.2602 -0.2900 -2.6986
  254SOL    HW2 2183   6.793   0.672   7.953  0.3399  2.0872  0.4039
  255SOL     OW 2184   3.544   5.686   1.533 -0.2438  0.6208 -0.1259
  255SOL    HW1 2185   3.586   5.624   1.474 -3.4061 -0.8191 -1.0770
  255SOL    HW2 2186   3.467   5.717   1.486 -0.9185  2.2466  1.8696
  256SOL     OW 2187   6.039   5.182   5.959  0.2935 -0.5232  0.0368
  256SOL    HW1 2188   6.076   5.202   6.045  0.8310  1.0998 -0.5473
  256SOL    HW2 2189   6.100   5.220   5.896 -1.1141  0.1015 -1.0185
  257SOL     OW 2190   1.042   5.606   5.505 -0.6170 -0.1851 -0.2382
  257SOL    HW1 2191   1.123   5.625   5.457  0.3199 -0.7524  1.0352
  257SOL    HW2 2192   1.017   5.518   5.476 -1.0946  0.2112 -1.0427
  258SOL     OW 2193   6.397   4.652   6.076  0.5117  0.2583  0.5253
  258SOL    HW1 2194   6.310   4.690   6.092 -0.2290 -0.8238 -0.7472
  258SOL    HW2 2195   6.379   4.565   6.039  2.1327  0.1657 -0.1271
  259SOL     OW 2196   4.993   0.823   3.770 -0.2219 -0.0922  0.7019
  259SOL    HW1 2197   4.979   0.886   3.841  1.3903 -0.5567  1.4718
  259SOL    HW2 2198   4.905   0.804   3.737 -0.8031  2.2203  0.7296
  260SOL     OW 2199   5.759   2.077   6.491  0.5894  0.2888 -0.0037
  260SOL    HW1 2200   5.774   1.992   6.450  0.6222  1.0092 -1.5448
  260SOL    HW2 2201   5.680   2.065   6.543  0.9374 -0.8456  0.2914
  261SOL     OW 2202   1.263   2.983   6.502 -0.0988  0.2651  0.6597
  261SOL    HW1 2203   1.290   3.048   6.437  1.3450 -0.0544  0.9056
  261SOL    HW2 2204   1.290   2.899   6.465 -0.4920 -0.0462  1.0637
  262SOL     OW 2205   7.607   8.112   4.456 -0.0915 -0.4174 -0.3158
  262SOL    HW1 2206   7.615   8.025   4.416 -0.0461 -0.3790 -0.3904
  262SOL    HW2 2207   7.650   8.171   4.394 -1.1082 -0.1794 -0.8080
  263SOL     OW 2208   2.833   1.532   1.164 -0.1504 -0.5354  0.4778
  263SOL    HW1 2209   2.799   1.501   1.080 -0.3397 -1.1949  0.7950
  263SOL    HW2 2210   2.766   1.593   1.196 -0.1271 -0.3634  0.2060
  264SOL     OW 2211   0.091   5.182   1.562 -0.3417 -0.3935 -0.2495
  264SOL    HW1 2212   0.069   5.099   1.605  2.1810 -1.4615 -0.8626
  264SOL    HW2 2213   0.183   5.173   1.539  0.1067  2.7479 -0.0570
  265SOL     OW 2214   0.729   1.771   7.333 -0.2642 -0.0243 -0.4928
  265SOL    HW1 2215   0.773   1.854   7.312  2.2481 -1.2607 -0.5106
  265SOL    HW2 2216   0.790   1.703   7.303 -0.9907 -1.8889  1.9067
  266SOL     OW 2217   3.128   8.093   5.676  0.0300 -0.0165 -0.4797
  266SOL    HW1 2218   3.067   8.141   5.732 -1.0923 -2.4145  0.5294
  266SOL    HW2 2219   3.210   8.094   5.725 -0.8714 -1.8709  1.2674
  267SOL     OW 2220   0.199   1.067   5.997  0.2135  0.4743 -0.2639
  267SOL    HW1 2221   0.199   1.154   5.958  1.2733  0.2283 -0.8399
  267SOL    HW2 2222   0.284   1.059   6.039  0.9022 -0.9507 -1.8142
  268SOL     OW 2223   1.229   1.284   7.109  1.1042  0.4115  0.2306
  268SOL    HW1 2224   1.240   1.379   7.116  0.3541  0.7269 -2.0374
  268SOL    HW2 2225   1.135   1.270   7.119  1.0753  0.0441 -0.5131
  269SOL     OW 2226   2.420   3.075   8.192 -0.0991 -0.9658  0.4592
  269SOL    HW1 2227   2.462   3.000   8.150  0.7231 -0.0268 -0.4496
  269SOL    HW2 2228   2.393   3.132   8.119  0.5567  0.2748  1.1474
  270SOL     OW 2229   4.037   7.970   5.219 -0.0732 -0.5424  0.3576
  270SOL    HW1 2230   4.021   8.003   5.130 -0.4235 -0.1404  0.5705
  270SOL    HW2 2231   4.107   7.905   5.207 -0.7260 -1.1499 -0.3399
  271SOL     OW 2232   3.654   3.656   5.435  0.1707  0.1476  0.0988
  271SOL    HW1 2233   3.623   3.710   5.507 -1.0250 -0.8394  0.3482
  271SOL    HW2 2234   3.591   3.584   5.429  0.3036  0.1340 -1.8385
  272SOL     OW 2235   3.277   3.341   5.402 -0.1829  1.0595 -0.4519
  272SOL    HW1 2236   3.185   3.324   5.420 -0.2153  2.0601  0.4936
  272SOL    HW2 2237   3.310   3.261   5.363 -1.3951  0.6013 -0.5648
  273SOL     OW 2238   2.636   0.797   5.492  0.1185  0.5072  0.3776
  273SOL    HW1 2239   2.713   0.832   5.447  0.0879 -0.6446 -0.6308
  273SOL    HW2 2240   2.669   0.719   5.537 -0.6220 -0.6090 -0.9213
  274SOL     OW 2241   0.223   4.276   7.838 -0.0534  0.2880 -0.1455
  274SOL    HW1 2242   0.290   4.282   7.770 -1.1623  0.0275 -1.2906
  274SOL    HW2 2243   0.246   4.199   7.889  1.1365  0.8392  0.1765
  275SOL     OW 2244   4.649   4.238   2.701 -0.1954 -0.2045 -0.1673
  275SOL    HW1 2245   4.683   4.309   2.646  0.5619 -0.3129  0.1454
  275SOL    HW2 2246   4.643   4.163   2.641 -1.2930  0.1943 -0.5722
  276SOL     OW 2247   5.653   7.209   6.990 -0.4872 -0.0570 -0.7617
  276SOL    HW1 2248   5.733   7.165   7.017 -0.3336 -0.7549 -2.2719
  276SOL    HW2 2249   5.589   7.186   7.057 -0.2471 -2.0854 -1.1688
  277SOL     OW 2250   3.818   7.105   7.180  0.0954 -0.2103  0.3012
  277SOL    HW1 2251   3.847   7.067   7.263  3.0583  0.3490 -0.3866
  277SOL    HW2 2252   3.781   7.031   7.131  0.6403 -1.0601  1.1395
  278SOL     OW 2253   0.293   0.414   3.766  0.3424 -0.2583  0.3540
  278SOL    HW1 2254   0.266   0.504   3.783  3.2127  0.4490  1.8149
  278SOL    HW2 2255   0.238   0.361   3.823 -0.0859  0.7858  0.9339
  279SOL     OW 2256   1.381   1.109   3.319  0.0029  0.2602  0.9668
  279SOL    HW1 2257   1.392   1.190   3.268 -0.9716  0.2011  0.6530
  279SOL    HW2 2258   1.412   1.040   3.262  0.1226  0.3305  0.9459
  280SOL     OW 2259   1.226   5.371   4.816  0.0066  0.6385 -0.0306
  280SOL    HW1 2260   1.177   5.427   4.756 -2.3514 -0.8071  0.4221
  280SOL    HW2 2261   1.159   5.335   4.875  1.8004 -0.5461  1.3804
  281SOL     OW 2262   6.570   6.146   5.198  0.0768 -0.4996 -0.3081
  281SOL    HW1 2263   6.507   6.160   5.127 -0.5788  1.9526  0.6493
  281SOL    HW2 2264   6.524   6.087   5.259 -2.1836  2.5007  1.1844
  282SOL     OW 2265   3.485   1.676   0.378 -0.0692  1.0747 -0.1369
  282SOL    HW1 2266   3.495   1.711   0.290  1.4180 -1.3204 -1.0041
  282SOL    HW2 2267   3.556   1.715   0.428 -0.4438  1.8234 -0.1662
  283SOL     OW 2268   4.683   3.586   3.323  0.2840 -0.6728  0.1955
  283SOL    HW1 2269   4.734   3.509   3.299 -0.7757 -1.0519 -0.9634
  283SOL    HW2 2270   4.693   3.645   3.248  0.8820  0.2210  0.9618
  284SOL     OW 2271   4.783   4.046   2.480  0.9121 -0.1379 -0.5434
  284SOL    HW1 2272   4.817   4.063   2.392  1.4608  1.4155 -0.0553
  284SOL    HW2 2273   4.852   3.997   2.524  1.5669  0.9712 -0.3051
  285SOL     OW 2274   2.666   8.227   0.233 -0.6952  0.9837  0.5942
  285SOL    HW1 2275   2.731   8.292   0.258 -0.1604  0.5048  0.4746
  285SOL    HW2 2276   2.675   8.158   0.299  1.9187 -1.1260 -1.7161
  286SOL     OW 2277   0.242   4.740   1.349  0.5065  0.0142  0.1027
  286SOL    HW1 2278   0.164   4.686   1.353 -0.3173  1.1712  0.0921
  286SOL    HW2 2279   0.258   4.754   1.256  1.6081 -1.4136  0.0378
  287SOL     OW 2280   5.016   5.840   3.985 -0.5665  0.5549  0.0163
  287SOL    HW1 2281   5.059   5.831   3.899 -0.9363  2.8204 -0.4615
  287SOL    HW2 2282   4.941   5.782   3.980  1.4740 -2.3523  0.3050
  288SOL     OW 2283   4.207   3.351   3.128 -0.4735 -0.5481  0.1962
  288SOL    HW1 2284   4.298   3.370   3.151 -0.6693 -0.6014  1.0594
  288SOL    HW2 2285   4.160   3.354   3.212 -1.5871  1.2384 -0.4310
  289SOL     OW 2286   2.016   1.376   2.249 -0.2588 -0.4966  0.0361
  289SOL    HW1 2287   1.924   1.398   2.241  0.3097  3.5673  2.0114
  289SOL    HW2 2288   2.052   1.390   2.161 -1.1264  0.3617 -0.1960
  290SOL     OW 2289   1.500   5.584   2.736  0.2350 -0.0059 -0.1260
  290SOL    HW1 2290   1.460   5.639   2.668 -0.1460 -0.0151  0.0867
  290SOL    HW2 2291   1.594   5.596   2.724  0.1731  1.5408  0.5885
  291SOL     OW 2292   8.163   0.879   8.338 -0.0454 -0.1552  0.0206
  291SOL    HW1 2293   8.187   0.962   8.379  0.1093 -0.1382 -0.1017
  291SOL    HW2 2294   8.088   0.848   8.388 -1.3558  1.0131 -1.1484
  292SOL     OW 2295   0.716   4.534   3.828 -0.1787 -0.2435 -0.1452
  292SOL    HW1 2296   0.658   4.605   3.854 -0.6535 -0.8380  0.4586
  292SOL    HW2 2297   0.658   4.470   3.786 -0.3219 -1.6743  2.0583
  293SOL     OW 2298   8.260   6.030   4.514  0.0749  0.2814  0.5165
  293SOL    HW1 2299   8.289   6.026   4.422  0.4323  1.1010  0.5863
  293SOL    HW2 2300   8.181   5.977   4.516  0.3834 -0.2194 -0.1445
  294SOL     OW 2301   7.196   5.274   4.166  0.0765  0.5133  0.2801
  294SOL    HW1 2302   7.229   5.275   4.077 -0.2404 -0.8683  0.1167
  294SOL    HW2 2303   7.110   5.317   4.161 -1.8814 -3.0872 -0.9841
  295SOL     OW 2304   5.498   3.762   8.292 -0.0904  0.2756  0.0148
  295SOL    HW1 2305   5.461   3.850   8.299  0.6489  0.6686 -0.9039
  295SOL    HW2 2306   5.509   3.734   8.383 -3.3719 -0.2084  0.4039
  296SOL     OW 2307   3.721   1.910   0.744 -0.6236 -0.2007  0.0056
  296SOL    HW1 2308   3.729   1.853   0.668  0.2897  0.6475 -0.5590
  296SOL    HW2 2309   3.633   1.948   0.737  0.3483  1.9706 -2.2142
  297SOL     OW 2310   7.148   0.006   3.922 -0.6768  0.1974 -0.4454
  297SOL    HW1 2311   7.151  -0.079   3.878 -2.1341  0.1081 -0.4459
  297SOL    HW2 2312   7.059   0.010   3.958  0.1264  0.6727  1.6570
  298SOL     OW 2313   0.128   4.049   3.637  0.2096  0.1280  0.5098
  298SOL    HW1 2314   0.062   3.979   3.641  0.3550 -0.1600 -1.2410
  298SOL    HW2 2315   0.084   4.120   3.590  0.8734  0.2235  0.0167
  299SOL     OW 2316   2.566   0.394   7.089  0.2189 -0.3868  0.4069
  299SOL    HW1 2317   2.475   0.414   7.066  0.3887  0.2613  0.2671
  299SOL    HW2 2318   2.562   0.366   7.180 -0.2194 -1.1439  0.1728
  300SOL     OW 2319   4.396   7.650   1.115 -0.0574  0.1067  0.4167
  300SOL    HW1 2320   4.366   7.741   1.121  1.5100  0.5808  1.8374
  300SOL    HW2 2321   4.368   7.622   1.028 -2.3550  1.2528  0.6954
  301SOL     OW 2322   0.940   1.074   3.649 -0.0668  0.2143  0.6112
  301SOL    HW1 2323   0.871   1.121   3.602  0.1398  0.5560  0.6495
  301SOL    HW2 2324   0.990   1.029   3.581  0.1669  0.6217  0.5129
  302SOL     OW 2325   0.374   1.623   3.056  0.5173 -0.4396 -0.3974
  302SOL    HW1 2326   0.335   1.700   3.096  1.6968 -0.6336  1.2521
  302SOL    HW2 2327   0.306   1.588   2.999  0.0200  1.9095 -1.3699
  303SOL     OW 2328   1.279   7.957   1.451 -0.1290  0.4336  0.0166
  303SOL    HW1 2329   1.243   7.965   1.539 -0.8814  2.1853 -0.4202
  303SOL    HW2 2330   1.374   7.948   1.465 -0.0316  2.4828  0.9776
  304SOL     OW 2331   5.096   0.692   2.015 -0.4032  0.2400 -0.3028
  304SOL    HW1 2332   5.191   0.700   2.008 -0.1174  1.8099  3.2206
  304SOL    HW2 2333   5.063   0.781   2.005 -1.1449  0.1984  1.3599
  305SOL     OW 2334   1.311   3.055   4.195 -0.3191  0.2591 -0.0439
  305SOL    HW1 2335   1.296   3.118   4.265 -0.2418 -1.1339  1.2793
  305SOL    HW2 2336   1.223   3.022   4.173 -0.3733  0.8694 -0.8216
  306SOL     OW 2337   5.997   0.157   1.181  0.2225 -0.3133 -0.3698
  306SOL    HW1 2338   5.908   0.182   1.156  0.3222  0.3980 -0.0286
  306SOL    HW2 2339   6.032   0.113   1.104 -0.0890  0.2777 -0.8528
  307SOL     OW 2340   2.509   3.333   7.192 -0.2950  0.5562  0.2742
  307SOL    HW1 2341   2.550   3.248   7.207 -0.1020  0.5335 -0.3584
  307SOL    HW2 2342   2.443   3.340   7.261 -0.7043 -0.3564 -0.0018
  308SOL     OW 2343   6.153   0.206   3.053  0.1298  0.0714  0.0281
  308SOL    HW1 2344   6.140   0.137   2.988  0.5782 -0.4161  0.4441
  308SOL    HW2 2345   6.131   0.165   3.137 -0.4681  0.7032  0.1889
  309SOL     OW 2346   6.725   2.719   3.584 -0.1271  0.6478 -0.1078
  309SOL    HW1 2347   6.691   2.783   3.647  1.9566  1.6812  0.0613
  309SOL    HW2 2348   6.774   2.772   3.520  0.7119 -0.6797 -0.6124
  310SOL     OW 2349   2.096   2.155   6.290 -0.4834 -0.1520 -0.1046
  310SOL    HW1 2350   2.080   2.085   6.353 -0.8588 -0.3965 -0.4752
  310SOL    HW2 2351   2.158   2.213   6.335 -1.3808  0.1150  0.8253
  311SOL     OW 2352   8.249   4.439   6.091 -0.0913  0.0541  0.4337
  311SOL    HW1 2353   8.261   4.491   6.011 -0.3642 -1.2779 -0.5248
  311SOL    HW2 2354   8.333   4.396   6.105  0.0782  0.5989  1.1106
  312SOL     OW 2355   8.364   2.639   5.509 -0.1088  0.2554  0.2855
  312SOL    HW1 2356   8.342   2.644   5.416 -0.8190  0.5063  0.4562
  312SOL    HW2 2357   8.438   2.579   5.513 -0.2955 -0.0358 -0.4047
  313SOL     OW 2358   1.802   5.485   2.424 -0.2439 -0.3377 -0.3484
  313SOL    HW1 2359   1.870   5.552   2.410  0.6089 -1.3328 -1.1550
  313SOL    HW2 2360   1.825   5.415   2.362 -0.5280 -1.8189  1.1617
  314SOL     OW 2361   0.606   8.346   3.901 -0.2185  0.6942  0.5111
  314SOL    HW1 2362   0.592   8.298   3.819 -0.4803 -1.1435  1.5943
  314SOL    HW2 2363   0.528   8.401   3.909 -0.1817  0.9145 -0.4655
  315SOL     OW 2364   5.351   7.526   3.150 -0.0587 -0.1175 -0.0312
  315SOL    HW1 2365   5.373   7.524   3.243 -1.4413 -0.5370  0.3137
  315SOL    HW2 2366   5.301   7.446   3.135  1.3473 -0.7990 -1.4863
  316SOL     OW 2367   5.373   7.433   0.076 -0.2500 -0.0994 -0.2353
  316SOL    HW1 2368   5.329   7.467   0.154  0.9506  1.0070 -0.0026
  316SOL    HW2 2369   5.355   7.339   0.077 -2.0147  0.2021  0.1995
  317SOL     OW 2370   7.796   5.621   8.026 -0.1780  0.7009 -0.7781
  317SOL    HW1 2371   7.809   5.664   8.110  0.2724 -0.0897 -0.4279
  317SOL    HW2 2372   7.881   5.627   7.982 -0.2499  0.6013 -0.9346
  318SOL     OW 2373   1.006   3.662   4.799 -0.1468 -0.6889  0.5387
  318SOL    HW1 2374   0.992   3.572   4.770  1.7137 -0.6767 -0.5667
  318SOL    HW2 2375   0.921   3.704   4.790 -0.6695 -1.9148 -0.4952
  319SOL     OW 2376   5.346   2.875   6.229  0.7091  0.2906 -0.2356
  319SOL    HW1 2377   5.425   2.929   6.229  0.2914  0.9163 -0.4277
  319SOL    HW2 2378   5.274   2.938   6.238  0.1299 -0.0918 -1.8846
  320SOL     OW 2379   7.372   5.213   7.618  0.2929 -0.1086 -0.0755
  320SOL    HW1 2380   7.408   5.289   7.664 -0.7079  0.6017 -0.4510
  320SOL    HW2 2381   7.371   5.144   7.684  0.2096  0.5016  0.5767
  321SOL     OW 2382   6.800   6.660   2.120 -0.2169 -0.0644 -0.2907
  321SOL    HW1 2383   6.868   6.726   2.112 -0.3549  0.6253  2.9491
  321SOL    HW2 2384   6.846   6.576   2.121  0.2301  0.1591 -1.4782
  322SOL     OW 2385   6.736   4.296   0.129 -0.6968 -0.5590  0.1939
  322SOL    HW1 2386   6.665   4.342   0.084  0.5886 -0.2422 -1.6118
  322SOL    HW2 2387   6.802   4.364   0.145 -0.6153 -0.9199  1.5260
  323SOL     OW 2388   4.084   3.916   2.155 -0.0344  0.1159  0.3737
  323SOL    HW1 2389   4.112   3.994   2.203 -1.3905  1.1283 -0.4042
  323SOL    HW2 2390   4.135   3.918   2.074 -0.9551  0.9428 -0.2180
  324SOL     OW 2391   0.867   4.810   6.301  0.1478 -0.4711  0.2112
  324SOL    HW1 2392   0.848   4.874   6.369  0.3316  1.3279 -1.3503
  324SOL    HW2 2393   0.850   4.725   6.342  0.6977  0.5137  2.6079
  325SOL     OW 2394   1.927   2.200   1.929 -0.2874 -0.1185  0.9170
  325SOL    HW1 2395   1.982   2.124   1.946  0.5639  0.7109  2.0293
  325SOL    HW2 2396   1.963   2.269   1.985 -0.0975  1.5426 -1.1029
  326SOL     OW 2397   6.566   5.004   6.225 -0.1128 -0.0965 -0.5416
  326SOL    HW1 2398   6.530   4.962   6.304  1.8720 -1.8014 -0.4495
  326SOL    HW2 2399   6.641   5.054   6.257  0.0323  0.1229 -1.2130
  327SOL     OW 2400   6.481   4.865   4.505  0.4492  0.5220  0.0911
  327SOL    HW1 2401   6.430   4.788   4.527  0.8885 -0.0108 -0.7387
  327SOL    HW2 2402   6.557   4.832   4.457 -0.0761  1.5802 -1.5550
  328SOL     OW 2403   5.789   5.780   0.003  0.4492  0.2602  0.1610
  328SOL    HW1 2404   5.864   5.721  -0.001  0.3774  0.1918 -3.2002
  328SOL    HW2 2405   5.713   5.723  -0.003  0.2151  0.4674  1.0976
  329SOL     OW 2406   0.583   1.184   2.170  0.3910  0.2520  0.6427
  329SOL    HW1 2407   0.489   1.170   2.163  0.2100  0.0059  2.8909
  329SOL    HW2 2408   0.592   1.275   2.199  0.9275  0.6722 -0.7678
  330SOL     OW 2409   3.129   2.876   6.241 -0.0778 -0.9031  0.2306
  330SOL    HW1 2410   3.185   2.816   6.290  0.1315 -1.1247 -0.2721
  330SOL    HW2 2411   3.175   2.891   6.159  0.8999  1.6008  1.1362
  331SOL     OW 2412   2.214   3.640   1.038  0.0953  0.1187  0.4205
  331SOL    HW1 2413   2.119   3.624   1.036  0.0438  0.4269 -0.9752
  331SOL    HW2 2414   2.228   3.692   1.116 -0.8401 -0.2261  0.8387
  332SOL     OW 2415   4.899   5.153   5.199  0.2524 -0.7549 -0.0779
  332SOL    HW1 2416   4.847   5.207   5.140 -1.3281 -0.2270  1.6970
  332SOL    HW2 2417   4.836   5.119   5.263  1.7905 -1.7555  0.9799
  333SOL     OW 2418   1.851   0.636   6.636  0.0911 -0.3469 -0.2246
  333SOL    HW1 2419   1.922   0.698   6.618  0.7790 -0.8353  0.7018
  333SOL    HW2 2420   1.771   0.689   6.630  0.3788 -0.0779 -2.6334
  334SOL     OW 2421   7.169   1.315   5.080 -0.2878  0.3237 -0.3579
  334SOL    HW1 2422   7.234   1.307   5.010  1.8449 -1.8284  1.6581
  334SOL    HW2 2423   7.221   1.336   5.158 -2.3940  1.2977  0.8777
  335SOL     OW 2424   7.430   1.622   7.977 -0.2753  0.0617  0.1958
  335SOL    HW1 2425   7.500   1.635   8.041  1.0857  0.9102 -1.3585
  335SOL    HW2 2426   7.427   1.704   7.928 -1.8184 -0.2635 -0.3068
  336SOL     OW 2427   3.779   3.947   2.541  0.1131 -0.5416  0.3520
  336SOL    HW1 2428   3.847   3.984   2.484  0.7594 -0.1800  1.3449
  336SOL    HW2 2429   3.702   4.001   2.524  0.9144  1.0244  1.4373
  337SOL     OW 2430   7.162   3.585   4.248  0.0469 -0.4686  0.1300
  337SOL    HW1 2431   7.106   3.663   4.252  0.5066  0.0139 -1.7546
  337SOL    HW2 2432   7.149   3.541   4.332  0.5250  2.1329  1.6593
  338SOL     OW 2433   3.310   0.555   0.497 -0.0494  0.1783  0.2245
  338SOL    HW1 2434   3.280   0.560   0.588 -0.4205 -0.3288  0.1343
  338SOL    HW2 2435   3.396   0.597   0.498 -0.6300  1.4051  0.5456
  339SOL     OW 2436   4.006   1.232   2.966  0.3952 -0.1942  0.1498
  339SOL    HW1 2437   3.987   1.312   2.919  1.0387 -0.9309 -1.4260
  339SOL    HW2 2438   3.920   1.196   2.987  0.1004  0.9658  1.0383
  340SOL     OW 2439   2.054   6.614   8.154  0.5687 -0.6641 -0.2866
  340SOL    HW1 2440   1.993   6.689   8.159  0.6657 -0.6602  2.3206
  340SOL    HW2 2441   2.109   6.634   8.078  0.7594  2.0758  0.4378
  341SOL     OW 2442   6.794   1.653   0.478  0.1222 -0.1200 -0.3993
  341SOL    HW1 2443   6.737   1.595   0.429 -0.4439  0.3379 -0.2921
  341SOL    HW2 2444   6.869   1.668   0.420 -0.1886 -0.1820 -0.8198
  342SOL     OW 2445   5.752   0.285   5.723  0.2036 -0.4647  0.8099
  342SOL    HW1 2446   5.661   0.305   5.744 -0.6815 -1.0468 -2.0643
  342SOL    HW2 2447   5.795   0.371   5.722 -1.3781  0.4244 -2.0292
  343SOL     OW 2448   1.555   1.051   3.538 -0.5968  0.1854  0.3498
  343SOL    HW1 2449   1.489   1.074   3.472  1.9956  2.3036 -1.7455
  343SOL    HW2 2450   1.547   1.119   3.605  0.7068  1.7428 -0.9784
  344SOL     OW 2451   7.062   6.431   7.938  0.2398  0.1271  0.0740
  344SOL    HW1 2452   7.005   6.507   7.954  0.4257  0.0349  1.2383
  344SOL    HW2 2453   7.078   6.394   8.025  0.3015 -1.1451 -0.4602
  345SOL     OW 2454   6.838   1.376   5.784 -0.0514  1.1634  0.3336
  345SOL    HW1 2455   6.785   1.298   5.769  0.4810  0.5217  1.6770
  345SOL    HW2 2456   6.778   1.449   5.771 -0.6668  0.5304 -0.4958
  346SOL     OW 2457   0.216   1.072   3.541  0.6129 -0.5177 -0.3606
  346SOL    HW1 2458   0.153   1.056   3.611  1.6491  1.6200  1.1860
  346SOL    HW2 2459   0.164   1.109   3.469 -0.3277 -1.9063 -0.4448
  347SOL     OW 2460   2.573   0.291   5.740 -0.9467  0.4945  0.0361
  347SOL    HW1 2461   2.583   0.223   5.806  0.7905 -1.2266 -1.8921
  347SOL    HW2 2462   2.479   0.294   5.723 -1.0395 -1.8393 -0.1825
  348SOL     OW 2463   4.161   1.244   6.735 -0.5725  0.9151  0.4347
  348SOL    HW1 2464   4.106   1.283   6.803  1.0967  1.1604  1.7069
  348SOL    HW2 2465   4.234   1.204   6.783  0.7246  1.1923 -1.2085
  349SOL     OW 2466   4.425   7.941   6.156 -0.4406  0.0120  0.1287
  349SOL    HW1 2467   4.410   7.980   6.242  2.3835 -1.5177  1.4561
  349SOL    HW2 2468   4.496   7.993   6.118  0.0701 -0.8665 -0.1494
  350SOL     OW 2469   2.823   5.675   2.970 -0.0973 -0.2505 -0.2292
  350SOL    HW1 2470   2.774   5.739   3.021 -1.1901 -0.0613 -1.4493
  350SOL    HW2 2471   2.778   5.673   2.885  1.1490 -1.1524 -0.8976
  351SOL     OW 2472   1.335   3.923   1.865 -0.2268  0.5263  0.3941
  351SOL    HW1 2473   1.265   3.976   1.903  1.5237  2.9454  0.5283
  351SOL    HW2 2474   1.361   3.970   1.786  1.5973  0.0521  0.6486
  352SOL     OW 2475   7.929   1.076   8.298 -0.3852  0.4292  0.0710
  352SOL    HW1 2476   7.888   1.160   8.274  0.2813  0.5735 -0.5791
  352SOL    HW2 2477   7.898   1.015   8.231 -0.0035  0.4052 -0.0834
  353SOL     OW 2478   3.860   5.432   1.025  0.3988 -0.0600  0.1362
  353SOL    HW1 2479   3.785   5.490   1.034  0.0479 -0.6544  1.2911
  353SOL    HW2 2480   3.851   5.394   0.937 -1.4361 -1.1466  0.7341
  354SOL     OW 2481   5.155   1.455   3.900 -0.0460 -0.3622 -0.6399
  354SOL    HW1 2482   5.063   1.438   3.878  0.4271 -1.1678 -2.1728
  354SOL    HW2 2483   5.151   1.503   3.982 -1.8460 -0.2851 -0.7172
  355SOL     OW 2484   5.820   6.158   6.112 -0.0087  0.4914  0.0629
  355SOL    HW1 2485   5.839   6.252   6.114 -0.8487  0.6836 -0.3352
  355SOL    HW2 2486   5.905   6.116   6.098  0.2931  1.2273 -0.3624
  356SOL     OW 2487   5.562   8.289   1.977 -0.7228  0.6277 -0.4795
  356SOL    HW1 2488   5.564   8.380   2.006 -0.2989  0.2467  0.7403
  356SOL    HW2 2489   5.472   8.261   1.994 -1.3361  1.2646 -2.3935
  357SOL     OW 2490   0.400   4.911   3.978  0.2185  0.6238  0.0340
  357SOL    HW1 2491   0.480   4.924   4.029  0.1692 -1.3328  0.6819
  357SOL    HW2 2492   0.380   4.819   3.989 -0.9899  0.6301 -1.8393
  358SOL     OW 2493   6.939   7.897   8.010  0.0689  0.0346  0.6728
  358SOL    HW1 2494   6.999   7.972   8.015 -3.7644  3.3760  1.4192
  358SOL    HW2 2495   6.910   7.894   7.919 -0.4735  0.0307  0.8428
  359SOL     OW 2496   7.467   7.605   2.046  0.7684 -0.3277  0.2769
  359SOL    HW1 2497   7.447   7.698   2.032  0.8218 -0.3738 -0.1013
  359SOL    HW2 2498   7.381   7.565   2.062  0.9404  0.2366  3.2357
  360SOL     OW 2499   3.431   6.241   2.481 -0.1049 -0.2169  0.1902
  360SOL    HW1 2500   3.403   6.191   2.404 -2.2639 -0.7158  1.2334
  360SOL    HW2 2501   3.351   6.257   2.530  0.8807  2.1113  1.1945
  361SOL     OW 2502   4.268   1.623   7.500  0.3622 -0.0182  0.2292
  361SOL    HW1 2503   4.217   1.674   7.438  0.8856 -0.4675 -0.5788
  361SOL    HW2 2504   4.339   1.682   7.528 -0.1774  0.3638  0.8200
  362SOL     OW 2505   1.659   5.098   0.367 -0.2863  0.3615  0.2466
  362SOL    HW1 2506   1.675   5.121   0.458 -2.4606  0.7665  0.5706
  362SOL    HW2 2507   1.637   5.005   0.370  1.5346 -0.1237 -0.1590
  363SOL     OW 2508   8.041   8.161   4.553  0.3209 -0.9177 -0.1795
  363SOL    HW1 2509   8.075   8.074   4.575 -0.0130 -1.5502 -1.9684
  363SOL    HW2 2510   8.050   8.167   4.458 -0.4207  0.6916 -0.1846
  364SOL     OW 2511   5.796   7.608   2.128 -0.0008  0.6069 -0.1381
  364SOL    HW1 2512   5.862   7.550   2.090 -2.0797 -1.8053 -0.3691
  364SOL    HW2 2513   5.735   7.625   2.056 -1.2837  0.1766  0.8142
  365SOL     OW 2514   0.414   5.401   0.089 -0.1772 -0.3144  0.2579
  365SOL    HW1 2515   0.401   5.482   0.040  1.5051 -0.9753 -1.3879
  365SOL    HW2 2516   0.424   5.334   0.022 -0.2019 -1.6843  1.5705
  366SOL     OW 2517   4.426   1.746   4.110  0.1882  0.0840 -0.4955
  366SOL    HW1 2518   4.334   1.762   4.092 -0.3993 -1.3280  0.9701
  366SOL    HW2 2519   4.427   1.709   4.199  2.2389  0.7663 -0.1827
  367SOL     OW 2520   3.135   2.481   6.491 -0.7544 -0.2721 -0.3863
  367SOL    HW1 2521   3.080   2.472   6.413  1.5712  0.0247 -2.1719
  367SOL    HW2 2522   3.199   2.410   6.485 -1.1143 -0.8897  1.8642
  368SOL     OW 2523   4.016   8.229   7.490  0.4354  0.2774 -0.3626
  368SOL    HW1 2524   3.957   8.184   7.430 -1.6980  1.4383  0.7304
  368SOL    HW2 2525   4.062   8.158   7.536 -1.3593 -0.7760 -0.0809
  369SOL     OW 2526   3.023   5.396   2.837  0.2363  0.0947 -0.6795
  369SOL    HW1 2527   3.096   5.336   2.826  0.8115  0.9785 -1.7886
  369SOL    HW2 2528   2.946   5.339   2.841  1.0897 -1.1469  3.5560
  370SOL     OW 2529   3.094   5.066   2.250 -0.1168 -0.7613 -0.1359
  370SOL    HW1 2530   3.031   5.132   2.221 -1.6135 -2.1194 -0.1507
  370SOL    HW2 2531   3.110   5.087   2.342 -1.1593 -0.7947  0.0639
  371SOL     OW 2532   0.548   8.056   1.902 -0.6241  0.0344  0.0053
  371SOL    HW1 2533   0.544   7.962   1.885  0.8362 -0.3191  1.3643
  371SOL    HW2 2534   0.566   8.095   1.816  1.7554 -1.2399 -0.1635
  372SOL     OW 2535   8.042   0.458   4.490  0.4296 -0.0744  0.1870
  372SOL    HW1 2536   8.084   0.477   4.574  2.4214 -1.8622 -0.2909
  372SOL    HW2 2537   8.020   0.543   4.454 -0.9027  0.7273  2.6806
  373SOL     OW 2538   4.419   7.750   7.798 -0.0854  0.3103 -0.1832
  373SOL    HW1 2539   4.485   7.818   7.786  0.7321 -0.5729 -0.8237
  373SOL    HW2 2540   4.392   7.727   7.709  0.8135 -1.3081 -0.0641
  374SOL     OW 2541   2.970   7.238   4.071  0.3713  0.3616  0.4300
  374SOL    HW1 2542   2.996   7.209   4.159  0.4483  0.5997  0.4854
  374SOL    HW2 2543   2.945   7.329   4.083 -2.2858 -0.3409  0.7415
  375SOL     OW 2544   3.327   5.418   7.762  0.1618  0.4637 -0.5632
  375SOL    HW1 2545   3.390   5.480   7.798  0.3914  0.6715 -1.3079
  375SOL    HW2 2546   3.281   5.383   7.838 -0.0546  1.6367 -0.1352
  376SOL     OW 2547   7.958   4.333   0.582 -0.1104  0.1915  0.8167
  376SOL    HW1 2548   7.998   4.418   0.563  2.1382 -0.8266  0.6272
  376SOL    HW2 2549   7.917   4.344   0.668  2.1369  0.8999  1.8803
  377SOL     OW 2550   3.471   5.548   7.973 -0.3672 -0.2981  0.2873
  377SOL    HW1 2551   3.562   5.579   7.969 -1.1128  1.9955 -0.5487
  377SOL    HW2 2552   3.472   5.481   8.042  1.6740  0.6759  1.3094
  378SOL     OW 2553   6.337   8.256   3.341  0.0425  0.5023  0.1540
  378SOL    HW1 2554   6.360   8.191   3.274  2.0296 -0.0057  1.2536
  378SOL    HW2 2555   6.411   8.317   3.341 -0.8287  1.5859  0.5848
  379SOL     OW 2556   4.641   1.420   2.872  0.2030 -0.5346 -0.0416
  379SOL    HW1 2557   4.669   1.451   2.957  1.3279 -3.4106  0.7558
  379SOL    HW2 2558   4.548   1.400   2.883 -0.0410  0.5840  0.0075
  380SOL     OW 2559   1.734   7.467   5.643  0.7406  0.2557  0.3997
  380SOL    HW1 2560   1.743   7.384   5.596  0.7935  0.5782 -0.1655
  380SOL    HW2 2561   1.663   7.512   5.598  0.8739  0.6239  0.5542
  381SOL     OW 2562   5.571   7.959   7.007 -0.2388  0.3072  0.6465
  381SOL    HW1 2563   5.595   8.037   6.957  0.4751  0.5603  1.3622
  381SOL    HW2 2564   5.624   7.889   6.968 -1.9389 -0.1637 -0.9614
  382SOL     OW 2565   7.435   6.259   7.998 -0.0958  0.3401  0.0935
  382SOL    HW1 2566   7.441   6.191   7.931 -0.2945  1.1671 -0.7856
  382SOL    HW2 2567   7.399   6.335   7.952 -1.8272  0.4390  1.4942
  383SOL     OW 2568   2.646   3.479   3.025  0.3057  0.4638  0.0536
  383SOL    HW1 2569   2.561   3.454   2.988 -0.6137  2.0164  0.9944
  383SOL    HW2 2570   2.631   3.566   3.063  2.3558  0.8361  0.1483
  384SOL     OW 2571   2.473   5.913   2.039 -0.6662  0.1676 -0.5193
  384SOL    HW1 2572   2.531   5.900   1.964 -0.1864 -0.8789  0.0120
  384SOL    HW2 2573   2.385   5.903   2.004 -0.4626  0.1361 -1.0257
  385SOL     OW 2574   7.379   5.453   5.286  0.2712 -0.7596  0.5308
  385SOL    HW1 2575   7.307   5.512   5.310  0.8995  0.3244 -0.1755
  385SOL    HW2 2576   7.336   5.369   5.268 -0.7565 -0.2667  0.5909
  386SOL     OW 2577   0.848   6.108   1.679  0.4810  0.2669  0.5123
  386SOL    HW1 2578   0.928   6.129   1.631  0.0113 -0.0504 -0.4291
  386SOL    HW2 2579   0.779   6.154   1.632 -0.2653 -1.6161 -0.3215
  387SOL     OW 2580   0.107   1.387   7.814  0.3248 -0.5161 -0.1982
  387SOL    HW1 2581   0.068   1.433   7.740  2.8251  0.3057 -1.1109
  387SOL    HW2 2582   0.123   1.298   7.782 -0.9493 -0.9424  0.2741
  388SOL     OW 2583   0.100   1.125   8.279 -0.4040 -0.4668  0.5176
  388SOL    HW1 2584   0.028   1.152   8.337  0.4307  0.7735  1.0106
  388SOL    HW2 2585   0.069   1.043   8.240 -1.7988 -0.3214  1.2360
  389SOL     OW 2586   1.268   7.885   1.910  0.4868 -0.1932 -0.6341
  389SOL    HW1 2587   1.307   7.914   1.993  0.0422 -1.4239  0.0219
  389SOL    HW2 2588   1.331   7.822   1.875  0.8806  0.6338 -1.4721
  390SOL     OW 2589   2.555   8.176   5.960  0.4867  0.5086 -0.3036
  390SOL    HW1 2590   2.466   8.143   5.951  0.8421 -0.1373 -1.8383
  390SOL    HW2 2591   2.603   8.105   6.003 -0.0895  1.5710  2.2481
  391SOL     OW 2592   3.501   7.279   3.608  0.7017 -0.1631  0.6556
  391SOL    HW1 2593   3.531   7.369   3.605 -2.2086  0.9514  1.4957
  391SOL    HW2 2594   3.506   7.248   3.518  1.8222  0.7705  0.3793
  392SOL     OW 2595   2.675   8.258   7.465 -0.1486 -0.2306  0.1275
  392SOL    HW1 2596   2.612   8.302   7.407 -0.6528 -0.1819  0.7024
  392SOL    HW2 2597   2.760   8.274   7.424 -0.2648  1.5964  0.4901
  393SOL     OW 2598   0.048   1.029   3.759 -0.2712  0.2834 -0.4166
  393SOL    HW1 2599   0.094   1.047   3.841  0.3636 -0.9226 -0.4909
  393SOL    HW2 2600   0.001   1.111   3.740  0.6836  1.0556  0.4103
  394SOL     OW 2601   2.122   4.062   7.916 -0.1053 -0.1325  0.0628
  394SOL    HW1 2602   2.140   4.073   8.009  0.0718  0.0633  0.0033
  394SOL    HW2 2603   2.039   4.108   7.902 -1.1109 -1.7304  0.5063
  395SOL     OW 2604   3.437   4.059   2.291 -0.7083  0.6999  0.1089
  395SOL    HW1 2605   3.446   4.122   2.220 -1.4835 -1.1462 -1.7661
  395SOL    HW2 2606   3.346   4.030   2.286 -0.3748 -0.5750  0.8606
  396SOL     OW 2607   4.624   8.244   8.080 -0.0646  0.5203  0.4576
  396SOL    HW1 2608   4.535   8.225   8.048  0.4445 -3.5115  0.9515
  396SOL    HW2 2609   4.676   8.253   8.000 -0.0763 -2.5426 -0.0374
  397SOL     OW 2610   6.653   5.486   0.633  0.3099 -0.2514 -0.0439
  397SOL    HW1 2611   6.668   5.546   0.560  0.7629  0.2145  0.4160
  397SOL    HW2 2612   6.740   5.452   0.653  0.2763  0.0236  0.6041
  398SOL     OW 2613   1.120   5.541   7.157  0.1956 -0.0192 -0.0710
  398SOL    HW1 2614   1.131   5.633   7.134  0.3006  0.1918  0.8071
  398SOL    HW2 2615   1.192   5.497   7.113  0.7602  0.4625  0.3603
  399SOL     OW 2616   3.042   0.148   6.424 -0.7555  0.0685  0.1213
  399SOL    HW1 2617   3.019   0.129   6.515 -0.5829 -2.6330 -0.3316
  399SOL    HW2 2618   2.965   0.119   6.373  0.2386 -1.1349 -0.7657
  400SOL     OW 2619   1.017   1.686   5.252 -0.4165  0.6583  0.4363
  400SOL    HW1 2620   0.976   1.603   5.229 -1.0239  0.6164  1.6336
  400SOL    HW2 2621   1.106   1.663   5.277 -0.6204  0.3481  0.8821
  401SOL     OW 2622   1.649   4.875   3.252  0.0795  0.4205 -0.2972
  401SOL    HW1 2623   1.611   4.957   3.221 -3.0752 -1.2993 -1.5350
  401SOL    HW2 2624   1.669   4.827   3.172 -0.3735 -0.9063  0.3535
  402SOL     OW 2625   7.435   6.774   1.315  0.0159  0.1992  0.0545
  402SOL    HW1 2626   7.430   6.847   1.254 -0.7814 -0.3862 -0.6080
  402SOL    HW2 2627   7.512   6.725   1.288 -0.4216 -0.1444 -0.6080
  403SOL     OW 2628   6.025   2.102   6.241 -0.0568  0.3654 -0.2233
  403SOL    HW1 2629   6.097   2.163   6.229  0.5052 -0.2106  0.1650
  403SOL    HW2 2630   6.056   2.040   6.307 -1.6186  1.2054  1.3789
  404SOL     OW 2631   3.794   3.995   6.595 -0.0175 -0.3047 -0.0502
  404SOL    HW1 2632   3.843   4.054   6.538  0.4759 -0.4462  0.2235
  404SOL    HW2 2633   3.758   4.052   6.663 -1.2126 -0.0253 -0.8917
  405SOL     OW 2634   7.644   2.385   0.897  0.1817  0.0988 -0.2670
  405SOL    HW1 2635   7.647   2.481   0.893 -0.0791  0.1026 -0.4034
  405SOL    HW2 2636   7.731   2.357   0.870  0.2857  0.3015 -0.1429
  406SOL     OW 2637   5.045   0.698   5.741 -0.0444  0.1881 -0.1676
  406SOL    HW1 2638   5.091   0.616   5.721  0.5496 -0.0873  2.0417
  406SOL    HW2 2639   5.089   0.764   5.688  0.1919 -0.7471 -1.1633
  407SOL     OW 2640   6.714   6.792   0.595  0.1812  0.4589 -0.0783
  407SOL    HW1 2641   6.699   6.885   0.612  0.1437  0.8611 -2.0652
  407SOL    HW2 2642   6.720   6.752   0.682 -2.0807  1.9283  0.8311
  408SOL     OW 2643   0.561   1.651   3.352  0.1542  0.0099 -0.0585
  408SOL    HW1 2644   0.468   1.646   3.330  0.0786  0.7462  0.0826
  408SOL    HW2 2645   0.606   1.611   3.278 -0.1859  0.9808 -0.8025
  409SOL     OW 2646   3.670   6.194   5.258 -0.2494  0.3242  0.1651
  409SOL    HW1 2647   3.688   6.244   5.338 -1.7135 -1.0673  1.4274
  409SOL    HW2 2648   3.615   6.121   5.287  1.4762 -1.8541 -1.6425
  410SOL     OW 2649   8.030   0.111   4.655  0.1101  0.1139 -0.0936
  410SOL    HW1 2650   8.014   0.141   4.566 -1.3495 -2.2638 -0.7321
  410SOL    HW2 2651   7.942   0.093   4.690  0.7438 -1.0508  1.0066
  411SOL     OW 2652   6.265   5.173   0.418  0.0727  0.3844 -0.3461
  411SOL    HW1 2653   6.274   5.107   0.349  1.3406 -1.3715  1.3854
  411SOL    HW2 2654   6.177   5.162   0.452 -0.0184  0.1775 -0.6515
  412SOL     OW 2655   4.505   4.854   4.920  0.4717 -0.0688  0.1435
  412SOL    HW1 2656   4.452   4.933   4.929  1.3647  0.8368 -1.9913
  412SOL    HW2 2657   4.552   4.847   5.003  2.4563  3.2664 -0.5447
  413SOL     OW 2658   2.400   3.149   4.394 -0.7667 -0.2497 -0.2543
  413SOL    HW1 2659   2.401   3.084   4.324  2.4106  1.0009 -1.6090
  413SOL    HW2 2660   2.463   3.116   4.458 -1.3384  0.1115  0.5117
  414SOL     OW 2661   6.520   0.089   2.587 -0.0286  1.0702 -0.6396
  414SOL    HW1 2662   6.606   0.078   2.544 -0.3669  1.4619 -1.4367
  414SOL    HW2 2663   6.507   0.183   2.590 -0.4742  1.0078 -0.6057
  415SOL     OW 2664   1.460   5.182   7.671  0.8703  0.3376  0.0525
  415SOL    HW1 2665   1.542   5.142   7.701  1.1672  1.6123  1.0816
  415SOL    HW2 2666   1.471   5.193   7.577  1.5282 -0.2877  0.0488
  416SOL     OW 2667   8.353   0.937   0.437  0.7600 -0.5460  0.3926
  416SOL    HW1 2668   8.260   0.928   0.416 -0.0090 -0.7553  3.4062
  416SOL    HW2 2669   8.355   0.955   0.531  3.8374 -1.6140  0.6548
  417SOL     OW 2670   3.035   2.477   2.694 -0.5967 -0.2677 -0.0555
  417SOL    HW1 2671   3.003   2.442   2.611 -0.8004  0.3041 -0.2209
  417SOL    HW2 2672   3.068   2.564   2.672 -0.5512 -0.1578  0.4420
  418SOL     OW 2673   7.982   4.011   5.549  0.0512  0.3561  0.0455
  418SOL    HW1 2674   7.984   3.918   5.528  0.7156  0.4376 -0.2822
  418SOL    HW2 2675   7.895   4.026   5.584 -0.3682 -0.2106 -0.7324
  419SOL     OW 2676   4.941   6.623   0.314 -0.5056 -0.3777 -0.2364
  419SOL    HW1 2677   4.980   6.540   0.287 -0.7899 -0.1121 -1.5626
  419SOL    HW2 2678   4.848   6.612   0.297 -0.7152 -0.2067  0.7493
  420SOL     OW 2679   2.403   6.352   1.855  0.0111  0.2801  0.3773
  420SOL    HW1 2680   2.471   6.325   1.792 -0.5347  0.2708 -0.2237
  420SOL    HW2 2681   2.429   6.312   1.937  0.2672 -0.4492 -0.0507
  421SOL     OW 2682   7.717   7.205   3.691 -0.1847 -0.1692 -0.1686
  421SOL    HW1 2683   7.697   7.295   3.718 -1.3783 -0.2218 -0.7870
  421SOL    HW2 2684   7.720   7.209   3.596 -1.0562 -0.9293 -0.2426
  422SOL     OW 2685   4.714   2.198   1.407  0.0183 -0.0884  0.5036
  422SOL    HW1 2686   4.797   2.178   1.364 -0.4923 -0.2768 -0.4190
  422SOL    HW2 2687   4.670   2.113   1.416 -0.8315  0.2052 -0.6330
  423SOL     OW 2688   5.521   0.799   7.965  0.4146  0.0759 -0.4876
  423SOL    HW1 2689   5.501   0.751   8.045  0.6627  0.2784 -0.3027
  423SOL    HW2 2690   5.487   0.744   7.894  0.9379 -0.5021 -0.2955
  424SOL     OW 2691   4.834   1.557   4.508  0.0413  0.1130  1.2040
  424SOL    HW1 2692   4.860   1.479   4.459  0.3142  1.2996 -0.6760
  424SOL    HW2 2693   4.750   1.583   4.469  1.0000  1.9548  0.2081
  425SOL     OW 2694   8.291   8.229   8.303  0.8459  0.5077 -0.5071
  425SOL    HW1 2695   8.295   8.280   8.222  2.9840  1.2791  0.0116
  425SOL    HW2 2696   8.359   8.163   8.293 -0.3740 -0.8590 -0.2118
  426SOL     OW 2697   2.101   5.021   4.355 -0.2988 -0.1815 -0.0094
  426SOL    HW1 2698   2.165   4.981   4.297 -1.4056 -0.8495 -0.8143
  426SOL    HW2 2699   2.133   5.110   4.369  0.3322 -0.2178 -1.1353
  427SOL     OW 2700   5.967   4.039   2.569  0.0750 -0.0922  0.6134
  427SOL    HW1 2701   6.059   4.057   2.584 -0.0947  0.4233  1.0769
  427SOL    HW2 2702   5.945   3.968   2.628 -0.3796  1.3462  2.2609
  428SOL     OW 2703   7.058   5.087   3.690 -0.1464 -0.1468  0.2111
  428SOL    HW1 2704   7.001   5.111   3.763 -0.2765  0.0372  0.0524
  428SOL    HW2 2705   7.100   5.170   3.665  0.6521 -0.3953  0.7181
  429SOL     OW 2706   2.023   2.843   6.141  0.5271  0.2535 -0.3720
  429SOL    HW1 2707   1.952   2.783   6.119  0.4420 -0.9185  2.6155
  429SOL    HW2 2708   1.980   2.928   6.153 -0.1235 -0.0993 -0.1701
  430SOL     OW 2709   1.578   3.292   4.896  0.4044 -0.6109 -0.1148
  430SOL    HW1 2710   1.637   3.225   4.860  0.0363 -0.4203 -1.0910
  430SOL    HW2 2711   1.627   3.330   4.969  1.4444 -0.5293 -0.8431
  431SOL     OW 2712   1.996   5.669   5.791 -0.2572  0.7379  0.0823
  431SOL    HW1 2713   2.042   5.639   5.712 -1.5181  0.4495 -0.5795
  431SOL    HW2 2714   2.001   5.594   5.851 -1.5637 -0.0741 -0.7606
  432SOL     OW 2715   5.437   1.730   6.838 -0.1006 -0.2347 -0.1570
  432SOL    HW1 2716   5.389   1.718   6.920 -1.3866 -2.1698 -1.1208
  432SOL    HW2 2717   5.374   1.770   6.779  0.2616 -0.4496 -0.6976
  433SOL     OW 2718   4.474   5.612   1.868 -0.0259 -0.2158 -0.0256
  433SOL    HW1 2719   4.454   5.520   1.883 -1.6312  0.0566 -0.3182
  433SOL    HW2 2720   4.502   5.645   1.953  1.4981 -1.1595 -0.1194
  434SOL     OW 2721   2.072   1.912   5.000  0.2368 -0.2350  0.1594
  434SOL    HW1 2722   2.144   1.962   5.038  0.0965 -0.1473  0.3104
  434SOL    HW2 2723   2.100   1.820   5.008 -0.0848 -0.2584  1.0862
  435SOL     OW 2724   2.832   6.525   7.856 -0.4728  0.2704 -0.2038
  435SOL    HW1 2725   2.920   6.561   7.868 -0.3720 -0.0441  0.0315
  435SOL    HW2 2726   2.828   6.452   7.918 -0.4680 -0.4736 -1.0569
  436SOL     OW 2727   6.673   4.640   2.485 -0.5091  0.0960  0.1291
  436SOL    HW1 2728   6.698   4.568   2.543  1.4269  2.0027  1.8367
  436SOL    HW2 2729   6.754   4.690   2.472 -2.0444  2.8750  0.3861
  437SOL     OW 2730   6.793   0.719   1.079  0.9032 -0.4950  0.7811
  437SOL    HW1 2731   6.820   0.694   0.990  0.7336  0.0577  0.5710
  437SOL    HW2 2732   6.861   0.779   1.109 -0.0153  0.8206  0.2910
  438SOL     OW 2733   0.291   6.227   6.196 -0.1298  0.0086 -0.5737
  438SOL    HW1 2734   0.278   6.209   6.103 -0.1638  1.9068 -0.9814
  438SOL    HW2 2735   0.374   6.184   6.218 -0.7450 -1.5405 -1.1241
  439SOL     OW 2736   7.598   0.537   2.994  0.4009 -0.1146 -0.1954
  439SOL    HW1 2737   7.547   0.603   2.946  0.0860 -0.1250  0.1224
  439SOL    HW2 2738   7.536   0.467   3.012  0.3741  0.1322  0.7062
  440SOL     OW 2739   5.804   4.350   3.486  0.4929 -0.0364  0.2074
  440SOL    HW1 2740   5.826   4.432   3.529 -0.2737  0.1324  0.2837
  440SOL    HW2 2741   5.742   4.307   3.545  1.6504 -1.1574  0.6760
  441SOL     OW 2742   3.791   4.803   4.084 -0.1002 -0.2760  0.4815
  441SOL    HW1 2743   3.875   4.850   4.089 -0.1682 -0.2014  0.9336
  441SOL    HW2 2744   3.767   4.787   4.175 -0.4093 -0.6040  0.3438
  442SOL     OW 2745   3.892   5.153   7.487  0.1987  0.3103  0.1561
  442SOL    HW1 2746   3.848   5.162   7.402  0.8395 -0.4440 -0.2707
  442SOL    HW2 2747   3.953   5.081   7.474  1.4720  1.2554  0.7758
  443SOL     OW 2748   6.977   4.939   0.967 -0.6919 -0.2394  0.4964
  443SOL    HW1 2749   7.048   4.912   0.908 -0.0898  0.2307  0.9875
  443SOL    HW2 2750   6.995   4.891   1.048 -1.1812 -0.4383  0.4879
  444SOL     OW 2751   5.247   2.627   2.962  0.3917  0.4373  0.3233
  444SOL    HW1 2752   5.212   2.600   3.046  0.3286 -0.3455  0.0494
  444SOL    HW2 2753   5.342   2.619   2.971  0.3814  0.2913  0.2971
  445SOL     OW 2754   8.287   0.832   7.441  0.0785  0.5583 -0.4692
  445SOL    HW1 2755   8.235   0.848   7.520  0.8527 -0.1154  0.1953
  445SOL    HW2 2756   8.367   0.883   7.455  0.6277 -0.3063 -0.3678
  446SOL     OW 2757   4.386   4.900   5.524  0.1034  0.5529 -0.3295
  446SOL    HW1 2758   4.406   4.988   5.556 -0.5571  0.1309  1.3543
  446SOL    HW2 2759   4.321   4.914   5.455  0.0388  1.3975 -0.1109
  447SOL     OW 2760   6.627   4.359   6.600 -0.1154 -0.2317  0.3753
  447SOL    HW1 2761   6.609   4.303   6.525 -0.0840 -0.3355  0.4450
  447SOL    HW2 2762   6.548   4.353   6.655  0.2430 -0.9264  0.8311
  448SOL     OW 2763   4.252   2.640   1.941  0.6104 -0.0232 -0.1140
  448SOL    HW1 2764   4.168   2.618   1.980  0.8319 -1.9935 -0.5922
  448SOL    HW2 2765   4.240   2.727   1.903 -1.3015 -0.3844 -0.4248
  449SOL     OW 2766   6.559   1.303   5.031 -0.9615 -0.2143 -1.0233
  449SOL    HW1 2767   6.565   1.238   5.101  1.3800  0.1859 -0.7913
  449SOL    HW2 2768   6.536   1.385   5.076 -0.4842 -0.1731 -0.8514
  450SOL     OW 2769   5.369   1.608   5.417  0.0135  0.2531 -0.1185
  450SOL    HW1 2770   5.421   1.580   5.493 -0.2948 -1.5314 -0.5025
  450SOL    HW2 2771   5.312   1.677   5.450 -0.4070 -0.7714  1.4165
  451SOL     OW 2772   2.293   2.748   4.978  0.1436 -0.6747  0.1974
  451SOL    HW1 2773   2.342   2.727   4.899  0.5803 -0.4073  0.3874
  451SOL    HW2 2774   2.306   2.842   4.990  0.4835 -0.7922  0.8413
  452SOL     OW 2775   1.827   8.270   1.987 -0.1788 -0.2762 -0.4847
  452SOL    HW1 2776   1.876   8.309   2.060 -1.4785  0.1640  0.1971
  452SOL    HW2 2777   1.844   8.176   1.995 -2.1679 -0.5450  1.9259
  453SOL     OW 2778   5.284   0.865   2.864 -0.7482  0.8111 -0.1497
  453SOL    HW1 2779   5.354   0.922   2.832 -0.3359 -0.2783 -1.2513
  453SOL    HW2 2780   5.205   0.919   2.858 -0.5565  0.9162 -2.2819
  454SOL     OW 2781   7.221   3.735   0.975  0.0336 -0.1068 -0.0121
  454SOL    HW1 2782   7.242   3.768   0.888  0.6123 -0.6533 -0.0864
  454SOL    HW2 2783   7.139   3.779   0.998  1.3620  2.3630  0.3887
  455SOL     OW 2784   7.897   0.434   2.562  0.1499 -0.1560  0.0528
  455SOL    HW1 2785   7.865   0.406   2.648  0.0560 -2.7415 -0.7523
  455SOL    HW2 2786   7.990   0.451   2.576 -0.1653  0.9844  0.9695
  456SOL     OW 2787   7.218   3.029   1.487 -0.7644  0.2376  0.2742
  456SOL    HW1 2788   7.306   3.014   1.453 -0.9257 -0.0121 -0.0380
  456SOL    HW2 2789   7.160   2.989   1.423 -1.2049  1.9844 -0.4924
  457SOL     OW 2790   6.022   5.648   0.513 -0.6046  0.0232 -0.2621
  457SOL    HW1 2791   5.928   5.668   0.515 -0.7642 -0.7031  1.0484
  457SOL    HW2 2792   6.051   5.664   0.602  0.1449 -1.3892 -0.2283
  458SOL     OW 2793   7.248   6.264   5.910 -0.2125  0.3753 -0.4703
  458SOL    HW1 2794   7.193   6.327   5.957  0.8746  1.5884 -0.7696
  458SOL    HW2 2795   7.311   6.233   5.975 -1.5257 -1.4172  0.0117
  459SOL     OW 2796   7.399   1.288   4.943  0.5331 -0.4383  0.1333
  459SOL    HW1 2797   7.428   1.225   5.009 -1.1441 -0.4773  0.9078
  459SOL    HW2 2798   7.479   1.328   4.910  1.5237 -1.7551  0.8660
  460SOL     OW 2799   6.067   3.012   5.818  0.0795 -0.2479  0.1540
  460SOL    HW1 2800   6.023   3.095   5.798 -0.5853 -0.2726  1.4344
  460SOL    HW2 2801   6.095   2.979   5.732 -2.0364 -0.0150 -0.6915
  461SOL     OW 2802   6.895   7.761   1.851  0.0076 -0.4364 -0.3348
  461SOL    HW1 2803   6.910   7.739   1.943  0.5592  0.0397 -0.3123
  461SOL    HW2 2804   6.875   7.854   1.851  0.5970 -0.3087 -0.7657
  462SOL     OW 2805   4.200   4.934   8.087 -0.0679 -0.4557 -0.3718
  462SOL    HW1 2806   4.246   5.016   8.067  2.2350 -1.4923  0.3747
  462SOL    HW2 2807   4.137   4.958   8.155 -1.1151  1.1270 -1.8147
  463SOL     OW 2808   4.865   6.182   6.115 -0.3245  0.2354  0.6516
  463SOL    HW1 2809   4.796   6.137   6.065  0.8127  0.7758 -1.5354
  463SOL    HW2 2810   4.944   6.129   6.099  0.5046  1.5915  0.1043
  464SOL     OW 2811   2.253   3.785   5.819 -0.4200  0.6079 -0.2570
  464SOL    HW1 2812   2.201   3.803   5.741 -0.7823  3.5508  0.5433
  464SOL    HW2 2813   2.189   3.775   5.889 -0.0152 -0.0630  0.0385
  465SOL     OW 2814   5.113   3.767   1.326 -0.2896  0.2736  0.3663
  465SOL    HW1 2815   5.054   3.823   1.376  0.1434  0.4331  0.6972
  465SOL    HW2 2816   5.187   3.822   1.304  0.3977 -0.3120  1.1645
  466SOL     OW 2817   7.612   7.853   7.517  0.2518  0.2049 -0.7560
  466SOL    HW1 2818   7.618   7.929   7.574  0.4158  0.7643 -1.5054
  466SOL    HW2 2819   7.636   7.779   7.572  0.8291  0.7877 -0.2224
  467SOL     OW 2820   3.711   6.878   7.600  0.0501 -0.0744 -0.7023
  467SOL    HW1 2821   3.684   6.941   7.666 -1.2841  0.7229 -1.9370
  467SOL    HW2 2822   3.736   6.800   7.649 -1.9302  0.1052  0.7096
  468SOL     OW 2823   0.274   2.389   3.359 -0.2189  0.1973 -0.0862
  468SOL    HW1 2824   0.352   2.409   3.306 -0.8685  1.6684 -0.5381
  468SOL    HW2 2825   0.217   2.342   3.299 -0.6466  1.2185 -0.5135
  469SOL     OW 2826   1.927   2.703   0.579  0.3928  0.6973 -0.0979
  469SOL    HW1 2827   1.859   2.709   0.646  0.5697 -0.0642  0.1515
  469SOL    HW2 2828   1.878   2.686   0.498  0.3486 -1.2404  0.2938
  470SOL     OW 2829   2.662   7.993   2.126 -0.1256 -0.3164 -0.3516
  470SOL    HW1 2830   2.626   7.917   2.173 -0.4239 -0.3111 -0.5646
  470SOL    HW2 2831   2.702   7.955   2.047 -1.0051 -0.1888 -0.8838
  471SOL     OW 2832   2.627   0.064   5.888  0.4439 -0.2248  0.3026
  471SOL    HW1 2833   2.605  -0.018   5.933 -2.3006 -0.3035 -0.9878
  471SOL    HW2 2834   2.701   0.098   5.938 -1.2980 -1.1193  3.9084
  472SOL     OW 2835   0.816   6.981   3.450  0.6037  0.5246 -0.0565
  472SOL    HW1 2836   0.747   6.917   3.467  0.8334  0.4029  0.4203
  472SOL    HW2 2837   0.774   7.048   3.396 -0.1975  1.0519  1.1923
  473SOL     OW 2838   4.710   0.846   4.067  0.0261 -0.0990  0.6298
  473SOL    HW1 2839   4.780   0.886   4.015 -1.9221  0.7717 -1.4982
  473SOL    HW2 2840   4.712   0.894   4.150  0.7460  1.2644 -0.1261
  474SOL     OW 2841   1.792   5.756   3.111 -0.2677 -0.3136  0.0519
  474SOL    HW1 2842   1.834   5.706   3.041  1.0936 -0.3779  0.8706
  474SOL    HW2 2843   1.710   5.787   3.073  0.9668  0.6724 -1.9820
  475SOL     OW 2844   3.712   8.199   5.523  0.3235  0.5512  0.3581
  475SOL    HW1 2845   3.647   8.269   5.516  0.4752  0.6363 -0.3522
  475SOL    HW2 2846   3.660   8.119   5.531  0.0996  0.5529 -0.8469
  476SOL     OW 2847   7.797   7.248   3.053  0.3716 -0.4300 -0.4473
  476SOL    HW1 2848   7.769   7.204   3.134  0.2298 -0.7632 -0.6741
  476SOL    HW2 2849   7.876   7.200   3.026  0.6064 -0.1105 -0.3301
  477SOL     OW 2850   4.910   3.175   2.554 -0.0084 -0.5720 -0.0174
  477SOL    HW1 2851   4.830   3.141   2.594 -0.0415  2.5343  2.9216
  477SOL    HW2 2852   4.978   3.111   2.578 -0.9610 -1.3918  0.5459
  478SOL     OW 2853   5.835   3.128   6.351 -0.2490 -0.1602  0.2895
  478SOL    HW1 2854   5.885   3.204   6.380  0.1676 -0.8941  1.6067
  478SOL    HW2 2855   5.898   3.073   6.305 -0.6390  0.4558 -1.0060
  479SOL     OW 2856   4.062   2.003   1.763  0.6170  0.1951 -0.0456
  479SOL    HW1 2857   3.988   2.016   1.822  0.1776  0.8641 -0.7310
  479SOL    HW2 2858   4.063   2.081   1.708  1.2975 -0.2079 -0.6211
  480SOL     OW 2859   1.159   0.927   3.191 -0.0491 -0.6477  0.4781
  480SOL    HW1 2860   1.185   0.838   3.214  0.9261 -0.6512 -0.5867
  480SOL    HW2 2861   1.234   0.963   3.143 -0.9377  0.2989 -0.2520
  481SOL     OW 2862   2.222   8.265   4.460  0.4816 -0.2216 -0.7417
  481SOL    HW1 2863   2.212   8.308   4.375  0.4511  1.4937  0.0822
  481SOL    HW2 2864   2.245   8.336   4.520  0.5058 -1.3916  0.6889
  482SOL     OW 2865   4.556   1.243   4.857 -0.1717 -0.0089  0.1503
  482SOL    HW1 2866   4.647   1.216   4.847  0.8443  2.0356  2.7165
  482SOL    HW2 2867   4.525   1.200   4.937 -0.8729  0.6632  0.2647
  483SOL     OW 2868   7.530   7.018   6.192  0.1722  0.3839 -0.3611
  483SOL    HW1 2869   7.570   6.951   6.137  0.1899  0.1486 -0.0627
  483SOL    HW2 2870   7.582   7.097   6.175 -0.0889  0.4235 -1.0053
  484SOL     OW 2871   3.555   4.409   2.805  0.4802  0.6293 -0.2898
  484SOL    HW1 2872   3.614   4.429   2.733  2.4981 -0.7867  0.9001
  484SOL    HW2 2873   3.491   4.348   2.767  1.6524 -0.2924 -0.8370
  485SOL     OW 2874   1.213   8.091   6.791  0.1914  0.2524  0.2926
  485SOL    HW1 2875   1.164   8.012   6.766  0.4062  0.2171 -0.0334
  485SOL    HW2 2876   1.148   8.149   6.829  0.2620 -0.6306  1.8303
  486SOL     OW 2877   0.706   7.781   1.231 -0.2524  0.0273  0.2056
  486SOL    HW1 2878   0.652   7.839   1.177  0.4366 -0.2574 -0.8130
  486SOL    HW2 2879   0.654   7.768   1.311 -1.3790  0.2934 -0.4582
  487SOL     OW 2880   5.285   4.576   8.266 -0.4524 -0.3074 -0.0879
  487SOL    HW1 2881   5.207   4.534   8.230 -0.7888  0.6886 -0.5431
  487SOL    HW2 2882   5.252   4.638   8.330 -0.1032  0.6849 -0.8407
  488SOL     OW 2883   4.720   8.272   3.446  0.1431  0.1050  0.1694
  488SOL    HW1 2884   4.782   8.229   3.505  0.4677  0.4519  0.0810
  488SOL    HW2 2885   4.759   8.357   3.426 -0.1972  0.1916 -0.1573
  489SOL     OW 2886   2.202   3.890   2.044 -0.6582 -0.6545  0.0165
  489SOL    HW1 2887   2.178   3.912   2.134 -1.5953  1.4901 -0.6721
  489SOL    HW2 2888   2.145   3.817   2.021 -2.9036  0.9326  0.1573
  490SOL     OW 2889   7.936   6.024   2.280 -0.5439  0.1394 -0.2268
  490SOL    HW1 2890   7.894   6.026   2.194  0.6712  1.5317 -0.8395
  490SOL    HW2 2891   7.928   5.934   2.309 -0.1392 -0.6074 -2.2543
  491SOL     OW 2892   4.602   3.294   7.901 -0.1679  0.6387 -0.0836
  491SOL    HW1 2893   4.582   3.202   7.882 -1.2834  0.6521  0.9236
  491SOL    HW2 2894   4.520   3.330   7.934  0.0270  2.2336 -1.2294
  492SOL     OW 2895   3.160   6.760   1.674  0.0478  0.2185  0.2810
  492SOL    HW1 2896   3.071   6.726   1.669  1.1950 -3.4312  1.3493
  492SOL    HW2 2897   3.171   6.787   1.765  0.4407 -0.7562  0.5344
  493SOL     OW 2898   7.517   1.428   3.346  0.1267 -0.1019  0.6843
  493SOL    HW1 2899   7.523   1.470   3.432 -0.2095  0.0206  0.6482
  493SOL    HW2 2900   7.482   1.341   3.364 -0.7411  0.2239  0.5818
  494SOL     OW 2901   0.331   8.350   0.169 -0.3514  1.0259  0.1690
  494SOL    HW1 2902   0.238   8.359   0.187  0.0792  2.1714  2.0765
  494SOL    HW2 2903   0.336   8.335   0.074 -2.4086  1.8920 -0.1250
  495SOL     OW 2904   8.226   0.982   7.680  0.1533 -0.4987  0.4037
  495SOL    HW1 2905   8.308   0.945   7.713  0.3313  1.0692  1.8627
  495SOL    HW2 2906   8.253   1.061   7.634 -0.3732 -1.1468 -1.0617
  496SOL     OW 2907   0.327   7.218   4.523  0.2045  0.3492 -0.1250
  496SOL    HW1 2908   0.318   7.192   4.614  0.2729  0.1944 -0.1629
  496SOL    HW2 2909   0.246   7.190   4.481 -0.3016  1.3953  0.1191
  497SOL     OW 2910   0.368   3.799   3.105 -0.1141 -0.4483 -0.1959
  497SOL    HW1 2911   0.294   3.741   3.089 -0.6946  0.1653  0.2510
  497SOL    HW2 2912   0.333   3.869   3.159  1.0897 -0.8335  1.1572
  498SOL     OW 2913   8.215   5.674   0.634 -0.5373 -0.4299  0.3003
  498SOL    HW1 2914   8.285   5.609   0.635  0.0925  0.1108  3.4406
  498SOL    HW2 2915   8.260   5.758   0.644 -1.5064  0.1989 -0.4484
  499SOL     OW 2916   0.106   2.588   1.991  0.2531 -0.3955 -0.2328
  499SOL    HW1 2917   0.083   2.536   2.068 -1.4149 -0.8089 -0.9552
  499SOL    HW2 2918   0.170   2.535   1.944  3.0646  0.8507  1.9367
  500SOL     OW 2919   5.897   7.828   2.262  0.7272 -0.5478  0.5768
  500SOL    HW1 2920   5.953   7.875   2.200  2.6104  0.0142  2.5556
  500SOL    HW2 2921   5.879   7.744   2.220  1.8865 -0.1730 -0.7324
  501SOL     OW 2922   7.428   7.491   2.753  0.4015  0.3749  0.7481
  501SOL    HW1 2923   7.416   7.584   2.773  4.0066  0.8113  1.5525
  501SOL    HW2 2924   7.521   7.482   2.734  0.2998 -3.1667  1.1932
  502SOL     OW 2925   1.516   3.077   7.173 -0.0866 -0.3599 -0.0273
  502SOL    HW1 2926   1.536   3.146   7.109 -0.0412  0.0798  0.4537
  502SOL    HW2 2927   1.600   3.033   7.187  1.2010  2.7339  3.4710
  503SOL     OW 2928   5.845   3.656   5.015 -0.7637 -0.1883  0.4301
  503SOL    HW1 2929   5.795   3.706   4.950 -1.0199  0.5855  1.1991
  503SOL    HW2 2930   5.778   3.612   5.067 -0.6685  0.6488  1.3050
  504SOL     OW 2931   2.884   2.754   8.023 -0.1584 -0.5229 -0.2138
  504SOL    HW1 2932   2.967   2.747   7.977  0.2686 -0.5760  0.5501
  504SOL    HW2 2933   2.824   2.794   7.959  0.1058 -1.6438 -1.1761
  505SOL     OW 2934   7.154   0.538   2.891 -0.2954 -0.2038 -0.1999
  505SOL    HW1 2935   7.075   0.492   2.921 -0.8747  0.9223  0.0523
  505SOL    HW2 2936   7.138   0.630   2.913  0.3573  0.2872 -1.6985
  506SOL     OW 2937   5.033   3.314   5.866 -0.7940 -0.2834  0.1599
  506SOL    HW1 2938   5.066   3.393   5.909 -2.0429 -0.3567  1.3145
  506SOL    HW2 2939   5.084   3.242   5.905 -0.9268 -0.2115  0.4700
  507SOL     OW 2940   4.045   7.937   5.500  0.0430 -0.3876  0.2284
  507SOL    HW1 2941   4.021   8.024   5.532  0.7069 -1.0669  2.8507
  507SOL    HW2 2942   4.068   7.950   5.408  1.0765  2.4001  0.7994
  508SOL     OW 2943   2.821   1.568   3.932  0.0247 -0.0421  0.3157
  508SOL    HW1 2944   2.841   1.547   4.023 -0.5540  1.7702  0.9075
  508SOL    HW2 2945   2.814   1.664   3.931 -1.0258 -0.1030 -1.4134
  509SOL     OW 2946   0.698   7.578   4.174  0.1946 -0.1512 -0.3363
  509SOL    HW1 2947   0.756   7.624   4.114 -0.6168  0.2253 -0.8373
  509SOL    HW2 2948   0.735   7.490   4.180  2.1795  0.7180  1.1888
  510SOL     OW 2949   5.782   6.337   7.165 -0.3590 -0.5686  0.2706
  510SOL    HW1 2950   5.766   6.411   7.224  0.3283  0.9663 -1.3477
  510SOL    HW2 2951   5.846   6.371   7.102 -0.0654 -2.5572 -0.5737
  511SOL     OW 2952   6.524   4.393   2.373 -0.2608 -0.1561 -0.5624
  511SOL    HW1 2953   6.446   4.449   2.368  0.7086  1.3371  0.3643
  511SOL    HW2 2954   6.584   4.430   2.309 -1.7565 -3.9866 -4.8002
  512SOL     OW 2955   1.763   0.898   3.428  0.1412 -0.3005 -0.2542
  512SOL    HW1 2956   1.787   0.917   3.337 -1.2177 -1.7282 -0.9608
  512SOL    HW2 2957   1.700   0.967   3.451  0.8812  0.3719 -0.1862
  513SOL     OW 2958   7.492   5.722   8.004 -0.0721 -0.0380 -0.0072
  513SOL    HW1 2959   7.546   5.659   7.956 -1.7001 -0.5489 -1.2514
  513SOL    HW2 2960   7.548   5.799   8.014  1.2127 -0.8877 -0.3895
  514SOL     OW 2961   6.183   0.441   1.694  0.0065 -0.4741  0.2218
  514SOL    HW1 2962   6.110   0.429   1.633  0.7795  0.7928 -1.0078
  514SOL    HW2 2963   6.230   0.357   1.692 -0.7145 -0.8805  0.0891
  515SOL     OW 2964   3.794   0.260   2.643  0.5410 -0.2185  0.1522
  515SOL    HW1 2965   3.861   0.292   2.583  0.1900  1.1072  0.4224
  515SOL    HW2 2966   3.765   0.177   2.605  2.4987 -0.9605  0.1899
  516SOL     OW 2967   2.777   3.885   6.442  0.1470  0.9479  0.2568
  516SOL    HW1 2968   2.777   3.927   6.527  1.7705 -0.5017  1.0393
  516SOL    HW2 2969   2.735   3.800   6.457  1.5814  0.1416 -0.0351
  517SOL     OW 2970   7.664   4.772   0.012  0.5023 -0.1226  0.0914
  517SOL    HW1 2971   7.590   4.765   0.073 -0.4900  0.4683 -1.0089
  517SOL    HW2 2972   7.626   4.811  -0.067  2.3062  1.7137  0.0547
  518SOL     OW 2973   5.455   8.368   6.488 -0.2849 -0.1023 -0.0384
  518SOL    HW1 2974   5.432   8.275   6.494 -0.2217 -0.0830  0.6520
  518SOL    HW2 2975   5.495   8.377   6.402 -1.3233 -0.4781 -0.5768
  519SOL     OW 2976   6.995   1.367   7.497  0.0165 -0.6333 -0.2795
  519SOL    HW1 2977   7.088   1.377   7.514  0.2235 -0.3457 -1.4802
  519SOL    HW2 2978   6.990   1.338   7.406 -1.0809 -0.2145 -0.3688
  520SOL     OW 2979   7.199   7.013   4.471 -0.1647  0.4739 -0.2557
  520SOL    HW1 2980   7.294   7.010   4.480 -0.1217 -0.2480 -0.8385
  520SOL    HW2 2981   7.170   7.077   4.536  0.8941  2.1567 -1.3449
  521SOL     OW 2982   6.291   5.760   7.771  0.1711  0.0758  0.0838
  521SOL    HW1 2983   6.291   5.811   7.690  0.7989  0.5639  0.3848
  521SOL    HW2 2984   6.199   5.743   7.789 -0.0150  0.7033 -0.2688
  522SOL     OW 2985   5.758   5.324   3.701 -0.2626 -0.2414  0.1759
  522SOL    HW1 2986   5.698   5.296   3.632  1.1466 -2.3645 -0.2898
  522SOL    HW2 2987   5.702   5.341   3.777 -1.8238  1.8592 -1.3158
  523SOL     OW 2988   5.483   2.225   2.488  0.4775 -0.4315  0.3607
  523SOL    HW1 2989   5.435   2.303   2.461  0.0632 -1.3667 -1.7575
  523SOL    HW2 2990   5.575   2.252   2.490  0.2091  0.4877  1.2174
  524SOL     OW 2991   7.106   5.054   4.626 -0.3738  0.1522 -0.0809
  524SOL    HW1 2992   7.109   5.065   4.531 -0.3412 -0.8778 -0.2024
  524SOL    HW2 2993   7.185   5.098   4.657  0.3045 -0.6351 -0.6482
  525SOL     OW 2994   5.507   3.250   6.912 -0.5814  0.5561  0.0292
  525SOL    HW1 2995   5.425   3.261   6.960  0.3350 -0.5951  1.9514
  525SOL    HW2 2996   5.576   3.270   6.975  0.6701 -0.2233 -1.0308
  526SOL     OW 2997   0.178   1.684   7.273  0.2245  0.4166  0.2193
  526SOL    HW1 2998   0.131   1.767   7.275 -0.8136 -0.1633  1.2392
  526SOL    HW2 2999   0.245   1.693   7.341  0.1262  0.4249  0.3153
  527SOL     OW 3000   7.842   5.673   6.772 -0.0407 -0.5166  0.0278
  527SOL    HW1 3001   7.764   5.726   6.754  0.1116 -0.0366  0.7435
  527SOL    HW2 3002   7.862   5.631   6.689 -1.4159 -1.1162 -0.0281
  528SOL     OW 3003   6.520   3.826   7.128  0.2814 -0.4405 -0.3813
  528SOL    HW1 3004   6.504   3.824   7.223 -0.5771  1.0149 -0.4691
  528SOL    HW2 3005   6.562   3.911   7.113  1.1926 -1.0272 -1.2018
  529SOL     OW 3006   1.538   3.936   0.187  0.1660  0.0280 -0.1603
  529SOL    HW1 3007   1.468   3.893   0.139 -0.8683 -0.0903  1.3917
  529SOL    HW2 3008   1.609   3.946   0.123 -1.5193  0.8824 -1.9800
  530SOL     OW 3009   3.118   1.240   1.346  0.1590 -0.3751 -0.2029
  530SOL    HW1 3010   3.129   1.333   1.327  1.8497 -0.3890  0.4673
  530SOL    HW2 3011   3.029   1.232   1.378 -0.4767  0.7653 -1.5854
  531SOL     OW 3012   5.861   4.548   3.644  0.6507 -0.6308 -0.3168
  531SOL    HW1 3013   5.852   4.550   3.739 -0.6247 -0.3276 -0.4369
  531SOL    HW2 3014   5.822   4.630   3.614  0.9721 -0.7608 -1.1119
  532SOL     OW 3015   6.214   1.590   7.568 -0.0219 -0.2283  0.3455
  532SOL    HW1 3016   6.120   1.572   7.571  0.1907 -1.2866  1.0359
  532SOL    HW2 3017   6.229   1.649   7.642 -0.1788  0.1973  0.0466
  533SOL     OW 3018   2.659   7.602   4.557 -0.5663  0.0537 -0.3436
  533SOL    HW1 3019   2.572   7.640   4.574  0.3020  1.7739  0.5284
  533SOL    HW2 3020   2.700   7.663   4.497  0.4539 -0.1188  0.1555
  534SOL     OW 3021   1.101   0.484   2.914  0.6789 -0.2198  0.8108
  534SOL    HW1 3022   1.032   0.431   2.874  1.3023  1.0262 -2.2205
  534SOL    HW2 3023   1.183   0.442   2.888  1.1354  1.1241 -0.0421
  535SOL     OW 3024   1.926   1.497   3.388  0.7238 -0.4658 -0.7388
  535SOL    HW1 3025   1.927   1.401   3.381 -0.4408 -0.5154 -0.4133
  535SOL    HW2 3026   1.999   1.517   3.447  0.5175 -1.2067 -0.2158
  536SOL     OW 3027   7.263   3.783   5.429 -0.4743  0.4469 -0.0038
  536SOL    HW1 3028   7.191   3.846   5.438 -1.2068 -0.1935 -1.0763
  536SOL    HW2 3029   7.235   3.725   5.358  1.3398  0.5044 -0.8306
  537SOL     OW 3030   3.598   7.793   2.207  0.0876 -0.0770  0.1491
  537SOL    HW1 3031   3.536   7.790   2.280 -0.1016 -1.4999 -0.0336
  537SOL    HW2 3032   3.662   7.724   2.228 -0.5612 -1.2478 -1.5156
  538SOL     OW 3033   3.828   2.314   0.053  0.4124  0.5433  0.2322
  538SOL    HW1 3034   3.743   2.306   0.009  1.3241 -2.6142 -1.2499
  538SOL    HW2 3035   3.808   2.307   0.146 -0.9806 -0.4513 -0.1104
  539SOL     OW 3036   7.634   2.364   3.252  0.1552  0.4938 -0.0774
  539SOL    HW1 3037   7.636   2.339   3.160  0.3312  1.4911 -0.3626
  539SOL    HW2 3038   7.650   2.283   3.300 -0.5608 -0.1528 -0.8996
  540SOL     OW 3039   3.578   7.457   7.095 -0.1767 -1.2792  0.1908
  540SOL    HW1 3040   3.515   7.389   7.117 -0.1543 -1.2525  0.3360
  540SOL    HW2 3041   3.655   7.409   7.066 -0.3016 -1.3113 -0.0939
  541SOL     OW 3042   5.401   5.468   6.791 -0.7850  0.5225 -0.5366
  541SOL    HW1 3043   5.428   5.377   6.797 -0.4057  0.5203 -1.9373
  541SOL    HW2 3044   5.318   5.472   6.839 -0.5819 -0.4526 -0.0828
  542SOL     OW 3045   7.909   6.087   1.498  0.0381 -0.5514 -0.1353
  542SOL    HW1 3046   7.953   6.017   1.546  2.4953  0.7870 -0.2439
  542SOL    HW2 3047   7.928   6.068   1.406  2.0919  0.9926 -0.0996
  543SOL     OW 3048   4.293   6.366   0.123 -0.1895  0.3619  0.4089
  543SOL    HW1 3049   4.372   6.313   0.116 -1.2856 -1.2734 -0.2470
  543SOL    HW2 3050   4.290   6.416   0.042 -0.6258 -0.7743 -0.2965
  544SOL     OW 3051   1.893   5.299   0.112  0.1579  0.0330 -0.2495
  544SOL    HW1 3052   1.888   5.226   0.051 -0.6243 -0.8627  0.8579
  544SOL    HW2 3053   1.875   5.377   0.058 -1.1093 -0.7852 -1.0616
  545SOL     OW 3054   0.587   8.360   0.253 -0.1273 -0.4244  0.1068
  545SOL    HW1 3055   0.575   8.389   0.343 -1.6854  1.2716 -0.5756
  545SOL    HW2 3056   0.499   8.343   0.221  0.4115 -1.1684 -1.0610
  546SOL     OW 3057   7.304   0.843   3.058 -0.1374 -0.1255  0.4932
  546SOL    HW1 3058   7.223   0.893   3.066 -0.0738  0.2395 -0.9675
  546SOL    HW2 3059   7.312   0.824   2.965  0.6378 -1.5455  0.8251
  547SOL     OW 3060   2.720   0.898   4.146  0.1506  0.0064 -0.3578
  547SOL    HW1 3061   2.749   0.951   4.221  0.3563  0.0817 -0.4906
  547SOL    HW2 3062   2.688   0.817   4.185  2.3280 -0.8873 -0.3371
  548SOL     OW 3063   2.082   0.061   4.694 -0.3733 -0.4045 -0.0913
  548SOL    HW1 3064   2.173   0.075   4.668 -0.2106 -1.4752 -0.1373
  548SOL    HW2 3065   2.070  -0.033   4.689 -0.8377 -0.5059  1.9954
  549SOL     OW 3066   5.387   1.256   1.274  0.0218  0.2855  0.5252
  549SOL    HW1 3067   5.437   1.266   1.355 -2.6259  0.6206  2.2595
  549SOL    HW2 3068   5.386   1.162   1.257 -1.7534 -0.1294  2.5834
  550SOL     OW 3069   1.839   5.467   6.281 -0.0148  0.0623  0.9406
  550SOL    HW1 3070   1.904   5.407   6.245 -1.6028 -0.8757 -0.5443
  550SOL    HW2 3071   1.888   5.547   6.298  1.3541 -0.2363 -1.1278
  551SOL     OW 3072   3.027   2.335   2.230  0.2489  0.3883 -0.0127
  551SOL    HW1 3073   3.024   2.248   2.271  1.7028 -0.2420 -1.1698
  551SOL    HW2 3074   2.937   2.350   2.200 -0.5138  0.2318  2.0253
  552SOL     OW 3075   6.194   2.812   0.956 -0.0663  0.2883 -0.6428
  552SOL    HW1 3076   6.248   2.807   1.034 -0.4517  1.0711 -0.3115
  552SOL    HW2 3077   6.236   2.752   0.894  0.0786 -0.5606  0.2465
  553SOL     OW 3078   7.452   1.639   0.042 -0.8989  0.2461  0.4163
  553SOL    HW1 3079   7.513   1.621   0.114  0.7767 -0.8524 -1.1638
  553SOL    HW2 3080   7.456   1.560  -0.012 -0.2422  1.8781 -2.0992
  554SOL     OW 3081   0.573   7.323   0.046  0.1648 -0.1475 -0.2964
  554SOL    HW1 3082   0.667   7.329   0.062  0.1590 -2.0985  0.7424
  554SOL    HW2 3083   0.564   7.256  -0.022 -0.5703 -2.1573  1.6740
  555SOL     OW 3084   4.353   2.776   1.624 -0.1225 -0.2608 -0.4140
  555SOL    HW1 3085   4.372   2.738   1.539 -0.0763 -0.0935 -0.4784
  555SOL    HW2 3086   4.258   2.788   1.625 -0.1728 -0.6508 -0.2786
  556SOL     OW 3087   6.711   4.144   1.312  0.0568  0.6474  0.4729
  556SOL    HW1 3088   6.726   4.058   1.275  1.0321  0.0047  2.2175
  556SOL    HW2 3089   6.616   4.153   1.317 -0.0615 -0.8128  1.2757
  557SOL     OW 3090   0.661   0.354   4.346 -0.1831  0.0847  0.4682
  557SOL    HW1 3091   0.734   0.411   4.369 -0.1732  0.1273  0.3276
  557SOL    HW2 3092   0.660   0.352   4.251  1.0592 -1.7398  0.4410
  558SOL     OW 3093   4.586   4.892   4.582  0.3179 -0.6124  0.1880
  558SOL    HW1 3094   4.590   4.957   4.652  3.2772 -1.6510  1.1205
  558SOL    HW2 3095   4.569   4.809   4.627  1.7992 -1.2243 -0.3065
  559SOL     OW 3096   2.322   5.751   2.306  0.4030 -0.0225 -0.4977
  559SOL    HW1 3097   2.338   5.826   2.363 -1.7135  0.5802 -0.6243
  559SOL    HW2 3098   2.274   5.787   2.232  1.9177 -1.0321 -2.0402
  560SOL     OW 3099   3.450   6.431   5.833  0.1194  0.1874 -0.8163
  560SOL    HW1 3100   3.516   6.368   5.804  1.2396  0.7523  0.4147
  560SOL    HW2 3101   3.478   6.515   5.795  0.2543  0.4741 -0.0987
  561SOL     OW 3102   3.555   3.178   3.155  0.0067  0.3822 -0.6648
  561SOL    HW1 3103   3.539   3.259   3.204 -0.0124  0.9463 -1.5755
  561SOL    HW2 3104   3.627   3.200   3.096  3.0941 -1.5191  2.0244
  562SOL     OW 3105   0.379   2.993   1.555 -0.1051 -0.2361  0.0686
  562SOL    HW1 3106   0.457   3.039   1.524 -0.1852 -0.6141 -0.6997
  562SOL    HW2 3107   0.313   3.062   1.562  0.0572 -0.0596 -0.1127
  563SOL     OW 3108   4.716   7.467   8.283  0.5537  0.5657 -0.1643
  563SOL    HW1 3109   4.697   7.479   8.190 -0.6354 -1.0039 -0.1664
  563SOL    HW2 3110   4.777   7.394   8.286  0.3885  0.4439  0.2972
  564SOL     OW 3111   5.723   0.550   1.757  0.2332 -0.1349  0.1003
  564SOL    HW1 3112   5.746   0.643   1.749 -0.3404 -0.0019 -0.0501
  564SOL    HW2 3113   5.730   0.515   1.668 -3.1985  0.6498 -0.6256
  565SOL     OW 3114   7.334   6.490   3.384  0.6152  0.0776 -0.0878
  565SOL    HW1 3115   7.414   6.445   3.359  1.8164  1.6609  0.7373
  565SOL    HW2 3116   7.310   6.541   3.306  0.0147 -0.8602 -0.5474
  566SOL     OW 3117   6.203   0.982   0.913 -0.3917  1.2178 -0.3145
  566SOL    HW1 3118   6.226   0.890   0.903 -0.4729  1.0091  1.1660
  566SOL    HW2 3119   6.135   0.998   0.848 -2.2567 -0.4653  1.1140
  567SOL     OW 3120   0.452   2.341   7.804 -0.0723  0.5420  0.3268
  567SOL    HW1 3121   0.527   2.290   7.832 -0.1339  0.0114 -0.4423
  567SOL    HW2 3122   0.377   2.300   7.849  0.0159  0.6503  0.5721
  568SOL     OW 3123   1.415   7.134   1.592  0.5674  0.6056  0.1991
  568SOL    HW1 3124   1.507   7.158   1.602  0.3567  1.6325 -0.2071
  568SOL    HW2 3125   1.416   7.040   1.574  1.6037  0.8059 -0.8546
  569SOL     OW 3126   6.102   1.459   6.683 -0.1039 -0.2998  0.3674
  569SOL    HW1 3127   6.022   1.456   6.632  0.4060  1.0514 -0.5686
  569SOL    HW2 3128   6.073   1.475   6.773 -0.9061 -0.6758  0.1843
  570SOL     OW 3129   7.205   4.294   4.171  0.0446  0.2131 -0.1485
  570SOL    HW1 3130   7.191   4.270   4.079  1.4191  0.5304 -0.4628
  570SOL    HW2 3131   7.208   4.210   4.217 -3.2598  0.1128  0.0710
  571SOL     OW 3132   0.472   8.366   4.511  0.4252 -0.4284  0.5391
  571SOL    HW1 3133   0.421   8.285   4.502 -0.3542  0.1054  0.0380
  571SOL    HW2 3134   0.438   8.407   4.590  1.7417 -1.2102  1.5633
  572SOL     OW 3135   1.315   2.303   4.056 -0.3300  0.4641 -0.1029
  572SOL    HW1 3136   1.287   2.292   3.965  1.5117 -2.1829 -0.4377
  572SOL    HW2 3137   1.406   2.332   4.050  0.0020 -0.3249  0.8692
  573SOL     OW 3138   2.355   4.046   2.457  0.5635 -0.3763 -0.6877
  573SOL    HW1 3139   2.418   4.003   2.399  1.2452 -0.0431 -0.2100
  573SOL    HW2 3140   2.358   3.994   2.537 -0.8587 -1.2295 -1.1416
  574SOL     OW 3141   3.335   3.945   4.123 -0.0174  0.4300  0.2648
  574SOL    HW1 3142   3.336   4.016   4.059  0.0150  0.3761  0.2048
  574SOL    HW2 3143   3.349   3.866   4.070  1.4227  0.5069  0.4838
  575SOL     OW 3144   1.721   3.774   3.243 -0.6369  0.4978  0.1883
  575SOL    HW1 3145   1.780   3.753   3.315 -0.4109  4.0715  1.2581
  575SOL    HW2 3146   1.773   3.760   3.164  1.1774  1.9104  1.0407
  576SOL     OW 3147   2.995   0.080   0.020 -0.8772 -0.2297  0.4709
  576SOL    HW1 3148   2.960   0.154   0.069 -2.4620 -0.6489  0.0296
  576SOL    HW2 3149   3.084   0.107  -0.004 -0.8398  0.8368  1.7172
  577SOL     OW 3150   2.489   0.466   4.512  0.7849  0.1112 -0.1300
  577SOL    HW1 3151   2.467   0.385   4.464  2.2161 -1.0000  1.0169
  577SOL    HW2 3152   2.419   0.475   4.576  1.2431 -0.9176  0.5380
  578SOL     OW 3153   7.404   7.885   4.483  0.5220 -0.0122 -0.1165
  578SOL    HW1 3154   7.361   7.839   4.555  1.0643 -0.5152 -0.1058
  578SOL    HW2 3155   7.498   7.870   4.497  0.6044 -0.9514 -1.4743
  579SOL     OW 3156   4.748   6.593   0.863  0.0413  0.0866 -0.3177
  579SOL    HW1 3157   4.805   6.633   0.798  0.7130  0.8734  0.7399
  579SOL    HW2 3158   4.713   6.515   0.819  1.9763 -0.4696 -0.9563
  580SOL     OW 3159   2.910   7.011   3.503 -0.3961  0.6389  0.1196
  580SOL    HW1 3160   2.938   6.985   3.591 -2.5617  0.5883  0.8657
  580SOL    HW2 3161   2.887   7.103   3.511 -1.4439  0.4155 -0.1412
  581SOL     OW 3162   7.254   6.466   3.645  0.2770  0.2185  0.2849
  581SOL    HW1 3163   7.250   6.511   3.561 -0.6456  0.2162  0.3172
  581SOL    HW2 3164   7.347   6.466   3.668  0.4863  0.5934 -0.5273
  582SOL     OW 3165   1.517   0.406   4.926 -0.2366 -0.1310  0.3611
  582SOL    HW1 3166   1.436   0.359   4.947 -0.2182 -0.1593  0.3686
  582SOL    HW2 3167   1.585   0.361   4.976  0.0235 -1.0030 -0.7353
  583SOL     OW 3168   0.704   3.970   3.650  0.4120  0.5660 -0.5943
  583SOL    HW1 3169   0.617   3.965   3.689  1.5943 -0.9624  2.0945
  583SOL    HW2 3170   0.688   3.964   3.555 -2.2953 -1.8391 -0.1149
  584SOL     OW 3171   1.822   4.667   2.270 -0.2489 -0.0499  0.2233
  584SOL    HW1 3172   1.765   4.604   2.225  0.3201  1.2179 -2.5140
  584SOL    HW2 3173   1.905   4.621   2.281 -0.1964 -0.1874 -0.6797
  585SOL     OW 3174   2.753   3.401   0.027 -0.1060 -0.1375 -0.0026
  585SOL    HW1 3175   2.829   3.390   0.085 -0.8151 -2.2165  0.6130
  585SOL    HW2 3176   2.709   3.316   0.029 -1.8673  0.6954 -1.1894
  586SOL     OW 3177   0.852   4.177   5.952 -0.2426 -0.3734  0.2657
  586SOL    HW1 3178   0.851   4.130   5.869  1.0165  1.0665 -0.6105
  586SOL    HW2 3179   0.810   4.260   5.933  0.9816  0.3861  0.7697
  587SOL     OW 3180   0.687   1.095   4.867  0.2392  0.3381 -0.1754
  587SOL    HW1 3181   0.632   1.072   4.942 -1.4046 -0.0591 -1.4290
  587SOL    HW2 3182   0.776   1.076   4.895 -0.4469 -0.9294  1.2696
  588SOL     OW 3183   7.846   8.348   3.305 -0.8179  0.4033 -0.8390
  588SOL    HW1 3184   7.932   8.307   3.291 -1.1268  0.1746 -2.3007
  588SOL    HW2 3185   7.853   8.390   3.391 -0.5422 -2.7888  0.8286
  589SOL     OW 3186   5.599   7.080   8.087 -0.6267 -0.3757 -0.2731
  589SOL    HW1 3187   5.659   7.022   8.042  0.6683  1.2753 -0.7901
  589SOL    HW2 3188   5.655   7.136   8.141 -1.7924  0.5197  0.0591
  590SOL     OW 3189   3.901   1.294   3.886  1.0408  0.1056  0.2132
  590SOL    HW1 3190   3.860   1.338   3.961 -0.9044  0.0679 -0.7637
  590SOL    HW2 3191   3.926   1.365   3.827  3.1809  0.1773  1.1332
  591SOL     OW 3192   0.135   7.113   5.364 -0.0312  0.1332 -0.0602
  591SOL    HW1 3193   0.086   7.169   5.424  0.4503 -0.9779  1.4497
  591SOL    HW2 3194   0.074   7.042   5.343  0.0218  0.1796 -0.3716
  592SOL     OW 3195   6.973   6.853   2.027  0.0236 -0.4858  0.1145
  592SOL    HW1 3196   6.973   6.861   1.932 -1.1957 -1.1051  0.0516
  592SOL    HW2 3197   7.012   6.935   2.057  1.0923 -0.5835 -0.9239
  593SOL     OW 3198   5.012   2.433   1.761  0.9061 -0.1079 -0.0504
  593SOL    HW1 3199   4.967   2.358   1.800  1.1922  1.0768  2.8410
  593SOL    HW2 3200   4.986   2.431   1.669 -1.8278 -1.7731  0.6270
  594SOL     OW 3201   6.234   0.233   1.308  0.0209  0.6639 -0.3586
  594SOL    HW1 3202   6.305   0.169   1.306  0.5798  1.0361  2.7568
  594SOL    HW2 3203   6.157   0.183   1.281  0.5305 -1.2979  1.4792
  595SOL     OW 3204   6.902   7.978   6.098  0.6190 -0.0947 -0.1229
  595SOL    HW1 3205   6.945   7.933   6.171  1.8201 -0.0172 -0.7608
  595SOL    HW2 3206   6.964   7.971   6.026 -0.4471  0.0380 -1.0811
  596SOL     OW 3207   2.350   6.439   3.772  0.2695 -0.3856 -0.1571
  596SOL    HW1 3208   2.260   6.407   3.775  0.4190 -0.9376 -1.1298
  596SOL    HW2 3209   2.349   6.518   3.827 -0.0220 -2.1679  2.5666
  597SOL     OW 3210   5.183   4.440   1.704  0.1310 -0.3334  0.4508
  597SOL    HW1 3211   5.191   4.345   1.697 -1.8625 -0.5102 -0.0079
  597SOL    HW2 3212   5.092   4.455   1.729  0.6199  1.4409  1.3164
  598SOL     OW 3213   5.610   5.089   5.663 -0.4418 -0.4350  0.9169
  598SOL    HW1 3214   5.525   5.070   5.704 -1.5202 -0.1014 -1.0471
  598SOL    HW2 3215   5.640   5.005   5.628 -1.4838 -0.0634 -1.0247
  599SOL     OW 3216   7.055   6.273   1.409  0.0691 -0.2193  0.5243
  599SOL    HW1 3217   7.047   6.179   1.426 -1.3955  0.1281  2.0488
  599SOL    HW2 3218   7.097   6.309   1.488 -0.4608  0.5473  0.4684
  600SOL     OW 3219   1.961   3.411   1.014 -0.2142  0.5086 -0.0074
  600SOL    HW1 3220   2.050   3.376   1.023 -0.9062 -1.4987 -0.2788
  600SOL    HW2 3221   1.954   3.477   1.082  1.2260  0.1096  0.5709
  601SOL     OW 3222   2.427   8.287   3.418 -0.1256  0.9143 -0.1780
  601SOL    HW1 3223   2.368   8.257   3.488  2.2744  0.4130  1.7399
  601SOL    HW2 3224   2.413   8.224   3.347 -0.0924 -0.7169  1.2077
  602SOL     OW 3225   3.873   2.091   7.915 -0.1025  0.0419 -0.1936
  602SOL    HW1 3226   3.813   2.155   7.954  0.8395  0.9455 -0.1859
  602SOL    HW2 3227   3.898   2.035   7.989  0.2446  0.6080  0.1276
  603SOL     OW 3228   2.296   2.674   3.132 -0.3948  0.8300  0.0988
  603SOL    HW1 3229   2.212   2.628   3.133 -0.3358  0.5924 -1.6514
  603SOL    HW2 3230   2.317   2.690   3.224 -1.6044 -0.4874  0.6342
  604SOL     OW 3231   1.971   0.052   4.956  0.3757  0.0342 -0.0280
  604SOL    HW1 3232   2.015  -0.014   5.009 -1.6808 -0.8811  0.6677
  604SOL    HW2 3233   2.005   0.040   4.868  0.4593 -1.5896  0.2011
  605SOL     OW 3234   1.616   7.401   5.949  0.3966  0.0119  0.1938
  605SOL    HW1 3235   1.561   7.479   5.957  0.1069 -0.0744 -0.8242
  605SOL    HW2 3236   1.587   7.359   5.868  1.6365 -0.2866 -0.1160
  606SOL     OW 3237   7.663   7.178   3.285  0.2806 -0.2997  0.0952
  606SOL    HW1 3238   7.588   7.231   3.257  0.2969  1.0245  2.3194
  606SOL    HW2 3239   7.631   7.130   3.362  1.2874 -0.9060  0.1535
  607SOL     OW 3240   7.343   2.912   7.337 -0.3802 -0.1918 -0.5557
  607SOL    HW1 3241   7.332   2.818   7.352 -2.0435  0.0112 -0.2935
  607SOL    HW2 3242   7.381   2.918   7.250 -0.7330 -1.0955 -0.7861
  608SOL     OW 3243   0.977   2.102   2.123  0.3005 -0.4702  0.3839
  608SOL    HW1 3244   0.961   2.123   2.031 -0.5979 -2.9799 -0.1251
  608SOL    HW2 3245   1.068   2.127   2.138  0.1774  0.8827 -0.8806
  609SOL     OW 3246   8.356   4.358   6.741  0.1118  0.2749  0.0838
  609SOL    HW1 3247   8.324   4.308   6.816 -0.2742  3.5253  2.2884
  609SOL    HW2 3248   8.451   4.360   6.753  0.0366  0.9342  0.6265
  610SOL     OW 3249   0.615   0.328   0.974 -0.1125  0.3027 -0.5993
  610SOL    HW1 3250   0.591   0.399   1.035  1.2256 -0.2613  0.6232
  610SOL    HW2 3251   0.545   0.263   0.984 -1.1510  1.2264 -1.4528
  611SOL     OW 3252   0.693   3.706   1.446 -0.0568  0.0496  0.7784
  611SOL    HW1 3253   0.602   3.733   1.429 -0.3699 -0.3706  1.7425
  611SOL    HW2 3254   0.720   3.756   1.522  0.0716 -0.7778  1.2912
  612SOL     OW 3255   7.432   3.847   5.943  0.4590  0.0560 -0.0758
  612SOL    HW1 3256   7.407   3.912   5.877  1.8367  0.9198  0.2216
  612SOL    HW2 3257   7.425   3.763   5.897  0.1935  0.5410 -0.9516
  613SOL     OW 3258   1.181   1.639   4.627 -0.0391  0.1400  0.1045
  613SOL    HW1 3259   1.097   1.675   4.656 -0.4483 -1.7713  1.5264
  613SOL    HW2 3260   1.233   1.633   4.707  1.1067  0.3591 -0.6024
  614SOL     OW 3261   2.462   7.801   1.976 -0.0881  0.6174  0.1308
  614SOL    HW1 3262   2.370   7.801   1.952 -0.2313 -0.5532  0.6116
  614SOL    HW2 3263   2.501   7.731   1.924  0.2571  0.2660  0.8380
  615SOL     OW 3264   2.559   7.132   5.742 -0.0383  0.2182  0.5340
  615SOL    HW1 3265   2.564   7.043   5.707  0.9258  0.1719  0.7884
  615SOL    HW2 3266   2.546   7.121   5.836 -1.5299  0.3522  0.3707
  616SOL     OW 3267   6.973   3.600   7.728  0.1398  0.1627 -0.4681
  616SOL    HW1 3268   6.912   3.527   7.742 -0.7685  0.4335 -2.6496
  616SOL    HW2 3269   6.918   3.678   7.723  0.9468  0.7948  0.2036
  617SOL     OW 3270   3.669   5.705   1.786  0.3573  0.5426 -0.5037
  617SOL    HW1 3271   3.623   5.717   1.703 -0.0893  1.5210 -0.1247
  617SOL    HW2 3272   3.615   5.644   1.835  0.9841 -0.5950 -1.1909
  618SOL     OW 3273   5.726   6.021   8.259 -0.6366 -0.1515 -0.6744
  618SOL    HW1 3274   5.723   5.990   8.168 -0.6660 -0.1314 -0.6805
  618SOL    HW2 3275   5.726   5.941   8.311  2.3824 -0.3050 -0.7527
  619SOL     OW 3276   1.963   0.363   5.690  0.0861  0.3946 -0.0146
  619SOL    HW1 3277   2.045   0.379   5.644  0.0184  1.8037  0.3104
  619SOL    HW2 3278   1.986   0.307   5.764  0.5900  0.0156 -0.4580
  620SOL     OW 3279   5.891   3.478   1.353 -0.1064 -0.1202  0.4492
  620SOL    HW1 3280   5.821   3.503   1.414  0.2287  1.3633  0.2552
  620SOL    HW2 3281   5.908   3.557   1.303 -0.5956 -1.3721 -1.8245
  621SOL     OW 3282   7.327   6.211   3.958  0.2236 -0.0573 -0.0490
  621SOL    HW1 3283   7.342   6.149   4.029  1.0080  0.3834  0.1843
  621SOL    HW2 3284   7.245   6.182   3.917 -0.3418 -0.1940  1.1506
  622SOL     OW 3285   4.060   5.976   4.107  0.2207  0.2336  0.4204
  622SOL    HW1 3286   4.064   5.958   4.013  0.7821  0.4710  0.3991
  622SOL    HW2 3287   4.151   5.981   4.135  0.0690  1.1147  0.7906
  623SOL     OW 3288   3.332   1.513   4.855  0.6583 -0.4728  0.0043
  623SOL    HW1 3289   3.265   1.537   4.920 -0.7435 -1.3290 -1.0722
  623SOL    HW2 3290   3.355   1.422   4.876  0.5609 -0.5904 -0.3859
  624SOL     OW 3291   3.670   3.052   6.671  0.2076 -0.4787  0.5454
  624SOL    HW1 3292   3.745   3.010   6.713 -0.1021 -1.8584 -0.2425
  624SOL    HW2 3293   3.597   2.992   6.686 -0.0645 -0.6667 -1.3165
  625SOL     OW 3294   8.198   5.025   2.832  0.4097  0.8560  0.3063
  625SOL    HW1 3295   8.184   5.012   2.738  0.0738  0.4518  0.4093
  625SOL    HW2 3296   8.134   4.967   2.874  1.8977 -0.5273  0.7904
  626SOL     OW 3297   3.075   6.608   7.949  0.1909 -0.6016  0.0172
  626SOL    HW1 3298   3.124   6.629   7.869  0.5152 -1.7550 -0.1014
  626SOL    HW2 3299   3.142   6.586   8.013 -0.1273 -1.8962 -0.0561
  627SOL     OW 3300   3.799   5.545   4.709 -0.8685  0.0574 -0.0133
  627SOL    HW1 3301   3.887   5.557   4.673 -0.5541  1.3137  1.1020
  627SOL    HW2 3302   3.759   5.480   4.652  0.6069 -0.1735 -0.8480
  628SOL     OW 3303   2.935   3.843   6.033  0.3477 -0.2752 -0.9181
  628SOL    HW1 3304   3.006   3.786   6.002  1.4817  1.7233 -2.2199
  628SOL    HW2 3305   2.874   3.848   5.960 -1.2556 -2.0055  0.2074
  629SOL     OW 3306   5.486   7.432   6.926  0.0292  0.5587  0.4344
  629SOL    HW1 3307   5.499   7.439   6.831  0.1500  1.2053  0.4926
  629SOL    HW2 3308   5.554   7.370   6.954  1.5670  2.1341  0.4049
  630SOL     OW 3309   1.259   4.017   4.587 -0.7561 -0.0008  0.5343
  630SOL    HW1 3310   1.345   4.056   4.605 -1.6222  1.7336  1.1167
  630SOL    HW2 3311   1.228   3.988   4.673 -0.2724 -1.7710  0.1558
  631SOL     OW 3312   2.975   2.400   8.329 -0.1089  0.2054 -0.5635
  631SOL    HW1 3313   2.900   2.439   8.283 -0.3943  1.6112  0.9858
  631SOL    HW2 3314   2.940   2.375   8.415  1.1876  1.0312  0.2534
  632SOL     OW 3315   7.590   1.663   7.436  0.3682 -0.1622 -0.2064
  632SOL    HW1 3316   7.511   1.714   7.421  0.2371 -0.9369 -2.5695
  632SOL    HW2 3317   7.622   1.692   7.521 -1.8005  1.0111  0.2695
  633SOL     OW 3318   4.239   3.932   2.409 -0.4145 -0.4957 -0.2606
  633SOL    HW1 3319   4.327   3.924   2.371  0.2939  0.2258  1.1404
  633SOL    HW2 3320   4.216   4.024   2.396  0.0943 -0.0893  1.5203
  634SOL     OW 3321   5.763   3.644   0.064  0.0506  0.5136  0.3528
  634SOL    HW1 3322   5.842   3.613   0.109 -0.1778  0.1531  0.5147
  634SOL    HW2 3323   5.696   3.647   0.133 -0.3812 -0.3326 -0.0043
  635SOL     OW 3324   5.302   2.262   3.458 -0.1791  0.3405  0.0540
  635SOL    HW1 3325   5.210   2.248   3.435 -0.4914  2.2104 -0.0198
  635SOL    HW2 3326   5.351   2.224   3.385 -0.9874  1.2012 -0.9726
  636SOL     OW 3327   1.030   2.079   3.916  0.8564  0.9289 -0.2195
  636SOL    HW1 3328   1.090   2.105   3.846  2.7063 -0.7494  0.6534
  636SOL    HW2 3329   0.998   1.993   3.889  0.4149  0.9268  0.3015
  637SOL     OW 3330   7.521   6.814   7.358 -0.0583  0.2939 -0.1791
  637SOL    HW1 3331   7.568   6.739   7.394  0.8829  0.7729 -0.3812
  637SOL    HW2 3332   7.532   6.884   7.423 -0.2267  0.4992 -0.3669
  638SOL     OW 3333   4.471   1.234   0.251 -0.1282 -0.2897  0.0394
  638SOL    HW1 3334   4.538   1.257   0.185  1.2994 -0.6029  1.3177
  638SOL    HW2 3335   4.461   1.140   0.242 -0.9669 -0.1477 -0.6386
  639SOL     OW 3336   4.454   1.258   3.659 -0.1631 -0.1546 -0.0167
  639SOL    HW1 3337   4.381   1.316   3.679 -0.7162 -0.8595  0.0679
  639SOL    HW2 3338   4.421   1.170   3.677  0.4739 -0.5464 -0.6526
  640SOL     OW 3339   3.249   2.514   3.304  0.1591 -0.5921 -0.1513
  640SOL    HW1 3340   3.272   2.605   3.289 -1.2096  0.0617  1.4019
  640SOL    HW2 3341   3.267   2.499   3.396 -1.8900 -1.1308  0.2177
  641SOL     OW 3342   7.025   6.462   7.624 -0.3783  0.0414  0.4214
  641SOL    HW1 3343   7.025   6.551   7.659  0.7352 -0.2140  1.1488
  641SOL    HW2 3344   7.000   6.407   7.698  0.9936 -0.4123  0.5860
  642SOL     OW 3345   8.280   6.992   2.735  0.0456 -0.1665  0.0531
  642SOL    HW1 3346   8.286   6.904   2.771  0.0497 -0.1236  0.1557
  642SOL    HW2 3347   8.369   7.027   2.740 -0.1509  0.2146  0.9406
  643SOL     OW 3348   8.180   5.796   4.731 -0.0336 -0.1079 -0.0257
  643SOL    HW1 3349   8.091   5.827   4.717 -0.3762  0.0604  2.1788
  643SOL    HW2 3350   8.193   5.727   4.666 -1.5617  0.2362 -0.7251
  644SOL     OW 3351   6.106   3.316   1.100  0.1920  0.4100  0.5445
  644SOL    HW1 3352   6.057   3.248   1.145 -1.5047  1.7199  0.7401
  644SOL    HW2 3353   6.191   3.318   1.145  0.7839 -2.3459 -0.2292
  645SOL     OW 3354   7.219   8.167   7.644  0.3096 -0.1820 -0.3105
  645SOL    HW1 3355   7.136   8.125   7.665 -0.3717  0.2349 -2.0077
  645SOL    HW2 3356   7.202   8.215   7.563  1.8034  1.1420  0.1172
  646SOL     OW 3357   3.493   6.881   7.431  0.9013 -0.2714 -0.5962
  646SOL    HW1 3358   3.512   6.969   7.398  0.0650 -0.0150 -0.4158
  646SOL    HW2 3359   3.573   6.854   7.476  1.6435 -0.1451 -1.7820
  647SOL     OW 3360   7.728   6.968   2.910 -0.3500  0.5008 -0.3286
  647SOL    HW1 3361   7.688   6.915   2.980  0.5161 -1.0296 -0.9409
  647SOL    HW2 3362   7.821   6.973   2.935 -0.2868  1.1111 -0.6784
  648SOL     OW 3363   6.924   0.546   7.649  0.0301  0.1014  0.0043
  648SOL    HW1 3364   6.943   0.618   7.590 -2.0869 -0.5462 -1.5835
  648SOL    HW2 3365   6.921   0.587   7.736  1.5634  1.3712 -0.4910
  649SOL     OW 3366   5.828   7.121   5.800  0.2447 -0.1196 -0.3636
  649SOL    HW1 3367   5.742   7.108   5.842  0.1129 -2.2841 -1.1810
  649SOL    HW2 3368   5.825   7.211   5.767 -2.9691 -0.9952 -2.9898
  650SOL     OW 3369   7.050   2.341   0.211  0.2299  0.5127 -0.1670
  650SOL    HW1 3370   6.995   2.373   0.140 -1.2543  0.2037  0.8014
  650SOL    HW2 3371   7.091   2.262   0.177 -0.7105  0.1985 -0.5766
  651SOL     OW 3372   7.198   4.655   6.610  0.1468  0.5957  0.3865
  651SOL    HW1 3373   7.271   4.606   6.647 -1.2844  0.6219  3.6200
  651SOL    HW2 3374   7.178   4.722   6.676 -1.3305  2.1094 -1.4648
  652SOL     OW 3375   4.242   4.200   2.587 -0.1449  0.1155 -0.5925
  652SOL    HW1 3376   4.326   4.181   2.544  0.1104  0.5355 -0.2782
  652SOL    HW2 3377   4.180   4.204   2.514  0.4245  1.6627 -1.0512
  653SOL     OW 3378   4.791   1.784   3.685  0.0823 -0.4231  0.0848
  653SOL    HW1 3379   4.709   1.733   3.686  0.8864 -1.7767  0.9037
  653SOL    HW2 3380   4.810   1.795   3.592 -1.0931  0.0346 -0.1246
  654SOL     OW 3381   7.604   4.548   2.667  0.5351  0.1329 -0.2920
  654SOL    HW1 3382   7.559   4.465   2.682  1.0019  0.0140  0.5472
  654SOL    HW2 3383   7.633   4.545   2.576  0.7364 -0.7215 -0.2060
  655SOL     OW 3384   8.013   2.264   3.533  0.0049 -0.1159 -0.1733
  655SOL    HW1 3385   8.043   2.325   3.601 -0.1576 -0.7947  0.5212
  655SOL    HW2 3386   7.953   2.316   3.479  0.2406  0.4717  0.1199
  656SOL     OW 3387   7.875   5.862   3.407 -0.3775 -0.6644  0.5569
  656SOL    HW1 3388   7.957   5.890   3.365 -2.4134  1.3900 -2.4803
  656SOL    HW2 3389   7.858   5.929   3.473 -1.2525  1.0152 -1.2542
  657SOL     OW 3390   0.824   1.857   3.433 -0.1594  0.5267 -0.1804
  657SOL    HW1 3391   0.816   1.815   3.347  0.6547 -0.8063  0.3667
  657SOL    HW2 3392   0.736   1.891   3.451 -0.4954  0.2654 -1.2629
  658SOL     OW 3393   8.295   5.327   1.921  0.3025  0.1379 -0.6373
  658SOL    HW1 3394   8.388   5.309   1.932  0.6917  2.3739  0.4549
  658SOL    HW2 3395   8.253   5.284   1.995  0.7527  0.7341 -0.0155
  659SOL     OW 3396   3.623   2.211   2.429 -0.2269 -0.5935  0.3163
  659SOL    HW1 3397   3.653   2.141   2.371  2.0487  0.3355  0.2813
  659SOL    HW2 3398   3.635   2.177   2.517  0.5747 -0.3809  0.2940
  660SOL     OW 3399   4.688   8.020   4.242  0.2550 -0.1714 -0.2027
  660SOL    HW1 3400   4.645   8.079   4.304  1.3440 -0.3979  0.7914
  660SOL    HW2 3401   4.774   8.058   4.227  0.2649 -0.4939 -1.0583
  661SOL     OW 3402   2.976   0.860   2.151  0.5960  0.0585  0.1426
  661SOL    HW1 3403   2.897   0.809   2.168  0.7296 -0.5065 -0.8205
  661SOL    HW2 3404   2.945   0.938   2.106  0.6713 -0.9751 -1.8696
  662SOL     OW 3405   3.150   4.360   2.381  0.2199  0.0159  0.5148
  662SOL    HW1 3406   3.237   4.373   2.420  0.1215 -1.5261  1.3308
  662SOL    HW2 3407   3.089   4.396   2.446  0.2248  1.0870 -0.0529
  663SOL     OW 3408   7.733   2.740   1.456 -0.2022  0.7111 -0.1439
  663SOL    HW1 3409   7.746   2.802   1.528  0.1634  0.0157  0.4079
  663SOL    HW2 3410   7.715   2.657   1.499  1.5069 -0.0615 -0.7997
  664SOL     OW 3411   0.586   5.973   3.170 -0.1611 -0.0229 -0.3305
  664SOL    HW1 3412   0.525   5.949   3.100 -0.5300 -0.6999  0.2180
  664SOL    HW2 3413   0.549   6.053   3.207 -0.4396 -0.1425 -0.3447
  665SOL     OW 3414   3.875   6.998   7.408 -0.6925 -0.7505 -0.3627
  665SOL    HW1 3415   3.922   6.920   7.377  0.4262 -0.4540  0.5323
  665SOL    HW2 3416   3.834   6.971   7.489  2.2882  0.3340  1.6942
  666SOL     OW 3417   6.830   3.263   5.565  0.2466 -0.1304 -0.3195
  666SOL    HW1 3418   6.828   3.206   5.642  1.5774  0.5642  0.2539
  666SOL    HW2 3419   6.857   3.348   5.598  2.5426 -0.2032 -1.7585
  667SOL     OW 3420   5.766   3.636   1.796  0.2378 -0.2244 -0.1067
  667SOL    HW1 3421   5.773   3.587   1.714  0.7150 -2.6125  1.2485
  667SOL    HW2 3422   5.682   3.609   1.833  0.0703  0.7531  0.2544
  668SOL     OW 3423   0.480   4.057   2.900 -0.6656  0.1159 -0.3539
  668SOL    HW1 3424   0.472   3.976   2.851 -2.5186  0.9979 -1.6162
  668SOL    HW2 3425   0.396   4.066   2.945  0.3599  0.2072  1.6765
  669SOL     OW 3426   3.014   1.853   6.786 -0.2181  0.1146  0.0806
  669SOL    HW1 3427   3.076   1.881   6.720  1.3765 -1.7783  0.6722
  669SOL    HW2 3428   3.039   1.762   6.806 -1.3237  0.2444  2.4564
  670SOL     OW 3429   1.783   5.850   1.181 -0.0520 -0.3794  0.1086
  670SOL    HW1 3430   1.701   5.896   1.164 -0.0439 -0.0205  1.0275
  670SOL    HW2 3431   1.846   5.919   1.200  0.1710 -0.7230  0.6261
  671SOL     OW 3432   7.273   5.990   0.633  1.0415 -0.0771  0.2289
  671SOL    HW1 3433   7.242   6.070   0.592  1.3587 -1.4154 -2.9421
  671SOL    HW2 3434   7.196   5.934   0.640  1.0494  0.0209  1.2610
  672SOL     OW 3435   0.153   7.468   3.573 -0.0488 -0.2369 -0.0491
  672SOL    HW1 3436   0.136   7.491   3.664 -2.0880 -0.1523 -0.4137
  672SOL    HW2 3437   0.079   7.413   3.547 -0.5240  1.2733 -2.1760
  673SOL     OW 3438   1.515   7.022   2.638  0.6309  0.1341  0.0965
  673SOL    HW1 3439   1.520   7.069   2.555  1.9246 -0.5906 -0.2547
  673SOL    HW2 3440   1.524   7.090   2.705  0.3461  0.6310 -0.3668
  674SOL     OW 3441   3.202   7.431   3.896  0.0280  0.2327  0.2084
  674SOL    HW1 3442   3.208   7.358   3.834  1.9115  1.1866 -0.8047
  674SOL    HW2 3443   3.261   7.406   3.967 -0.6801  0.0084  0.7375
  675SOL     OW 3444   1.908   7.862   7.693 -0.1274 -0.2438 -0.0177
  675SOL    HW1 3445   2.001   7.847   7.713 -0.1626 -1.1379 -0.4834
  675SOL    HW2 3446   1.888   7.946   7.735  0.7108 -0.3736  0.6702
  676SOL     OW 3447   1.536   7.056   5.546 -0.3656  0.4453  0.0658
  676SOL    HW1 3448   1.471   7.027   5.482  0.9185  1.7257 -1.9463
  676SOL    HW2 3449   1.518   7.004   5.624 -1.8137 -1.4378 -1.4264
  677SOL     OW 3450   0.941   1.039   5.061 -0.4141 -0.7468 -0.2132
  677SOL    HW1 3451   0.916   1.014   5.150  0.8662 -1.1457  0.0486
  677SOL    HW2 3452   0.973   0.958   5.021 -0.8910 -0.5502 -1.0126
  678SOL     OW 3453   4.027   0.191   0.428  0.5510 -0.3283  0.2923
  678SOL    HW1 3454   4.000   0.100   0.412  0.1486 -0.5090  1.8602
  678SOL    HW2 3455   4.117   0.183   0.461  0.4175 -0.1750  0.6888
  679SOL     OW 3456   1.151   0.414   8.120 -0.7118 -0.7434  0.0702
  679SOL    HW1 3457   1.115   0.449   8.038 -0.1891 -0.7382 -0.1589
  679SOL    HW2 3458   1.160   0.320   8.104  1.0890 -0.4975 -0.5392
  680SOL     OW 3459   6.505   0.553   8.184 -0.0088 -0.0819  0.0351
  680SOL    HW1 3460   6.592   0.544   8.145 -0.2808  1.6793 -1.0891
  680SOL    HW2 3461   6.491   0.470   8.230  1.3227 -1.3266 -1.6425
  681SOL     OW 3462   6.255   4.235   3.382 -0.0879  0.3748 -0.1171
  681SOL    HW1 3463   6.308   4.219   3.460 -1.2219 -1.2084  0.3715
  681SOL    HW2 3464   6.167   4.253   3.417 -0.8511 -1.4104 -1.0368
  682SOL     OW 3465   0.711   3.070   1.043  0.0038  0.3835 -0.5606
  682SOL    HW1 3466   0.667   2.985   1.048  0.3875  0.2447  0.7661
  682SOL    HW2 3467   0.652   3.124   0.991 -0.7879 -0.3658 -0.4717
  683SOL     OW 3468   6.981   1.119   4.857  0.5571  0.0017  0.7691
  683SOL    HW1 3469   6.957   1.059   4.927 -0.0200 -0.0668  0.5161
  683SOL    HW2 3470   7.036   1.067   4.798 -0.7157 -0.5691  0.0523
  684SOL     OW 3471   1.036   0.030   7.643 -0.0007  0.1978  0.9705
  684SOL    HW1 3472   1.055  -0.027   7.569 -1.6822 -0.0897  0.7290
  684SOL    HW2 3473   1.078  -0.013   7.718  1.6231  0.4434  0.2318
  685SOL     OW 3474   1.471   1.721   2.191 -0.4481  0.0210  0.2291
  685SOL    HW1 3475   1.483   1.746   2.283 -0.0903 -1.7362  0.7016
  685SOL    HW2 3476   1.409   1.648   2.194 -0.6177  0.1040 -0.9499
  686SOL     OW 3477   0.998   5.354   1.724 -0.1067 -0.0630  0.5267
  686SOL    HW1 3478   1.033   5.269   1.750  2.7016  0.9458  0.4185
  686SOL    HW2 3479   0.907   5.336   1.699  0.0007 -2.7618  1.7161
  687SOL     OW 3480   4.354   0.797   1.981 -0.8055 -0.0548 -0.0988
  687SOL    HW1 3481   4.370   0.715   2.029 -1.7911  0.0122  0.3799
  687SOL    HW2 3482   4.318   0.768   1.897  0.6208 -0.1614 -0.6973
  688SOL     OW 3483   3.371   7.726   3.265 -0.2482 -0.4083 -0.2135
  688SOL    HW1 3484   3.299   7.768   3.217  0.7166 -0.4226 -1.7463
  688SOL    HW2 3485   3.359   7.633   3.250  0.9866 -0.3384 -1.8895
  689SOL     OW 3486   1.571   2.720   5.173  0.6784 -0.0162  0.1097
  689SOL    HW1 3487   1.613   2.639   5.145  0.6509 -0.4105  1.1612
  689SOL    HW2 3488   1.477   2.698   5.177  0.8021 -0.3393  1.6716
  690SOL     OW 3489   0.876   1.289   0.232  0.2532 -0.2637  0.5281
  690SOL    HW1 3490   0.780   1.283   0.236  0.0221  1.1605 -1.4893
  690SOL    HW2 3491   0.901   1.313   0.322 -1.3808  0.2817  0.8851
  691SOL     OW 3492   8.363   2.281   2.872  0.4752 -0.1462 -0.0875
  691SOL    HW1 3493   8.305   2.284   2.796  0.5592 -0.6308 -0.1739
  691SOL    HW2 3494   8.433   2.344   2.851  0.3672 -0.0954 -0.3030
  692SOL     OW 3495   2.918   3.406   4.146 -0.0801  0.1974 -0.2749
  692SOL    HW1 3496   2.885   3.495   4.162 -0.3731 -0.1188  1.0053
  692SOL    HW2 3497   2.840   3.351   4.151  0.2816 -0.2769  0.3460
  693SOL     OW 3498   1.442   6.302   5.010 -0.1412  0.1707 -0.1125
  693SOL    HW1 3499   1.528   6.274   5.042 -0.1582  0.9823  0.6647
  693SOL    HW2 3500   1.442   6.397   5.020 -2.0035  0.0155  2.1893
  694SOL     OW 3501   0.142   8.020   6.501 -0.2740  0.3824 -0.1694
  694SOL    HW1 3502   0.206   8.061   6.443 -1.1468  0.3495 -1.1702
  694SOL    HW2 3503   0.188   7.944   6.537  0.1608  0.1920 -1.0971
  695SOL     OW 3504   2.836   2.882   8.251 -0.1928  0.3723  0.3952
  695SOL    HW1 3505   2.760   2.841   8.293  0.0239 -1.0793 -0.5534
  695SOL    HW2 3506   2.855   2.825   8.177 -0.3906  2.6785 -1.5393
  696SOL     OW 3507   1.241   7.786   2.666 -0.2161  0.0243  0.1315
  696SOL    HW1 3508   1.274   7.738   2.741  1.6867  1.7281  0.4788
  696SOL    HW2 3509   1.246   7.724   2.593 -1.6269 -1.4914  1.2529
  697SOL     OW 3510   1.946   2.623   3.286 -0.0662 -0.3208 -0.1107
  697SOL    HW1 3511   1.897   2.687   3.233 -1.5515 -1.3496 -0.0496
  697SOL    HW2 3512   1.940   2.656   3.375 -0.1608 -0.1377 -0.1838
  698SOL     OW 3513   1.212   5.877   7.612  0.2538  0.3945 -0.5985
  698SOL    HW1 3514   1.144   5.920   7.665 -0.8287 -0.7770 -0.9779
  698SOL    HW2 3515   1.181   5.885   7.522  1.1214  0.6905 -0.8774
  699SOL     OW 3516   0.581   4.320   7.202 -0.7222 -0.1875 -0.1986
  699SOL    HW1 3517   0.651   4.370   7.160 -1.4211  1.5128  0.5677
  699SOL    HW2 3518   0.557   4.254   7.137 -0.0554  0.7443 -1.4371
  700SOL     OW 3519   2.908   0.844   0.997 -0.2494  0.2800 -0.0367
  700SOL    HW1 3520   2.933   0.927   0.957  1.0974  0.0687  0.3066
  700SOL    HW2 3521   2.968   0.780   0.958 -1.2336 -0.5309 -0.2589
  701SOL     OW 3522   2.454   2.354   4.406  0.4192  0.2604  0.2436
  701SOL    HW1 3523   2.462   2.280   4.347  1.6516  0.8756 -0.4120
  701SOL    HW2 3524   2.447   2.315   4.493 -1.1429 -0.6462 -0.2627
  702SOL     OW 3525   5.023   7.895   7.815 -0.5372  0.2418  0.2136
  702SOL    HW1 3526   5.038   7.853   7.730  2.2119  0.0866  0.6729
  702SOL    HW2 3527   4.974   7.830   7.865  0.1597 -0.7974 -0.4020
  703SOL     OW 3528   8.196   6.769   2.319 -0.5569  0.1947 -0.1940
  703SOL    HW1 3529   8.124   6.793   2.377 -0.4780 -0.2423  0.0810
  703SOL    HW2 3530   8.166   6.795   2.232 -0.9631  0.1971 -0.0537
  704SOL     OW 3531   3.452   3.013   0.911 -0.6850  0.0602 -0.3433
  704SOL    HW1 3532   3.466   3.008   0.816  0.9193  0.3261 -0.1479
  704SOL    HW2 3533   3.381   3.077   0.921 -0.9038 -0.0067 -1.3636
  705SOL     OW 3534   7.312   7.695   6.773 -0.0703 -0.4808  0.1329
  705SOL    HW1 3535   7.226   7.655   6.787 -0.2571 -0.1393 -0.0358
  705SOL    HW2 3536   7.321   7.757   6.845  0.5455 -1.3554  0.8330
  706SOL     OW 3537   6.199   3.038   3.563 -0.0551 -0.8769  0.1340
  706SOL    HW1 3538   6.241   3.084   3.636 -1.1565  1.6273 -0.6748
  706SOL    HW2 3539   6.271   2.998   3.515  1.1172  0.7818  0.4323
  707SOL     OW 3540   4.110   4.102   1.695 -0.3798 -0.8789  0.3391
  707SOL    HW1 3541   4.130   4.009   1.699  1.0223 -0.5724  2.2010
  707SOL    HW2 3542   4.029   4.112   1.744 -1.5184 -1.2809 -1.3642
  708SOL     OW 3543   3.499   7.669   1.944 -0.1833 -0.0694  0.0732
  708SOL    HW1 3544   3.545   7.684   2.027  2.0734  2.2841 -1.4323
  708SOL    HW2 3545   3.479   7.576   1.944 -2.2831  0.1608  4.1424
  709SOL     OW 3546   1.186   2.034   3.702  0.1695 -0.3434  0.0744
  709SOL    HW1 3547   1.235   1.955   3.677  0.1268  0.4335 -2.8763
  709SOL    HW2 3548   1.099   2.022   3.662  0.2743  1.3156 -0.7304
  710SOL     OW 3549   3.250   5.184   8.186  0.0428  0.4424  0.1731
  710SOL    HW1 3550   3.247   5.132   8.105  0.6452  0.8545 -0.1185
  710SOL    HW2 3551   3.280   5.122   8.253 -2.4875 -0.4898  0.5732
  711SOL     OW 3552   5.907   6.890   6.346 -0.5055  0.3012  0.1963
  711SOL    HW1 3553   5.828   6.836   6.354 -0.2285 -0.0510  0.5620
  711SOL    HW2 3554   5.968   6.853   6.410  1.4783 -2.0296 -2.7880
  712SOL     OW 3555   3.052   7.280   3.018  0.4250 -0.2095  0.4241
  712SOL    HW1 3556   3.034   7.200   2.969 -1.9431  0.1173  0.6385
  712SOL    HW2 3557   3.111   7.253   3.088 -1.7376 -2.2492  1.6195
  713SOL     OW 3558   1.206   0.472   4.560 -0.9355 -0.0353 -0.2172
  713SOL    HW1 3559   1.273   0.540   4.569  0.1185 -0.8856 -1.2228
  713SOL    HW2 3560   1.145   0.489   4.632  0.8335  0.2522  1.3035
  714SOL     OW 3561   5.739   5.647   2.018 -0.1066 -0.2640  0.1747
  714SOL    HW1 3562   5.831   5.656   1.993 -0.3683 -0.3727 -0.8563
  714SOL    HW2 3563   5.715   5.559   1.991 -0.9321  0.2998 -1.0054
  715SOL     OW 3564   0.494   2.429   5.692  0.4450 -0.5993  0.4192
  715SOL    HW1 3565   0.566   2.484   5.721 -0.5667  1.5534 -0.8954
  715SOL    HW2 3566   0.469   2.379   5.770  1.1849  1.0768  1.7975
  716SOL     OW 3567   1.505   3.456   7.665  0.1140  0.5479 -0.0163
  716SOL    HW1 3568   1.441   3.525   7.647  0.0192  0.3209 -0.5904
  716SOL    HW2 3569   1.522   3.416   7.579  1.0978  0.6663  0.1078
  717SOL     OW 3570   5.665   2.538   4.854 -0.3579 -0.2564 -0.3332
  717SOL    HW1 3571   5.698   2.481   4.924 -1.2082 -0.6653 -0.2451
  717SOL    HW2 3572   5.655   2.480   4.779  2.1886  0.5141 -1.3628
  718SOL     OW 3573   6.601   7.518   6.995  0.2742  0.3249  0.5270
  718SOL    HW1 3574   6.658   7.441   6.986  0.2185  0.5377 -2.8491
  718SOL    HW2 3575   6.586   7.547   6.906 -4.1675  1.0538  1.2839
  719SOL     OW 3576   4.274   4.449   0.500  0.1345 -0.2663 -0.4454
  719SOL    HW1 3577   4.337   4.406   0.443 -0.1245  0.9188 -1.6761
  719SOL    HW2 3578   4.283   4.405   0.584  0.4211 -2.1706 -1.4241
  720SOL     OW 3579   5.666   1.215   7.765  1.1638 -0.1669 -0.0479
  720SOL    HW1 3580   5.574   1.242   7.767  0.8878 -1.0856 -0.1502
  720SOL    HW2 3581   5.707   1.275   7.702  1.0141  1.3495  1.2293
  721SOL     OW 3582   1.025   2.068   2.851  0.3023  0.0665  0.1117
  721SOL    HW1 3583   1.054   2.037   2.765  1.4228 -0.1213  0.5457
  721SOL    HW2 3584   1.005   2.160   2.838  2.4603  0.5835  0.0764
  722SOL     OW 3585   5.150   0.629   7.831 -0.3497 -0.3516 -0.2890
  722SOL    HW1 3586   5.189   0.567   7.768 -0.4233  0.6974 -1.4103
  722SOL    HW2 3587   5.183   0.601   7.916 -0.6327 -2.1189 -0.7242
  723SOL     OW 3588   4.353   7.061   1.545  0.7874 -0.0385  0.2971
  723SOL    HW1 3589   4.299   7.105   1.610  0.6510 -0.0612  0.1997
  723SOL    HW2 3590   4.357   7.121   1.471 -1.2522 -1.0902 -0.7488
  724SOL     OW 3591   3.970   3.426   6.180 -0.0712  0.0822  0.0823
  724SOL    HW1 3592   3.921   3.384   6.110 -0.9752  1.0986  0.0770
  724SOL    HW2 3593   4.026   3.489   6.134 -1.3226  1.3965  0.2965
  725SOL     OW 3594   1.944   0.428   0.694 -0.7872 -0.0501  0.3461
  725SOL    HW1 3595   1.942   0.518   0.727  0.2889 -0.0533  0.4506
  725SOL    HW2 3596   1.993   0.434   0.612  0.0609 -0.6654  0.7970
  726SOL     OW 3597   6.833   4.495   5.372  0.2160 -0.4625 -0.3652
  726SOL    HW1 3598   6.842   4.549   5.451  0.0183 -0.7104 -0.1702
  726SOL    HW2 3599   6.768   4.428   5.396 -0.7632  0.1868 -1.1375
  727SOL     OW 3600   1.141   4.066   6.820  0.0176  0.3365  0.1073
  727SOL    HW1 3601   1.163   4.151   6.782  0.0948  0.3376  0.1556
  727SOL    HW2 3602   1.221   4.037   6.863 -0.0750  0.3451  0.2866
  728SOL     OW 3603   1.541   2.165   7.067  0.1928  0.0280 -0.0326
  728SOL    HW1 3604   1.488   2.177   7.146 -0.6505 -0.1184 -0.5592
  728SOL    HW2 3605   1.579   2.077   7.077 -1.6952 -0.9276 -0.7825
  729SOL     OW 3606   1.552   2.980   0.052  0.3143 -0.2670 -0.1876
  729SOL    HW1 3607   1.603   3.042   0.000  0.1515  1.0165  1.1179
  729SOL    HW2 3608   1.520   2.916  -0.011  1.5106  0.2845 -1.3910
  730SOL     OW 3609   5.962   0.916   4.796 -0.0996  0.3187 -0.5354
  730SOL    HW1 3610   5.938   0.976   4.866  2.8612  1.3782 -0.3018
  730SOL    HW2 3611   6.043   0.875   4.826 -0.7203 -1.9778 -1.7911
  731SOL     OW 3612   0.626   3.570   7.432 -0.1902  0.2088 -0.0475
  731SOL    HW1 3613   0.721   3.576   7.431 -0.0372 -1.2515  1.4857
  731SOL    HW2 3614   0.598   3.647   7.481  0.3161 -0.1242  0.7878
  732SOL     OW 3615   0.303   0.728   4.889 -0.1056  0.1324 -0.3437
  732SOL    HW1 3616   0.388   0.750   4.850 -0.3315 -0.9357 -1.4990
  732SOL    HW2 3617   0.243   0.728   4.815 -0.8053 -0.6861  0.2167
  733SOL     OW 3618   7.104   1.692   8.305 -0.4984 -0.0558 -0.1752
  733SOL    HW1 3619   7.158   1.757   8.351  0.6328 -0.8042 -0.3957
  733SOL    HW2 3620   7.158   1.663   8.232 -1.7884  0.2089 -1.2677
  734SOL     OW 3621   1.748   6.298   5.368 -0.0640 -0.5337  0.6723
  734SOL    HW1 3622   1.708   6.213   5.387 -1.0724 -1.0633 -2.9664
  734SOL    HW2 3623   1.841   6.278   5.356  0.1522 -0.6069  2.2774
  735SOL     OW 3624   4.245   1.384   3.749 -0.0934 -0.0982 -0.0203
  735SOL    HW1 3625   4.229   1.478   3.739  2.0035  0.4730  1.3700
  735SOL    HW2 3626   4.202   1.360   3.831 -0.8486 -0.4287 -0.5047
  736SOL     OW 3627   0.316   7.445   0.471 -0.1622 -0.1835 -0.1044
  736SOL    HW1 3628   0.264   7.400   0.538 -0.0294 -0.2483 -0.0448
  736SOL    HW2 3629   0.252   7.469   0.403 -0.3457  0.1382  0.1790
  737SOL     OW 3630   3.747   3.229   2.956 -0.0485 -0.0198 -0.5404
  737SOL    HW1 3631   3.782   3.150   2.915  0.5202 -0.1679  0.2116
  737SOL    HW2 3632   3.819   3.262   3.010 -0.4541  0.7190 -0.4415
  738SOL     OW 3633   2.750   2.206   0.693 -0.3627 -0.7805  0.3736
  738SOL    HW1 3634   2.707   2.189   0.777  1.0441  2.1537  1.8505
  738SOL    HW2 3635   2.684   2.251   0.641 -0.2732  0.4443  1.2631
  739SOL     OW 3636   7.870   1.882   4.539 -0.2713  0.2199 -0.0168
  739SOL    HW1 3637   7.818   1.901   4.617 -0.5412 -1.2505  0.1946
  739SOL    HW2 3638   7.835   1.940   4.471 -1.9472 -0.4799  0.2188
  740SOL     OW 3639   0.441   6.470   6.420 -0.2435 -0.2717  0.3338
  740SOL    HW1 3640   0.535   6.462   6.404 -0.6156 -2.1383 -1.3624
  740SOL    HW2 3641   0.411   6.530   6.351 -0.4072 -0.2895  0.3895
  741SOL     OW 3642   1.454   2.830   7.541  0.3374 -0.3470  0.2506
  741SOL    HW1 3643   1.456   2.774   7.463  2.0603  1.6285 -1.2563
  741SOL    HW2 3644   1.519   2.792   7.599  1.0021 -0.3455 -0.4711
  742SOL     OW 3645   3.649   4.048   1.531 -0.0937  0.6150  0.5271
  742SOL    HW1 3646   3.693   4.080   1.452  1.1807 -1.5204  0.2704
  742SOL    HW2 3647   3.678   4.108   1.600  1.1925  0.7899 -0.1204
  743SOL     OW 3648   4.613   5.066   1.714  0.0517  0.3507 -0.3083
  743SOL    HW1 3649   4.567   4.990   1.679  0.2012  0.6584 -1.1979
  743SOL    HW2 3650   4.625   5.046   1.807 -0.6235 -0.3525 -0.3610
  744SOL     OW 3651   6.612   4.972   1.136 -0.0944 -0.2499 -0.1957
  744SOL    HW1 3652   6.594   5.053   1.088 -0.6556 -0.0449  0.3547
  744SOL    HW2 3653   6.546   4.969   1.205  0.2618 -0.9029  0.1304
  745SOL     OW 3654   2.821   0.403   7.891 -0.1902 -0.2713 -0.1561
  745SOL    HW1 3655   2.731   0.402   7.925 -0.9122  1.2035 -1.8351
  745SOL    HW2 3656   2.865   0.471   7.943 -0.5043  0.0753 -0.3342
  746SOL     OW 3657   7.210   3.318   1.155  0.2770 -0.0616  0.2149
  746SOL    HW1 3658   7.292   3.359   1.128  0.7306 -1.8886 -1.3429
  746SOL    HW2 3659   7.230   3.225   1.162 -1.4422 -0.4337  0.6710
  747SOL     OW 3660   1.435   5.155   1.411  0.0951 -0.0231  0.1854
  747SOL    HW1 3661   1.487   5.198   1.479 -0.4222 -2.9398  2.6360
  747SOL    HW2 3662   1.476   5.069   1.401 -1.2355 -0.5130 -1.5730
  748SOL     OW 3663   1.349   3.120   1.184  0.0400  0.0060 -0.0332
  748SOL    HW1 3664   1.305   3.067   1.117 -0.7189  0.9564 -0.3069
  748SOL    HW2 3665   1.440   3.126   1.154 -0.1499 -0.1069 -0.6410
  749SOL     OW 3666   4.772   5.848   5.906  0.0830  0.1165  0.3302
  749SOL    HW1 3667   4.693   5.797   5.923 -0.9472  1.2757 -0.7565
  749SOL    HW2 3668   4.743   5.939   5.908  1.3728  0.5672 -0.1982
  750SOL     OW 3669   6.973   6.261   3.176 -0.2038 -0.2438 -0.2013
  750SOL    HW1 3670   6.933   6.292   3.095 -3.9663 -2.1725  0.6850
  750SOL    HW2 3671   6.950   6.328   3.241  2.8509  1.3278 -0.5456
  751SOL     OW 3672   4.595   1.719   1.433  0.5133  0.1396  0.1692
  751SOL    HW1 3673   4.630   1.704   1.346  1.2370  0.2019  0.4427
  751SOL    HW2 3674   4.586   1.631   1.471  0.5957  0.1348  0.1787
  752SOL     OW 3675   1.552   7.817   6.149 -0.1478  0.1189 -0.2942
  752SOL    HW1 3676   1.565   7.883   6.080 -0.6833 -0.6917 -1.1878
  752SOL    HW2 3677   1.639   7.779   6.162 -0.0691  0.1809 -0.6242
  753SOL     OW 3678   2.107   5.368   7.794  0.1790  0.5936 -0.2186
  753SOL    HW1 3679   2.071   5.434   7.854  0.4867  1.5522 -1.0718
  753SOL    HW2 3680   2.079   5.285   7.832  0.7437  1.1429  1.5064
  754SOL     OW 3681   5.675   6.916   3.481 -0.2440  0.2213  0.6326
  754SOL    HW1 3682   5.588   6.945   3.508 -0.9232 -0.9218 -0.2336
  754SOL    HW2 3683   5.669   6.820   3.477  1.4443  0.0165  1.8384
  755SOL     OW 3684   1.764   2.057   1.446  0.1600  0.3738  0.5333
  755SOL    HW1 3685   1.706   2.064   1.371  0.7742  0.9883  0.0983
  755SOL    HW2 3686   1.709   2.023   1.517 -0.6565  0.7136  0.0711
  756SOL     OW 3687   7.466   7.635   7.176  0.3224 -0.0408  0.4070
  756SOL    HW1 3688   7.421   7.570   7.229 -3.2143  1.2372 -0.7394
  756SOL    HW2 3689   7.472   7.595   7.089  0.2328  0.3036  0.2429
  757SOL     OW 3690   2.989   6.182   3.764 -0.0546  0.6541  0.4101
  757SOL    HW1 3691   3.056   6.246   3.741  0.8035 -0.5153 -0.4371
  757SOL    HW2 3692   2.921   6.192   3.697  1.0831 -0.7470 -1.0281
  758SOL     OW 3693   2.787   0.386   0.122 -0.4475  0.4029  0.0591
  758SOL    HW1 3694   2.843   0.358   0.049 -0.2890  0.0960  0.2951
  758SOL    HW2 3695   2.729   0.312   0.137 -0.3939  0.4169  0.3299
  759SOL     OW 3696   5.378   2.947   2.896  0.7483 -0.1211 -0.1195
  759SOL    HW1 3697   5.435   2.872   2.915  1.7528  0.3136 -1.2664
  759SOL    HW2 3698   5.346   2.976   2.982  3.5019  0.5688  0.7838
  760SOL     OW 3699   7.393   4.814   0.095 -0.0246  0.0642 -0.3429
  760SOL    HW1 3700   7.415   4.901   0.127  2.0765  0.1886 -1.8970
  760SOL    HW2 3701   7.327   4.830   0.028 -0.6278  0.3154  0.3029
  761SOL     OW 3702   6.910   0.667   0.325 -0.1511 -0.1212 -0.6421
  761SOL    HW1 3703   6.930   0.724   0.250 -1.2695  1.2237  0.0468
  761SOL    HW2 3704   6.948   0.712   0.400 -0.8357 -0.3997 -0.1229
  762SOL     OW 3705   7.354   7.195   6.301  0.0615  0.3418  0.1432
  762SOL    HW1 3706   7.368   7.266   6.238  0.4929  2.0623  2.0778
  762SOL    HW2 3707   7.401   7.121   6.264 -0.1424  1.1147 -1.8125
  763SOL     OW 3708   1.435   8.218   5.121 -0.2388 -0.5233  0.0196
  763SOL    HW1 3709   1.413   8.144   5.178  1.7946 -1.9832 -0.9632
  763SOL    HW2 3710   1.513   8.257   5.161 -0.0406 -0.2468 -0.6167
  764SOL     OW 3711   4.284   8.184   1.393 -0.1634 -0.1580  0.0294
  764SOL    HW1 3712   4.242   8.194   1.478  0.8725 -1.1798  0.6844
  764SOL    HW2 3713   4.373   8.216   1.407 -0.2063  0.3945 -0.8871
  765SOL     OW 3714   1.520   1.372   1.847  0.3386  0.0903  0.2590
  765SOL    HW1 3715   1.559   1.448   1.892  2.0462 -1.1794  1.0439
  765SOL    HW2 3716   1.428   1.375   1.871  0.5248  1.4396  0.9581
  766SOL     OW 3717   0.393   0.595   2.253  0.1220 -0.0900 -0.8384
  766SOL    HW1 3718   0.330   0.557   2.314  2.5989  1.7362  3.3297
  766SOL    HW2 3719   0.346   0.667   2.211 -1.5924 -1.1504 -0.8136
  767SOL     OW 3720   3.432   4.722   5.040 -0.8083  0.2161  0.3473
  767SOL    HW1 3721   3.372   4.793   5.062 -0.9719 -0.4351  2.1956
  767SOL    HW2 3722   3.391   4.644   5.077  0.3806 -0.5008  0.1983
  768SOL     OW 3723   8.303   6.482   1.327 -0.1072 -0.1704 -0.7525
  768SOL    HW1 3724   8.249   6.403   1.321 -1.3563  0.6091 -0.1619
  768SOL    HW2 3725   8.289   6.527   1.244 -1.3470  0.6021 -0.1681
  769SOL     OW 3726   8.213   0.634   0.359 -0.0721  0.6762  0.1643
  769SOL    HW1 3727   8.162   0.701   0.404  1.8249  1.8461  0.6808
  769SOL    HW2 3728   8.236   0.673   0.275  0.1317  0.2618  0.0218
  770SOL     OW 3729   4.067   7.190   7.501  0.8097 -0.2813 -0.5757
  770SOL    HW1 3730   4.054   7.157   7.590  1.2109 -0.3592 -0.5456
  770SOL    HW2 3731   3.992   7.156   7.452 -0.3812  1.2349  0.1275
  771SOL     OW 3732   2.040   2.827   8.160 -0.1726  0.3285 -0.0849
  771SOL    HW1 3733   2.066   2.844   8.070  1.7996  0.3104  0.4257
  771SOL    HW2 3734   2.103   2.762   8.191 -0.7323  0.4356  1.3564
  772SOL     OW 3735   0.511   1.734   6.387 -0.5547 -0.2099  0.3658
  772SOL    HW1 3736   0.467   1.671   6.444 -1.0033 -0.1269  0.1108
  772SOL    HW2 3737   0.597   1.695   6.371  0.1391  0.4091  2.2227
  773SOL     OW 3738   2.382   7.002   5.484 -0.6996 -0.2863 -0.1271
  773SOL    HW1 3739   2.307   6.966   5.437 -1.7093  0.0866  1.1521
  773SOL    HW2 3740   2.400   6.939   5.553  0.4918 -0.6081 -0.7014
  774SOL     OW 3741   2.831   2.573   5.766  0.5826  0.2275 -0.1047
  774SOL    HW1 3742   2.894   2.642   5.741  1.6546 -1.0425 -1.0761
  774SOL    HW2 3743   2.785   2.553   5.684 -0.2793  0.3197  0.3500
  775SOL     OW 3744   6.190   5.100   7.652  0.0049 -0.4398 -0.0821
  775SOL    HW1 3745   6.235   5.022   7.683  2.2432  0.0661 -1.8148
  775SOL    HW2 3746   6.247   5.135   7.584 -0.7294  2.9094  0.8591
  776SOL     OW 3747   2.132   4.718   3.751  0.3963  0.0725  0.3008
  776SOL    HW1 3748   2.102   4.801   3.714 -2.8845 -0.8856  0.5088
  776SOL    HW2 3749   2.096   4.716   3.839  1.2198 -1.1783  0.6351
  777SOL     OW 3750   1.662   3.441   0.803  0.2461 -0.0266 -0.4523
  777SOL    HW1 3751   1.684   3.450   0.710  1.4383 -0.0875 -0.1927
  777SOL    HW2 3752   1.676   3.348   0.821  1.7637  0.2886  0.1825
  778SOL     OW 3753   6.565   6.458   7.142  0.3179 -0.0544 -0.0900
  778SOL    HW1 3754   6.488   6.406   7.165  0.6366 -0.1955  0.6888
  778SOL    HW2 3755   6.543   6.547   7.169  0.0315  0.1090 -0.8229
  779SOL     OW 3756   7.482   3.852   6.704 -0.3588  0.2180 -0.0144
  779SOL    HW1 3757   7.494   3.930   6.759  1.2296  0.4091 -0.5897
  779SOL    HW2 3758   7.547   3.861   6.634 -0.8306 -1.1306 -0.6615
  780SOL     OW 3759   4.294   5.307   7.753 -0.1762 -0.4309 -0.0348
  780SOL    HW1 3760   4.212   5.336   7.793  1.0981 -0.0754  2.5907
  780SOL    HW2 3761   4.306   5.365   7.678 -0.4220  2.2785  1.8617
  781SOL     OW 3762   1.427   3.853   3.334 -0.1063  0.1315 -0.3117
  781SOL    HW1 3763   1.509   3.861   3.384 -0.6996 -0.9051  0.8783
  781SOL    HW2 3764   1.440   3.775   3.279 -0.6673 -0.6765  0.6691
  782SOL     OW 3765   4.149   6.737   4.569 -0.4040  0.7344 -0.1350
  782SOL    HW1 3766   4.214   6.670   4.592  0.4647  1.8669  0.8659
  782SOL    HW2 3767   4.202   6.815   4.549 -1.3414  0.8983 -2.2077
  783SOL     OW 3768   5.675   3.161   5.631  0.0788  0.0681 -0.0107
  783SOL    HW1 3769   5.600   3.166   5.572  0.9940  0.7023 -1.1660
  783SOL    HW2 3770   5.713   3.075   5.614 -1.5887 -1.2162  2.1734
  784SOL     OW 3771   0.160   1.642   5.168  0.0427 -0.2536 -0.1968
  784SOL    HW1 3772   0.229   1.577   5.178 -0.2527 -0.3083  1.7544
  784SOL    HW2 3773   0.154   1.686   5.253 -1.6927  0.3898 -0.5915
  785SOL     OW 3774   5.571   2.284   0.404 -0.2676 -0.1341 -0.4716
  785SOL    HW1 3775   5.577   2.234   0.486  0.8859 -0.4311 -0.7196
  785SOL    HW2 3776   5.505   2.238   0.353 -0.8512 -0.0665  0.2094
  786SOL     OW 3777   1.955   8.199   4.687 -0.1785 -0.0047  0.4149
  786SOL    HW1 3778   1.919   8.213   4.600  2.0325 -0.7628 -0.6837
  786SOL    HW2 3779   1.897   8.132   4.726  0.5443 -1.9633 -1.6786
  787SOL     OW 3780   2.543   8.001   1.579 -0.6038 -0.4093  0.0633
  787SOL    HW1 3781   2.563   8.022   1.488  0.1708 -0.2025  0.2707
  787SOL    HW2 3782   2.622   7.960   1.612 -1.3626 -1.7675  0.2683
  788SOL     OW 3783   0.006   2.122   6.943  0.2323 -0.3242  0.4353
  788SOL    HW1 3784  -0.048   2.122   7.023  0.2033 -0.4819  0.4150
  788SOL    HW2 3785   0.054   2.205   6.947  1.5180 -1.0842  1.4838
  789SOL     OW 3786   7.366   1.237   5.487  0.6854 -0.1929  0.0430
  789SOL    HW1 3787   7.394   1.265   5.574  0.9172  0.6467 -0.2926
  789SOL    HW2 3788   7.431   1.172   5.461  1.8038  1.0196 -0.3168
  790SOL     OW 3789   0.469   6.428   1.439 -0.3205 -0.2037  0.5088
  790SOL    HW1 3790   0.389   6.410   1.488 -1.5724  1.6842 -0.6888
  790SOL    HW2 3791   0.518   6.488   1.496 -1.1639  0.9633  0.0336
  791SOL     OW 3792   5.208   1.450   0.231 -0.2089  0.3894 -0.0658
  791SOL    HW1 3793   5.289   1.496   0.251 -1.6141  2.7198  0.5765
  791SOL    HW2 3794   5.158   1.511   0.176 -1.3688 -1.1473 -0.7964
  792SOL     OW 3795   6.246   4.134   1.228 -0.0132  0.0597  0.3748
  792SOL    HW1 3796   6.268   4.119   1.136  1.0853 -0.3555  0.6879
  792SOL    HW2 3797   6.179   4.068   1.248 -0.8729  0.7010 -0.3426
  793SOL     OW 3798   6.990   7.470   4.852  0.3449 -0.0511  0.4567
  793SOL    HW1 3799   6.994   7.420   4.770 -1.2299 -0.7882  0.7814
  793SOL    HW2 3800   6.936   7.416   4.910  1.7857  0.2549  2.1622
  794SOL     OW 3801   3.764   1.450   7.794 -0.5431  0.2860 -0.1960
  794SOL    HW1 3802   3.846   1.471   7.750 -0.0373  0.3977  0.7676
  794SOL    HW2 3803   3.705   1.521   7.770 -0.3197  0.2718 -0.7991
  795SOL     OW 3804   3.535   3.266   6.868 -0.1829 -0.0249 -0.5250
  795SOL    HW1 3805   3.488   3.333   6.819  0.1751  1.6743  1.3063
  795SOL    HW2 3806   3.578   3.213   6.802 -0.7860  1.3418 -2.0684
  796SOL     OW 3807   5.592   5.681   0.357 -0.1431 -0.1321  0.4435
  796SOL    HW1 3808   5.584   5.694   0.263  2.0259  1.4316  0.3909
  796SOL    HW2 3809   5.516   5.726   0.394 -0.2882  0.4412 -0.5071
  797SOL     OW 3810   0.254   1.609   2.267  0.5296 -0.0827 -0.5020
  797SOL    HW1 3811   0.316   1.677   2.240 -0.5306  0.5824 -1.3337
  797SOL    HW2 3812   0.175   1.627   2.216 -0.2472 -1.1049  0.3018
  798SOL     OW 3813   7.142   7.571   3.221 -0.5361  0.5419 -0.8777
  798SOL    HW1 3814   7.209   7.640   3.217  0.0718  0.1116  0.8828
  798SOL    HW2 3815   7.061   7.617   3.243 -0.4527  0.8465 -1.1825
  799SOL     OW 3816   2.090   3.395   3.393 -0.1007 -0.0833  0.4756
  799SOL    HW1 3817   2.160   3.444   3.436 -0.5553  1.6254 -0.6678
  799SOL    HW2 3818   2.013   3.408   3.450 -0.1151  0.1663  0.3988
  800SOL     OW 3819   0.658   6.610   3.258 -0.4767 -0.9281 -0.2397
  800SOL    HW1 3820   0.704   6.550   3.316 -0.8491 -1.3975 -0.4258
  800SOL    HW2 3821   0.684   6.584   3.170  2.5424  1.7021 -0.3167
  801SOL     OW 3822   7.791   4.012   7.266 -0.0438 -0.1703 -0.5337
  801SOL    HW1 3823   7.880   4.046   7.257  0.3464 -0.5687  1.4945
  801SOL    HW2 3824   7.750   4.030   7.181  2.0944 -0.3903 -1.6831
  802SOL     OW 3825   6.993   2.119   0.955 -0.0791 -0.6382 -0.1370
  802SOL    HW1 3826   6.911   2.164   0.935 -0.1396 -1.6914 -2.5046
  802SOL    HW2 3827   7.004   2.132   1.050 -2.2171  0.7342 -0.0001
  803SOL     OW 3828   3.163   3.598   6.750  0.0809 -0.3746 -0.6257
  803SOL    HW1 3829   3.209   3.621   6.670  1.6986 -1.2094  0.0246
  803SOL    HW2 3830   3.231   3.596   6.818 -1.3683  1.2069  0.9869
  804SOL     OW 3831   5.599   5.873   2.069 -0.3334  0.3210  0.4062
  804SOL    HW1 3832   5.533   5.859   2.001 -0.8170  0.9615  0.7352
  804SOL    HW2 3833   5.651   5.793   2.067 -1.5937 -0.5405  0.6658
  805SOL     OW 3834   7.552   1.568   4.595 -0.3739  0.3316  0.4015
  805SOL    HW1 3835   7.583   1.508   4.527 -0.3734  0.5016  0.2498
  805SOL    HW2 3836   7.460   1.543   4.608 -0.9627  1.5916 -1.0969
  806SOL     OW 3837   1.377   6.810   8.307  0.0290 -0.2955 -0.4909
  806SOL    HW1 3838   1.421   6.797   8.223 -0.2524 -1.5271 -0.4575
  806SOL    HW2 3839   1.448   6.816   8.371  0.3100  1.7929 -0.9140
  807SOL     OW 3840   2.562   3.665   3.271  0.4686 -0.9309 -0.9879
  807SOL    HW1 3841   2.488   3.653   3.330 -0.8333 -1.5871 -2.7116
  807SOL    HW2 3842   2.540   3.742   3.219  0.9796 -1.1558 -1.5514
  808SOL     OW 3843   2.483   2.868   1.177  1.0831  0.1019 -0.2007
  808SOL    HW1 3844   2.446   2.835   1.259  0.9876 -1.6315 -0.9121
  808SOL    HW2 3845   2.473   2.963   1.184  2.5797  0.1688  2.5088
  809SOL     OW 3846   7.463   8.123   0.854  0.2980 -0.6605  0.0919
  809SOL    HW1 3847   7.453   8.064   0.780 -0.5547 -1.0653  0.5118
  809SOL    HW2 3848   7.514   8.197   0.820 -2.2062  0.4048 -1.6250
  810SOL     OW 3849   5.206   0.281   4.109 -0.1535 -0.2615  0.2426
  810SOL    HW1 3850   5.176   0.191   4.101 -0.6238 -0.2250  1.5047
  810SOL    HW2 3851   5.126   0.333   4.121  0.1710  0.2220  0.3521
  811SOL     OW 3852   0.673   5.519   2.538 -0.0683 -0.2551  0.5076
  811SOL    HW1 3853   0.609   5.470   2.590  2.1445 -3.2904  0.6847
  811SOL    HW2 3854   0.696   5.594   2.592 -3.3958  1.0559  0.3793
  812SOL     OW 3855   0.272   2.035   5.681  0.6973 -0.1143 -0.2708
  812SOL    HW1 3856   0.287   1.941   5.689 -1.2039 -0.4445 -0.1829
  812SOL    HW2 3857   0.216   2.044   5.604 -0.7560  0.7272  0.8388
  813SOL     OW 3858   5.054   2.255   4.222 -0.0362 -0.7320  0.3171
  813SOL    HW1 3859   5.096   2.320   4.279  0.1323  0.1270 -0.7539
  813SOL    HW2 3860   5.052   2.297   4.136  0.8547 -2.4932 -0.6071
  814SOL     OW 3861   4.818   7.129   1.004  0.4942 -0.5249 -0.9927
  814SOL    HW1 3862   4.813   7.037   1.030 -1.6005  0.3719  2.5721
  814SOL    HW2 3863   4.884   7.167   1.062 -2.3214  1.0364  1.5437
  815SOL     OW 3864   8.295   5.459   5.948  0.0697 -0.0812  0.0918
  815SOL    HW1 3865   8.344   5.406   6.011  0.4079 -0.0966 -0.1832
  815SOL    HW2 3866   8.210   5.473   5.990  0.0251 -0.7263  0.2307
  816SOL     OW 3867   2.141   8.001   4.952 -0.4597 -0.1394  1.0432
  816SOL    HW1 3868   2.183   7.983   4.868 -0.6957  0.3346  0.8152
  816SOL    HW2 3869   2.057   7.957   4.947  1.0821 -3.6222  2.6490
  817SOL     OW 3870   1.856   7.844   0.604  0.0722  0.1019 -0.3907
  817SOL    HW1 3871   1.949   7.822   0.608  0.7074  2.5857  2.4859
  817SOL    HW2 3872   1.841   7.871   0.514  2.7558  1.7488 -0.4369
  818SOL     OW 3873   7.774   4.951   7.991  0.2631 -0.1526  0.3444
  818SOL    HW1 3874   7.753   4.860   8.010  0.9016 -0.2218  0.7841
  818SOL    HW2 3875   7.868   4.958   8.010  0.6744  0.1104 -1.6147
  819SOL     OW 3876   6.785   3.303   6.967  0.4379  0.0716  0.1128
  819SOL    HW1 3877   6.702   3.337   7.002  0.1080  0.4365 -0.9754
  819SOL    HW2 3878   6.852   3.336   7.027 -0.2057 -0.3251  1.0733
  820SOL     OW 3879   4.217   2.011   2.938 -0.3322  0.2502  0.2778
  820SOL    HW1 3880   4.298   2.036   2.892  1.2057 -1.8669  1.6138
  820SOL    HW2 3881   4.190   2.090   2.984  0.5787  1.2063 -0.7658
  821SOL     OW 3882   3.977   8.228   5.283  0.3520 -0.5853  0.4543
  821SOL    HW1 3883   3.979   8.229   5.379  1.7611 -0.9169  0.4517
  821SOL    HW2 3884   4.005   8.140   5.259 -1.1230 -0.8947 -0.2844
  822SOL     OW 3885   6.126   1.851   1.838 -0.2302  0.5480 -0.3660
  822SOL    HW1 3886   6.098   1.935   1.802 -1.6689 -0.1648 -0.9474
  822SOL    HW2 3887   6.099   1.786   1.773 -0.1051 -0.4754  0.5767
  823SOL     OW 3888   4.792   8.277   2.675 -0.6237 -0.0621  0.1507
  823SOL    HW1 3889   4.734   8.204   2.653 -0.7940  0.3114 -0.6939
  823SOL    HW2 3890   4.732   8.347   2.702 -0.6521  0.6121 -1.5566
  824SOL     OW 3891   7.438   6.220   5.391 -0.0679 -0.1099  0.6506
  824SOL    HW1 3892   7.487   6.241   5.471  1.1508  0.1151 -0.1259
  824SOL    HW2 3893   7.363   6.169   5.422  2.0255 -2.8209  1.7397
  825SOL     OW 3894   4.250   0.411   0.173 -0.2323 -0.2087  0.2095
  825SOL    HW1 3895   4.185   0.341   0.168  0.4311 -0.9133  0.9226
  825SOL    HW2 3896   4.252   0.449   0.086 -0.2517 -1.4380 -0.3541
  826SOL     OW 3897   4.645   2.917   2.481 -0.7849 -0.2505 -0.2455
  826SOL    HW1 3898   4.657   2.960   2.566 -3.3385  0.4694 -0.1765
  826SOL    HW2 3899   4.637   2.824   2.502 -0.4541 -0.1883  0.1850
  827SOL     OW 3900   3.336   5.666   0.064 -0.0082  0.4338 -0.2015
  827SOL    HW1 3901   3.291   5.736   0.112  0.6646 -0.0512  1.1806
  827SOL    HW2 3902   3.397   5.712   0.007  0.9541  1.0019  1.2253
  828SOL     OW 3903   7.665   2.099   6.687  0.2763  0.4248  0.5081
  828SOL    HW1 3904   7.641   2.011   6.660  1.1809  0.8069 -1.7965
  828SOL    HW2 3905   7.757   2.092   6.712  1.4246  1.1799 -2.8899
  829SOL     OW 3906   6.586   1.260   6.779 -0.1718  0.1052  0.4612
  829SOL    HW1 3907   6.547   1.347   6.782 -0.1815  0.0914  0.7515
  829SOL    HW2 3908   6.561   1.226   6.693  1.4527  1.1244 -0.4623
  830SOL     OW 3909   8.089   0.802   5.981  0.2241 -0.2633 -0.3241
  830SOL    HW1 3910   8.009   0.851   5.960 -0.6179 -0.6156  1.8533
  830SOL    HW2 3911   8.064   0.710   5.970  0.7068 -0.3404 -0.8173
  831SOL     OW 3912   3.836   1.839   7.118  0.4727  0.1456  0.7297
  831SOL    HW1 3913   3.792   1.832   7.033 -0.5969  0.3475  1.2525
  831SOL    HW2 3914   3.837   1.933   7.137 -0.0640  0.0420  1.3204
  832SOL     OW 3915   6.164   3.620   7.580  0.0238  0.1335 -0.3121
  832SOL    HW1 3916   6.115   3.692   7.618  0.1859  1.3139 -2.1900
  832SOL    HW2 3917   6.256   3.641   7.599  0.0370  0.1739 -0.4151
  833SOL     OW 3918   0.269   5.005   3.633 -0.5520  0.3409 -0.1100
  833SOL    HW1 3919   0.241   4.913   3.639 -0.2548  0.2730  0.2661
  833SOL    HW2 3920   0.190   5.053   3.608 -0.4359 -0.1811 -1.5626
  834SOL     OW 3921   4.349   3.317   1.759 -0.3049  0.0455  0.2131
  834SOL    HW1 3922   4.316   3.290   1.844 -0.5212  0.6005  0.3135
  834SOL    HW2 3923   4.442   3.335   1.773 -0.0951 -0.8949  0.0805
  835SOL     OW 3924   7.617   4.629   5.748  0.2025 -0.2093 -0.1370
  835SOL    HW1 3925   7.656   4.558   5.799  1.8435 -1.1133 -2.4346
  835SOL    HW2 3926   7.615   4.595   5.658 -3.3331  0.9422 -0.6561
  836SOL     OW 3927   2.022   6.467   1.290 -0.2249  0.5259  0.0638
  836SOL    HW1 3928   1.985   6.389   1.248  0.3019  0.8054 -0.9827
  836SOL    HW2 3929   1.947   6.516   1.322 -0.6646  0.3204 -0.6297
  837SOL     OW 3930   3.883   5.185   5.168  0.1252 -0.2876  0.9423
  837SOL    HW1 3931   3.815   5.122   5.191  0.4262 -1.3126 -0.7576
  837SOL    HW2 3932   3.839   5.270   5.171 -1.1802 -0.9096  0.1364
  838SOL     OW 3933   6.516   3.707   4.268 -0.4208 -0.3769 -0.8790
  838SOL    HW1 3934   6.491   3.787   4.223 -0.9491  1.5515  2.5047
  838SOL    HW2 3935   6.604   3.687   4.235 -0.6254  1.0835 -2.4270
  839SOL     OW 3936   6.784   0.456   0.651 -0.2764  0.1004 -0.4970
  839SOL    HW1 3937   6.714   0.416   0.598  0.1945 -0.6210 -0.5874
  839SOL    HW2 3938   6.843   0.384   0.670 -1.1862 -0.0195  2.3083
  840SOL     OW 3939   7.669   3.077   3.943 -0.1473 -0.0019 -0.3311
  840SOL    HW1 3940   7.646   3.095   4.034 -1.7342  0.0591 -0.7254
  840SOL    HW2 3941   7.588   3.089   3.894  1.1176  2.2122 -2.1104
  841SOL     OW 3942   0.914   5.726   2.586  0.1466 -0.1923  0.2012
  841SOL    HW1 3943   0.926   5.807   2.537 -0.8697 -0.1800 -0.0524
  841SOL    HW2 3944   0.964   5.661   2.538  0.9394  0.2649  0.3866
  842SOL     OW 3945   5.449   8.289   4.787  0.0521 -0.2522 -0.7138
  842SOL    HW1 3946   5.361   8.303   4.822 -1.0691 -2.0048 -2.5507
  842SOL    HW2 3947   5.504   8.273   4.863 -1.0961  1.3472  0.5133
  843SOL     OW 3948   1.597   2.445   3.732 -0.3301  0.2723 -0.2048
  843SOL    HW1 3949   1.564   2.355   3.729 -1.4331  0.6881 -2.0556
  843SOL    HW2 3950   1.618   2.466   3.641  0.6163  1.6379  0.3078
  844SOL     OW 3951   0.081   0.966   7.048  0.5337 -0.6489  0.2001
  844SOL    HW1 3952   0.138   0.896   7.078 -0.0735 -0.9056  0.7975
  844SOL    HW2 3953   0.019   0.979   7.120  0.0644 -0.1398 -0.2795
  845SOL     OW 3954   3.740   5.576   7.333  0.3985 -0.0885 -0.1907
  845SOL    HW1 3955   3.696   5.660   7.340  1.4907  0.5248 -0.4252
  845SOL    HW2 3956   3.693   5.518   7.394  0.8443  1.2267  1.4869
  846SOL     OW 3957   6.962   4.264   7.684 -0.3317  0.2831 -0.0643
  846SOL    HW1 3958   6.945   4.356   7.667 -1.0842  0.2493  0.4549
  846SOL    HW2 3959   7.028   4.264   7.753  1.0673  0.4135 -1.3381
  847SOL     OW 3960   5.689   4.833   8.174  0.3717  0.1980  0.2912
  847SOL    HW1 3961   5.778   4.825   8.208 -0.1102  0.0354  1.6075
  847SOL    HW2 3962   5.693   4.797   8.085  1.3256 -1.2009  0.8593
  848SOL     OW 3963   7.906   6.845   0.036 -0.0183 -0.3259  0.5812
  848SOL    HW1 3964   7.930   6.922   0.087 -0.0785  0.7960 -0.9799
  848SOL    HW2 3965   7.830   6.873  -0.014  1.0875 -0.7244 -1.4477
  849SOL     OW 3966   5.298   7.697   1.792  0.2284 -0.1975  0.5460
  849SOL    HW1 3967   5.225   7.760   1.790  0.8566  0.5585 -1.8442
  849SOL    HW2 3968   5.344   7.717   1.874 -0.4138  1.4893  0.5399
  850SOL     OW 3969   1.314   4.609   3.838  0.0388 -0.1204 -0.2812
  850SOL    HW1 3970   1.241   4.587   3.781 -1.0142 -2.2902  1.7662
  850SOL    HW2 3971   1.374   4.535   3.831  0.6535  0.3113  0.2384
  851SOL     OW 3972   8.272   6.045   6.015 -0.7136 -0.0169  0.2172
  851SOL    HW1 3973   8.176   6.042   6.011 -0.6924 -0.6421  0.0661
  851SOL    HW2 3974   8.293   6.138   6.019 -1.3806  0.1001  1.4430
  852SOL     OW 3975   7.391   6.745   0.721  0.2091  0.2048 -0.2807
  852SOL    HW1 3976   7.408   6.652   0.738  0.6471  0.2715 -0.3408
  852SOL    HW2 3977   7.429   6.791   0.796 -1.7218  0.2197  0.7281
  853SOL     OW 3978   3.853   0.032   3.431  0.0570 -0.2713 -0.2253
  853SOL    HW1 3979   3.776  -0.019   3.407 -0.4242  0.0325  0.6504
  853SOL    HW2 3980   3.823   0.123   3.429 -0.1101 -0.2445  1.8619
  854SOL     OW 3981   5.347   5.943   2.864  0.4594 -0.1947  0.3532
  854SOL    HW1 3982   5.422   5.957   2.921 -0.1041  0.6612  0.9131
  854SOL    HW2 3983   5.329   6.029   2.827 -0.2956 -0.3706  0.2950
  855SOL     OW 3984   5.146   5.365   7.469  0.0658  0.3215  0.3228
  855SOL    HW1 3985   5.114   5.450   7.437 -0.3902 -0.5783 -1.7714
  855SOL    HW2 3986   5.067   5.316   7.490  0.3314  0.4006  1.5583
  856SOL     OW 3987   3.040   1.488   2.292 -0.3994 -0.1624  0.0490
  856SOL    HW1 3988   3.007   1.568   2.332 -0.2919 -1.0502  2.0095
  856SOL    HW2 3989   3.020   1.419   2.356 -0.1031 -1.6464 -1.3838
  857SOL     OW 3990   0.022   1.679   6.938 -0.0645  0.1667  0.0323
  857SOL    HW1 3991   0.053   1.590   6.928  1.2529  0.7383 -1.3162
  857SOL    HW2 3992  -0.057   1.683   6.883  0.9197  0.3039 -1.4127
  858SOL     OW 3993   5.130   1.230   3.014 -0.2581 -0.4391  0.1941
  858SOL    HW1 3994   5.185   1.307   3.020 -0.7107 -0.1176  0.2591
  858SOL    HW2 3995   5.137   1.189   3.101  2.4629 -2.2184 -0.7461
  859SOL     OW 3996   3.090   1.330   6.394 -0.2293  0.3173 -0.3040
  859SOL    HW1 3997   3.131   1.245   6.409 -0.2620  0.1342 -1.2131
  859SOL    HW2 3998   3.162   1.388   6.368 -0.2163  0.5600  0.2548
  860SOL     OW 3999   5.384   2.774   8.118 -0.2961  0.2436  0.2078
  860SOL    HW1 4000   5.477   2.757   8.129 -0.4321 -1.3463 -0.7015
  860SOL    HW2 4001   5.341   2.698   8.158 -1.0723 -0.3906 -1.6845
  861SOL     OW 4002   8.328   6.025   3.532 -0.4251 -0.3590 -0.1526
  861SOL    HW1 4003   8.354   5.941   3.569 -0.8358 -0.4127  0.0175
  861SOL    HW2 4004   8.298   6.076   3.608  0.6402  0.2584 -0.1143
  862SOL     OW 4005   1.281   7.417   4.073  0.1639 -0.3735 -0.1918
  862SOL    HW1 4006   1.263   7.401   4.166 -2.0165 -0.7024 -0.6172
  862SOL    HW2 4007   1.237   7.500   4.054  0.0681 -0.6153 -1.0606
  863SOL     OW 4008   5.910   0.119   7.649 -0.6527 -0.3872 -0.3906
  863SOL    HW1 4009   5.967   0.167   7.709  0.2360 -0.3822 -1.2121
  863SOL    HW2 4010   5.830   0.172   7.645 -0.3871  0.0607  0.1206
  864SOL     OW 4011   6.018   3.825   6.322  0.5232 -0.1487 -0.6339
  864SOL    HW1 4012   5.973   3.754   6.276  1.5089 -1.2890  0.1248
  864SOL    HW2 4013   6.111   3.802   6.317  0.9805  1.6346 -1.2710
  865SOL     OW 4014   6.491   7.462   5.696 -0.4404 -0.3124 -0.0468
  865SOL    HW1 4015   6.531   7.448   5.782  1.3780 -1.0456 -0.9723
  865SOL    HW2 4016   6.420   7.398   5.693 -0.2343 -0.5912  0.7300
  866SOL     OW 4017   8.118   3.041   1.706  0.2856 -0.1700  0.0784
  866SOL    HW1 4018   8.115   2.958   1.658  0.3315 -0.1664  0.0693
  866SOL    HW2 4019   8.201   3.038   1.754 -0.5080 -0.9004  1.4624
  867SOL     OW 4020   3.827   1.262   5.880  0.2006 -0.0487  0.2836
  867SOL    HW1 4021   3.908   1.223   5.913 -0.4618 -2.8230 -1.0595
  867SOL    HW2 4022   3.793   1.312   5.954  2.6347  0.4383  1.1746
  868SOL     OW 4023   1.549   0.697   7.277  0.2045 -0.5242 -0.5040
  868SOL    HW1 4024   1.499   0.692   7.196 -0.1466 -0.0250 -0.3174
  868SOL    HW2 4025   1.588   0.785   7.276 -0.5196 -0.1889  0.2935
  869SOL     OW 4026   5.583   0.574   0.107 -0.3349 -0.8432  0.6288
  869SOL    HW1 4027   5.514   0.627   0.147 -0.9025 -1.0415 -0.0671
  869SOL    HW2 4028   5.661   0.593   0.159 -0.3788  1.1361  0.0435
  870SOL     OW 4029   3.644   3.191   3.669  0.2521  0.1575  0.3628
  870SOL    HW1 4030   3.578   3.225   3.609  0.2196 -0.6372 -0.0734
  870SOL    HW2 4031   3.663   3.103   3.636  0.3672 -0.2280  1.4160
  871SOL     OW 4032   1.020   4.386   2.278 -0.6493 -0.8820  0.3800
  871SOL    HW1 4033   1.024   4.370   2.373 -1.6944 -0.3063  0.5365
  871SOL    HW2 4034   0.927   4.375   2.256 -0.3204 -1.6706 -0.7039
  872SOL     OW 4035   3.919   7.867   7.149 -0.2791 -0.3707  0.4366
  872SOL    HW1 4036   3.915   7.771   7.149 -1.1490 -0.3475  0.6129
  872SOL    HW2 4037   3.958   7.889   7.064  0.7486 -0.8970  0.7656
  873SOL     OW 4038   8.000   2.820   1.230 -0.0031  0.1202  0.0924
  873SOL    HW1 4039   7.913   2.857   1.243 -0.0618 -0.5068  1.7740
  873SOL    HW2 4040   8.002   2.744   1.288  1.2933 -0.5163 -0.7411
  874SOL     OW 4041   0.903   4.634   1.256  0.0770 -0.2202  0.0041
  874SOL    HW1 4042   0.918   4.545   1.289 -2.2516 -0.2173  1.3038
  874SOL    HW2 4043   0.950   4.690   1.318  1.3968 -0.4978 -0.7114
  875SOL     OW 4044   0.872   0.402   2.382 -0.1553 -0.1154  0.7145
  875SOL    HW1 4045   0.797   0.394   2.323  0.2628  0.4463  0.0932
  875SOL    HW2 4046   0.922   0.475   2.348  0.3080 -0.0281  1.5457
  876SOL     OW 4047   2.014   7.601   4.677 -0.2361  0.1127 -0.0621
  876SOL    HW1 4048   2.073   7.655   4.730  0.0598  0.5821 -0.8561
  876SOL    HW2 4049   1.987   7.658   4.606 -1.7005 -0.0777  0.3067
  877SOL     OW 4050   5.361   8.248   3.967 -0.2775  0.0296  0.0218
  877SOL    HW1 4051   5.338   8.166   3.924  0.0133 -0.8977  1.5619
  877SOL    HW2 4052   5.456   8.252   3.962 -0.2015 -0.3406  0.9880
  878SOL     OW 4053   0.640   2.373   6.575  0.4601 -0.4014  0.2156
  878SOL    HW1 4054   0.559   2.407   6.614 -0.5653 -0.8784 -1.3877
  878SOL    HW2 4055   0.643   2.413   6.488  2.4316  0.2839  0.5620
  879SOL     OW 4056   5.937   4.133   4.588 -0.0695 -0.0204 -0.0199
  879SOL    HW1 4057   5.924   4.211   4.642  0.3035  0.0262  0.0052
  879SOL    HW2 4058   5.849   4.105   4.564 -0.1908  0.7285 -0.4797
  880SOL     OW 4059   7.982   5.128   6.905  0.4271  0.0730  0.2725
  880SOL    HW1 4060   8.027   5.197   6.856 -1.9273  2.0678  0.7642
  880SOL    HW2 4061   7.894   5.126   6.869 -1.0918  0.9073  3.6323
  881SOL     OW 4062   7.868   2.381   6.751 -0.6163 -0.0566 -0.4020
  881SOL    HW1 4063   7.790   2.362   6.804 -0.7429  0.7449 -0.2840
  881SOL    HW2 4064   7.838   2.444   6.686 -0.0606  0.2847 -0.3347
  882SOL     OW 4065   6.118   2.879   7.386 -0.2933 -0.1001  0.1111
  882SOL    HW1 4066   6.189   2.873   7.450 -0.4542 -0.2722  0.2783
  882SOL    HW2 4067   6.042   2.906   7.438 -0.2286  0.6178 -0.1596
  883SOL     OW 4068   0.509   7.767   6.430 -0.7028 -0.4288 -0.0076
  883SOL    HW1 4069   0.535   7.680   6.460 -2.4583 -0.2241  2.3914
  883SOL    HW2 4070   0.413   7.766   6.434 -0.7624  1.6536  0.2656
  884SOL     OW 4071   2.277   7.571   5.167 -0.3646  0.2709 -0.6021
  884SOL    HW1 4072   2.346   7.637   5.179 -0.9480  0.7141  0.4204
  884SOL    HW2 4073   2.297   7.531   5.082  2.9819 -1.8020  0.9531
  885SOL     OW 4074   6.867   7.029   6.138 -0.6415 -0.1209  0.1843
  885SOL    HW1 4075   6.828   6.942   6.140 -0.6149 -0.1385  1.8373
  885SOL    HW2 4076   6.950   7.020   6.185 -0.6655  0.7954  0.4355
  886SOL     OW 4077   6.630   1.649   7.188  0.3049  0.2376 -0.6984
  886SOL    HW1 4078   6.706   1.694   7.151  0.0285  2.3142  1.0818
  886SOL    HW2 4079   6.623   1.683   7.277 -0.9260 -2.1990  0.2214
  887SOL     OW 4080   4.003   6.118   4.828 -0.1546  0.3758  0.0844
  887SOL    HW1 4081   3.978   6.054   4.894 -1.2904  1.5794  0.8799
  887SOL    HW2 4082   3.993   6.072   4.745 -0.8269 -0.5097  0.6327
  888SOL     OW 4083   4.489   5.640   4.257  0.0633  0.2481  0.1443
  888SOL    HW1 4084   4.581   5.618   4.246 -0.1593 -0.6105 -0.1544
  888SOL    HW2 4085   4.450   5.561   4.295 -0.4762  0.7362  0.6241
  889SOL     OW 4086   4.970   0.680   0.696 -0.1950 -0.1821  0.0804
  889SOL    HW1 4087   5.049   0.716   0.657 -0.3867 -0.1359 -0.2645
  889SOL    HW2 4088   4.926   0.633   0.625 -1.1021  0.8297 -0.0560
  890SOL     OW 4089   6.675   3.227   3.294 -0.1020 -0.2993 -0.0467
  890SOL    HW1 4090   6.626   3.300   3.256 -1.1555 -1.3370 -0.7895
  890SOL    HW2 4091   6.766   3.245   3.273 -0.3025  0.9858  0.1284
  891SOL     OW 4092   1.866   5.765   7.995  0.5223 -0.0810  0.4075
  891SOL    HW1 4093   1.951   5.807   7.990  0.6040 -0.3967 -2.0400
  891SOL    HW2 4094   1.824   5.786   7.912 -1.0922 -1.3912  0.8327
  892SOL     OW 4095   6.446   5.879   7.352 -0.2795 -0.0528  0.0746
  892SOL    HW1 4096   6.382   5.862   7.422 -1.1073 -2.0796 -1.0892
  892SOL    HW2 4097   6.452   5.974   7.348 -0.7345  0.1351  2.4146
  893SOL     OW 4098   2.884   6.135   0.507 -0.0524  0.4329  0.5202
  893SOL    HW1 4099   2.905   6.212   0.559 -0.2783  0.2227  0.9222
  893SOL    HW2 4100   2.799   6.106   0.539 -0.3430  0.4933 -0.1856
  894SOL     OW 4101   1.760   3.564   5.074 -0.4086  0.3067 -0.2978
  894SOL    HW1 4102   1.854   3.548   5.083 -0.3460  1.1590  0.7061
  894SOL    HW2 4103   1.718   3.488   5.113 -0.1216  0.8723  1.1452
  895SOL     OW 4104   2.340   1.636   1.311 -0.3476  0.0649 -0.4042
  895SOL    HW1 4105   2.285   1.611   1.237 -1.0719 -0.8093  0.4003
  895SOL    HW2 4106   2.301   1.718   1.343 -3.5668 -2.2589  2.3477
  896SOL     OW 4107   5.702   2.550   4.423  0.0739 -0.1804 -0.3709
  896SOL    HW1 4108   5.746   2.496   4.489 -1.7360 -0.4134  0.7153
  896SOL    HW2 4109   5.768   2.614   4.397  0.5595  0.7110  2.5972
  897SOL     OW 4110   0.750   7.804   6.300 -0.4124  0.2191  0.4710
  897SOL    HW1 4111   0.666   7.793   6.344 -0.6509 -0.7695 -0.1865
  897SOL    HW2 4112   0.737   7.876   6.240  0.0598  1.9246  2.2946
  898SOL     OW 4113   2.026   7.382   7.267 -0.3326 -0.2780 -0.2091
  898SOL    HW1 4114   1.981   7.434   7.333  0.9659 -0.7405  1.0949
  898SOL    HW2 4115   1.974   7.394   7.187 -1.6628  0.6867  0.7590
  899SOL     OW 4116   3.396   6.118   5.042  0.2713 -0.0824 -0.3412
  899SOL    HW1 4117   3.409   6.026   5.020  0.1815 -0.0161 -0.6832
  899SOL    HW2 4118   3.436   6.128   5.128  2.5851  0.1182 -1.3602
  900SOL     OW 4119   1.363   6.006   4.056  0.9092  0.0731  0.2843
  900SOL    HW1 4120   1.320   5.935   4.105 -0.7817  1.7149  1.3441
  900SOL    HW2 4121   1.429   6.040   4.117  0.4596  0.5691  0.5003
  901SOL     OW 4122   7.407   0.322   3.839 -0.8719  0.4548  0.1694
  901SOL    HW1 4123   7.433   0.238   3.877  0.7020 -0.5227 -2.7312
  901SOL    HW2 4124   7.464   0.386   3.881 -1.4028 -0.0386  1.6956
  902SOL     OW 4125   3.270   8.100   1.066  0.3119 -0.6266  0.6081
  902SOL    HW1 4126   3.292   8.154   0.990 -0.5309  0.2167  0.9489
  902SOL    HW2 4127   3.201   8.042   1.035  1.6625 -1.9935  0.0594
  903SOL     OW 4128   4.072   7.446   4.187  0.2730  0.3368 -0.0669
  903SOL    HW1 4129   4.091   7.519   4.245  0.8846  0.7803 -0.8036
  903SOL    HW2 4130   4.127   7.462   4.110 -0.1715 -0.4832 -0.5667
  904SOL     OW 4131   7.933   1.295   4.433  0.1774  0.0618 -0.3612
  904SOL    HW1 4132   7.995   1.356   4.474 -0.5164  0.8794 -0.5089
  904SOL    HW2 4133   7.850   1.341   4.432 -0.3954 -0.9321 -0.3973
  905SOL     OW 4134   4.530   3.942   2.701 -0.8778  0.3078 -0.8566
  905SOL    HW1 4135   4.503   3.924   2.791 -0.3193  1.8330 -0.3518
  905SOL    HW2 4136   4.538   3.855   2.661  0.2219 -0.4995  0.9611
  906SOL     OW 4137   7.691   5.918   7.013  0.0114  0.1994  0.4085
  906SOL    HW1 4138   7.758   5.859   7.049 -0.1313 -1.5197 -1.9206
  906SOL    HW2 4139   7.737   5.968   6.946 -0.9419 -0.9130 -1.1343
  907SOL     OW 4140   4.075   4.178   7.864 -0.6404 -0.2038  0.5202
  907SOL    HW1 4141   4.137   4.112   7.833 -1.0214 -0.3597  0.0775
  907SOL    HW2 4142   4.095   4.187   7.957  2.2117  2.1243 -0.1881
  908SOL     OW 4143   5.996   3.732   1.590  0.0835  0.2819 -0.0092
  908SOL    HW1 4144   6.064   3.678   1.631  0.3190  0.9892  0.5737
  908SOL    HW2 4145   6.007   3.818   1.631 -1.6508  0.2274  0.6642
  909SOL     OW 4146   2.324   7.980   3.434  0.1054 -0.2500 -0.6094
  909SOL    HW1 4147   2.406   7.988   3.385  0.2840  0.6713 -0.1870
  909SOL    HW2 4148   2.325   8.054   3.495 -0.3885 -1.0232  0.3815
  910SOL     OW 4149   0.188   0.278   8.217  0.2834  0.6030  0.0669
  910SOL    HW1 4150   0.133   0.283   8.296  2.2825  2.4591  1.4367
  910SOL    HW2 4151   0.271   0.243   8.248  0.9987  1.0243 -1.3046
  911SOL     OW 4152   3.229   4.115   4.303  0.1111 -0.2267 -0.0203
  911SOL    HW1 4153   3.271   4.044   4.255 -0.1157 -0.2528 -0.1824
  911SOL    HW2 4154   3.207   4.077   4.388  3.2314  0.6453  1.3078
  912SOL     OW 4155   7.585   2.390   3.948  0.0518 -0.0791 -0.0651
  912SOL    HW1 4156   7.567   2.309   3.995 -0.9705 -1.3439 -2.4173
  912SOL    HW2 4157   7.500   2.417   3.912  0.0914  2.8117  1.6579
  913SOL     OW 4158   7.617   1.442   7.291  0.4479  0.7130  0.1474
  913SOL    HW1 4159   7.712   1.438   7.278  0.5142  0.4104  0.6970
  913SOL    HW2 4160   7.604   1.516   7.350  0.3863  0.4461  0.4682
  914SOL     OW 4161   6.988   0.888   1.121 -0.3478 -0.1026  0.3930
  914SOL    HW1 4162   7.051   0.913   1.189 -0.1983  1.0066 -0.1246
  914SOL    HW2 4163   7.041   0.849   1.052 -0.2399  0.6380  0.0483
  915SOL     OW 4164   2.329   1.108   1.976  0.0616  0.7011 -0.2769
  915SOL    HW1 4165   2.375   1.176   2.026  0.5246  0.3059 -0.1594
  915SOL    HW2 4166   2.295   1.154   1.899  0.5846  1.0188 -0.3233
  916SOL     OW 4167   7.396   1.352   6.024  0.1217 -0.2542  0.1808
  916SOL    HW1 4168   7.472   1.377   6.077 -0.4763 -2.8163  2.4342
  916SOL    HW2 4169   7.388   1.257   6.036 -2.8543 -0.2207 -0.7992
  917SOL     OW 4170   3.166   0.880   2.362  0.1725 -0.0284 -0.1200
  917SOL    HW1 4171   3.159   0.799   2.413 -1.3059  0.2388  0.1621
  917SOL    HW2 4172   3.112   0.864   2.285  2.5954 -0.5220 -1.8432
  918SOL     OW 4173   5.487   6.788   8.151  0.2161 -0.5192 -0.3132
  918SOL    HW1 4174   5.415   6.758   8.097  0.2146  1.3179 -1.4145
  918SOL    HW2 4175   5.513   6.872   8.113 -0.3148  1.3223  2.9498
  919SOL     OW 4176   4.462   0.465   1.071 -0.3497  0.2226  0.4500
  919SOL    HW1 4177   4.476   0.441   0.980  0.7254  0.8016  0.4455
  919SOL    HW2 4178   4.458   0.561   1.070  2.1948  0.4086  1.2914
  920SOL     OW 4179   0.464   0.938   1.935 -0.4962 -0.2594  0.4377
  920SOL    HW1 4180   0.557   0.934   1.911 -0.3796  2.1477  0.2072
  920SOL    HW2 4181   0.460   0.895   2.021  0.7800 -0.6761  0.3125
  921SOL     OW 4182   4.253   6.255   2.036 -0.3276 -0.0381 -0.0438
  921SOL    HW1 4183   4.288   6.191   1.973 -1.0450 -0.8116  0.3334
  921SOL    HW2 4184   4.309   6.245   2.113 -0.5882 -0.3717  0.0999
  922SOL     OW 4185   2.170   6.739   3.026 -0.1253 -0.7131 -0.9461
  922SOL    HW1 4186   2.227   6.810   3.055 -0.5122 -0.6567 -0.3177
  922SOL    HW2 4187   2.182   6.670   3.091  0.3036 -1.2617 -1.5887
  923SOL     OW 4188   4.770   1.125   5.070 -0.4346  0.1191 -0.0950
  923SOL    HW1 4189   4.813   1.184   5.008 -0.5959  0.2635 -0.0708
  923SOL    HW2 4190   4.706   1.180   5.115  0.0979  0.1575  0.6313
  924SOL     OW 4191   7.072   0.188   5.089 -0.0192 -0.0231  0.1173
  924SOL    HW1 4192   6.996   0.204   5.145  0.0332  1.9082 -0.3039
  924SOL    HW2 4193   7.065   0.252   5.018  1.5028 -0.4219 -0.4555
  925SOL     OW 4194   2.105   4.348   2.221 -0.4133  0.1784 -0.3242
  925SOL    HW1 4195   2.109   4.336   2.126 -1.3089 -0.1222 -0.3314
  925SOL    HW2 4196   2.020   4.312   2.246  0.2977 -0.8191  0.7550
  926SOL     OW 4197   8.001   7.627   5.156  0.0159 -0.0501  0.0491
  926SOL    HW1 4198   7.984   7.634   5.250  0.0714  1.0479 -0.0032
  926SOL    HW2 4199   7.915   7.625   5.116 -0.0157  0.6840  0.0645
  927SOL     OW 4200   4.639   2.432   6.189 -0.1022  0.2363  0.0065
  927SOL    HW1 4201   4.667   2.518   6.221 -1.6666  1.5442 -1.8647
  927SOL    HW2 4202   4.720   2.388   6.164  0.6763  1.5829  0.0591
  928SOL     OW 4203   2.148   4.345   1.546 -0.1743  0.0761 -0.7094
  928SOL    HW1 4204   2.053   4.346   1.542 -0.2225 -1.4092 -0.7095
  928SOL    HW2 4205   2.174   4.437   1.539 -1.6039  0.5174 -0.5068
  929SOL     OW 4206   1.027   4.172   0.503  0.2069  0.5035 -0.2788
  929SOL    HW1 4207   1.027   4.094   0.447  0.1944  0.2261  0.1087
  929SOL    HW2 4208   1.067   4.143   0.585 -0.4212  0.7241  0.1123
  930SOL     OW 4209   1.618   3.819   0.649  0.2418  0.0457 -0.0424
  930SOL    HW1 4210   1.568   3.876   0.591 -1.7880 -1.0438  0.5274
  930SOL    HW2 4211   1.602   3.853   0.737  0.8248 -0.1008  0.1293
  931SOL     OW 4212   3.764   5.959   4.369 -0.3522  0.1878  0.7222
  931SOL    HW1 4213   3.674   5.970   4.400 -1.0850  1.9422 -1.7097
  931SOL    HW2 4214   3.812   6.031   4.410 -0.8656  1.2913 -0.5424
  932SOL     OW 4215   7.143   5.628   5.346  0.0882  0.6982  0.3948
  932SOL    HW1 4216   7.212   5.695   5.343  0.0675  0.6865 -1.3431
  932SOL    HW2 4217   7.075   5.661   5.287 -0.1499 -0.6050 -0.0870
  933SOL     OW 4218   4.849   6.713   1.332 -0.2324 -0.6282  0.3718
  933SOL    HW1 4219   4.791   6.639   1.315  0.5698 -0.7607 -2.1366
  933SOL    HW2 4220   4.932   6.673   1.357 -0.2613 -0.5125  0.6638
  934SOL     OW 4221   1.813   8.081   3.960 -0.1204  0.3860  0.0172
  934SOL    HW1 4222   1.827   8.173   3.982 -0.0892 -0.1237  2.4341
  934SOL    HW2 4223   1.810   8.037   4.045  1.2608 -2.0485 -1.0899
  935SOL     OW 4224   0.791   3.501   0.959 -0.1344 -0.2045 -1.0218
  935SOL    HW1 4225   0.880   3.512   0.993 -0.8923 -0.4959  1.2659
  935SOL    HW2 4226   0.802   3.465   0.871  1.9994  0.1425 -0.9417
  936SOL     OW 4227   7.050   1.672   5.588 -0.9158 -0.9028 -0.2260
  936SOL    HW1 4228   7.113   1.617   5.541 -1.3718 -0.4921 -1.3547
  936SOL    HW2 4229   7.085   1.678   5.676  1.1739  0.1134 -1.0597
  937SOL     OW 4230   5.039   1.986   4.009 -0.4701  0.3321  0.6027
  937SOL    HW1 4231   5.043   1.967   4.102 -0.7563  1.5977  0.9009
  937SOL    HW2 4232   4.950   1.963   3.983  0.0449 -1.4032  0.2928
  938SOL     OW 4233   1.887   6.804   3.035 -0.4875 -0.2273  1.0378
  938SOL    HW1 4234   1.979   6.778   3.034 -0.5520 -0.8158 -2.4029
  938SOL    HW2 4235   1.889   6.899   3.023 -0.2926 -0.3250  0.2292
  939SOL     OW 4236   8.102   0.399   5.399 -0.3368  0.2311  0.4856
  939SOL    HW1 4237   8.191   0.394   5.435 -0.2892 -2.7233  0.2168
  939SOL    HW2 4238   8.045   0.378   5.472 -0.6106 -0.5077  0.0718
  940SOL     OW 4239   1.545   5.146   3.254 -0.3913  0.0034 -0.6616
  940SOL    HW1 4240   1.520   5.224   3.205 -1.4012  0.1470  0.0514
  940SOL    HW2 4241   1.463   5.113   3.290  0.3462  0.1512  1.2820
  941SOL     OW 4242   1.530   4.860   0.443  0.0215  0.2752  0.1817
  941SOL    HW1 4243   1.449   4.911   0.441 -0.5063 -0.5023  1.0463
  941SOL    HW2 4244   1.508   4.779   0.396 -0.3172 -0.7705  2.0683
  942SOL     OW 4245   5.054   3.759   0.446  0.0262  0.6127 -0.9866
  942SOL    HW1 4246   5.024   3.776   0.536 -0.4455 -0.3155 -0.9601
  942SOL    HW2 4247   5.050   3.844   0.403  0.6561  1.1560 -0.0127
  943SOL     OW 4248   7.148   7.765   6.143 -0.2040 -0.1308  0.7402
  943SOL    HW1 4249   7.072   7.795   6.193 -0.5612  0.4444 -0.1198
  943SOL    HW2 4250   7.127   7.787   6.052  0.8400 -0.2814  0.4462
  944SOL     OW 4251   5.288   3.808   6.345 -0.1698 -0.5801  0.0566
  944SOL    HW1 4252   5.326   3.888   6.383  0.5427 -0.7286 -0.3150
  944SOL    HW2 4253   5.208   3.838   6.303 -0.1087 -0.1222  0.2567
  945SOL     OW 4254   6.594   4.027   4.469 -0.3451 -0.1274 -0.0952
  945SOL    HW1 4255   6.514   4.044   4.419  0.7707  2.1236 -1.2275
  945SOL    HW2 4256   6.637   3.956   4.422 -2.0684 -2.0957  1.1017
  946SOL     OW 4257   6.513   6.354   0.926  0.3338 -0.0443 -0.2182
  946SOL    HW1 4258   6.450   6.332   0.858 -0.3351 -1.6998  0.8411
  946SOL    HW2 4259   6.594   6.310   0.899  0.3412  0.0845 -0.4046
  947SOL     OW 4260   3.517   4.959   4.019  0.5586  0.3928 -0.2036
  947SOL    HW1 4261   3.612   4.969   4.015  1.1907 -3.0966  1.7405
  947SOL    HW2 4262   3.494   4.985   4.108 -0.3625  1.1280 -0.6335
  948SOL     OW 4263   8.224   5.487   7.701  0.1181 -0.7151 -0.3322
  948SOL    HW1 4264   8.222   5.557   7.636  0.6136  1.4465  1.7871
  948SOL    HW2 4265   8.308   5.443   7.687 -0.3089 -1.0833 -1.8601
  949SOL     OW 4266   3.279   6.983   5.386  0.1855  0.1399  0.5523
  949SOL    HW1 4267   3.312   6.906   5.431 -0.5478  0.4922  1.7617
  949SOL    HW2 4268   3.302   7.056   5.444  1.3452  0.9116 -0.8246
  950SOL     OW 4269   5.976   2.803   2.253  0.3999  0.2416  0.1082
  950SOL    HW1 4270   6.045   2.744   2.285  0.4110  0.6439  0.8429
  950SOL    HW2 4271   6.008   2.891   2.274  0.5036  0.5511 -1.2093
  951SOL     OW 4272   3.018   1.499   4.690 -0.0773  0.3639 -0.1503
  951SOL    HW1 4273   3.045   1.555   4.763 -0.1946 -1.3252  1.2753
  951SOL    HW2 4274   3.095   1.447   4.669  0.0998  1.1533 -1.6075
  952SOL     OW 4275   6.888   7.286   3.684 -0.1077 -0.3440 -0.0371
  952SOL    HW1 4276   6.803   7.290   3.642 -0.2888 -0.7548  0.2850
  952SOL    HW2 4277   6.917   7.196   3.673  0.6116 -0.0324 -0.7718
  953SOL     OW 4278   5.846   3.797   6.995  0.0407 -0.0029 -0.3870
  953SOL    HW1 4279   5.794   3.763   6.923 -0.9563 -0.6006  0.5797
  953SOL    HW2 4280   5.932   3.756   6.985 -0.1434 -0.2163 -1.1222
  954SOL     OW 4281   7.774   8.327   8.168 -0.2586  0.5014 -0.3455
  954SOL    HW1 4282   7.704   8.372   8.216 -1.4008  0.5217 -1.9141
  954SOL    HW2 4283   7.745   8.236   8.163  0.5882  0.1863  0.2766
  955SOL     OW 4284   3.777   3.631   1.779 -0.8857 -0.0955  0.7815
  955SOL    HW1 4285   3.728   3.603   1.702  0.7695 -1.6396  0.2182
  955SOL    HW2 4286   3.730   3.708   1.811 -0.5169  1.8753 -2.9381
  956SOL     OW 4287   0.327   2.658   6.208  0.2328  0.4650 -0.3761
  956SOL    HW1 4288   0.314   2.566   6.183 -2.5775  0.5129  0.5429
  956SOL    HW2 4289   0.258   2.705   6.161  0.1041  1.7508  1.0344
  957SOL     OW 4290   4.969   7.947   5.828 -0.4343 -0.0807 -0.1654
  957SOL    HW1 4291   5.057   7.983   5.813  0.0765  0.1839  2.9059
  957SOL    HW2 4292   4.910   8.021   5.816  0.2508  0.9341  2.2309
  958SOL     OW 4293   3.404   4.623   0.688 -0.1256 -0.1648 -0.6830
  958SOL    HW1 4294   3.390   4.677   0.766  0.3503 -1.8681  0.6420
  958SOL    HW2 4295   3.497   4.632   0.669  0.3016 -1.6269  0.4770
  959SOL     OW 4296   3.237   2.804   1.542  0.1112  0.0405 -0.8895
  959SOL    HW1 4297   3.158   2.858   1.541 -1.3634 -1.9791 -2.7302
  959SOL    HW2 4298   3.256   2.788   1.449  1.6266 -1.0375 -0.4377
  960SOL     OW 4299   0.409   4.871   4.672 -0.4084 -0.5138  0.7317
  960SOL    HW1 4300   0.387   4.929   4.598 -0.6473 -0.1005  1.1232
  960SOL    HW2 4301   0.409   4.783   4.633  0.9651 -0.1797 -0.0933
  961SOL     OW 4302   1.171   0.758   0.977 -0.1100 -0.2564 -0.4037
  961SOL    HW1 4303   1.222   0.701   0.920  1.3820  1.7761 -1.2181
  961SOL    HW2 4304   1.098   0.788   0.923 -0.0183 -0.1739 -0.4814
  962SOL     OW 4305   0.745   5.315   5.516  0.3030 -0.2596  0.0294
  962SOL    HW1 4306   0.686   5.256   5.468  1.0129 -0.2744 -0.8595
  962SOL    HW2 4307   0.689   5.388   5.543 -0.3359 -0.7673  0.1023
  963SOL     OW 4308   3.874   1.934   2.124  0.2458 -0.7038 -0.5913
  963SOL    HW1 4309   3.950   1.896   2.080  1.0650 -0.2149  0.3760
  963SOL    HW2 4310   3.910   1.997   2.185 -0.9673 -0.2008 -0.3637
  964SOL     OW 4311   5.257   2.320   6.914  0.3313 -0.2540 -0.7411
  964SOL    HW1 4312   5.269   2.272   6.996  0.5061  0.9849 -0.0172
  964SOL    HW2 4313   5.162   2.322   6.901  0.2766 -0.1102 -0.3440
  965SOL     OW 4314   7.006   4.136   2.213  0.2032 -0.2348  0.2100
  965SOL    HW1 4315   7.052   4.188   2.147 -1.9876 -1.6233 -2.6421
  965SOL    HW2 4316   6.992   4.051   2.171 -2.8368 -0.6325  1.7768
  966SOL     OW 4317   4.245   7.952   4.761  0.0625  0.0133  0.2864
  966SOL    HW1 4318   4.258   7.862   4.730  0.3796  0.3364 -0.5455
  966SOL    HW2 4319   4.185   7.991   4.697  0.1475  0.4819  0.4887
  967SOL     OW 4320   3.606   3.671   3.384  0.1932  0.1024 -0.0577
  967SOL    HW1 4321   3.612   3.725   3.305  1.2850 -1.3435 -1.0091
  967SOL    HW2 4322   3.697   3.649   3.404 -0.2289 -1.3866  0.2921
  968SOL     OW 4323   5.895   2.323   0.096 -0.0166  0.4914  0.2126
  968SOL    HW1 4324   5.928   2.344   0.009 -0.8119 -0.4008 -0.3233
  968SOL    HW2 4325   5.848   2.401   0.124  0.5535  0.9189  0.0134
  969SOL     OW 4326   2.833   3.632   3.901  0.2153  0.5552  1.1544
  969SOL    HW1 4327   2.901   3.565   3.898  0.1373  0.4770  1.0979
  969SOL    HW2 4328   2.880   3.714   3.914  0.8116  1.1692 -3.3275
  970SOL     OW 4329   3.377   5.823   2.906  0.0207  0.1608  0.5034
  970SOL    HW1 4330   3.326   5.876   2.844  3.0722  1.3227 -1.2262
  970SOL    HW2 4331   3.323   5.746   2.922 -1.7254  0.6900 -2.1676
  971SOL     OW 4332   4.827   6.675   7.444  0.2144  0.0213 -0.0954
  971SOL    HW1 4333   4.810   6.768   7.428 -0.5429 -0.1064 -0.0757
  971SOL    HW2 4334   4.750   6.630   7.409 -1.1820 -0.3426  3.0181
  972SOL     OW 4335   7.233   1.241   2.860 -0.0554 -0.0238 -0.1242
  972SOL    HW1 4336   7.215   1.192   2.940  1.4793 -0.0374  0.2406
  972SOL    HW2 4337   7.156   1.226   2.805 -1.4580  0.5843  1.6131
  973SOL     OW 4338   8.273   6.610   5.552  0.3434 -0.3052  0.4457
  973SOL    HW1 4339   8.345   6.654   5.507 -0.7525 -0.0608 -1.1399
  973SOL    HW2 4340   8.239   6.548   5.488 -2.2606  1.1259  0.2794
  974SOL     OW 4341   6.226   3.640   5.639 -0.4981  0.2559  0.0163
  974SOL    HW1 4342   6.235   3.629   5.544  1.1252 -1.5714  0.3207
  974SOL    HW2 4343   6.159   3.576   5.664  0.2757 -0.4630  0.2892
  975SOL     OW 4344   6.530   3.279   7.356  0.1446 -0.3165  0.1143
  975SOL    HW1 4345   6.513   3.345   7.423  0.9845  0.5722 -0.5094
  975SOL    HW2 4346   6.584   3.325   7.291 -0.9635 -1.0246 -1.3641
  976SOL     OW 4347   2.935   0.180   1.759  0.4739 -0.0607  0.3835
  976SOL    HW1 4348   2.998   0.185   1.688  0.4788 -1.0254  0.3101
  976SOL    HW2 4349   2.983   0.207   1.837  0.4278  1.1559  0.0205
  977SOL     OW 4350   2.490   2.517   6.303  0.1446  0.6576  0.0610
  977SOL    HW1 4351   2.501   2.489   6.394  0.0014  0.4791  0.0243
  977SOL    HW2 4352   2.398   2.541   6.297  0.1467  0.6396 -0.0442
  978SOL     OW 4353   5.338   5.107   0.588  0.1001 -0.0121  0.3074
  978SOL    HW1 4354   5.248   5.133   0.571  0.1172  0.7319  1.2738
  978SOL    HW2 4355   5.361   5.152   0.670  1.1237 -0.7160  0.4245
  979SOL     OW 4356   4.850   5.843   7.954 -0.1190  0.5486 -0.1141
  979SOL    HW1 4357   4.878   5.810   7.868 -1.1083  1.0588 -0.6473
  979SOL    HW2 4358   4.858   5.938   7.947 -1.1048  0.6507  0.0186
  980SOL     OW 4359   3.632   0.876   5.747 -0.1694  0.1390  0.2648
  980SOL    HW1 4360   3.581   0.799   5.770 -0.4822  0.5630  1.0306
  980SOL    HW2 4361   3.588   0.949   5.791  0.8955  0.5662  0.6760
  981SOL     OW 4362   5.337   3.317   8.335 -0.2409  0.6244  0.6805
  981SOL    HW1 4363   5.385   3.395   8.306  0.5597  0.0078  0.3065
  981SOL    HW2 4364   5.277   3.297   8.263  0.8688 -0.1748 -0.0637
  982SOL     OW 4365   2.550   2.145   3.094  0.1168  0.3630 -0.3050
  982SOL    HW1 4366   2.578   2.229   3.130  1.3448  0.4694 -1.4530
  982SOL    HW2 4367   2.502   2.167   3.014 -0.3033  0.0013 -0.1579
  983SOL     OW 4368   6.713   3.924   1.167 -0.1927  0.3272 -0.0139
  983SOL    HW1 4369   6.631   3.875   1.174  0.3509 -0.7579 -0.9079
  983SOL    HW2 4370   6.741   3.912   1.076  1.6647 -0.5204  0.6019
  984SOL     OW 4371   2.538   2.427   0.014 -0.5093  0.5150  1.4084
  984SOL    HW1 4372   2.523   2.490  -0.056 -0.8796 -2.1144 -1.0810
  984SOL    HW2 4373   2.492   2.463   0.090 -1.7164  2.5951 -0.2153
  985SOL     OW 4374   7.852   5.675   1.672  0.4149 -0.3197 -0.1823
  985SOL    HW1 4375   7.929   5.642   1.718  1.9418  1.3151 -1.4250
  985SOL    HW2 4376   7.801   5.719   1.739 -0.0197 -2.3031  0.8605
  986SOL     OW 4377   4.182   1.798   4.000 -0.2743 -0.5513  0.2155
  986SOL    HW1 4378   4.207   1.771   3.912  1.4507 -0.4882  0.6512
  986SOL    HW2 4379   4.111   1.738   4.024 -1.5743  0.1766 -1.6131
  987SOL     OW 4380   7.324   2.636   7.392  0.0764 -0.7061  0.1008
  987SOL    HW1 4381   7.409   2.614   7.355  0.0791  0.1655 -0.4287
  987SOL    HW2 4382   7.325   2.596   7.479  0.1052 -2.7009 -0.7424
  988SOL     OW 4383   0.424   8.133   2.426  0.4235  0.0131  0.1905
  988SOL    HW1 4384   0.518   8.152   2.431  0.3677  0.2865  0.2200
  988SOL    HW2 4385   0.390   8.161   2.510  0.0249  1.5584 -0.4497
  989SOL     OW 4386   7.299   4.465   4.960  0.1175 -0.4491 -0.0399
  989SOL    HW1 4387   7.234   4.479   5.029  0.3620  0.6334 -0.0095
  989SOL    HW2 4388   7.315   4.553   4.925  1.4505 -0.7265 -0.1451
  990SOL     OW 4389   5.117   3.793   7.541  0.5306 -0.0654 -0.1030
  990SOL    HW1 4390   5.032   3.750   7.553  0.9208 -0.3042  2.2435
  990SOL    HW2 4391   5.125   3.804   7.446 -1.9216 -0.4043 -0.4116
  991SOL     OW 4392   7.131   2.259   5.128  0.5801  0.5642 -0.3379
  991SOL    HW1 4393   7.058   2.203   5.155  0.0823  1.3478 -0.0499
  991SOL    HW2 4394   7.177   2.281   5.209  0.9366  0.3717 -0.4808
  992SOL     OW 4395   6.733   1.724   4.318  0.5141 -0.1884 -0.4251
  992SOL    HW1 4396   6.655   1.709   4.265  0.2280  1.6793 -0.6019
  992SOL    HW2 4397   6.739   1.647   4.375 -0.7755 -0.9021 -1.2156
  993SOL     OW 4398   1.508   3.239   2.572  0.2176  0.4180 -0.0871
  993SOL    HW1 4399   1.459   3.166   2.535  0.1914  0.7945 -0.8180
  993SOL    HW2 4400   1.457   3.317   2.549  0.5532  0.7181  0.1595
  994SOL     OW 4401   7.796   7.735   3.790  0.0614 -0.0646 -0.3873
  994SOL    HW1 4402   7.812   7.732   3.696  0.7936 -0.4534 -0.2565
  994SOL    HW2 4403   7.876   7.772   3.827  0.6290 -1.8576  0.2704
  995SOL     OW 4404   5.084   6.855   7.297 -0.0240 -0.1519  0.2092
  995SOL    HW1 4405   5.177   6.854   7.320 -0.1015 -0.2557  0.5223
  995SOL    HW2 4406   5.057   6.764   7.301 -0.4398  0.0035  1.3841
  996SOL     OW 4407   6.272   1.799   0.682 -0.1050 -0.2180  0.1375
  996SOL    HW1 4408   6.182   1.776   0.656  0.1739 -1.7768  0.4754
  996SOL    HW2 4409   6.264   1.887   0.717 -1.2119  0.3538 -1.4099
  997SOL     OW 4410   2.452   6.294   5.354 -0.5874 -0.0427 -0.2830
  997SOL    HW1 4411   2.499   6.342   5.422 -0.9435  0.1493 -0.1711
  997SOL    HW2 4412   2.374   6.261   5.398 -1.2839  0.8505 -0.8074
  998SOL     OW 4413   7.221   6.217   4.875 -0.2085  0.2217  0.1676
  998SOL    HW1 4414   7.208   6.130   4.836  1.7857  0.1252 -0.4341
  998SOL    HW2 4415   7.133   6.250   4.893 -1.0301 -1.5790 -0.3549
  999SOL     OW 4416   5.805   2.054   7.359 -0.6152 -0.2417  0.2007
  999SOL    HW1 4417   5.739   2.034   7.293  0.6809  1.1583 -1.6479
  999SOL    HW2 4418   5.789   2.146   7.381  1.2441  0.4289 -1.0236
 1000SOL     OW 4419   3.201   6.547   6.910 -0.0635  0.6742  0.0017
 1000SOL    HW1 4420   3.175   6.455   6.912 -1.0344  0.9474  0.9344
 1000SOL    HW2 4421   3.289   6.548   6.948  1.4558 -0.2582 -3.1351
 1001SOL     OW 4422   5.790   6.506   5.102 -0.1583  0.3128 -0.4617
 1001SOL    HW1 4423   5.801   6.598   5.079  0.4516  0.5804  0.7989
 1001SOL    HW2 4424   5.787   6.505   5.198 -1.0493 -0.8917 -0.4739
 1002SOL     OW 4425   7.856   2.587   3.707  0.0224 -0.5143  0.2452
 1002SOL    HW1 4426   7.812   2.648   3.766  1.2182  0.4269  0.2148
 1002SOL    HW2 4427   7.786   2.536   3.666 -0.9879  0.6905  0.4493
 1003SOL     OW 4428   6.300   3.996   3.535  0.1128  0.1863 -0.3210
 1003SOL    HW1 4429   6.225   4.036   3.580 -0.8517 -0.4231 -1.3485
 1003SOL    HW2 4430   6.371   4.059   3.548 -0.1530  0.1122  1.8964
 1004SOL     OW 4431   5.047   4.656   3.015 -0.4434 -0.0677  0.3402
 1004SOL    HW1 4432   5.018   4.571   3.048 -0.4892  0.1836  0.9708
 1004SOL    HW2 4433   5.010   4.719   3.076  1.3298  0.2660  1.1378
 1005SOL     OW 4434   4.875   8.177   2.020  0.6010  0.6499 -0.5416
 1005SOL    HW1 4435   4.942   8.156   2.086 -0.2377  0.1463  0.1630
 1005SOL    HW2 4436   4.891   8.269   1.999  2.8039  0.0313 -1.9016
 1006SOL     OW 4437   2.847   0.614   3.278  0.3736  0.4782  0.4170
 1006SOL    HW1 4438   2.835   0.709   3.286  2.1111  0.6702  1.3741
 1006SOL    HW2 4439   2.933   0.605   3.237 -0.3060 -0.7080 -0.8261
 1007SOL     OW 4440   5.186   3.410   6.822 -0.3328  0.2276 -0.1726
 1007SOL    HW1 4441   5.104   3.383   6.862 -0.2056 -0.3192 -0.2686
 1007SOL    HW2 4442   5.220   3.330   6.782  1.1938 -0.0395  1.5098
 1008SOL     OW 4443   1.587   3.287   3.122  0.2207  0.2246 -0.1229
 1008SOL    HW1 4444   1.607   3.290   3.216  1.6158 -1.3572 -0.3394
 1008SOL    HW2 4445   1.521   3.218   3.113  0.7252 -0.2325 -0.3909
 1009SOL     OW 4446   6.588   1.504   5.863  0.1720 -0.1957 -0.0854
 1009SOL    HW1 4447   6.507   1.551   5.845  0.1168 -0.7648 -1.4853
 1009SOL    HW2 4448   6.652   1.572   5.882 -0.1308  0.3935 -1.1102
 1010SOL     OW 4449   3.142   4.657   6.598  0.0336  0.0219  0.5883
 1010SOL    HW1 4450   3.097   4.742   6.605 -1.3975 -0.8186  2.1149
 1010SOL    HW2 4451   3.084   4.604   6.543  0.0076 -0.5477  1.1609
 1011SOL     OW 4452   7.184   6.369   1.612  0.3370 -0.6820  0.1095
 1011SOL    HW1 4453   7.191   6.459   1.581 -0.2297 -0.5759  0.2748
 1011SOL    HW2 4454   7.272   6.347   1.643  0.4714 -0.1776  0.0916
 1012SOL     OW 4455   2.519   7.550   7.008 -0.2123 -0.0194 -0.4855
 1012SOL    HW1 4456   2.434   7.508   7.024  0.5034 -0.7467  1.6341
 1012SOL    HW2 4457   2.495   7.638   6.977 -1.7624  0.0866  0.8726
 1013SOL     OW 4458   6.403   2.748   1.147 -0.1375 -0.0350  0.4601
 1013SOL    HW1 4459   6.476   2.764   1.087  0.3416 -0.0312  1.0353
 1013SOL    HW2 4460   6.435   2.777   1.233 -1.1301  0.8174  0.5737
 1014SOL     OW 4461   3.004   7.410   0.926  0.4814 -0.9628 -0.0535
 1014SOL    HW1 4462   2.944   7.463   0.977  1.8612 -0.0285  0.6610
 1014SOL    HW2 4463   2.953   7.333   0.901 -1.5975  0.6490 -1.1341
 1015SOL     OW 4464   5.268   2.458   2.475  0.0568 -0.0677  0.1615
 1015SOL    HW1 4465   5.244   2.518   2.405  1.1795 -1.0109 -1.0840
 1015SOL    HW2 4466   5.244   2.504   2.555 -1.0639  1.1267 -0.8198
 1016SOL     OW 4467   0.055   6.965   1.169 -0.4307  0.0005 -0.0920
 1016SOL    HW1 4468   0.077   7.017   1.246  0.0577 -1.3996  0.7653
 1016SOL    HW2 4469   0.108   6.885   1.179 -2.7539 -1.6450 -0.1807
 1017SOL     OW 4470   2.704   4.117   7.166  0.3681  0.1119  0.2136
 1017SOL    HW1 4471   2.765   4.127   7.093 -0.9418 -0.1973 -0.9652
 1017SOL    HW2 4472   2.755   4.141   7.244  2.1824 -0.8242 -0.6372
 1018SOL     OW 4473   1.604   0.304   3.430 -0.7150  0.1971 -0.0219
 1018SOL    HW1 4474   1.577   0.290   3.339  1.2193 -0.7806 -0.4807
 1018SOL    HW2 4475   1.579   0.224   3.475  0.2458 -0.2108 -0.1870
 1019SOL     OW 4476   1.453   7.867   7.836 -0.3972 -0.0580 -0.6807
 1019SOL    HW1 4477   1.498   7.884   7.919 -2.0145  0.3643  0.1539
 1019SOL    HW2 4478   1.493   7.927   7.774 -1.5654  2.2254  0.6741
 1020SOL     OW 4479   6.287   3.099   0.874  0.5001 -0.1935 -0.6183
 1020SOL    HW1 4480   6.224   3.154   0.829 -0.4354  0.9528  1.8807
 1020SOL    HW2 4481   6.240   3.017   0.891 -0.1317  0.4197  0.6754
 1021SOL     OW 4482   2.316   2.258   8.308  0.3684 -0.1673  0.2567
 1021SOL    HW1 4483   2.411   2.269   8.310  0.5109 -1.2545  0.2771
 1021SOL    HW2 4484   2.301   2.175   8.353 -0.6221  0.1501  0.5289
 1022SOL     OW 4485   3.778   7.571   2.256  0.2693  0.5015 -0.3696
 1022SOL    HW1 4486   3.758   7.515   2.181 -0.4442  0.4526 -0.1519
 1022SOL    HW2 4487   3.814   7.511   2.321 -2.0896 -0.0671  0.5121
 1023SOL     OW 4488   0.461   2.318   2.948  0.2193  0.1173 -0.2696
 1023SOL    HW1 4489   0.442   2.224   2.951  1.8676 -0.2307  0.8386
 1023SOL    HW2 4490   0.555   2.322   2.928 -0.2503  1.6154 -2.5919
 1024SOL     OW 4491   6.937   7.080   7.969  0.2139  0.2011  0.0239
 1024SOL    HW1 4492   7.003   7.048   8.031  0.2686  0.1184 -0.0767
 1024SOL    HW2 4493   6.870   7.120   8.024  0.5724  0.7036  0.1034
 1025SOL     OW 4494   1.238   4.511   5.246  0.0611  0.8038 -0.0019
 1025SOL    HW1 4495   1.151   4.491   5.212  0.8414 -2.2420 -0.4807
 1025SOL    HW2 4496   1.224   4.585   5.305 -2.6142  1.1957 -0.9648
 1026SOL     OW 4497   0.729   8.193   0.644  0.0315 -0.0421  0.1120
 1026SOL    HW1 4498   0.641   8.190   0.681 -0.4438 -0.3023 -1.0070
 1026SOL    HW2 4499   0.781   8.134   0.699 -0.5474 -0.0694  0.6322
 1027SOL     OW 4500   2.104   2.995   1.561  0.5857  0.4765 -0.1957
 1027SOL    HW1 4501   2.043   2.926   1.534  1.6050 -0.1237 -1.0779
 1027SOL    HW2 4502   2.066   3.031   1.640  1.1850 -2.7162  1.7486
 1028SOL     OW 4503   2.709   2.890   3.696 -0.1488  0.2242  0.4023
 1028SOL    HW1 4504   2.771   2.888   3.623 -0.0272 -0.3465  0.5145
 1028SOL    HW2 4505   2.758   2.927   3.769  0.0887 -0.2919  0.5100
 1029SOL     OW 4506   5.200   3.258   3.710 -0.1227  0.3842 -0.1695
 1029SOL    HW1 4507   5.158   3.204   3.777  0.2492 -1.3544 -1.2802
 1029SOL    HW2 4508   5.211   3.200   3.635  0.9915  1.8004 -1.1670
 1030SOL     OW 4509   2.535   3.116   3.059 -0.3526 -0.1560  0.1641
 1030SOL    HW1 4510   2.469   3.074   3.005 -0.4461 -0.0848  0.2221
 1030SOL    HW2 4511   2.495   3.198   3.088 -0.0918  0.0738 -0.1196
 1031SOL     OW 4512   0.205   1.327   5.164 -0.0534  0.1525  0.1005
 1031SOL    HW1 4513   0.196   1.374   5.247 -0.2500 -0.0893  0.2177
 1031SOL    HW2 4514   0.127   1.270   5.160  0.7037 -0.9459  0.4680
 1032SOL     OW 4515   7.036   2.486   2.397  0.0008  0.2300 -0.4246
 1032SOL    HW1 4516   7.115   2.484   2.343  0.1169  2.5357 -0.4142
 1032SOL    HW2 4517   7.067   2.515   2.483 -0.5717 -0.8754  0.1739
 1033SOL     OW 4518   2.789   4.138   7.598 -0.3322  0.0652 -0.2251
 1033SOL    HW1 4519   2.746   4.193   7.663 -0.2653  0.1789 -0.2755
 1033SOL    HW2 4520   2.881   4.164   7.601 -0.0720 -0.8928  0.6061
 1034SOL     OW 4521   8.012   8.040   6.480  0.1884  0.3759 -0.2256
 1034SOL    HW1 4522   8.081   7.987   6.441 -0.5698 -0.7857 -0.0540
 1034SOL    HW2 4523   8.057   8.114   6.520  1.2136  0.2350 -1.0959
 1035SOL     OW 4524   8.076   7.014   0.213 -0.1265 -0.0501  0.2495
 1035SOL    HW1 4525   8.082   6.953   0.286 -0.2718  0.8683  1.0522
 1035SOL    HW2 4526   8.158   7.064   0.217 -0.7829  1.0256  0.7304
 1036SOL     OW 4527   5.719   1.902   1.651  0.4843  0.6256  0.0665
 1036SOL    HW1 4528   5.652   1.965   1.625 -1.1621 -0.8771  0.4716
 1036SOL    HW2 4529   5.684   1.860   1.730  1.5506 -0.7215 -0.1268
 1037SOL     OW 4530   2.549   4.253   4.926  0.7176  0.2964 -0.0083
 1037SOL    HW1 4531   2.501   4.204   4.860  1.7806 -1.3514  0.3911
 1037SOL    HW2 4532   2.602   4.188   4.972  0.0948  1.3580  2.4294
 1038SOL     OW 4533   7.159   7.080   4.748  0.0710 -0.2270  0.1360
 1038SOL    HW1 4534   7.076   7.124   4.765  0.1330 -0.3926  0.8719
 1038SOL    HW2 4535   7.226   7.144   4.773  0.1650 -0.4645  0.4848
 1039SOL     OW 4536   4.765   6.556   5.668 -0.4449 -0.4497 -0.0729
 1039SOL    HW1 4537   4.838   6.530   5.612 -0.8275  0.5500 -1.0723
 1039SOL    HW2 4538   4.790   6.527   5.755  1.1570 -0.0920 -0.3821
 1040SOL     OW 4539   1.867   1.206   3.408 -0.1215 -0.3695  0.2022
 1040SOL    HW1 4540   1.888   1.136   3.346 -1.1250  0.0198 -0.6129
 1040SOL    HW2 4541   1.772   1.219   3.398  0.3316  2.6042 -1.3208
 1041SOL     OW 4542   8.147   0.672   7.261 -0.4151  0.4084  0.0150
 1041SOL    HW1 4543   8.187   0.724   7.329  0.0784 -0.0057  0.0444
 1041SOL    HW2 4544   8.185   0.704   7.179 -0.0609  0.0502  0.0385
 1042SOL     OW 4545   6.005   3.096   5.110  0.4794 -0.4735 -0.2539
 1042SOL    HW1 4546   6.073   3.115   5.046  0.5344  0.9103  0.1728
 1042SOL    HW2 4547   6.041   3.128   5.193 -0.5406 -0.0228  0.0358
 1043SOL     OW 4548   6.121   5.399   1.836 -0.0257 -0.0058  0.2525
 1043SOL    HW1 4549   6.123   5.384   1.742 -0.6882 -2.0700  0.5166
 1043SOL    HW2 4550   6.213   5.410   1.861  0.2363 -0.5001 -0.4833
 1044SOL     OW 4551   5.635   7.526   7.729  0.3018 -0.1626 -0.2106
 1044SOL    HW1 4552   5.593   7.572   7.802 -0.7309 -0.7039 -0.4443
 1044SOL    HW2 4553   5.728   7.548   7.737  0.1126  0.3165  0.8744
 1045SOL     OW 4554   2.481   1.396   4.772  0.0945 -0.2115 -0.0941
 1045SOL    HW1 4555   2.521   1.482   4.758  0.4159 -0.4875 -0.9085
 1045SOL    HW2 4556   2.407   1.413   4.831  0.4993  0.5309  0.2133
 1046SOL     OW 4557   5.326   4.527   7.491 -0.1824  0.2573  0.1558
 1046SOL    HW1 4558   5.345   4.549   7.583 -0.9511  0.4588  0.2754
 1046SOL    HW2 4559   5.401   4.563   7.442 -0.0651  0.6930  0.6407
 1047SOL     OW 4560   4.616   1.728   5.915  0.6782 -0.4828  0.5160
 1047SOL    HW1 4561   4.628   1.823   5.910  0.8148 -0.5055  0.3843
 1047SOL    HW2 4562   4.551   1.716   5.983 -0.0353 -0.2417 -0.1059
 1048SOL     OW 4563   0.459   5.144   2.678 -0.0020  0.7798 -0.1912
 1048SOL    HW1 4564   0.416   5.219   2.637 -1.7036  0.3308  0.6567
 1048SOL    HW2 4565   0.509   5.181   2.750 -1.9647  1.0347  1.1131
 1049SOL     OW 4566   3.957   0.444   8.349  0.6258 -0.0144  0.0717
 1049SOL    HW1 4567   3.879   0.395   8.326  0.7312 -0.0878 -0.1359
 1049SOL    HW2 4568   4.005   0.387   8.410  1.9196 -1.2420 -1.9539
 1050SOL     OW 4569   1.148   8.304   1.191  0.2574 -0.1209  0.0199
 1050SOL    HW1 4570   1.235   8.274   1.165  0.0086 -1.3674  0.5702
 1050SOL    HW2 4571   1.089   8.236   1.161 -0.2468 -0.6298  2.0001
 1051SOL     OW 4572   8.098   4.132   3.014  0.5810 -0.1393  0.0686
 1051SOL    HW1 4573   8.037   4.195   3.052  0.2827  0.6449 -1.6286
 1051SOL    HW2 4574   8.044   4.079   2.955  0.8216 -2.0354  1.4584
 1052SOL     OW 4575   3.653   6.557   8.223  0.6052 -0.2064 -0.4138
 1052SOL    HW1 4576   3.661   6.471   8.183  0.2208  0.3376 -1.7341
 1052SOL    HW2 4577   3.742   6.580   8.249  0.8580 -0.6157 -0.9005
 1053SOL     OW 4578   8.363   6.542   4.001  0.2015  0.2175 -0.5788
 1053SOL    HW1 4579   8.360   6.460   4.049 -1.6185  0.6298  0.0681
 1053SOL    HW2 4580   8.288   6.540   3.943 -1.3091  2.3622  1.1291
 1054SOL     OW 4581   8.269   2.804   2.267  0.6981  0.0827 -0.4445
 1054SOL    HW1 4582   8.276   2.899   2.268 -1.1567  0.2476 -0.1633
 1054SOL    HW2 4583   8.288   2.777   2.357  1.7507  0.1177 -0.6433
 1055SOL     OW 4584   2.368   5.859   5.273 -0.3979  0.2460  0.2074
 1055SOL    HW1 4585   2.346   5.897   5.358 -0.1284 -0.2269  0.4910
 1055SOL    HW2 4586   2.340   5.767   5.279  0.7871 -0.1234  0.2459
 1056SOL     OW 4587   5.775   8.084   2.785  0.1702  0.4034 -0.2570
 1056SOL    HW1 4588   5.832   8.140   2.732 -0.0674  0.7008 -0.2040
 1056SOL    HW2 4589   5.704   8.059   2.727 -0.9794  2.0672  0.3315
 1057SOL     OW 4590   6.077   5.267   6.222  0.1731 -0.3152 -0.3096
 1057SOL    HW1 4591   6.020   5.194   6.244  1.6895 -1.2745  0.6109
 1057SOL    HW2 4592   6.063   5.331   6.292  0.2454 -0.5599 -0.0717
 1058SOL     OW 4593   5.339   3.930   6.076  0.2203 -0.0204  0.0888
 1058SOL    HW1 4594   5.411   3.912   6.016  0.3131  0.1814  0.1405
 1058SOL    HW2 4595   5.319   3.845   6.115 -0.1722 -0.2568 -0.5919
 1059SOL     OW 4596   2.262   0.866   1.632  0.1932 -0.4215  0.8451
 1059SOL    HW1 4597   2.293   0.930   1.568  0.6144 -0.0213  1.4377
 1059SOL    HW2 4598   2.199   0.914   1.686  0.6317 -0.4582  1.3928
 1060SOL     OW 4599   5.298   2.914   4.514  0.1102 -0.1727 -0.3540
 1060SOL    HW1 4600   5.362   2.864   4.463  0.4035 -0.9237  0.7183
 1060SOL    HW2 4601   5.288   2.865   4.595 -0.7130  0.7376  0.1188
 1061SOL     OW 4602   0.912   0.165   3.758 -0.4782 -0.2962  0.5975
 1061SOL    HW1 4603   0.902   0.147   3.664  0.4670 -0.6139  0.5470
 1061SOL    HW2 4604   0.996   0.126   3.781 -0.6383 -0.1024  1.5559
 1062SOL     OW 4605   7.850   6.486   7.852 -0.2599 -0.2181 -0.2902
 1062SOL    HW1 4606   7.857   6.469   7.946  0.3780  0.7347 -0.1607
 1062SOL    HW2 4607   7.757   6.469   7.832 -0.6129  0.4762  0.6916
 1063SOL     OW 4608   5.335   1.161   3.927 -0.1346 -0.0324 -0.8484
 1063SOL    HW1 4609   5.401   1.220   3.965 -2.1061  1.6057  0.2145
 1063SOL    HW2 4610   5.279   1.218   3.875 -1.5841 -1.1204 -0.5392
 1064SOL     OW 4611   1.752   1.177   7.759 -0.1191  0.3262  0.4757
 1064SOL    HW1 4612   1.833   1.186   7.810 -0.4563  0.3515  1.0233
 1064SOL    HW2 4613   1.769   1.225   7.678  0.5101  0.0993  0.4678
 1065SOL     OW 4614   0.120   1.514   1.368 -0.0805  0.5880 -0.2776
 1065SOL    HW1 4615   0.127   1.582   1.300  1.1724  1.9268  1.1042
 1065SOL    HW2 4616   0.054   1.454   1.335  1.7891  0.1166 -3.5633
 1066SOL     OW 4617   4.053   3.577   0.165 -0.2348  0.1845 -0.2369
 1066SOL    HW1 4618   4.018   3.580   0.076 -0.3693  0.4590 -0.1742
 1066SOL    HW2 4619   4.064   3.483   0.183 -0.1463  0.1294 -0.5654
 1067SOL     OW 4620   6.469   3.994   6.578 -0.7876 -0.1958 -0.2672
 1067SOL    HW1 4621   6.480   3.914   6.631 -1.1714 -0.7774 -1.0438
 1067SOL    HW2 4622   6.375   3.997   6.559 -0.7675  0.4211 -0.2825
 1068SOL     OW 4623   2.883   0.813   2.895  0.0232  0.2884 -0.2718
 1068SOL    HW1 4624   2.806   0.869   2.896  0.1289  0.5715  2.8979
 1068SOL    HW2 4625   2.850   0.726   2.915  0.3138 -0.0027 -1.0272
 1069SOL     OW 4626   2.907   2.649   4.333 -0.2174  0.3206  0.4415
 1069SOL    HW1 4627   2.882   2.670   4.243 -0.8594  0.9846  0.7631
 1069SOL    HW2 4628   2.849   2.578   4.359  1.1699 -1.1236 -0.2516
 1070SOL     OW 4629   4.364   6.102   7.766 -0.0946 -1.1413  0.5801
 1070SOL    HW1 4630   4.283   6.063   7.734 -0.9979  1.0627  0.0781
 1070SOL    HW2 4631   4.385   6.050   7.844 -0.9485 -2.9221 -0.3046
 1071SOL     OW 4632   0.074   3.744   2.615 -0.0918  0.7196 -0.1987
 1071SOL    HW1 4633   0.079   3.739   2.711  1.7269  0.8094 -0.2446
 1071SOL    HW2 4634   0.080   3.837   2.596  0.3365  0.6528 -0.4103
 1072SOL     OW 4635   2.803   1.249   0.515 -0.1882 -0.0031  0.1169
 1072SOL    HW1 4636   2.892   1.224   0.539  0.8045  1.0319 -2.1273
 1072SOL    HW2 4637   2.768   1.172   0.470  0.9881  0.7078 -2.2156
 1073SOL     OW 4638   7.356   1.664   6.657 -0.1989 -0.1440  0.3274
 1073SOL    HW1 4639   7.381   1.646   6.567 -3.5282 -0.6935 -0.6073
 1073SOL    HW2 4640   7.386   1.588   6.707  1.4740  0.0712 -0.2882
 1074SOL     OW 4641   6.158   2.755   1.474 -0.0879 -0.4968 -0.9660
 1074SOL    HW1 4642   6.081   2.762   1.419 -0.3120  0.0019 -0.5958
 1074SOL    HW2 4643   6.127   2.713   1.554  0.2828 -1.4368 -1.2956
 1075SOL     OW 4644   1.735   6.127   4.659 -0.0149  0.0961  0.2125
 1075SOL    HW1 4645   1.652   6.114   4.704 -1.1604 -0.2265 -1.9079
 1075SOL    HW2 4646   1.789   6.052   4.686 -0.1782  0.5709  1.9851
 1076SOL     OW 4647   7.708   2.596   6.633  0.3784  0.5316 -0.0583
 1076SOL    HW1 4648   7.645   2.525   6.624  1.7117 -0.6714 -0.1958
 1076SOL    HW2 4649   7.693   2.631   6.721  0.4483 -0.6562  0.4454
 1077SOL     OW 4650   1.134   2.007   3.125 -0.7514 -0.2917  0.0983
 1077SOL    HW1 4651   1.094   2.017   3.038 -0.9568 -0.3588  0.1853
 1077SOL    HW2 4652   1.099   2.081   3.175  0.8075  0.8295 -0.4151
 1078SOL     OW 4653   7.629   1.850   6.532 -0.3314  0.0738 -0.1664
 1078SOL    HW1 4654   7.631   1.754   6.531 -2.4110  0.0073 -0.4884
 1078SOL    HW2 4655   7.713   1.875   6.493 -0.0066 -1.6049 -0.6365
 1079SOL     OW 4656   2.160   2.274   2.692 -0.1638  0.2481  0.0933
 1079SOL    HW1 4657   2.255   2.286   2.690 -0.0472 -0.5308 -1.6309
 1079SOL    HW2 4658   2.144   2.219   2.768  0.8763 -0.3219 -0.0813
 1080SOL     OW 4659   3.660   4.502   7.918 -1.0471  0.2735  0.2146
 1080SOL    HW1 4660   3.584   4.560   7.913  0.0437  1.7555  0.2509
 1080SOL    HW2 4661   3.667   4.478   8.010 -1.1695  0.5714  0.3024
 1081SOL     OW 4662   3.258   6.965   2.197 -0.1235 -0.2508  0.3669
 1081SOL    HW1 4663   3.242   6.894   2.259 -0.3361  0.9413  1.7213
 1081SOL    HW2 4664   3.185   6.961   2.136  0.5326 -1.9780 -0.3610
 1082SOL     OW 4665   3.396   3.483   3.624 -0.9107 -0.1758  0.0631
 1082SOL    HW1 4666   3.333   3.498   3.694 -1.8327  0.6265 -0.9092
 1082SOL    HW2 4667   3.481   3.503   3.663 -1.2886 -0.8583  1.2714
 1083SOL     OW 4668   2.103   0.180   1.896  0.0956  0.3042  0.3206
 1083SOL    HW1 4669   2.137   0.113   1.955 -0.3749 -0.4227 -0.2168
 1083SOL    HW2 4670   2.106   0.140   1.809  1.4858  1.6153 -0.2914
 1084SOL     OW 4671   2.269   2.840   2.389 -0.2166 -1.0925 -0.0774
 1084SOL    HW1 4672   2.325   2.801   2.456  1.2400 -1.0186 -1.1900
 1084SOL    HW2 4673   2.328   2.854   2.314 -1.7864 -1.1902 -1.3811
 1085SOL     OW 4674   4.639   1.685   5.468  0.5372  0.5653 -0.0594
 1085SOL    HW1 4675   4.624   1.685   5.563 -2.5451 -3.5252 -0.3209
 1085SOL    HW2 4676   4.591   1.762   5.437 -1.1218  0.2063  1.4442
 1086SOL     OW 4677   6.961   7.022   3.683  1.3344 -0.0121  0.3684
 1086SOL    HW1 4678   6.938   6.931   3.703  0.1769  0.2412  0.2722
 1086SOL    HW2 4679   7.017   7.016   3.606  1.4447 -0.6573  0.4907
 1087SOL     OW 4680   7.352   1.724   0.394 -0.5524 -0.0729 -0.0191
 1087SOL    HW1 4681   7.268   1.709   0.438 -1.4226  0.6300 -1.3807
 1087SOL    HW2 4682   7.353   1.818   0.375  1.3044  0.2496  1.4364
 1088SOL     OW 4683   2.333   2.497   2.243  0.2406  0.0349 -0.3244
 1088SOL    HW1 4684   2.341   2.403   2.228  0.0641  0.4218 -3.4850
 1088SOL    HW2 4685   2.423   2.526   2.261  0.4070 -0.6153 -0.0694
 1089SOL     OW 4686   5.008   4.410   3.096  0.7555 -0.0847 -0.1845
 1089SOL    HW1 4687   4.998   4.318   3.072 -0.5884 -0.3946  1.4059
 1089SOL    HW2 4688   4.920   4.446   3.093  1.2705  1.1846 -0.8262
 1090SOL     OW 4689   1.242   0.254   3.224  0.5142 -0.3410 -0.0593
 1090SOL    HW1 4690   1.227   0.200   3.146 -0.3891 -0.9970  0.5364
 1090SOL    HW2 4691   1.333   0.280   3.218  0.0735  0.9480 -2.1416
 1091SOL     OW 4692   2.000   8.341   7.252 -0.2683  0.2547  0.0707
 1091SOL    HW1 4693   2.003   8.428   7.212 -1.8597 -0.0313 -0.7759
 1091SOL    HW2 4694   1.924   8.344   7.310  0.8185  0.0097  1.5527
 1092SOL     OW 4695   4.321   3.026   5.960  0.1356 -0.7892 -0.0146
 1092SOL    HW1 4696   4.260   3.099   5.951 -0.3075 -1.0786  0.5721
 1092SOL    HW2 4697   4.308   2.974   5.881  0.0127 -0.5603 -0.1462
 1093SOL     OW 4698   7.092   4.961   6.201 -0.5833 -0.3028  0.1931
 1093SOL    HW1 4699   7.024   4.930   6.141  0.3068  0.0619 -1.0513
 1093SOL    HW2 4700   7.066   4.927   6.286 -1.1910 -1.9785 -0.6168
 1094SOL     OW 4701   3.964   4.597   4.653  0.5017 -0.0845  0.5848
 1094SOL    HW1 4702   3.956   4.578   4.559 -1.3173  0.3261  0.6124
 1094SOL    HW2 4703   3.927   4.520   4.696  0.2550  0.2202  0.9210
 1095SOL     OW 4704   2.826   8.019   7.593 -0.5071  0.1199  0.2589
 1095SOL    HW1 4705   2.804   7.926   7.587 -1.1204  0.3202 -0.7562
 1095SOL    HW2 4706   2.746   8.064   7.564  0.4225  0.9294 -1.1012
 1096SOL     OW 4707   5.630   8.354   0.374 -0.0668  0.2729  0.4547
 1096SOL    HW1 4708   5.564   8.394   0.317  0.3306 -0.5817 -0.6409
 1096SOL    HW2 4709   5.603   8.262   0.380  0.2166  0.2370  1.1785
 1097SOL     OW 4710   0.930   1.447   2.703  0.0099  0.5598  0.4530
 1097SOL    HW1 4711   1.011   1.446   2.652 -0.3929 -0.2976 -0.1969
 1097SOL    HW2 4712   0.892   1.360   2.689 -0.9330  0.8892  0.8918
 1098SOL     OW 4713   3.412   0.086   3.566 -0.4253 -0.0918  0.1666
 1098SOL    HW1 4714   3.491   0.033   3.555 -1.0108 -1.2293  1.2292
 1098SOL    HW2 4715   3.340   0.027   3.546 -1.0337  1.0093 -1.0291
 1099SOL     OW 4716   8.213   6.546   5.797  0.1731 -0.1143  0.1878
 1099SOL    HW1 4717   8.291   6.559   5.851 -0.6333  0.6827  1.1958
 1099SOL    HW2 4718   8.242   6.568   5.708  1.5631 -1.6169  0.2145
 1100SOL     OW 4719   3.530   7.113   0.299  0.7498 -0.0317 -1.1056
 1100SOL    HW1 4720   3.437   7.137   0.305  0.4145 -0.8571 -2.5106
 1100SOL    HW2 4721   3.569   7.182   0.246  1.3414  1.2447  0.8939
 1101SOL     OW 4722   4.152   2.307   4.712  0.1523  0.2141  0.0933
 1101SOL    HW1 4723   4.139   2.301   4.617 -1.1457  1.4869  0.1568
 1101SOL    HW2 4724   4.197   2.390   4.725  0.7220 -0.1558  0.5856
 1102SOL     OW 4725   4.048   1.909   0.400  0.4165 -0.1396  0.3612
 1102SOL    HW1 4726   4.042   1.927   0.494 -0.1396  1.9890 -0.0377
 1102SOL    HW2 4727   4.056   1.995   0.359 -0.1136 -0.9678 -1.6091
 1103SOL     OW 4728   3.495   3.404   0.685  0.7223 -0.0802 -0.5465
 1103SOL    HW1 4729   3.439   3.381   0.611  1.0094 -1.0154 -0.4846
 1103SOL    HW2 4730   3.436   3.408   0.760  0.3835  1.1557 -0.8641
 1104SOL     OW 4731   2.467   3.337   2.038  0.1932 -0.2453  0.2308
 1104SOL    HW1 4732   2.506   3.260   2.080  1.7191 -0.2718 -1.1320
 1104SOL    HW2 4733   2.431   3.304   1.956 -0.2984  0.2742  0.2302
 1105SOL     OW 4734   5.404   3.682   7.579 -0.4016  0.3021  0.5831
 1105SOL    HW1 4735   5.337   3.751   7.583 -1.6428 -0.7988 -0.5580
 1105SOL    HW2 4736   5.407   3.656   7.487  0.4446 -0.7836  0.8987
 1106SOL     OW 4737   0.665   0.419   7.272  0.3387 -0.0498  0.3229
 1106SOL    HW1 4738   0.673   0.402   7.366  0.7043 -0.1472  0.2772
 1106SOL    HW2 4739   0.650   0.514   7.266 -2.3181 -0.3991  0.6066
 1107SOL     OW 4740   3.172   2.426   6.760  0.6590  0.2207  0.1998
 1107SOL    HW1 4741   3.164   2.477   6.679  0.2638  2.2292  1.4433
 1107SOL    HW2 4742   3.132   2.341   6.739 -1.8932  1.6010 -0.9547
 1108SOL     OW 4743   3.771   4.364   7.410 -0.5612 -0.2524 -0.9831
 1108SOL    HW1 4744   3.768   4.416   7.490  0.0395  1.0925 -1.7943
 1108SOL    HW2 4745   3.688   4.382   7.366 -0.1253  0.5161 -1.5308
 1109SOL     OW 4746   6.475   6.139   4.229  0.1900 -0.3228  0.0588
 1109SOL    HW1 4747   6.523   6.182   4.300 -1.0534  1.9598 -0.3981
 1109SOL    HW2 4748   6.484   6.198   4.154 -0.9595 -1.2247 -0.8270
 1110SOL     OW 4749   4.820   5.451   0.138  0.0845 -0.2562  0.1779
 1110SOL    HW1 4750   4.855   5.379   0.086 -1.1064 -0.6540 -0.1003
 1110SOL    HW2 4751   4.751   5.411   0.191  0.9565  0.2204  1.7664
 1111SOL     OW 4752   6.590   2.653   4.998  0.0731  0.1940  0.1625
 1111SOL    HW1 4753   6.671   2.700   4.981 -0.0644 -0.0386 -1.3009
 1111SOL    HW2 4754   6.530   2.684   4.930 -0.2217 -1.5842 -0.4426
 1112SOL     OW 4755   3.710   2.989   6.396 -0.1364 -0.3653  0.1124
 1112SOL    HW1 4756   3.687   3.031   6.479  1.0088  0.2213  0.1541
 1112SOL    HW2 4757   3.762   2.913   6.422  1.6802  0.7614 -0.0878
 1113SOL     OW 4758   5.445   4.580   0.693 -0.3035  0.5957  0.1382
 1113SOL    HW1 4759   5.448   4.648   0.760  0.8463  0.5347  0.1647
 1113SOL    HW2 4760   5.433   4.628   0.611 -2.5585  0.6244  0.4162
 1114SOL     OW 4761   1.619   3.202   0.643 -0.0721 -0.0130 -0.8816
 1114SOL    HW1 4762   1.626   3.246   0.558 -0.8274 -1.7811 -1.9192
 1114SOL    HW2 4763   1.684   3.132   0.638  0.1758  0.1222  0.1998
 1115SOL     OW 4764   7.473   4.453   3.495  0.4448 -0.0886  0.3782
 1115SOL    HW1 4765   7.523   4.431   3.574 -0.4957 -3.4458  0.1960
 1115SOL    HW2 4766   7.496   4.385   3.432 -2.1190 -0.0779 -0.6894
 1116SOL     OW 4767   0.017   4.917   0.316 -0.1310  0.1779  0.1423
 1116SOL    HW1 4768   0.054   4.981   0.377 -1.3113  0.8444  0.1968
 1116SOL    HW2 4769  -0.014   4.970   0.242  1.3799 -0.6253 -1.1252
 1117SOL     OW 4770   4.172   1.562   5.355 -0.3762 -0.1286 -0.3516
 1117SOL    HW1 4771   4.216   1.620   5.293 -0.6011 -0.2869 -0.6586
 1117SOL    HW2 4772   4.131   1.495   5.301 -0.8600 -0.0759 -0.0539
 1118SOL     OW 4773   5.869   2.586   7.500  0.2942 -0.3417 -0.1081
 1118SOL    HW1 4774   5.782   2.599   7.539  0.1676 -0.3443 -0.3893
 1118SOL    HW2 4775   5.918   2.538   7.567 -0.0376 -0.6696 -0.0947
 1119SOL     OW 4776   5.423   6.883   0.098 -0.3138  0.2927  0.7018
 1119SOL    HW1 4777   5.357   6.821   0.129  0.5955 -1.6140 -0.9843
 1119SOL    HW2 4778   5.375   6.944   0.043 -1.1213  0.8026  1.9124
 1120SOL     OW 4779   2.125   2.600   2.719 -0.4784  0.6478 -0.4330
 1120SOL    HW1 4780   2.083   2.671   2.670 -0.2668  0.8680 -0.2935
 1120SOL    HW2 4781   2.052   2.548   2.752 -0.6418  0.9719 -0.2785
 1121SOL     OW 4782   6.605   2.193   5.130  0.5526  0.4865  0.2843
 1121SOL    HW1 4783   6.564   2.280   5.130  0.9275  0.6950  2.0601
 1121SOL    HW2 4784   6.646   2.187   5.044  1.0308  2.3283  0.3375
 1122SOL     OW 4785   4.296   4.678   3.749  0.6188 -0.1457 -0.4348
 1122SOL    HW1 4786   4.354   4.614   3.708  0.9128 -0.9262  1.0997
 1122SOL    HW2 4787   4.223   4.626   3.783  1.1370  0.1940  1.3220
 1123SOL     OW 4788   7.600   5.769   3.958 -0.0528  0.1485  0.0920
 1123SOL    HW1 4789   7.523   5.732   4.002  0.5814 -0.0685  1.0367
 1123SOL    HW2 4790   7.629   5.699   3.898 -1.7390  0.9467 -1.7859
 1124SOL     OW 4791   8.068   5.380   4.735  0.1188 -0.0883 -0.0435
 1124SOL    HW1 4792   8.114   5.460   4.710  1.0092 -0.2051  1.1678
 1124SOL    HW2 4793   7.982   5.388   4.693  0.6314  0.9267 -0.9329
 1125SOL     OW 4794   7.812   7.221   6.017  0.2875 -0.1370 -0.2107
 1125SOL    HW1 4795   7.878   7.156   6.041  0.2832  0.2294  0.8411
 1125SOL    HW2 4796   7.765   7.181   5.943  1.3827 -0.5943 -0.6816
 1126SOL     OW 4797   3.659   8.237   1.503  0.5631 -0.0261 -0.4900
 1126SOL    HW1 4798   3.700   8.188   1.574  0.5497 -0.4179 -0.7524
 1126SOL    HW2 4799   3.582   8.185   1.479  1.0246 -0.3308 -1.3512
 1127SOL     OW 4800   8.294   2.782   7.528 -0.6315 -0.2318  0.3056
 1127SOL    HW1 4801   8.347   2.818   7.457  0.7399  1.6080  2.1277
 1127SOL    HW2 4802   8.331   2.695   7.545  1.2408  0.6277  0.8775
 1128SOL     OW 4803   0.574   5.118   2.018 -0.7677  0.3052  0.0221
 1128SOL    HW1 4804   0.483   5.088   2.025 -0.1532 -2.1404 -1.2676
 1128SOL    HW2 4805   0.619   5.073   2.089 -0.2178 -0.0155 -0.5282
 1129SOL     OW 4806   3.150   2.627   2.971 -0.4111  0.5283 -0.4552
 1129SOL    HW1 4807   3.054   2.622   2.973 -0.3763 -0.6033  1.9418
 1129SOL    HW2 4808   3.178   2.536   2.979  0.7992  1.0735  2.2680
 1130SOL     OW 4809   6.847   2.554   0.677  0.7819  0.4206  0.3978
 1130SOL    HW1 4810   6.832   2.470   0.634  0.4077 -0.2514  1.7827
 1130SOL    HW2 4811   6.902   2.533   0.752  1.0214  1.4788  0.5333
 1131SOL     OW 4812   3.110   3.544   7.846  0.2755 -0.4145 -0.1128
 1131SOL    HW1 4813   3.170   3.612   7.878  1.0197 -1.7898  1.5772
 1131SOL    HW2 4814   3.140   3.464   7.888 -2.5304 -1.2464  0.4791
 1132SOL     OW 4815   2.866   5.062   5.928  0.0467 -0.3014 -0.3246
 1132SOL    HW1 4816   2.916   4.982   5.916 -1.7120 -1.4421 -0.4520
 1132SOL    HW2 4817   2.891   5.117   5.853  2.1025 -0.2253  0.3656
 1133SOL     OW 4818   0.584   0.611   2.862  0.4828 -0.1370  0.2671
 1133SOL    HW1 4819   0.656   0.614   2.799  0.1311  0.3464 -0.1101
 1133SOL    HW2 4820   0.611   0.671   2.932  1.3232 -1.3941  1.0823
 1134SOL     OW 4821   7.395   3.432   4.324 -0.0505 -0.1248 -0.5056
 1134SOL    HW1 4822   7.318   3.485   4.306 -0.3772 -0.7322 -0.9536
 1134SOL    HW2 4823   7.419   3.454   4.414  0.0427  1.0369 -0.7973
 1135SOL     OW 4824   7.444   1.901   3.695 -0.2281 -0.0017  0.0194
 1135SOL    HW1 4825   7.384   1.894   3.769  0.3844 -3.2067  0.3339
 1135SOL    HW2 4826   7.412   1.837   3.631  1.3959  0.0313 -0.8779
 1136SOL     OW 4827   0.973   5.170   0.070 -0.4757 -0.6593 -0.4412
 1136SOL    HW1 4828   0.899   5.230   0.062 -0.2022 -0.2361  0.1533
 1136SOL    HW2 4829   1.050   5.227   0.071 -0.3356 -0.6087  3.9720
 1137SOL     OW 4830   3.088   6.595   3.340  0.6153 -0.5590 -0.2858
 1137SOL    HW1 4831   3.054   6.665   3.284 -0.2538 -1.0385 -0.3837
 1137SOL    HW2 4832   3.111   6.525   3.279  0.3609 -0.8035 -0.1055
 1138SOL     OW 4833   7.862   4.282   3.120 -0.0080 -0.4516  0.1530
 1138SOL    HW1 4834   7.781   4.332   3.115  0.0981 -0.3545 -3.0396
 1138SOL    HW2 4835   7.931   4.349   3.117  0.1489 -0.6310 -0.3514
 1139SOL     OW 4836   6.143   4.032   6.022 -0.0043  0.8585 -0.0259
 1139SOL    HW1 4837   6.099   4.078   5.951 -1.0541 -0.2646 -0.1332
 1139SOL    HW2 4838   6.158   3.944   5.989  1.4810  0.9266  0.3719
 1140SOL     OW 4839   0.267   1.251   4.161  0.3632 -0.5044 -0.6348
 1140SOL    HW1 4840   0.310   1.330   4.128  1.4609  0.0562  1.8804
 1140SOL    HW2 4841   0.209   1.282   4.231 -1.4191 -1.6646 -1.5206
 1141SOL     OW 4842   1.263   3.967   2.804  0.3441 -0.4885  0.1037
 1141SOL    HW1 4843   1.196   3.981   2.738  1.0993 -0.7689 -0.7367
 1141SOL    HW2 4844   1.265   4.049   2.854  0.7858  0.2872 -1.1469
 1142SOL     OW 4845   5.328   5.938   3.335 -0.4400  0.2390 -0.3797
 1142SOL    HW1 4846   5.240   5.904   3.318  0.1951 -1.2297 -0.8506
 1142SOL    HW2 4847   5.331   6.022   3.289 -1.4717  0.1388 -0.6407
 1143SOL     OW 4848   1.790   3.041   3.922  0.0055  0.4383 -0.6230
 1143SOL    HW1 4849   1.709   3.075   3.960  0.1839  0.0968  0.0736
 1143SOL    HW2 4850   1.858   3.064   3.986  0.4757  0.7729 -1.2266
 1144SOL     OW 4851   8.302   2.831   6.377 -0.6866  0.0692  0.1128
 1144SOL    HW1 4852   8.227   2.792   6.422 -1.1559  2.2086  1.3305
 1144SOL    HW2 4853   8.369   2.838   6.445  0.7436 -1.9065 -0.9814
 1145SOL     OW 4854   0.716   6.883   1.349 -0.0539 -0.1683  0.0860
 1145SOL    HW1 4855   0.782   6.945   1.379  0.1646 -0.6032  0.5185
 1145SOL    HW2 4856   0.656   6.935   1.295 -0.0125  0.4625  0.6402
 1146SOL     OW 4857   6.965   7.734   3.776  0.0321 -0.1932 -0.8125
 1146SOL    HW1 4858   6.892   7.761   3.831  0.9416  0.4069  0.1401
 1146SOL    HW2 4859   6.971   7.639   3.790 -1.0828 -0.3934 -1.5721
 1147SOL     OW 4860   5.001   3.595   2.272 -0.2794  0.4396 -0.4579
 1147SOL    HW1 4861   5.091   3.564   2.286  0.4630  1.3133 -2.8605
 1147SOL    HW2 4862   4.947   3.533   2.321  1.6108  0.0229  1.2653
 1148SOL     OW 4863   2.184   5.776   6.996  0.4133  0.0236  0.9238
 1148SOL    HW1 4864   2.264   5.823   6.972  0.7419 -0.8798  0.1796
 1148SOL    HW2 4865   2.134   5.771   6.915 -0.1723  0.1620  1.2783
 1149SOL     OW 4866   6.499   6.977   3.323 -0.0569 -0.4363 -0.0255
 1149SOL    HW1 4867   6.582   7.025   3.319  1.0658 -2.1604  1.1961
 1149SOL    HW2 4868   6.433   7.046   3.334  1.4166  0.8933  1.0582
 1150SOL     OW 4869   6.517   5.540   7.140 -0.2686  0.7424  0.3799
 1150SOL    HW1 4870   6.458   5.474   7.102  0.5236  0.1901  0.0777
 1150SOL    HW2 4871   6.462   5.616   7.154 -1.0713  0.2186  0.1533
 1151SOL     OW 4872   5.211   3.336   4.597  0.7280  0.0136  0.3258
 1151SOL    HW1 4873   5.191   3.423   4.562  0.2454 -0.4559 -0.6135
 1151SOL    HW2 4874   5.228   3.350   4.690  0.2375  1.0476  0.2660
 1152SOL     OW 4875   2.715   2.432   4.393  0.4390  0.0971  0.1841
 1152SOL    HW1 4876   2.753   2.399   4.475  0.7820  2.0229  0.8476
 1152SOL    HW2 4877   2.621   2.434   4.410  0.2486 -1.8526 -0.3985
 1153SOL     OW 4878   4.029   8.339   3.787 -0.0169 -0.7205 -0.2255
 1153SOL    HW1 4879   4.058   8.415   3.837 -0.2295 -1.2172  0.6736
 1153SOL    HW2 4880   4.051   8.360   3.696 -0.4663  0.5909 -0.0505
 1154SOL     OW 4881   6.245   5.246   0.877 -0.0108  0.0373  0.0107
 1154SOL    HW1 4882   6.227   5.334   0.910  2.0800  0.4873  0.1057
 1154SOL    HW2 4883   6.165   5.220   0.832 -1.7408  0.7934  2.4684
 1155SOL     OW 4884   4.873   1.989   6.068  0.1136 -0.2390 -0.1184
 1155SOL    HW1 4885   4.951   1.962   6.020 -0.6399  1.3182 -2.4173
 1155SOL    HW2 4886   4.805   1.995   6.001 -1.7435 -0.5877  1.6439
 1156SOL     OW 4887   4.419   2.246   6.502  0.1648 -0.1215 -0.3959
 1156SOL    HW1 4888   4.358   2.188   6.550 -0.4980  0.9952  0.1567
 1156SOL    HW2 4889   4.384   2.334   6.517  0.3824  0.3308 -2.3343
 1157SOL     OW 4890   6.056   0.272   7.811 -0.1720 -0.6873 -0.4168
 1157SOL    HW1 4891   6.065   0.265   7.906 -0.6057  0.0910 -0.3152
 1157SOL    HW2 4892   6.139   0.310   7.782 -0.0327 -0.9405 -0.3580
 1158SOL     OW 4893   7.069   1.383   6.243  0.3638  0.0645  0.0388
 1158SOL    HW1 4894   7.104   1.314   6.187  1.2150 -0.0499  0.6779
 1158SOL    HW2 4895   7.011   1.433   6.186  0.4876 -0.5934 -0.6928
 1159SOL     OW 4896   6.787   3.826   3.796  0.1579  0.0809  0.8603
 1159SOL    HW1 4897   6.818   3.915   3.810 -0.4294  0.5497 -0.5936
 1159SOL    HW2 4898   6.866   3.773   3.793  0.5247  0.5725  1.5583
 1160SOL     OW 4899   7.998   4.783   6.451 -0.5159  0.1931  0.4054
 1160SOL    HW1 4900   7.937   4.718   6.415 -1.1093  0.5419  0.7520
 1160SOL    HW2 4901   8.056   4.804   6.378 -0.3044 -0.7333  0.2922
 1161SOL     OW 4902   4.905   0.037   6.408 -0.1645 -0.1103 -0.0850
 1161SOL    HW1 4903   4.919   0.100   6.337  2.2546 -0.6012 -0.1447
 1161SOL    HW2 4904   4.888  -0.046   6.364  2.4335 -0.6554 -0.2333
 1162SOL     OW 4905   6.066   5.306   5.157  0.4229  0.5619  0.1757
 1162SOL    HW1 4906   6.105   5.383   5.198  0.7754  0.1723  0.5757
 1162SOL    HW2 4907   6.019   5.341   5.081  1.1210  1.0965 -0.0220
 1163SOL     OW 4908   4.352   5.944   4.092  0.0498 -0.8639  0.2500
 1163SOL    HW1 4909   4.435   5.914   4.057 -0.2123 -1.4848  0.1489
 1163SOL    HW2 4910   4.367   5.955   4.186  0.1278 -1.3898  0.2995
 1164SOL     OW 4911   2.024   7.619   7.062 -0.5185 -0.1917 -0.2757
 1164SOL    HW1 4912   2.021   7.682   6.991 -1.0171 -0.1074 -0.1812
 1164SOL    HW2 4913   1.942   7.631   7.109 -0.3925 -0.5574  0.0470
 1165SOL     OW 4914   6.645   4.756   5.109 -0.1591  0.2745  1.0972
 1165SOL    HW1 4915   6.609   4.817   5.174  0.0613  0.2055  1.2849
 1165SOL    HW2 4916   6.578   4.688   5.101  0.4442 -0.4923  2.3373
 1166SOL     OW 4917   1.243   2.091   6.233  0.4585  0.1963 -0.0051
 1166SOL    HW1 4918   1.295   2.045   6.168  2.5942  2.5543 -0.1088
 1166SOL    HW2 4919   1.183   2.145   6.182  0.8569  0.6580  0.0107
 1167SOL     OW 4920   7.683   3.935   8.067  0.2297 -0.1794  0.0394
 1167SOL    HW1 4921   7.677   4.028   8.089  0.7022 -0.3851  1.1070
 1167SOL    HW2 4922   7.685   3.891   8.152  2.0886 -1.0284 -0.3964
 1168SOL     OW 4923   8.166   5.920   5.287 -0.3165  0.3056  0.2566
 1168SOL    HW1 4924   8.107   5.845   5.300 -0.4026  0.1705 -0.8218
 1168SOL    HW2 4925   8.204   5.905   5.201  1.1044  0.5403  0.8130
 1169SOL     OW 4926   8.275   1.207   3.560  0.4998 -0.0389 -0.2710
 1169SOL    HW1 4927   8.324   1.256   3.494  0.1375  1.6598  0.6782
 1169SOL    HW2 4928   8.213   1.270   3.596  0.4397 -1.0167  1.4498
 1170SOL     OW 4929   6.989   1.323   2.601 -0.1278 -0.1712 -0.4626
 1170SOL    HW1 4930   6.933   1.396   2.631  0.2742 -0.3255  0.7059
 1170SOL    HW2 4931   7.061   1.366   2.555  1.0535  0.3436  1.7266
 1171SOL     OW 4932   7.271   6.022   5.158 -0.2386  0.4500 -0.0394
 1171SOL    HW1 4933   7.302   5.961   5.091  0.7852  0.3610  0.5023
 1171SOL    HW2 4934   7.294   6.109   5.124 -1.8248  0.5740 -0.8777
 1172SOL     OW 4935   4.826   2.206   6.418  0.0297  0.3039 -0.0397
 1172SOL    HW1 4936   4.877   2.140   6.370  0.0737  0.4651 -0.2138
 1172SOL    HW2 4937   4.738   2.170   6.422  0.2191 -0.1164  0.5205
 1173SOL     OW 4938   1.193   7.721   7.067 -0.1291  0.0245 -0.0433
 1173SOL    HW1 4939   1.231   7.673   6.994 -1.2920  0.8086 -1.2208
 1173SOL    HW2 4940   1.157   7.654   7.124  0.1419 -0.5853 -0.5812
 1174SOL     OW 4941   0.196   6.255   4.948  0.5944 -0.0017 -0.3720
 1174SOL    HW1 4942   0.278   6.271   4.901  1.0736  0.1261  0.4906
 1174SOL    HW2 4943   0.139   6.328   4.923  0.7019 -0.1512 -1.0575
 1175SOL     OW 4944   4.572   6.664   5.921 -0.9665 -0.3153 -0.6017
 1175SOL    HW1 4945   4.589   6.753   5.890 -0.8986 -0.3869 -0.7769
 1175SOL    HW2 4946   4.541   6.674   6.010 -1.9229 -0.0476 -0.9501
 1176SOL     OW 4947   4.363   2.582   4.584 -0.6434 -0.3589 -0.2250
 1176SOL    HW1 4948   4.456   2.592   4.564 -0.5345 -0.6990  0.0895
 1176SOL    HW2 4949   4.361   2.554   4.675 -1.0592 -0.3006 -0.2118
 1177SOL     OW 4950   0.315   0.303   0.295  0.6218  0.0155 -0.2195
 1177SOL    HW1 4951   0.233   0.351   0.284  0.1899 -0.9724 -1.7220
 1177SOL    HW2 4952   0.291   0.224   0.343  0.3311 -1.0452 -2.0194
 1178SOL     OW 4953   3.149   0.058   0.344  0.2535 -0.0235  0.1294
 1178SOL    HW1 4954   3.151   0.135   0.287  1.0877 -0.7363 -0.8474
 1178SOL    HW2 4955   3.220   0.002   0.311 -0.9431 -1.6383  0.1917
 1179SOL     OW 4956   6.500   4.100   5.311  0.1164 -0.3600  0.3160
 1179SOL    HW1 4957   6.475   4.173   5.254  1.2963 -0.1127  0.0884
 1179SOL    HW2 4958   6.528   4.031   5.251 -0.8263 -0.9470  0.5383
 1180SOL     OW 4959   2.945   7.981   1.840  0.1125  0.6914 -0.0076
 1180SOL    HW1 4960   2.991   7.951   1.918  0.5682  0.4703 -0.3607
 1180SOL    HW2 4961   2.936   8.076   1.853 -0.9118  0.4951  0.8876
 1181SOL     OW 4962   7.361   5.269   3.939 -0.2476  0.0966  0.0184
 1181SOL    HW1 4963   7.439   5.260   3.994 -1.3528 -1.7886  1.4068
 1181SOL    HW2 4964   7.385   5.230   3.855  0.5351  0.2230  0.1786
 1182SOL     OW 4965   1.757   4.120   5.455  0.6189 -0.4416 -0.1435
 1182SOL    HW1 4966   1.832   4.108   5.514 -0.7492 -1.4590  1.4655
 1182SOL    HW2 4967   1.729   4.210   5.469  0.0245 -0.8110  1.1523
 1183SOL     OW 4968   8.206   4.905   0.611 -0.5025  0.3540  0.2890
 1183SOL    HW1 4969   8.165   4.870   0.690  1.9952 -0.1241  1.4648
 1183SOL    HW2 4970   8.221   4.998   0.631  1.6950 -0.1402  1.1381
 1184SOL     OW 4971   4.844   3.162   7.041  0.3763 -0.2201 -0.5452
 1184SOL    HW1 4972   4.788   3.140   7.115  0.1365  1.3068 -0.2426
 1184SOL    HW2 4973   4.904   3.087   7.033 -0.2676 -0.8718  0.5155
 1185SOL     OW 4974   1.309   3.659   7.634  0.1907  0.1518  0.6273
 1185SOL    HW1 4975   1.215   3.668   7.653 -0.2500 -1.3107 -0.6082
 1185SOL    HW2 4976   1.353   3.690   7.713 -1.2932  1.8498  0.8468
 1186SOL     OW 4977   8.029   2.248   5.496 -0.1498 -0.4207 -0.4543
 1186SOL    HW1 4978   7.996   2.159   5.493 -2.6645  0.3415  1.3148
 1186SOL    HW2 4979   8.056   2.261   5.587  1.8167  0.1335 -1.0654
 1187SOL     OW 4980   2.720   4.701   0.994  0.0247 -0.3710  0.5764
 1187SOL    HW1 4981   2.639   4.747   1.017  0.3642  0.5294  0.0212
 1187SOL    HW2 4982   2.707   4.613   1.028 -1.0649 -0.1587  0.7696
 1188SOL     OW 4983   1.745   1.894   2.857  0.6431 -0.2771  0.0318
 1188SOL    HW1 4984   1.679   1.901   2.926  0.3153 -0.0977 -0.2966
 1188SOL    HW2 4985   1.825   1.870   2.903  0.3810 -0.3606  0.4511
 1189SOL     OW 4986   3.100   4.565   4.596 -0.1952 -0.5084 -0.1607
 1189SOL    HW1 4987   3.057   4.494   4.643 -1.1137 -0.9525 -1.6129
 1189SOL    HW2 4988   3.117   4.529   4.509  4.2489 -0.7889  0.6042
 1190SOL     OW 4989   4.108   7.866   1.199  0.0161 -0.6635  0.0410
 1190SOL    HW1 4990   4.133   7.800   1.264 -0.7882 -0.7665  0.2625
 1190SOL    HW2 4991   4.017   7.845   1.178 -0.5567  0.9160  0.7861
 1191SOL     OW 4992   2.706   0.627   7.255 -0.4481 -0.6264  0.1098
 1191SOL    HW1 4993   2.705   0.679   7.175  1.0689  1.4353  1.3528
 1191SOL    HW2 4994   2.770   0.557   7.237 -0.4854 -0.4710 -0.6483
 1192SOL     OW 4995   7.537   0.823   1.574  0.0382  0.8310  0.0103
 1192SOL    HW1 4996   7.509   0.849   1.662 -0.3076 -0.5886  0.3589
 1192SOL    HW2 4997   7.479   0.750   1.551  1.5168 -0.2570 -0.4788
 1193SOL     OW 4998   7.653   0.046   0.230 -0.1914 -0.1920  0.0839
 1193SOL    HW1 4999   7.616  -0.035   0.195 -0.6644 -0.0962  0.3501
 1193SOL    HW2 5000   7.623   0.114   0.171  0.0540 -0.1883 -0.0360
 1194SOL     OW 5001   5.424   7.012   5.897 -0.2901  0.5511  0.2971
 1194SOL    HW1 5002   5.340   7.006   5.852 -0.0962  1.0813 -0.1472
 1194SOL    HW2 5003   5.402   7.038   5.987 -0.6578 -0.2497  0.4487
 1195SOL     OW 5004   0.547   6.827   4.379  0.1499 -0.1879 -0.3198
 1195SOL    HW1 5005   0.528   6.915   4.347 -1.0215 -0.7645 -1.3296
 1195SOL    HW2 5006   0.584   6.782   4.303  3.0971  0.0664  0.8389
 1196SOL     OW 5007   1.021   5.514   1.080  0.2405 -0.0757  0.6121
 1196SOL    HW1 5008   1.101   5.465   1.100 -0.9452 -1.8766  1.1122
 1196SOL    HW2 5009   1.012   5.506   0.985 -0.0214 -1.0052  0.7030
 1197SOL     OW 5010   5.771   2.274   2.541  0.0284  0.4970  0.6305
 1197SOL    HW1 5011   5.769   2.294   2.635  1.4548  0.9942  0.5886
 1197SOL    HW2 5012   5.864   2.256   2.523 -0.4391 -1.0896 -0.3951
 1198SOL     OW 5013   0.484   0.964   3.568  0.0021 -0.2290  0.6295
 1198SOL    HW1 5014   0.395   0.938   3.546 -0.1965 -0.3995  1.5820
 1198SOL    HW2 5015   0.519   0.890   3.618 -0.0684  0.6807  2.1058
 1199SOL     OW 5016   3.623   3.400   4.058 -0.0708  0.0069 -0.0266
 1199SOL    HW1 5017   3.688   3.332   4.070 -0.3469  0.0518  2.0695
 1199SOL    HW2 5018   3.643   3.438   3.972  1.3632 -1.3142 -0.3129
 1200SOL     OW 5019   2.750   6.336   6.439  0.3266 -0.0636  0.5320
 1200SOL    HW1 5020   2.793   6.254   6.462  1.1711  0.2290  0.0425
 1200SOL    HW2 5021   2.816   6.385   6.389 -0.3572  0.6684  0.3179
 1201SOL     OW 5022   7.023   3.901   5.474  0.2651 -0.2183  0.0141
 1201SOL    HW1 5023   6.978   3.955   5.539 -0.7009 -0.3522 -0.5208
 1201SOL    HW2 5024   6.997   3.939   5.390  0.7810 -0.5934 -0.3222
 1202SOL     OW 5025   6.715   5.528   5.034  0.1010  0.1563 -0.7784
 1202SOL    HW1 5026   6.801   5.540   4.993  1.1195  0.1720  1.2548
 1202SOL    HW2 5027   6.679   5.617   5.037  1.3369  0.6556  1.0196
 1203SOL     OW 5028   2.301   2.104   1.950  0.7956  0.1652 -0.5178
 1203SOL    HW1 5029   2.237   2.052   1.901 -0.1432  0.7758  0.0203
 1203SOL    HW2 5030   2.349   2.153   1.884  0.8030 -0.3942 -0.9369
 1204SOL     OW 5031   5.093   6.862   6.007  0.0372  0.0356  0.1782
 1204SOL    HW1 5032   5.175   6.816   6.026 -0.9653 -0.8799  2.5941
 1204SOL    HW2 5033   5.118   6.927   5.941  2.0630 -2.1491 -1.3887
 1205SOL     OW 5034   1.905   4.576   5.630 -0.2655 -0.2126  0.3870
 1205SOL    HW1 5035   1.847   4.612   5.697 -1.1183 -1.5707  0.4251
 1205SOL    HW2 5036   1.977   4.538   5.679 -0.3074 -0.1942  0.4633
 1206SOL     OW 5037   8.037   2.781   6.748  0.2866  0.4300  0.1324
 1206SOL    HW1 5038   7.962   2.766   6.805  1.2887 -0.5747  1.2498
 1206SOL    HW2 5039   8.113   2.773   6.806  1.2430  2.7935 -0.6530
 1207SOL     OW 5040   0.103   6.770   5.419 -0.0408 -0.3647 -0.1452
 1207SOL    HW1 5041   0.037   6.802   5.358  1.3116  0.1420 -1.4156
 1207SOL    HW2 5042   0.174   6.739   5.363  0.8165 -0.8681  1.1716
 1208SOL     OW 5043   6.247   3.333   7.587 -0.0080 -0.8658  0.8134
 1208SOL    HW1 5044   6.272   3.366   7.674 -0.4299 -0.6104  0.8380
 1208SOL    HW2 5045   6.242   3.411   7.532 -1.7611 -0.7891  1.0504
 1209SOL     OW 5046   5.245   8.153   6.746 -0.0067 -0.2415 -0.0977
 1209SOL    HW1 5047   5.238   8.142   6.841 -2.5437  0.0235 -0.1742
 1209SOL    HW2 5048   5.267   8.066   6.713  0.9009 -0.3375  0.7149
 1210SOL     OW 5049   0.841   1.360   6.491  0.3984  0.3754 -0.1833
 1210SOL    HW1 5050   0.805   1.346   6.579 -0.0633  0.2744 -0.3880
 1210SOL    HW2 5051   0.935   1.341   6.501  0.3285  0.2348  0.2570
 1211SOL     OW 5052   3.163   8.204   6.273  0.8833 -0.4313 -0.1660
 1211SOL    HW1 5053   3.169   8.129   6.213  2.2607 -0.6885  0.2450
 1211SOL    HW2 5054   3.177   8.166   6.360  2.2856  0.3533 -0.0110
 1212SOL     OW 5055   0.328   2.758   2.743 -0.1543  0.1307  0.0781
 1212SOL    HW1 5056   0.243   2.801   2.750 -0.1440  0.0815  0.5404
 1212SOL    HW2 5057   0.329   2.697   2.816  0.9874  1.3676  1.1370
 1213SOL     OW 5058   0.758   4.640   7.206 -0.1046 -0.2722 -0.2712
 1213SOL    HW1 5059   0.779   4.560   7.158 -1.4112 -1.0380  0.3820
 1213SOL    HW2 5060   0.731   4.703   7.139 -0.6412 -0.9102 -0.6576
 1214SOL     OW 5061   5.760   0.136   5.027 -0.0437 -0.3820  0.0064
 1214SOL    HW1 5062   5.697   0.065   5.038 -0.7031  0.2987  0.7782
 1214SOL    HW2 5063   5.806   0.114   4.946 -0.7634 -1.2830 -0.1841
 1215SOL     OW 5064   2.402   2.108   7.295 -0.2831  0.7726 -0.4497
 1215SOL    HW1 5065   2.334   2.041   7.302  1.7977 -1.3499  0.8624
 1215SOL    HW2 5066   2.400   2.133   7.202 -1.3932 -0.8028 -0.8999
 1216SOL     OW 5067   7.243   0.717   3.304  0.3025 -0.1875  0.1738
 1216SOL    HW1 5068   7.292   0.762   3.236  1.1376 -1.1447  0.1154
 1216SOL    HW2 5069   7.298   0.723   3.382  0.5821 -1.3640  0.0820
 1217SOL     OW 5070   1.954   1.039   4.069  0.7969  0.8155 -0.0694
 1217SOL    HW1 5071   2.050   1.034   4.066  0.8350  1.3722 -2.9961
 1217SOL    HW2 5072   1.933   1.115   4.014 -1.3322  0.6583  0.4710
 1218SOL     OW 5073   6.256   5.370   5.939 -0.1037  0.2877 -0.3172
 1218SOL    HW1 5074   6.188   5.431   5.911 -0.7050  0.6096  1.6964
 1218SOL    HW2 5075   6.329   5.425   5.966 -0.2802  0.1013  0.5798
 1219SOL     OW 5076   5.684   3.296   0.752  0.4505  0.1101 -0.1878
 1219SOL    HW1 5077   5.747   3.359   0.787 -1.2343  1.4573  0.5948
 1219SOL    HW2 5078   5.632   3.347   0.689 -0.3557 -0.7322 -0.2315
 1220SOL     OW 5079   4.492   7.592   1.375  0.3853  0.0380 -0.9502
 1220SOL    HW1 5080   4.466   7.627   1.290  0.9000 -1.2431 -1.6668
 1220SOL    HW2 5081   4.564   7.532   1.356  1.2653  0.5694  0.5333
 1221SOL     OW 5082   4.441   1.104   0.569  0.6931 -0.0819 -0.5597
 1221SOL    HW1 5083   4.511   1.166   0.549 -0.3513  1.1009 -0.7618
 1221SOL    HW2 5084   4.419   1.065   0.484  0.6318  0.0982 -0.6295
 1222SOL     OW 5085   6.119   0.180   5.545 -0.0086  0.0842 -0.0165
 1222SOL    HW1 5086   6.132   0.262   5.594 -0.3135 -0.2486  0.6336
 1222SOL    HW2 5087   6.059   0.204   5.474 -1.7877  0.0113  1.3795
 1223SOL     OW 5088   1.612   5.527   1.784 -0.5916  0.4782  0.0241
 1223SOL    HW1 5089   1.524   5.564   1.793 -0.3175  0.8831  1.2352
 1223SOL    HW2 5090   1.619   5.463   1.854  0.5686  1.4776  0.8605
 1224SOL     OW 5091   0.865   1.775   3.188 -0.8289  0.2462  0.3398
 1224SOL    HW1 5092   0.951   1.737   3.169 -1.3025 -0.5129 -0.3332
 1224SOL    HW2 5093   0.823   1.783   3.103 -2.2242 -1.3531  0.8380
 1225SOL     OW 5094   3.077   2.507   3.740 -0.5497  0.1227 -0.2110
 1225SOL    HW1 5095   3.060   2.413   3.731  1.0375 -0.0491 -2.1362
 1225SOL    HW2 5096   3.161   2.520   3.696  0.1259  2.1929  1.5548
 1226SOL     OW 5097   7.360   7.839   7.006 -0.3656 -0.2116 -0.1055
 1226SOL    HW1 5098   7.361   7.933   7.021 -2.8973  0.0576 -1.1302
 1226SOL    HW2 5099   7.378   7.801   7.092  0.5206  1.1903  0.3571
 1227SOL     OW 5100   0.756   2.384   6.998 -0.3858 -0.3069  0.1667
 1227SOL    HW1 5101   0.808   2.344   7.068  0.7552  0.8402  0.0100
 1227SOL    HW2 5102   0.802   2.465   6.977 -1.8328  0.3783 -0.5243
 1228SOL     OW 5103   5.924   1.649   5.120 -0.0223  0.6008 -0.2891
 1228SOL    HW1 5104   5.905   1.562   5.086  1.4394 -0.9989  2.6262
 1228SOL    HW2 5105   5.982   1.688   5.054  2.3962 -2.1819 -0.0061
 1229SOL     OW 5106   5.165   5.275   0.347 -0.0046  0.2523 -0.1733
 1229SOL    HW1 5107   5.075   5.244   0.350 -0.2175  0.7014 -1.4153
 1229SOL    HW2 5108   5.161   5.361   0.390 -0.2376  0.4126 -0.5077
 1230SOL     OW 5109   1.963   0.990   5.517 -0.5260  0.1222 -0.3551
 1230SOL    HW1 5110   1.926   0.986   5.605 -1.6045 -0.7217 -0.8247
 1230SOL    HW2 5111   1.923   1.068   5.478  1.4578  1.6589  0.5175
 1231SOL     OW 5112   1.037   3.671   0.748  0.0641 -0.1585 -0.1074
 1231SOL    HW1 5113   0.949   3.680   0.713  0.7519 -0.4539 -2.0328
 1231SOL    HW2 5114   1.062   3.580   0.728  0.8617 -0.0306  0.2638
 1232SOL     OW 5115   3.918   1.832   4.717 -0.4673  0.3960 -0.0825
 1232SOL    HW1 5116   3.945   1.912   4.763  2.1663 -0.7494  0.5266
 1232SOL    HW2 5117   3.919   1.764   4.785  0.5301 -0.7493 -1.2108
 1233SOL     OW 5118   2.532   8.348   0.788 -0.2164  0.3885  0.2475
 1233SOL    HW1 5119   2.462   8.346   0.853 -1.2366 -1.3654 -0.8226
 1233SOL    HW2 5120   2.533   8.259   0.751  1.5521  0.8167 -0.8488
 1234SOL     OW 5121   1.906   5.929   5.062 -0.1380 -0.1435  0.3532
 1234SOL    HW1 5122   1.997   5.958   5.062  0.1113 -0.6431 -2.1096
 1234SOL    HW2 5123   1.910   5.837   5.087  0.0309 -0.1679  0.2341
 1235SOL     OW 5124   0.590   1.689   3.988  0.2547 -0.5646 -1.0749
 1235SOL    HW1 5125   0.579   1.754   3.918  1.8937  0.0984 -0.7656
 1235SOL    HW2 5126   0.629   1.613   3.945 -0.8880 -1.0542 -1.2812
 1236SOL     OW 5127   6.289   7.200   4.641 -0.1003  0.1498 -0.0351
 1236SOL    HW1 5128   6.258   7.280   4.682  1.1717  0.1617  0.9678
 1236SOL    HW2 5129   6.334   7.229   4.562  1.1302  0.5330  0.7808
 1237SOL     OW 5130   6.265   5.010   6.163 -0.1737  0.3205  0.0528
 1237SOL    HW1 5131   6.237   4.935   6.215  1.3229 -0.3272 -0.0402
 1237SOL    HW2 5132   6.227   5.086   6.209 -2.6120 -0.5164 -0.4747
 1238SOL     OW 5133   5.823   4.190   2.955  0.6867 -0.0042 -0.3960
 1238SOL    HW1 5134   5.899   4.169   2.901  0.1402 -0.8239 -0.8667
 1238SOL    HW2 5135   5.749   4.185   2.895  0.1773  0.0488  0.2219
 1239SOL     OW 5136   7.163   7.367   6.634 -0.2852 -0.8563 -0.0150
 1239SOL    HW1 5137   7.256   7.344   6.632  0.0950  0.5248  0.5315
 1239SOL    HW2 5138   7.122   7.305   6.575  1.4393  0.4170 -2.7893
 1240SOL     OW 5139   7.028   4.229   5.128 -0.0050  0.1740  0.2139
 1240SOL    HW1 5140   7.096   4.210   5.193  0.4252 -0.8431 -0.5011
 1240SOL    HW2 5141   7.051   4.173   5.053 -1.3184  0.2381 -0.2520
 1241SOL     OW 5142   1.506   5.106   6.928 -0.1206  0.5641  0.0083
 1241SOL    HW1 5143   1.466   5.085   7.013 -0.4529  1.4153  0.0682
 1241SOL    HW2 5144   1.579   5.165   6.949  0.0114  0.5036 -0.2706
 1242SOL     OW 5145   8.116   7.712   4.319  0.3943 -0.3086  0.1890
 1242SOL    HW1 5146   8.196   7.763   4.307  0.5805 -0.7436 -0.4898
 1242SOL    HW2 5147   8.120   7.644   4.252 -0.3240 -0.6205  0.4434
 1243SOL     OW 5148   3.370   0.276   0.476  0.2511  0.3625  0.1063
 1243SOL    HW1 5149   3.354   0.370   0.476  1.0032  0.5200 -1.4460
 1243SOL    HW2 5150   3.284   0.237   0.492 -0.4777  1.2880 -1.3607
 1244SOL     OW 5151   4.242   4.614   7.595 -0.2384  0.2555 -0.5337
 1244SOL    HW1 5152   4.275   4.703   7.588  1.5430 -0.1546  1.5124
 1244SOL    HW2 5153   4.302   4.562   7.542 -1.3184  0.2190 -1.7857
 1245SOL     OW 5154   6.351   0.604   1.808  0.5438  0.0459 -0.2656
 1245SOL    HW1 5155   6.372   0.663   1.735  0.9714 -0.5681 -0.6468
 1245SOL    HW2 5156   6.276   0.554   1.777 -0.0867  0.6682  0.2227
 1246SOL     OW 5157   1.092   5.017   0.572 -0.8973 -0.3382 -0.5982
 1246SOL    HW1 5158   1.035   5.094   0.576  0.4707  0.7733 -1.4950
 1246SOL    HW2 5159   1.112   4.997   0.664 -0.5661  0.9490 -0.3636
 1247SOL     OW 5160   0.417   6.500   6.690  0.0415 -0.4053  0.2138
 1247SOL    HW1 5161   0.380   6.414   6.708  0.1815 -0.4788  0.1512
 1247SOL    HW2 5162   0.438   6.499   6.597  3.5351 -1.6887  0.8519
 1248SOL     OW 5163   6.551   6.799   3.093 -0.1295  0.0029 -0.6537
 1248SOL    HW1 5164   6.541   6.706   3.110 -0.0839  0.0819 -0.1770
 1248SOL    HW2 5165   6.562   6.838   3.180  0.1090  0.4178 -0.8674
 1249SOL     OW 5166   3.056   7.852   2.091 -0.1687  0.2178 -0.2794
 1249SOL    HW1 5167   3.137   7.806   2.115 -0.0809  1.1370  1.3747
 1249SOL    HW2 5168   3.068   7.940   2.127 -1.1296  0.9538 -1.6967
 1250SOL     OW 5169   6.379   0.023   5.175  0.2203  0.2427  0.2009
 1250SOL    HW1 5170   6.325  -0.049   5.207  1.5930 -0.6777  0.5409
 1250SOL    HW2 5171   6.428  -0.013   5.102  0.7925  0.8798  0.2545
 1251SOL     OW 5172   7.296   7.825   3.814  0.2502 -0.8564 -0.1589
 1251SOL    HW1 5173   7.205   7.794   3.822  0.8043 -2.7680 -0.9480
 1251SOL    HW2 5174   7.335   7.769   3.748  2.3263 -0.7675  0.9260
 1252SOL     OW 5175   3.251   7.902   2.653 -0.0096 -0.7592 -0.2305
 1252SOL    HW1 5176   3.157   7.895   2.674 -0.1148 -0.8911 -0.7152
 1252SOL    HW2 5177   3.292   7.928   2.735 -0.2693 -2.2168  0.4032
 1253SOL     OW 5178   5.748   0.106   7.934  0.3020  0.6897 -0.3229
 1253SOL    HW1 5179   5.815   0.165   7.967 -1.3584  1.5423  1.6917
 1253SOL    HW2 5180   5.706   0.155   7.863 -0.9831  1.9679  1.2545
 1254SOL     OW 5181   7.434   6.396   4.970 -0.1590  0.0566 -0.3559
 1254SOL    HW1 5182   7.482   6.340   5.032 -0.9562 -0.6353 -0.3439
 1254SOL    HW2 5183   7.370   6.337   4.930 -0.5798  0.8225 -0.8222
 1255SOL     OW 5184   1.530   5.569   6.020 -0.3002  0.6983  0.0004
 1255SOL    HW1 5185   1.574   5.506   6.077  0.1941  0.5255 -0.5546
 1255SOL    HW2 5186   1.473   5.515   5.965  0.7521  0.6053 -1.0572
 1256SOL     OW 5187   7.750   1.825   7.030 -0.3011 -0.1765 -0.3021
 1256SOL    HW1 5188   7.703   1.908   7.036 -0.9385 -0.6466  2.1371
 1256SOL    HW2 5189   7.691   1.760   7.068  0.6685 -1.5564 -1.0570
 1257SOL     OW 5190   3.621   4.237   7.693  0.5907  0.2293  0.1132
 1257SOL    HW1 5191   3.710   4.206   7.676  1.0532  1.6962 -0.2383
 1257SOL    HW2 5192   3.617   4.324   7.654 -0.9522  0.2734  0.2838
 1258SOL     OW 5193   6.663   8.107   3.116 -0.7515  0.2423  0.2966
 1258SOL    HW1 5194   6.688   8.116   3.208 -0.0778  1.8441 -0.0023
 1258SOL    HW2 5195   6.573   8.074   3.119  0.2140 -2.5365  1.4376
 1259SOL     OW 5196   8.325   1.214   7.565 -0.6011 -0.0645  0.4459
 1259SOL    HW1 5197   8.249   1.238   7.512 -1.4569 -0.9845  1.2047
 1259SOL    HW2 5198   8.381   1.292   7.566 -1.0660  0.3031 -0.9236
 1260SOL     OW 5199   7.332   2.712   0.222 -0.3232  0.1070  0.2064
 1260SOL    HW1 5200   7.278   2.733   0.147 -0.4503  1.3091  0.6191
 1260SOL    HW2 5201   7.291   2.757   0.296  0.1978 -0.4612  0.8651
 1261SOL     OW 5202   5.269   2.512   5.133 -0.2467 -0.1003  0.6536
 1261SOL    HW1 5203   5.174   2.511   5.123 -0.2683  0.1088  0.8345
 1261SOL    HW2 5204   5.283   2.509   5.227 -0.1007  1.3040  0.7047
 1262SOL     OW 5205   4.907   4.097   4.672 -0.1285  0.0217 -0.2646
 1262SOL    HW1 5206   4.931   4.181   4.710 -1.0607  0.0100  0.3834
 1262SOL    HW2 5207   4.887   4.041   4.748  0.6943 -0.8612 -0.6713
 1263SOL     OW 5208   3.249   7.226   3.719 -0.8284  0.1184  1.0196
 1263SOL    HW1 5209   3.254   7.287   3.645  1.2875 -1.1977 -0.0180
 1263SOL    HW2 5210   3.180   7.165   3.695  0.8975 -1.2642 -0.7537
 1264SOL     OW 5211   6.630   1.571   3.415  0.1915 -0.5414  0.6021
 1264SOL    HW1 5212   6.611   1.652   3.368  1.2721 -0.4818  0.2465
 1264SOL    HW2 5213   6.622   1.595   3.507  1.0925  0.1443  0.5216
 1265SOL     OW 5214   3.526   3.271   5.084  0.3185 -0.2699 -0.2077
 1265SOL    HW1 5215   3.436   3.269   5.052 -0.1463  1.6648  0.8206
 1265SOL    HW2 5216   3.574   3.213   5.024 -1.3857 -0.5134 -1.4196
 1266SOL     OW 5217   1.548   0.791   4.468  0.3221  0.2407 -0.1590
 1266SOL    HW1 5218   1.585   0.829   4.388 -3.3989  0.5933 -1.9819
 1266SOL    HW2 5219   1.471   0.742   4.437  1.1619 -3.3868  2.8172
 1267SOL     OW 5220   1.839   4.924   6.963  0.3781  0.3185  0.0560
 1267SOL    HW1 5221   1.836   4.941   6.869  1.4995  1.2480  0.1691
 1267SOL    HW2 5222   1.761   4.872   6.980  0.5000 -0.4426 -1.4992
 1268SOL     OW 5223   3.885   7.387   0.584  0.0873  0.1435  0.3415
 1268SOL    HW1 5224   3.833   7.344   0.652 -1.7127  0.8240 -0.5155
 1268SOL    HW2 5225   3.840   7.365   0.502  0.5278  1.6282 -0.3515
 1269SOL     OW 5226   2.134   5.163   2.384  0.6306 -0.0535 -0.9406
 1269SOL    HW1 5227   2.123   5.074   2.351  0.2730 -0.8694  1.1951
 1269SOL    HW2 5228   2.211   5.158   2.441 -0.1879  0.6271  0.2920
 1270SOL     OW 5229   1.810   4.769   0.060 -0.1570 -0.2620 -0.0986
 1270SOL    HW1 5230   1.795   4.860   0.084 -0.5657 -0.7691  1.6838
 1270SOL    HW2 5231   1.844   4.728   0.139  0.5616 -1.5488 -1.0315
 1271SOL     OW 5232   1.660   2.498   0.223 -0.2234 -0.2560 -0.3868
 1271SOL    HW1 5233   1.719   2.573   0.234 -2.3429  1.2172  1.6702
 1271SOL    HW2 5234   1.682   2.464   0.136  0.4395  3.1192 -1.7010
 1272SOL     OW 5235   1.361   5.400   0.395 -0.3774  0.3888 -0.2639
 1272SOL    HW1 5236   1.350   5.341   0.470  0.8468  1.7801  1.0937
 1272SOL    HW2 5237   1.434   5.364   0.346  0.2886  0.6621  0.4952
 1273SOL     OW 5238   3.150   3.118   2.437  0.0160  0.0151 -0.1587
 1273SOL    HW1 5239   3.211   3.184   2.470  0.1346  0.2606 -0.8526
 1273SOL    HW2 5240   3.074   3.168   2.408  0.4584 -0.0474 -1.4998
 1274SOL     OW 5241   7.177   1.056   0.863 -0.3690 -0.0608 -0.2808
 1274SOL    HW1 5242   7.196   0.969   0.896 -1.1455  0.0260  0.4290
 1274SOL    HW2 5243   7.166   1.110   0.942 -1.6263  0.2876 -0.6726
 1275SOL     OW 5244   4.366   5.989   5.948  0.2650  0.5893  0.3368
 1275SOL    HW1 5245   4.330   5.912   5.904 -0.9657  1.8026 -0.8703
 1275SOL    HW2 5246   4.324   5.989   6.034  1.4961 -0.9255  1.0017
 1276SOL     OW 5247   4.733   4.030   0.218  0.2972  0.1203  0.3173
 1276SOL    HW1 5248   4.804   4.016   0.156  1.4754 -2.2354  2.0451
 1276SOL    HW2 5249   4.676   3.954   0.208 -0.7355  0.8364  0.5757
 1277SOL     OW 5250   5.800   6.126   6.711 -0.4067 -0.3757  0.0511
 1277SOL    HW1 5251   5.844   6.117   6.627  0.8547 -1.6784  0.8179
 1277SOL    HW2 5252   5.824   6.214   6.741  0.2407 -0.4212 -0.3168
 1278SOL     OW 5253   5.025   2.770   0.704  0.3216  0.3577  0.1240
 1278SOL    HW1 5254   5.004   2.788   0.612 -0.9516 -0.3158  0.2534
 1278SOL    HW2 5255   4.941   2.780   0.749  0.7300 -0.2860  1.0466
 1279SOL     OW 5256   3.565   3.645   2.198 -0.0932  0.8421  0.3970
 1279SOL    HW1 5257   3.602   3.674   2.115 -2.5222  0.8651 -0.7694
 1279SOL    HW2 5258   3.548   3.552   2.186 -2.1122  1.1973  0.1293
 1280SOL     OW 5259   2.472   0.697   1.312  0.2049 -0.0304  0.0351
 1280SOL    HW1 5260   2.503   0.685   1.222 -1.6020 -0.0876 -0.6402
 1280SOL    HW2 5261   2.550   0.718   1.362  1.5560 -1.7093 -1.2107
 1281SOL     OW 5262   2.628   2.893   4.343  0.2940 -0.0917 -0.2409
 1281SOL    HW1 5263   2.555   2.898   4.281  1.3010  1.2694 -1.3874
 1281SOL    HW2 5264   2.591   2.852   4.421 -2.0096  1.6819 -0.3073
 1282SOL     OW 5265   4.646   0.431   8.111  0.6181 -0.3758  0.1902
 1282SOL    HW1 5266   4.739   0.446   8.126  0.7432 -1.9326  1.2062
 1282SOL    HW2 5267   4.642   0.344   8.070 -0.3750 -0.4235  0.3546
 1283SOL     OW 5268   7.974   2.167   4.162  0.2460 -0.1675 -0.2297
 1283SOL    HW1 5269   7.966   2.225   4.238  0.2176  0.0677 -0.4153
 1283SOL    HW2 5270   7.952   2.221   4.087 -1.5646 -0.8584 -0.2614
 1284SOL     OW 5271   0.547   7.973   7.869  0.6499  1.0278 -0.1568
 1284SOL    HW1 5272   0.567   7.980   7.962 -0.4562  1.1870  0.0775
 1284SOL    HW2 5273   0.632   7.982   7.826  1.2336  0.5224  0.8463
 1285SOL     OW 5274   4.519   3.365   7.129 -0.3858  0.8567  0.4604
 1285SOL    HW1 5275   4.532   3.402   7.042 -1.9968  1.0122  0.2629
 1285SOL    HW2 5276   4.505   3.441   7.186 -1.0886  0.6784  0.5314
 1286SOL     OW 5277   3.158   0.793   3.949 -0.1898 -0.1080  0.1960
 1286SOL    HW1 5278   3.072   0.763   3.919 -0.2029 -0.2379  0.3574
 1286SOL    HW2 5279   3.187   0.856   3.883 -0.6811  0.3992  0.4501
 1287SOL     OW 5280   8.014   4.988   0.983  0.3288 -0.1400 -0.0642
 1287SOL    HW1 5281   8.105   5.002   1.011  0.5196 -1.1532 -0.1350
 1287SOL    HW2 5282   7.980   5.076   0.969  0.9351  0.3153  1.1079
 1288SOL     OW 5283   0.918   4.747   4.164  0.2293 -0.1786  0.0169
 1288SOL    HW1 5284   0.985   4.792   4.217  0.2225  0.9193 -0.8562
 1288SOL    HW2 5285   0.947   4.656   4.161 -0.0315 -0.3995  2.2989
 1289SOL     OW 5286   6.540   1.950   4.645  0.2985 -0.0994 -0.3000
 1289SOL    HW1 5287   6.452   1.985   4.629 -0.9979 -2.6443  0.6298
 1289SOL    HW2 5288   6.591   1.977   4.569 -1.4348  1.0143 -1.1282
 1290SOL     OW 5289   7.038   4.446   0.201  0.0367  0.2764  0.1457
 1290SOL    HW1 5290   7.126   4.484   0.200  0.1280  0.4474  3.2419
 1290SOL    HW2 5291   7.047   4.366   0.252 -1.2824 -0.7821 -1.1952
 1291SOL     OW 5292   4.975   5.665   0.121 -0.2887 -0.5176  0.4749
 1291SOL    HW1 5293   5.059   5.619   0.117 -0.1994 -0.2670 -1.0886
 1291SOL    HW2 5294   4.910   5.595   0.121 -0.1380 -0.7014 -1.3904
 1292SOL     OW 5295   6.044   2.045   4.980  0.2863 -0.1471 -0.4981
 1292SOL    HW1 5296   5.971   2.020   4.923  0.9399 -1.7885 -0.6499
 1292SOL    HW2 5297   6.085   2.119   4.935 -1.4261  1.0204 -0.2605
 1293SOL     OW 5298   3.817   3.623   0.316  0.0331 -0.7139 -1.1837
 1293SOL    HW1 5299   3.850   3.608   0.404  1.9097 -1.2006 -1.9206
 1293SOL    HW2 5300   3.896   3.629   0.261 -1.0877 -2.0924 -3.0827
 1294SOL     OW 5301   3.651   4.009   3.520  0.0982 -0.1353 -0.4455
 1294SOL    HW1 5302   3.740   4.014   3.555  0.1614 -0.1554 -0.6009
 1294SOL    HW2 5303   3.663   3.982   3.429 -0.1697 -2.0384  0.0503
 1295SOL     OW 5304   2.211   2.691   7.064 -0.1013 -0.0804 -0.5981
 1295SOL    HW1 5305   2.270   2.645   7.124 -0.3724 -0.2642 -0.4696
 1295SOL    HW2 5306   2.246   2.779   7.058  1.3459 -0.6990 -2.0488
 1296SOL     OW 5307   1.245   3.564   3.922 -0.1313 -0.0785 -0.2898
 1296SOL    HW1 5308   1.213   3.641   3.968 -0.3659 -0.6784  0.5804
 1296SOL    HW2 5309   1.254   3.497   3.990  1.7320 -0.3234 -0.7289
 1297SOL     OW 5310   8.230   2.982   6.144  0.4333  0.2187 -0.2750
 1297SOL    HW1 5311   8.232   2.918   6.215  0.2018  0.6607  0.1319
 1297SOL    HW2 5312   8.286   3.053   6.174 -0.5339  0.9055 -0.0550
 1298SOL     OW 5313   1.557   6.558   1.184 -0.1929 -0.2445 -0.1677
 1298SOL    HW1 5314   1.633   6.616   1.191 -2.1089  2.2839  1.1800
 1298SOL    HW2 5315   1.581   6.496   1.115  2.2511  1.7515 -1.2699
 1299SOL     OW 5316   1.529   0.437   7.024  0.1068 -0.0615 -0.4832
 1299SOL    HW1 5317   1.513   0.352   7.066 -2.7824  0.3758 -0.5071
 1299SOL    HW2 5318   1.455   0.491   7.049  2.1537  2.7406  0.0047
 1300SOL     OW 5319   1.577   5.424   7.785 -0.9741 -0.0518 -0.0738
 1300SOL    HW1 5320   1.541   5.344   7.747 -0.0469 -0.4565 -0.1315
 1300SOL    HW2 5321   1.556   5.418   7.879  1.1383 -1.5661  0.3810
 1301SOL     OW 5322   1.150   2.151   6.809  0.5775  0.3724 -0.7552
 1301SOL    HW1 5323   1.198   2.221   6.765  1.2561  1.7146  1.9038
 1301SOL    HW2 5324   1.216   2.084   6.827  1.4268  1.7645  1.9667
 1302SOL     OW 5325   3.623   1.500   4.744  0.2487  0.2496  0.1683
 1302SOL    HW1 5326   3.596   1.511   4.653 -3.9405  0.4113  1.2235
 1302SOL    HW2 5327   3.587   1.415   4.769  1.2659  0.2452  1.7144
 1303SOL     OW 5328   0.638   7.070   5.652  0.2437 -0.0610 -0.2744
 1303SOL    HW1 5329   0.611   7.141   5.593  0.0278 -0.3264 -0.5007
 1303SOL    HW2 5330   0.694   7.014   5.598 -0.7483 -0.8435 -0.5347
 1304SOL     OW 5331   1.071   7.689   3.371  0.2121  0.0160  0.0404
 1304SOL    HW1 5332   0.983   7.710   3.400  0.2490 -0.1499  0.2754
 1304SOL    HW2 5333   1.070   7.708   3.277  0.2986  1.2045  0.2742
 1305SOL     OW 5334   3.412   1.771   7.025 -0.4480  0.1520  0.6389
 1305SOL    HW1 5335   3.393   1.864   7.013  0.8549  0.7138  2.4537
 1305SOL    HW2 5336   3.484   1.753   6.964 -0.8782  0.2452  0.0947
 1306SOL     OW 5337   2.067   1.929   1.898 -0.3527  0.0047 -0.2308
 1306SOL    HW1 5338   1.996   1.868   1.879 -0.2238  0.1585 -1.2532
 1306SOL    HW2 5339   2.125   1.881   1.957 -1.3619 -0.0727  0.7067
 1307SOL     OW 5340   8.006   4.209   6.484  0.5281 -0.5642  0.0691
 1307SOL    HW1 5341   7.942   4.146   6.453  0.1078 -0.5691  0.9127
 1307SOL    HW2 5342   8.067   4.157   6.538  0.6352 -0.3871  0.1214
 1308SOL     OW 5343   4.113   5.204   5.028 -0.2971 -0.4718 -0.3239
 1308SOL    HW1 5344   4.024   5.215   5.061  0.1718  2.4310  0.2063
 1308SOL    HW2 5345   4.166   5.187   5.106 -0.1610 -0.7360 -0.4712
 1309SOL     OW 5346   3.272   0.877   4.191 -0.1059  0.5592 -0.3045
 1309SOL    HW1 5347   3.239   0.847   4.105 -1.5859 -0.5750  0.6028
 1309SOL    HW2 5348   3.232   0.817   4.254  1.9281  0.6055  1.1182
 1310SOL     OW 5349   7.410   2.493   6.179 -0.0575  0.3705 -0.8533
 1310SOL    HW1 5350   7.491   2.501   6.128  0.3465 -1.6336 -0.6122
 1310SOL    HW2 5351   7.429   2.425   6.243 -1.3555  1.1697  0.4219
 1311SOL     OW 5352   3.850   5.757   4.082 -0.7619 -0.0521 -0.1384
 1311SOL    HW1 5353   3.814   5.742   4.170  0.6691 -0.4034  0.4336
 1311SOL    HW2 5354   3.923   5.817   4.097  0.1410 -0.9161 -0.9170
 1312SOL     OW 5355   6.352   7.000   2.270 -0.1309 -0.3655 -0.2771
 1312SOL    HW1 5356   6.348   7.083   2.222  1.1065 -0.8224 -1.2370
 1312SOL    HW2 5357   6.405   6.943   2.214  0.5471 -1.2423  1.2051
 1313SOL     OW 5358   0.252   0.015   5.696 -0.0107 -0.2015  0.0966
 1313SOL    HW1 5359   0.332   0.018   5.643  0.0157 -0.9256  0.0945
 1313SOL    HW2 5360   0.191   0.073   5.650  0.1276 -0.5532 -0.5385
 1314SOL     OW 5361   1.788   5.204   4.134 -0.5955  0.4422 -0.1592
 1314SOL    HW1 5362   1.708   5.202   4.188 -0.9703 -0.2662 -0.7218
 1314SOL    HW2 5363   1.757   5.230   4.047 -0.3992 -0.8980 -0.6543
 1315SOL     OW 5364   0.313   3.629   6.167  0.1205 -0.0368 -0.2113
 1315SOL    HW1 5365   0.379   3.615   6.235 -0.9314 -0.0067  0.8406
 1315SOL    HW2 5366   0.298   3.723   6.167 -1.1797 -0.2277  0.7818
 1316SOL     OW 5367   2.929   7.724   1.148  0.2499 -1.1683  0.0689
 1316SOL    HW1 5368   2.874   7.782   1.096  1.8809  1.8135  1.4527
 1316SOL    HW2 5369   2.884   7.715   1.232  1.7336  1.3505  1.2368
 1317SOL     OW 5370   1.441   2.975   2.076 -0.3137 -0.2377 -0.1168
 1317SOL    HW1 5371   1.448   3.060   2.033  0.5523 -0.9654 -1.4678
 1317SOL    HW2 5372   1.526   2.962   2.118 -0.1082 -0.8474 -0.7123
 1318SOL     OW 5373   7.038   5.662   7.314  0.4764 -0.1344 -0.6762
 1318SOL    HW1 5374   7.003   5.748   7.337  1.3183  0.0922 -0.2260
 1318SOL    HW2 5375   6.988   5.601   7.369  2.7898  0.4238  2.3089
 1319SOL     OW 5376   4.782   3.308   0.663 -0.4137  0.0799 -0.3135
 1319SOL    HW1 5377   4.794   3.251   0.587 -1.8663 -0.6371 -0.0363
 1319SOL    HW2 5378   4.736   3.384   0.628 -1.0300 -0.2236 -0.1733
 1320SOL     OW 5379   8.191   7.687   8.214  0.4295  0.0401 -0.0198
 1320SOL    HW1 5380   8.189   7.621   8.145 -0.7426 -0.0328  0.0612
 1320SOL    HW2 5381   8.177   7.637   8.295 -2.0482  0.5054 -0.0925
 1321SOL     OW 5382   4.897   2.803   1.140 -0.1998 -0.0277 -0.2530
 1321SOL    HW1 5383   4.991   2.785   1.144 -0.2254 -0.0402  2.4617
 1321SOL    HW2 5384   4.864   2.777   1.227 -2.6518  0.3448 -0.9828
 1322SOL     OW 5385   1.030   4.794   2.937  0.5569  0.1899  0.7394
 1322SOL    HW1 5386   1.062   4.732   3.003  1.7043  1.1285  1.1010
 1322SOL    HW2 5387   1.075   4.770   2.857  0.0826 -0.1905  0.5832
 1323SOL     OW 5388   6.967   4.414   0.918  0.4572 -0.1061  0.6419
 1323SOL    HW1 5389   6.907   4.386   0.848 -1.0387 -1.7244  2.4386
 1323SOL    HW2 5390   6.923   4.386   0.999  2.3428  1.2392  2.2177
 1324SOL     OW 5391   2.005   4.550   7.628  0.3550 -0.4542  0.1693
 1324SOL    HW1 5392   2.031   4.634   7.590 -0.7027  0.0913  0.6001
 1324SOL    HW2 5393   1.911   4.560   7.646  0.4023 -1.4126  1.0504
 1325SOL     OW 5394   7.144   3.141   3.762  0.3034  0.0080  0.6327
 1325SOL    HW1 5395   7.221   3.104   3.804 -0.5956  0.8538  3.2454
 1325SOL    HW2 5396   7.164   3.234   3.751  0.1623 -0.0251  0.0005
 1326SOL     OW 5397   1.275   2.136   7.703  0.2085 -0.3505  0.1368
 1326SOL    HW1 5398   1.282   2.137   7.799  1.2343  0.8202  0.0792
 1326SOL    HW2 5399   1.181   2.146   7.686 -0.1023 -1.5076  1.0029
 1327SOL     OW 5400   4.878   4.078   3.759 -0.3407 -0.1247  0.0173
 1327SOL    HW1 5401   4.909   4.169   3.762 -1.3286  0.2078  0.7447
 1327SOL    HW2 5402   4.954   4.028   3.730  0.8741  0.6589  1.6563
 1328SOL     OW 5403   4.524   3.826   8.296 -0.1950 -0.3622 -0.0745
 1328SOL    HW1 5404   4.543   3.770   8.221 -0.0502  0.0943 -0.3810
 1328SOL    HW2 5405   4.511   3.913   8.259 -3.2843 -0.6641  0.0468
 1329SOL     OW 5406   7.122   0.858   2.211 -0.6100  0.0423  0.2180
 1329SOL    HW1 5407   7.149   0.949   2.218  1.6208 -0.6587  2.2620
 1329SOL    HW2 5408   7.178   0.822   2.142 -1.9742  0.2926 -1.0871
 1330SOL     OW 5409   6.591   6.818   2.596 -0.3553  1.1080  0.5666
 1330SOL    HW1 5410   6.592   6.912   2.613  2.3544  1.2686 -0.0204
 1330SOL    HW2 5411   6.595   6.811   2.500  1.4037  0.4965  0.6397
 1331SOL     OW 5412   7.980   7.091   7.636  0.5839  0.3525  0.2489
 1331SOL    HW1 5413   7.977   7.057   7.546 -1.3261  1.1501 -0.0292
 1331SOL    HW2 5414   8.063   7.058   7.671  1.8483  0.7853 -2.1110
 1332SOL     OW 5415   0.129   6.141   7.536  0.5329 -0.6685  0.0191
 1332SOL    HW1 5416   0.061   6.166   7.599 -1.0668 -0.2381 -1.7776
 1332SOL    HW2 5417   0.146   6.221   7.486  2.1245 -0.8770  0.1717
 1333SOL     OW 5418   6.636   7.033   0.703  0.5571 -0.6395  0.0539
 1333SOL    HW1 5419   6.627   7.022   0.798 -1.3497  1.3292  0.1671
 1333SOL    HW2 5420   6.670   7.122   0.692 -2.4382  0.4875 -1.1001
 1334SOL     OW 5421   2.107   6.918   3.869  0.1055 -0.0114  0.8328
 1334SOL    HW1 5422   2.190   6.921   3.823 -0.6057 -1.2297 -0.6628
 1334SOL    HW2 5423   2.042   6.940   3.802 -0.8109  0.5052  1.8626
 1335SOL     OW 5424   0.852   4.754   0.608 -0.1361  0.1793 -0.0257
 1335SOL    HW1 5425   0.788   4.814   0.570  0.6416  1.3629  0.4376
 1335SOL    HW2 5426   0.800   4.690   0.656 -0.9971  0.7616 -0.1596
 1336SOL     OW 5427   2.660   3.832   5.633 -0.0616 -0.0968  0.6264
 1336SOL    HW1 5428   2.622   3.824   5.545  1.9361 -0.4275 -0.2528
 1336SOL    HW2 5429   2.600   3.890   5.679 -1.4169 -0.2887 -0.7953
 1337SOL     OW 5430   6.118   0.255   4.482  0.0967 -0.4797  0.4840
 1337SOL    HW1 5431   6.123   0.187   4.415 -1.1079 -2.4305  2.2430
 1337SOL    HW2 5432   6.196   0.241   4.536  0.0153 -0.2632  0.6604
 1338SOL     OW 5433   4.986   1.230   5.780 -0.1398 -0.1437 -0.2945
 1338SOL    HW1 5434   4.923   1.208   5.712 -0.5245  0.5464 -0.1737
 1338SOL    HW2 5435   4.933   1.253   5.857  0.2877 -0.9254  0.2481
 1339SOL     OW 5436   5.044   4.909   5.234  0.0070  0.1280 -0.0878
 1339SOL    HW1 5437   5.099   4.903   5.155  1.4399 -1.6042  0.9591
 1339SOL    HW2 5438   4.988   4.985   5.218  0.6484  0.1928 -2.5146
 1340SOL     OW 5439   2.237   0.764   4.928  0.2073  0.0304 -0.3765
 1340SOL    HW1 5440   2.168   0.748   4.863  0.5489 -0.6505 -0.5791
 1340SOL    HW2 5441   2.226   0.856   4.952 -1.2173 -0.2301  0.1025
 1341SOL     OW 5442   0.226   4.917   6.007 -0.1611  0.2541 -0.1952
 1341SOL    HW1 5443   0.192   4.893   5.921 -2.2267  0.9551  0.3651
 1341SOL    HW2 5444   0.151   4.906   6.066  1.5202 -1.5211  1.7910
 1342SOL     OW 5445   7.667   8.328   0.740  0.3849  0.2612 -0.5154
 1342SOL    HW1 5446   7.647   8.396   0.804  0.7152  0.7891 -0.9624
 1342SOL    HW2 5447   7.644   8.366   0.655  0.6802 -0.1352 -0.7825
 1343SOL     OW 5448   4.100   2.523   4.481  0.0691 -0.4216 -0.2661
 1343SOL    HW1 5449   4.019   2.573   4.489  0.1744 -0.4623  1.3734
 1343SOL    HW2 5450   4.164   2.573   4.532  0.3881 -1.7779  0.7088
 1344SOL     OW 5451   2.116   3.375   7.868 -0.7766  0.4592 -0.1058
 1344SOL    HW1 5452   2.031   3.340   7.894 -0.4865 -0.5243 -0.4650
 1344SOL    HW2 5453   2.139   3.327   7.789  0.3168  0.4174  0.2262
 1345SOL     OW 5454   1.882   4.956   3.686 -0.4466 -0.0493  0.4030
 1345SOL    HW1 5455   1.968   4.997   3.677 -0.5308  0.1735  0.5961
 1345SOL    HW2 5456   1.831   4.992   3.613 -0.8243  0.9788  1.1465
 1346SOL     OW 5457   2.652   1.719   0.811 -0.3196 -0.4019  0.5985
 1346SOL    HW1 5458   2.590   1.717   0.739  0.0387  0.3459  0.2524
 1346SOL    HW2 5459   2.684   1.809   0.813  0.8350 -0.7885  0.6890
 1347SOL     OW 5460   3.734   0.162   0.186  0.0952  0.0410  0.0620
 1347SOL    HW1 5461   3.749   0.215   0.108  0.2833 -0.1582 -0.0381
 1347SOL    HW2 5462   3.723   0.226   0.256 -0.8154  0.2434 -0.2501
 1348SOL     OW 5463   0.004   6.519   7.902  0.4222  0.4440 -0.1571
 1348SOL    HW1 5464  -0.037   6.537   7.987 -0.5509 -1.3893 -0.1945
 1348SOL    HW2 5465   0.064   6.446   7.919  1.7000  1.3491 -0.6624
 1349SOL     OW 5466   1.323   5.616   2.943  0.0055 -0.4767  0.2788
 1349SOL    HW1 5467   1.387   5.611   2.872  0.2129 -1.5809  0.5289
 1349SOL    HW2 5468   1.239   5.622   2.898  0.2643  1.1721 -0.0549
 1350SOL     OW 5469   7.877   3.756   8.006 -0.0252  0.1259  0.3784
 1350SOL    HW1 5470   7.814   3.695   8.045 -0.0075 -0.6545 -0.7494
 1350SOL    HW2 5471   7.835   3.842   8.015 -0.6991 -0.2255  0.7314
 1351SOL     OW 5472   3.001   6.865   7.464 -0.2283  0.1760 -0.1926
 1351SOL    HW1 5473   3.086   6.825   7.444  0.2593  1.0186  0.1277
 1351SOL    HW2 5474   2.980   6.915   7.385 -0.5604 -0.2384 -0.3712
 1352SOL     OW 5475   4.509   6.544   3.597 -0.2849  0.0734 -0.1989
 1352SOL    HW1 5476   4.586   6.487   3.605 -1.3982 -1.3520  1.0568
 1352SOL    HW2 5477   4.520   6.587   3.513  2.2441  0.5033  0.2458
 1353SOL     OW 5478   2.283   7.208   0.567  0.2092  0.2993 -0.5651
 1353SOL    HW1 5479   2.198   7.215   0.524 -1.4493 -0.9649  2.2472
 1353SOL    HW2 5480   2.306   7.115   0.558 -1.1523 -0.4941  2.6991
 1354SOL     OW 5481   2.489   1.550   1.653 -0.1993  0.2614  0.0318
 1354SOL    HW1 5482   2.528   1.511   1.575 -0.6259 -0.5819  0.2296
 1354SOL    HW2 5483   2.445   1.629   1.621  0.1909  0.2816 -0.4689
 1355SOL     OW 5484   5.399   5.396   7.139 -0.1373 -0.4878  0.0995
 1355SOL    HW1 5485   5.347   5.466   7.180 -0.7026 -1.3315  0.8900
 1355SOL    HW2 5486   5.411   5.332   7.210  0.8957 -0.9012 -0.4385
 1356SOL     OW 5487   6.214   4.271   5.737  0.1023 -0.6177  0.4913
 1356SOL    HW1 5488   6.240   4.258   5.646  0.3225  0.5744  0.3716
 1356SOL    HW2 5489   6.144   4.207   5.751 -1.6106  0.7311 -1.2472
 1357SOL     OW 5490   4.269   2.503   4.870 -0.1563  0.1247  0.0190
 1357SOL    HW1 5491   4.184   2.546   4.864 -0.8588 -1.1847  0.1821
 1357SOL    HW2 5492   4.293   2.507   4.963 -0.3937 -0.1610  0.0919
 1358SOL     OW 5493   3.291   2.481   7.676 -0.2062 -0.3669 -0.6886
 1358SOL    HW1 5494   3.335   2.552   7.725  2.3114 -2.1901 -0.1082
 1358SOL    HW2 5495   3.274   2.414   7.742 -0.3146 -1.3073 -1.6538
 1359SOL     OW 5496   0.596   7.978   7.342  0.0590  0.7695 -0.5540
 1359SOL    HW1 5497   0.576   8.063   7.382 -1.6600 -0.0399  0.4529
 1359SOL    HW2 5498   0.513   7.950   7.302  0.0280 -1.2464  0.7533
 1360SOL     OW 5499   0.134   4.988   0.870  0.2357  0.3198  0.0531
 1360SOL    HW1 5500   0.227   5.005   0.886  0.1942  2.3076 -1.4750
 1360SOL    HW2 5501   0.096   4.984   0.958  1.7768 -1.0267  0.7396
 1361SOL     OW 5502   6.099   5.572   8.231 -0.0021 -0.2599 -0.1515
 1361SOL    HW1 5503   6.087   5.653   8.182  1.7498  0.9451  1.2498
 1361SOL    HW2 5504   6.075   5.502   8.170  0.5156  1.2264 -2.1391
 1362SOL     OW 5505   7.790   7.713   4.443 -0.1962  0.3438 -0.0100
 1362SOL    HW1 5506   7.725   7.771   4.482  0.1883  0.2901  0.7177
 1362SOL    HW2 5507   7.869   7.767   4.434 -0.2742  0.3568 -0.7227
 1363SOL     OW 5508   3.937   1.278   5.270  0.1386  0.2290 -0.5518
 1363SOL    HW1 5509   3.844   1.260   5.254  0.1849 -1.1903  0.5683
 1363SOL    HW2 5510   3.964   1.210   5.332  1.1877  2.3617  1.4860
 1364SOL     OW 5511   2.195   4.886   6.800 -0.9132 -0.2152 -0.4321
 1364SOL    HW1 5512   2.203   4.811   6.860  1.4955  0.9293  0.8070
 1364SOL    HW2 5513   2.166   4.847   6.717 -0.8467 -2.3561  0.4815
 1365SOL     OW 5514   1.661   2.462   4.685 -0.3661 -0.5622  0.5360
 1365SOL    HW1 5515   1.731   2.403   4.713 -1.2063 -1.1857  1.4569
 1365SOL    HW2 5516   1.685   2.547   4.720 -0.6437 -1.0261  1.9567
 1366SOL     OW 5517   0.486   7.275   1.826  0.1438  0.2626 -0.0069
 1366SOL    HW1 5518   0.549   7.274   1.754  0.4706  0.4097  0.2773
 1366SOL    HW2 5519   0.449   7.187   1.826  1.9012 -0.5341  1.1810
 1367SOL     OW 5520   3.431   0.769   6.953  0.2668  0.0949  0.2483
 1367SOL    HW1 5521   3.476   0.846   6.988 -0.9259  0.8696  0.1496
 1367SOL    HW2 5522   3.341   0.776   6.987 -0.7999  0.5748 -2.3930
 1368SOL     OW 5523   4.973   7.370   1.259  0.2983  0.2355  0.1304
 1368SOL    HW1 5524   5.048   7.416   1.295  0.1769  0.3218  0.2734
 1368SOL    HW2 5525   5.009   7.318   1.187  0.8697 -1.3811  1.5237
 1369SOL     OW 5526   3.976   2.010   0.680 -0.1012  0.0383 -0.2040
 1369SOL    HW1 5527   4.062   1.999   0.721  0.3566 -1.4975 -1.4696
 1369SOL    HW2 5528   3.915   1.971   0.743  0.2453  0.2875  0.2886
 1370SOL     OW 5529   7.205   6.800   4.700  0.1721  0.1913 -0.1820
 1370SOL    HW1 5530   7.188   6.894   4.693  2.6917  0.7010 -0.4906
 1370SOL    HW2 5531   7.185   6.779   4.791 -0.1754  1.0766 -0.0465
 1371SOL     OW 5532   3.561   3.532   1.306 -0.3917 -0.3929 -0.3236
 1371SOL    HW1 5533   3.576   3.503   1.397 -1.4895 -0.7533 -0.2475
 1371SOL    HW2 5534   3.607   3.616   1.300  0.8093 -0.9755  0.1705
 1372SOL     OW 5535   1.697   1.687   4.813  0.0338  0.6279 -0.6725
 1372SOL    HW1 5536   1.653   1.661   4.732  1.3765 -0.5672 -1.0546
 1372SOL    HW2 5537   1.741   1.768   4.791  2.4291 -0.9102 -1.9659
 1373SOL     OW 5538   1.474   1.444   6.602  0.4283 -0.2280  0.2462
 1373SOL    HW1 5539   1.535   1.418   6.533  1.7657 -0.4441  1.4847
 1373SOL    HW2 5540   1.441   1.529   6.573  2.5470  0.6698  0.2923
 1374SOL     OW 5541   5.878   1.807   8.125 -0.0303 -0.3342 -0.6042
 1374SOL    HW1 5542   5.818   1.815   8.199 -1.1417 -0.9367 -1.4123
 1374SOL    HW2 5543   5.950   1.754   8.158 -0.2681 -0.1775  0.1902
 1375SOL     OW 5544   3.905   2.069   4.874 -0.1455 -0.0361 -0.1195
 1375SOL    HW1 5545   3.890   2.155   4.834 -0.7457 -0.2262 -0.3049
 1375SOL    HW2 5546   3.949   2.088   4.957 -0.2292  0.4463 -0.1851
 1376SOL     OW 5547   5.929   3.699   3.656  0.1539  0.4720  0.0669
 1376SOL    HW1 5548   5.987   3.701   3.732  0.8937  1.3421 -0.4991
 1376SOL    HW2 5549   5.907   3.790   3.640 -0.6295  0.2298 -0.2998
 1377SOL     OW 5550   6.751   7.742   4.993 -0.2149  0.1996 -0.2772
 1377SOL    HW1 5551   6.675   7.728   4.936  0.0031  0.9790 -0.7732
 1377SOL    HW2 5552   6.769   7.836   4.986  1.9692 -0.2516 -1.6851
 1378SOL     OW 5553   1.707   3.637   1.291 -0.0269  0.7922  0.2360
 1378SOL    HW1 5554   1.667   3.632   1.377  0.1234 -1.4860  0.2458
 1378SOL    HW2 5555   1.654   3.700   1.243 -0.9200  1.0908  1.5727
 1379SOL     OW 5556   0.368   4.571   6.012  0.1090 -0.0311  0.5908
 1379SOL    HW1 5557   0.341   4.626   5.938  2.7109  1.8172  0.8812
 1379SOL    HW2 5558   0.454   4.605   6.037  0.5319 -2.3959  2.7285
 1380SOL     OW 5559   0.789   6.497   7.164 -0.1910 -0.3200 -1.0363
 1380SOL    HW1 5560   0.723   6.539   7.109 -0.6400  0.6626  0.2056
 1380SOL    HW2 5561   0.849   6.568   7.187 -1.1174 -0.2280  1.3284
 1381SOL     OW 5562   3.677   6.079   2.175 -0.1554  0.4494 -0.0922
 1381SOL    HW1 5563   3.723   6.061   2.093 -2.0999  0.6192 -1.2946
 1381SOL    HW2 5564   3.639   6.166   2.162  1.0041  1.2828  1.7475
 1382SOL     OW 5565   0.476   0.479   6.440  0.0922 -0.0212 -0.1515
 1382SOL    HW1 5566   0.519   0.402   6.477 -3.3159 -2.6138 -1.0656
 1382SOL    HW2 5567   0.455   0.534   6.516 -0.5206 -1.7692  1.0127
 1383SOL     OW 5568   3.332   8.196   4.339  0.4599 -0.0837  0.4036
 1383SOL    HW1 5569   3.329   8.177   4.245 -1.6962  1.6010  0.0398
 1383SOL    HW2 5570   3.377   8.121   4.377 -0.1565 -1.6686 -1.7739
 1384SOL     OW 5571   4.822   3.827   5.924 -0.5393 -0.0054  0.0495
 1384SOL    HW1 5572   4.745   3.850   5.872 -0.2631  1.0811  0.1134
 1384SOL    HW2 5573   4.809   3.871   6.007 -0.1084 -0.2766  0.2641
 1385SOL     OW 5574   2.845   1.366   1.372  0.6151  0.3856  0.1658
 1385SOL    HW1 5575   2.848   1.425   1.297 -1.0026 -0.7547 -0.8608
 1385SOL    HW2 5576   2.822   1.422   1.446  0.6363  1.2632 -0.4746
 1386SOL     OW 5577   6.360   0.954   2.280  0.1340  0.0703 -0.3611
 1386SOL    HW1 5578   6.380   1.023   2.216  0.4461 -0.9979 -1.4583
 1386SOL    HW2 5579   6.424   0.885   2.261  0.1061 -0.3552  0.9998
 1387SOL     OW 5580   1.571   5.288   5.367  0.5623 -0.0666  0.5851
 1387SOL    HW1 5581   1.650   5.304   5.419  1.5156  0.6633 -0.9915
 1387SOL    HW2 5582   1.566   5.193   5.360  0.9788 -0.1347  1.1809
 1388SOL     OW 5583   0.930   7.089   0.247 -0.0424  0.0026  0.5642
 1388SOL    HW1 5584   0.893   7.052   0.167  1.0979 -0.5299  0.2570
 1388SOL    HW2 5585   1.000   7.028   0.271  1.2200  1.4211  0.6173
 1389SOL     OW 5586   4.240   6.432   7.477 -0.2661 -0.3786 -0.0628
 1389SOL    HW1 5587   4.315   6.396   7.523 -1.0652 -0.7338  0.9969
 1389SOL    HW2 5588   4.198   6.357   7.436 -0.0387 -0.1791 -0.6647
 1390SOL     OW 5589   2.389   0.567   2.290  0.2174 -0.6151  0.6831
 1390SOL    HW1 5590   2.435   0.589   2.209  0.5668 -0.5342  0.9057
 1390SOL    HW2 5591   2.310   0.622   2.289 -0.8911 -2.1100 -0.6433
 1391SOL     OW 5592   2.176   5.660   2.775 -0.4392  0.5082 -0.0009
 1391SOL    HW1 5593   2.224   5.740   2.800 -0.8223  0.3460  1.3631
 1391SOL    HW2 5594   2.222   5.590   2.821 -0.7903  0.0897 -0.2907
 1392SOL     OW 5595   0.081   1.280   2.270  0.1638  0.5006  0.2005
 1392SOL    HW1 5596   0.040   1.366   2.263  1.7473  1.2453 -0.5640
 1392SOL    HW2 5597   0.032   1.224   2.210 -1.5899  0.5304  1.5290
 1393SOL     OW 5598   0.766   6.964   0.044  0.2605  0.2201 -0.0446
 1393SOL    HW1 5599   0.734   6.929   0.127  1.3748 -2.3738 -0.6042
 1393SOL    HW2 5600   0.688   6.995  -0.001 -0.5809  0.0524  1.2534
 1394SOL     OW 5601   1.070   5.668   2.860 -0.2368  0.3001  0.1754
 1394SOL    HW1 5602   1.032   5.719   2.932 -1.0696  0.6142 -0.4725
 1394SOL    HW2 5603   1.005   5.673   2.790  0.1990 -0.6804 -0.3162
 1395SOL     OW 5604   5.232   4.109   3.194 -0.2007 -0.2627 -0.1619
 1395SOL    HW1 5605   5.155   4.143   3.149 -1.7141 -3.1787 -0.0150
 1395SOL    HW2 5606   5.285   4.069   3.125 -0.3976 -0.9890  0.0973
 1396SOL     OW 5607   6.926   7.159   7.599  0.1833 -0.2647  0.0239
 1396SOL    HW1 5608   6.862   7.212   7.550  0.6279  1.1614  0.9206
 1396SOL    HW2 5609   6.984   7.224   7.639  1.1165 -1.4815  0.6845
 1397SOL     OW 5610   4.358   2.691   7.486 -0.5912 -0.5210  0.2971
 1397SOL    HW1 5611   4.420   2.663   7.418 -1.0533  0.2467 -0.4645
 1397SOL    HW2 5612   4.301   2.754   7.442 -1.5824 -0.8012  1.1244
 1398SOL     OW 5613   7.434   6.982   6.760  0.2899  0.1903 -0.4791
 1398SOL    HW1 5614   7.357   6.987   6.817 -0.9388 -2.5117 -1.7041
 1398SOL    HW2 5615   7.487   7.057   6.785 -0.8878  0.0285  3.0998
 1399SOL     OW 5616   6.379   1.423   1.786 -0.4917  0.3154  0.3569
 1399SOL    HW1 5617   6.383   1.333   1.819  0.2339  0.1964 -0.0206
 1399SOL    HW2 5618   6.309   1.420   1.720  0.7239 -0.4420 -0.9520
 1400SOL     OW 5619   5.076   5.370   8.299  0.1847  0.3002  0.2779
 1400SOL    HW1 5620   5.120   5.454   8.293 -0.1933  0.5961  1.4372
 1400SOL    HW2 5621   5.006   5.375   8.233  1.3758  0.0998 -1.0596
 1401SOL     OW 5622   0.980   0.757   5.912 -0.9481 -0.9623  0.1493
 1401SOL    HW1 5623   0.921   0.686   5.941 -2.5956  0.1068 -0.4273
 1401SOL    HW2 5624   0.985   0.816   5.987 -0.5832 -1.0528  0.1989
 1402SOL     OW 5625   7.891   1.982   2.579 -0.3416  0.2644 -0.1847
 1402SOL    HW1 5626   7.918   1.906   2.631 -0.5565  1.0219  1.0734
 1402SOL    HW2 5627   7.810   1.954   2.537 -2.4127  0.8411  3.0217
 1403SOL     OW 5628   3.845   4.367   2.874  0.0457 -0.7873  0.6211
 1403SOL    HW1 5629   3.769   4.420   2.895  1.0822  0.8994  0.2962
 1403SOL    HW2 5630   3.863   4.318   2.954 -0.7286 -0.4049  1.0384
 1404SOL     OW 5631   5.372   7.095   7.559 -0.1679  0.2818  0.1517
 1404SOL    HW1 5632   5.424   7.155   7.611  0.5581 -1.1650  1.1719
 1404SOL    HW2 5633   5.294   7.145   7.535 -0.0840  1.2974  1.8502
 1405SOL     OW 5634   0.212   3.059   4.015  0.3743 -0.0096 -0.5538
 1405SOL    HW1 5635   0.173   2.972   4.021  1.0463 -0.2667  0.4348
 1405SOL    HW2 5636   0.263   3.067   4.096  1.8628  0.5468 -1.5084
 1406SOL     OW 5637   0.540   0.775   4.750  0.1208 -0.2106  0.6245
 1406SOL    HW1 5638   0.584   0.843   4.698 -1.7208 -0.3568 -1.2790
 1406SOL    HW2 5639   0.551   0.695   4.698 -0.2637 -0.7413  1.3452
 1407SOL     OW 5640   7.113   6.661   4.483 -0.4942 -0.4792 -0.0080
 1407SOL    HW1 5641   7.122   6.716   4.560  1.0738 -0.0261 -0.4681
 1407SOL    HW2 5642   7.109   6.572   4.517  0.3674 -0.2942  0.6078
 1408SOL     OW 5643   6.229   1.923   7.783  0.2358 -0.6135  0.1131
 1408SOL    HW1 5644   6.201   1.833   7.797  0.7485 -0.7013  0.5947
 1408SOL    HW2 5645   6.183   1.974   7.850 -0.0907 -0.5075 -0.1888
 1409SOL     OW 5646   2.505   4.495   5.130  0.3312 -0.0807  0.2167
 1409SOL    HW1 5647   2.504   4.575   5.078  0.7531 -0.5867 -0.5906
 1409SOL    HW2 5648   2.454   4.432   5.079 -0.5033 -0.1762  1.1261
 1410SOL     OW 5649   7.446   1.543   1.156  0.1129 -0.1832  0.1473
 1410SOL    HW1 5650   7.495   1.574   1.232  0.2746  0.3581 -0.1706
 1410SOL    HW2 5651   7.423   1.623   1.108 -1.3837 -0.3890  0.4663
 1411SOL     OW 5652   3.482   2.817   1.924  0.0511 -0.0600  0.0963
 1411SOL    HW1 5653   3.521   2.764   1.854  1.6905  1.8736 -0.5597
 1411SOL    HW2 5654   3.441   2.890   1.878 -1.2352 -0.1531  1.0411
 1412SOL     OW 5655   3.025   0.796   1.711  0.7872 -0.4720 -0.0874
 1412SOL    HW1 5656   2.976   0.878   1.717  1.0547 -0.4201  2.2255
 1412SOL    HW2 5657   2.960   0.728   1.731  1.0845 -0.6200  0.3878
 1413SOL     OW 5658   3.831   5.930   5.316  0.2433  0.3831 -0.2138
 1413SOL    HW1 5659   3.898   5.864   5.334  1.6788  1.4076 -1.5260
 1413SOL    HW2 5660   3.827   5.984   5.394  2.2768  1.3734 -0.7364
 1414SOL     OW 5661   3.185   5.894   3.211 -0.7309 -0.8222 -0.1666
 1414SOL    HW1 5662   3.137   5.947   3.275 -0.8425 -1.9030  0.6780
 1414SOL    HW2 5663   3.153   5.805   3.226  0.4819 -1.3421 -0.5826
 1415SOL     OW 5664   3.007   1.822   0.956  0.2415  0.1876 -0.2395
 1415SOL    HW1 5665   2.954   1.754   0.913  1.0246 -0.8667  0.4174
 1415SOL    HW2 5666   3.045   1.873   0.884  1.6471 -1.6293 -0.8552
 1416SOL     OW 5667   1.273   6.640   1.927 -0.1339 -0.8284  0.1413
 1416SOL    HW1 5668   1.227   6.708   1.975 -0.7163 -1.7247  0.8995
 1416SOL    HW2 5669   1.231   6.638   1.841 -0.0699 -0.1938  0.0949
 1417SOL     OW 5670   7.541   1.626   3.991  0.0140 -0.0805 -0.0493
 1417SOL    HW1 5671   7.581   1.707   4.021  0.1126 -0.2848  0.3815
 1417SOL    HW2 5672   7.447   1.637   4.008  0.0562 -0.1508  0.2347
 1418SOL     OW 5673   1.278   4.473   2.474 -0.0157 -0.4273 -0.1054
 1418SOL    HW1 5674   1.267   4.561   2.440 -1.0152 -0.6833 -0.4964
 1418SOL    HW2 5675   1.352   4.437   2.426  1.3560  0.6826  1.1082
 1419SOL     OW 5676   6.338   8.266   0.284 -0.0011  0.0838  0.1590
 1419SOL    HW1 5677   6.316   8.325   0.212  1.0200 -0.2295 -0.4340
 1419SOL    HW2 5678   6.429   8.243   0.269  0.0811 -0.3846  1.2870
 1420SOL     OW 5679   7.638   4.392   3.683  0.1698 -0.3770 -0.1594
 1420SOL    HW1 5680   7.623   4.381   3.777 -0.7413 -2.1237 -0.4569
 1420SOL    HW2 5681   7.733   4.389   3.674  0.5024  2.9507  0.9708
 1421SOL     OW 5682   2.638   2.644   0.500 -0.6816 -0.3579  0.0752
 1421SOL    HW1 5683   2.566   2.700   0.529 -1.6921 -0.0764 -2.7240
 1421SOL    HW2 5684   2.694   2.636   0.577 -3.8216 -0.8654  2.5263
 1422SOL     OW 5685   6.188   0.708   7.433  0.3886 -0.1662 -0.1008
 1422SOL    HW1 5686   6.105   0.660   7.439  1.6015 -2.7197 -1.7992
 1422SOL    HW2 5687   6.177   0.782   7.493 -2.6265 -1.0867  0.6817
 1423SOL     OW 5688   0.600   3.115   7.600 -0.2846  0.2568  0.6641
 1423SOL    HW1 5689   0.582   3.208   7.583 -0.5510  0.6997  3.0410
 1423SOL    HW2 5690   0.515   3.077   7.619 -0.2624 -0.6746 -0.9162
 1424SOL     OW 5691   3.837   0.496   2.437  0.0551  0.1483  0.6191
 1424SOL    HW1 5692   3.846   0.590   2.422  0.0886  0.1020  0.3444
 1424SOL    HW2 5693   3.783   0.466   2.365  0.5678 -0.1479  0.3503
 1425SOL     OW 5694   2.254   2.110   6.811  0.6828 -0.0999  0.8021
 1425SOL    HW1 5695   2.169   2.068   6.795 -0.6869  1.6483  2.8228
 1425SOL    HW2 5696   2.318   2.053   6.769 -1.5432 -1.0654 -1.5575
 1426SOL     OW 5697   3.208   2.070   1.141 -0.4741  0.3514 -0.3202
 1426SOL    HW1 5698   3.225   2.160   1.170  0.6544 -0.5387  2.0202
 1426SOL    HW2 5699   3.148   2.080   1.067 -1.2186  2.9783  0.5289
 1427SOL     OW 5700   5.321   3.288   0.896  0.2057  0.0350  0.1021
 1427SOL    HW1 5701   5.226   3.303   0.901 -0.2045 -2.2487  0.9811
 1427SOL    HW2 5702   5.355   3.362   0.846 -1.6262  2.4824  2.1884
 1428SOL     OW 5703   2.762   2.567   5.497  0.0902 -0.5001  0.5663
 1428SOL    HW1 5704   2.699   2.495   5.504  0.4348 -1.0936 -1.8849
 1428SOL    HW2 5705   2.708   2.644   5.482 -0.2987 -0.0825  3.4456
 1429SOL     OW 5706   6.501   4.479   4.016 -0.1767  0.0476  0.9619
 1429SOL    HW1 5707   6.467   4.499   3.929 -1.5452  0.1868  1.4945
 1429SOL    HW2 5708   6.523   4.386   4.012 -0.0903  0.0891  0.4233
 1430SOL     OW 5709   4.283   2.225   3.345  0.0797 -0.1402  0.3044
 1430SOL    HW1 5710   4.296   2.319   3.331  0.7003 -0.5029 -2.1222
 1430SOL    HW2 5711   4.370   2.192   3.364 -0.1357 -0.2447  1.1335
 1431SOL     OW 5712   6.144   0.544   5.393  0.1960 -0.6825 -0.4525
 1431SOL    HW1 5713   6.109   0.592   5.467  1.2388 -1.6382  0.7062
 1431SOL    HW2 5714   6.096   0.461   5.393 -1.3120  0.1235 -2.1915
 1432SOL     OW 5715   4.244   2.909   1.874  0.0822  0.3736 -0.1845
 1432SOL    HW1 5716   4.239   2.988   1.928 -0.9041 -0.6565  1.3085
 1432SOL    HW2 5717   4.200   2.933   1.792  0.2643  1.5165  0.0290
 1433SOL     OW 5718   7.835   4.906   5.048 -0.0710  0.2105  0.0073
 1433SOL    HW1 5719   7.849   4.998   5.072 -0.1334 -0.0801  1.2202
 1433SOL    HW2 5720   7.912   4.860   5.081 -1.3933 -0.6135  2.1614
 1434SOL     OW 5721   6.493   6.346   1.403  0.1142  0.0210 -0.0409
 1434SOL    HW1 5722   6.456   6.302   1.327 -1.0927  0.8355  0.0438
 1434SOL    HW2 5723   6.440   6.425   1.414 -0.9758 -0.9475  2.7106
 1435SOL     OW 5724   1.321   6.474   1.277 -0.1133 -0.4260  0.1773
 1435SOL    HW1 5725   1.396   6.533   1.267  0.5926 -1.5310 -1.6678
 1435SOL    HW2 5726   1.253   6.512   1.221 -0.6186  0.0754  1.1184
 1436SOL     OW 5727   7.689   5.774   5.031 -0.2988 -0.6780 -0.5287
 1436SOL    HW1 5728   7.709   5.683   5.008  0.4910 -0.2889 -1.4499
 1436SOL    HW2 5729   7.734   5.788   5.114  0.4178 -0.8371 -0.8812
 1437SOL     OW 5730   0.818   4.957   1.866  0.4734  0.0301 -0.2999
 1437SOL    HW1 5731   0.802   4.971   1.773  1.7574  0.8877 -0.4152
 1437SOL    HW2 5732   0.787   5.037   1.908  1.0893  0.1951 -0.1474
 1438SOL     OW 5733   3.200   2.885   2.918 -0.2886 -0.2122 -0.2034
 1438SOL    HW1 5734   3.156   2.931   2.847 -0.6862 -0.9427 -0.4365
 1438SOL    HW2 5735   3.159   2.799   2.921  1.0031 -0.8662 -0.3291
 1439SOL     OW 5736   3.924   5.962   6.371 -0.0616  0.2562 -0.5873
 1439SOL    HW1 5737   3.859   5.921   6.314 -0.5229  2.4199 -1.7068
 1439SOL    HW2 5738   4.004   5.910   6.359 -1.3397 -2.0537  0.3334
 1440SOL     OW 5739   2.113   8.249   5.111  0.0315  0.5609  0.2143
 1440SOL    HW1 5740   2.191   8.276   5.159  0.4846 -2.0482  1.1221
 1440SOL    HW2 5741   2.123   8.154   5.100 -3.0475  0.0792  0.5108
 1441SOL     OW 5742   2.550   5.048   7.191  0.0769 -0.6312 -0.1654
 1441SOL    HW1 5743   2.552   5.034   7.286  1.2233 -2.6100 -0.4429
 1441SOL    HW2 5744   2.567   4.962   7.153  0.9315  0.3460 -2.1584
 1442SOL     OW 5745   5.417   1.695   4.155  0.8324 -0.0530  0.1589
 1442SOL    HW1 5746   5.498   1.649   4.134  0.5526 -0.6430  0.3374
 1442SOL    HW2 5747   5.362   1.685   4.077  0.7183 -0.1466  0.2496
 1443SOL     OW 5748   3.769   2.667   2.581 -0.0711  0.3217  0.2798
 1443SOL    HW1 5749   3.762   2.750   2.628  0.4901  0.4148  0.2009
 1443SOL    HW2 5750   3.853   2.630   2.609  1.3286  1.3892 -2.2662
 1444SOL     OW 5751   5.685   2.631   4.043  0.2969  0.0100  0.0319
 1444SOL    HW1 5752   5.597   2.666   4.029  0.6272  0.7987 -0.1744
 1444SOL    HW2 5753   5.673   2.556   4.101 -0.3956  0.7962  0.9265
 1445SOL     OW 5754   8.288   6.382   0.159 -0.2521 -0.1955  0.3016
 1445SOL    HW1 5755   8.378   6.403   0.133 -0.8436  0.9360 -0.9923
 1445SOL    HW2 5756   8.259   6.316   0.096  0.2292 -1.9771  1.8473
 1446SOL     OW 5757   3.136   3.277   7.602 -0.5015  0.1255 -0.1581
 1446SOL    HW1 5758   3.177   3.335   7.537 -2.7575 -0.9668 -2.7873
 1446SOL    HW2 5759   3.066   3.329   7.640 -1.2843 -0.2003 -1.0986
 1447SOL     OW 5760   4.955   2.173   2.326  0.0040 -0.6344 -0.5709
 1447SOL    HW1 5761   4.953   2.240   2.257  1.0181 -0.1532 -0.1503
 1447SOL    HW2 5762   4.870   2.179   2.368 -0.1085  0.0358 -0.8775
 1448SOL     OW 5763   8.196   0.151   7.729  0.1598  0.0203 -0.4058
 1448SOL    HW1 5764   8.120   0.209   7.727  0.4166  0.3695 -1.8834
 1448SOL    HW2 5765   8.175   0.082   7.666 -0.1897 -1.6154  1.4162
 1449SOL     OW 5766   0.989   0.294   6.188 -0.0811  0.1193  0.3546
 1449SOL    HW1 5767   1.043   0.227   6.229 -0.3665 -0.1499  0.2904
 1449SOL    HW2 5768   0.946   0.338   6.261 -0.8607 -0.5893  0.3356
 1450SOL     OW 5769   7.470   2.942   1.359  0.1536 -0.5626  0.2262
 1450SOL    HW1 5770   7.524   2.937   1.438  2.6000 -0.1304 -1.3158
 1450SOL    HW2 5771   7.428   2.857   1.353  4.2127 -2.7071 -0.8070
 1451SOL     OW 5772   3.953   3.827   8.159 -0.1267  0.0104 -0.2065
 1451SOL    HW1 5773   4.046   3.843   8.147  0.2779 -1.4659  0.7326
 1451SOL    HW2 5774   3.944   3.732   8.157 -1.5860  0.1186 -0.0357
 1452SOL     OW 5775   6.592   8.222   5.367  0.3839 -0.0529  0.0677
 1452SOL    HW1 5776   6.647   8.149   5.338  2.7409  0.3159  3.0312
 1452SOL    HW2 5777   6.605   8.290   5.300  1.4130 -0.9437 -0.6715
 1453SOL     OW 5778   5.134   1.017   6.004 -0.2349 -0.1034  0.7874
 1453SOL    HW1 5779   5.168   1.099   5.968  1.6012 -0.9432  0.4731
 1453SOL    HW2 5780   5.061   1.043   6.060  0.5199  1.7775  0.9571
 1454SOL     OW 5781   8.137   4.245   7.644  0.0157 -0.6128 -0.1493
 1454SOL    HW1 5782   8.166   4.337   7.645  0.2360 -0.6633 -1.2374
 1454SOL    HW2 5783   8.176   4.207   7.723  1.8030 -0.3323 -0.8560
 1455SOL     OW 5784   4.235   2.677   6.719 -0.0466 -0.0983 -0.3003
 1455SOL    HW1 5785   4.309   2.693   6.779 -0.5612 -0.1884  0.3656
 1455SOL    HW2 5786   4.157   2.688   6.773 -0.5129 -0.7009 -0.8298
 1456SOL     OW 5787   1.366   2.632   4.863 -0.2853  0.4469  0.0317
 1456SOL    HW1 5788   1.431   2.585   4.810 -0.9875  1.0424 -1.4157
 1456SOL    HW2 5789   1.384   2.724   4.846  0.3878  0.7209  2.0031
 1457SOL     OW 5790   7.602   8.149   1.510  0.1366 -0.0206  0.2989
 1457SOL    HW1 5791   7.689   8.179   1.536  0.0870  0.7390 -0.3893
 1457SOL    HW2 5792   7.567   8.219   1.454 -1.4569  0.3179  1.6186
 1458SOL     OW 5793   3.200   0.757   1.999  0.1111  0.3812  0.3830
 1458SOL    HW1 5794   3.252   0.833   1.971 -1.2711  1.2077 -0.0448
 1458SOL    HW2 5795   3.138   0.792   2.063  0.6338 -0.7598  1.5564
 1459SOL     OW 5796   5.109   1.573   4.143  0.1398  0.1898 -0.0426
 1459SOL    HW1 5797   5.091   1.658   4.184 -1.3214  0.3441 -0.9307
 1459SOL    HW2 5798   5.174   1.532   4.201 -0.3131  1.2416  1.2750
 1460SOL     OW 5799   3.796   1.077   3.048 -0.1956  0.4673 -0.6797
 1460SOL    HW1 5800   3.802   1.038   3.135 -0.9823  0.2116 -0.7317
 1460SOL    HW2 5801   3.746   1.013   2.997  0.6928  0.3813 -1.4619
 1461SOL     OW 5802   3.506   8.029   1.634  0.3132  0.2480  0.0700
 1461SOL    HW1 5803   3.542   7.960   1.580 -0.8312 -0.3208  0.0086
 1461SOL    HW2 5804   3.478   7.985   1.714 -2.8639  0.0695 -0.9894
 1462SOL     OW 5805   4.668   7.156   0.508 -0.1154  0.3793 -0.6050
 1462SOL    HW1 5806   4.717   7.153   0.590  2.3821 -1.0368 -2.0256
 1462SOL    HW2 5807   4.625   7.241   0.509  0.8914  0.9407  1.5679
 1463SOL     OW 5808   1.744   2.068   2.213  0.2349  0.6566  0.1945
 1463SOL    HW1 5809   1.705   2.150   2.182 -1.0858 -0.1339 -0.2989
 1463SOL    HW2 5810   1.691   2.043   2.288 -0.3141 -0.4965 -0.5568
 1464SOL     OW 5811   5.146   1.270   7.513  0.2483  0.9130 -0.2803
 1464SOL    HW1 5812   5.130   1.183   7.476 -0.3028  0.5903  0.6707
 1464SOL    HW2 5813   5.239   1.268   7.537 -0.5870 -1.0628  3.6560
 1465SOL     OW 5814   6.645   1.352   4.332 -0.4314  0.3547  0.0250
 1465SOL    HW1 5815   6.595   1.318   4.257 -0.4413 -1.1644  0.6961
 1465SOL    HW2 5816   6.736   1.340   4.307 -0.4318 -1.0162  0.6035
 1466SOL     OW 5817   8.112   2.971   5.788  0.1454 -0.2745 -0.2106
 1466SOL    HW1 5818   8.180   2.912   5.819  1.2482  1.4272  0.7604
 1466SOL    HW2 5819   8.103   2.951   5.695 -1.2146 -3.5338  0.5076
 1467SOL     OW 5820   1.672   6.638   5.727  0.1319 -0.0512 -0.0144
 1467SOL    HW1 5821   1.739   6.571   5.738  0.9258  0.7040 -0.1293
 1467SOL    HW2 5822   1.592   6.598   5.762  1.0783 -0.2168  2.1659
 1468SOL     OW 5823   6.854   5.033   1.853  0.1818  0.3329 -0.0769
 1468SOL    HW1 5824   6.942   5.011   1.825 -0.0325 -1.2369  0.3792
 1468SOL    HW2 5825   6.862   5.053   1.946  0.0090 -0.1383  0.0408
 1469SOL     OW 5826   0.532   7.789   2.380  0.3924  0.2112  0.2613
 1469SOL    HW1 5827   0.550   7.864   2.323  0.5334 -0.7854 -1.0435
 1469SOL    HW2 5828   0.600   7.726   2.358 -0.6222 -0.9017  0.2440
 1470SOL     OW 5829   1.703   3.397   8.139  0.2398 -0.2233 -0.0584
 1470SOL    HW1 5830   1.614   3.429   8.151  0.2562 -0.5686  1.1137
 1470SOL    HW2 5831   1.729   3.429   8.052 -0.5640  0.9424  0.1158
 1471SOL     OW 5832   0.096   7.392   4.188  0.1398  0.0442  0.2974
 1471SOL    HW1 5833   0.175   7.353   4.149  0.8659 -1.3304  2.9091
 1471SOL    HW2 5834   0.123   7.481   4.211 -0.1384  0.6980 -1.6620
 1472SOL     OW 5835   5.497   3.467   4.930 -0.2976 -0.2947 -0.0223
 1472SOL    HW1 5836   5.453   3.384   4.912 -0.9109  0.1412 -0.5452
 1472SOL    HW2 5837   5.509   3.508   4.844 -0.0968  0.2125  0.2393
 1473SOL     OW 5838   5.671   5.113   4.067 -0.1677 -0.0989  0.6581
 1473SOL    HW1 5839   5.674   5.128   4.162 -0.5716  0.3999  0.5979
 1473SOL    HW2 5840   5.597   5.166   4.037  1.4584  1.7679 -0.3002
 1474SOL     OW 5841   1.182   4.309   6.700  0.4736  0.3289  0.0701
 1474SOL    HW1 5842   1.232   4.339   6.624 -1.9379  1.3719 -1.2418
 1474SOL    HW2 5843   1.218   4.358   6.774  3.2660 -1.1333 -0.1850
 1475SOL     OW 5844   4.220   0.696   6.727 -0.3097  0.0780  0.6002
 1475SOL    HW1 5845   4.145   0.738   6.770  0.0751 -1.1237  2.5547
 1475SOL    HW2 5846   4.291   0.704   6.791  0.7165 -0.4871 -0.4376
 1476SOL     OW 5847   4.703   6.659   2.401  0.6964  0.4164  0.0921
 1476SOL    HW1 5848   4.753   6.663   2.482  1.8104 -3.0998 -0.2427
 1476SOL    HW2 5849   4.763   6.691   2.334  0.9995  0.1249  0.2244
 1477SOL     OW 5850   5.631   3.170   5.900  0.0383  0.0600 -0.0114
 1477SOL    HW1 5851   5.688   3.241   5.929 -0.0033  0.3250 -0.5781
 1477SOL    HW2 5852   5.603   3.195   5.812  0.2547 -0.8040 -0.3345
 1478SOL     OW 5853   8.202   1.740   7.960  0.1847  0.2173 -0.0035
 1478SOL    HW1 5854   8.214   1.809   8.025  0.2165 -0.8551  1.1852
 1478SOL    HW2 5855   8.213   1.783   7.876  0.0705  1.6730  0.6982
 1479SOL     OW 5856   4.688   6.667   1.633  0.7141 -0.0188 -0.1782
 1479SOL    HW1 5857   4.777   6.700   1.619  0.7090 -0.0872 -0.3852
 1479SOL    HW2 5858   4.663   6.631   1.548 -0.2265  1.6830 -0.6608
 1480SOL     OW 5859   8.338   5.186   3.819  0.0086 -0.1748  0.0700
 1480SOL    HW1 5860   8.266   5.155   3.872 -0.3465 -1.4170 -1.0735
 1480SOL    HW2 5861   8.413   5.131   3.844  0.5502  1.0020  1.1396
 1481SOL     OW 5862   6.916   5.675   6.623  0.4940  0.4743  0.0330
 1481SOL    HW1 5863   6.881   5.739   6.686  0.1534 -0.0974  0.4343
 1481SOL    HW2 5864   6.933   5.597   6.675  1.4145  0.4054 -0.3589
 1482SOL     OW 5865   8.349   7.631   2.900 -0.2384 -0.1628 -0.4351
 1482SOL    HW1 5866   8.261   7.667   2.916  0.4490  1.5697 -0.2520
 1482SOL    HW2 5867   8.357   7.558   2.961 -2.3664 -1.8656 -2.0432
 1483SOL     OW 5868   0.728   6.942   4.568  0.8889 -0.0245 -0.1016
 1483SOL    HW1 5869   0.662   6.923   4.501  0.9157 -0.7841  0.0800
 1483SOL    HW2 5870   0.787   6.867   4.565  1.1313  0.1412  0.4861
 1484SOL     OW 5871   7.009   4.224   6.615 -0.2332  0.2319 -0.1322
 1484SOL    HW1 5872   6.983   4.177   6.536 -0.5137  0.6495 -0.2938
 1484SOL    HW2 5873   7.085   4.175   6.648 -0.9430 -0.7344  0.1053
 1485SOL     OW 5874   7.201   6.646   1.001  0.3755 -0.1724 -0.2579
 1485SOL    HW1 5875   7.253   6.592   1.060  1.3448  1.1387  0.1424
 1485SOL    HW2 5876   7.242   6.733   1.006 -0.5026  0.3522 -1.6453
 1486SOL     OW 5877   8.212   7.154   1.219 -0.0906 -0.0587  0.0372
 1486SOL    HW1 5878   8.193   7.162   1.312  0.2539  0.4284  0.0691
 1486SOL    HW2 5879   8.224   7.060   1.205 -0.2712 -0.1443  0.4572
 1487SOL     OW 5880   6.327   1.877   1.617  0.3365  0.1739  0.2272
 1487SOL    HW1 5881   6.327   1.812   1.547  0.7191  0.2722  0.1332
 1487SOL    HW2 5882   6.282   1.834   1.690  1.1425 -0.4359  0.3814
 1488SOL     OW 5883   0.992   3.586   3.715 -0.1284  0.5772  0.5282
 1488SOL    HW1 5884   0.982   3.529   3.638 -1.6991  0.5586  0.7106
 1488SOL    HW2 5885   1.077   3.562   3.752  1.1378  1.2552 -1.7318
 1489SOL     OW 5886   7.410   3.095   1.137  0.0710  0.2850 -0.2512
 1489SOL    HW1 5887   7.395   3.012   1.091 -1.3533  0.1035  0.5140
 1489SOL    HW2 5888   7.434   3.069   1.226  1.9734  0.6664 -0.5974
 1490SOL     OW 5889   7.916   3.616   4.068 -0.1034 -0.4031  0.0802
 1490SOL    HW1 5890   7.899   3.554   3.997  1.2768 -0.6735 -0.0431
 1490SOL    HW2 5891   7.855   3.688   4.052  1.5573  0.5530 -2.6610
 1491SOL     OW 5892   0.308   7.131   3.487  0.3356  1.0259 -0.0766
 1491SOL    HW1 5893   0.343   7.074   3.556 -0.5494 -0.3252 -0.6871
 1491SOL    HW2 5894   0.285   7.212   3.532 -0.3836  0.1113  1.2796
 1492SOL     OW 5895   4.480   2.204   6.238 -0.0397  0.1139 -0.0455
 1492SOL    HW1 5896   4.444   2.241   6.319  1.6267  1.5172  0.1242
 1492SOL    HW2 5897   4.529   2.276   6.199  0.0286 -0.8292 -1.8210
 1493SOL     OW 5898   0.640   0.018   4.287  0.1762  0.1208  0.0984
 1493SOL    HW1 5899   0.575   0.009   4.356 -1.1752  0.8641 -1.0297
 1493SOL    HW2 5900   0.703   0.082   4.321  0.7411 -1.1056  1.4701
 1494SOL     OW 5901   3.831   3.796   2.140 -0.4893 -0.1143  0.1334
 1494SOL    HW1 5902   3.903   3.857   2.126 -2.5884  1.9434 -2.9039
 1494SOL    HW2 5903   3.871   3.709   2.134  1.7486  0.9408 -1.5502
 1495SOL     OW 5904   4.120   2.796   5.635 -0.3245 -0.4270  0.3132
 1495SOL    HW1 5905   4.130   2.707   5.670 -0.1866  0.5397  2.9409
 1495SOL    HW2 5906   4.210   2.828   5.624 -0.3824 -0.2461  0.3695
 1496SOL     OW 5907   7.919   4.041   1.099  0.2472 -0.3209  0.6992
 1496SOL    HW1 5908   7.870   4.027   1.018 -0.3378  0.4759  0.9030
 1496SOL    HW2 5909   7.974   4.117   1.080  1.0533 -0.9084  0.6388
 1497SOL     OW 5910   7.491   0.353   1.575  0.3784  0.0759 -0.4522
 1497SOL    HW1 5911   7.472   0.389   1.662  0.7744  0.6715 -0.6129
 1497SOL    HW2 5912   7.405   0.346   1.533  0.2756  0.5989 -0.3304
 1498SOL     OW 5913   1.129   7.251   4.888  0.5071 -0.1539  0.6907
 1498SOL    HW1 5914   1.042   7.213   4.900  1.2914 -1.2762  3.5368
 1498SOL    HW2 5915   1.125   7.294   4.803 -3.1337  0.6478  1.1248
 1499SOL     OW 5916   1.050   4.265   4.232  0.2081  0.1609  0.1843
 1499SOL    HW1 5917   1.138   4.288   4.264  0.5404 -0.6721 -0.0896
 1499SOL    HW2 5918   1.022   4.193   4.289  0.4757 -0.8052 -0.8549
 1500SOL     OW 5919   7.586   4.279   0.940  0.2106 -0.4400  0.8223
 1500SOL    HW1 5920   7.589   4.352   0.878  1.8691  0.1115  1.4934
 1500SOL    HW2 5921   7.527   4.308   1.009 -0.6792 -0.5542  0.1214
 1501SOL     OW 5922   4.938   3.110   8.263  0.4277  0.1544  0.0313
 1501SOL    HW1 5923   4.974   3.103   8.351 -2.9238 -0.0484  1.5581
 1501SOL    HW2 5924   4.981   3.187   8.225  1.4643  0.6710  2.1066
 1502SOL     OW 5925   6.568   1.651   7.681 -0.8645 -0.4080 -0.3517
 1502SOL    HW1 5926   6.606   1.713   7.743 -1.1871 -0.0170 -0.5320
 1502SOL    HW2 5927   6.493   1.698   7.645 -1.9492 -1.4056  0.5167
 1503SOL     OW 5928   6.482   8.232   4.100 -0.4637  0.1970 -0.3603
 1503SOL    HW1 5929   6.397   8.191   4.114 -0.8457  1.1818  0.3154
 1503SOL    HW2 5930   6.524   8.230   4.186  0.2125 -0.3050 -0.6985
 1504SOL     OW 5931   1.226   5.485   5.795  0.1251  0.3855  0.2506
 1504SOL    HW1 5932   1.296   5.491   5.730 -0.4268 -0.3216 -0.4228
 1504SOL    HW2 5933   1.155   5.539   5.760  0.0563  0.5122  0.5779
 1505SOL     OW 5934   7.787   3.092   0.797  0.3555  0.6525 -0.1467
 1505SOL    HW1 5935   7.776   3.117   0.889 -1.5589  0.9992 -0.4289
 1505SOL    HW2 5936   7.700   3.104   0.758  0.3016 -2.5169 -1.2870
 1506SOL     OW 5937   6.337   4.886   7.738 -0.0364 -0.0103 -0.1246
 1506SOL    HW1 5938   6.288   4.862   7.816 -1.4561  2.4054 -0.1667
 1506SOL    HW2 5939   6.393   4.811   7.720  0.2342 -0.7137  3.1078
 1507SOL     OW 5940   3.028   3.480   3.426 -0.0088 -0.0097 -0.7938
 1507SOL    HW1 5941   3.036   3.445   3.337 -1.2730 -0.8725 -0.5886
 1507SOL    HW2 5942   2.943   3.524   3.427  0.0058  0.0103 -0.0233
 1508SOL     OW 5943   5.917   7.963   7.793 -0.2084 -0.4808 -0.1241
 1508SOL    HW1 5944   5.915   8.041   7.737 -1.1500 -1.1534 -1.0800
 1508SOL    HW2 5945   5.836   7.916   7.772 -1.4116 -0.0114  2.9673
 1509SOL     OW 5946   6.046   6.839   5.400 -0.0137  0.0866 -0.1020
 1509SOL    HW1 5947   6.040   6.922   5.352 -0.8723  1.2096  1.8545
 1509SOL    HW2 5948   6.034   6.863   5.492  4.1074 -1.6069  1.0911
 1510SOL     OW 5949   1.866   7.641   6.685 -0.0017 -0.3279  0.1383
 1510SOL    HW1 5950   1.883   7.696   6.609 -0.8050 -0.9259 -0.5015
 1510SOL    HW2 5951   1.912   7.683   6.757  0.5477  0.4008 -0.6262
 1511SOL     OW 5952   6.655   0.343   3.839 -0.0172 -0.1038  0.8477
 1511SOL    HW1 5953   6.657   0.360   3.933  1.2415 -1.1746  1.0332
 1511SOL    HW2 5954   6.736   0.381   3.805  1.9028 -3.7466  0.9762
 1512SOL     OW 5955   4.499   2.390   4.744 -0.0244  0.2246  0.0406
 1512SOL    HW1 5956   4.585   2.363   4.777 -0.2433 -0.3600  0.1491
 1512SOL    HW2 5957   4.444   2.392   4.823 -0.3000 -0.1704 -0.1412
 1513SOL     OW 5958   1.598   2.306   4.045  0.4624  0.3584  0.0839
 1513SOL    HW1 5959   1.689   2.336   4.040  0.5379  0.5774  1.8993
 1513SOL    HW2 5960   1.603   2.226   4.097 -0.2392 -0.4354 -1.0384
 1514SOL     OW 5961   0.539   7.023   2.592 -0.0895 -0.6837 -0.0279
 1514SOL    HW1 5962   0.509   7.008   2.503 -2.7398  0.1021  0.6644
 1514SOL    HW2 5963   0.488   6.963   2.646 -0.1981  0.4419  1.1871
 1515SOL     OW 5964   3.767   4.860   7.249 -0.4857 -0.5667 -0.3705
 1515SOL    HW1 5965   3.682   4.859   7.204  0.3494 -0.1871 -2.0368
 1515SOL    HW2 5966   3.746   4.841   7.340 -2.3811 -0.3209 -0.7120
 1516SOL     OW 5967   0.819   2.341   0.828  0.1401 -0.1743 -0.3418
 1516SOL    HW1 5968   0.798   2.402   0.757 -0.3616  0.2423  0.1516
 1516SOL    HW2 5969   0.734   2.324   0.870  0.4751 -0.1665  0.3487
 1517SOL     OW 5970   1.356   8.209   5.679 -0.0447 -0.4545 -0.3870
 1517SOL    HW1 5971   1.344   8.162   5.596  1.2104 -1.0754 -0.2373
 1517SOL    HW2 5972   1.341   8.142   5.746 -0.8594  0.0003 -0.1032
 1518SOL     OW 5973   4.794   0.279   5.623 -0.5827  0.1334  0.4840
 1518SOL    HW1 5974   4.742   0.350   5.662 -1.5466 -0.2546 -0.0677
 1518SOL    HW2 5975   4.740   0.246   5.551  0.6952  0.1164 -0.5005
 1519SOL     OW 5976   4.162   3.139   5.514  0.3615  0.5526 -0.5550
 1519SOL    HW1 5977   4.222   3.211   5.496 -0.6206  1.3523 -0.6641
 1519SOL    HW2 5978   4.114   3.126   5.433 -0.7398  0.9936  0.0133
 1520SOL     OW 5979   8.342   3.124   1.013 -0.6168 -0.5774 -0.1599
 1520SOL    HW1 5980   8.326   3.036   1.048  0.6518  0.4369  3.4463
 1520SOL    HW2 5981   8.416   3.112   0.953  0.5036 -1.8588  1.3605
 1521SOL     OW 5982   5.314   7.162   1.300 -0.4996  0.5942  0.0344
 1521SOL    HW1 5983   5.392   7.184   1.248  0.1083 -0.4131  0.5031
 1521SOL    HW2 5984   5.330   7.204   1.385  0.4891 -1.2353  0.8046
 1522SOL     OW 5985   1.570   4.906   2.188  0.1263  0.2176 -0.4406
 1522SOL    HW1 5986   1.527   4.855   2.257 -0.4001  1.0441 -0.1471
 1522SOL    HW2 5987   1.663   4.904   2.212  0.6914 -3.3944 -2.2417
 1523SOL     OW 5988   1.311   8.054   0.947  0.4166 -0.0098 -0.5981
 1523SOL    HW1 5989   1.249   8.001   0.997  1.1126 -1.6212 -1.4128
 1523SOL    HW2 5990   1.292   8.035   0.856  0.0759  1.8709 -0.9627
 1524SOL     OW 5991   3.066   3.676   4.510 -0.4979  0.5004  0.5295
 1524SOL    HW1 5992   3.040   3.712   4.425  0.3885 -1.3655 -0.6004
 1524SOL    HW2 5993   3.111   3.595   4.489  0.3123  0.2886  2.7795
 1525SOL     OW 5994   5.125   4.250   8.035 -0.3008  0.7853 -0.1125
 1525SOL    HW1 5995   5.183   4.210   7.970 -0.4615  0.9102 -0.3377
 1525SOL    HW2 5996   5.138   4.199   8.114  0.2956  0.9598 -0.0923
 1526SOL     OW 5997   5.256   5.200   3.603  0.3195  1.2772 -0.1976
 1526SOL    HW1 5998   5.342   5.219   3.566  0.3534 -0.7119 -1.2839
 1526SOL    HW2 5999   5.219   5.286   3.623  1.8612  2.2581 -1.3021
 1527SOL     OW 6000   7.284   3.258   7.037 -0.3444 -0.0110 -0.0911
 1527SOL    HW1 6001   7.258   3.348   7.016 -0.5113 -0.1170 -0.3524
 1527SOL    HW2 6002   7.255   3.245   7.128  2.3882  1.1962  1.0444
 1528SOL     OW 6003   0.757   2.861   1.527  0.2827 -0.5840  0.4566
 1528SOL    HW1 6004   0.738   2.795   1.594  0.1738 -0.5669  0.4428
 1528SOL    HW2 6005   0.836   2.905   1.559  0.9440 -1.3808 -0.0266
 1529SOL     OW 6006   0.869   3.054   6.838 -0.0993 -0.1070  0.0469
 1529SOL    HW1 6007   0.945   3.059   6.780 -0.6546  0.1677 -0.6536
 1529SOL    HW2 6008   0.861   3.142   6.875 -0.2427 -0.0632 -0.0887
 1530SOL     OW 6009   8.179   2.078   7.178  0.5798 -0.3076 -0.1926
 1530SOL    HW1 6010   8.095   2.096   7.137 -0.2197 -0.0131  1.4813
 1530SOL    HW2 6011   8.158   2.020   7.251  1.7737  0.0480  0.4583
 1531SOL     OW 6012   3.927   5.490   6.398  0.3053 -0.2275 -0.1394
 1531SOL    HW1 6013   4.020   5.508   6.409 -0.1313  2.0833  0.3642
 1531SOL    HW2 6014   3.896   5.472   6.487  0.4095 -2.0160 -0.4292
 1532SOL     OW 6015   2.362   2.250   4.947 -0.3316  0.7974 -0.1498
 1532SOL    HW1 6016   2.367   2.170   5.000 -0.1191  1.2069  0.4551
 1532SOL    HW2 6017   2.296   2.303   4.990  0.1976  1.3437 -0.0058
 1533SOL     OW 6018   1.528   5.313   8.343  0.0116 -0.2824  0.2677
 1533SOL    HW1 6019   1.461   5.278   8.402  0.7938  0.0172  1.3706
 1533SOL    HW2 6020   1.572   5.236   8.307 -0.2533 -0.4670  0.3392
 1534SOL     OW 6021   7.443   3.708   7.526 -0.1529 -0.2753  0.4426
 1534SOL    HW1 6022   7.369   3.670   7.574 -0.6204  0.1641  0.0810
 1534SOL    HW2 6023   7.516   3.702   7.587 -0.7543  0.3430  1.2424
 1535SOL     OW 6024   3.598   5.038   1.461  0.0091  0.0099  0.4553
 1535SOL    HW1 6025   3.625   4.976   1.394 -0.5046 -0.6145  0.8066
 1535SOL    HW2 6026   3.541   5.100   1.416  0.2067 -0.0078  0.1817
 1536SOL     OW 6027   6.840   3.556   3.098  0.3025 -0.4456  0.5095
 1536SOL    HW1 6028   6.793   3.620   3.151 -1.4052  0.3407 -1.7512
 1536SOL    HW2 6029   6.928   3.594   3.087 -0.2512  0.8411  0.3608
 1537SOL     OW 6030   5.981   5.597   7.310 -0.4132 -0.5441  0.4150
 1537SOL    HW1 6031   5.978   5.692   7.304 -1.4130 -0.4691  1.7951
 1537SOL    HW2 6032   6.059   5.579   7.364 -0.4281 -0.4952  0.4530
 1538SOL     OW 6033   6.855   6.637   4.821 -0.3156 -0.3516 -0.2676
 1538SOL    HW1 6034   6.886   6.702   4.758 -0.2336  2.1064  2.1281
 1538SOL    HW2 6035   6.763   6.623   4.799  0.2965 -1.4713 -2.3832
 1539SOL     OW 6036   4.555   3.132   5.000 -0.1312 -0.0922 -0.1652
 1539SOL    HW1 6037   4.561   3.037   5.006 -0.8481 -0.3015 -2.2341
 1539SOL    HW2 6038   4.465   3.153   5.025  0.9801  0.5277  4.2168
 1540SOL     OW 6039   4.127   6.439   3.384 -0.1092  0.3387  0.7225
 1540SOL    HW1 6040   4.133   6.420   3.291  1.8759  0.9847  0.6812
 1540SOL    HW2 6041   4.154   6.357   3.427 -0.3874  0.2488  0.7309
 1541SOL     OW 6042   4.733   7.256   1.745  0.5536  0.0211  0.4755
 1541SOL    HW1 6043   4.664   7.322   1.743  1.6584  1.1979 -0.8298
 1541SOL    HW2 6044   4.690   7.176   1.713 -0.0141  0.9638 -1.2700
 1542SOL     OW 6045   7.731   5.838   4.427  0.2683 -0.2447  0.0757
 1542SOL    HW1 6046   7.675   5.806   4.498 -1.6596  0.5979 -0.9755
 1542SOL    HW2 6047   7.731   5.767   4.363 -1.9846  0.7344 -1.1515
 1543SOL     OW 6048   3.503   6.967   5.207 -0.5050  0.0773 -0.0057
 1543SOL    HW1 6049   3.445   6.990   5.280 -1.8477  0.0755 -1.0316
 1543SOL    HW2 6050   3.510   6.872   5.211  0.9630  0.2015  1.2192
 1544SOL     OW 6051   4.449   8.031   4.034  0.0642 -0.5166 -0.2845
 1544SOL    HW1 6052   4.462   8.126   4.045  1.4487 -0.5128 -1.6393
 1544SOL    HW2 6053   4.354   8.021   4.029 -0.0942  0.9379 -1.0108
 1545SOL     OW 6054   0.043   8.102   3.528  0.0341 -0.3238 -0.0711
 1545SOL    HW1 6055   0.087   8.175   3.573 -0.7718  0.1331 -0.0130
 1545SOL    HW2 6056   0.016   8.139   3.444 -0.0926 -0.6484 -0.1716
 1546SOL     OW 6057   4.090   3.525   6.518  0.4593  0.3461  0.2291
 1546SOL    HW1 6058   4.140   3.443   6.514  0.5370  0.4062 -0.0012
 1546SOL    HW2 6059   4.111   3.570   6.437  2.5482  1.8611  1.5266
 1547SOL     OW 6060   0.964   7.205   6.644  0.2296  0.4105 -0.4812
 1547SOL    HW1 6061   1.058   7.213   6.658 -0.1045  1.1713  1.6265
 1547SOL    HW2 6062   0.935   7.292   6.618 -0.1218  0.6289  0.5834
 1548SOL     OW 6063   0.138   2.098   1.303 -0.0338 -0.6408  0.5235
 1548SOL    HW1 6064   0.198   2.147   1.248 -0.0425 -0.1990  0.8968
 1548SOL    HW2 6065   0.183   2.015   1.321 -0.2472 -1.0027 -0.5510
 1549SOL     OW 6066   7.663   3.663   3.211 -0.7695  0.0238  0.3878
 1549SOL    HW1 6067   7.735   3.608   3.240 -0.2377  0.9034  0.7590
 1549SOL    HW2 6068   7.619   3.690   3.291 -1.0670  0.0906  0.2041
 1550SOL     OW 6069   7.182   6.848   1.547 -0.7233 -0.2942 -0.1696
 1550SOL    HW1 6070   7.118   6.855   1.618 -1.2351 -2.0181 -0.3973
 1550SOL    HW2 6071   7.249   6.913   1.568 -2.3809  1.3809  0.2271
 1551SOL     OW 6072   0.050   6.172   4.662 -0.4441  0.1883 -0.0394
 1551SOL    HW1 6073   0.118   6.107   4.677  1.3871  1.4064 -2.4266
 1551SOL    HW2 6074  -0.024   6.122   4.625 -0.1449 -0.8760  0.7552
 1552SOL     OW 6075   6.073   6.371   0.864 -0.0596 -0.5743 -0.0345
 1552SOL    HW1 6076   6.057   6.411   0.778 -0.2131  0.9227  0.6588
 1552SOL    HW2 6077   5.993   6.388   0.913  0.7288  0.2435  1.0019
 1553SOL     OW 6078   6.255   7.986   5.154 -0.3036 -0.2152 -0.0122
 1553SOL    HW1 6079   6.335   7.938   5.132  0.8698  1.9197 -0.6338
 1553SOL    HW2 6080   6.225   8.023   5.071  0.1526  2.0106  0.7512
 1554SOL     OW 6081   0.730   5.766   6.438  0.3050 -0.5192  0.6737
 1554SOL    HW1 6082   0.811   5.812   6.457  0.5022  0.5701 -2.2423
 1554SOL    HW2 6083   0.753   5.705   6.368 -0.3926 -3.7927  3.0611
 1555SOL     OW 6084   4.709   7.743   0.750  0.3740  0.1060 -0.4022
 1555SOL    HW1 6085   4.627   7.791   0.739 -0.3508 -0.8343  0.6960
 1555SOL    HW2 6086   4.748   7.779   0.830  1.3696  0.9761 -1.2394
 1556SOL     OW 6087   0.630   5.860   1.743  0.0720 -0.2855 -0.0339
 1556SOL    HW1 6088   0.572   5.869   1.668  0.4926 -1.8839 -0.5988
 1556SOL    HW2 6089   0.643   5.949   1.775  0.8009  0.5834 -2.5520
 1557SOL     OW 6090   4.469   1.711   1.707 -0.2050 -0.0028 -1.0317
 1557SOL    HW1 6091   4.378   1.740   1.710 -1.0428 -2.4463 -0.9077
 1557SOL    HW2 6092   4.464   1.618   1.688  2.2059 -0.5643  0.6454
 1558SOL     OW 6093   2.184   7.511   3.848  0.5107  0.4242  0.0165
 1558SOL    HW1 6094   2.154   7.590   3.892 -2.5253  0.6306 -2.1054
 1558SOL    HW2 6095   2.248   7.541   3.783 -0.0122  1.0542 -0.2183
 1559SOL     OW 6096   2.365   5.609   7.642  0.1796 -0.2375  0.0345
 1559SOL    HW1 6097   2.274   5.598   7.615 -0.3504 -0.1901  1.6903
 1559SOL    HW2 6098   2.379   5.541   7.707  0.5616  1.2031  1.5356
 1560SOL     OW 6099   6.405   5.687   5.046 -0.4381  0.5570  0.2716
 1560SOL    HW1 6100   6.361   5.760   5.090 -1.1125 -0.2957  1.0502
 1560SOL    HW2 6101   6.467   5.729   4.987 -0.8224  1.7630  0.6892
 1561SOL     OW 6102   2.254   1.023   4.057  0.0873  0.2527 -0.3154
 1561SOL    HW1 6103   2.277   0.941   4.101 -0.1058  0.4973  0.2378
 1561SOL    HW2 6104   2.309   1.089   4.099 -0.9193  0.6818  0.3609
 1562SOL     OW 6105   1.762   0.128   2.673 -0.0870  0.0002  0.3055
 1562SOL    HW1 6106   1.768   0.060   2.606  1.5774  0.6044 -0.2095
 1562SOL    HW2 6107   1.828   0.102   2.738 -0.7248  0.1551  1.0234
 1563SOL     OW 6108   1.354   4.231   3.156 -0.0349 -0.2194 -0.1149
 1563SOL    HW1 6109   1.431   4.286   3.173  0.5887 -1.1352  0.1351
 1563SOL    HW2 6110   1.336   4.189   3.241 -0.1307 -0.8427 -0.4378
 1564SOL     OW 6111   7.881   7.867   7.061  0.0289  0.0049 -0.4042
 1564SOL    HW1 6112   7.829   7.844   7.138 -0.5317 -0.9551 -1.0426
 1564SOL    HW2 6113   7.920   7.784   7.034  1.5772  0.6391 -0.1845
 1565SOL     OW 6114   7.678   7.131   2.609  0.0562  0.2964 -0.0854
 1565SOL    HW1 6115   7.764   7.096   2.584  0.0690 -0.6979  1.2582
 1565SOL    HW2 6116   7.664   7.204   2.548  1.1829 -0.4431 -1.2966
 1566SOL     OW 6117   2.679   2.431   5.196 -0.3046 -0.2995 -0.0946
 1566SOL    HW1 6118   2.601   2.418   5.250 -0.6632 -3.3808 -1.1650
 1566SOL    HW2 6119   2.752   2.421   5.257 -0.7287 -2.4852  0.1436
 1567SOL     OW 6120   0.475   3.211   5.859 -0.3601  0.1155  0.4999
 1567SOL    HW1 6121   0.474   3.222   5.954  2.9025  1.0213  0.5740
 1567SOL    HW2 6122   0.408   3.271   5.827 -1.8789 -0.5842  2.2012
 1568SOL     OW 6123   3.750   8.149   2.342 -0.2690  0.1241  0.0491
 1568SOL    HW1 6124   3.739   8.153   2.247 -0.4632  1.2493  0.0992
 1568SOL    HW2 6125   3.840   8.117   2.355  0.3838  1.5814 -0.5655
 1569SOL     OW 6126   4.973   6.697   7.779  0.1226  0.0418  0.7858
 1569SOL    HW1 6127   4.882   6.721   7.798  0.5596  0.3375  2.6670
 1569SOL    HW2 6128   5.019   6.781   7.772  0.2268 -0.0968 -0.4811
 1570SOL     OW 6129   8.021   0.741   7.569  0.2038 -0.0021 -0.1655
 1570SOL    HW1 6130   8.063   0.767   7.651  0.6303 -0.1585 -0.3277
 1570SOL    HW2 6131   8.082   0.678   7.530  0.1394  0.2691 -0.7232
 1571SOL     OW 6132   7.890   0.305   1.647 -0.0132 -0.2034 -0.4397
 1571SOL    HW1 6133   7.946   0.382   1.647 -0.1310 -0.0487 -3.0446
 1571SOL    HW2 6134   7.823   0.323   1.581 -0.2554 -2.3790 -0.8640
 1572SOL     OW 6135   5.620   2.304   6.178 -0.0710  0.2089 -0.0502
 1572SOL    HW1 6136   5.536   2.329   6.215  0.3190 -0.0151  1.0399
 1572SOL    HW2 6137   5.601   2.282   6.086 -1.0616  0.8184  0.0004
 1573SOL     OW 6138   4.824   0.752   4.786  0.0500 -0.1483  0.3475
 1573SOL    HW1 6139   4.776   0.789   4.860  0.4550 -0.9843  1.0480
 1573SOL    HW2 6140   4.911   0.731   4.821  1.0524  1.5412 -0.9484
 1574SOL     OW 6141   6.798   4.339   5.086 -0.1525 -0.4247 -0.2422
 1574SOL    HW1 6142   6.823   4.414   5.032 -1.8657  1.2325  1.1541
 1574SOL    HW2 6143   6.880   4.311   5.127  0.4725  0.9206 -0.5101
 1575SOL     OW 6144   3.783   1.210   3.496 -0.2949  0.1602 -0.2047
 1575SOL    HW1 6145   3.857   1.169   3.542 -1.4205 -1.7681 -0.0140
 1575SOL    HW2 6146   3.777   1.162   3.413 -1.1263  0.5199 -0.3555
 1576SOL     OW 6147   6.266   2.208   3.688 -0.3678  0.0038  0.5386
 1576SOL    HW1 6148   6.253   2.301   3.669 -2.8372 -0.3591  0.0835
 1576SOL    HW2 6149   6.244   2.164   3.606  0.6302 -1.0112  0.7920
 1577SOL     OW 6150   3.402   7.454   3.372  0.8415 -0.0805 -0.2577
 1577SOL    HW1 6151   3.318   7.456   3.418  0.8711 -0.1605 -0.1999
 1577SOL    HW2 6152   3.466   7.479   3.439  1.3116 -3.2793  0.6670
 1578SOL     OW 6153   8.103   6.757   1.723  0.3346 -0.5940 -0.7622
 1578SOL    HW1 6154   8.173   6.696   1.702  0.0230 -1.0205 -0.5630
 1578SOL    HW2 6155   8.140   6.843   1.703  0.8538 -0.8268 -0.8220
 1579SOL     OW 6156   3.801   7.874   1.164 -0.5848 -0.1117  0.0644
 1579SOL    HW1 6157   3.850   7.920   1.095  2.8945  1.0417  2.9636
 1579SOL    HW2 6158   3.736   7.939   1.194 -1.9440 -0.5309 -1.8039
 1580SOL     OW 6159   6.463   4.375   1.172 -1.0112 -0.4992  0.3703
 1580SOL    HW1 6160   6.499   4.343   1.089 -0.0771  0.2746  0.4563
 1580SOL    HW2 6161   6.372   4.346   1.171 -0.4840 -2.3012  0.0194
 1581SOL     OW 6162   7.284   1.596   3.204  0.5714  0.2590 -0.0991
 1581SOL    HW1 6163   7.335   1.520   3.232 -0.4368 -0.0855  0.8795
 1581SOL    HW2 6164   7.275   1.585   3.110  0.5421 -0.7688  0.0131
 1582SOL     OW 6165   8.151   3.853   4.479  0.0219  0.0945 -0.1521
 1582SOL    HW1 6166   8.098   3.932   4.471 -1.2896 -0.5375  1.6944
 1582SOL    HW2 6167   8.158   3.837   4.573  3.5226  0.1124 -0.2562
 1583SOL     OW 6168   8.064   2.847   5.407 -0.5233  0.3750  0.3939
 1583SOL    HW1 6169   8.061   2.759   5.369  0.6408  0.3186  0.3912
 1583SOL    HW2 6170   7.974   2.865   5.433 -0.7973 -0.7848  0.3082
 1584SOL     OW 6171   7.359   3.388   8.025  0.4038 -0.1091  0.7825
 1584SOL    HW1 6172   7.299   3.374   8.098  0.8910  0.3294  1.2777
 1584SOL    HW2 6173   7.315   3.454   7.970 -0.6898 -1.5797 -0.1814
 1585SOL     OW 6174   1.409   7.052   5.268 -0.3545 -0.3392 -0.3886
 1585SOL    HW1 6175   1.364   7.040   5.184  0.8906 -0.1428 -1.0988
 1585SOL    HW2 6176   1.340   7.083   5.327 -1.1410  0.0361 -1.4680
 1586SOL     OW 6177   7.002   2.778   4.679  0.1180  0.4764 -0.5128
 1586SOL    HW1 6178   7.030   2.796   4.768  0.2478 -0.5030 -0.3426
 1586SOL    HW2 6179   7.043   2.694   4.657 -0.2919  0.4701 -1.3187
 1587SOL     OW 6180   5.794   4.466   7.815  0.1048 -0.1594 -0.2585
 1587SOL    HW1 6181   5.752   4.533   7.869  0.2527  0.8958 -1.4330
 1587SOL    HW2 6182   5.887   4.489   7.815 -0.0359  0.5259 -1.8547
 1588SOL     OW 6183   0.127   8.152   7.705 -0.7956  0.4169 -0.4629
 1588SOL    HW1 6184   0.036   8.123   7.703 -1.1343  1.3138  0.9420
 1588SOL    HW2 6185   0.141   8.182   7.795  0.7024  0.8770 -0.8207
 1589SOL     OW 6186   3.211   5.578   2.057  0.6283  0.0072 -0.4968
 1589SOL    HW1 6187   3.222   5.494   2.101 -0.5380  0.3962  0.5878
 1589SOL    HW2 6188   3.125   5.573   2.016  1.1175  0.1853 -1.5774
 1590SOL     OW 6189   3.696   1.306   1.661  0.3404 -0.0041  0.0403
 1590SOL    HW1 6190   3.659   1.373   1.603  1.5461  0.5798 -0.0835
 1590SOL    HW2 6191   3.779   1.281   1.619  0.0550 -1.3781  0.2358
 1591SOL     OW 6192   5.246   4.317   1.410  0.1111 -0.0593  0.2050
 1591SOL    HW1 6193   5.328   4.268   1.407 -0.9900 -2.0005  0.1448
 1591SOL    HW2 6194   5.201   4.283   1.488 -1.0660  0.2137 -0.3414
 1592SOL     OW 6195   1.118   4.013   7.784 -0.8003  0.3736  0.1444
 1592SOL    HW1 6196   1.188   4.051   7.732 -0.2877  0.1147  0.6365
 1592SOL    HW2 6197   1.040   4.063   7.760  0.1296  2.8332  1.9340
 1593SOL     OW 6198   2.999   6.019   5.999  0.6461 -0.7952  0.1075
 1593SOL    HW1 6199   2.974   6.076   6.072 -1.8670 -0.7509 -0.6873
 1593SOL    HW2 6200   3.072   5.966   6.033 -0.5695 -0.9222  2.7355
 1594SOL     OW 6201   2.431   6.318   1.210  0.2261 -0.1746 -0.3069
 1594SOL    HW1 6202   2.421   6.333   1.116  0.9749  1.6482 -0.1341
 1594SOL    HW2 6203   2.391   6.395   1.251  2.2677  0.3725  0.7726
 1595SOL     OW 6204   1.129   4.130   5.078 -0.1303  0.1668 -0.1717
 1595SOL    HW1 6205   1.140   4.108   4.985  2.5166  0.7101 -0.0767
 1595SOL    HW2 6206   1.088   4.216   5.077  1.7060  1.0881 -0.9606
 1596SOL     OW 6207   5.815   4.591   6.450  0.0281  0.1424 -0.1003
 1596SOL    HW1 6208   5.760   4.668   6.465 -0.7654 -0.4132 -0.1184
 1596SOL    HW2 6209   5.759   4.530   6.402  1.7801  1.0383 -3.6433
 1597SOL     OW 6210   4.095   6.718   8.141  0.4096  0.2081  0.3874
 1597SOL    HW1 6211   4.075   6.788   8.203 -1.3453  1.4210 -1.4327
 1597SOL    HW2 6212   4.013   6.669   8.133  0.6812 -0.0932 -0.7405
 1598SOL     OW 6213   2.957   5.733   1.203  0.4302 -0.6590  0.1234
 1598SOL    HW1 6214   2.923   5.805   1.255  0.6763 -0.1949 -0.3563
 1598SOL    HW2 6215   2.880   5.689   1.168  0.3024  0.5753 -1.2124
 1599SOL     OW 6216   5.326   5.602   6.340 -0.0211  0.0189 -0.2042
 1599SOL    HW1 6217   5.347   5.628   6.429  2.2822 -4.1037  0.7376
 1599SOL    HW2 6218   5.399   5.633   6.288 -1.6058  2.8684 -0.9255
 1600SOL     OW 6219   7.937   6.867   6.741  0.0539  0.1075  0.6539
 1600SOL    HW1 6220   8.014   6.909   6.781 -1.0866  2.0995  0.9008
 1600SOL    HW2 6221   7.870   6.871   6.809 -0.7134 -0.1998 -0.0742
 1601SOL     OW 6222   2.030   3.143   2.848  0.1122 -0.3338  0.3535
 1601SOL    HW1 6223   2.041   3.053   2.877  0.9460 -1.0010 -1.8015
 1601SOL    HW2 6224   1.936   3.155   2.842 -0.0047 -1.1460  0.4484
 1602SOL     OW 6225   2.810   5.549   1.009  0.3734 -0.1314  0.0993
 1602SOL    HW1 6226   2.777   5.605   0.938 -1.0909 -1.6113 -0.4465
 1602SOL    HW2 6227   2.900   5.529   0.984  0.0298 -0.2347 -1.1138
 1603SOL     OW 6228   6.097   0.388   3.849  0.2656 -0.3269  0.2066
 1603SOL    HW1 6229   6.094   0.293   3.859 -3.5315 -0.4907 -0.9819
 1603SOL    HW2 6230   6.021   0.420   3.897  0.9024  2.0418 -0.2276
 1604SOL     OW 6231   3.085   1.490   3.142 -0.0247  0.0570  0.3488
 1604SOL    HW1 6232   3.030   1.546   3.086  0.2756 -0.5066 -0.5358
 1604SOL    HW2 6233   3.031   1.414   3.162  0.9140 -1.3093 -1.9038
 1605SOL     OW 6234   6.873   7.183   1.582 -0.0566 -0.3748 -0.2847
 1605SOL    HW1 6235   6.821   7.255   1.545  0.8621  0.0307 -0.8285
 1605SOL    HW2 6236   6.825   7.104   1.559 -2.1593  0.0977  2.0328
 1606SOL     OW 6237   3.292   5.689   3.447 -0.2989 -0.1536 -0.3783
 1606SOL    HW1 6238   3.349   5.684   3.370 -0.1712 -1.3224 -0.2252
 1606SOL    HW2 6239   3.315   5.612   3.499 -0.9023  0.2273  0.4738
 1607SOL     OW 6240   6.518   1.837   5.299 -0.2871 -0.1515  0.1996
 1607SOL    HW1 6241   6.532   1.812   5.390 -1.5085  1.6804  0.9248
 1607SOL    HW2 6242   6.448   1.779   5.268 -0.2890 -0.3621  0.5965
 1608SOL     OW 6243   7.961   5.595   0.663 -0.2792  0.1308  0.2582
 1608SOL    HW1 6244   8.045   5.636   0.683 -0.0256  0.1424 -0.7498
 1608SOL    HW2 6245   7.912   5.599   0.744  1.0858 -0.8420  1.1809
 1609SOL     OW 6246   3.060   6.600   7.588 -0.2018  0.5381 -0.1212
 1609SOL    HW1 6247   3.113   6.520   7.590 -1.8368 -0.5981 -0.0610
 1609SOL    HW2 6248   3.083   6.642   7.505 -1.4784 -1.5944 -1.6742
 1610SOL     OW 6249   0.649   8.367   4.956  0.2806 -0.2242 -0.7770
 1610SOL    HW1 6250   0.677   8.312   4.884  0.1228 -0.8339 -0.3764
 1610SOL    HW2 6251   0.588   8.429   4.917  0.5563 -0.2520 -1.2518
 1611SOL     OW 6252   6.896   1.327   8.331  0.0011  0.2847 -0.1149
 1611SOL    HW1 6253   6.860   1.409   8.363 -0.4762  0.9072 -2.1526
 1611SOL    HW2 6254   6.841   1.302   8.257  2.0171 -0.1959 -1.5487
 1612SOL     OW 6255   2.186   1.747   2.087  0.3317 -1.0236  0.0707
 1612SOL    HW1 6256   2.130   1.704   2.152 -0.8218  0.5838  0.2010
 1612SOL    HW2 6257   2.262   1.777   2.136 -0.3938 -0.0797  0.6502
 1613SOL     OW 6258   1.583   1.264   2.591  0.4760 -0.2995 -0.0880
 1613SOL    HW1 6259   1.536   1.221   2.663 -2.9422  0.4312 -1.6848
 1613SOL    HW2 6260   1.599   1.194   2.528  0.2117 -0.2747 -0.1811
 1614SOL     OW 6261   0.617   4.147   6.082  0.1693  0.3500  0.1540
 1614SOL    HW1 6262   0.545   4.192   6.036 -0.7238 -0.0551  1.1274
 1614SOL    HW2 6263   0.696   4.175   6.035 -0.3371  2.9542  0.7210
 1615SOL     OW 6264   6.972   2.947   1.398 -0.2717 -0.0892  0.3832
 1615SOL    HW1 6265   6.894   2.963   1.450 -0.8694  0.8658 -0.7656
 1615SOL    HW2 6266   6.942   2.951   1.307  0.5172 -2.7970 -0.1081
 1616SOL     OW 6267   4.447   2.360   2.865  0.3137  0.3586  0.0141
 1616SOL    HW1 6268   4.475   2.304   2.792 -0.5751 -1.5040  1.0386
 1616SOL    HW2 6269   4.524   2.367   2.921  0.7038  0.9718 -0.5801
 1617SOL     OW 6270   4.026   2.368   8.157  0.0448  0.4517  0.0970
 1617SOL    HW1 6271   4.037   2.284   8.112 -1.2055  0.0816  0.4412
 1617SOL    HW2 6272   4.067   2.354   8.243 -0.8188 -0.0680  0.4338
 1618SOL     OW 6273   4.636   2.286   8.345  0.1804 -0.3785  0.3996
 1618SOL    HW1 6274   4.721   2.243   8.333  0.2924 -0.5051  1.5122
 1618SOL    HW2 6275   4.642   2.325   8.432 -0.6894  0.1166  0.2429
 1619SOL     OW 6276   3.761   6.453   6.073  0.4492  0.2688 -0.5558
 1619SOL    HW1 6277   3.817   6.402   6.013  3.2187  0.8797  1.3040
 1619SOL    HW2 6278   3.775   6.544   6.047  0.2381  0.4282 -0.1253
 1620SOL     OW 6279   4.282   7.383   4.746 -0.3864 -0.1219  0.0115
 1620SOL    HW1 6280   4.244   7.374   4.659 -0.4535 -0.3403  0.0615
 1620SOL    HW2 6281   4.347   7.312   4.751  1.8570  1.7187 -1.0049
 1621SOL     OW 6282   3.439   1.959   1.054 -0.3362  0.1427  0.0579
 1621SOL    HW1 6283   3.399   1.881   1.014 -1.4305  1.6887 -2.0211
 1621SOL    HW2 6284   3.367   2.000   1.102  0.4881 -0.6127  2.0258
 1622SOL     OW 6285   3.852   2.676   2.298  0.1225 -0.6964 -0.2842
 1622SOL    HW1 6286   3.780   2.672   2.235 -0.3888 -1.6666  0.3281
 1622SOL    HW2 6287   3.808   2.677   2.383  0.8175 -0.2908  0.0722
 1623SOL     OW 6288   0.696   2.478   7.990  0.0798  0.0079  0.4616
 1623SOL    HW1 6289   0.656   2.529   7.919 -0.2365 -0.0559  0.5901
 1623SOL    HW2 6290   0.621   2.440   8.037  0.1861  1.6240  2.0171
 1624SOL     OW 6291   3.450   6.627   0.747  0.0072 -0.0284 -0.2721
 1624SOL    HW1 6292   3.485   6.663   0.829  1.4053  0.6399 -1.1217
 1624SOL    HW2 6293   3.488   6.540   0.741  0.7529  0.3124 -0.6914
 1625SOL     OW 6294   7.325   7.917   5.771 -0.0710  0.5071  0.2921
 1625SOL    HW1 6295   7.352   7.991   5.716 -0.2748  0.1123 -0.3397
 1625SOL    HW2 6296   7.363   7.840   5.729  0.2840  0.2591  1.0416
 1626SOL     OW 6297   6.105   6.487   7.602  0.1567 -0.2070 -0.4450
 1626SOL    HW1 6298   6.183   6.435   7.623 -0.9308 -0.5158  3.7005
 1626SOL    HW2 6299   6.093   6.543   7.678 -3.3912  0.1915 -1.1475
 1627SOL     OW 6300   5.473   0.215   5.137 -0.0143  0.3210 -0.5888
 1627SOL    HW1 6301   5.557   0.195   5.095  1.4791  0.3349  2.1175
 1627SOL    HW2 6302   5.426   0.132   5.136 -0.0784  0.3522 -2.3129
 1628SOL     OW 6303   5.083   4.441   0.259  0.2703  0.9930  0.1909
 1628SOL    HW1 6304   5.118   4.507   0.318  1.3476  1.8805 -1.3699
 1628SOL    HW2 6305   5.159   4.407   0.213 -0.2036 -1.5647  1.0904
 1629SOL     OW 6306   7.428   4.622   7.556  0.1864 -0.4883 -0.2540
 1629SOL    HW1 6307   7.427   4.697   7.496  1.6378 -1.3194 -1.3627
 1629SOL    HW2 6308   7.502   4.638   7.614 -0.2559 -0.4747  0.3241
 1630SOL     OW 6309   5.215   1.079   4.977 -0.2752  0.1593  0.0089
 1630SOL    HW1 6310   5.156   1.152   4.996  0.8355  0.4497  2.8067
 1630SOL    HW2 6311   5.290   1.119   4.933 -0.8116  0.2604 -0.8284
 1631SOL     OW 6312   4.472   5.419   8.332 -0.0761  0.1590 -0.0392
 1631SOL    HW1 6313   4.482   5.436   8.426  1.3107  1.7700 -0.4363
 1631SOL    HW2 6314   4.506   5.331   8.320 -0.9364 -0.3564  1.0593
 1632SOL     OW 6315   5.082   3.473   7.569 -0.1436 -0.4037  0.1945
 1632SOL    HW1 6316   5.115   3.469   7.658  0.4829 -1.6282 -0.0778
 1632SOL    HW2 6317   5.007   3.532   7.574  0.7989  0.7690  1.2277
 1633SOL     OW 6318   0.935   0.115   4.360  0.0045 -0.1147 -0.0763
 1633SOL    HW1 6319   0.922   0.117   4.265 -0.0073  0.3921 -0.0688
 1633SOL    HW2 6320   0.966   0.203   4.382  0.0607 -0.2434  0.3840
 1634SOL     OW 6321   6.100   2.362   1.383 -0.6775 -0.1533 -0.1274
 1634SOL    HW1 6322   6.105   2.280   1.332 -2.3164  0.8931 -2.1600
 1634SOL    HW2 6323   6.018   2.354   1.432 -0.6749  0.1333 -0.0781
 1635SOL     OW 6324   6.921   2.890   4.420  0.0352  0.4131  0.1974
 1635SOL    HW1 6325   6.841   2.943   4.425  0.4656  1.0438  0.5373
 1635SOL    HW2 6326   6.922   2.842   4.503 -1.2909 -1.5399 -0.8371
 1636SOL     OW 6327   5.860   0.553   4.823  0.0359 -0.4927 -0.1191
 1636SOL    HW1 6328   5.848   0.493   4.896  2.6732  1.0348  1.7306
 1636SOL    HW2 6329   5.916   0.505   4.761 -0.1350 -0.9066  0.0468
 1637SOL     OW 6330   6.705   2.634   8.093 -0.0878 -0.1379 -0.4596
 1637SOL    HW1 6331   6.797   2.635   8.117  0.0572  0.1162 -1.0186
 1637SOL    HW2 6332   6.659   2.625   8.176  0.4012  0.7679 -0.0827
 1638SOL     OW 6333   1.770   3.021   6.363  0.1671  0.3706  1.0073
 1638SOL    HW1 6334   1.723   3.053   6.440 -0.1098 -0.2054  1.0787
 1638SOL    HW2 6335   1.712   2.956   6.324  0.0754  1.0244  0.0086
 1639SOL     OW 6336   2.055   0.155   1.636 -0.2251  0.0898  0.2754
 1639SOL    HW1 6337   2.007   0.238   1.637  1.1554  0.9366 -0.3376
 1639SOL    HW2 6338   2.139   0.176   1.594 -0.5366 -2.0061 -1.6065
 1640SOL     OW 6339   6.345   3.457   7.911 -0.1970  0.0504 -0.0916
 1640SOL    HW1 6340   6.308   3.545   7.905 -2.6499 -0.9335 -0.8972
 1640SOL    HW2 6341   6.437   3.470   7.932 -0.7566  2.7587  1.0575
 1641SOL     OW 6342   7.357   8.009   2.691  0.2267 -0.0398  0.2404
 1641SOL    HW1 6343   7.378   8.029   2.782  0.2650  1.9770 -0.1560
 1641SOL    HW2 6344   7.270   8.046   2.678  0.4518  0.1937 -0.6749
 1642SOL     OW 6345   3.062   2.045   7.946 -0.1714 -0.4126  0.3947
 1642SOL    HW1 6346   3.087   2.064   8.036 -1.8089 -1.8793  1.1941
 1642SOL    HW2 6347   3.123   2.098   7.893 -0.0770  1.5454  2.3423
 1643SOL     OW 6348   4.203   7.666   6.923  0.3934 -0.0807  0.2477
 1643SOL    HW1 6349   4.131   7.603   6.926 -0.7045  0.9288 -2.0809
 1643SOL    HW2 6350   4.161   7.751   6.940  1.5531  0.2602  1.6225
 1644SOL     OW 6351   7.626   0.089   0.500 -0.0238  0.6287 -0.0407
 1644SOL    HW1 6352   7.643   0.181   0.515 -2.5171  1.3974 -1.3224
 1644SOL    HW2 6353   7.634   0.078   0.405  0.8945 -0.6451  0.1549
 1645SOL     OW 6354   0.112   0.303   2.159  0.1230  0.2620 -0.6269
 1645SOL    HW1 6355   0.020   0.279   2.171  0.1509  0.7502  0.7188
 1645SOL    HW2 6356   0.110   0.397   2.138  0.3287  0.3778 -0.1456
 1646SOL     OW 6357   5.199   4.451   3.570 -0.0039 -0.1479  0.0123
 1646SOL    HW1 6358   5.243   4.534   3.552 -2.5780  1.2534 -0.4419
 1646SOL    HW2 6359   5.230   4.392   3.502  1.4963  0.5979  0.0169
 1647SOL     OW 6360   6.872   6.080   7.020  0.4639 -0.0896 -0.0995
 1647SOL    HW1 6361   6.959   6.040   7.014  1.4753  1.7571  1.4433
 1647SOL    HW2 6362   6.820   6.016   7.069  1.8230  0.0769  1.6389
 1648SOL     OW 6363   6.980   6.366   2.674  0.1834  0.2686  0.1161
 1648SOL    HW1 6364   6.903   6.309   2.669  1.3835 -1.3921 -0.0491
 1648SOL    HW2 6365   7.027   6.351   2.593  1.3341  0.2939  0.7577
 1649SOL     OW 6366   1.156   5.392   0.040 -0.0263  0.4841 -0.0798
 1649SOL    HW1 6367   1.227   5.454   0.059  1.2785 -0.9044 -0.2612
 1649SOL    HW2 6368   1.148   5.392  -0.055  1.5881 -1.2832 -0.2721
 1650SOL     OW 6369   3.306   2.830   3.227 -0.3875  0.0557  0.5965
 1650SOL    HW1 6370   3.237   2.876   3.180  1.1012 -0.9949 -2.9478
 1650SOL    HW2 6371   3.378   2.893   3.231 -0.1464 -0.2097  0.5096
 1651SOL     OW 6372   1.032   7.625   1.123 -0.0507  0.3237  0.4498
 1651SOL    HW1 6373   1.078   7.633   1.207  1.4926 -1.5590 -0.1547
 1651SOL    HW2 6374   1.073   7.551   1.080 -0.5576  1.4664 -2.1642
 1652SOL     OW 6375   8.010   6.470   7.104 -0.4889 -0.3049  0.2650
 1652SOL    HW1 6376   7.972   6.546   7.060 -0.4883  0.7810  2.0561
 1652SOL    HW2 6377   8.082   6.506   7.156  1.3380 -1.9475 -1.0008
 1653SOL     OW 6378   0.562   1.542   6.701 -0.3334 -0.1878 -0.2729
 1653SOL    HW1 6379   0.477   1.539   6.744  0.6345  0.5537  1.8412
 1653SOL    HW2 6380   0.574   1.635   6.679  0.0262 -0.2434 -0.3237
 1654SOL     OW 6381   7.773   0.054   5.621 -0.0356 -0.4410 -0.2067
 1654SOL    HW1 6382   7.734   0.134   5.584  1.8305  0.7135  0.1637
 1654SOL    HW2 6383   7.706  -0.013   5.610 -1.4058  1.0141 -1.1791
 1655SOL     OW 6384   3.798   4.324   0.143 -0.1723  0.2216  0.1493
 1655SOL    HW1 6385   3.837   4.407   0.114 -0.4957  0.2073 -0.3413
 1655SOL    HW2 6386   3.737   4.348   0.212  0.8052  0.2291  1.0362
 1656SOL     OW 6387   7.522   7.899   1.053  0.3011  0.4055 -0.0263
 1656SOL    HW1 6388   7.478   7.929   0.974 -0.5433  2.0850  1.0165
 1656SOL    HW2 6389   7.608   7.869   1.024 -0.0376  0.8863 -1.5741
 1657SOL     OW 6390   2.336   7.886   1.209  0.0334  0.1944 -0.3091
 1657SOL    HW1 6391   2.385   7.807   1.183 -0.0311  0.6977 -2.1384
 1657SOL    HW2 6392   2.403   7.949   1.234  0.3642  0.6708 -2.1996
 1658SOL     OW 6393   4.212   7.563   5.162 -0.0023 -0.0434  0.2843
 1658SOL    HW1 6394   4.236   7.589   5.073  3.2725 -1.9617  0.4237
 1658SOL    HW2 6395   4.290   7.582   5.215 -1.3296 -0.2617  2.4653
 1659SOL     OW 6396   0.159   1.888   6.887 -0.1797  0.1329  0.4141
 1659SOL    HW1 6397   0.098   1.957   6.913 -2.0392 -0.7113 -1.3750
 1659SOL    HW2 6398   0.110   1.807   6.900  0.3605 -0.5501 -1.4541
 1660SOL     OW 6399   6.347   2.930   7.860  0.3562  0.0326 -0.3463
 1660SOL    HW1 6400   6.415   2.874   7.897  0.3101 -1.2931 -2.1005
 1660SOL    HW2 6401   6.266   2.880   7.869 -0.0117  0.6221 -0.2892
 1661SOL     OW 6402   3.112   8.106   0.840 -0.0551 -0.0477  0.2141
 1661SOL    HW1 6403   3.068   8.023   0.824 -2.6720  1.4844 -1.3507
 1661SOL    HW2 6404   3.042   8.172   0.833  2.0314  2.3744  0.5317
 1662SOL     OW 6405   0.124   3.775   1.445  0.4864 -0.0708 -0.8836
 1662SOL    HW1 6406   0.100   3.701   1.388  0.2529 -0.7772  0.1108
 1662SOL    HW2 6407   0.049   3.834   1.440  0.4458 -0.1462 -1.2662
 1663SOL     OW 6408   3.213   6.664   3.574  0.3309  0.4419  0.0842
 1663SOL    HW1 6409   3.153   6.628   3.509  1.4970  0.4122 -1.0307
 1663SOL    HW2 6410   3.281   6.597   3.583  1.4144  1.4334 -0.4329
 1664SOL     OW 6411   1.365   7.978   3.299 -0.2209 -0.4177 -0.4185
 1664SOL    HW1 6412   1.391   7.904   3.245 -2.4762 -0.4071 -1.6315
 1664SOL    HW2 6413   1.319   7.939   3.374  0.0440 -0.3076 -0.1974
 1665SOL     OW 6414   0.752   6.540   7.582  0.0881 -0.2208 -0.9670
 1665SOL    HW1 6415   0.739   6.465   7.525 -0.6448 -0.3829 -0.5997
 1665SOL    HW2 6416   0.765   6.503   7.669  0.5499  0.0478 -0.9187
 1666SOL     OW 6417   3.087   1.251   1.737  0.0680 -0.4653  0.1106
 1666SOL    HW1 6418   3.020   1.317   1.721  0.3402  0.2217  1.6085
 1666SOL    HW2 6419   3.170   1.298   1.723  0.2674 -1.0117 -0.6329
 1667SOL     OW 6420   3.445   1.359   3.993 -0.5661 -0.3073 -0.8326
 1667SOL    HW1 6421   3.439   1.400   3.907 -0.6311 -1.2516 -1.2854
 1667SOL    HW2 6422   3.355   1.336   4.015 -0.8413  1.7023  0.3931
 1668SOL     OW 6423   3.879   2.392   7.261  0.5221 -0.6908 -0.3228
 1668SOL    HW1 6424   3.885   2.328   7.191  2.1788 -2.9480  1.6730
 1668SOL    HW2 6425   3.953   2.371   7.319  0.8755  2.7574  0.7445
 1669SOL     OW 6426   4.661   1.554   6.280 -0.1601  0.6432 -0.1967
 1669SOL    HW1 6427   4.577   1.578   6.321 -0.3797  0.1143 -0.3238
 1669SOL    HW2 6428   4.710   1.636   6.276 -0.0782  0.6903  1.2408
 1670SOL     OW 6429   1.983   6.965   2.164  0.1994  0.3197 -0.0996
 1670SOL    HW1 6430   1.929   6.937   2.090 -0.4373 -1.1085  0.8669
 1670SOL    HW2 6431   1.923   7.018   2.218 -1.3024 -3.5544  2.4465
 1671SOL     OW 6432   1.581   6.547   4.445  1.1742 -0.6727  0.5021
 1671SOL    HW1 6433   1.502   6.552   4.500  0.9853 -0.4382  0.2132
 1671SOL    HW2 6434   1.567   6.470   4.389 -0.8911  1.7007 -2.6166
 1672SOL     OW 6435   1.684   6.855   0.422 -0.2408 -0.1229 -0.4058
 1672SOL    HW1 6436   1.730   6.934   0.391  2.4268 -0.3731  2.4759
 1672SOL    HW2 6437   1.639   6.883   0.502 -1.4273 -0.9945 -0.7314
 1673SOL     OW 6438   7.335   4.925   8.031  0.5813  0.0344  0.7464
 1673SOL    HW1 6439   7.381   4.961   7.956  0.5570 -0.1343  0.6496
 1673SOL    HW2 6440   7.260   4.982   8.044  1.1186  0.6514  1.2542
 1674SOL     OW 6441   7.498   7.601   3.186 -0.0303  0.3389 -0.5616
 1674SOL    HW1 6442   7.459   7.681   3.151  0.7834  0.5592 -0.9762
 1674SOL    HW2 6443   7.545   7.630   3.264 -0.9023  0.0259  0.1047
 1675SOL     OW 6444   4.119   5.059   6.893  0.3984 -0.4822 -0.2333
 1675SOL    HW1 6445   4.058   5.017   6.954 -0.9895  0.4448 -0.9469
 1675SOL    HW2 6446   4.190   5.091   6.950 -1.2878  1.1468  1.0830
 1676SOL     OW 6447   0.497   7.983   2.223 -0.2018  0.0781 -0.2466
 1676SOL    HW1 6448   0.444   8.003   2.146  0.4629 -0.0246 -0.7425
 1676SOL    HW2 6449   0.466   8.044   2.290 -0.2016  0.7604 -0.8549
 1677SOL     OW 6450   6.602   3.154   2.413 -0.3236 -0.3347  0.1853
 1677SOL    HW1 6451   6.541   3.211   2.366 -0.3069  0.3935  1.0259
 1677SOL    HW2 6452   6.680   3.208   2.427 -0.8286 -0.0551  2.2131
 1678SOL     OW 6453   1.912   3.395   4.536 -0.0726  0.5648 -0.0028
 1678SOL    HW1 6454   1.939   3.409   4.445 -0.1706 -1.8647 -0.4843
 1678SOL    HW2 6455   1.859   3.471   4.557  0.6488  1.6120 -1.6789
 1679SOL     OW 6456   0.256   2.764   4.315 -0.2262  0.6941  0.2424
 1679SOL    HW1 6457   0.212   2.814   4.245  0.3878 -0.5563 -1.0933
 1679SOL    HW2 6458   0.205   2.683   4.321 -0.5554  0.9835  1.6208
 1680SOL     OW 6459   6.997   8.327   0.552 -0.0102  0.2553  0.2428
 1680SOL    HW1 6460   6.927   8.382   0.586  1.3633  0.5489  2.8601
 1680SOL    HW2 6461   6.963   8.238   0.558 -0.0922  0.3680  1.7700
 1681SOL     OW 6462   8.006   5.944   3.737  0.0001  0.5643 -0.6008
 1681SOL    HW1 6463   7.990   5.853   3.760  2.0683  0.5006  0.8223
 1681SOL    HW2 6464   7.919   5.980   3.718 -0.8703 -1.6033 -0.9185
 1682SOL     OW 6465   7.645   8.231   4.746  0.1072 -0.0839  0.2076
 1682SOL    HW1 6466   7.682   8.173   4.679 -1.0511 -0.7810  0.1574
 1682SOL    HW2 6467   7.567   8.267   4.706 -0.2876 -0.0689  0.9798
 1683SOL     OW 6468   3.085   5.982   1.840  0.0760 -0.0069  0.2244
 1683SOL    HW1 6469   3.013   5.921   1.857 -0.7459  0.8549 -0.0876
 1683SOL    HW2 6470   3.151   5.930   1.794 -0.8150 -0.5404 -0.4723
 1684SOL     OW 6471   4.759   4.462   2.573  0.5996 -0.0100 -0.0477
 1684SOL    HW1 6472   4.838   4.408   2.580  1.1166  0.7204 -0.1229
 1684SOL    HW2 6473   4.789   4.543   2.531  0.1818  1.0110  1.5417
 1685SOL     OW 6474   6.346   8.253   5.848 -0.3453 -0.5236 -0.5345
 1685SOL    HW1 6475   6.253   8.274   5.848 -0.2581 -0.0579  1.0826
 1685SOL    HW2 6476   6.349   8.157   5.853 -0.7628 -0.4867  0.8273
 1686SOL     OW 6477   2.086   3.928   3.111  0.1953 -0.1131 -0.4137
 1686SOL    HW1 6478   2.028   3.853   3.095  1.9318 -2.0946  1.8864
 1686SOL    HW2 6479   2.096   3.969   3.025 -2.9639 -0.8404 -1.2655
 1687SOL     OW 6480   3.355   1.173   8.050  0.5912  0.8226  0.3800
 1687SOL    HW1 6481   3.406   1.234   8.102  0.3232  0.2700  1.3116
 1687SOL    HW2 6482   3.383   1.190   7.960  0.2740  2.5239  0.5695
 1688SOL     OW 6483   7.460   7.003   4.534  0.1302 -0.3230  0.1953
 1688SOL    HW1 6484   7.525   7.049   4.482  0.1479 -0.3604  0.1844
 1688SOL    HW2 6485   7.483   6.911   4.526 -1.0043 -0.5159 -1.3264
 1689SOL     OW 6486   0.879   7.680   4.398  0.8310  0.3046 -0.0805
 1689SOL    HW1 6487   0.784   7.667   4.395  0.7886 -0.6608  2.6255
 1689SOL    HW2 6488   0.893   7.769   4.365 -1.1865  1.0577  0.9783
 1690SOL     OW 6489   1.151   7.742   4.274  0.7228 -0.0547 -0.0375
 1690SOL    HW1 6490   1.078   7.801   4.292  0.4266 -0.8022  1.3597
 1690SOL    HW2 6491   1.112   7.670   4.224  0.8801  0.4213 -0.8581
 1691SOL     OW 6492   2.054   1.119   5.097  0.1058  0.0703 -0.3387
 1691SOL    HW1 6493   2.018   1.045   5.147  1.5811 -1.4607 -1.4345
 1691SOL    HW2 6494   2.009   1.115   5.013 -2.0625  2.3903  0.5806
 1692SOL     OW 6495   6.414   7.354   7.494  0.5755  0.0071 -0.2320
 1692SOL    HW1 6496   6.373   7.271   7.468  0.1894  0.1038  0.0466
 1692SOL    HW2 6497   6.360   7.385   7.567  2.9821 -1.4581  2.3706
 1693SOL     OW 6498   2.213   1.039   0.073 -0.0106  0.7738 -0.3169
 1693SOL    HW1 6499   2.256   1.007   0.152 -0.0753 -0.6805 -0.8428
 1693SOL    HW2 6500   2.273   1.106   0.038  2.2460 -1.6146 -1.3700
 1694SOL     OW 6501   4.056   2.995   1.672  0.1313 -0.3282  0.2394
 1694SOL    HW1 6502   3.961   3.006   1.678 -0.0752 -0.8106 -1.6305
 1694SOL    HW2 6503   4.088   3.082   1.648 -0.2108 -0.8083 -2.2149
 1695SOL     OW 6504   0.607   0.533   0.772  0.4401  0.3597  0.0517
 1695SOL    HW1 6505   0.516   0.509   0.757  0.6268 -0.9283  0.8523
 1695SOL    HW2 6506   0.642   0.464   0.828  2.1298  0.3944 -0.8624
 1696SOL     OW 6507   7.261   2.670   1.871 -0.6044 -0.2329  0.4453
 1696SOL    HW1 6508   7.179   2.710   1.841 -0.1655  1.7721  1.6860
 1696SOL    HW2 6509   7.236   2.617   1.947 -0.7456  0.7493  1.1118
 1697SOL     OW 6510   4.310   4.818   4.248 -0.5521 -0.0559  0.4003
 1697SOL    HW1 6511   4.268   4.806   4.333  1.0602 -0.4604  1.1709
 1697SOL    HW2 6512   4.335   4.910   4.246 -0.4732 -0.0768  0.4206
 1698SOL     OW 6513   0.345   2.640   7.332 -0.3583  0.2044  0.0021
 1698SOL    HW1 6514   0.413   2.624   7.266 -0.8236  0.9677 -0.6822
 1698SOL    HW2 6515   0.385   2.613   7.415  0.8834  0.9140 -0.3447
 1699SOL     OW 6516   2.878   4.630   8.130 -0.3688  0.3720 -0.3454
 1699SOL    HW1 6517   2.951   4.640   8.069  0.8445 -1.3282  0.7045
 1699SOL    HW2 6518   2.803   4.666   8.085  0.8994  1.0941 -1.9683
 1700SOL     OW 6519   1.492   5.889   1.940  0.2776 -0.1635  0.1333
 1700SOL    HW1 6520   1.536   5.838   2.008  0.6867  1.1062  0.8536
 1700SOL    HW2 6521   1.505   5.980   1.966 -0.8247  0.3094 -0.8739
 1701SOL     OW 6522   4.421   7.251   1.352  0.1502  0.0135 -0.6607
 1701SOL    HW1 6523   4.470   7.244   1.270 -0.0605  0.8224 -0.8660
 1701SOL    HW2 6524   4.356   7.319   1.335  0.4727  0.5966  0.3593
 1702SOL     OW 6525   5.894   1.578   1.201 -0.0292 -0.2954  0.0541
 1702SOL    HW1 6526   5.824   1.514   1.190 -0.9148  0.8629 -1.6980
 1702SOL    HW2 6527   5.908   1.613   1.113  1.6322  0.6782  0.6550
 1703SOL     OW 6528   7.983   8.349   8.333  0.1054  0.6538 -0.2483
 1703SOL    HW1 6529   7.912   8.345   8.269  0.6255  0.2176 -0.8062
 1703SOL    HW2 6530   8.020   8.436   8.323 -0.1901  0.7949 -0.1268
 1704SOL     OW 6531   4.260   7.595   1.824 -0.0288  0.2060 -0.4748
 1704SOL    HW1 6532   4.205   7.610   1.747  1.1201  1.0442 -1.1603
 1704SOL    HW2 6533   4.203   7.546   1.884 -1.9141  1.9949 -0.6821
 1705SOL     OW 6534   3.245   4.328   6.396 -0.0950  0.5927 -0.1437
 1705SOL    HW1 6535   3.239   4.240   6.359 -0.7052  0.7714 -0.4688
 1705SOL    HW2 6536   3.261   4.313   6.489  3.2397  0.1114 -0.6421
 1706SOL     OW 6537   3.629   1.358   1.225 -0.5913  0.1816 -0.1948
 1706SOL    HW1 6538   3.617   1.333   1.316  1.0063 -0.7588 -0.2006
 1706SOL    HW2 6539   3.580   1.440   1.216 -2.5422 -0.8139  0.9173
 1707SOL     OW 6540   6.914   8.213   3.541 -0.2487  0.2042  0.4894
 1707SOL    HW1 6541   6.872   8.263   3.611  1.4082  3.3573 -0.6118
 1707SOL    HW2 6542   6.843   8.194   3.479 -0.9413  1.1818  0.9587
 1708SOL     OW 6543   7.857   0.813   1.137 -0.5782  0.0051  0.6617
 1708SOL    HW1 6544   7.918   0.835   1.207 -0.2250  0.2466  0.2892
 1708SOL    HW2 6545   7.805   0.892   1.125  0.0115  0.3158  0.0087
 1709SOL     OW 6546   4.743   5.910   6.815  0.2918 -0.2257  0.2996
 1709SOL    HW1 6547   4.727   5.820   6.784  0.6282 -0.3565  0.5002
 1709SOL    HW2 6548   4.697   5.965   6.752 -0.0658 -0.5479  0.2746
 1710SOL     OW 6549   1.209   0.585   7.638  0.2342  0.7573  0.2371
 1710SOL    HW1 6550   1.250   0.563   7.555  0.5307 -0.6243  0.7272
 1710SOL    HW2 6551   1.279   0.622   7.691  0.1905  1.0392  0.1003
 1711SOL     OW 6552   3.758   5.937   1.707  0.2891  0.3887  0.3674
 1711SOL    HW1 6553   3.731   5.854   1.746 -0.6998  0.8553  0.7195
 1711SOL    HW2 6554   3.770   5.995   1.783  1.7924  0.3556  0.1859
 1712SOL     OW 6555   3.021   2.805   5.756 -0.1960 -1.0640  0.5822
 1712SOL    HW1 6556   3.095   2.863   5.775 -1.3623  0.6304  0.1883
 1712SOL    HW2 6557   3.017   2.801   5.661 -0.5292 -1.2814  0.6042
 1713SOL     OW 6558   6.578   1.471   2.828  0.1727  0.8838 -0.4070
 1713SOL    HW1 6559   6.554   1.379   2.830  0.1837  0.8942  0.9055
 1713SOL    HW2 6560   6.666   1.472   2.790  0.9014  0.1626  1.1831
 1714SOL     OW 6561   7.237   1.202   6.925 -0.3682  0.1152 -0.4190
 1714SOL    HW1 6562   7.260   1.110   6.938  0.1237  0.2845 -0.0538
 1714SOL    HW2 6563   7.165   1.218   6.986 -0.6518 -0.1006 -0.6942
 1715SOL     OW 6564   4.274   6.701   3.562  1.1669  0.1070  0.3887
 1715SOL    HW1 6565   4.215   6.730   3.632  0.3131  0.2130 -0.3657
 1715SOL    HW2 6566   4.352   6.671   3.609  0.7221  0.4278  1.3763
 1716SOL     OW 6567   0.201   4.379   3.132 -0.0128  0.1616 -0.3187
 1716SOL    HW1 6568   0.220   4.469   3.107  1.8780 -0.5334 -1.6130
 1716SOL    HW2 6569   0.129   4.353   3.074  0.1267  0.5276 -0.6636
 1717SOL     OW 6570   0.829   1.265   0.968 -0.0929  0.1729  0.3793
 1717SOL    HW1 6571   0.803   1.174   0.958  1.7899 -0.6069  1.7583
 1717SOL    HW2 6572   0.767   1.302   1.032  0.5397 -0.8799  1.6554
 1718SOL     OW 6573   3.603   0.910   0.589 -0.3329 -0.1725 -0.1593
 1718SOL    HW1 6574   3.562   0.914   0.502 -2.3199  0.1138  0.7209
 1718SOL    HW2 6575   3.576   0.826   0.624  0.0502 -0.0790  0.3700
 1719SOL     OW 6576   5.060   5.726   1.247  0.2893  0.5444  0.3461
 1719SOL    HW1 6577   5.042   5.656   1.309 -0.6631 -0.8029 -1.3649
 1719SOL    HW2 6578   5.156   5.730   1.242  0.4091 -1.9457 -0.8647
 1720SOL     OW 6579   7.289   4.328   2.260  0.2456  0.6911  0.5427
 1720SOL    HW1 6580   7.272   4.320   2.354 -1.2098 -3.0667  0.1065
 1720SOL    HW2 6581   7.210   4.369   2.225  0.2693  0.9602  0.7993
 1721SOL     OW 6582   0.665   2.044   4.413  0.1858 -0.1096  0.0855
 1721SOL    HW1 6583   0.610   2.115   4.380  0.4736  1.1798  2.1721
 1721SOL    HW2 6584   0.604   1.976   4.440 -0.1487 -0.2709 -1.0306
 1722SOL     OW 6585   4.553   2.718   1.861 -0.4027 -0.1220 -0.0372
 1722SOL    HW1 6586   4.632   2.679   1.823 -1.2226 -1.7791 -0.1201
 1722SOL    HW2 6587   4.586   2.770   1.935  0.8986  0.5753 -1.0598
 1723SOL     OW 6588   6.160   6.578   7.362  0.4022 -0.3544 -0.0380
 1723SOL    HW1 6589   6.118   6.531   7.435 -0.2140 -0.2850 -0.3374
 1723SOL    HW2 6590   6.184   6.663   7.398  0.1675 -0.3495  0.1064
 1724SOL     OW 6591   0.316   8.153   4.436 -0.2767  0.3367 -0.0901
 1724SOL    HW1 6592   0.240   8.204   4.407  0.3051  0.7088 -0.9952
 1724SOL    HW2 6593   0.279   8.087   4.495 -1.3295  0.4104 -0.6353
 1725SOL     OW 6594   2.142   7.084   5.061 -0.7266  0.2108  0.2747
 1725SOL    HW1 6595   2.103   7.150   5.003 -0.4296  0.2868  0.1567
 1725SOL    HW2 6596   2.235   7.109   5.067 -0.6068 -0.2067  0.2153
 1726SOL     OW 6597   3.359   5.693   6.496 -0.1955  0.1290  0.0675
 1726SOL    HW1 6598   3.373   5.736   6.580  0.5606  2.9033 -1.3656
 1726SOL    HW2 6599   3.274   5.650   6.504 -1.0898  2.0854  1.5831
 1727SOL     OW 6600   1.964   2.233   2.290  0.0194 -0.2672  0.2662
 1727SOL    HW1 6601   2.029   2.248   2.221  3.0106 -2.2192  2.3903
 1727SOL    HW2 6602   1.894   2.184   2.246 -0.2657  2.0759 -2.1700
 1728SOL     OW 6603   5.034   5.362   6.571 -0.3560 -0.1270  0.3163
 1728SOL    HW1 6604   5.066   5.415   6.644 -0.7657  3.2154 -1.7421
 1728SOL    HW2 6605   4.938   5.373   6.574 -0.3725  0.1352 -0.7389
 1729SOL     OW 6606   4.529   6.397   1.148 -0.3846 -0.2247 -0.2872
 1729SOL    HW1 6607   4.453   6.393   1.207 -0.9665  0.4914 -0.9726
 1729SOL    HW2 6608   4.496   6.365   1.064  0.6163 -1.9297 -0.0970
 1730SOL     OW 6609   6.667   0.994   8.130 -0.0614 -0.3697  0.2923
 1730SOL    HW1 6610   6.750   0.950   8.109 -0.4461 -1.6160  1.2678
 1730SOL    HW2 6611   6.610   0.924   8.160 -1.6587  0.3853 -0.8327
 1731SOL     OW 6612   2.001   7.171   4.309  0.0216  0.4251 -0.0343
 1731SOL    HW1 6613   2.091   7.199   4.322  0.2635 -0.5259  0.4236
 1731SOL    HW2 6614   1.997   7.145   4.216  0.3296  0.0777  0.0488
 1732SOL     OW 6615   3.828   0.996   7.237  0.3699 -0.4705  0.6877
 1732SOL    HW1 6616   3.866   0.979   7.323  2.3159  0.4998  0.0730
 1732SOL    HW2 6617   3.904   1.000   7.178 -0.7270  1.1468 -0.6867
 1733SOL     OW 6618   3.311   7.604   6.135  0.1863  0.0978 -0.3496
 1733SOL    HW1 6619   3.321   7.621   6.042  0.5331 -3.6900 -1.1401
 1733SOL    HW2 6620   3.398   7.621   6.172  0.4538  0.1245 -0.9888
 1734SOL     OW 6621   7.693   0.216   3.174 -0.2192 -0.0988  0.0156
 1734SOL    HW1 6622   7.788   0.205   3.169 -0.2631  0.0389 -1.9601
 1734SOL    HW2 6623   7.660   0.176   3.093 -1.8765 -0.3576  0.7745
 1735SOL     OW 6624   3.775   7.940   7.376 -0.7896 -0.1525 -0.1543
 1735SOL    HW1 6625   3.785   7.911   7.285 -3.1595 -1.0032 -0.2186
 1735SOL    HW2 6626   3.764   8.035   7.370  0.5485  0.0018 -0.5754
 1736SOL     OW 6627   4.731   5.873   4.526 -0.4841  0.5355 -0.4821
 1736SOL    HW1 6628   4.668   5.925   4.575  0.8718  0.7147  1.1711
 1736SOL    HW2 6629   4.815   5.889   4.569  0.1654 -2.2520 -0.5047
 1737SOL     OW 6630   2.287   0.918   1.240  0.0979 -0.0278  0.0015
 1737SOL    HW1 6631   2.355   0.855   1.265  1.7233  1.6176 -0.1101
 1737SOL    HW2 6632   2.275   0.971   1.318 -0.5617  0.1386 -0.2141
 1738SOL     OW 6633   8.148   3.776   1.975 -0.0284 -0.0758  0.5267
 1738SOL    HW1 6634   8.149   3.700   1.917 -1.3242 -0.8640  1.4668
 1738SOL    HW2 6635   8.059   3.811   1.967  0.4315  1.1260  0.4020
 1739SOL     OW 6636   2.567   0.652   4.028 -0.2595 -0.3411  0.3837
 1739SOL    HW1 6637   2.635   0.586   4.047  0.2262 -0.3987 -1.4108
 1739SOL    HW2 6638   2.605   0.706   3.959 -1.5043  0.5233  0.3520
 1740SOL     OW 6639   5.147   5.968   5.195  0.1660  0.3607  0.8474
 1740SOL    HW1 6640   5.143   5.879   5.229  0.6010 -0.2054 -0.5169
 1740SOL    HW2 6641   5.166   6.022   5.271 -0.4802 -0.6555  1.7628
 1741SOL     OW 6642   0.107   0.743   2.933  0.4774  0.0594  0.0815
 1741SOL    HW1 6643   0.063   0.828   2.925 -0.0871 -0.3055 -0.8012
 1741SOL    HW2 6644   0.190   0.755   2.887 -0.1927 -0.2578 -1.2530
 1742SOL     OW 6645   0.791   5.179   2.574  0.5932  0.6604 -0.3883
 1742SOL    HW1 6646   0.760   5.094   2.605  1.0417  0.6838  0.1459
 1742SOL    HW2 6647   0.763   5.241   2.642 -0.1722  1.0166 -1.0243
 1743SOL     OW 6648   4.423   3.702   4.180  0.3557 -0.1699  0.8091
 1743SOL    HW1 6649   4.492   3.650   4.137  0.5345  0.4311  0.3615
 1743SOL    HW2 6650   4.351   3.701   4.117  0.1987 -0.2459  0.9923
 1744SOL     OW 6651   0.225   8.254   7.964  0.6606  0.2292  0.7411
 1744SOL    HW1 6652   0.167   8.215   8.030 -1.7289  1.1308 -0.7107
 1744SOL    HW2 6653   0.215   8.349   7.977  0.2873  0.4166 -0.7697
 1745SOL     OW 6654   0.661   1.463   4.164 -0.7002 -0.4331  0.0109
 1745SOL    HW1 6655   0.729   1.427   4.221 -1.4447 -0.1740  1.1093
 1745SOL    HW2 6656   0.633   1.388   4.111 -1.2230 -1.1611  1.2546
 1746SOL     OW 6657   3.925   7.237   5.920  0.2756  0.0729 -0.1106
 1746SOL    HW1 6658   4.005   7.290   5.919  1.2312 -1.1181  2.5375
 1746SOL    HW2 6659   3.921   7.199   5.832  1.4661  1.7464 -0.9537
 1747SOL     OW 6660   5.155   4.018   0.982  0.1633 -0.0525 -0.5069
 1747SOL    HW1 6661   5.098   4.079   0.936  1.1636  0.8735 -0.5451
 1747SOL    HW2 6662   5.197   4.070   1.051  0.9029 -0.7222 -0.4336
 1748SOL     OW 6663   7.972   8.349   4.031 -0.0936 -0.2324  0.6728
 1748SOL    HW1 6664   7.911   8.423   4.035 -0.0473 -0.0239 -1.4433
 1748SOL    HW2 6665   8.058   8.390   4.025 -0.1123 -0.3827 -1.2251
 1749SOL     OW 6666   2.511   0.659   6.203  0.1084  0.4323  0.4115
 1749SOL    HW1 6667   2.522   0.751   6.179  2.2003  0.2542  0.4478
 1749SOL    HW2 6668   2.517   0.659   6.299 -0.4597  0.3147  0.4480
 1750SOL     OW 6669   3.947   5.456   3.716 -0.0183  0.0496 -0.1242
 1750SOL    HW1 6670   3.871   5.409   3.683  0.4076  0.2845 -1.4903
 1750SOL    HW2 6671   3.931   5.464   3.810 -2.6959  1.9483 -0.6422
 1751SOL     OW 6672   0.961   4.649   7.850 -0.4241 -0.1487  0.2745
 1751SOL    HW1 6673   0.876   4.653   7.894 -0.2098 -1.3869  0.8317
 1751SOL    HW2 6674   1.017   4.710   7.900 -0.8501  0.3196  0.1867
 1752SOL     OW 6675   0.197   3.977   0.191  0.6928  0.2126  0.5087
 1752SOL    HW1 6676   0.276   3.988   0.138 -0.0686 -0.2291 -0.7767
 1752SOL    HW2 6677   0.180   3.882   0.189  0.5517  0.2081  1.4216
 1753SOL     OW 6678   2.696   4.517   7.061  0.1442  0.4920  0.1233
 1753SOL    HW1 6679   2.721   4.537   6.970  0.2356  1.3682  0.3364
 1753SOL    HW2 6680   2.635   4.443   7.053  0.7222  0.0800 -0.5973
 1754SOL     OW 6681   1.153   1.153   6.302  0.1340  0.0865  0.4692
 1754SOL    HW1 6682   1.209   1.209   6.355  0.5901  0.5154 -0.4455
 1754SOL    HW2 6683   1.132   1.205   6.225 -1.0115 -0.3048  0.4911
 1755SOL     OW 6684   3.233   6.725   7.395 -0.7782  0.5844 -0.7750
 1755SOL    HW1 6685   3.293   6.788   7.355 -1.3145  0.4542 -1.8131
 1755SOL    HW2 6686   3.284   6.644   7.400  0.0960  1.1730  1.0516
 1756SOL     OW 6687   8.333   2.961   2.739  0.2071 -0.1533 -0.5702
 1756SOL    HW1 6688   8.325   2.994   2.649 -0.2366  0.3549 -0.3452
 1756SOL    HW2 6689   8.250   2.984   2.780  0.7665  0.4415  0.2455
 1757SOL     OW 6690   4.237   1.012   5.592 -0.1215  0.2063 -0.3847
 1757SOL    HW1 6691   4.252   1.018   5.686  2.5507  1.3599 -0.7836
 1757SOL    HW2 6692   4.245   0.919   5.573 -1.3868 -0.1331  0.5685
 1758SOL     OW 6693   2.389   0.091   0.360 -0.5102  0.8475 -0.0572
 1758SOL    HW1 6694   2.367   0.002   0.388  0.0193  0.6390 -0.3088
 1758SOL    HW2 6695   2.321   0.113   0.296 -0.6567  0.6378  0.0234
 1759SOL     OW 6696   7.544   8.363   8.303  0.2193  0.0988  0.2945
 1759SOL    HW1 6697   7.491   8.383   8.225  2.2292 -0.1947 -1.2507
 1759SOL    HW2 6698   7.486   8.313   8.359 -1.5714  1.0265 -0.6337
 1760SOL     OW 6699   1.637   1.870   7.069  0.3372 -0.2029 -0.0063
 1760SOL    HW1 6700   1.632   1.843   7.161 -1.7585  0.3458  0.0851
 1760SOL    HW2 6701   1.571   1.816   7.025  2.4623 -1.6890 -1.5630
 1761SOL     OW 6702   2.740   8.168   5.262 -0.0490 -0.3366 -0.3349
 1761SOL    HW1 6703   2.821   8.211   5.288 -0.4543  0.5706 -0.5337
 1761SOL    HW2 6704   2.706   8.221   5.190  0.0027 -1.6360 -1.3624
 1762SOL     OW 6705   7.751   8.275   1.836  0.6925  0.3212  0.2300
 1762SOL    HW1 6706   7.741   8.365   1.805  0.0166  0.5531  1.0994
 1762SOL    HW2 6707   7.841   8.252   1.813 -0.0682  0.0370 -3.0191
 1763SOL     OW 6708   5.941   1.555   3.258  0.1220 -0.0885  0.5651
 1763SOL    HW1 6709   6.001   1.554   3.333  0.6567  0.3464  0.1446
 1763SOL    HW2 6710   5.997   1.569   3.182 -0.5380  0.6522  0.1954
 1764SOL     OW 6711   1.082   0.701   4.116  0.5887  0.4167  0.2359
 1764SOL    HW1 6712   1.107   0.762   4.047  1.4395  1.4049  1.3702
 1764SOL    HW2 6713   1.131   0.621   4.096  1.6067  1.0257  0.2289
 1765SOL     OW 6714   0.597   0.419   6.156 -0.5753  0.7977 -0.2456
 1765SOL    HW1 6715   0.652   0.343   6.175 -1.5367  0.2213  0.3117
 1765SOL    HW2 6716   0.538   0.390   6.086 -0.8058  1.0990 -0.1807
 1766SOL     OW 6717   4.305   3.514   6.257 -0.5324 -0.0374 -0.2910
 1766SOL    HW1 6718   4.367   3.561   6.312 -0.1335 -0.6009 -0.2425
 1766SOL    HW2 6719   4.241   3.580   6.229 -0.1808  0.4485  0.0486
 1767SOL     OW 6720   7.979   6.353   1.110 -0.9013  0.6270  0.1229
 1767SOL    HW1 6721   7.893   6.327   1.144 -0.8767 -0.0967 -0.3458
 1767SOL    HW2 6722   7.964   6.441   1.074 -1.7960 -0.0092 -1.1539
 1768SOL     OW 6723   6.947   2.204   1.304  0.1283  0.0666  0.0454
 1768SOL    HW1 6724   6.893   2.128   1.328 -0.2642 -0.0413 -1.0886
 1768SOL    HW2 6725   6.977   2.240   1.387  0.9634 -1.7904  0.5862
 1769SOL     OW 6726   2.035   4.916   0.310 -0.5886  0.7784  0.2291
 1769SOL    HW1 6727   2.060   4.997   0.356  0.2896  0.1614  0.8691
 1769SOL    HW2 6728   2.049   4.847   0.374 -0.3838  0.0100 -0.6267
 1770SOL     OW 6729   2.978   7.018   0.279  0.4348  0.3129  0.1682
 1770SOL    HW1 6730   2.933   7.036   0.196 -1.0651 -0.9512  0.6564
 1770SOL    HW2 6731   2.920   7.054   0.346  0.2602 -1.1186  0.8107
 1771SOL     OW 6732   3.923   8.054   3.523 -0.1351 -0.8573  0.2206
 1771SOL    HW1 6733   3.915   7.985   3.458 -0.4076  0.1226 -0.8162
 1771SOL    HW2 6734   4.002   8.102   3.498 -0.4870 -0.1990  0.3488
 1772SOL     OW 6735   5.977   1.502   7.343  0.1295 -0.4796 -0.1931
 1772SOL    HW1 6736   6.009   1.581   7.299  1.9706 -0.8789  0.3180
 1772SOL    HW2 6737   5.932   1.534   7.421  1.3101  0.0723  0.2788
 1773SOL     OW 6738   5.920   6.413   1.860  0.4692  0.0861 -0.0533
 1773SOL    HW1 6739   5.939   6.402   1.767  0.3654 -1.9885  0.1036
 1773SOL    HW2 6740   5.970   6.489   1.887 -1.4379  2.2992 -2.3137
 1774SOL     OW 6741   6.282   1.088   5.902  0.4076  0.0706  0.2791
 1774SOL    HW1 6742   6.377   1.082   5.913  0.4001 -0.3550  0.1303
 1774SOL    HW2 6743   6.246   1.041   5.976  0.3061  0.4831  0.4939
 1775SOL     OW 6744   0.080   8.157   1.023 -0.4046 -0.5679 -0.1573
 1775SOL    HW1 6745  -0.013   8.143   1.045 -0.0967 -1.4407  0.6661
 1775SOL    HW2 6746   0.079   8.230   0.961 -1.4788  1.0842  1.6796
 1776SOL     OW 6747   1.175   7.326   7.036 -0.1921 -0.5024 -0.4755
 1776SOL    HW1 6748   1.222   7.398   6.994  0.1508  0.5640  1.5928
 1776SOL    HW2 6749   1.083   7.347   7.023 -0.0937 -0.2054 -0.7185
 1777SOL     OW 6750   0.793   1.963   4.661  0.2603 -0.3333 -0.0554
 1777SOL    HW1 6751   0.744   2.025   4.715  0.6050 -0.4126  0.3583
 1777SOL    HW2 6752   0.732   1.936   4.592  0.0539  0.3286 -0.1336
 1778SOL     OW 6753   4.369   0.084   1.630 -0.5912 -0.2397  0.0793
 1778SOL    HW1 6754   4.430   0.034   1.684 -0.9795  0.7433  1.4788
 1778SOL    HW2 6755   4.283   0.049   1.653 -0.9810  1.6946  1.8990
 1779SOL     OW 6756   1.677   6.294   0.027 -0.3168  0.1676  0.2787
 1779SOL    HW1 6757   1.655   6.339  -0.054 -1.4629  0.3869  0.6902
 1779SOL    HW2 6758   1.598   6.243   0.048  0.2584 -0.5155  0.8345
 1780SOL     OW 6759   2.259   1.593   4.691  0.0718 -0.2679 -0.0898
 1780SOL    HW1 6760   2.318   1.581   4.616  0.4627 -0.5620  0.2548
 1780SOL    HW2 6761   2.234   1.685   4.688 -0.9679 -0.5676 -1.3397
 1781SOL     OW 6762   7.130   0.627   1.707 -0.0618 -0.2265 -0.5313
 1781SOL    HW1 6763   7.096   0.666   1.787 -1.9484 -1.8909 -0.4419
 1781SOL    HW2 6764   7.067   0.559   1.684  1.9469 -1.7900 -1.8211
 1782SOL     OW 6765   0.660   4.982   7.877  0.0469  0.4807 -0.6261
 1782SOL    HW1 6766   0.582   4.926   7.871  0.5371 -0.4457  0.9668
 1782SOL    HW2 6767   0.670   5.018   7.789 -1.1669 -0.7540 -1.3203
 1783SOL     OW 6768   3.704   8.128   4.824  0.0137 -0.0547 -0.8316
 1783SOL    HW1 6769   3.730   8.220   4.833 -2.0578  0.5032  0.0398
 1783SOL    HW2 6770   3.683   8.100   4.914 -0.6862 -0.9556 -1.2544
 1784SOL     OW 6771   7.936   0.556   5.844  0.2501  0.5437  0.5563
 1784SOL    HW1 6772   7.879   0.489   5.882  2.6112 -1.7523  0.3336
 1784SOL    HW2 6773   7.899   0.570   5.756 -0.2827 -0.5248  0.5836
 1785SOL     OW 6774   5.946   5.297   5.413  0.3324  0.1659  0.0229
 1785SOL    HW1 6775   5.989   5.317   5.330  1.4985 -1.0739  0.2905
 1785SOL    HW2 6776   5.860   5.339   5.407  0.4715  0.2596 -1.7279
 1786SOL     OW 6777   0.654   6.759   3.508  0.0157 -0.2554  0.4590
 1786SOL    HW1 6778   0.619   6.705   3.438  1.3898 -2.5885  1.4540
 1786SOL    HW2 6779   0.629   6.712   3.588  1.0507  0.7327  1.3867
 1787SOL     OW 6780   0.066   5.869   5.898  0.1896 -0.3102  0.5099
 1787SOL    HW1 6781   0.142   5.928   5.896  0.8298 -1.1042  0.6173
 1787SOL    HW2 6782   0.002   5.915   5.952  0.7399  0.2129  0.7355
 1788SOL     OW 6783   6.404   6.519   4.976  0.7787  0.4677  0.1742
 1788SOL    HW1 6784   6.347   6.592   4.952  2.0054  0.8246 -1.9695
 1788SOL    HW2 6785   6.399   6.514   5.071 -0.5734  2.3054  0.2461
 1789SOL     OW 6786   6.190   3.993   6.538 -0.1293 -0.5267 -0.1343
 1789SOL    HW1 6787   6.138   3.921   6.503 -0.5039  0.2626 -1.2633
 1789SOL    HW2 6788   6.172   3.992   6.632 -0.6703 -1.4519 -0.2313
 1790SOL     OW 6789   8.015   6.908   3.348  0.0392 -0.6402  0.5290
 1790SOL    HW1 6790   7.962   6.838   3.386 -0.2347 -0.5817  0.2607
 1790SOL    HW2 6791   7.970   6.988   3.375  0.3771 -0.5610  0.8734
 1791SOL     OW 6792   4.891   1.396   3.787  0.0205  0.3762 -0.2439
 1791SOL    HW1 6793   4.859   1.458   3.853  0.0964 -0.9340  1.0741
 1791SOL    HW2 6794   4.830   1.405   3.715  0.5902  2.6781 -0.5273
 1792SOL     OW 6795   1.856   0.183   0.794 -0.1562  0.3472  0.0179
 1792SOL    HW1 6796   1.760   0.175   0.789 -0.1167  0.5332 -1.5710
 1792SOL    HW2 6797   1.874   0.274   0.772  0.3854  0.3355  0.3986
 1793SOL     OW 6798   4.603   1.670   2.240  0.1623  0.2705  0.2579
 1793SOL    HW1 6799   4.565   1.684   2.153 -0.4168  1.3880  0.6745
 1793SOL    HW2 6800   4.570   1.743   2.293  2.7461  1.2471  0.6970
 1794SOL     OW 6801   1.474   6.622   6.150 -0.8142 -0.5257  0.1197
 1794SOL    HW1 6802   1.555   6.666   6.175  0.4416 -2.9327  0.6663
 1794SOL    HW2 6803   1.404   6.675   6.188  0.6566  0.2261  1.8941
 1795SOL     OW 6804   5.831   7.227   8.181  0.1456  0.3904 -0.5190
 1795SOL    HW1 6805   5.857   7.318   8.194 -1.8789  0.8750  0.5353
 1795SOL    HW2 6806   5.856   7.183   8.262  3.1120 -0.5938 -1.8208
 1796SOL     OW 6807   1.757   2.920   8.159 -0.5499  0.0002 -0.2135
 1796SOL    HW1 6808   1.748   3.010   8.189 -0.2660 -0.0355 -0.0222
 1796SOL    HW2 6809   1.851   2.901   8.164 -0.6416 -0.4137  0.0752
 1797SOL     OW 6810   1.501   7.737   1.134  0.4722 -0.0895  0.0126
 1797SOL    HW1 6811   1.438   7.731   1.062 -1.1705  2.2436  1.1243
 1797SOL    HW2 6812   1.587   7.738   1.092 -0.1622 -2.7874 -1.6051
 1798SOL     OW 6813   4.206   1.304   7.301  0.2893  0.0128 -0.1796
 1798SOL    HW1 6814   4.198   1.271   7.391  1.4237 -0.5096 -0.2614
 1798SOL    HW2 6815   4.267   1.244   7.258  1.1218  1.2699 -0.8019
 1799SOL     OW 6816   3.967   7.793   1.793  0.5214  0.3575  0.0809
 1799SOL    HW1 6817   3.876   7.770   1.776  1.0238 -0.4345 -1.7958
 1799SOL    HW2 6818   3.992   7.739   1.868 -0.0290 -0.8548 -0.5897
 1800SOL     OW 6819   6.765   6.592   2.629 -0.0016 -0.8651  0.5297
 1800SOL    HW1 6820   6.729   6.679   2.615 -0.1117 -0.8388  0.9419
 1800SOL    HW2 6821   6.857   6.600   2.607 -0.1168 -0.7768  0.0649
 1801SOL     OW 6822   6.961   3.200   4.416  0.1364  0.3101  0.0390
 1801SOL    HW1 6823   6.906   3.122   4.415 -0.2026  0.5438 -0.0675
 1801SOL    HW2 6824   6.926   3.254   4.345 -1.6754  1.9373  2.0303
 1802SOL     OW 6825   5.221   6.899   5.395  0.0791  0.1116 -0.2766
 1802SOL    HW1 6826   5.131   6.900   5.427 -0.6248  0.3492 -2.1525
 1802SOL    HW2 6827   5.234   6.986   5.356  1.1119  0.0708 -0.0640
 1803SOL     OW 6828   1.798   5.791   4.263 -0.1346  0.5142 -0.4046
 1803SOL    HW1 6829   1.816   5.734   4.338  0.2610 -0.2407 -1.0620
 1803SOL    HW2 6830   1.863   5.861   4.269 -1.6941  1.9114  1.3883
 1804SOL     OW 6831   4.600   3.439   6.870 -0.3381  0.1308 -0.3256
 1804SOL    HW1 6832   4.610   3.398   6.784 -0.0282  0.3676 -0.4052
 1804SOL    HW2 6833   4.517   3.486   6.864 -0.4806 -0.1252 -0.3815
 1805SOL     OW 6834   5.218   0.407   1.407  0.1034  0.1672 -0.1227
 1805SOL    HW1 6835   5.160   0.349   1.359 -1.4096  1.4297  0.0858
 1805SOL    HW2 6836   5.266   0.454   1.339 -1.4603  1.3842 -0.4494
 1806SOL     OW 6837   1.929   2.741   2.592 -0.1019  0.4471 -0.5454
 1806SOL    HW1 6838   1.877   2.660   2.590  0.2187  0.1792  0.7589
 1806SOL    HW2 6839   1.871   2.805   2.634 -0.4248  0.9757 -1.7449
 1807SOL     OW 6840   7.789   0.686   7.459  0.7344 -0.2860 -0.2781
 1807SOL    HW1 6841   7.802   0.593   7.445  0.5575 -0.5739  1.2646
 1807SOL    HW2 6842   7.864   0.713   7.512 -0.6936 -0.2409  1.8482
 1808SOL     OW 6843   7.765   7.957   4.873  0.3193  0.0747 -0.4476
 1808SOL    HW1 6844   7.810   8.041   4.867 -0.2409  0.4999  0.9505
 1808SOL    HW2 6845   7.712   7.963   4.952 -0.8149 -1.0758 -1.0692
 1809SOL     OW 6846   2.362   2.542   7.260  0.2182  0.3469  0.1353
 1809SOL    HW1 6847   2.400   2.467   7.305 -2.3689 -1.3028 -0.2463
 1809SOL    HW2 6848   2.315   2.590   7.328 -1.1949 -0.4872 -0.2082
 1810SOL     OW 6849   6.675   3.048   4.456 -0.3347 -0.2730  0.2753
 1810SOL    HW1 6850   6.599   3.024   4.404 -1.0197 -0.5513  1.3663
 1810SOL    HW2 6851   6.639   3.073   4.541  0.7365  0.2712  0.5943
 1811SOL     OW 6852   2.955   1.946   2.619  0.5610  0.7582  0.3243
 1811SOL    HW1 6853   2.868   1.939   2.659 -0.4822 -0.4767 -1.8954
 1811SOL    HW2 6854   3.003   1.871   2.653 -0.2342 -0.1528 -0.4845
 1812SOL     OW 6855   1.000   2.610   5.282  0.3603 -0.6118 -0.1455
 1812SOL    HW1 6856   0.950   2.665   5.342  2.0709 -0.2216  1.0063
 1812SOL    HW2 6857   1.077   2.585   5.332  0.7295 -2.2095 -1.4264
 1813SOL     OW 6858   4.566   6.385   1.565  0.2501  1.0326 -0.5949
 1813SOL    HW1 6859   4.550   6.454   1.501 -0.4328 -0.9421 -2.6935
 1813SOL    HW2 6860   4.616   6.319   1.516  1.2610  0.2124  1.4467
 1814SOL     OW 6861   2.169   6.568   6.800  0.0133  0.1861  0.2306
 1814SOL    HW1 6862   2.144   6.634   6.735 -0.9532  1.8581  2.2107
 1814SOL    HW2 6863   2.091   6.557   6.855  1.2037 -0.1866  1.9268
 1815SOL     OW 6864   0.361   3.004   7.344 -0.7112  0.0784  0.6182
 1815SOL    HW1 6865   0.340   3.006   7.437  0.3219 -0.9507  0.8949
 1815SOL    HW2 6866   0.357   2.912   7.320 -5.5660  0.5835 -1.5368
 1816SOL     OW 6867   6.030   5.300   4.754  0.5784  0.2249  0.1191
 1816SOL    HW1 6868   5.976   5.337   4.684 -0.6973 -2.1923 -0.2795
 1816SOL    HW2 6869   5.996   5.340   4.834 -1.2293 -0.5681 -0.2144
 1817SOL     OW 6870   2.347   5.460   8.141  0.1941 -0.0846 -0.3159
 1817SOL    HW1 6871   2.363   5.373   8.177 -1.8897 -1.3331 -2.1471
 1817SOL    HW2 6872   2.256   5.479   8.164  0.0149  0.7199 -1.5904
 1818SOL     OW 6873   5.087   0.285   7.145 -0.3462  0.0138  0.0928
 1818SOL    HW1 6874   5.120   0.220   7.207  1.5355  0.1366 -0.7139
 1818SOL    HW2 6875   5.112   0.369   7.183 -0.4569  0.1584 -0.1528
 1819SOL     OW 6876   7.768   5.549   3.865 -0.0994  0.5147 -0.0638
 1819SOL    HW1 6877   7.843   5.597   3.900 -0.1614  2.0380 -1.8432
 1819SOL    HW2 6878   7.795   5.526   3.776 -0.8259 -1.1401  0.1145
 1820SOL     OW 6879   4.628   7.134   7.043 -0.5532 -0.0860 -0.1563
 1820SOL    HW1 6880   4.591   7.052   7.009  1.4063 -1.3538  0.5550
 1820SOL    HW2 6881   4.601   7.136   7.135 -0.9404  0.2953 -0.2756
 1821SOL     OW 6882   8.095   1.766   1.440  0.2064 -0.2834 -0.0866
 1821SOL    HW1 6883   8.134   1.852   1.425 -1.3630  0.4661 -0.1379
 1821SOL    HW2 6884   8.152   1.724   1.504  1.6575  0.3143 -0.9378
 1822SOL     OW 6885   4.254   3.241   8.365  0.3887  0.0366  0.2228
 1822SOL    HW1 6886   4.306   3.218   8.441  1.6995 -1.2544 -0.9995
 1822SOL    HW2 6887   4.309   3.302   8.315  1.0749 -1.7750 -1.3636
 1823SOL     OW 6888   4.137   7.004   5.534  0.4425 -0.1638  0.1986
 1823SOL    HW1 6889   4.221   6.980   5.573 -0.1751  1.1092  2.5131
 1823SOL    HW2 6890   4.151   7.093   5.500 -0.1936  0.4854  1.5457
 1824SOL     OW 6891   7.556   0.867   3.739  0.4142 -0.4944  0.5187
 1824SOL    HW1 6892   7.612   0.789   3.741  2.1123  0.6416  0.2031
 1824SOL    HW2 6893   7.600   0.929   3.797  1.2220  1.4807 -1.9901
 1825SOL     OW 6894   7.477   3.398   1.379  0.1604 -0.1356 -0.3164
 1825SOL    HW1 6895   7.451   3.340   1.308 -0.8788 -1.1317  0.8247
 1825SOL    HW2 6896   7.564   3.430   1.354  1.0575 -2.6748 -0.7166
 1826SOL     OW 6897   2.743   4.961   3.701 -0.4918 -0.2146 -0.1565
 1826SOL    HW1 6898   2.677   4.900   3.668 -0.6915 -0.0229 -0.1082
 1826SOL    HW2 6899   2.732   5.040   3.648  0.4235 -0.5602 -0.9011
 1827SOL     OW 6900   6.651   2.295   6.563  0.6557  0.1047 -0.1933
 1827SOL    HW1 6901   6.649   2.236   6.487 -0.5406 -0.7793  0.4940
 1827SOL    HW2 6902   6.608   2.375   6.532 -0.3560 -0.4607 -0.3175
 1828SOL     OW 6903   6.719   1.942   0.952 -0.2697 -0.2489 -0.2117
 1828SOL    HW1 6904   6.712   1.862   0.899  0.1570  0.0831 -0.7861
 1828SOL    HW2 6905   6.655   2.002   0.913  2.1327  1.0856 -2.3811
 1829SOL     OW 6906   2.088   4.784   7.509 -0.2057  0.1589 -0.0075
 1829SOL    HW1 6907   2.012   4.837   7.486  0.8010  1.5797 -0.2198
 1829SOL    HW2 6908   2.157   4.814   7.450  0.3847 -1.4865 -0.1961
 1830SOL     OW 6909   7.780   5.777   5.673  0.2331  0.7046 -0.3921
 1830SOL    HW1 6910   7.792   5.697   5.622 -1.1614 -0.8274  1.5587
 1830SOL    HW2 6911   7.848   5.773   5.740 -0.9721  0.1483  0.8464
 1831SOL     OW 6912   2.683   3.024   2.773 -0.0130  0.8784 -0.3290
 1831SOL    HW1 6913   2.767   3.068   2.777  1.9699 -2.4283 -1.6435
 1831SOL    HW2 6914   2.658   3.026   2.681 -0.6833  0.6275 -0.1624
 1832SOL     OW 6915   4.372   2.280   7.967  0.0255  0.7576  0.0878
 1832SOL    HW1 6916   4.412   2.266   8.053  2.4051  1.5043 -0.8188
 1832SOL    HW2 6917   4.311   2.352   7.981 -1.6566 -0.8592  1.6672
 1833SOL     OW 6918   6.289   3.480   1.707  0.7056  0.2510  0.6413
 1833SOL    HW1 6919   6.221   3.477   1.639  0.6174  1.0667  0.6764
 1833SOL    HW2 6920   6.245   3.452   1.787  0.5885  0.1033  0.5248
 1834SOL     OW 6921   2.296   3.996   4.886 -0.6035 -0.4918  1.0003
 1834SOL    HW1 6922   2.386   3.964   4.899 -0.4715 -0.0955  1.0768
 1834SOL    HW2 6923   2.241   3.926   4.922 -0.2729  0.2945  3.1738
 1835SOL     OW 6924   3.087   6.400   2.917  0.0328  0.3851 -0.0411
 1835SOL    HW1 6925   3.035   6.339   2.865 -1.4664  1.7303 -0.2166
 1835SOL    HW2 6926   3.104   6.474   2.858  2.5039 -0.1281 -0.1025
 1836SOL     OW 6927   2.586   7.939   7.397 -0.3690 -0.2153 -0.0304
 1836SOL    HW1 6928   2.619   7.972   7.313  0.2384 -0.0730  0.2541
 1836SOL    HW2 6929   2.495   7.915   7.380 -0.2674 -0.1311 -0.7136
 1837SOL     OW 6930   5.453   1.267   6.528  0.2318 -0.0667  0.3277
 1837SOL    HW1 6931   5.403   1.241   6.451  1.7207  0.1614 -0.7558
 1837SOL    HW2 6932   5.422   1.355   6.549 -0.7464 -0.4406  0.5087
 1838SOL     OW 6933   5.790   2.050   4.217  0.7015  0.3694 -0.1599
 1838SOL    HW1 6934   5.839   2.048   4.300  0.1462  1.3797  0.2115
 1838SOL    HW2 6935   5.707   2.006   4.237  0.3679  1.0445 -0.0335
 1839SOL     OW 6936   1.423   4.245   2.740 -0.4522 -0.4101 -0.0340
 1839SOL    HW1 6937   1.480   4.314   2.775 -0.7561 -0.1101 -0.1251
 1839SOL    HW2 6938   1.347   4.246   2.798 -1.3308  0.6419 -1.1664
 1840SOL     OW 6939   5.592   1.257   5.403  0.2081 -0.6819  0.0099
 1840SOL    HW1 6940   5.558   1.269   5.492  1.1731  0.8289  0.2130
 1840SOL    HW2 6941   5.516   1.268   5.346 -0.0689  0.4847  0.5660
 1841SOL     OW 6942   4.732   7.487   5.180 -0.0260  0.4768 -0.2005
 1841SOL    HW1 6943   4.744   7.577   5.150 -0.6831  1.3427  1.9359
 1841SOL    HW2 6944   4.786   7.481   5.259 -1.2234 -0.4841  0.5759
 1842SOL     OW 6945   2.061   3.671   3.734 -0.4736 -0.2703  0.3508
 1842SOL    HW1 6946   1.979   3.697   3.775  0.1674 -0.6303  1.9304
 1842SOL    HW2 6947   2.067   3.577   3.751  0.3824 -0.2008  0.4513
 1843SOL     OW 6948   4.869   1.588   4.023 -0.1200  0.3912  0.6131
 1843SOL    HW1 6949   4.847   1.678   3.998  0.6995  0.3206 -0.4128
 1843SOL    HW2 6950   4.949   1.597   4.075  0.8567  0.1446 -0.8048
 1844SOL     OW 6951   7.885   4.226   4.157  0.4082 -0.2688  0.1982
 1844SOL    HW1 6952   7.898   4.135   4.130 -0.4013  0.2936 -2.4352
 1844SOL    HW2 6953   7.910   4.277   4.080  0.7990  1.7508  1.5975
 1845SOL     OW 6954   2.700   1.102   7.276 -0.3770 -0.1733 -0.5711
 1845SOL    HW1 6955   2.768   1.046   7.314 -1.7136 -0.5609  1.4327
 1845SOL    HW2 6956   2.631   1.103   7.342 -1.6229  1.5486 -1.8136
 1846SOL     OW 6957   0.896   3.433   0.035 -0.4849  0.1772 -0.1025
 1846SOL    HW1 6958   0.853   3.437  -0.050 -0.8787  0.5469  0.1073
 1846SOL    HW2 6959   0.835   3.478   0.095 -0.1349  0.0777  0.3359
 1847SOL     OW 6960   2.096   5.895   1.488  0.7325  0.8820  0.2267
 1847SOL    HW1 6961   2.159   5.965   1.466  1.8577 -0.6356 -1.7245
 1847SOL    HW2 6962   2.135   5.816   1.452 -1.3707 -0.4826  0.7821
 1848SOL     OW 6963   7.469   6.368   1.597 -0.2551  0.2410  1.2270
 1848SOL    HW1 6964   7.508   6.303   1.655  2.1682  0.0557 -0.4608
 1848SOL    HW2 6965   7.527   6.444   1.604 -1.0226  0.9046  0.5005
 1849SOL     OW 6966   0.872   6.280   0.200 -0.3478  0.0316 -0.9890
 1849SOL    HW1 6967   0.928   6.357   0.197 -0.9776  0.4885 -1.0626
 1849SOL    HW2 6968   0.797   6.306   0.252  0.0646 -0.9591  0.1587
 1850SOL     OW 6969   1.896   3.898   8.082  0.3786 -0.3008 -0.0229
 1850SOL    HW1 6970   1.918   3.825   8.140 -0.1261 -0.3965  0.0560
 1850SOL    HW2 6971   1.945   3.972   8.118 -0.5638 -0.1568  1.0540
 1851SOL     OW 6972   3.085   5.478   1.269 -0.3687  0.2913  0.3453
 1851SOL    HW1 6973   3.046   5.562   1.291 -0.3673  0.1891  0.7432
 1851SOL    HW2 6974   3.079   5.426   1.349 -0.2466 -0.0420  0.1443
 1852SOL     OW 6975   8.274   3.237   7.673 -0.0109  0.3825  1.0057
 1852SOL    HW1 6976   8.231   3.152   7.685  0.7591 -0.3800 -1.0372
 1852SOL    HW2 6977   8.218   3.299   7.719 -1.9363 -0.9030  0.5415
 1853SOL     OW 6978   8.359   6.143   5.646 -0.1563  0.0214 -0.1563
 1853SOL    HW1 6979   8.291   6.170   5.708  1.0073 -0.2580  1.2928
 1853SOL    HW2 6980   8.430   6.206   5.659  1.2005 -1.6212  0.8005
 1854SOL     OW 6981   4.922   6.281   1.016  0.1211 -0.3590  0.1082
 1854SOL    HW1 6982   4.878   6.333   1.084 -0.1784  0.4056 -0.6486
 1854SOL    HW2 6983   4.860   6.210   0.998 -1.1182  1.0158 -1.3383
 1855SOL     OW 6984   0.121   6.010   8.004 -0.2724 -0.2869 -0.7475
 1855SOL    HW1 6985   0.128   5.947   7.932  2.4696 -0.8502 -0.0887
 1855SOL    HW2 6986   0.089   5.957   8.077  1.0288 -0.7276 -0.4705
 1856SOL     OW 6987   2.797   4.472   2.261 -0.2828  0.3517 -0.1699
 1856SOL    HW1 6988   2.786   4.566   2.270  0.3565  0.3850  0.4086
 1856SOL    HW2 6989   2.708   4.436   2.266 -0.3536  0.7021  2.6216
 1857SOL     OW 6990   4.160   4.688   5.361 -0.1205 -0.7290  0.5184
 1857SOL    HW1 6991   4.239   4.644   5.329 -0.4295 -0.2751 -0.9401
 1857SOL    HW2 6992   4.088   4.630   5.337 -0.3949 -0.1920  0.0272
 1858SOL     OW 6993   1.267   5.047   2.150 -0.0885  0.7929  0.0711
 1858SOL    HW1 6994   1.277   4.960   2.190 -1.4521  1.2174  1.4360
 1858SOL    HW2 6995   1.350   5.062   2.104  0.2644 -1.1245  0.0060
 1859SOL     OW 6996   2.608   7.524   0.353  0.2307 -0.0474 -0.7976
 1859SOL    HW1 6997   2.672   7.577   0.305  1.0889 -0.4709 -0.1466
 1859SOL    HW2 6998   2.654   7.498   0.433 -0.6439 -0.6501 -0.4801
 1860SOL     OW 6999   6.339   4.856   7.059  0.0024  0.1257  0.3689
 1860SOL    HW1 7000   6.284   4.934   7.066  0.4687  0.5472 -0.4154
 1860SOL    HW2 7001   6.428   4.891   7.046  0.1333 -0.5217 -0.6006
 1861SOL     OW 7002   2.792   7.728   3.473 -0.2700  0.0571  0.1494
 1861SOL    HW1 7003   2.853   7.721   3.547 -1.0108 -0.1395  0.7594
 1861SOL    HW2 7004   2.771   7.822   3.468 -1.1409 -0.0716  0.9801
 1862SOL     OW 7005   4.358   6.158   5.686  0.4946 -0.0632 -0.1665
 1862SOL    HW1 7006   4.277   6.177   5.639 -0.0142 -3.0983 -0.7286
 1862SOL    HW2 7007   4.330   6.116   5.767  1.5066  0.4939  0.5071
 1863SOL     OW 7008   0.966   1.834   6.351 -0.6454  0.1277  0.0744
 1863SOL    HW1 7009   1.039   1.780   6.322  1.3165  1.6375  1.8853
 1863SOL    HW2 7010   0.895   1.772   6.368  0.8183 -1.6182  0.0701
 1864SOL     OW 7011   7.852   7.857   0.464  0.3091  0.0212 -0.0628
 1864SOL    HW1 7012   7.852   7.927   0.529 -0.3102 -0.2631  0.2549
 1864SOL    HW2 7013   7.774   7.873   0.411 -0.8461 -1.4068  1.1144
 1865SOL     OW 7014   1.420   5.784   6.495  0.0062 -0.2329 -0.0934
 1865SOL    HW1 7015   1.491   5.787   6.559  0.6696 -0.1142 -0.8341
 1865SOL    HW2 7016   1.402   5.875   6.473  1.0824 -0.3364 -1.4980
 1866SOL     OW 7017   5.191   1.453   4.670 -0.1030 -0.4748 -0.0859
 1866SOL    HW1 7018   5.137   1.378   4.643  0.5644 -1.2261  0.5906
 1866SOL    HW2 7019   5.221   1.492   4.588 -0.7918 -0.7082 -0.4574
 1867SOL     OW 7020   0.979   3.481   6.093 -0.1703  0.0896 -0.2723
 1867SOL    HW1 7021   0.895   3.435   6.095 -0.1401  0.0043 -0.8552
 1867SOL    HW2 7022   0.982   3.529   6.176 -0.9828  0.4396 -0.4408
 1868SOL     OW 7023   3.895   0.967   6.220  0.3292  0.3055  0.4613
 1868SOL    HW1 7024   3.847   0.899   6.173  1.5640  0.1315 -0.6132
 1868SOL    HW2 7025   3.985   0.935   6.223  1.0570  2.1034 -0.5606
 1869SOL     OW 7026   8.321   3.028   8.197 -0.0182  0.0874  0.0633
 1869SOL    HW1 7027   8.412   3.049   8.219 -0.4498  1.3180  0.8019
 1869SOL    HW2 7028   8.288   2.980   8.273  0.7428 -2.7999 -1.3078
 1870SOL     OW 7029   0.033   1.155   5.641 -0.5680 -0.6161  0.4275
 1870SOL    HW1 7030   0.001   1.158   5.731 -0.8797 -2.1135  0.3935
 1870SOL    HW2 7031  -0.039   1.115   5.591 -1.2253  1.9906 -0.9037
 1871SOL     OW 7032   6.933   2.925   5.356  0.5677  0.0119  0.3193
 1871SOL    HW1 7033   6.926   2.984   5.281 -3.2395 -0.1772  0.3398
 1871SOL    HW2 7034   6.967   2.979   5.426  0.2271  1.3358 -0.4941
 1872SOL     OW 7035   3.186   1.295   3.981  0.0858 -0.0953  0.0381
 1872SOL    HW1 7036   3.155   1.379   3.947  2.1833  1.2216  1.2471
 1872SOL    HW2 7037   3.120   1.269   4.045  0.6058  1.8546  1.4103
 1873SOL     OW 7038   1.823   1.726   1.308  0.3061 -0.4072  0.4140
 1873SOL    HW1 7039   1.859   1.812   1.284 -0.0160  0.4776  2.8020
 1873SOL    HW2 7040   1.728   1.737   1.298  0.3376 -0.8397 -0.3328
 1874SOL     OW 7041   4.354   0.850   5.122 -0.1219 -0.0968 -0.1527
 1874SOL    HW1 7042   4.350   0.941   5.092  1.6892  0.8564  2.2642
 1874SOL    HW2 7043   4.447   0.831   5.131 -0.5034 -1.3437  1.7546
 1875SOL     OW 7044   7.346   1.711   3.521 -0.0377  0.0927  0.3791
 1875SOL    HW1 7045   7.327   1.630   3.568  1.6788  0.0491  1.0473
 1875SOL    HW2 7046   7.341   1.686   3.428  0.8496 -0.8793  0.5789
 1876SOL     OW 7047   0.919   4.660   7.424  0.4289  0.5169 -0.2063
 1876SOL    HW1 7048   0.957   4.741   7.457  0.3055  0.4237  0.1823
 1876SOL    HW2 7049   0.888   4.681   7.336  1.6228  0.5215 -0.6458
 1877SOL     OW 7050   6.130   3.487   2.204 -0.2808 -0.0863 -0.1149
 1877SOL    HW1 7051   6.215   3.528   2.185 -0.4416 -0.4434 -1.7669
 1877SOL    HW2 7052   6.077   3.557   2.241  0.2575  0.5252 -0.4826
 1878SOL     OW 7053   4.010   4.281   3.853 -0.2738  0.4417 -0.0587
 1878SOL    HW1 7054   3.971   4.338   3.920 -0.5173 -0.8582  0.9577
 1878SOL    HW2 7055   4.067   4.222   3.903 -2.9597 -2.7713 -0.4619
 1879SOL     OW 7056   0.046   2.605   4.656  0.7293 -0.2757  0.1211
 1879SOL    HW1 7057   0.013   2.521   4.624  1.1298 -0.5984  0.5424
 1879SOL    HW2 7058   0.140   2.592   4.667  0.8904  0.4041 -0.3451
 1880SOL     OW 7059   6.339   4.648   0.695  0.6251  0.3288 -0.6648
 1880SOL    HW1 7060   6.424   4.665   0.656  1.2900 -0.6700  0.2937
 1880SOL    HW2 7061   6.316   4.560   0.665 -0.3589  0.8177 -1.4003
 1881SOL     OW 7062   3.291   2.672   7.084  0.0858 -0.2422  0.0731
 1881SOL    HW1 7063   3.373   2.623   7.090  0.3743  0.2807  0.5595
 1881SOL    HW2 7064   3.308   2.752   7.134 -0.9171 -0.3964  0.6960
 1882SOL     OW 7065   0.569   7.488   3.799  0.0302 -0.7022 -0.0338
 1882SOL    HW1 7066   0.523   7.474   3.716  0.4371 -0.8219 -0.2412
 1882SOL    HW2 7067   0.662   7.492   3.774  0.1041 -0.1410  0.3424
 1883SOL     OW 7068   6.829   5.679   7.697  0.0372  0.3135  0.1524
 1883SOL    HW1 7069   6.815   5.761   7.650 -0.8217 -0.0713 -0.2963
 1883SOL    HW2 7070   6.773   5.615   7.652  0.0241 -0.3188  1.0209
 1884SOL     OW 7071   4.367   4.152   1.977  0.5562  0.1794 -0.7705
 1884SOL    HW1 7072   4.416   4.161   2.059  0.8223  1.2342 -1.0322
 1884SOL    HW2 7073   4.281   4.188   1.997  0.4944  0.0790 -0.8538
 1885SOL     OW 7074   5.388   5.920   8.254  0.3243  0.0493  0.8830
 1885SOL    HW1 7075   5.298   5.887   8.267  0.4462 -0.1157  1.3677
 1885SOL    HW2 7076   5.417   5.878   8.173 -0.0981  0.2377  0.6321
 1886SOL     OW 7077   2.461   0.012   7.295  0.6639 -0.2719  0.1618
 1886SOL    HW1 7078   2.541   0.062   7.281  1.2954 -1.2555  0.0883
 1886SOL    HW2 7079   2.427  -0.005   7.207 -0.5196  1.4823  0.2377
 1887SOL     OW 7080   6.982   5.514   4.401 -0.1475 -0.0187  0.0961
 1887SOL    HW1 7081   7.051   5.579   4.411  1.4551 -1.8107  1.7644
 1887SOL    HW2 7082   6.944   5.506   4.488 -0.8534 -0.7346 -0.2652
 1888SOL     OW 7083   0.443   4.843   1.795 -0.2192 -0.2089 -0.0644
 1888SOL    HW1 7084   0.535   4.842   1.822 -0.6012 -0.1497  1.3582
 1888SOL    HW2 7085   0.445   4.835   1.700  1.2870  0.7560 -0.1385
 1889SOL     OW 7086   7.068   0.459   4.901  0.0506  0.4483  0.6457
 1889SOL    HW1 7087   6.993   0.479   4.846  0.0169  0.4557  0.6939
 1889SOL    HW2 7088   7.086   0.540   4.948  0.1352  0.4682  0.5795
 1890SOL     OW 7089   8.220   3.999   5.180 -0.0812  0.5509 -0.6948
 1890SOL    HW1 7090   8.288   4.036   5.236  0.2175 -0.6206 -0.2582
 1890SOL    HW2 7091   8.266   3.972   5.101 -0.2001  0.5874 -0.7761
 1891SOL     OW 7092   5.093   4.278   0.843  0.3020 -0.1032 -0.2441
 1891SOL    HW1 7093   5.006   4.292   0.805 -0.5879 -0.7402  1.4464
 1891SOL    HW2 7094   5.153   4.318   0.780 -1.2917  1.3680 -0.9318
 1892SOL     OW 7095   5.941   7.961   8.122 -0.0755 -0.2023 -0.1257
 1892SOL    HW1 7096   5.899   8.026   8.066  2.9769  0.5475 -1.7542
 1892SOL    HW2 7097   5.978   8.012   8.194 -0.1116 -0.5472  0.1417
 1893SOL     OW 7098   5.275   6.917   1.446  0.0279  0.1715 -0.2387
 1893SOL    HW1 7099   5.315   6.988   1.396 -1.3510 -0.0758 -1.7959
 1893SOL    HW2 7100   5.212   6.962   1.503 -0.7723  0.2336 -1.1492
 1894SOL     OW 7101   6.249   4.612   3.734 -0.0143  0.1087 -0.3275
 1894SOL    HW1 7102   6.200   4.609   3.817  0.3980  0.1537 -0.0817
 1894SOL    HW2 7103   6.204   4.549   3.678  0.7096 -1.1745  0.4831
 1895SOL     OW 7104   7.883   2.963   8.163 -0.1318 -0.1962  0.5557
 1895SOL    HW1 7105   7.973   2.994   8.172 -0.0735 -0.2642  0.2197
 1895SOL    HW2 7106   7.859   2.984   8.073 -0.5248  0.0132  0.7095
 1896SOL     OW 7107   6.266   7.280   1.695 -0.6811  0.1648  0.2573
 1896SOL    HW1 7108   6.185   7.313   1.657 -1.4140  0.0148  1.6536
 1896SOL    HW2 7109   6.242   7.197   1.736  0.5874 -0.8523 -0.9402
 1897SOL     OW 7110   8.346   0.786   3.478 -0.1832  0.1954 -0.2268
 1897SOL    HW1 7111   8.259   0.822   3.463 -0.2429 -0.0329 -0.4349
 1897SOL    HW2 7112   8.352   0.777   3.573  0.1279  1.4747 -0.1102
 1898SOL     OW 7113   5.484   5.642   5.622  0.1948 -0.7014  0.0587
 1898SOL    HW1 7114   5.475   5.700   5.547 -0.4729 -0.4164  0.3447
 1898SOL    HW2 7115   5.402   5.653   5.670 -0.0191 -2.0320  0.0213
 1899SOL     OW 7116   0.683   1.402   3.136  0.3741 -0.4479 -0.1151
 1899SOL    HW1 7117   0.773   1.430   3.119  0.1206  0.1234 -0.5775
 1899SOL    HW2 7118   0.630   1.457   3.078 -0.3166 -0.3927  0.5557
 1900SOL     OW 7119   0.082   0.522   3.194 -0.0095 -0.2931  0.1118
 1900SOL    HW1 7120   0.080   0.506   3.289  1.0112 -0.9258  0.0404
 1900SOL    HW2 7121   0.047   0.442   3.156 -2.2448  0.6541 -0.0304
 1901SOL     OW 7122   5.594   3.591   6.432  0.1587  0.1826 -0.4361
 1901SOL    HW1 7123   5.647   3.514   6.452  1.2570  0.2973 -2.6677
 1901SOL    HW2 7124   5.648   3.665   6.458 -1.0767  0.3176  2.1441
 1902SOL     OW 7125   3.351   2.138   2.906 -0.1464  0.8345  0.0806
 1902SOL    HW1 7126   3.270   2.087   2.904  0.4592 -0.1280 -0.3807
 1902SOL    HW2 7127   3.403   2.104   2.834  0.7511  1.3265  0.4766
 1903SOL     OW 7128   8.137   3.859   4.773 -0.1952 -0.2951  0.1763
 1903SOL    HW1 7129   8.079   3.782   4.771  0.4236 -0.8115  1.2379
 1903SOL    HW2 7130   8.216   3.828   4.817 -0.2240  1.1350  1.3021
 1904SOL     OW 7131   6.953   3.192   1.954 -0.4817 -0.1945 -0.3322
 1904SOL    HW1 7132   7.020   3.260   1.944 -0.9291  0.4037  0.6231
 1904SOL    HW2 7133   6.961   3.139   1.875  1.8772 -0.8058  0.2391
 1905SOL     OW 7134   8.083   1.508   1.191  0.0482  0.4365  0.9019
 1905SOL    HW1 7135   8.050   1.598   1.185 -3.7917 -0.8167  0.7176
 1905SOL    HW2 7136   8.063   1.481   1.280 -0.4226 -0.7795  0.4368
 1906SOL     OW 7137   3.898   5.866   0.805 -0.1857 -0.1449 -0.4597
 1906SOL    HW1 7138   3.848   5.900   0.879 -0.6475  0.7403 -1.1636
 1906SOL    HW2 7139   3.988   5.860   0.837 -0.8637 -3.1317  1.3094
 1907SOL     OW 7140   2.626   1.298   5.578  0.3088  0.0154  0.2357
 1907SOL    HW1 7141   2.615   1.326   5.488 -0.3225 -0.3578  0.1840
 1907SOL    HW2 7142   2.569   1.221   5.586 -0.7336  0.8447  1.3059
 1908SOL     OW 7143   5.050   2.946   4.312 -0.6382 -0.9852  0.0593
 1908SOL    HW1 7144   5.090   3.001   4.244  1.4403 -2.4819 -0.0158
 1908SOL    HW2 7145   5.035   3.005   4.385  1.8281 -0.3076  0.1040
 1909SOL     OW 7146   2.215   6.052   5.854 -0.7436  0.3728  0.7432
 1909SOL    HW1 7147   2.138   6.084   5.901 -0.7732 -2.2183  2.6743
 1909SOL    HW2 7148   2.179   5.998   5.784 -0.6753  0.9618  0.2496
 1910SOL     OW 7149   1.419   0.675   6.748  0.1939 -0.4991 -0.1010
 1910SOL    HW1 7150   1.365   0.603   6.780 -0.5625 -0.1549 -0.5980
 1910SOL    HW2 7151   1.416   0.668   6.653  0.2606  0.0805 -0.1489
 1911SOL     OW 7152   0.285   2.117   7.657  0.2963  0.3740  0.2457
 1911SOL    HW1 7153   0.276   2.092   7.749  1.7435  0.2388  0.3737
 1911SOL    HW2 7154   0.374   2.151   7.650  0.4548 -0.2597 -1.2416
 1912SOL     OW 7155   1.236   7.277   6.732 -0.9261 -0.0625 -0.3260
 1912SOL    HW1 7156   1.255   7.359   6.777 -1.2853 -0.7107  1.0837
 1912SOL    HW2 7157   1.277   7.285   6.646  0.3984  0.9540  0.3801
 1913SOL     OW 7158   6.652   3.781   3.537  0.2122 -0.0104  0.2280
 1913SOL    HW1 7159   6.562   3.800   3.563  0.1452  0.2786 -0.2127
 1913SOL    HW2 7160   6.704   3.802   3.614 -0.2198 -1.3637  0.9186
 1914SOL     OW 7161   5.277   1.759   5.057 -0.4663 -0.1839  0.1817
 1914SOL    HW1 7162   5.240   1.799   5.136  1.9688 -0.1857  1.4286
 1914SOL    HW2 7163   5.215   1.691   5.033 -0.4673 -1.4160  3.2058
 1915SOL     OW 7164   4.071   4.900   7.779 -0.2929  0.0365  0.3254
 1915SOL    HW1 7165   4.096   4.991   7.767  0.6476 -0.4577 -2.2122
 1915SOL    HW2 7166   4.138   4.863   7.836  0.6059  0.4480 -0.4378
 1916SOL     OW 7167   5.065   1.595   6.340 -0.1931  0.2845  0.3890
 1916SOL    HW1 7168   4.999   1.613   6.407 -1.0437 -0.5872 -0.1953
 1916SOL    HW2 7169   5.116   1.677   6.334 -2.6981  1.8610 -0.8112
 1917SOL     OW 7170   1.114   1.424   2.333 -0.0972  0.0900  0.0041
 1917SOL    HW1 7171   1.065   1.503   2.311 -0.2788 -0.6880 -2.7413
 1917SOL    HW2 7172   1.126   1.429   2.428 -0.7929  2.9737  0.0249
 1918SOL     OW 7173   7.177   5.059   4.377 -0.1758  0.0892 -0.0228
 1918SOL    HW1 7174   7.168   5.151   4.351  0.6901  0.4965  1.0169
 1918SOL    HW2 7175   7.268   5.037   4.356  0.1718  0.0521  1.4075
 1919SOL     OW 7176   6.918   4.593   4.247 -0.3875 -0.2239  0.3681
 1919SOL    HW1 7177   6.847   4.550   4.199  0.0256 -1.7168  1.0563
 1919SOL    HW2 7178   6.875   4.632   4.323 -1.0873  2.3480 -1.2159
 1920SOL     OW 7179   4.037   6.765   6.380  0.0996  0.0832 -0.6055
 1920SOL    HW1 7180   4.093   6.809   6.316  1.0782 -0.7976 -0.3864
 1920SOL    HW2 7181   3.969   6.829   6.401  0.2690  0.7073 -1.8629
 1921SOL     OW 7182   4.443   3.028   0.704  0.0742  0.1963  0.0191
 1921SOL    HW1 7183   4.522   3.054   0.752 -0.9142  4.2719 -0.1945
 1921SOL    HW2 7184   4.371   3.061   0.758 -1.4882 -2.2403 -0.4536
 1922SOL     OW 7185   2.582   0.788   2.760 -0.7979 -0.6153 -0.3529
 1922SOL    HW1 7186   2.647   0.723   2.735 -1.6298 -0.9828 -1.6266
 1922SOL    HW2 7187   2.539   0.813   2.678 -1.4395  0.5167  0.2947
 1923SOL     OW 7188   2.898   5.445   3.116 -0.4167  0.1634 -0.4212
 1923SOL    HW1 7189   2.848   5.377   3.072 -2.0011  1.2680 -0.4049
 1923SOL    HW2 7190   2.892   5.521   3.058  0.5618  0.5688 -0.0206
 1924SOL     OW 7191   7.140   1.756   7.793 -0.0445 -0.3490 -0.1592
 1924SOL    HW1 7192   7.144   1.766   7.698 -0.9524  2.2179  0.0023
 1924SOL    HW2 7193   7.230   1.773   7.823  0.4622 -2.0906 -0.5576
 1925SOL     OW 7194   5.339   7.918   5.699 -0.2598  0.3973 -0.4848
 1925SOL    HW1 7195   5.382   7.883   5.778 -0.9088 -0.2703 -0.4184
 1925SOL    HW2 7196   5.376   8.006   5.689  3.3318 -1.1057 -2.0985
 1926SOL     OW 7197   4.350   0.807   2.415  0.5257 -0.4376  1.1459
 1926SOL    HW1 7198   4.266   0.852   2.406  0.9239 -0.0936 -1.8669
 1926SOL    HW2 7199   4.404   0.866   2.467  0.9419  2.6522 -2.4114
 1927SOL     OW 7200   6.680   7.083   7.127  0.1758  0.0157 -0.0949
 1927SOL    HW1 7201   6.771   7.111   7.123  0.1907 -0.1342 -1.5760
 1927SOL    HW2 7202   6.684   6.987   7.121 -0.0979  0.0696 -1.7952
 1928SOL     OW 7203   2.061   1.140   2.496  0.0495  0.2152 -0.2057
 1928SOL    HW1 7204   2.057   1.210   2.432  0.1835  0.9355  0.5515
 1928SOL    HW2 7205   2.152   1.110   2.493  0.2318  0.7140  0.1207
 1929SOL     OW 7206   2.575   4.367   0.440 -0.4039  0.4743 -0.3475
 1929SOL    HW1 7207   2.525   4.442   0.408 -2.0174  0.1521  1.2850
 1929SOL    HW2 7208   2.581   4.380   0.534  0.1629 -0.9444 -0.1620
 1930SOL     OW 7209   1.138   3.180   2.010 -0.2423 -0.3466 -0.5940
 1930SOL    HW1 7210   1.091   3.262   1.991  0.0363  0.4247  1.7383
 1930SOL    HW2 7211   1.228   3.198   1.981  0.2396  0.8956  1.4732
 1931SOL     OW 7212   6.545   1.255   0.439 -0.3219  0.3443  0.6226
 1931SOL    HW1 7213   6.463   1.207   0.423  0.1090 -0.1022 -0.3499
 1931SOL    HW2 7214   6.540   1.280   0.531 -0.3471 -2.0116  1.3287
 1932SOL     OW 7215   5.912   3.959   1.089 -0.3815  0.0061 -0.0710
 1932SOL    HW1 7216   5.952   3.977   1.175 -0.1932 -0.8216  0.0202
 1932SOL    HW2 7217   5.838   4.019   1.085 -0.8997 -0.5222  1.0379
 1933SOL     OW 7218   2.459   4.736   5.001  0.3543 -0.4277 -0.0846
 1933SOL    HW1 7219   2.390   4.792   5.038  2.1687  1.4410  0.6727
 1933SOL    HW2 7220   2.417   4.693   4.926 -2.1509 -0.8572  1.4181
 1934SOL     OW 7221   2.298   1.566   5.657  0.2930  0.1246 -0.1924
 1934SOL    HW1 7222   2.338   1.644   5.618  0.2526 -0.4454 -1.4110
 1934SOL    HW2 7223   2.204   1.579   5.645  0.2635  0.1091  0.0302
 1935SOL     OW 7224   1.331   6.675   0.571 -0.1248 -0.1890  0.5616
 1935SOL    HW1 7225   1.346   6.770   0.568 -0.4789 -0.0422 -4.6166
 1935SOL    HW2 7226   1.405   6.641   0.621  1.5009  2.6252  0.2829
 1936SOL     OW 7227   3.160   6.837   6.053  0.0676 -0.1075 -0.2773
 1936SOL    HW1 7228   3.150   6.916   6.106 -0.8377  0.1466 -0.8069
 1936SOL    HW2 7229   3.218   6.780   6.105  0.3981  0.7281  0.2897
 1937SOL     OW 7230   6.583   7.595   5.147  0.1462  0.0053 -0.4152
 1937SOL    HW1 7231   6.553   7.524   5.091  0.3629 -0.5788  0.2001
 1937SOL    HW2 7232   6.676   7.604   5.126 -0.0757  0.7283 -1.1482
 1938SOL     OW 7233   7.247   5.662   8.106 -0.2996  0.0014 -0.2625
 1938SOL    HW1 7234   7.211   5.749   8.122  0.7987  0.1306  1.8825
 1938SOL    HW2 7235   7.340   5.678   8.089  0.0686 -0.7836  0.9079
 1939SOL     OW 7236   3.115   1.716   4.220  0.1974 -0.4543 -0.1286
 1939SOL    HW1 7237   3.191   1.659   4.210 -0.1656 -1.0663  0.5902
 1939SOL    HW2 7238   3.102   1.724   4.314  0.2433  0.8263 -0.2144
 1940SOL     OW 7239   6.123   6.955   1.556 -0.0236 -0.2175  1.1728
 1940SOL    HW1 7240   6.140   6.996   1.640 -0.9823 -1.4858  2.0179
 1940SOL    HW2 7241   6.127   6.861   1.574 -0.1589 -0.5109 -0.2155
 1941SOL     OW 7242   6.383   5.710   3.692  0.6181 -0.4243  0.3424
 1941SOL    HW1 7243   6.368   5.620   3.662  1.3410 -1.1946  2.1682
 1941SOL    HW2 7244   6.475   5.711   3.719  0.1131  0.2875  2.1676
 1942SOL     OW 7245   7.226   3.321   8.237  0.5233  0.1901  0.2116
 1942SOL    HW1 7246   7.210   3.229   8.259 -1.2893  0.1831 -0.9928
 1942SOL    HW2 7247   7.157   3.369   8.283  0.3685  0.7657 -0.6214
 1943SOL     OW 7248   6.663   7.137   6.628 -0.0698 -0.1102 -0.2882
 1943SOL    HW1 7249   6.637   7.048   6.654  0.6403  0.0014  0.8644
 1943SOL    HW2 7250   6.756   7.142   6.649  0.0314  0.7213 -0.8953
 1944SOL     OW 7251   6.502   4.424   7.202  0.3576 -0.4635  0.2777
 1944SOL    HW1 7252   6.571   4.491   7.207  1.0244 -1.1963  1.3350
 1944SOL    HW2 7253   6.484   4.415   7.108  2.2669 -0.7833 -0.0992
 1945SOL     OW 7254   4.963   0.280   6.247 -0.1070 -0.4036 -0.5700
 1945SOL    HW1 7255   4.936   0.357   6.297 -1.7433 -1.0011 -0.4708
 1945SOL    HW2 7256   4.914   0.285   6.165  1.5665 -0.1244 -1.6030
 1946SOL     OW 7257   3.616   3.220   8.242 -0.5216  0.3325  0.3256
 1946SOL    HW1 7258   3.545   3.182   8.190  0.1687 -0.4694 -0.0503
 1946SOL    HW2 7259   3.690   3.161   8.229 -0.4155 -0.1059  2.5117
 1947SOL     OW 7260   2.601   4.845   8.207  0.1611 -0.0875 -0.0416
 1947SOL    HW1 7261   2.620   4.774   8.147  0.7328  0.1209 -0.1142
 1947SOL    HW2 7262   2.515   4.823   8.244  1.3614 -2.1338  1.8167
 1948SOL     OW 7263   6.953   4.746   7.538  0.3336 -0.1485  0.9639
 1948SOL    HW1 7264   7.015   4.779   7.473 -0.2532 -1.3654 -0.2848
 1948SOL    HW2 7265   6.957   4.809   7.610  0.8395  1.4034 -0.3545
 1949SOL     OW 7266   3.876   3.005   2.827 -0.3713  0.1360 -0.3469
 1949SOL    HW1 7267   3.890   2.982   2.736 -0.4284  0.1682 -0.3645
 1949SOL    HW2 7268   3.841   2.926   2.868  0.6645 -0.2132 -0.1031
 1950SOL     OW 7269   3.044   7.544   6.400  0.5724  0.5457  0.0572
 1950SOL    HW1 7270   2.951   7.531   6.419  0.8922 -0.6960  0.8831
 1950SOL    HW2 7271   3.052   7.638   6.383 -1.0014  0.5136 -1.0389
 1951SOL     OW 7272   6.801   5.416   6.456  0.3707  0.1993 -0.1521
 1951SOL    HW1 7273   6.832   5.497   6.496  1.0686  0.7502 -1.7437
 1951SOL    HW2 7274   6.881   5.374   6.422 -0.2945  0.5100 -2.2720
 1952SOL     OW 7275   6.375   6.468   3.856  0.0800 -0.5148  0.4452
 1952SOL    HW1 7276   6.331   6.395   3.812  0.1141  0.6080 -1.5918
 1952SOL    HW2 7277   6.455   6.481   3.805  0.3937  0.5258  1.1862
 1953SOL     OW 7278   4.358   8.018   6.390 -0.4743 -0.2831  0.5179
 1953SOL    HW1 7279   4.420   7.947   6.408  0.0119  0.0692  0.2493
 1953SOL    HW2 7280   4.367   8.077   6.465  1.2676  0.9856 -0.6058
 1954SOL     OW 7281   3.305   4.081   0.889 -0.2014  0.3788 -0.8322
 1954SOL    HW1 7282   3.326   3.988   0.895  3.1906  1.1319  1.1435
 1954SOL    HW2 7283   3.301   4.111   0.980  0.9651  2.5596 -1.4249
 1955SOL     OW 7284   1.424   2.972   6.114 -0.3108 -0.1452  0.0332
 1955SOL    HW1 7285   1.365   2.903   6.144  0.4808 -0.3096  1.2718
 1955SOL    HW2 7286   1.510   2.947   6.149  0.0471  1.3055  0.2558
 1956SOL     OW 7287   7.358   4.476   6.692 -0.2682 -0.3770 -0.1924
 1956SOL    HW1 7288   7.375   4.415   6.619  1.0693 -0.8395  0.4813
 1956SOL    HW2 7289   7.342   4.419   6.767 -0.0223  0.1040  0.2267
 1957SOL     OW 7290   4.269   4.713   0.689 -0.1905 -0.0365 -0.1058
 1957SOL    HW1 7291   4.213   4.785   0.658 -1.5035 -0.5157  1.0386
 1957SOL    HW2 7292   4.259   4.646   0.622 -1.3947 -0.2903  0.2989
 1958SOL     OW 7293   7.515   2.892   6.202  0.0618  0.1053  0.9076
 1958SOL    HW1 7294   7.598   2.926   6.236 -0.7457  1.5105  1.5377
 1958SOL    HW2 7295   7.535   2.866   6.112  1.5285 -0.9818  1.5106
 1959SOL     OW 7296   1.141   2.533   5.504 -0.7065  0.5862 -0.4015
 1959SOL    HW1 7297   1.112   2.495   5.587 -0.9906  2.0825  0.2125
 1959SOL    HW2 7298   1.161   2.457   5.449  1.5873 -0.4710  1.7218
 1960SOL     OW 7299   2.031   5.559   8.003  0.3571  0.5477 -0.3371
 1960SOL    HW1 7300   1.941   5.592   7.998  0.3448  1.1123  2.2969
 1960SOL    HW2 7301   2.086   5.632   7.975  0.0595  0.5045 -1.0568
 1961SOL     OW 7302   5.045   6.779   5.097 -0.3812 -0.1274 -0.6315
 1961SOL    HW1 7303   5.138   6.780   5.120 -0.1149 -1.3276 -1.5462
 1961SOL    HW2 7304   5.024   6.870   5.079  0.6007  0.1740 -0.3274
 1962SOL     OW 7305   6.584   2.970   8.164 -0.2999  0.1815 -0.3065
 1962SOL    HW1 7306   6.510   2.915   8.190 -0.0542 -0.8019 -1.5691
 1962SOL    HW2 7307   6.584   2.966   8.068  0.7797  0.9942 -0.3549
 1963SOL     OW 7308   7.801   7.801   3.522  0.2986 -0.1361 -0.1672
 1963SOL    HW1 7309   7.892   7.781   3.498  0.8845  1.7267  0.3680
 1963SOL    HW2 7310   7.770   7.858   3.451 -0.6511 -1.1676 -0.6105
 1964SOL     OW 7311   0.773   8.188   5.726 -0.0822 -0.3225  0.4459
 1964SOL    HW1 7312   0.803   8.209   5.637  0.3855 -1.0493  0.4259
 1964SOL    HW2 7313   0.783   8.270   5.775  1.2010 -0.3376  0.2396
 1965SOL     OW 7314   6.531   5.562   7.635 -0.2171 -0.0166 -0.3150
 1965SOL    HW1 7315   6.490   5.615   7.702  0.9790  1.8435 -0.9859
 1965SOL    HW2 7316   6.560   5.483   7.681 -1.9375 -0.0883  0.7246
 1966SOL     OW 7317   2.085   1.594   4.066  0.0364 -0.1952  0.5132
 1966SOL    HW1 7318   2.092   1.509   4.111 -0.1707 -0.5681 -0.1445
 1966SOL    HW2 7319   2.020   1.643   4.116  0.2618 -0.3725  0.9823
 1967SOL     OW 7320   2.025   5.965   4.734 -0.5790  0.1693 -0.1869
 1967SOL    HW1 7321   2.009   5.910   4.657 -0.8882  1.0519 -0.7644
 1967SOL    HW2 7322   1.988   5.915   4.807  1.9483 -1.8693 -0.1714
 1968SOL     OW 7323   2.220   1.300   5.769 -0.7198 -0.2486 -0.5736
 1968SOL    HW1 7324   2.258   1.387   5.781 -2.5015  0.5144 -0.1373
 1968SOL    HW2 7325   2.128   1.310   5.794 -0.9509 -2.2891 -0.4185
 1969SOL     OW 7326   7.740   2.293   5.859 -0.1964 -0.3038 -0.1385
 1969SOL    HW1 7327   7.732   2.341   5.777  0.2541  1.2576  0.6754
 1969SOL    HW2 7328   7.779   2.209   5.835  1.2849  0.6869 -1.3585
 1970SOL     OW 7329   1.946   7.856   3.567 -0.1317  0.1768  0.4700
 1970SOL    HW1 7330   2.028   7.812   3.546  0.8392  1.6142  1.0935
 1970SOL    HW2 7331   1.947   7.936   3.514 -2.2484 -0.8563 -1.2902
 1971SOL     OW 7332   0.013   6.926   6.614  0.6467 -0.5556 -0.3359
 1971SOL    HW1 7333   0.011   6.839   6.652 -0.2309 -0.5059 -0.2346
 1971SOL    HW2 7334  -0.027   6.916   6.528  1.0850 -0.3635 -0.5625
 1972SOL     OW 7335   3.385   2.705   5.841 -1.0233  0.0735  0.1759
 1972SOL    HW1 7336   3.408   2.612   5.845 -2.9265 -0.4914 -0.5848
 1972SOL    HW2 7337   3.376   2.724   5.747 -2.6429  0.4352  0.3584
 1973SOL     OW 7338   0.977   3.065   8.260 -0.2867 -0.7965  0.0443
 1973SOL    HW1 7339   1.004   2.975   8.274  0.0556 -0.8951 -1.1468
 1973SOL    HW2 7340   1.001   3.084   8.169  1.4278  1.1050  0.7974
 1974SOL     OW 7341   5.093   3.590   1.657  0.0465  0.3251 -0.7456
 1974SOL    HW1 7342   5.083   3.650   1.583  1.5902 -0.4374 -1.6310
 1974SOL    HW2 7343   5.102   3.503   1.617  2.9603  0.1031  0.1193
 1975SOL     OW 7344   6.456   0.601   7.450  0.2644 -0.0695  0.8414
 1975SOL    HW1 7345   6.434   0.509   7.440 -0.4099  0.2046 -0.2917
 1975SOL    HW2 7346   6.373   0.647   7.438  0.6144  0.6937  1.3022
 1976SOL     OW 7347   2.671   6.301   5.926 -0.4183 -0.4873 -0.0094
 1976SOL    HW1 7348   2.601   6.236   5.922 -1.2306  0.4552 -2.6992
 1976SOL    HW2 7349   2.749   6.254   5.896 -0.3727 -0.9282  0.7710
 1977SOL     OW 7350   0.537   1.986   5.424  0.2896  0.0806  0.3285
 1977SOL    HW1 7351   0.602   2.033   5.373 -0.9576  0.6136 -0.7974
 1977SOL    HW2 7352   0.499   2.052   5.482 -0.2338  0.0756 -0.0099
 1978SOL     OW 7353   1.706   1.726   6.442  0.1722  0.9028  0.0834
 1978SOL    HW1 7354   1.619   1.709   6.479 -0.0278 -2.8676 -1.6261
 1978SOL    HW2 7355   1.690   1.793   6.375 -1.6601 -0.2580 -0.7334
 1979SOL     OW 7356   5.789   7.854   4.214  0.0648 -0.2351 -0.0720
 1979SOL    HW1 7357   5.701   7.867   4.177 -0.0135  0.4064  0.3184
 1979SOL    HW2 7358   5.789   7.763   4.245 -0.8380  0.0711  0.8801
 1980SOL     OW 7359   0.735   0.828   2.438  0.1833 -0.5781  0.0243
 1980SOL    HW1 7360   0.825   0.812   2.467  0.2907 -0.6255 -0.3269
 1980SOL    HW2 7361   0.731   0.791   2.349 -0.3851 -1.2090  0.3012
 1981SOL     OW 7362   7.589   1.107   5.351  0.6729 -0.3538  0.4685
 1981SOL    HW1 7363   7.610   1.014   5.342  1.3369 -0.0562 -1.5982
 1981SOL    HW2 7364   7.672   1.147   5.379  1.1276 -0.0712 -1.1872
 1982SOL     OW 7365   1.414   5.982   6.178 -0.5023  0.3379  0.0031
 1982SOL    HW1 7366   1.354   6.011   6.246 -1.3938  0.1632 -0.6923
 1982SOL    HW2 7367   1.501   5.993   6.216 -0.9421  1.2882  0.7570
 1983SOL     OW 7368   0.452   3.821   3.418 -0.1563  0.1715  0.6414
 1983SOL    HW1 7369   0.374   3.873   3.400 -0.3932  0.8948  3.3983
 1983SOL    HW2 7370   0.524   3.871   3.378 -0.8280  0.5898 -0.0740
 1984SOL     OW 7371   6.530   2.549   6.502  0.1722  0.2379  0.0062
 1984SOL    HW1 7372   6.479   2.566   6.581 -1.5489 -0.7566 -0.8511
 1984SOL    HW2 7373   6.605   2.608   6.509 -0.8695  1.4531  1.4994
 1985SOL     OW 7374   7.066   2.425   0.803  0.3587  0.2814 -0.3064
 1985SOL    HW1 7375   7.121   2.429   0.882  0.0503  0.1303 -0.0807
 1985SOL    HW2 7376   7.074   2.335   0.773  1.2489  0.5749 -1.0153
 1986SOL     OW 7377   2.310   3.974   4.201  0.4554 -0.0844 -0.0692
 1986SOL    HW1 7378   2.302   4.064   4.169 -2.1836 -0.8207 -1.7981
 1986SOL    HW2 7379   2.264   3.974   4.285  0.8352  0.2498  0.1432
 1987SOL     OW 7380   5.631   0.981   3.030  0.2391  0.4771  0.8197
 1987SOL    HW1 7381   5.717   1.013   3.001  0.0888  0.3745  0.2421
 1987SOL    HW2 7382   5.628   0.890   2.999  0.0592  0.3717  1.1431
 1988SOL     OW 7383   3.793   1.481   0.173 -0.2743 -0.2643 -0.0275
 1988SOL    HW1 7384   3.749   1.519   0.096  1.3634  1.9690  0.0177
 1988SOL    HW2 7385   3.722   1.450   0.229 -1.5587 -0.7615 -1.8599
 1989SOL     OW 7386   7.385   3.881   2.944  0.4767  0.0568 -0.3632
 1989SOL    HW1 7387   7.391   3.794   2.983  1.0645  0.0068 -0.5547
 1989SOL    HW2 7388   7.366   3.864   2.851  1.6755  0.0953 -0.6230
 1990SOL     OW 7389   5.483   1.395   5.085 -0.2631  0.0841  0.0969
 1990SOL    HW1 7390   5.553   1.348   5.041 -0.1960  0.3865 -0.1173
 1990SOL    HW2 7391   5.468   1.472   5.032 -0.6400  0.1101  0.2388
 1991SOL     OW 7392   8.085   4.389   1.404  0.1655  0.0436  0.3558
 1991SOL    HW1 7393   8.164   4.443   1.393 -1.5423  2.5428 -0.6639
 1991SOL    HW2 7394   8.054   4.410   1.492 -0.7663  1.1984 -0.2182
 1992SOL     OW 7395   3.735   2.355   7.621 -0.2094  0.3933 -0.5564
 1992SOL    HW1 7396   3.700   2.266   7.627  1.3853 -0.2830 -0.8695
 1992SOL    HW2 7397   3.663   2.407   7.585 -1.3874 -0.6184  0.2726
 1993SOL     OW 7398   6.696   6.879   2.357 -0.6075  0.2820 -0.5455
 1993SOL    HW1 7399   6.742   6.835   2.286 -2.0125  0.2983 -1.4926
 1993SOL    HW2 7400   6.677   6.967   2.323 -0.5840  0.5632  0.1482
 1994SOL     OW 7401   3.249   4.983   1.769  0.0018 -0.8135  0.5908
 1994SOL    HW1 7402   3.286   4.992   1.856 -1.9157 -1.4538  1.5262
 1994SOL    HW2 7403   3.262   5.069   1.728  0.5758 -0.3880  1.6421
 1995SOL     OW 7404   2.904   1.051   1.707 -0.4220 -0.1050 -0.0405
 1995SOL    HW1 7405   2.952   1.130   1.733 -1.8167  0.3923  1.1199
 1995SOL    HW2 7406   2.924   1.042   1.614  2.3177 -0.2371  0.4710
 1996SOL     OW 7407   5.639   6.625   6.313 -0.2863 -0.4514  0.5222
 1996SOL    HW1 7408   5.601   6.548   6.271  0.0754 -0.4742  0.2247
 1996SOL    HW2 7409   5.566   6.685   6.327 -0.8968 -1.5533  2.3691
 1997SOL     OW 7410   6.067   4.657   2.605 -0.2484 -0.3366  0.1800
 1997SOL    HW1 7411   6.078   4.566   2.630  1.1923  0.0456  0.9932
 1997SOL    HW2 7412   6.070   4.706   2.687  0.0471  0.5366 -0.3299
 1998SOL     OW 7413   7.511   5.607   4.367  0.1613 -0.1408  0.1607
 1998SOL    HW1 7414   7.490   5.520   4.402 -1.7616  0.0089 -0.5071
 1998SOL    HW2 7415   7.463   5.667   4.424  0.1480  0.3541 -0.3694
 1999SOL     OW 7416   6.880   2.816   0.424 -0.0565 -0.3301  0.5392
 1999SOL    HW1 7417   6.939   2.815   0.499 -0.7630 -0.1338  1.1094
 1999SOL    HW2 7418   6.878   2.907   0.395  2.1874 -0.7780 -1.3463
 2000SOL     OW 7419   3.132   7.987   6.097  0.1450 -0.0008 -0.4676
 2000SOL    HW1 7420   3.122   7.892   6.107 -0.2033  0.1331  0.5729
 2000SOL    HW2 7421   3.043   8.020   6.092  0.2753  0.1411 -2.4356
 2001SOL     OW 7422   6.695   7.487   3.889 -0.4801 -0.4160  0.5676
 2001SOL    HW1 7423   6.608   7.510   3.859 -0.0471  0.4992 -0.0238
 2001SOL    HW2 7424   6.686   7.399   3.925 -1.3431 -0.9183 -0.8212
 2002SOL     OW 7425   6.473   1.944   1.166  0.0611  0.1304  0.8520
 2002SOL    HW1 7426   6.445   1.856   1.141 -0.8272  0.5830  0.1869
 2002SOL    HW2 7427   6.569   1.943   1.155 -0.0715 -0.3775 -0.3863
 2003SOL     OW 7428   7.082   0.938   1.754 -0.0792 -0.0412 -0.1990
 2003SOL    HW1 7429   7.010   0.875   1.766 -0.0441 -0.4353 -1.7997
 2003SOL    HW2 7430   7.074   0.965   1.662  2.1018 -0.4543 -0.5486
 2004SOL     OW 7431   5.068   0.805   6.807  0.0288 -0.9441 -0.1554
 2004SOL    HW1 7432   5.042   0.779   6.895 -1.4883 -1.1926 -0.6358
 2004SOL    HW2 7433   4.992   0.851   6.772  0.2830 -1.5630 -1.6205
 2005SOL     OW 7434   1.813   1.298   4.336  0.4696 -0.0726 -0.0379
 2005SOL    HW1 7435   1.777   1.209   4.344  1.4587 -0.3562  1.5822
 2005SOL    HW2 7436   1.741   1.349   4.297 -0.1280 -1.5533 -0.9815
 2006SOL     OW 7437   0.181   4.084   5.745 -0.6409 -0.0503  0.1677
 2006SOL    HW1 7438   0.187   4.044   5.832  1.2003  2.2286  1.2131
 2006SOL    HW2 7439   0.248   4.040   5.694  0.9761  1.1588  1.1376
 2007SOL     OW 7440   0.954   6.903   6.003 -0.4555 -0.2428 -0.0333
 2007SOL    HW1 7441   1.023   6.965   6.023 -1.3383  0.0598  2.3770
 2007SOL    HW2 7442   0.876   6.957   5.989 -0.4877 -0.6425 -1.6252
 2008SOL     OW 7443   0.795   2.212   3.852  0.1075  0.2643 -0.1473
 2008SOL    HW1 7444   0.811   2.164   3.771  0.7529 -0.7265  0.5367
 2008SOL    HW2 7445   0.863   2.181   3.912  0.6955  2.2191  0.2725
 2009SOL     OW 7446   1.378   3.335   8.152  0.2128 -0.0740 -0.1592
 2009SOL    HW1 7447   1.429   3.255   8.138 -1.1089 -0.9260 -0.3914
 2009SOL    HW2 7448   1.368   3.372   8.065 -1.6135 -1.2777 -0.5369
 2010SOL     OW 7449   8.107   1.429   6.753  0.2484 -0.0069 -0.0707
 2010SOL    HW1 7450   8.043   1.409   6.684 -0.1589 -0.2916  0.3856
 2010SOL    HW2 7451   8.181   1.372   6.733  0.6000  0.7356 -0.9342
 2011SOL     OW 7452   0.741   5.325   1.671 -0.3187  0.1377 -0.2946
 2011SOL    HW1 7453   0.728   5.233   1.647  1.3317 -0.4508  0.8060
 2011SOL    HW2 7454   0.673   5.343   1.736 -0.3147 -0.4989 -0.1043
 2012SOL     OW 7455   1.063   4.593   2.700  0.0432 -0.5372 -0.4234
 2012SOL    HW1 7456   1.072   4.511   2.748  1.8619  0.4654  1.0815
 2012SOL    HW2 7457   1.150   4.608   2.662  0.6154  1.9118  1.5440
 2013SOL     OW 7458   1.879   6.278   2.015  0.3523  0.1334 -0.1856
 2013SOL    HW1 7459   1.891   6.337   2.090  1.7327  0.5371 -0.7032
 2013SOL    HW2 7460   1.890   6.334   1.938  0.3847 -0.5522 -0.6928
 2014SOL     OW 7461   1.532   7.438   7.132 -0.0859  0.5656 -0.8081
 2014SOL    HW1 7462   1.501   7.455   7.043  0.1711 -0.9704 -1.2239
 2014SOL    HW2 7463   1.477   7.493   7.188 -2.0245 -0.3705 -1.7093
 2015SOL     OW 7464   1.253   3.237   0.536  0.8432  0.2670 -0.1369
 2015SOL    HW1 7465   1.168   3.198   0.556  1.0041 -0.7314 -1.2753
 2015SOL    HW2 7466   1.257   3.238   0.440  2.2560 -0.0478 -0.1020
 2016SOL     OW 7467   2.690   7.693   5.972 -0.4050 -0.1544 -0.2230
 2016SOL    HW1 7468   2.762   7.681   6.033  0.6616 -1.2891 -1.6355
 2016SOL    HW2 7469   2.613   7.661   6.020  0.0565  0.7283  1.1726
 2017SOL     OW 7470   1.512   1.992   0.404  0.1289  0.7017  0.8651
 2017SOL    HW1 7471   1.606   2.009   0.414 -0.1234  1.0894  3.2525
 2017SOL    HW2 7472   1.505   1.946   0.321  2.2740  1.7547  0.0012
 2018SOL     OW 7473   7.255   2.918   0.879  0.3080  0.3386 -0.6853
 2018SOL    HW1 7474   7.182   2.916   0.942  1.0349  1.6653  0.2497
 2018SOL    HW2 7475   7.225   2.976   0.809 -0.0800 -0.2726 -1.0345
 2019SOL     OW 7476   3.365   7.110   0.949  0.7602  0.7675 -0.0198
 2019SOL    HW1 7477   3.285   7.162   0.955  0.2673 -0.0387  0.5533
 2019SOL    HW2 7478   3.338   7.029   0.906  1.3567  0.6533 -0.1917
 2020SOL     OW 7479   2.995   4.033   1.030  0.4148 -0.5001 -0.1087
 2020SOL    HW1 7480   3.033   3.946   1.044  1.6874  0.0212 -0.2513
 2020SOL    HW2 7481   2.974   4.036   0.937  0.1971 -0.7102 -0.0687
 2021SOL     OW 7482   8.327   5.522   7.099 -0.6956 -0.1694  0.4129
 2021SOL    HW1 7483   8.371   5.602   7.126 -0.1538 -0.2630 -0.1598
 2021SOL    HW2 7484   8.239   5.550   7.073 -0.6835  0.1522  0.7133
 2022SOL     OW 7485   0.413   4.327   0.477  0.3549  0.3522 -0.2742
 2022SOL    HW1 7486   0.321   4.346   0.496  0.2986  2.0382 -1.9867
 2022SOL    HW2 7487   0.411   4.242   0.434 -0.2238 -0.2739  0.9266
 2023SOL     OW 7488   0.424   7.251   4.911  0.5013  0.0389 -0.1078
 2023SOL    HW1 7489   0.385   7.240   4.998 -1.4141 -0.1152 -0.9274
 2023SOL    HW2 7490   0.461   7.165   4.891 -2.0828 -1.0024 -0.7871
 2024SOL     OW 7491   8.238   1.353   6.267  0.3606  0.1812  0.0889
 2024SOL    HW1 7492   8.220   1.347   6.173  1.8272 -1.7052 -0.1451
 2024SOL    HW2 7493   8.152   1.349   6.308 -0.2226 -1.2332 -1.1421
 2025SOL     OW 7494   2.467   1.351   6.257  0.7553  0.1450 -0.3338
 2025SOL    HW1 7495   2.534   1.379   6.319  0.9723  0.6271 -0.7740
 2025SOL    HW2 7496   2.511   1.354   6.172  1.0683 -2.3479 -0.3509
 2026SOL     OW 7497   2.598   3.124   2.145 -0.0716 -0.0764 -0.0316
 2026SOL    HW1 7498   2.657   3.049   2.137 -0.8860 -0.7429  0.0226
 2026SOL    HW2 7499   2.624   3.167   2.226  0.8819  0.1291 -0.4406
 2027SOL     OW 7500   1.125   5.166   6.855  0.3678  0.0404 -0.3367
 2027SOL    HW1 7501   1.119   5.070   6.850  1.0418 -0.0118 -0.3139
 2027SOL    HW2 7502   1.169   5.191   6.774  1.9449  0.1409  0.5010
 2028SOL     OW 7503   0.957   6.991   3.684 -0.3516  0.1970 -0.0676
 2028SOL    HW1 7504   0.930   6.981   3.592  0.1978 -1.9047 -0.0628
 2028SOL    HW2 7505   0.877   7.016   3.730 -0.3614  2.6019 -1.2644
 2029SOL     OW 7506   3.893   1.770   7.506 -0.4076  0.5272  0.9133
 2029SOL    HW1 7507   3.883   1.786   7.600  1.2607  0.2370  1.1799
 2029SOL    HW2 7508   3.960   1.832   7.478  1.5545 -1.5620  0.6646
 2030SOL     OW 7509   6.221   4.272   4.537 -0.2402  0.0201 -0.1954
 2030SOL    HW1 7510   6.310   4.293   4.562  0.2579 -1.7177 -0.3525
 2030SOL    HW2 7511   6.167   4.305   4.608  0.7343 -0.7649  0.9522
 2031SOL     OW 7512   0.389   3.017   2.115  0.2605  0.1282  0.1169
 2031SOL    HW1 7513   0.356   2.931   2.141 -0.1840  0.4333  0.5619
 2031SOL    HW2 7514   0.448   3.043   2.187 -0.6569  0.7910  0.6566
 2032SOL     OW 7515   4.023   3.103   0.975  0.1220 -0.3910 -0.0632
 2032SOL    HW1 7516   3.996   3.093   1.066 -0.9132  0.4084 -0.2699
 2032SOL    HW2 7517   3.946   3.081   0.924  0.2947  0.4406 -0.7079
 2033SOL     OW 7518   2.365   6.615   7.450  0.0109  0.6531  0.3955
 2033SOL    HW1 7519   2.376   6.521   7.464  2.1341  0.9681  1.0806
 2033SOL    HW2 7520   2.441   6.642   7.399 -1.1610  1.8378 -0.8429
 2034SOL     OW 7521   2.678   5.413   0.480  0.4523  0.1938 -0.2865
 2034SOL    HW1 7522   2.644   5.501   0.468 -1.4886 -0.3230  0.8807
 2034SOL    HW2 7523   2.746   5.403   0.413 -0.1225  2.1307 -1.2166
 2035SOL     OW 7524   4.888   3.061   1.109 -0.1483 -0.6691  0.3342
 2035SOL    HW1 7525   4.968   3.088   1.153  0.1470 -0.8812 -0.0732
 2035SOL    HW2 7526   4.886   2.966   1.119  0.2947 -0.7978 -0.7403
 2036SOL     OW 7527   1.956   6.901   4.965 -0.4080 -0.6539 -0.6072
 2036SOL    HW1 7528   1.982   6.970   5.026  0.5045 -1.6925  0.2196
 2036SOL    HW2 7529   1.864   6.884   4.986 -0.8266  0.7082 -1.2376
 2037SOL     OW 7530   5.353   1.661   3.884 -0.5888  0.2187 -0.3120
 2037SOL    HW1 7531   5.304   1.578   3.880  1.5777 -1.2328  0.9406
 2037SOL    HW2 7532   5.375   1.680   3.793  2.2654 -2.8432 -0.4463
 2038SOL     OW 7533   0.720   8.236   8.367  0.1410 -0.4768  0.3250
 2038SOL    HW1 7534   0.677   8.249   8.283  0.8897 -1.0715 -0.1686
 2038SOL    HW2 7535   0.675   8.295   8.427  1.7574  2.5636 -1.2053
 2039SOL     OW 7536   1.481   7.031   4.234 -0.2886  0.2469 -0.0784
 2039SOL    HW1 7537   1.452   6.994   4.317 -0.3008  1.3058  0.4057
 2039SOL    HW2 7538   1.576   7.013   4.232 -0.3290  0.0172  0.0505
 2040SOL     OW 7539   5.147   7.025   5.816 -0.6292  0.2398  0.5983
 2040SOL    HW1 7540   5.080   6.973   5.771 -0.4188  1.1683 -0.8528
 2040SOL    HW2 7541   5.112   7.114   5.816  1.7880  1.4072 -2.9534
 2041SOL     OW 7542   6.880   4.585   6.270  0.1034  0.0956 -0.4063
 2041SOL    HW1 7543   6.819   4.514   6.249  0.7006 -0.1305 -1.4196
 2041SOL    HW2 7544   6.942   4.546   6.332 -1.3130  0.5964  1.3947
 2042SOL     OW 7545   2.674   4.068   1.664 -0.1644  0.2277  0.3930
 2042SOL    HW1 7546   2.651   4.158   1.688 -1.7385  0.3437 -1.2945
 2042SOL    HW2 7547   2.715   4.076   1.578 -2.3332 -0.7586 -0.8376
 2043SOL     OW 7548   6.957   3.463   3.410 -0.0847  0.2575 -0.1674
 2043SOL    HW1 7549   7.017   3.389   3.411 -1.0346 -0.5279  0.1832
 2043SOL    HW2 7550   6.910   3.455   3.327  0.2580  0.8498 -0.4269
 2044SOL     OW 7551   2.489   8.028   4.564  0.4706  0.3511 -0.4438
 2044SOL    HW1 7552   2.581   8.003   4.577  0.4483  0.1329 -0.7137
 2044SOL    HW2 7553   2.471   8.009   4.472  0.3536  1.0317 -0.5709
 2045SOL     OW 7554   2.239   4.661   4.063  0.6885 -0.5479 -0.1896
 2045SOL    HW1 7555   2.146   4.680   4.080  0.9223  1.2999 -0.8132
 2045SOL    HW2 7556   2.238   4.575   4.021 -1.1038  0.7777 -3.2094
 2046SOL     OW 7557   0.300   5.866   2.623  0.0757  0.0938 -0.4322
 2046SOL    HW1 7558   0.229   5.912   2.578 -0.5170  0.3242  0.7045
 2046SOL    HW2 7559   0.263   5.843   2.709  1.0241 -0.7365 -0.2310
 2047SOL     OW 7560   6.722   0.547   6.800 -0.1303  0.1057  0.5839
 2047SOL    HW1 7561   6.630   0.523   6.784  0.1324 -0.5617 -0.0229
 2047SOL    HW2 7562   6.729   0.556   6.895 -0.7974  0.0279  0.6427
 2048SOL     OW 7563   3.387   0.577   4.311  0.2919  0.0553  0.2405
 2048SOL    HW1 7564   3.367   0.490   4.279  0.0240  0.8523 -1.9425
 2048SOL    HW2 7565   3.302   0.616   4.332  0.2921  0.2491 -0.1072
 2049SOL     OW 7566   7.003   1.380   4.888 -0.3719 -0.4933 -0.3680
 2049SOL    HW1 7567   6.997   1.287   4.869  0.3155 -0.6304  0.0582
 2049SOL    HW2 7568   7.072   1.387   4.954  0.0206  0.3771 -0.8509
 2050SOL     OW 7569   5.005   3.920   1.528  0.3256 -0.0288  0.5608
 2050SOL    HW1 7570   4.915   3.924   1.494 -0.0927 -1.4091  1.4005
 2050SOL    HW2 7571   5.007   3.984   1.598 -0.2994 -0.5929  1.1181
 2051SOL     OW 7572   2.858   7.924   5.176  0.6252 -0.3325 -0.0093
 2051SOL    HW1 7573   2.816   8.008   5.196 -0.5981 -0.4356 -1.9645
 2051SOL    HW2 7574   2.840   7.870   5.253 -0.8779  0.3732  0.1774
 2052SOL     OW 7575   5.682   0.881   0.795 -0.2900  0.4937  0.4449
 2052SOL    HW1 7576   5.671   0.858   0.702  0.6976 -3.3801  1.1202
 2052SOL    HW2 7577   5.596   0.913   0.822 -1.7582 -1.9295 -0.9826
 2053SOL     OW 7578   1.560   0.062   6.570 -0.1237 -0.4395  0.2208
 2053SOL    HW1 7579   1.653   0.084   6.576 -0.3738  0.3660  1.5277
 2053SOL    HW2 7580   1.516   0.147   6.568 -0.8360 -0.8153 -0.4737
 2054SOL     OW 7581   7.999   5.740   5.867 -0.3041 -0.0724  0.4626
 2054SOL    HW1 7582   8.084   5.756   5.828 -0.5935 -1.9093 -1.0409
 2054SOL    HW2 7583   8.006   5.653   5.907 -0.6878  0.8493  2.7180
 2055SOL     OW 7584   3.877   2.299   4.758 -0.0506  0.0097 -0.6669
 2055SOL    HW1 7585   3.966   2.328   4.738  0.0914  1.3457  1.6430
 2055SOL    HW2 7586   3.821   2.357   4.707  0.3597  1.4380  0.4530
 2056SOL     OW 7587   7.728   1.029   3.565 -0.4078 -0.0991 -0.8515
 2056SOL    HW1 7588   7.665   0.958   3.576  0.5193 -0.8856 -0.4865
 2056SOL    HW2 7589   7.686   1.105   3.606 -0.7794 -0.7981  0.0857
 2057SOL     OW 7590   0.924   1.446   3.008 -0.5486  0.3276  0.1298
 2057SOL    HW1 7591   0.933   1.351   3.011  3.6509  0.5882  1.7504
 2057SOL    HW2 7592   0.918   1.466   2.915 -0.6013 -1.4622 -0.2938
 2058SOL     OW 7593   8.337   3.680   0.896 -0.3312  0.0838 -0.4352
 2058SOL    HW1 7594   8.334   3.754   0.957 -2.4272 -0.5184  0.2623
 2058SOL    HW2 7595   8.265   3.695   0.836 -0.7000 -1.2789 -0.3801
 2059SOL     OW 7596   4.321   2.777   8.012 -0.5011 -0.7474  0.0394
 2059SOL    HW1 7597   4.259   2.802   7.944 -0.2004  0.4857  0.1813
 2059SOL    HW2 7598   4.295   2.689   8.039 -3.9412  0.6927  2.0247
 2060SOL     OW 7599   5.389   0.724   0.225  0.3103 -0.1241  0.0123
 2060SOL    HW1 7600   5.296   0.714   0.246 -0.0292  0.1306 -1.2764
 2060SOL    HW2 7601   5.404   0.818   0.229  0.7382 -0.2158  1.0237
 2061SOL     OW 7602   4.221   4.309   1.443  0.1178 -0.5852 -0.0741
 2061SOL    HW1 7603   4.239   4.242   1.509  0.1111  0.9160  1.5141
 2061SOL    HW2 7604   4.128   4.328   1.454  0.5679  1.1747  0.9836
 2062SOL     OW 7605   6.239   1.594   2.418 -0.1669  0.2812 -0.2464
 2062SOL    HW1 7606   6.317   1.644   2.444  0.2266  0.8549 -2.3735
 2062SOL    HW2 7607   6.267   1.543   2.343 -1.8171  0.4556 -1.0266
 2063SOL     OW 7608   5.268   5.426   5.198 -0.3292  0.3294  0.0098
 2063SOL    HW1 7609   5.263   5.402   5.290 -2.1283  0.0244 -0.1327
 2063SOL    HW2 7610   5.265   5.521   5.197  0.2374  0.3558  0.2728
 2064SOL     OW 7611   0.484   4.777   5.426 -0.3754 -0.5368 -0.5849
 2064SOL    HW1 7612   0.422   4.850   5.427  1.0809  0.8038 -2.2571
 2064SOL    HW2 7613   0.533   4.786   5.508 -0.7653 -0.1375 -0.3923
 2065SOL     OW 7614   7.910   1.231   5.425 -0.0327  0.1345  0.7967
 2065SOL    HW1 7615   7.976   1.275   5.371  0.0425 -0.4130  0.4270
 2065SOL    HW2 7616   7.849   1.300   5.449 -0.4352  0.2759 -0.5544
 2066SOL     OW 7617   0.564   2.840   6.924 -0.0116  0.1498 -0.3272
 2066SOL    HW1 7618   0.592   2.849   6.833  2.2339 -0.9274  0.1712
 2066SOL    HW2 7619   0.613   2.764   6.956  1.6630  2.2436  2.6024
 2067SOL     OW 7620   1.772   7.821   8.157  0.6162  0.0923 -0.1110
 2067SOL    HW1 7621   1.859   7.827   8.196  0.5135  0.7118  0.0232
 2067SOL    HW2 7622   1.757   7.727   8.147  1.3090 -0.0188 -0.1549
 2068SOL     OW 7623   2.010   8.359   2.187  0.1715  0.6369  0.1063
 2068SOL    HW1 7624   2.068   8.285   2.170 -1.3340 -0.3933 -0.8429
 2068SOL    HW2 7625   2.052   8.408   2.257  1.0929 -1.2597  0.9228
 2069SOL     OW 7626   1.539   1.541   1.253 -0.0895  0.0146 -0.4797
 2069SOL    HW1 7627   1.485   1.621   1.252 -0.6898 -0.3765 -0.2166
 2069SOL    HW2 7628   1.539   1.514   1.345 -0.9707 -0.9927 -0.7544
 2070SOL     OW 7629   3.099   7.949   4.241  0.6029  0.0431 -0.5726
 2070SOL    HW1 7630   3.065   8.038   4.235 -1.0101 -0.5171 -0.1979
 2070SOL    HW2 7631   3.188   7.954   4.206  0.5362  1.7937 -0.5372
 2071SOL     OW 7632   0.564   7.411   1.343  0.0102 -0.2731 -0.1163
 2071SOL    HW1 7633   0.543   7.352   1.416 -0.2839  0.1423  0.1373
 2071SOL    HW2 7634   0.491   7.400   1.282  0.2155 -0.5597 -0.3114
 2072SOL     OW 7635   5.948   4.002   7.231  0.2481  0.1565  0.1732
 2072SOL    HW1 7636   5.898   3.942   7.286  0.0075 -0.5899 -0.8097
 2072SOL    HW2 7637   6.007   4.048   7.291  0.1214 -0.7505  1.0127
 2073SOL     OW 7638   2.880   2.634   3.020  0.2297 -0.3203 -0.2737
 2073SOL    HW1 7639   2.838   2.718   3.002  1.3642  0.6508  1.4071
 2073SOL    HW2 7640   2.866   2.620   3.114  3.0969 -0.2251  0.2305
 2074SOL     OW 7641   3.763   6.778   5.341 -0.5161 -0.2439  0.0326
 2074SOL    HW1 7642   3.799   6.866   5.326  0.4882 -0.3523  1.4905
 2074SOL    HW2 7643   3.682   6.775   5.291 -2.5010  2.8334  2.6594
 2075SOL     OW 7644   5.130   3.148   2.090  0.6192 -0.0671 -0.5438
 2075SOL    HW1 7645   5.110   3.195   2.171  0.5671 -0.8593 -0.0879
 2075SOL    HW2 7646   5.201   3.088   2.113  1.4576  0.5749 -1.4008
 2076SOL     OW 7647   2.671   6.145   8.191 -0.3089  0.9734  0.0920
 2076SOL    HW1 7648   2.735   6.074   8.194 -0.0430  1.1902 -0.3111
 2076SOL    HW2 7649   2.586   6.102   8.201 -0.1039  0.6861  0.6769
 2077SOL     OW 7650   5.502   5.193   6.750  0.2712 -0.0016  0.5111
 2077SOL    HW1 7651   5.509   5.235   6.664 -1.6321  3.2833  1.7748
 2077SOL    HW2 7652   5.413   5.158   6.752  0.5615 -0.7199  0.8730
 2078SOL     OW 7653   6.604   6.305   6.917 -0.1407 -0.5838 -0.1137
 2078SOL    HW1 7654   6.668   6.240   6.945  1.5055  0.5765 -0.9848
 2078SOL    HW2 7655   6.596   6.364   6.992  0.3539 -0.3449 -0.2453
 2079SOL     OW 7656   2.982   8.177   6.579 -0.1651 -0.0221 -0.3080
 2079SOL    HW1 7657   3.013   8.255   6.624  0.6569 -0.8814  0.6766
 2079SOL    HW2 7658   3.041   8.107   6.608 -0.0395 -0.7635 -2.1901
 2080SOL     OW 7659   2.897   4.415   2.891  0.0654 -0.0476  0.1868
 2080SOL    HW1 7660   2.914   4.450   2.803  0.5677  0.1808  0.3676
 2080SOL    HW2 7661   2.949   4.471   2.949 -0.2928 -0.1715  0.6344
 2081SOL     OW 7662   2.257   5.431   1.410 -0.1085 -0.1785 -0.1144
 2081SOL    HW1 7663   2.280   5.407   1.500  0.2002  0.0425 -0.1316
 2081SOL    HW2 7664   2.309   5.373   1.355 -0.3307 -0.3435 -0.1513
 2082SOL     OW 7665   3.938   7.609   6.317  0.0312  0.1801  0.1872
 2082SOL    HW1 7666   4.019   7.588   6.270  0.7553 -0.1350  1.5196
 2082SOL    HW2 7667   3.950   7.699   6.345 -0.3981  0.3646 -0.2044
 2083SOL     OW 7668   4.711   0.784   5.321 -0.0808  0.3800  0.4925
 2083SOL    HW1 7669   4.679   0.839   5.394  2.4372  1.0405  1.1888
 2083SOL    HW2 7670   4.766   0.718   5.363 -0.1857 -0.4839 -0.6783
 2084SOL     OW 7671   7.575   4.291   5.684  1.1838 -0.2841 -0.1651
 2084SOL    HW1 7672   7.492   4.253   5.656  1.5589 -0.3876 -1.1802
 2084SOL    HW2 7673   7.576   4.378   5.642  1.1499  0.1239  0.6532
 2085SOL     OW 7674   5.430   3.558   8.147 -0.2852 -0.5543  0.0712
 2085SOL    HW1 7675   5.449   3.571   8.055  0.3714 -1.7891  0.0077
 2085SOL    HW2 7676   5.464   3.636   8.191 -0.3372 -0.0959 -0.6906
 2086SOL     OW 7677   2.744   3.780   0.746 -0.2961 -0.4671 -0.6646
 2086SOL    HW1 7678   2.768   3.712   0.808 -1.3849  0.0893  0.4078
 2086SOL    HW2 7679   2.668   3.744   0.700 -1.4481  0.3433  0.5407
 2087SOL     OW 7680   5.634   3.083   0.928 -0.3440  0.0809 -0.1938
 2087SOL    HW1 7681   5.544   3.051   0.918  0.3393 -1.9557 -0.3684
 2087SOL    HW2 7682   5.650   3.134   0.849 -1.3315  0.4292 -0.1813
 2088SOL     OW 7683   3.041   6.768   6.855 -0.1176 -0.2929  0.2746
 2088SOL    HW1 7684   3.101   6.703   6.892  2.0792  1.4309 -0.1136
 2088SOL    HW2 7685   2.995   6.804   6.931  2.3197  1.2149  1.1247
 2089SOL     OW 7686   4.474   6.050   1.212 -0.3061  0.2528 -0.2943
 2089SOL    HW1 7687   4.421   5.977   1.245  0.9367  0.1060  1.4993
 2089SOL    HW2 7688   4.474   6.037   1.117 -2.9398 -0.0717 -0.3295
 2090SOL     OW 7689   2.560   5.200   3.663 -0.4839  0.2730 -0.6520
 2090SOL    HW1 7690   2.559   5.106   3.681  0.0729 -0.1831 -2.7527
 2090SOL    HW2 7691   2.557   5.241   3.749 -0.8240 -1.6648  0.3029
 2091SOL     OW 7692   1.481   1.286   7.262  0.5842 -0.6410  0.2242
 2091SOL    HW1 7693   1.416   1.219   7.241  0.8004 -0.6891 -0.3005
 2091SOL    HW2 7694   1.451   1.364   7.215  2.5147 -1.4582 -2.5842
 2092SOL     OW 7695   5.809   7.982   5.297  0.2548  0.4495 -0.3942
 2092SOL    HW1 7696   5.844   7.915   5.238 -0.0545 -1.2977  1.3029
 2092SOL    HW2 7697   5.887   8.024   5.334  0.5855 -1.1125  0.8150
 2093SOL     OW 7698   1.687   7.594   3.460 -0.9715 -0.0538 -0.0484
 2093SOL    HW1 7699   1.660   7.566   3.372 -0.2856 -0.3042 -0.1851
 2093SOL    HW2 7700   1.605   7.609   3.506 -1.3492 -1.1638 -0.3363
 2094SOL     OW 7701   4.837   3.544   6.369  0.5823 -0.9388  0.6674
 2094SOL    HW1 7702   4.856   3.568   6.460 -1.5556  1.2482  0.6300
 2094SOL    HW2 7703   4.915   3.571   6.320  0.9703 -0.3222  1.5948
 2095SOL     OW 7704   4.356   3.411   2.161 -0.5449 -0.0702  0.0844
 2095SOL    HW1 7705   4.332   3.357   2.236  0.8231 -0.4384  0.2878
 2095SOL    HW2 7706   4.324   3.498   2.182  0.5909  0.0333  1.5279
 2096SOL     OW 7707   3.349   2.267   3.205  0.1688 -0.4396 -0.1426
 2096SOL    HW1 7708   3.318   2.353   3.234  0.0030 -0.6971  0.4691
 2096SOL    HW2 7709   3.273   2.210   3.217  0.9357 -1.1628  1.7173
 2097SOL     OW 7710   5.129   2.957   7.553  0.2913 -0.1968 -0.4792
 2097SOL    HW1 7711   5.094   3.045   7.563  2.4850  0.7391 -0.3868
 2097SOL    HW2 7712   5.144   2.927   7.643  0.0572 -0.4526 -0.5245
 2098SOL     OW 7713   0.557   4.536   0.403 -0.0170  0.1456 -0.1743
 2098SOL    HW1 7714   0.522   4.454   0.437  2.3455 -0.3622  1.2815
 2098SOL    HW2 7715   0.491   4.602   0.425 -1.5586 -1.2006 -0.6089
 2099SOL     OW 7716   0.383   6.185   1.199 -0.1600  0.5326 -0.2784
 2099SOL    HW1 7717   0.461   6.142   1.163 -0.3784  0.6480 -0.9084
 2099SOL    HW2 7718   0.311   6.128   1.173 -0.3238  0.6299 -0.0372
 2100SOL     OW 7719   6.548   2.797   6.243 -0.0400  0.3145  0.2418
 2100SOL    HW1 7720   6.471   2.741   6.234 -0.6953  1.3993 -1.3588
 2100SOL    HW2 7721   6.523   2.862   6.309  0.4622 -0.7735  1.5656
 2101SOL     OW 7722   3.347   1.873   4.436 -0.2700  0.5994  0.5537
 2101SOL    HW1 7723   3.388   1.822   4.366 -0.9107 -0.7787  1.1342
 2101SOL    HW2 7724   3.416   1.886   4.501 -0.3692 -0.4772  0.8850
 2102SOL     OW 7725   7.272   2.532   7.639  0.1087  0.2667 -0.2785
 2102SOL    HW1 7726   7.201   2.520   7.701  0.1814  1.0072 -0.0349
 2102SOL    HW2 7727   7.342   2.475   7.671 -0.0076  0.3169  0.0730
 2103SOL     OW 7728   1.652   5.214   2.934 -0.0432 -0.3954 -0.5707
 2103SOL    HW1 7729   1.613   5.228   3.020 -0.6031  0.2560 -0.9237
 2103SOL    HW2 7730   1.735   5.260   2.938  0.1035 -0.6787 -0.2600
 2104SOL     OW 7731   4.595   1.336   0.472  0.0162  0.4399 -0.1427
 2104SOL    HW1 7732   4.563   1.306   0.387  0.5848 -1.1591  0.1874
 2104SOL    HW2 7733   4.564   1.427   0.478  1.0803  1.0518 -2.6284
 2105SOL     OW 7734   0.480   5.904   0.937  0.0682 -0.4264 -0.4283
 2105SOL    HW1 7735   0.537   5.973   0.971  2.2255 -1.2821 -2.0466
 2105SOL    HW2 7736   0.525   5.822   0.961 -0.0171 -1.1079 -2.4131
 2106SOL     OW 7737   4.892   4.589   6.508  0.5803  0.0786 -0.3792
 2106SOL    HW1 7738   4.886   4.602   6.603  0.8048  1.6775 -0.5448
 2106SOL    HW2 7739   4.809   4.549   6.484  0.3191  0.1028  0.4350
 2107SOL     OW 7740   6.892   1.433   4.251  0.4791  0.1732  0.1311
 2107SOL    HW1 7741   6.886   1.438   4.155  0.4014 -0.1893  0.1147
 2107SOL    HW2 7742   6.959   1.496   4.275  0.6035  0.1584 -0.1774
 2108SOL     OW 7743   0.998   1.246   8.107  0.3482 -0.6303 -0.0904
 2108SOL    HW1 7744   0.920   1.301   8.096  0.2997 -0.5057  0.8059
 2108SOL    HW2 7745   1.041   1.249   8.022  2.7466  4.4355  0.9240
 2109SOL     OW 7746   1.484   0.294   5.689  0.4366  0.2112  0.3480
 2109SOL    HW1 7747   1.449   0.376   5.723 -2.7279 -0.3144 -1.2083
 2109SOL    HW2 7748   1.476   0.302   5.594  1.3787 -1.3671  0.1001
 2110SOL     OW 7749   2.398   6.900   3.143 -0.4418  0.1788 -0.1307
 2110SOL    HW1 7750   2.466   6.968   3.148 -1.1252  1.1171 -2.4373
 2110SOL    HW2 7751   2.437   6.831   3.089 -0.5977 -0.2317  0.2753
 2111SOL     OW 7752   5.770   3.913   6.738  0.3275 -0.2149  0.2853
 2111SOL    HW1 7753   5.706   3.846   6.761  0.7485 -1.3097 -1.5225
 2111SOL    HW2 7754   5.730   3.995   6.766 -1.0001 -1.0498  0.9318
 2112SOL     OW 7755   7.863   3.439   7.008 -0.0400 -0.1899 -0.0214
 2112SOL    HW1 7756   7.917   3.515   6.987  2.6148 -1.6368  1.0379
 2112SOL    HW2 7757   7.837   3.404   6.922 -1.5575  1.9485 -0.5254
 2113SOL     OW 7758   1.047   6.098   6.583  0.2794  0.6845  0.7102
 2113SOL    HW1 7759   0.972   6.059   6.629  0.3317 -0.1914  0.0753
 2113SOL    HW2 7760   1.039   6.192   6.600 -1.7096  0.7665 -0.4224
 2114SOL     OW 7761   4.353   4.454   6.402 -0.8456  0.1247  0.6912
 2114SOL    HW1 7762   4.376   4.378   6.349 -0.0692 -0.0457  1.2637
 2114SOL    HW2 7763   4.398   4.528   6.361 -0.4860  0.0432  0.9401
 2115SOL     OW 7764   7.130   5.086   8.060  0.5346 -0.0505 -0.0990
 2115SOL    HW1 7765   7.098   5.006   8.101 -0.1376 -0.1682 -0.8355
 2115SOL    HW2 7766   7.062   5.110   7.997  0.5500  1.3075  0.3672
 2116SOL     OW 7767   4.928   2.812   6.415  0.1493  0.5162  0.3741
 2116SOL    HW1 7768   5.023   2.812   6.415  0.1628  1.3034 -0.6288
 2116SOL    HW2 7769   4.904   2.750   6.483  1.3715 -1.7624 -1.1471
 2117SOL     OW 7770   3.030   5.088   8.345  0.0155  0.2784  0.3316
 2117SOL    HW1 7771   3.048   5.159   8.284  0.0949  1.6677  1.8876
 2117SOL    HW2 7772   2.956   5.042   8.307  1.3216 -0.1681 -1.7995
 2118SOL     OW 7773   7.873   4.941   2.690 -0.3754 -0.1475 -0.3818
 2118SOL    HW1 7774   7.888   5.032   2.665  1.1293 -0.2418  0.1018
 2118SOL    HW2 7775   7.820   4.947   2.770  0.1333  0.3311 -0.0718
 2119SOL     OW 7776   8.322   0.282   0.030 -0.9738 -0.0815 -0.7303
 2119SOL    HW1 7777   8.262   0.337   0.081 -0.0294  2.1719 -1.9085
 2119SOL    HW2 7778   8.264   0.234  -0.029 -1.7627  0.7702 -0.6879
 2120SOL     OW 7779   1.319   5.810   0.323  0.0259  0.3500  0.3136
 2120SOL    HW1 7780   1.325   5.832   0.416 -0.9665  0.9005  0.2728
 2120SOL    HW2 7781   1.366   5.881   0.279  0.0110  0.3972  0.3728
 2121SOL     OW 7782   2.997   7.549   7.137 -0.4241 -0.1858 -0.3902
 2121SOL    HW1 7783   3.050   7.486   7.187 -1.2067 -0.7314 -0.2231
 2121SOL    HW2 7784   3.002   7.630   7.188  3.6758  1.1425 -2.4600
 2122SOL     OW 7785   6.770   2.483   1.243 -0.6235  0.3863 -0.3221
 2122SOL    HW1 7786   6.686   2.437   1.242 -1.1404  1.1334  1.7515
 2122SOL    HW2 7787   6.833   2.419   1.277 -1.0116  0.6483  0.9802
 2123SOL     OW 7788   0.639   4.411   8.089  0.3590  0.4265  0.1367
 2123SOL    HW1 7789   0.595   4.363   8.020 -0.4078  2.7644 -1.0929
 2123SOL    HW2 7790   0.710   4.353   8.117 -0.2850 -1.2317 -1.4709
 2124SOL     OW 7791   1.205   0.439   4.050  0.3312 -0.2605  0.3393
 2124SOL    HW1 7792   1.136   0.374   4.062 -0.9274  1.1457  0.9984
 2124SOL    HW2 7793   1.253   0.409   3.973 -1.9437 -0.5072 -1.0683
 2125SOL     OW 7794   7.885   1.682   3.162  0.6591  0.1299 -0.0000
 2125SOL    HW1 7795   7.840   1.755   3.205  0.0627 -0.7351  0.9132
 2125SOL    HW2 7796   7.847   1.604   3.204 -0.9699 -0.8639 -3.0255
 2126SOL     OW 7797   3.475   0.220   3.104 -0.5788  0.0565  0.4674
 2126SOL    HW1 7798   3.542   0.282   3.076 -0.7420  0.0318  0.0004
 2126SOL    HW2 7799   3.440   0.256   3.185 -0.3700  0.3447  0.4291
 2127SOL     OW 7800   4.489   4.279   0.412  0.1936  0.3653  0.0386
 2127SOL    HW1 7801   4.568   4.235   0.443  0.8808  0.3558 -1.6077
 2127SOL    HW2 7802   4.429   4.209   0.388 -0.4156  0.3716  1.4362
 2128SOL     OW 7803   2.550   4.671   0.406  0.3303 -0.5131 -0.1716
 2128SOL    HW1 7804   2.480   4.619   0.368 -1.6668  3.3589 -2.4641
 2128SOL    HW2 7805   2.521   4.689   0.495  0.0712 -1.5842 -0.0292
 2129SOL     OW 7806   8.151   6.880   0.448  0.1216 -0.3791  0.6168
 2129SOL    HW1 7807   8.117   6.791   0.446  0.1148 -0.3640 -0.0867
 2129SOL    HW2 7808   8.246   6.869   0.456  0.1558 -0.4572  0.1229
 2130SOL     OW 7809   1.460   1.156   7.516 -0.3205 -0.1182  0.0847
 2130SOL    HW1 7810   1.394   1.223   7.500 -0.0743 -0.1928 -1.3990
 2130SOL    HW2 7811   1.526   1.170   7.448  0.8051 -0.5460  1.0510
 2131SOL     OW 7812   5.297   4.526   5.432 -0.5408 -0.0641 -0.5344
 2131SOL    HW1 7813   5.334   4.438   5.425  0.3250 -0.0773  2.6880
 2131SOL    HW2 7814   5.364   4.584   5.396 -0.2025 -0.5636 -0.7137
 2132SOL     OW 7815   0.275   0.913   0.707 -0.3605  0.1564 -0.2416
 2132SOL    HW1 7816   0.247   0.999   0.738  0.5573 -0.0568  1.2980
 2132SOL    HW2 7817   0.289   0.924   0.613  0.2570  1.8294  0.0148
 2133SOL     OW 7818   6.067   3.626   1.905  0.2206 -0.0742 -0.2374
 2133SOL    HW1 7819   5.973   3.633   1.890  0.4393  0.9134 -1.3381
 2133SOL    HW2 7820   6.080   3.537   1.936 -0.9927 -0.4639 -0.7832
 2134SOL     OW 7821   3.966   0.503   7.563 -0.0770  0.3577  0.5896
 2134SOL    HW1 7822   4.050   0.459   7.577 -1.3084 -2.1769  0.6551
 2134SOL    HW2 7823   3.941   0.534   7.650 -0.5152 -1.4890  1.1635
 2135SOL     OW 7824   2.786   3.464   4.921  0.0668 -0.1493 -0.7350
 2135SOL    HW1 7825   2.763   3.393   4.980  0.3381  0.0468 -0.3914
 2135SOL    HW2 7826   2.840   3.422   4.854  0.5776 -0.1926 -0.3020
 2136SOL     OW 7827   7.291   8.152   8.301  0.3243  0.1125 -0.1331
 2136SOL    HW1 7828   7.309   8.162   8.207 -1.5680 -3.3008 -1.0272
 2136SOL    HW2 7829   7.305   8.059   8.318 -1.0744  0.3135  2.5807
 2137SOL     OW 7830   7.499   0.458   6.588  0.6555  0.2436  0.8477
 2137SOL    HW1 7831   7.483   0.540   6.635 -2.3789 -0.0440  0.5523
 2137SOL    HW2 7832   7.415   0.411   6.593  2.1581 -2.7063  0.6947
 2138SOL     OW 7833   5.892   7.573   1.777  0.6833  0.5920 -0.8881
 2138SOL    HW1 7834   5.921   7.564   1.867  0.7865  1.7645 -0.7969
 2138SOL    HW2 7835   5.882   7.667   1.763 -0.7240  0.3517 -1.6666
 2139SOL     OW 7836   3.167   7.196   6.480  0.0193 -0.3079 -0.4780
 2139SOL    HW1 7837   3.144   7.250   6.404 -0.1702 -1.0758 -0.9799
 2139SOL    HW2 7838   3.099   7.128   6.483  0.1313 -0.3979  0.2666
 2140SOL     OW 7839   7.562   4.521   2.379  0.0634  0.4622  0.3879
 2140SOL    HW1 7840   7.507   4.585   2.424 -0.0376  1.1386 -0.6553
 2140SOL    HW2 7841   7.509   4.491   2.305  0.8320  0.6297 -0.2513
 2141SOL     OW 7842   6.978   8.335   2.863  0.3026 -0.3968 -0.2969
 2141SOL    HW1 7843   7.001   8.386   2.941  1.8067 -3.1655  1.2144
 2141SOL    HW2 7844   6.882   8.328   2.867  0.2605  0.4432  0.6778
 2142SOL     OW 7845   0.525   1.833   6.665 -0.2277  1.0577 -0.4162
 2142SOL    HW1 7846   0.430   1.831   6.649 -0.1702 -1.4855 -0.7925
 2142SOL    HW2 7847   0.561   1.873   6.586 -0.7937 -1.0454 -1.8119
 2143SOL     OW 7848   7.347   5.147   4.720 -0.1341  0.4441 -0.2062
 2143SOL    HW1 7849   7.387   5.166   4.805 -1.6180 -0.6882  0.8005
 2143SOL    HW2 7850   7.420   5.119   4.665  0.5565 -1.4865  1.5301
 2144SOL     OW 7851   7.915   3.198   2.469 -0.1681 -0.0234 -0.1894
 2144SOL    HW1 7852   7.973   3.273   2.486  0.5066 -0.8696  1.4917
 2144SOL    HW2 7853   7.955   3.126   2.517 -1.8350 -1.0050 -0.2059
 2145SOL     OW 7854   6.026   8.327   7.451 -0.2796 -0.3827 -0.3863
 2145SOL    HW1 7855   5.970   8.307   7.376  1.4413 -1.1416 -1.5266
 2145SOL    HW2 7856   5.974   8.388   7.504 -2.3927 -1.4848 -1.0731
 2146SOL     OW 7857   6.361   2.654   7.234  0.0736  0.1123 -0.1625
 2146SOL    HW1 7858   6.423   2.680   7.303  1.3228  1.3493 -1.6640
 2146SOL    HW2 7859   6.279   2.697   7.258  1.0145  2.2251 -0.4028
 2147SOL     OW 7860   1.028   8.302   4.508 -0.2464  0.1611  0.7154
 2147SOL    HW1 7861   1.113   8.281   4.469  0.6369  0.7517  2.2409
 2147SOL    HW2 7862   0.992   8.370   4.451  0.7851  0.6579  0.6276
 2148SOL     OW 7863   4.149   2.883   5.200  0.4483  0.6018  0.7380
 2148SOL    HW1 7864   4.226   2.868   5.254  0.2626 -1.9940  0.3842
 2148SOL    HW2 7865   4.075   2.859   5.257 -0.0056  1.3291  0.4744
 2149SOL     OW 7866   8.027   2.633   5.208  0.4963 -0.2305 -0.7454
 2149SOL    HW1 7867   7.997   2.546   5.234  0.5714 -0.2699 -0.7935
 2149SOL    HW2 7868   7.984   2.649   5.124 -0.1308  0.0930 -0.3767
 2150SOL     OW 7869   0.677   0.835   6.700  0.1777  0.0430  0.7207
 2150SOL    HW1 7870   0.720   0.758   6.736  2.0748  0.5337 -0.3584
 2150SOL    HW2 7871   0.747   0.899   6.689 -0.8742  1.0204 -0.7884
 2151SOL     OW 7872   7.227   8.128   5.069 -0.5429 -0.2042  0.1307
 2151SOL    HW1 7873   7.307   8.076   5.072 -0.8484 -0.6428  1.3316
 2151SOL    HW2 7874   7.253   8.214   5.101 -0.2451  0.1055 -0.9172
 2152SOL     OW 7875   4.494   7.390   1.627 -0.2652 -0.4307  0.4248
 2152SOL    HW1 7876   4.470   7.399   1.535  0.2065  0.3944  0.3703
 2152SOL    HW2 7877   4.442   7.315   1.658 -0.0518 -1.0414 -0.6286
 2153SOL     OW 7878   2.212   4.098   6.584  0.2087 -0.8601  0.6808
 2153SOL    HW1 7879   2.163   4.028   6.628 -1.1149 -1.4678 -1.6021
 2153SOL    HW2 7880   2.291   4.055   6.551  0.4268 -0.7760  1.0912
 2154SOL     OW 7881   6.046   6.727   5.068 -0.1516 -0.3265  0.4695
 2154SOL    HW1 7882   6.075   6.798   5.125  0.6928 -0.7360  0.5587
 2154SOL    HW2 7883   5.951   6.739   5.061 -0.3190 -0.3874  2.1385
 2155SOL     OW 7884   6.508   1.685   4.683  0.2649  0.5248  0.0117
 2155SOL    HW1 7885   6.519   1.779   4.698 -0.4418  1.1134 -2.6946
 2155SOL    HW2 7886   6.594   1.648   4.702  1.6915  2.2953 -2.3732
 2156SOL     OW 7887   2.892   3.184   6.067  0.1671 -0.2288 -0.0427
 2156SOL    HW1 7888   2.898   3.109   6.127 -1.9280  0.4227  1.0923
 2156SOL    HW2 7889   2.876   3.259   6.125 -0.8623  0.5904 -1.3415
 2157SOL     OW 7890   4.755   2.753   1.373 -0.0810  0.0337  0.5414
 2157SOL    HW1 7891   4.669   2.795   1.383  0.5809  1.5359  0.1498
 2157SOL    HW2 7892   4.735   2.665   1.341 -1.3878  1.7911 -4.2934
 2158SOL     OW 7893   1.965   1.096   5.771  0.0769  0.2088 -0.4970
 2158SOL    HW1 7894   1.884   1.120   5.815  0.4205  1.4792 -0.4958
 2158SOL    HW2 7895   2.029   1.089   5.842  0.0811 -0.2982 -0.5473
 2159SOL     OW 7896   6.314   0.394   7.704  0.4677  0.0405  0.2875
 2159SOL    HW1 7897   6.339   0.345   7.625 -0.8812 -1.6357  0.8394
 2159SOL    HW2 7898   6.396   0.404   7.752  0.7586 -2.0758  0.3282
 2160SOL     OW 7899   5.950   2.877   7.602  0.1893  0.2924  0.1334
 2160SOL    HW1 7900   5.867   2.831   7.605 -0.1631  0.9539  0.7564
 2160SOL    HW2 7901   5.938   2.953   7.658  0.9984  0.7556 -0.2977
 2161SOL     OW 7902   0.546   5.409   8.073  0.1471 -0.5241  0.9702
 2161SOL    HW1 7903   0.468   5.444   8.118 -0.0905 -0.7989  0.7758
 2161SOL    HW2 7904   0.542   5.447   7.986  0.0378 -0.8151  0.8467
 2162SOL     OW 7905   1.507   2.131   5.945 -0.4555  0.6829 -0.2147
 2162SOL    HW1 7906   1.536   2.044   5.970 -1.7559  0.4021  0.4460
 2162SOL    HW2 7907   1.587   2.181   5.931  0.3035 -0.4862 -0.1191
 2163SOL     OW 7908   6.469   6.641   7.355 -0.1099  0.1443 -0.0958
 2163SOL    HW1 7909   6.435   6.587   7.426 -1.2357 -0.3300 -0.9711
 2163SOL    HW2 7910   6.483   6.727   7.395  0.1160 -0.3361  0.8994
 2164SOL     OW 7911   3.572   0.761   4.234 -0.2448  0.3070 -0.5798
 2164SOL    HW1 7912   3.516   0.687   4.256  1.6503 -1.3320 -0.9303
 2164SOL    HW2 7913   3.519   0.839   4.253 -2.0720 -1.1143  0.4252
 2165SOL     OW 7914   0.725   5.990   5.241 -0.7338  0.0826  0.8844
 2165SOL    HW1 7915   0.787   5.918   5.236  0.9584  1.4489  1.0010
 2165SOL    HW2 7916   0.692   5.987   5.331 -2.0664 -1.5679  0.3930
 2166SOL     OW 7917   0.013   4.284   2.943  0.3760  0.3887  0.3584
 2166SOL    HW1 7918   0.004   4.358   2.884  0.7365  0.0792 -0.0929
 2166SOL    HW2 7919  -0.076   4.249   2.952  0.5916 -0.8943 -1.7616
 2167SOL     OW 7920   0.082   0.497   4.806 -0.5654 -0.2899 -0.7564
 2167SOL    HW1 7921   0.024   0.568   4.835  1.1758  0.7796  0.2865
 2167SOL    HW2 7922   0.049   0.420   4.852 -0.1899  0.6326  1.2003
 2168SOL     OW 7923   4.253   6.892   7.243  0.5907  0.1568  0.0478
 2168SOL    HW1 7924   4.210   6.837   7.309  0.5882  0.6493  0.4613
 2168SOL    HW2 7925   4.326   6.933   7.289 -0.6562  2.1645  0.3554
 2169SOL     OW 7926   0.859   3.758   0.314 -0.3462  0.4171 -0.1160
 2169SOL    HW1 7927   0.823   3.733   0.399 -0.3597  1.9978  0.3949
 2169SOL    HW2 7928   0.824   3.846   0.298  2.2830  1.5825 -0.1243
 2170SOL     OW 7929   3.453   1.075   2.896 -0.1152 -0.6890 -0.3693
 2170SOL    HW1 7930   3.374   1.069   2.949  0.0737  1.2035  0.2224
 2170SOL    HW2 7931   3.491   0.987   2.899 -0.9630 -1.0425  1.3130
 2171SOL     OW 7932   7.417   3.872   2.133  0.1094 -0.4954 -0.3961
 2171SOL    HW1 7933   7.372   3.789   2.148 -0.3262 -0.2059 -0.0539
 2171SOL    HW2 7934   7.412   3.917   2.217 -1.4210  0.7078 -1.0763
 2172SOL     OW 7935   0.190   6.512   0.157  0.6091 -0.2963 -0.3037
 2172SOL    HW1 7936   0.222   6.550   0.239  2.0502 -0.5942 -0.6953
 2172SOL    HW2 7937   0.232   6.426   0.153 -1.1098 -1.1743 -0.3494
 2173SOL     OW 7938   0.723   5.367   7.605 -0.2301  0.1462 -0.3554
 2173SOL    HW1 7939   0.780   5.399   7.675 -0.7173 -0.7511  0.4650
 2173SOL    HW2 7940   0.723   5.438   7.540 -0.2878  1.2722  0.8411
 2174SOL     OW 7941   3.127   5.734   4.141 -0.2452 -0.5204  0.0445
 2174SOL    HW1 7942   3.177   5.656   4.116 -1.5122 -1.0463 -0.9466
 2174SOL    HW2 7943   3.101   5.774   4.058  2.8455  2.7045  0.3991
 2175SOL     OW 7944   6.685   5.526   2.090 -0.0569 -0.3015  0.2529
 2175SOL    HW1 7945   6.725   5.521   2.003  0.8891 -1.6124  0.7320
 2175SOL    HW2 7946   6.660   5.436   2.109 -1.8040  0.2420  0.6572
 2176SOL     OW 7947   3.806   3.215   4.101 -0.0905  0.1508 -0.1859
 2176SOL    HW1 7948   3.778   3.124   4.090 -2.1414  0.6513  0.5479
 2176SOL    HW2 7949   3.798   3.231   4.195  0.4291  1.0602 -0.2849
 2177SOL     OW 7950   0.661   6.491   6.189  0.3917 -0.4430  0.2893
 2177SOL    HW1 7951   0.716   6.564   6.162 -1.0718  0.1642 -1.1602
 2177SOL    HW2 7952   0.707   6.413   6.158  2.0804 -0.2180  2.0498
 2178SOL     OW 7953   7.647   4.288   1.993 -0.6540  0.3032  0.1318
 2178SOL    HW1 7954   7.722   4.274   1.934 -0.1764 -0.3508  0.8711
 2178SOL    HW2 7955   7.686   4.295   2.080 -1.4404  0.1718  0.5012
 2179SOL     OW 7956   0.832   2.494   8.240  0.0108  0.3056 -0.1066
 2179SOL    HW1 7957   0.758   2.476   8.182  0.4295  1.2319 -0.9848
 2179SOL    HW2 7958   0.906   2.447   8.200 -0.2900 -1.5220  1.3721
 2180SOL     OW 7959   1.539   4.082   3.039 -0.3622 -0.0144 -0.3472
 2180SOL    HW1 7960   1.470   4.147   3.050  1.0773  1.6410 -0.6812
 2180SOL    HW2 7961   1.569   4.063   3.128 -0.5111  0.0653 -0.2799
 2181SOL     OW 7962   4.377   7.801   3.422  0.1571 -0.2510 -0.2941
 2181SOL    HW1 7963   4.321   7.874   3.397 -0.0809 -0.6334 -0.9094
 2181SOL    HW2 7964   4.401   7.760   3.338 -1.5869 -2.2741  0.1164
 2182SOL     OW 7965   7.369   1.846   5.108  0.0239 -0.0184  0.1300
 2182SOL    HW1 7966   7.324   1.768   5.076 -2.1037  2.0139 -2.2019
 2182SOL    HW2 7967   7.341   1.917   5.050  1.9416  2.5182  2.0250
 2183SOL     OW 7968   5.066   1.287   0.589  0.8691  0.2023 -0.0314
 2183SOL    HW1 7969   4.991   1.312   0.534 -0.2534  0.9210  1.7259
 2183SOL    HW2 7970   5.132   1.257   0.527 -0.6333  0.1626 -1.7054
 2184SOL     OW 7971   8.330   4.975   6.206  0.7318  0.1341  0.1071
 2184SOL    HW1 7972   8.247   4.998   6.247  0.8483  0.6882  0.0437
 2184SOL    HW2 7973   8.373   4.918   6.270  0.9400  1.0346  0.7939
 2185SOL     OW 7974   6.108   8.363   3.278  0.6503 -0.0007  0.1929
 2185SOL    HW1 7975   6.191   8.343   3.322  0.3079 -0.1640  0.7796
 2185SOL    HW2 7976   6.098   8.294   3.212  2.2650  1.4810 -1.7297
 2186SOL     OW 7977   3.347   3.879   1.260  0.4058  0.7888  0.6411
 2186SOL    HW1 7978   3.402   3.916   1.329 -0.0005  0.2106  1.2898
 2186SOL    HW2 7979   3.300   3.955   1.225  1.4090  1.2449  0.2560
 2187SOL     OW 7980   4.762   0.409   3.626  0.0919 -0.6058 -0.0887
 2187SOL    HW1 7981   4.840   0.369   3.588  2.0898  1.4818  1.5713
 2187SOL    HW2 7982   4.760   0.378   3.717 -0.2806  0.3628  0.2434
 2188SOL     OW 7983   2.747   8.072   4.925 -0.0861 -0.3020 -0.3413
 2188SOL    HW1 7984   2.656   8.101   4.932  0.2506  1.5027 -2.2306
 2188SOL    HW2 7985   2.747   7.984   4.961 -2.2420  0.2457  1.1928
 2189SOL     OW 7986   6.264   4.794   4.829 -0.3036 -0.0068  0.0233
 2189SOL    HW1 7987   6.289   4.886   4.827 -0.0953 -0.0717 -0.3711
 2189SOL    HW2 7988   6.213   4.785   4.910  0.9871  0.1140  0.8793
 2190SOL     OW 7989   7.435   0.904   8.247 -0.2706  0.3447 -0.1419
 2190SOL    HW1 7990   7.469   0.911   8.158 -0.2043 -1.9674 -0.3810
 2190SOL    HW2 7991   7.511   0.916   8.304  0.0930 -0.1922 -0.5043
 2191SOL     OW 7992   1.249   0.210   4.929 -0.3421  0.7368  0.4166
 2191SOL    HW1 7993   1.215   0.176   4.846  1.1719 -1.2208  0.5284
 2191SOL    HW2 7994   1.244   0.136   4.990  2.0841  0.9603  1.0020
 2192SOL     OW 7995   4.161   7.721   1.417  0.8289  0.0717  0.5135
 2192SOL    HW1 7996   4.166   7.807   1.460 -0.8032  0.8165 -0.6529
 2192SOL    HW2 7997   4.141   7.660   1.488  3.4770  0.3482  1.6157
 2193SOL     OW 7998   2.642   6.138   0.297  0.1512  0.2564  0.2463
 2193SOL    HW1 7999   2.562   6.096   0.329 -0.2960  1.5390  0.8869
 2193SOL    HW2 8000   2.610   6.210   0.242  0.8407  0.9077  0.6738
 2194SOL     OW 8001   2.839   2.786   7.233  0.5197  0.0931  0.5078
 2194SOL    HW1 8002   2.795   2.721   7.178 -1.9132  2.1315 -0.1279
 2194SOL    HW2 8003   2.906   2.823   7.176  0.2747 -0.1696  0.0390
 2195SOL     OW 8004   1.015   7.294   0.378 -0.5838  0.3647 -0.0313
 2195SOL    HW1 8005   1.001   7.364   0.315 -0.2849  1.2134  0.8240
 2195SOL    HW2 8006   0.968   7.219   0.341 -4.1362  1.9586  0.7494
 2196SOL     OW 8007   3.495   0.515   4.600  0.0843 -0.5556 -0.2809
 2196SOL    HW1 8008   3.521   0.495   4.511 -1.4547 -0.4859 -0.7796
 2196SOL    HW2 8009   3.487   0.611   4.602 -2.2342 -0.6820 -0.8167
 2197SOL     OW 8010   4.013   6.867   1.384  0.2941 -0.0780 -0.1894
 2197SOL    HW1 8011   4.026   6.808   1.309 -2.0941 -1.5365  0.4418
 2197SOL    HW2 8012   4.060   6.825   1.456 -0.8075 -0.8759  0.0842
 2198SOL     OW 8013   4.669   0.126   3.708 -0.7354  0.1124  0.0112
 2198SOL    HW1 8014   4.636   0.166   3.627  1.5522 -0.3016 -1.2169
 2198SOL    HW2 8015   4.635   0.037   3.706 -0.3211 -0.0430 -0.7737
 2199SOL     OW 8016   6.431   6.617   2.357 -0.4858  0.7626 -0.5586
 2199SOL    HW1 8017   6.388   6.633   2.441  0.7060  0.2178  0.1881
 2199SOL    HW2 8018   6.502   6.556   2.378 -0.9477 -0.4094 -2.1865
 2200SOL     OW 8019   2.263   7.515   7.289 -0.4799 -0.0817  0.8744
 2200SOL    HW1 8020   2.179   7.469   7.295 -0.1767 -1.0137 -1.0789
 2200SOL    HW2 8021   2.295   7.493   7.202  2.1577 -0.3823  1.8439
 2201SOL     OW 8022   8.293   6.590   1.656  0.0828 -0.6604 -0.1748
 2201SOL    HW1 8023   8.287   6.536   1.578  0.6210 -1.1319  0.1039
 2201SOL    HW2 8024   8.321   6.530   1.725 -1.1846 -0.4258  0.5814
 2202SOL     OW 8025   5.835   1.169   3.754  0.4075 -1.0615  0.0462
 2202SOL    HW1 8026   5.741   1.188   3.758  0.9249  2.2612 -0.2381
 2202SOL    HW2 8027   5.863   1.169   3.846  0.2968 -1.0567  0.0810
 2203SOL     OW 8028   4.350   0.526   4.855  0.2384  0.5889 -0.0230
 2203SOL    HW1 8029   4.296   0.535   4.934 -0.0707 -0.1201 -0.1426
 2203SOL    HW2 8030   4.431   0.572   4.876  0.2948  0.1250  0.8419
 2204SOL     OW 8031   3.885   7.006   0.569  0.1726  0.2316 -0.2325
 2204SOL    HW1 8032   3.954   7.053   0.521  0.3849  0.0375 -0.1186
 2204SOL    HW2 8033   3.896   7.035   0.659 -0.4755  0.8984 -0.3561
 2205SOL     OW 8034   1.617   4.768   0.821  0.1401 -0.3584 -0.0445
 2205SOL    HW1 8035   1.612   4.678   0.854 -0.5247 -0.1553  0.4149
 2205SOL    HW2 8036   1.531   4.805   0.840  0.4325  0.3970 -0.1857
 2206SOL     OW 8037   2.892   4.710   4.178 -0.4163  0.0179 -0.3442
 2206SOL    HW1 8038   2.844   4.714   4.095 -1.5694  2.5214  0.3235
 2206SOL    HW2 8039   2.823   4.709   4.245  0.4938 -1.8552  0.6321
 2207SOL     OW 8040   3.402   5.583   7.233 -0.1571 -0.1440 -0.1591
 2207SOL    HW1 8041   3.320   5.597   7.186  0.4089 -0.1663 -1.1660
 2207SOL    HW2 8042   3.375   5.551   7.320 -1.2114  0.1078 -0.3881
 2208SOL     OW 8043   0.554   2.323   8.150  0.2072 -0.1992  0.8324
 2208SOL    HW1 8044   0.466   2.287   8.157  0.0072  0.1113  0.0394
 2208SOL    HW2 8045   0.602   2.285   8.223 -0.4510 -0.7611  0.9765
 2209SOL     OW 8046   3.327   1.996   3.362  0.2000 -0.4367 -0.2930
 2209SOL    HW1 8047   3.341   2.071   3.420 -2.0172 -0.0372 -0.1619
 2209SOL    HW2 8048   3.414   1.968   3.337  1.1245  1.5902  0.4297
 2210SOL     OW 8049   7.779   7.899   3.164  0.5538  0.8114 -0.0038
 2210SOL    HW1 8050   7.802   7.963   3.096  0.0665  1.5571  0.5246
 2210SOL    HW2 8051   7.770   7.951   3.244  0.1145  0.0872  0.4277
 2211SOL     OW 8052   5.274   0.424   5.117 -0.0770 -0.1448  0.3136
 2211SOL    HW1 8053   5.302   0.514   5.133 -1.3726  0.1405  1.0765
 2211SOL    HW2 8054   5.348   0.384   5.071  0.3961  1.3841 -0.3108
 2212SOL     OW 8055   8.132   3.468   3.960 -0.0845  0.3465  0.1911
 2212SOL    HW1 8056   8.124   3.451   4.054 -1.0759  1.5798  0.3696
 2212SOL    HW2 8057   8.082   3.549   3.946 -3.5489 -1.8523 -2.0355
 2213SOL     OW 8058   5.789   1.916   0.421  0.2351 -0.3217  0.0914
 2213SOL    HW1 8059   5.733   1.961   0.484 -0.5719 -1.4568  0.2232
 2213SOL    HW2 8060   5.803   1.980   0.352 -1.1401  0.0492  0.1126
 2214SOL     OW 8061   2.950   2.343   5.819  0.0496 -0.3431 -0.4372
 2214SOL    HW1 8062   2.895   2.420   5.828  0.7632  0.0563  0.7531
 2214SOL    HW2 8063   2.900   2.283   5.764 -1.7641 -0.1904  0.9827
 2215SOL     OW 8064   5.905   3.858   5.668  0.0231  0.0441 -0.2649
 2215SOL    HW1 8065   5.854   3.780   5.648  1.9014 -1.4418  0.4036
 2215SOL    HW2 8066   5.958   3.873   5.589  0.9614 -0.4730  0.2460
 2216SOL     OW 8067   4.104   3.576   6.010 -0.1182 -0.2736  0.0015
 2216SOL    HW1 8068   4.092   3.518   5.935 -0.9867  0.1491 -0.1992
 2216SOL    HW2 8069   4.057   3.655   5.987  0.9016  0.4557  0.3510
 2217SOL     OW 8070   7.023   2.128   2.981  0.2158  0.3401 -0.4301
 2217SOL    HW1 8071   7.029   2.129   2.885  3.0841 -1.6052 -0.3936
 2217SOL    HW2 8072   6.930   2.115   2.999 -0.3668  0.5248 -2.9526
 2218SOL     OW 8073   5.544   4.392   6.467  0.1188  0.0635 -0.5983
 2218SOL    HW1 8074   5.536   4.476   6.421 -0.3995 -0.3627 -1.3170
 2218SOL    HW2 8075   5.454   4.361   6.475  0.1782  0.1783  0.8468
 2219SOL     OW 8076   7.217   5.293   7.416 -0.1523 -0.1906 -0.1307
 2219SOL    HW1 8077   7.271   5.253   7.484 -1.7114 -1.9764  0.1425
 2219SOL    HW2 8078   7.261   5.376   7.396  0.8391 -0.0160  2.4058
 2220SOL     OW 8079   6.651   7.278   3.546  0.5203  0.4892  0.0254
 2220SOL    HW1 8080   6.605   7.361   3.532 -0.6213 -0.2992 -1.1097
 2220SOL    HW2 8081   6.589   7.224   3.595 -1.4496 -1.8666 -4.5293
 2221SOL     OW 8082   1.575   3.502   4.190  0.2979 -0.1500  0.1161
 2221SOL    HW1 8083   1.553   3.427   4.245  0.1308 -2.0934 -2.4444
 2221SOL    HW2 8084   1.518   3.572   4.222 -1.7317 -1.9692  0.6975
 2222SOL     OW 8085   0.975   2.253   4.946 -0.2201  0.0346 -0.0975
 2222SOL    HW1 8086   0.930   2.265   5.029 -3.1380  1.8150 -1.7450
 2222SOL    HW2 8087   1.052   2.310   4.951 -0.1823 -0.1177  1.4490
 2223SOL     OW 8088   0.620   2.233   0.554 -0.5794  0.2143  0.3813
 2223SOL    HW1 8089   0.670   2.304   0.594  2.0793 -1.6683  0.7310
 2223SOL    HW2 8090   0.647   2.233   0.462 -1.0969  0.0995  0.2292
 2224SOL     OW 8091   2.799   7.277   4.881  0.0200  0.0000 -0.0163
 2224SOL    HW1 8092   2.741   7.329   4.825  0.4360 -0.6346 -1.0603
 2224SOL    HW2 8093   2.876   7.333   4.894 -0.2761  0.3357  0.3234
 2225SOL     OW 8094   3.381   3.134   5.301  0.0347  0.1478  0.4138
 2225SOL    HW1 8095   3.474   3.131   5.281 -0.1085  0.7316 -0.3910
 2225SOL    HW2 8096   3.342   3.067   5.244 -0.4596  2.2592 -1.9362
 2226SOL     OW 8097   2.184   2.668   4.053  0.3514 -0.2556  0.0877
 2226SOL    HW1 8098   2.165   2.762   4.048  0.2285 -0.3105 -0.5667
 2226SOL    HW2 8099   2.143   2.632   3.975  0.9209 -0.7686  0.0265
 2227SOL     OW 8100   5.244   5.868   7.048  0.2583 -0.0004 -0.3492
 2227SOL    HW1 8101   5.200   5.876   7.132 -1.7330 -0.8585 -1.2533
 2227SOL    HW2 8102   5.259   5.958   7.020 -2.8940  0.4340 -0.9422
 2228SOL     OW 8103   3.360   0.633   7.628 -0.0688  0.0762 -0.3719
 2228SOL    HW1 8104   3.418   0.680   7.569 -0.3702 -0.7794 -1.3765
 2228SOL    HW2 8105   3.400   0.643   7.715  0.5062  1.1437 -0.7446
 2229SOL     OW 8106   3.049   4.227   7.481  0.3763 -0.1559 -0.2977
 2229SOL    HW1 8107   3.064   4.158   7.417 -0.0824 -0.4780 -0.0613
 2229SOL    HW2 8108   3.137   4.258   7.504  0.7077 -1.7210  0.7515
 2230SOL     OW 8109   7.826   4.553   4.096 -1.2452 -0.1691 -0.2126
 2230SOL    HW1 8110   7.856   4.495   4.026  2.0665 -1.5619  2.0879
 2230SOL    HW2 8111   7.764   4.501   4.147  0.0599 -0.9948  0.5908
 2231SOL     OW 8112   2.770   5.986   7.255  0.0028 -0.0673  0.6763
 2231SOL    HW1 8113   2.733   6.069   7.226 -0.0357  0.3079  1.7584
 2231SOL    HW2 8114   2.865   5.998   7.247 -0.0244 -0.2236  0.0510
 2232SOL     OW 8115   6.114   2.154   6.944 -0.1799 -0.3727  0.1378
 2232SOL    HW1 8116   6.159   2.115   7.019  2.5041  1.4208 -0.4118
 2232SOL    HW2 8117   6.184   2.180   6.884 -2.0613  0.9517 -1.6404
 2233SOL     OW 8118   5.589   4.134   7.337  0.2497 -0.2601  0.1236
 2233SOL    HW1 8119   5.629   4.067   7.391  1.1913 -0.0922 -0.3548
 2233SOL    HW2 8120   5.522   4.173   7.393  0.3623 -0.9235  0.7332
 2234SOL     OW 8121   5.684   2.818   0.207 -0.5889  0.5043 -0.5014
 2234SOL    HW1 8122   5.659   2.780   0.291 -0.7758  1.5255 -0.0809
 2234SOL    HW2 8123   5.602   2.851   0.170 -1.4307 -3.9162 -3.2654
 2235SOL     OW 8124   1.862   4.133   0.980  0.0893  0.1181  0.0069
 2235SOL    HW1 8125   1.945   4.110   0.938  0.0705 -1.2907  0.6896
 2235SOL    HW2 8126   1.888   4.179   1.061  0.3626 -2.4888  1.5207
 2236SOL     OW 8127   0.532   1.174   0.968  0.0130  0.6153  0.0825
 2236SOL    HW1 8128   0.574   1.138   0.890 -0.0833 -0.8220  0.6629
 2236SOL    HW2 8129   0.546   1.269   0.961  0.5261  0.4588 -1.3614
 2237SOL     OW 8130   4.439   2.044   2.698  0.5959 -0.0601 -0.3711
 2237SOL    HW1 8131   4.499   1.971   2.681 -0.7237 -0.7552 -2.2898
 2237SOL    HW2 8132   4.357   2.018   2.657 -1.1291  0.7955  2.2843
 2238SOL     OW 8133   3.188   5.427   4.349 -0.2344  0.1950  0.6704
 2238SOL    HW1 8134   3.266   5.433   4.404  0.1393 -0.8150  0.2846
 2238SOL    HW2 8135   3.161   5.335   4.356  1.1498 -0.6240 -2.5439
 2239SOL     OW 8136   6.798   7.086   6.392 -0.3433 -0.8867  0.5098
 2239SOL    HW1 8137   6.744   7.123   6.462 -1.3863 -0.0348 -0.7007
 2239SOL    HW2 8138   6.737   7.070   6.320  0.6924 -1.8002 -0.1953
 2240SOL     OW 8139   0.899   6.711   4.830 -0.6975  0.1540  0.5938
 2240SOL    HW1 8140   0.903   6.731   4.736 -1.5212 -0.2711  0.4605
 2240SOL    HW2 8141   0.917   6.617   4.835  0.3498  0.3708  0.9575
 2241SOL     OW 8142   3.574   3.829   6.099  0.3754 -0.0969  0.2375
 2241SOL    HW1 8143   3.512   3.876   6.043  0.8925  0.5974  0.2346
 2241SOL    HW2 8144   3.581   3.883   6.178 -0.0583 -0.8763  0.8252
 2242SOL     OW 8145   5.775   4.208   5.781  0.2067 -0.2196  0.0169
 2242SOL    HW1 8146   5.799   4.231   5.692  0.1502  2.1454  0.5365
 2242SOL    HW2 8147   5.685   4.178   5.775  0.6582 -1.4798 -0.8767
 2243SOL     OW 8148   7.314   6.481   2.672 -0.4833  0.7641 -0.0845
 2243SOL    HW1 8149   7.237   6.437   2.637  0.4449  0.2638 -1.5951
 2243SOL    HW2 8150   7.294   6.574   2.663 -0.7705  0.6408 -0.8353
 2244SOL     OW 8151   2.510   6.635   1.121 -0.4432  0.1793 -0.3543
 2244SOL    HW1 8152   2.422   6.599   1.131 -0.6172  0.1861 -1.6279
 2244SOL    HW2 8153   2.536   6.610   1.032  1.8425 -1.9891  0.7745
 2245SOL     OW 8154   5.751   1.370   3.170  0.2711 -0.1211 -0.2836
 2245SOL    HW1 8155   5.793   1.316   3.103  0.6059  0.3882 -0.4981
 2245SOL    HW2 8156   5.822   1.423   3.206  0.1499 -0.6274  0.7149
 2246SOL     OW 8157   5.352   2.341   2.073  0.2430  0.0084  0.5038
 2246SOL    HW1 8158   5.422   2.376   2.128 -1.6835  1.5585  2.1142
 2246SOL    HW2 8159   5.330   2.413   2.013 -0.3337 -0.2428  0.4033
 2247SOL     OW 8160   3.274   0.525   5.705 -0.3677  0.2588 -0.5095
 2247SOL    HW1 8161   3.189   0.490   5.678 -0.5299  0.3521 -0.1282
 2247SOL    HW2 8162   3.299   0.584   5.634 -0.2354 -0.3851 -1.0158
 2248SOL     OW 8163   6.474   3.359   2.781  0.2521 -0.0325  0.1560
 2248SOL    HW1 8164   6.465   3.454   2.793 -0.4043 -0.0392 -0.2510
 2248SOL    HW2 8165   6.409   3.337   2.714 -0.0328 -0.8694  0.7001
 2249SOL     OW 8166   0.676   0.971   5.992 -0.1689  0.1074  0.5311
 2249SOL    HW1 8167   0.655   0.925   5.910  1.3063 -0.8452  0.6561
 2249SOL    HW2 8168   0.764   1.006   5.978 -0.2821  0.7555  1.3712
 2250SOL     OW 8169   7.177   0.775   0.966  0.5386  0.7553 -0.0668
 2250SOL    HW1 8170   7.191   0.705   0.902 -0.7014  1.6522 -1.3983
 2250SOL    HW2 8171   7.260   0.783   1.012  0.9544 -1.0413 -0.4346
 2251SOL     OW 8172   2.637   1.954   1.579 -0.2595  0.2914  0.4519
 2251SOL    HW1 8173   2.688   1.905   1.514  0.7165 -1.0389  2.1519
 2251SOL    HW2 8174   2.593   2.022   1.528  2.0622  0.5842 -1.3109
 2252SOL     OW 8175   5.193   1.945   8.055  0.0614  0.3002 -0.4910
 2252SOL    HW1 8176   5.132   1.944   7.982 -0.9431 -0.7718  0.3332
 2252SOL    HW2 8177   5.151   1.893   8.123  1.1261  0.9818  0.7384
 2253SOL     OW 8178   2.806   4.177   2.984  0.1364  0.8582  0.5186
 2253SOL    HW1 8179   2.778   4.131   2.905  1.7235 -0.1419  0.5003
 2253SOL    HW2 8180   2.823   4.266   2.955  2.9175 -0.0251 -0.8464
 2254SOL     OW 8181   7.690   3.034   0.346 -0.6224 -0.2698  0.3885
 2254SOL    HW1 8182   7.771   3.028   0.396 -0.6680  3.8829  1.2925
 2254SOL    HW2 8183   7.707   2.983   0.266  2.5040 -0.3030  0.9552
 2255SOL     OW 8184   4.249   5.629   5.911 -0.4332  0.1145 -0.4997
 2255SOL    HW1 8185   4.286   5.546   5.882  1.5789  1.3452 -1.7124
 2255SOL    HW2 8186   4.285   5.642   5.999  0.7925  0.5413 -1.0423
 2256SOL     OW 8187   0.616   6.084   2.326 -0.3173 -0.1325 -0.2547
 2256SOL    HW1 8188   0.625   6.026   2.250 -2.1477 -1.3071  0.3570
 2256SOL    HW2 8189   0.581   6.027   2.395 -0.3126  1.2865  0.9546
 2257SOL     OW 8190   2.914   7.435   3.644 -0.5024 -0.0165 -0.1314
 2257SOL    HW1 8191   2.915   7.523   3.682 -0.7790  0.7175 -1.7665
 2257SOL    HW2 8192   2.899   7.377   3.719  0.0881  1.2823  1.0293
 2258SOL     OW 8193   4.858   5.183   0.051  0.1939  0.1438 -0.2389
 2258SOL    HW1 8194   4.775   5.146   0.021  1.0490 -2.5773  0.4007
 2258SOL    HW2 8195   4.925   5.137   0.000  1.3860  0.6446  0.8116
 2259SOL     OW 8196   0.350   6.839   4.589  0.5088 -0.6485 -0.3742
 2259SOL    HW1 8197   0.399   6.825   4.508  0.7493 -2.1576  0.0120
 2259SOL    HW2 8198   0.410   6.889   4.645 -0.2974  2.0063 -1.7023
 2260SOL     OW 8199   1.051   8.063   2.247  0.3710  0.3734  0.1687
 2260SOL    HW1 8200   1.031   7.995   2.182  1.6529  0.7021 -0.6067
 2260SOL    HW2 8201   0.998   8.040   2.323  1.1962 -1.8317  0.1443
 2261SOL     OW 8202   1.283   5.114   3.336 -0.3745 -0.0610  0.5278
 2261SOL    HW1 8203   1.250   5.025   3.355  0.6670 -0.5120  0.2798
 2261SOL    HW2 8204   1.206   5.160   3.302 -0.5243 -1.4207 -1.1173
 2262SOL     OW 8205   0.417   4.668   3.227  0.1723 -0.0153  0.6089
 2262SOL    HW1 8206   0.484   4.693   3.163  0.0138  0.9185  0.7972
 2262SOL    HW2 8207   0.336   4.665   3.178 -0.0544  1.3084  0.8673
 2263SOL     OW 8208   1.029   4.791   1.958  0.5328  0.4749 -0.3454
 2263SOL    HW1 8209   1.036   4.815   2.051  2.7983  0.4887 -0.4482
 2263SOL    HW2 8210   0.956   4.842   1.925 -0.8998 -0.2050  1.6218
 2264SOL     OW 8211   3.736   5.224   1.901  0.6513 -0.1248 -0.2528
 2264SOL    HW1 8212   3.684   5.176   1.837  1.2379 -1.1798  0.0302
 2264SOL    HW2 8213   3.671   5.269   1.955  0.1069 -0.1212 -0.8940
 2265SOL     OW 8214   2.704   6.783   7.571  0.3224 -0.2683  0.0898
 2265SOL    HW1 8215   2.669   6.735   7.496  0.1429  0.5018 -0.3264
 2265SOL    HW2 8216   2.786   6.820   7.540 -0.7588  1.8576 -0.4561
 2266SOL     OW 8217   1.611   0.174   2.353 -0.3851 -0.3086  0.1887
 2266SOL    HW1 8218   1.655   0.092   2.376  1.3142  0.5038 -0.0660
 2266SOL    HW2 8219   1.598   0.168   2.258 -2.1024 -1.1211  0.4355
 2267SOL     OW 8220   3.459   0.279   7.823 -0.6154 -0.6694  0.0562
 2267SOL    HW1 8221   3.522   0.255   7.890 -0.2739 -1.5441 -0.5591
 2267SOL    HW2 8222   3.447   0.373   7.834  1.0354 -0.4189  0.0052
 2268SOL     OW 8223   2.003   7.227   5.264  0.7250 -0.2138  0.1126
 2268SOL    HW1 8224   2.034   7.165   5.330  1.1449 -0.0214  0.0980
 2268SOL    HW2 8225   1.996   7.174   5.184 -0.4327 -0.6076  0.4466
 2269SOL     OW 8226   6.309   3.531   5.400 -0.1331 -0.5736  0.0560
 2269SOL    HW1 8227   6.392   3.539   5.446  1.2257  2.3232 -2.5542
 2269SOL    HW2 8228   6.270   3.450   5.434  3.7183 -2.0840  1.3630
 2270SOL     OW 8229   7.768   0.189   7.183 -0.4713 -0.7850 -0.2105
 2270SOL    HW1 8230   7.697   0.232   7.136 -0.0466  0.7346  0.4686
 2270SOL    HW2 8231   7.753   0.096   7.170 -3.2332 -0.5503  0.8566
 2271SOL     OW 8232   3.509   3.285   1.645  0.1527 -0.3620  0.0849
 2271SOL    HW1 8233   3.468   3.228   1.580  0.0131  0.7252 -0.8145
 2271SOL    HW2 8234   3.602   3.279   1.627  0.3561 -1.9446  1.3938
 2272SOL     OW 8235   0.237   4.395   7.033  0.0426 -0.0879  0.0796
 2272SOL    HW1 8236   0.177   4.363   7.099  0.9507 -0.5127  0.7230
 2272SOL    HW2 8237   0.277   4.316   6.996  0.8168  0.2011  0.2645
 2273SOL     OW 8238   5.467   3.052   4.178  0.2440 -0.7816 -0.8532
 2273SOL    HW1 8239   5.538   2.988   4.182  0.4189 -0.5964 -0.9190
 2273SOL    HW2 8240   5.469   3.096   4.263 -2.3319 -3.4034  0.7324
 2274SOL     OW 8241   5.035   7.090   0.120 -0.2304 -0.2177  0.2739
 2274SOL    HW1 8242   4.973   7.083   0.193  1.9276 -1.4598  2.0878
 2274SOL    HW2 8243   5.018   7.012   0.067 -1.9210  0.7751 -0.7515
 2275SOL     OW 8244   7.448   2.279   1.934 -0.1988  0.0794 -0.4774
 2275SOL    HW1 8245   7.430   2.194   1.974 -0.2504 -0.2040 -1.0969
 2275SOL    HW2 8246   7.382   2.337   1.972  0.6834  0.1705  0.9883
 2276SOL     OW 8247   3.920   2.408   6.627 -0.1714  0.1909 -0.3151
 2276SOL    HW1 8248   3.911   2.332   6.685 -0.9331  0.6779  0.2225
 2276SOL    HW2 8249   4.014   2.422   6.620 -0.0052 -1.0604 -0.7703
 2277SOL     OW 8250   6.465   8.325   4.768  0.7596  0.4745 -0.7828
 2277SOL    HW1 8251   6.524   8.400   4.758  1.6118 -0.0106  0.3467
 2277SOL    HW2 8252   6.501   8.259   4.708  2.7346 -0.5894  1.4252
 2278SOL     OW 8253   8.144   4.931   8.367 -0.6235 -0.1692  0.0746
 2278SOL    HW1 8254   8.148   4.843   8.331  1.7753 -1.4301  3.0050
 2278SOL    HW2 8255   8.051   4.946   8.384 -1.3999 -0.9583 -2.8570
 2279SOL     OW 8256   6.015   0.515   3.389  0.0488 -0.1606 -0.0427
 2279SOL    HW1 8257   6.038   0.422   3.391  0.9784  0.0364 -0.8369
 2279SOL    HW2 8258   5.960   0.525   3.312  0.5760  0.0813 -0.3902
 2280SOL     OW 8259   6.592   6.987   3.967  0.6740  0.4715 -0.2757
 2280SOL    HW1 8260   6.577   6.978   4.062 -2.4580  0.8195 -0.6316
 2280SOL    HW2 8261   6.652   6.916   3.946 -0.0352 -0.8139  1.6930
 2281SOL     OW 8262   2.093   1.601   8.111 -0.0072  0.4595  0.2981
 2281SOL    HW1 8263   2.068   1.508   8.105 -0.3670  0.4775  1.2544
 2281SOL    HW2 8264   2.187   1.601   8.092 -0.2272  0.0593 -0.8578
 2282SOL     OW 8265   5.599   1.002   6.530  0.0827 -0.6944  0.2276
 2282SOL    HW1 8266   5.676   1.059   6.528 -0.9302  0.7129 -1.3059
 2282SOL    HW2 8267   5.526   1.059   6.509 -1.0595 -2.4527 -0.9110
 2283SOL     OW 8268   2.020   0.712   4.768  0.2291 -0.4220  0.2399
 2283SOL    HW1 8269   2.013   0.742   4.677  1.7221  0.6742  0.4521
 2283SOL    HW2 8270   1.942   0.746   4.811  0.6698  1.0845 -0.1114
 2284SOL     OW 8271   4.137   2.830   1.440 -0.6424 -0.1578  0.1452
 2284SOL    HW1 8272   4.154   2.911   1.488 -0.5356 -0.1958  0.1732
 2284SOL    HW2 8273   4.042   2.828   1.429 -0.7027 -0.3084  0.6488
 2285SOL     OW 8274   5.989   4.147   6.236  0.2141  0.0573  0.3464
 2285SOL    HW1 8275   6.001   4.076   6.299  0.1499  0.9064  1.3480
 2285SOL    HW2 8276   6.056   4.131   6.169  0.9853 -0.2812  1.1755
 2286SOL     OW 8277   5.209   8.273   7.623 -0.0663 -0.1780 -0.3470
 2286SOL    HW1 8278   5.135   8.269   7.562 -1.7463  0.1157  1.5745
 2286SOL    HW2 8279   5.203   8.190   7.671  1.7068 -0.7520 -1.0340
 2287SOL     OW 8280   2.766   0.488   1.263  0.0852  0.5391  0.2175
 2287SOL    HW1 8281   2.729   0.523   1.182  0.7097 -0.1325 -0.3667
 2287SOL    HW2 8282   2.691   0.453   1.311 -0.2610  0.7712 -0.1495
 2288SOL     OW 8283   0.094   7.923   4.066 -0.5728  0.4428 -0.1000
 2288SOL    HW1 8284   0.189   7.931   4.056 -0.2359 -2.1822  0.1019
 2288SOL    HW2 8285   0.057   7.989   4.007  1.3937 -0.2631 -2.2748
 2289SOL     OW 8286   5.948   1.978   4.467 -0.2852 -0.1457  0.0941
 2289SOL    HW1 8287   6.016   1.911   4.470 -0.5212 -0.5171 -1.6516
 2289SOL    HW2 8288   5.996   2.061   4.462  0.1517 -0.4884 -2.9673
 2290SOL     OW 8289   2.596   0.274   7.701  0.2531 -0.0979 -0.4456
 2290SOL    HW1 8290   2.595   0.300   7.794 -0.0478 -1.4500 -0.0442
 2290SOL    HW2 8291   2.538   0.336   7.658  0.7436  0.8345  0.1817
 2291SOL     OW 8292   8.206   5.655   2.354  0.2568 -0.6136  0.5390
 2291SOL    HW1 8293   8.145   5.621   2.419  0.4546  1.0174  1.6556
 2291SOL    HW2 8294   8.150   5.690   2.285 -0.0087 -0.9002  0.6091
 2292SOL     OW 8295   8.344   0.910   4.210 -0.5454 -0.5006  0.1016
 2292SOL    HW1 8296   8.417   0.848   4.214 -1.7067 -1.9247 -0.0904
 2292SOL    HW2 8297   8.348   0.956   4.294 -0.4371 -1.7567  0.8137
 2293SOL     OW 8298   1.176   6.418   2.735 -0.0876 -0.1026  0.1271
 2293SOL    HW1 8299   1.192   6.478   2.807  0.7530  0.2439 -0.3318
 2293SOL    HW2 8300   1.109   6.358   2.768 -1.0167  1.1231  0.5602
 2294SOL     OW 8301   7.816   6.572   1.245  0.1866 -0.1539 -0.5531
 2294SOL    HW1 8302   7.793   6.663   1.266 -0.6648 -0.4887  0.0337
 2294SOL    HW2 8303   7.903   6.561   1.281 -1.1203 -0.6325  2.8462
 2295SOL     OW 8304   7.890   4.757   6.024  0.7509  0.2351 -0.3055
 2295SOL    HW1 8305   7.828   4.694   6.058  0.8707  0.4662  0.3470
 2295SOL    HW2 8306   7.970   4.744   6.075  0.7523  0.9672 -0.1061
 2296SOL     OW 8307   5.746   5.495   0.203  0.3669 -0.4840  0.3498
 2296SOL    HW1 8308   5.713   5.570   0.253  0.2095  1.6382 -2.6397
 2296SOL    HW2 8309   5.812   5.456   0.259  1.0795  2.4289  1.7536
 2297SOL     OW 8310   1.651   0.638   7.729 -0.1232  0.2938 -0.4775
 2297SOL    HW1 8311   1.713   0.566   7.727 -0.8358 -0.3251 -0.9668
 2297SOL    HW2 8312   1.705   0.717   7.731  0.7215 -0.1451 -2.7576
 2298SOL     OW 8313   8.077   7.529   7.973 -0.1641 -0.6216 -0.1377
 2298SOL    HW1 8314   8.022   7.499   8.045 -2.2645  0.2860 -1.2580
 2298SOL    HW2 8315   8.091   7.451   7.919 -1.1667 -0.6969 -0.3119
 2299SOL     OW 8316   2.277   7.316   3.112 -0.0869  0.1501  0.1231
 2299SOL    HW1 8317   2.209   7.362   3.064  0.5836  0.7264 -0.2913
 2299SOL    HW2 8318   2.350   7.378   3.117  0.3508 -0.3908  0.7027
 2300SOL     OW 8319   6.483   1.609   0.780 -0.4263  0.4226  0.6135
 2300SOL    HW1 8320   6.438   1.525   0.770  0.2650  0.2537 -1.6163
 2300SOL    HW2 8321   6.419   1.673   0.749  0.0284  0.3989 -0.4254
 2301SOL     OW 8322   3.071   7.232   7.077 -0.8632 -0.3186  0.5739
 2301SOL    HW1 8323   3.121   7.307   7.044 -0.3161 -1.2628 -0.8305
 2301SOL    HW2 8324   2.981   7.249   7.050 -0.5945 -0.5665 -0.5385
 2302SOL     OW 8325   5.761   2.398   3.778  0.0347  0.2931  0.0408
 2302SOL    HW1 8326   5.678   2.365   3.813  0.8167  0.0240  1.7498
 2302SOL    HW2 8327   5.790   2.331   3.716 -0.7332  0.1032 -0.1147
 2303SOL     OW 8328   1.196   1.788   7.790  0.4112 -0.3103 -0.1710
 2303SOL    HW1 8329   1.231   1.877   7.799 -1.4444  0.2750  1.9860
 2303SOL    HW2 8330   1.176   1.780   7.696  0.2579  1.6895 -0.3515
 2304SOL     OW 8331   5.081   7.485   7.332 -0.0506  0.8330 -0.2526
 2304SOL    HW1 8332   5.010   7.498   7.395 -0.1928  0.5908 -0.3615
 2304SOL    HW2 8333   5.047   7.519   7.250  0.7291  2.6847  0.1308
 2305SOL     OW 8334   2.046   5.565   3.985 -0.0876  0.4578 -0.1469
 2305SOL    HW1 8335   2.080   5.652   4.007 -2.2285  1.3398 -0.1384
 2305SOL    HW2 8336   1.955   5.567   4.013 -0.2366 -1.7603 -0.3072
 2306SOL     OW 8337   1.973   2.114   6.774  0.3584 -0.0319  0.1681
 2306SOL    HW1 8338   1.890   2.085   6.810  0.2986  1.8398  1.6868
 2306SOL    HW2 8339   1.962   2.208   6.759  1.4337 -0.1763 -1.8854
 2307SOL     OW 8340   4.679   4.478   0.523 -0.0209  0.4950  0.4500
 2307SOL    HW1 8341   4.649   4.527   0.599  1.1361 -1.8878  2.6246
 2307SOL    HW2 8342   4.603   4.426   0.496  0.0761 -0.1634  1.3596
 2308SOL     OW 8343   2.613   0.953   7.978  0.2682 -0.1215 -0.0168
 2308SOL    HW1 8344   2.626   0.983   7.888 -0.9289  1.1533  0.2080
 2308SOL    HW2 8345   2.631   1.030   8.032 -1.3003 -0.2152  0.6875
 2309SOL     OW 8346   0.954   3.354   6.633 -0.3593  0.5383  0.0986
 2309SOL    HW1 8347   0.881   3.308   6.591  0.9693 -1.5896 -0.0117
 2309SOL    HW2 8348   0.927   3.362   6.725 -1.1194  0.5868 -0.1258
 2310SOL     OW 8349   4.645   6.316   6.660  0.4246 -0.0849  0.4245
 2310SOL    HW1 8350   4.686   6.333   6.745  1.0710  1.0846 -0.0854
 2310SOL    HW2 8351   4.630   6.222   6.658 -0.6144  0.0099  2.2704
 2311SOL     OW 8352   3.274   4.674   7.182 -0.1258 -0.5329 -0.5326
 2311SOL    HW1 8353   3.354   4.673   7.129  0.4843 -2.4656  0.3065
 2311SOL    HW2 8354   3.302   4.709   7.267 -0.3938 -0.3177 -0.5324
 2312SOL     OW 8355   2.797   2.518   2.802 -0.4525 -0.4988  0.2058
 2312SOL    HW1 8356   2.880   2.494   2.761 -1.1069 -1.7467 -0.4776
 2312SOL    HW2 8357   2.821   2.573   2.876  0.8007  2.0118 -1.8755
 2313SOL     OW 8358   1.333   2.174   1.305 -0.4762 -0.9502  0.4061
 2313SOL    HW1 8359   1.345   2.261   1.268 -1.2475  0.0151  2.2822
 2313SOL    HW2 8360   1.416   2.128   1.287  0.5925  0.7439  0.8107
 2314SOL     OW 8361   2.687   5.518   4.318 -0.3249 -0.2079  0.1192
 2314SOL    HW1 8362   2.768   5.565   4.338 -0.7323  0.4259  0.3123
 2314SOL    HW2 8363   2.624   5.551   4.382 -1.7038  1.9614 -2.1802
 2315SOL     OW 8364   4.571   1.247   5.229 -0.2861 -0.5206  0.2537
 2315SOL    HW1 8365   4.510   1.188   5.274 -0.4343  0.0432  0.8144
 2315SOL    HW2 8366   4.535   1.335   5.245 -0.2570 -0.2893 -0.8524
 2316SOL     OW 8367   5.631   3.875   4.474 -0.0791  0.1910  0.2831
 2316SOL    HW1 8368   5.552   3.875   4.420 -0.9105 -0.6705  1.4620
 2316SOL    HW2 8369   5.687   3.807   4.437 -0.1303  0.4010 -0.1864
 2317SOL     OW 8370   0.129   6.204   5.333 -0.7568  0.2829  0.3443
 2317SOL    HW1 8371   0.093   6.131   5.383 -1.8499 -0.1126 -0.9758
 2317SOL    HW2 8372   0.056   6.239   5.282  0.1708  1.0374 -0.5488
 2318SOL     OW 8373   3.193   3.500   0.029  0.2099 -0.2627 -0.0881
 2318SOL    HW1 8374   3.188   3.421  -0.025  0.8337 -2.0248  2.2761
 2318SOL    HW2 8375   3.121   3.491   0.091  0.2933  1.0419  0.2106
 2319SOL     OW 8376   5.581   1.308   8.110  0.2791  0.4568 -0.3246
 2319SOL    HW1 8377   5.566   1.341   8.198 -0.8213  1.6324 -0.9060
 2319SOL    HW2 8378   5.550   1.217   8.112 -0.0554  0.5834  0.4173
 2320SOL     OW 8379   1.346   3.235   3.539  0.2710  0.0913 -0.2844
 2320SOL    HW1 8380   1.376   3.319   3.573  0.8300 -0.2970  0.2040
 2320SOL    HW2 8381   1.282   3.257   3.471  1.5499  0.9614 -1.2596
 2321SOL     OW 8382   6.005   1.175   6.944  0.0070 -0.6581  0.2084
 2321SOL    HW1 8383   6.095   1.153   6.919  0.0143 -0.9694  0.5028
 2321SOL    HW2 8384   6.003   1.163   7.039 -0.9975 -3.1247 -0.0376
 2322SOL     OW 8385   2.867   2.551   6.956 -0.0473  0.3438  0.1904
 2322SOL    HW1 8386   2.917   2.632   6.965  1.0998 -0.2146 -0.8010
 2322SOL    HW2 8387   2.902   2.493   7.022 -1.6407  0.9694  1.6697
 2323SOL     OW 8388   2.231   3.721   7.458  0.6315 -0.2725  0.5281
 2323SOL    HW1 8389   2.236   3.677   7.543  0.3669 -0.2955  0.5314
 2323SOL    HW2 8390   2.265   3.657   7.396  0.4158 -0.4128  0.5565
 2324SOL     OW 8391   7.149   2.547   4.621 -0.2048 -0.0563 -0.3060
 2324SOL    HW1 8392   7.100   2.520   4.544 -0.5475 -0.1888 -0.0433
 2324SOL    HW2 8393   7.150   2.469   4.677 -0.7926  0.3211  0.2457
 2325SOL     OW 8394   7.590   3.727   4.502 -0.0561  0.3844 -0.3062
 2325SOL    HW1 8395   7.591   3.632   4.512  3.0114  0.4179  0.7024
 2325SOL    HW2 8396   7.537   3.758   4.576  1.6535 -0.4727  1.3586
 2326SOL     OW 8397   5.066   1.743   8.182  0.1334  0.3128  0.0955
 2326SOL    HW1 8398   5.132   1.683   8.147  0.3790  0.1127  0.8926
 2326SOL    HW2 8399   5.089   1.753   8.274  0.7368  2.4953 -0.2530
 2327SOL     OW 8400   0.770   2.969   4.810 -0.3189 -0.3591 -0.3595
 2327SOL    HW1 8401   0.854   2.959   4.855 -0.2635  1.2539 -0.0675
 2327SOL    HW2 8402   0.766   2.893   4.751  1.5553 -0.2087 -0.7443
 2328SOL     OW 8403   6.430   4.210   0.777 -0.2702  0.2040 -0.1340
 2328SOL    HW1 8404   6.441   4.115   0.772 -0.4259  0.0660  1.5928
 2328SOL    HW2 8405   6.500   4.239   0.835  0.6468  1.3577 -1.7268
 2329SOL     OW 8406   0.089   3.899   5.956 -1.2287  0.3032 -0.1068
 2329SOL    HW1 8407   0.107   3.895   6.050 -0.7745  1.2993 -0.1443
 2329SOL    HW2 8408   0.067   3.809   5.932 -0.6179 -0.0992  0.8043
 2330SOL     OW 8409   0.210   7.340   4.772  0.0305  0.6827  0.1905
 2330SOL    HW1 8410   0.295   7.310   4.804 -0.8094 -2.2365 -0.0585
 2330SOL    HW2 8411   0.151   7.327   4.847 -0.5264  1.0806 -0.1701
 2331SOL     OW 8412   6.796   4.766   4.411 -0.7796  0.7380  0.7462
 2331SOL    HW1 8413   6.813   4.834   4.347 -1.4034  0.2712  0.0633
 2331SOL    HW2 8414   6.816   4.806   4.496  2.5237  0.6105  0.1414
 2332SOL     OW 8415   5.049   1.482   7.787 -0.2014  0.1294  0.4481
 2332SOL    HW1 8416   5.112   1.411   7.778 -0.1712  0.2196 -0.0532
 2332SOL    HW2 8417   5.019   1.500   7.698  1.1212  1.9461  0.3168
 2333SOL     OW 8418   1.281   4.463   1.167 -0.1546  0.8907  0.0561
 2333SOL    HW1 8419   1.271   4.556   1.187 -0.7483  0.5517  1.4921
 2333SOL    HW2 8420   1.272   4.457   1.072  2.5291  2.6073 -0.4143
 2334SOL     OW 8421   8.156   1.916   2.143 -0.3746 -0.4350 -0.3821
 2334SOL    HW1 8422   8.163   1.997   2.194 -1.8604  0.4482 -1.4996
 2334SOL    HW2 8423   8.088   1.934   2.079 -0.5748 -2.5109 -0.8232
 2335SOL     OW 8424   1.861   2.072   3.731  0.3824 -0.4724  0.0462
 2335SOL    HW1 8425   1.868   2.168   3.735  2.4642 -0.6041  0.3682
 2335SOL    HW2 8426   1.792   2.057   3.666  0.9035  1.2519 -0.9992
 2336SOL     OW 8427   1.163   4.821   1.649 -0.0996  0.2664  0.0783
 2336SOL    HW1 8428   1.116   4.744   1.681 -0.0938 -0.5351 -1.6776
 2336SOL    HW2 8429   1.223   4.844   1.719 -2.2515  0.6206  1.9353
 2337SOL     OW 8430   7.610   2.811   4.096  0.4290  0.2211 -0.1237
 2337SOL    HW1 8431   7.626   2.874   4.166  1.5845  0.2702 -0.4042
 2337SOL    HW2 8432   7.559   2.742   4.138 -0.1619  0.9543  0.3877
 2338SOL     OW 8433   3.208   3.896   1.583 -0.1346  0.5331  0.2621
 2338SOL    HW1 8434   3.237   3.987   1.574  0.4294  0.3244 -0.1422
 2338SOL    HW2 8435   3.289   3.845   1.579 -0.5494 -0.0728 -0.8799
 2339SOL     OW 8436   5.780   4.392   4.839  0.4140  0.8584  0.3803
 2339SOL    HW1 8437   5.761   4.480   4.872 -0.5005  0.8421 -0.0939
 2339SOL    HW2 8438   5.695   4.358   4.811  0.7354 -0.2451  0.7188
 2340SOL     OW 8439   1.273   5.920   0.994 -0.6369 -0.7210  0.7477
 2340SOL    HW1 8440   1.258   5.859   1.066 -0.6240 -0.3771  1.0407
 2340SOL    HW2 8441   1.212   5.892   0.926 -1.5420 -0.2825  1.3529
 2341SOL     OW 8442   0.227   3.834   4.193  0.1423 -0.4790  0.5204
 2341SOL    HW1 8443   0.180   3.801   4.116 -0.6133  1.1994  0.2133
 2341SOL    HW2 8444   0.159   3.842   4.261  0.1286  1.1399  0.3410
 2342SOL     OW 8445   6.329   6.065   0.063  0.3884  0.0021 -0.0939
 2342SOL    HW1 8446   6.309   6.117   0.140 -0.6849 -1.3089  0.5597
 2342SOL    HW2 8447   6.358   5.980   0.098  1.4587 -0.0900 -1.1226
 2343SOL     OW 8448   0.672   1.287   6.284  0.0973  0.4179 -0.3189
 2343SOL    HW1 8449   0.609   1.338   6.335 -1.0080 -0.8554 -0.3705
 2343SOL    HW2 8450   0.753   1.291   6.335 -0.2428  1.3648  0.1747
 2344SOL     OW 8451   0.150   1.406   3.183 -0.2846  0.5875  0.0530
 2344SOL    HW1 8452   0.175   1.341   3.117  0.1960  1.1663 -0.3471
 2344SOL    HW2 8453   0.084   1.361   3.237  1.0507 -0.7244  0.6720
 2345SOL     OW 8454   6.676   6.584   7.588 -0.2291 -0.3107 -0.4805
 2345SOL    HW1 8455   6.663   6.643   7.662 -0.0504  0.0824 -0.7604
 2345SOL    HW2 8456   6.768   6.592   7.566 -0.0268 -1.2620 -0.0503
 2346SOL     OW 8457   1.754   7.250   8.212 -0.3137 -0.3305 -0.6590
 2346SOL    HW1 8458   1.735   7.277   8.122 -2.1460 -1.1825 -0.5574
 2346SOL    HW2 8459   1.847   7.270   8.223 -0.7253  2.6981 -1.7047
 2347SOL     OW 8460   3.505   1.827   5.399 -0.0102  0.5097  0.0828
 2347SOL    HW1 8461   3.524   1.921   5.404 -2.5159  1.2020 -1.4094
 2347SOL    HW2 8462   3.452   1.810   5.477 -0.0050  0.4718  0.0779
 2348SOL     OW 8463   6.054   5.395   6.457  0.6926 -0.6446  0.1083
 2348SOL    HW1 8464   5.967   5.376   6.492  0.4513  0.9676  0.4857
 2348SOL    HW2 8465   6.114   5.348   6.514  0.1536 -0.2324  1.0299
 2349SOL     OW 8466   5.351   0.481   2.083 -0.3852 -0.1836 -0.0707
 2349SOL    HW1 8467   5.357   0.566   2.039  0.1289  0.3640  1.0256
 2349SOL    HW2 8468   5.342   0.418   2.011  2.2712  0.4791 -1.1189
 2350SOL     OW 8469   6.250   0.537   5.133 -0.1542 -0.0448  0.4168
 2350SOL    HW1 8470   6.233   0.541   5.227  0.2343 -0.2783  0.4977
 2350SOL    HW2 8471   6.293   0.453   5.119 -1.1599 -0.4850 -0.1331
 2351SOL     OW 8472   0.795   2.245   4.543  0.0336 -0.4479  0.4495
 2351SOL    HW1 8473   0.759   2.170   4.496 -1.4796 -0.6913  1.9380
 2351SOL    HW2 8474   0.756   2.241   4.630  2.0942  0.4784  1.4961
 2352SOL     OW 8475   0.491   7.068   6.098 -0.6286 -0.3268 -0.2206
 2352SOL    HW1 8476   0.584   7.055   6.078 -0.7432  0.0237 -0.9976
 2352SOL    HW2 8477   0.449   6.988   6.067 -0.5123 -0.7724  0.7288
 2353SOL     OW 8478   3.465   7.201   1.212  0.2178 -0.1723  0.7209
 2353SOL    HW1 8479   3.468   7.157   1.127  0.3699  0.0966  0.5851
 2353SOL    HW2 8480   3.375   7.190   1.242 -0.4744  1.6055 -0.4950
 2354SOL     OW 8481   7.792   6.068   3.167  0.0093 -0.0854 -0.1119
 2354SOL    HW1 8482   7.770   5.988   3.119 -0.5643 -0.0109  0.0157
 2354SOL    HW2 8483   7.816   6.131   3.100 -1.0614  0.1040 -0.3307
 2355SOL     OW 8484   3.552   6.815   2.063  0.8971 -0.0514  0.3779
 2355SOL    HW1 8485   3.480   6.824   2.125  1.0687  2.1285  0.3466
 2355SOL    HW2 8486   3.522   6.862   1.985  2.3145  0.8801  0.3536
 2356SOL     OW 8487   3.882   7.871   3.320 -0.5679  0.2482  0.1504
 2356SOL    HW1 8488   3.799   7.835   3.289  0.5023 -0.3130 -2.2635
 2356SOL    HW2 8489   3.932   7.889   3.240  0.9660  2.2716  1.4635
 2357SOL     OW 8490   3.908   7.728   3.573 -0.4000  0.5558  1.0473
 2357SOL    HW1 8491   3.912   7.762   3.484  0.9952 -0.8687  0.5251
 2357SOL    HW2 8492   3.999   7.725   3.602 -0.7556  0.1345  2.1815
 2358SOL     OW 8493   7.898   1.390   4.696 -0.5906  0.0516  0.4340
 2358SOL    HW1 8494   7.862   1.394   4.784  0.1177  2.3928  0.6802
 2358SOL    HW2 8495   7.940   1.475   4.683  0.4248 -0.7024 -1.7027
 2359SOL     OW 8496   0.686   4.031   2.548 -0.1549  0.2307  0.0942
 2359SOL    HW1 8497   0.671   3.958   2.609  2.5535 -1.2924 -0.9087
 2359SOL    HW2 8498   0.777   4.056   2.562 -0.5297  2.2799 -0.8455
 2360SOL     OW 8499   6.059   8.045   1.169  0.7666  0.9369 -0.3250
 2360SOL    HW1 8500   6.080   8.017   1.258 -0.4042  0.7631 -0.0859
 2360SOL    HW2 8501   5.987   8.108   1.180  1.1204  1.4957 -1.0954
 2361SOL     OW 8502   2.111   3.135   0.887 -0.3195 -0.0180 -0.4273
 2361SOL    HW1 8503   2.051   3.070   0.923 -0.2809  0.7493  1.1064
 2361SOL    HW2 8504   2.060   3.183   0.822 -0.8959 -0.3821 -0.2442
 2362SOL     OW 8505   0.410   6.721   8.178 -0.3189 -0.1951  1.1875
 2362SOL    HW1 8506   0.415   6.718   8.083 -0.2273 -1.8986  1.2163
 2362SOL    HW2 8507   0.480   6.662   8.207 -0.2405  0.4298  2.3120
 2363SOL     OW 8508   6.668   0.393   5.000 -0.1627 -0.0152  0.2379
 2363SOL    HW1 8509   6.635   0.474   4.960  0.4172 -1.1669 -2.8189
 2363SOL    HW2 8510   6.740   0.422   5.056 -0.3642  1.6402 -0.3060
 2364SOL     OW 8511   1.728   0.635   6.974  0.0378 -0.2639 -0.0640
 2364SOL    HW1 8512   1.691   0.711   6.929 -1.3757  0.0184  1.4645
 2364SOL    HW2 8513   1.661   0.567   6.967  1.1845 -1.3167 -1.1970
 2365SOL     OW 8514   0.977   5.916   8.091 -0.4314 -0.4340  0.5376
 2365SOL    HW1 8515   0.917   5.988   8.109 -1.0831 -1.2064  1.6254
 2365SOL    HW2 8516   0.987   5.871   8.176  0.4201 -1.2693  0.0237
 2366SOL     OW 8517   5.018   7.056   5.072  0.4320 -0.0787  0.1869
 2366SOL    HW1 8518   5.067   7.090   5.146 -1.5597  1.5333  0.8533
 2366SOL    HW2 8519   4.926   7.070   5.095 -0.3049 -0.9876 -1.9193
 2367SOL     OW 8520   6.256   0.530   0.402  0.7027  0.0832 -0.0617
 2367SOL    HW1 8521   6.303   0.519   0.484  0.7470 -0.6388 -0.1729
 2367SOL    HW2 8522   6.204   0.609   0.414 -1.7720 -1.7032  1.8718
 2368SOL     OW 8523   3.799   4.467   2.226  0.0075  0.3554  0.0981
 2368SOL    HW1 8524   3.881   4.506   2.197 -0.2449 -0.8323 -2.4151
 2368SOL    HW2 8525   3.806   4.375   2.202 -1.7295  0.0561  0.6044
 2369SOL     OW 8526   7.905   7.485   6.106 -1.0143  0.1660 -0.2331
 2369SOL    HW1 8527   7.830   7.532   6.142 -1.0203  0.4824 -0.6586
 2369SOL    HW2 8528   7.867   7.411   6.058 -1.0060 -0.2697  0.4155
 2370SOL     OW 8529   0.771   4.994   7.292  0.3402 -0.6773  0.1518
 2370SOL    HW1 8530   0.793   4.979   7.384 -1.7412  1.2098  1.0291
 2370SOL    HW2 8531   0.810   5.079   7.271 -0.3739 -0.4505 -0.2844
 2371SOL     OW 8532   3.203   0.056   3.058  0.0572  0.5679  0.0136
 2371SOL    HW1 8533   3.120   0.087   3.019  0.2818  2.2250  0.7833
 2371SOL    HW2 8534   3.257   0.134   3.064  1.9566 -0.5987 -1.0498
 2372SOL     OW 8535   8.355   1.175   5.183  0.2542  0.8386 -0.0717
 2372SOL    HW1 8536   8.385   1.087   5.207  1.1121  1.4318  1.1172
 2372SOL    HW2 8537   8.271   1.184   5.227 -0.9072 -0.1356 -1.9197
 2373SOL     OW 8538   4.184   1.750   1.688  0.6110  0.0547  0.3512
 2373SOL    HW1 8539   4.161   1.843   1.694  1.1682  0.3375 -1.2653
 2373SOL    HW2 8540   4.100   1.705   1.688  0.2363  0.7140 -0.7215
 2374SOL     OW 8541   2.776   7.720   3.197 -0.3213  0.5764  1.2346
 2374SOL    HW1 8542   2.690   7.760   3.182  0.0481  0.8854 -0.2002
 2374SOL    HW2 8543   2.773   7.691   3.289 -1.9204  0.6442  1.2367
 2375SOL     OW 8544   0.478   3.249   5.559  0.3085  0.0582  0.2041
 2375SOL    HW1 8545   0.465   3.176   5.498 -2.3070 -0.6396  1.4512
 2375SOL    HW2 8546   0.512   3.208   5.639  0.4231  0.4598  0.3635
 2376SOL     OW 8547   3.204   0.383   2.932 -0.5551  0.3802  0.5457
 2376SOL    HW1 8548   3.177   0.472   2.952 -0.3519  0.7620 -0.7485
 2376SOL    HW2 8549   3.299   0.388   2.919 -0.3670 -0.2566  1.5810
 2377SOL     OW 8550   3.374   0.231   0.014 -0.7238  0.3212  0.3097
 2377SOL    HW1 8551   3.339   0.208  -0.072  1.9751  0.7049 -0.9685
 2377SOL    HW2 8552   3.432   0.158   0.037 -0.5521  0.7522  1.2959
 2378SOL     OW 8553   7.722   6.250   8.154 -0.0087  0.4472 -0.2890
 2378SOL    HW1 8554   7.780   6.208   8.090  0.2157 -1.4279  1.0548
 2378SOL    HW2 8555   7.634   6.230   8.122  0.0991 -0.0668 -0.2776
 2379SOL     OW 8556   6.282   0.630   5.869  0.6132  0.2013  0.2517
 2379SOL    HW1 8557   6.201   0.678   5.883  0.4480 -0.0538  0.1789
 2379SOL    HW2 8558   6.347   0.675   5.924  0.1056 -0.4504  1.4384
 2380SOL     OW 8559   6.118   5.547   3.895 -0.2234  0.4937 -0.5369
 2380SOL    HW1 8560   6.180   5.620   3.888  2.6584 -1.5179  1.6120
 2380SOL    HW2 8561   6.160   5.476   3.847 -1.6872 -0.5221 -0.3650
 2381SOL     OW 8562   8.075   3.617   4.307  0.0001 -0.2918  0.1267
 2381SOL    HW1 8563   8.017   3.619   4.231  0.9721  3.2937 -0.7415
 2381SOL    HW2 8564   8.072   3.707   4.341  3.4977 -0.4219  1.1513
 2382SOL     OW 8565   4.739   4.911   6.098  0.3693  0.2317  0.4899
 2382SOL    HW1 8566   4.701   4.828   6.129  0.0343 -0.2561 -1.1173
 2382SOL    HW2 8567   4.680   4.939   6.028  1.9474  0.4077 -0.8366
 2383SOL     OW 8568   2.620   2.403   3.206  0.4949 -1.0478 -0.5375
 2383SOL    HW1 8569   2.681   2.476   3.214 -0.7934  0.0987 -0.5909
 2383SOL    HW2 8570   2.584   2.392   3.294  0.4681 -1.4114 -0.5939
 2384SOL     OW 8571   0.126   6.503   3.420 -0.4463  0.7044 -0.3055
 2384SOL    HW1 8572   0.174   6.441   3.475 -2.3605 -0.7800 -0.1924
 2384SOL    HW2 8573   0.098   6.572   3.480  0.2306  0.7997 -0.0864
 2385SOL     OW 8574   3.850   1.723   1.555 -0.4885  0.0137  0.2204
 2385SOL    HW1 8575   3.844   1.684   1.642  1.0027 -0.2316  0.2405
 2385SOL    HW2 8576   3.778   1.684   1.505  0.2635 -1.8994  0.5738
 2386SOL     OW 8577   1.177   4.275   7.473 -0.1540 -0.0002 -0.1627
 2386SOL    HW1 8578   1.129   4.339   7.526 -3.0210 -0.4347 -2.0542
 2386SOL    HW2 8579   1.114   4.204   7.458  2.1589 -2.2050 -0.1397
 2387SOL     OW 8580   0.686   2.756   3.239 -0.1088 -0.3607  0.5954
 2387SOL    HW1 8581   0.693   2.835   3.185  3.8754  0.1150  1.4634
 2387SOL    HW2 8582   0.706   2.786   3.328 -2.3616 -1.8229  1.7032
 2388SOL     OW 8583   6.372   0.543   1.412 -0.2942  0.2183 -1.0032
 2388SOL    HW1 8584   6.328   0.458   1.407 -1.6426  0.9005 -1.3615
 2388SOL    HW2 8585   6.358   0.583   1.326 -0.4669  1.1647 -0.5538
 2389SOL     OW 8586   4.449   3.466   3.249  0.2338  0.1159  0.3588
 2389SOL    HW1 8587   4.373   3.519   3.275  0.6385  1.8519 -1.6672
 2389SOL    HW2 8588   4.521   3.501   3.301  0.6579  2.2603 -1.4973
 2390SOL     OW 8589   8.221   5.661   7.463  0.0823  0.0068  0.7418
 2390SOL    HW1 8590   8.280   5.710   7.405  0.3491 -0.4369  0.6398
 2390SOL    HW2 8591   8.190   5.726   7.526 -1.2952  0.8370 -0.7096
 2391SOL     OW 8592   6.121   4.139   8.244  0.3148  0.0826 -0.4429
 2391SOL    HW1 8593   6.062   4.098   8.307  1.7233 -0.7626  0.3705
 2391SOL    HW2 8594   6.108   4.233   8.257  1.7756  0.0040  2.4146
 2392SOL     OW 8595   6.741   3.252   5.975 -0.0584  0.8308 -0.6693
 2392SOL    HW1 8596   6.650   3.281   5.971  0.1023  1.2322 -1.9074
 2392SOL    HW2 8597   6.783   3.311   6.038 -1.2217 -1.1014  2.0870
 2393SOL     OW 8598   3.353   5.656   3.807 -0.1390  0.2370 -0.1524
 2393SOL    HW1 8599   3.442   5.654   3.844  0.1075  1.0808 -0.6785
 2393SOL    HW2 8600   3.348   5.577   3.753  0.9518  1.0798 -1.5691
 2394SOL     OW 8601   6.262   5.579   4.793 -0.2758 -0.6371 -0.3123
 2394SOL    HW1 8602   6.291   5.616   4.876 -0.4423  0.1380 -0.5881
 2394SOL    HW2 8603   6.173   5.612   4.781 -0.1011 -0.3926 -0.9942
 2395SOL     OW 8604   1.607   3.670   1.817  0.0960  0.6304  0.0584
 2395SOL    HW1 8605   1.680   3.607   1.815 -0.0328  0.4937 -0.3975
 2395SOL    HW2 8606   1.557   3.646   1.895 -1.0729 -1.1103 -1.1447
 2396SOL     OW 8607   6.535   6.690   5.856  0.4121  0.6620 -0.3242
 2396SOL    HW1 8608   6.555   6.774   5.896  2.0855  0.0190  0.2494
 2396SOL    HW2 8609   6.536   6.627   5.928  0.2256 -0.0228 -0.8974
 2397SOL     OW 8610   3.835   2.817   3.194 -0.0530 -0.4017  0.3416
 2397SOL    HW1 8611   3.896   2.891   3.195 -0.4267  0.0191 -1.9753
 2397SOL    HW2 8612   3.878   2.750   3.247  0.3776  1.3412  2.3704
 2398SOL     OW 8613   3.921   0.545   1.146 -0.1095 -0.9084  0.4361
 2398SOL    HW1 8614   3.854   0.486   1.112  0.6094 -1.8670  0.6031
 2398SOL    HW2 8615   3.940   0.605   1.073 -0.6982 -1.0282  0.1810
 2399SOL     OW 8616   1.103   0.120   8.053 -0.1851  0.4601  0.0589
 2399SOL    HW1 8617   1.083   0.051   8.117 -1.8451  0.3284 -0.5596
 2399SOL    HW2 8618   1.176   0.086   8.002 -1.0479 -0.9022 -0.3041
 2400SOL     OW 8619   2.401   4.465   2.596 -0.6659 -0.0725  0.1286
 2400SOL    HW1 8620   2.370   4.437   2.510 -1.5443  3.2100 -0.7655
 2400SOL    HW2 8621   2.495   4.476   2.585 -0.8123  0.5954 -0.5063
 2401SOL     OW 8622   5.357   2.154   0.011  0.1172 -0.3941  0.0598
 2401SOL    HW1 8623   5.407   2.131   0.089  0.9486 -2.7555 -1.0550
 2401SOL    HW2 8624   5.417   2.205  -0.043  0.0549 -0.0523  0.3140
 2402SOL     OW 8625   7.086   6.566   3.971  0.6551  0.2845  0.3452
 2402SOL    HW1 8626   7.172   6.527   3.987  0.8719 -0.4146 -2.0293
 2402SOL    HW2 8627   7.025   6.493   3.982  0.6561  0.1613 -0.4129
 2403SOL     OW 8628   1.919   0.925   0.697 -0.7408 -0.2337 -0.6912
 2403SOL    HW1 8629   1.988   0.922   0.631 -0.1103 -2.2817 -0.0042
 2403SOL    HW2 8630   1.938   1.003   0.749 -0.2545  0.4375 -1.8417
 2404SOL     OW 8631   3.442   7.211   5.825 -0.2329  0.1283  0.2689
 2404SOL    HW1 8632   3.433   7.155   5.902  0.5136 -0.7114 -0.2459
 2404SOL    HW2 8633   3.515   7.269   5.845 -0.0394 -0.0897  0.1998
 2405SOL     OW 8634   2.810   3.172   4.899 -0.1941 -0.0032 -0.4092
 2405SOL    HW1 8635   2.829   3.102   4.962 -0.1862  1.8607  1.8095
 2405SOL    HW2 8636   2.896   3.195   4.864 -0.3079 -1.7578 -2.0176
 2406SOL     OW 8637   3.863   0.883   2.649 -0.2986  0.1154 -0.2266
 2406SOL    HW1 8638   3.813   0.963   2.635 -0.9682 -0.4527 -1.1803
 2406SOL    HW2 8639   3.843   0.828   2.573 -0.2173 -1.1449  0.6315
 2407SOL     OW 8640   3.287   4.718   5.813 -0.3193 -0.0804 -0.1376
 2407SOL    HW1 8641   3.357   4.783   5.820 -1.7684  1.4579  1.1124
 2407SOL    HW2 8642   3.230   4.752   5.744 -0.1172 -1.0618 -0.8038
 2408SOL     OW 8643   5.219   4.294   7.184  0.2797  0.5784 -0.7273
 2408SOL    HW1 8644   5.232   4.204   7.212  0.3115  0.9512  0.5170
 2408SOL    HW2 8645   5.126   4.311   7.202  0.4350  0.9967 -0.2867
 2409SOL     OW 8646   2.918   1.098   7.757  0.4682  0.1508 -0.3703
 2409SOL    HW1 8647   3.012   1.078   7.754  0.3478 -0.3007 -1.6190
 2409SOL    HW2 8648   2.877   1.024   7.713 -0.8764 -1.7956  3.6723
 2410SOL     OW 8649   5.231   7.129   5.246  0.5753 -0.0980  0.4616
 2410SOL    HW1 8650   5.324   7.122   5.222  0.8977 -1.7216  1.9931
 2410SOL    HW2 8651   5.230   7.195   5.316  0.6240 -0.3309  0.6818
 2411SOL     OW 8652   1.749   0.353   2.505  0.2962 -0.4568  0.4329
 2411SOL    HW1 8653   1.764   0.272   2.554 -2.9222 -1.2272  0.3543
 2411SOL    HW2 8654   1.690   0.327   2.434  0.6438  1.6518 -0.7050
 2412SOL     OW 8655   3.166   5.204   6.681 -0.3537  0.5034 -0.0859
 2412SOL    HW1 8656   3.123   5.220   6.765 -0.3971 -1.8731  0.4092
 2412SOL    HW2 8657   3.135   5.274   6.624 -1.3517  1.4091  1.5108
 2413SOL     OW 8658   5.982   6.390   4.731 -0.3622  0.5798 -0.5185
 2413SOL    HW1 8659   6.043   6.462   4.713 -0.8246  0.8962 -0.8480
 2413SOL    HW2 8660   5.927   6.386   4.653 -0.4646 -0.0074 -0.4147
 2414SOL     OW 8661   2.379   7.019   4.705 -0.4099 -0.3133  0.0673
 2414SOL    HW1 8662   2.411   7.015   4.795  0.6349  1.5792 -0.1837
 2414SOL    HW2 8663   2.430   6.952   4.658  1.5805  1.0199  0.1934
 2415SOL     OW 8664   2.907   7.906   5.614 -0.4364 -0.7896  0.2693
 2415SOL    HW1 8665   2.829   7.956   5.637 -0.3923 -0.5676 -0.0651
 2415SOL    HW2 8666   2.980   7.960   5.644 -0.4182 -1.8960  2.4686
 2416SOL     OW 8667   4.788   2.368   5.872 -0.5080 -0.4941 -0.8550
 2416SOL    HW1 8668   4.849   2.393   5.802 -0.0609  1.9898  0.3086
 2416SOL    HW2 8669   4.702   2.369   5.830 -0.2664  1.1337 -1.4053
 2417SOL     OW 8670   7.078   6.435   5.080 -0.2115  0.1790 -0.2131
 2417SOL    HW1 8671   7.024   6.461   5.154 -0.1871 -1.0224  0.2453
 2417SOL    HW2 8672   7.122   6.355   5.108  0.8757  0.4570 -1.0212
 2418SOL     OW 8673   2.340   6.237   3.172 -0.1326  0.3204  0.1018
 2418SOL    HW1 8674   2.355   6.331   3.182  0.6767  0.1365  0.8025
 2418SOL    HW2 8675   2.250   6.230   3.141 -0.4862  1.2980  0.8456
 2419SOL     OW 8676   7.138   0.316   7.625  0.3646  0.2317 -0.5417
 2419SOL    HW1 8677   7.090   0.388   7.667 -1.4843 -1.8275  1.0759
 2419SOL    HW2 8678   7.090   0.300   7.544 -1.5191 -1.5077  0.8465
 2420SOL     OW 8679   3.213   2.544   1.393 -0.1627 -0.6186  0.0354
 2420SOL    HW1 8680   3.215   2.567   1.485 -1.2295 -0.2678 -0.0173
 2420SOL    HW2 8681   3.134   2.585   1.359  0.0914 -0.9284 -0.9905
 2421SOL     OW 8682   2.390   0.830   2.559  0.0709  0.0116  0.0900
 2421SOL    HW1 8683   2.388   0.742   2.596  3.8571  0.4170  1.7414
 2421SOL    HW2 8684   2.342   0.884   2.623 -0.2794 -0.4753  0.2456
 2422SOL     OW 8685   2.441   1.586   5.075 -0.1984  0.0543 -0.3474
 2422SOL    HW1 8686   2.452   1.495   5.103 -2.8298 -0.5537 -1.0110
 2422SOL    HW2 8687   2.520   1.630   5.105  1.9241 -2.7471 -1.3754
 2423SOL     OW 8688   2.843   7.573   4.765  0.2495 -0.8438  0.0551
 2423SOL    HW1 8689   2.917   7.629   4.743  1.2012 -1.1997  2.1778
 2423SOL    HW2 8690   2.784   7.581   4.690  1.3717  1.2348 -0.6711
 2424SOL     OW 8691   1.893   5.011   5.401 -0.5115  0.0434 -0.4416
 2424SOL    HW1 8692   1.981   5.022   5.436 -0.3393 -0.1568 -0.8025
 2424SOL    HW2 8693   1.890   4.919   5.375 -1.4971 -0.5053  1.4033
 2425SOL     OW 8694   7.448   0.709   4.720  0.3459 -0.5405  0.3179
 2425SOL    HW1 8695   7.373   0.759   4.752  0.5573 -0.5184  0.8004
 2425SOL    HW2 8696   7.524   0.759   4.752  0.5664 -0.4108 -0.3996
 2426SOL     OW 8697   4.905   3.907   0.052 -0.1745  0.1979 -0.2041
 2426SOL    HW1 8698   4.854   3.939  -0.022  0.7214  0.0572 -0.8984
 2426SOL    HW2 8699   4.896   3.812   0.049  1.3875  0.0519 -1.2957
 2427SOL     OW 8700   0.429   5.973   1.626 -0.7425 -0.3741 -0.3467
 2427SOL    HW1 8701   0.367   5.958   1.697 -1.7501 -0.4951 -1.2364
 2427SOL    HW2 8702   0.376   6.001   1.552  0.3996  0.8485 -0.7518
 2428SOL     OW 8703   0.825   3.217   2.386  0.3606 -0.4703  0.2260
 2428SOL    HW1 8704   0.804   3.207   2.293  1.8035 -2.0410  0.0067
 2428SOL    HW2 8705   0.844   3.310   2.396 -4.3435  0.7715  0.0706
 2429SOL     OW 8706   2.229   6.673   8.351  0.4036  0.2109 -0.4977
 2429SOL    HW1 8707   2.312   6.628   8.337 -0.5067 -1.4571 -0.7930
 2429SOL    HW2 8708   2.180   6.659   8.270 -0.0346  1.5037 -0.4759
 2430SOL     OW 8709   8.045   5.589   7.890 -0.0515  0.0544  0.0842
 2430SOL    HW1 8710   8.101   5.541   7.950  0.3317  1.1763  0.6542
 2430SOL    HW2 8711   8.080   5.570   7.803  1.0322  0.4999  0.4126
 2431SOL     OW 8712   1.290   3.748   6.078 -0.1488  0.6333  0.0333
 2431SOL    HW1 8713   1.211   3.746   6.025  0.4259  1.5500 -0.8922
 2431SOL    HW2 8714   1.361   3.729   6.018  0.2474 -1.7846  1.1571
 2432SOL     OW 8715   6.187   2.516   6.479  0.1829 -0.0770 -0.5486
 2432SOL    HW1 8716   6.250   2.577   6.517 -1.2580  1.8420 -1.0666
 2432SOL    HW2 8717   6.212   2.431   6.514  2.1035  0.8375  0.4646
 2433SOL     OW 8718   5.840   5.902   5.088 -0.2095 -0.2793  0.5501
 2433SOL    HW1 8719   5.874   5.965   5.024 -2.4293 -0.8931 -1.3760
 2433SOL    HW2 8720   5.845   5.948   5.172  0.9839  1.3032 -0.3327
 2434SOL     OW 8721   5.200   3.453   4.845  0.1279 -0.0153 -0.4724
 2434SOL    HW1 8722   5.224   3.414   4.929  1.7995  1.1882 -0.3500
 2434SOL    HW2 8723   5.112   3.489   4.860 -0.8295 -2.3322 -0.1631
 2435SOL     OW 8724   4.531   0.233   1.464 -0.1116 -0.6272  0.4534
 2435SOL    HW1 8725   4.495   0.194   1.385 -1.1861 -0.2711  0.7460
 2435SOL    HW2 8726   4.490   0.184   1.536 -0.1159 -0.1311  0.7967
 2436SOL     OW 8727   4.069   4.794   6.413 -0.9067  0.2982 -0.4046
 2436SOL    HW1 8728   4.085   4.754   6.328 -1.0485 -1.4754  0.3684
 2436SOL    HW2 8729   3.977   4.822   6.410 -1.0636 -0.2383 -0.6467
 2437SOL     OW 8730   3.166   6.249   1.413  0.0034  0.2187 -0.3318
 2437SOL    HW1 8731   3.254   6.220   1.390  0.1529 -0.8721  1.3644
 2437SOL    HW2 8732   3.163   6.243   1.509 -0.9038  3.2890 -0.0386
 2438SOL     OW 8733   2.915   3.119   3.680  0.1221  0.5848 -0.1661
 2438SOL    HW1 8734   2.827   3.155   3.675 -0.1596 -0.2350 -1.4645
 2438SOL    HW2 8735   2.929   3.105   3.774 -0.3971  2.4230  0.2297
 2439SOL     OW 8736   1.880   6.437   5.738  0.4791 -0.4500 -0.1300
 2439SOL    HW1 8737   1.906   6.402   5.653 -0.0767  0.2762 -0.6092
 2439SOL    HW2 8738   1.962   6.458   5.782  0.7595 -0.5413 -0.6069
 2440SOL     OW 8739   1.514   7.580   5.509  0.4572 -0.3347  0.2894
 2440SOL    HW1 8740   1.457   7.607   5.582 -0.1186 -0.4019 -0.1315
 2440SOL    HW2 8741   1.539   7.663   5.467  2.5222 -0.0978  1.8025
 2441SOL     OW 8742   2.854   8.270   8.125  0.2682 -0.1478 -0.6219
 2441SOL    HW1 8743   2.911   8.277   8.048 -0.4016  0.9925 -1.0326
 2441SOL    HW2 8744   2.811   8.355   8.131 -0.6123 -0.6391  0.2953
 2442SOL     OW 8745   7.572   4.716   7.092  0.4841 -0.3287  0.3937
 2442SOL    HW1 8746   7.486   4.696   7.056  0.5144 -0.5186  0.4274
 2442SOL    HW2 8747   7.631   4.708   7.017  0.3914  0.4082  0.2307
 2443SOL     OW 8748   1.108   8.273   7.864 -0.1059 -0.2808  0.8952
 2443SOL    HW1 8749   1.198   8.305   7.857  0.2592 -1.5330 -0.7409
 2443SOL    HW2 8750   1.112   8.202   7.928 -0.0682  0.0715  1.2890
 2444SOL     OW 8751   7.820   1.603   2.926 -0.0478  0.7218  0.1636
 2444SOL    HW1 8752   7.732   1.565   2.933  0.9106 -1.6709  0.0698
 2444SOL    HW2 8753   7.831   1.653   3.007 -1.4717  1.0816  0.1753
 2445SOL     OW 8754   7.755   4.832   4.801 -0.0895  0.1364  0.1547
 2445SOL    HW1 8755   7.778   4.839   4.894  0.9923 -3.4828  0.3435
 2445SOL    HW2 8756   7.831   4.866   4.755  1.2272 -1.8297  0.7327
 2446SOL     OW 8757   3.249   0.049   4.489  0.2579  0.1742 -0.4885
 2446SOL    HW1 8758   3.274  -0.032   4.444 -0.9382  0.2546 -1.3487
 2446SOL    HW2 8759   3.170   0.078   4.443 -0.1036  1.1074  0.6863
 2447SOL     OW 8760   3.852   5.139   5.819  0.0945 -0.2155  0.3750
 2447SOL    HW1 8761   3.826   5.056   5.780  0.4440 -0.2000  0.1051
 2447SOL    HW2 8762   3.927   5.117   5.874  1.1548  0.1600 -0.8798
 2448SOL     OW 8763   0.700   6.371   1.829  0.8511 -0.2637  0.4725
 2448SOL    HW1 8764   0.777   6.379   1.772 -1.6177  0.8749 -3.0973
 2448SOL    HW2 8765   0.664   6.460   1.832 -0.5352 -0.8348  1.6887
 2449SOL     OW 8766   3.339   2.877   7.856 -0.1334  0.4901  0.3181
 2449SOL    HW1 8767   3.276   2.810   7.884 -1.1867  0.3021 -2.2013
 2449SOL    HW2 8768   3.421   2.852   7.897 -1.2408 -0.3730  2.1588
 2450SOL     OW 8769   6.051   7.052   1.145  0.2075 -0.0288 -0.6089
 2450SOL    HW1 8770   6.132   7.025   1.189 -0.0369 -0.5710 -0.4833
 2450SOL    HW2 8771   5.983   6.999   1.187 -0.2454  0.6026 -0.5439
 2451SOL     OW 8772   6.691   4.121   8.102 -0.0187  0.2718 -0.1376
 2451SOL    HW1 8773   6.684   4.127   8.198  0.7375  0.0242 -0.0609
 2451SOL    HW2 8774   6.780   4.150   8.083 -0.9209  2.7785 -1.0088
 2452SOL     OW 8775   6.221   4.656   7.370 -0.2140  0.3221  0.1864
 2452SOL    HW1 8776   6.171   4.595   7.316  0.0675  0.6042 -0.3959
 2452SOL    HW2 8777   6.249   4.604   7.445  0.2348 -0.3381 -0.4225
 2453SOL     OW 8778   3.313   6.473   7.513  0.1472 -0.2839 -0.4913
 2453SOL    HW1 8779   3.397   6.512   7.539 -0.9201  1.9104 -0.0679
 2453SOL    HW2 8780   3.327   6.442   7.424  1.9705 -1.8663  0.2748
 2454SOL     OW 8781   6.886   1.522   3.342 -0.3043  0.4424  0.3448
 2454SOL    HW1 8782   6.894   1.533   3.248 -1.0264  2.8124  0.5012
 2454SOL    HW2 8783   6.797   1.550   3.362 -0.2980 -0.3956  1.7103
 2455SOL     OW 8784   8.254   7.269   4.066  0.3912  0.0594  0.2733
 2455SOL    HW1 8785   8.183   7.314   4.112  1.1924 -0.3084  1.9442
 2455SOL    HW2 8786   8.334   7.308   4.100  1.0885 -1.8394  0.9777
 2456SOL     OW 8787   2.727   5.395   2.720 -0.8488  0.3342  0.2669
 2456SOL    HW1 8788   2.745   5.355   2.635  1.7225  0.7814  0.5312
 2456SOL    HW2 8789   2.731   5.323   2.782  1.1534  0.5127  0.4187
 2457SOL     OW 8790   5.948   6.828   1.318 -0.0589 -0.0366 -0.2429
 2457SOL    HW1 8791   5.973   6.883   1.392  2.2728 -0.2403 -0.8163
 2457SOL    HW2 8792   5.934   6.742   1.357  3.0552 -0.6258 -0.1815
 2458SOL     OW 8793   2.139   7.120   1.879  0.2002  0.0563  0.1390
 2458SOL    HW1 8794   2.112   7.206   1.911  0.9092  0.5771 -0.6203
 2458SOL    HW2 8795   2.180   7.077   1.954 -0.0692  0.4129  0.4918
 2459SOL     OW 8796   0.395   2.579   2.962  0.4227 -0.1254 -0.1661
 2459SOL    HW1 8797   0.390   2.601   3.055  0.4987 -1.7614  0.2604
 2459SOL    HW2 8798   0.453   2.503   2.958  1.2207  0.5195 -1.6749
 2460SOL     OW 8799   0.642   7.462   7.195  0.1498  0.7289 -0.6943
 2460SOL    HW1 8800   0.636   7.548   7.152  0.4081  0.2179 -1.7659
 2460SOL    HW2 8801   0.592   7.474   7.276 -0.1781  1.7744 -1.0217
 2461SOL     OW 8802   8.363   4.787   2.856 -0.0877  0.1415  0.0448
 2461SOL    HW1 8803   8.273   4.819   2.866 -0.0786  0.1379  0.1365
 2461SOL    HW2 8804   8.408   4.816   2.935 -0.3489 -0.9920  0.6353
 2462SOL     OW 8805   8.130   3.351   2.520  0.0698  0.0214  0.8117
 2462SOL    HW1 8806   8.089   3.433   2.493 -2.1244 -0.9459  0.9377
 2462SOL    HW2 8807   8.209   3.345   2.466  0.3732  2.2612  0.9272
 2463SOL     OW 8808   4.009   5.261   1.891  0.3131 -0.1248  0.3358
 2463SOL    HW1 8809   4.021   5.181   1.841  0.5909 -1.2776  2.1687
 2463SOL    HW2 8810   3.914   5.272   1.896  0.2820  0.0733 -0.5101
 2464SOL     OW 8811   3.859   4.219   2.425 -0.6136  0.0159  0.3358
 2464SOL    HW1 8812   3.878   4.204   2.517 -1.8024  0.9940  0.7723
 2464SOL    HW2 8813   3.898   4.305   2.406  3.1556 -1.8010 -1.2164
 2465SOL     OW 8814   6.336   7.531   0.858  0.4327 -0.0133  0.9648
 2465SOL    HW1 8815   6.394   7.458   0.839 -0.6339 -0.4788 -0.8630
 2465SOL    HW2 8816   6.248   7.494   0.849 -0.1467  1.5961 -0.7697
 2466SOL     OW 8817   8.233   5.091   8.149 -0.0599 -0.7581  0.4517
 2466SOL    HW1 8818   8.191   5.050   8.225  1.3382 -0.0917  1.6249
 2466SOL    HW2 8819   8.326   5.078   8.164  0.2949  0.7139 -0.3876
 2467SOL     OW 8820   2.678   5.086   4.598 -1.0659 -0.6104 -0.3561
 2467SOL    HW1 8821   2.688   5.163   4.541 -1.5754 -1.4227 -1.6011
 2467SOL    HW2 8822   2.604   5.039   4.560 -2.6484 -0.2738  2.1055
 2468SOL     OW 8823   6.943   8.350   5.890  0.4706  0.1974 -0.0354
 2468SOL    HW1 8824   7.007   8.421   5.879 -0.6233  0.9553 -1.9638
 2468SOL    HW2 8825   6.862   8.395   5.915  0.2460 -0.5851  0.6840
 2469SOL     OW 8826   3.241   3.451   4.741  0.1894  0.5006 -0.3013
 2469SOL    HW1 8827   3.307   3.440   4.809 -0.9521  1.1538  0.9452
 2469SOL    HW2 8828   3.292   3.465   4.661  1.5605  0.4265  0.5294
 2470SOL     OW 8829   7.405   1.187   7.806 -0.2591 -0.1916 -0.3632
 2470SOL    HW1 8830   7.491   1.225   7.787 -0.5839  0.0538 -1.4061
 2470SOL    HW2 8831   7.376   1.232   7.885  0.2171  0.3149 -0.4686
 2471SOL     OW 8832   1.423   2.106   5.465 -0.4183  0.2828 -0.2096
 2471SOL    HW1 8833   1.451   2.036   5.406 -0.2631  0.2746 -0.1260
 2471SOL    HW2 8834   1.475   2.182   5.439  0.0194  0.1442  0.2489
 2472SOL     OW 8835   3.565   5.826   7.255 -0.0094 -0.0506  0.3596
 2472SOL    HW1 8836   3.547   5.744   7.210 -0.3518 -0.1899  0.7471
 2472SOL    HW2 8837   3.544   5.809   7.347  1.8972 -0.1588  0.8205
 2473SOL     OW 8838   8.272   5.142   6.586  0.0985  0.3533 -0.6150
 2473SOL    HW1 8839   8.187   5.101   6.600  0.2546 -0.1778 -1.1716
 2473SOL    HW2 8840   8.323   5.120   6.664  0.0203 -0.1154 -0.6933
 2474SOL     OW 8841   7.667   5.317   0.633 -0.2475 -0.6687 -0.5529
 2474SOL    HW1 8842   7.608   5.379   0.676 -0.4584 -0.0486 -1.6832
 2474SOL    HW2 8843   7.613   5.239   0.620 -1.2071  0.2191 -2.4444
 2475SOL     OW 8844   7.988   4.502   5.043 -0.0616  0.1797 -0.8130
 2475SOL    HW1 8845   8.037   4.514   5.125  0.3575 -1.2345 -0.8271
 2475SOL    HW2 8846   8.031   4.559   4.980  0.5697  0.1424 -0.4217
 2476SOL     OW 8847   2.037   1.695   2.334  0.2603 -0.1621  0.3200
 2476SOL    HW1 8848   1.972   1.634   2.370  0.1616  0.5343  1.3561
 2476SOL    HW2 8849   2.080   1.733   2.411 -0.3282  1.7642 -0.2490
 2477SOL     OW 8850   0.961   5.915   7.716  0.0719  0.6801 -0.4822
 2477SOL    HW1 8851   0.921   5.828   7.708 -0.0699  0.7449 -0.4722
 2477SOL    HW2 8852   0.979   5.924   7.810  1.1483  0.1833 -0.6277
 2478SOL     OW 8853   8.238   3.744   2.225  0.3606 -0.7920  0.4877
 2478SOL    HW1 8854   8.189   3.741   2.143 -0.8453  1.6459  1.0082
 2478SOL    HW2 8855   8.320   3.698   2.206 -0.8252 -2.2943 -1.3489
 2479SOL     OW 8856   1.797   5.043   1.864  0.3383  0.7095  0.3862
 2479SOL    HW1 8857   1.872   5.097   1.885  1.0804 -0.6938  1.4555
 2479SOL    HW2 8858   1.793   4.978   1.934 -1.3133  0.1841 -0.1489
 2480SOL     OW 8859   6.604   0.083   8.250  0.4602  0.2089  0.1530
 2480SOL    HW1 8860   6.691   0.052   8.225  0.1077 -1.4669  0.8793
 2480SOL    HW2 8861   6.597   0.065   8.344 -0.9238 -0.3617 -0.0265
 2481SOL     OW 8862   5.013   2.520   4.734  0.3260  0.5465  0.5124
 2481SOL    HW1 8863   5.033   2.426   4.734  0.6336  0.6042  1.3503
 2481SOL    HW2 8864   5.098   2.562   4.718  0.0952  0.6773 -0.4363
 2482SOL     OW 8865   5.451   1.782   0.598 -0.2723 -0.1677 -0.4441
 2482SOL    HW1 8866   5.397   1.788   0.677  0.0850  1.0499 -0.2861
 2482SOL    HW2 8867   5.440   1.691   0.569 -1.1925 -0.3547  0.4410
 2483SOL     OW 8868   0.359   5.468   0.805 -0.2043 -0.0592 -0.0775
 2483SOL    HW1 8869   0.344   5.556   0.840 -0.0931  0.0279 -0.2525
 2483SOL    HW2 8870   0.383   5.481   0.714 -1.8358 -0.3588 -0.5957
 2484SOL     OW 8871   3.611   5.560   1.075 -0.6181  0.0956  0.0660
 2484SOL    HW1 8872   3.587   5.630   1.135 -1.0424  0.0962 -0.1038
 2484SOL    HW2 8873   3.551   5.489   1.096  1.2407 -1.0676  1.7765
 2485SOL     OW 8874   5.877   2.279   1.544 -0.6693 -0.3525 -0.2459
 2485SOL    HW1 8875   5.820   2.244   1.476 -2.0927  1.4335 -0.0486
 2485SOL    HW2 8876   5.817   2.312   1.611  0.6717 -1.8244  1.8315
 2486SOL     OW 8877   4.276   4.092   2.830  1.0777  0.2559 -0.2888
 2486SOL    HW1 8878   4.195   4.041   2.830  0.6849  0.8364  0.7583
 2486SOL    HW2 8879   4.291   4.114   2.738 -0.3136  0.6825 -0.4362
 2487SOL     OW 8880   8.091   2.227   8.168  0.0577 -0.1826 -0.1444
 2487SOL    HW1 8881   8.008   2.183   8.186 -1.5728  1.6168 -2.4520
 2487SOL    HW2 8882   8.100   2.291   8.238 -0.0786 -0.9318  0.5654
 2488SOL     OW 8883   4.806   0.352   0.753 -0.1818  0.2035 -0.4039
 2488SOL    HW1 8884   4.747   0.391   0.818  1.0779  0.5146  0.5774
 2488SOL    HW2 8885   4.894   0.376   0.782  0.4016  1.3743 -2.8825
 2489SOL     OW 8886   3.263   1.434   1.184  0.3433  0.2927 -0.5876
 2489SOL    HW1 8887   3.191   1.493   1.163  0.6685  1.0372  0.3353
 2489SOL    HW2 8888   3.342   1.479   1.155  0.6238  0.4972  0.4289
 2490SOL     OW 8889   2.603   0.492   7.545  0.4930 -0.1634 -0.2334
 2490SOL    HW1 8890   2.687   0.519   7.581  0.2457  0.7602 -0.3383
 2490SOL    HW2 8891   2.588   0.551   7.471  0.6597 -1.5644 -1.4491
 2491SOL     OW 8892   5.164   6.583   4.277  0.1584  0.3809  0.2624
 2491SOL    HW1 8893   5.151   6.507   4.221  1.3250  0.4406 -0.1129
 2491SOL    HW2 8894   5.085   6.636   4.265 -0.5935 -0.6690  0.3959
 2492SOL     OW 8895   4.021   6.900   5.992  0.0555  0.1443  0.6499
 2492SOL    HW1 8896   3.949   6.932   5.939 -1.0748 -0.5252  1.7307
 2492SOL    HW2 8897   4.091   6.882   5.928 -0.8182  0.5175 -0.4526
 2493SOL     OW 8898   3.594   4.011   6.313 -0.2863 -1.0284  0.3541
 2493SOL    HW1 8899   3.513   4.045   6.351  0.3902 -0.1843  1.0911
 2493SOL    HW2 8900   3.645   3.982   6.389  1.2718  1.0696  0.1730
 2494SOL     OW 8901   4.515   1.787   0.446  0.5826 -0.4198 -0.2917
 2494SOL    HW1 8902   4.492   1.851   0.513  0.1263 -0.4592 -0.4056
 2494SOL    HW2 8903   4.443   1.791   0.383  0.7579 -0.7434 -0.5174
 2495SOL     OW 8904   1.966   0.368   6.732 -0.5039 -0.2478  0.4411
 2495SOL    HW1 8905   1.931   0.444   6.685 -2.9007 -1.1794  0.6187
 2495SOL    HW2 8906   1.936   0.379   6.822 -0.6941 -1.2865  0.5146
 2496SOL     OW 8907   8.243   1.798   0.187  0.2570 -0.1159 -0.1390
 2496SOL    HW1 8908   8.256   1.703   0.187  0.0763 -0.1464  0.8088
 2496SOL    HW2 8909   8.310   1.831   0.127  0.4558 -0.8247 -0.3155
 2497SOL     OW 8910   1.292   4.815   1.912  0.3117 -0.0719 -0.4199
 2497SOL    HW1 8911   1.209   4.809   1.960  0.5669  0.2777  0.0780
 2497SOL    HW2 8912   1.332   4.728   1.923 -0.6442 -0.7383 -1.9119
 2498SOL     OW 8913   3.539   5.218   0.145 -0.0723 -0.3738 -0.1270
 2498SOL    HW1 8914   3.527   5.298   0.196  0.0937 -1.2327  1.3463
 2498SOL    HW2 8915   3.468   5.160   0.175  0.8593 -1.3945  0.1868
 2499SOL     OW 8916   3.076   0.955   4.786 -0.3581 -0.7384  0.1303
 2499SOL    HW1 8917   2.986   0.975   4.760  0.3484  0.5642 -1.4811
 2499SOL    HW2 8918   3.105   0.888   4.725  0.3591  0.2436 -0.6525
 2500SOL     OW 8919   2.845   1.402   1.921  0.3196 -0.0768  0.0047
 2500SOL    HW1 8920   2.875   1.426   1.833  0.4232  1.8867  0.5362
 2500SOL    HW2 8921   2.758   1.439   1.929 -0.0967 -1.0866  0.4130
 2501SOL     OW 8922   3.508   7.107   7.302 -0.9408 -0.2762  0.1925
 2501SOL    HW1 8923   3.463   7.163   7.238 -1.5400 -0.3062  0.5829
 2501SOL    HW2 8924   3.562   7.168   7.353  1.8696 -0.5575 -2.1925
 2502SOL     OW 8925   3.483   8.103   7.704  0.0520  0.1669 -0.6943
 2502SOL    HW1 8926   3.396   8.102   7.744 -0.0179 -1.6033 -0.8003
 2502SOL    HW2 8927   3.496   8.193   7.676 -1.3678  0.6570  0.1490
 2503SOL     OW 8928   0.670   6.696   1.146 -0.3922  0.5084  0.0143
 2503SOL    HW1 8929   0.694   6.757   1.215 -0.0522  0.8578 -0.4068
 2503SOL    HW2 8930   0.697   6.740   1.065 -0.1525 -0.1999 -0.2950
 2504SOL     OW 8931   7.151   7.329   4.293 -0.2482  0.2629  0.0168
 2504SOL    HW1 8932   7.068   7.286   4.311 -0.1451  0.1891  0.3110
 2504SOL    HW2 8933   7.190   7.277   4.222  0.8253 -1.3827  1.7353
 2505SOL     OW 8934   2.907   8.239   1.880 -0.3413  0.3116 -0.3232
 2505SOL    HW1 8935   2.991   8.284   1.888 -0.1246  0.0880 -1.2225
 2505SOL    HW2 8936   2.842   8.310   1.879 -0.2124  0.4681  0.7289
 2506SOL     OW 8937   7.374   1.485   1.508  0.4011  0.1090  0.7381
 2506SOL    HW1 8938   7.337   1.570   1.482 -0.6848 -0.0103  1.7825
 2506SOL    HW2 8939   7.300   1.424   1.502  0.7111 -0.3795  1.7567
 2507SOL     OW 8940   2.032   4.361   8.111 -0.0423  0.1995  0.2830
 2507SOL    HW1 8941   1.984   4.315   8.043 -0.1152  0.1461  0.3704
 2507SOL    HW2 8942   2.097   4.414   8.064 -0.6295  0.7890  0.1259
 2508SOL     OW 8943   4.493   8.123   5.838 -0.4230  0.4877  0.7473
 2508SOL    HW1 8944   4.479   8.162   5.752  0.4834  0.2027  0.4550
 2508SOL    HW2 8945   4.406   8.118   5.877 -0.9695 -0.2079 -0.5093
 2509SOL     OW 8946   6.029   7.261   3.272  0.1995 -0.2953 -0.6044
 2509SOL    HW1 8947   5.937   7.236   3.269 -0.0351  0.5903 -2.6717
 2509SOL    HW2 8948   6.036   7.336   3.212  2.1478  0.0531 -0.0244
 2510SOL     OW 8949   0.244   1.080   3.963 -0.2094  0.4305 -0.5716
 2510SOL    HW1 8950   0.244   1.132   4.043 -1.4856 -0.2448 -0.0918
 2510SOL    HW2 8951   0.256   1.143   3.893  1.3656  0.9862  0.1558
 2511SOL     OW 8952   0.075   0.444   6.613  0.0425 -0.6584  0.2300
 2511SOL    HW1 8953   0.160   0.471   6.648 -0.6806 -0.9558  2.3853
 2511SOL    HW2 8954   0.050   0.515   6.553  2.3535 -1.1951 -1.4991
 2512SOL     OW 8955   1.029   4.507   4.124  0.2458  0.4549 -0.6676
 2512SOL    HW1 8956   1.029   4.441   4.193 -2.0101 -0.1218 -1.1208
 2512SOL    HW2 8957   1.039   4.457   4.043  5.2518  1.2790 -0.8733
 2513SOL     OW 8958   0.828   2.711   2.235 -0.3092  0.5302  0.3783
 2513SOL    HW1 8959   0.740   2.677   2.254 -0.3818 -0.3208 -1.2773
 2513SOL    HW2 8960   0.878   2.695   2.314 -1.1832 -0.6045  0.7211
 2514SOL     OW 8961   6.356   7.848   6.205  0.4918 -0.4816 -0.1254
 2514SOL    HW1 8962   6.402   7.925   6.173 -0.2598 -0.4034 -1.0759
 2514SOL    HW2 8963   6.334   7.869   6.296 -1.0104  1.0838 -0.7906
 2515SOL     OW 8964   3.705   0.698   1.974 -0.1784 -0.1076 -0.0471
 2515SOL    HW1 8965   3.685   0.790   1.994 -2.2131 -0.4594 -0.2992
 2515SOL    HW2 8966   3.621   0.659   1.951  0.5919 -2.1368  0.3634
 2516SOL     OW 8967   7.980   4.248   5.400  0.3767 -0.1598  0.1048
 2516SOL    HW1 8968   7.968   4.206   5.315  1.7018  0.5003 -0.4458
 2516SOL    HW2 8969   7.977   4.176   5.463 -0.2632 -0.7024 -0.5274
 2517SOL     OW 8970   6.060   7.391   0.883 -0.1177 -0.1568  0.2106
 2517SOL    HW1 8971   5.996   7.338   0.836  0.7758 -0.5017 -0.6494
 2517SOL    HW2 8972   6.017   7.476   0.894 -0.3668 -0.0745 -1.2024
 2518SOL     OW 8973   0.034   7.612   4.521  0.4239  0.0061  0.3360
 2518SOL    HW1 8974  -0.050   7.633   4.561  1.1113 -1.3465  2.6939
 2518SOL    HW2 8975   0.024   7.523   4.487  1.2411 -0.6879  1.8255
 2519SOL     OW 8976   2.904   6.288   3.270 -0.3374 -0.2787  0.0972
 2519SOL    HW1 8977   2.982   6.338   3.244  0.1010 -1.6561 -1.3976
 2519SOL    HW2 8978   2.841   6.305   3.201 -1.2721  0.5010  1.0969
 2520SOL     OW 8979   4.931   2.285   3.041 -0.6404 -0.1249 -0.0681
 2520SOL    HW1 8980   4.869   2.222   3.004  0.0670 -0.6482 -0.4140
 2520SOL    HW2 8981   4.897   2.304   3.128 -0.3147 -1.8535  0.4904
 2521SOL     OW 8982   3.013   6.509   0.189 -0.2338 -0.0430  0.4405
 2521SOL    HW1 8983   3.014   6.416   0.166 -1.1530  0.1533 -0.4778
 2521SOL    HW2 8984   3.106   6.532   0.196  0.0020 -1.1645  1.3237
 2522SOL     OW 8985   6.144   4.779   6.318 -0.3605  0.2558 -0.0142
 2522SOL    HW1 8986   6.131   4.692   6.356 -0.8230  0.1659 -0.3685
 2522SOL    HW2 8987   6.151   4.837   6.394  1.4946 -0.2694  0.2784
 2523SOL     OW 8988   7.383   1.148   1.439 -0.2794 -0.2429  0.4666
 2523SOL    HW1 8989   7.427   1.192   1.367 -0.7757 -1.7875 -0.8374
 2523SOL    HW2 8990   7.290   1.155   1.419 -0.4282 -0.6018  1.0074
 2524SOL     OW 8991   4.121   3.787   7.398 -0.2281 -0.2227  0.3004
 2524SOL    HW1 8992   4.097   3.870   7.438  1.4299 -0.0714  1.0473
 2524SOL    HW2 8993   4.148   3.810   7.309 -3.1641 -0.4688 -0.8053
 2525SOL     OW 8994   3.954   8.022   3.068 -0.3012  0.5242 -0.5528
 2525SOL    HW1 8995   3.953   8.108   3.026  2.9653  0.3883 -1.2080
 2525SOL    HW2 8996   4.046   7.993   3.062 -0.9664 -2.3595  0.9832
 2526SOL     OW 8997   8.162   4.870   3.183 -0.0447 -0.1657 -0.3845
 2526SOL    HW1 8998   8.180   4.918   3.102 -1.9388  0.4283 -0.5163
 2526SOL    HW2 8999   8.157   4.778   3.156  0.4546 -0.0949 -0.7255
 2527SOL     OW 9000   2.974   2.436   6.273  0.2527 -0.2832 -0.1678
 2527SOL    HW1 9001   2.880   2.422   6.267 -0.0113  1.5152 -1.0109
 2527SOL    HW2 9002   3.012   2.372   6.213 -0.5712  0.0665 -1.0786
 2528SOL     OW 9003   3.604   5.150   2.912 -0.9409 -0.0640  0.2934
 2528SOL    HW1 9004   3.566   5.237   2.920  1.5161  1.4876 -2.6971
 2528SOL    HW2 9005   3.680   5.152   2.971 -0.2417  0.2742 -0.5993
 2529SOL     OW 9006   6.777   6.082   4.920  0.3590 -0.1635  0.1646
 2529SOL    HW1 9007   6.745   6.173   4.925  0.5174 -0.0997  0.0310
 2529SOL    HW2 9008   6.846   6.077   4.986 -0.3659 -0.4836  0.9044
 2530SOL     OW 9009   5.891   5.554   4.077 -0.4907  0.5491  0.6337
 2530SOL    HW1 9010   5.912   5.647   4.086  1.0586  0.1555  1.6341
 2530SOL    HW2 9011   5.950   5.523   4.008 -1.0021  0.3057  0.3017
 2531SOL     OW 9012   2.012   4.872   5.665  0.2663  0.3839 -0.5628
 2531SOL    HW1 9013   1.930   4.823   5.672 -0.7183  2.0393  0.1555
 2531SOL    HW2 9014   1.986   4.963   5.678  2.0161  1.1229 -1.8918
 2532SOL     OW 9015   2.175   0.079   3.634 -0.5047 -0.2567  0.0212
 2532SOL    HW1 9016   2.146   0.027   3.560  0.6587  0.3037 -0.8703
 2532SOL    HW2 9017   2.147   0.169   3.613  2.0594  0.3906 -1.0975
 2533SOL     OW 9018   1.936   1.792   6.924 -0.2735  0.1457  0.6742
 2533SOL    HW1 9019   1.988   1.798   6.844 -0.2110 -0.5585  0.6545
 2533SOL    HW2 9020   1.891   1.876   6.930  0.4409  0.5583  0.4005
 2534SOL     OW 9021   1.298   2.390   4.609  0.1045 -0.0666 -0.6109
 2534SOL    HW1 9022   1.264   2.321   4.552 -2.2580  1.2012 -0.8809
 2534SOL    HW2 9023   1.293   2.469   4.555 -0.9568  0.9423  0.8753
 2535SOL     OW 9024   4.694   2.675   0.579  0.2514 -0.0956 -0.0921
 2535SOL    HW1 9025   4.622   2.718   0.626 -1.3900 -1.5692 -1.1080
 2535SOL    HW2 9026   4.754   2.647   0.648 -0.9390 -0.1888  0.9640
 2536SOL     OW 9027   0.650   0.310   5.164  0.1199 -0.5816 -0.1142
 2536SOL    HW1 9028   0.737   0.285   5.134  0.2912  0.9767 -1.0633
 2536SOL    HW2 9029   0.591   0.248   5.120  0.7071 -1.3954  0.2212
 2537SOL     OW 9030   7.384   0.133   6.374 -0.1413 -0.1164  0.7281
 2537SOL    HW1 9031   7.454   0.170   6.428  0.2004  4.6223 -2.3941
 2537SOL    HW2 9032   7.429   0.091   6.301 -0.5873 -1.0788  0.9976
 2538SOL     OW 9033   3.755   6.049   8.086 -0.0509  0.2337  0.1305
 2538SOL    HW1 9034   3.751   6.002   8.003 -0.5755  0.2720  0.1273
 2538SOL    HW2 9035   3.665   6.081   8.099 -0.0196  0.0525  0.8128
 2539SOL     OW 9036   0.525   1.214   2.524 -0.3916  0.1161  0.4470
 2539SOL    HW1 9037   0.513   1.146   2.457  1.6548  0.1091  0.0260
 2539SOL    HW2 9038   0.497   1.294   2.481 -0.3227 -0.0772  0.0343
 2540SOL     OW 9039   3.196   0.255   5.204  0.0604 -0.0014 -0.4893
 2540SOL    HW1 9040   3.179   0.186   5.269  2.0479  0.7748  0.9385
 2540SOL    HW2 9041   3.243   0.210   5.133 -1.5662 -0.7174 -1.1879
 2541SOL     OW 9042   0.546   7.341   0.551 -0.4015  0.4172 -0.1754
 2541SOL    HW1 9043   0.457   7.352   0.518  0.0824  3.9185 -0.7384
 2541SOL    HW2 9044   0.601   7.345   0.472  0.4674  3.7661  0.4574
 2542SOL     OW 9045   3.543   2.438   0.175  0.0756  0.5736 -0.0491
 2542SOL    HW1 9046   3.620   2.434   0.231 -0.6760 -0.4236  0.9588
 2542SOL    HW2 9047   3.534   2.530   0.153  1.0338  0.8206  0.5367
 2543SOL     OW 9048   4.757   8.231   5.539  0.1112  0.3912  0.0381
 2543SOL    HW1 9049   4.665   8.238   5.564  0.2419  0.7542  0.4403
 2543SOL    HW2 9050   4.767   8.292   5.466  0.1303  0.6898  0.2871
 2544SOL     OW 9051   1.047   8.282   7.370 -0.2732 -0.2070  0.0124
 2544SOL    HW1 9052   0.977   8.217   7.358 -0.6126  0.1513  0.0379
 2544SOL    HW2 9053   1.100   8.274   7.291  0.2731 -1.2201  0.4594
 2545SOL     OW 9054   0.856   6.509   5.830  0.7306  0.2635 -0.0765
 2545SOL    HW1 9055   0.919   6.440   5.848  0.4012  0.0224  0.1786
 2545SOL    HW2 9056   0.814   6.526   5.915  1.2285  1.1989 -0.0096
 2546SOL     OW 9057   8.073   3.656   2.438  0.0202  0.5362  0.3236
 2546SOL    HW1 9058   8.155   3.685   2.399  1.2173 -1.7578  0.9503
 2546SOL    HW2 9059   8.020   3.628   2.364 -0.2237  2.0054 -0.0840
 2547SOL     OW 9060   6.967   3.695   5.157  0.2619 -0.3336 -0.2152
 2547SOL    HW1 9061   6.888   3.676   5.207  0.3489  0.6196  0.3109
 2547SOL    HW2 9062   6.985   3.788   5.174  1.4327 -0.5077 -0.3930
 2548SOL     OW 9063   7.824   4.644   2.332 -0.6263  0.3451  0.1944
 2548SOL    HW1 9064   7.881   4.617   2.261 -0.4107  3.5987 -1.0394
 2548SOL    HW2 9065   7.736   4.617   2.305 -0.4535  0.9222 -0.9707
 2549SOL     OW 9066   0.545   1.948   8.106 -0.1710  0.6698  0.4353
 2549SOL    HW1 9067   0.545   1.861   8.065 -0.4174 -0.8538  3.3511
 2549SOL    HW2 9068   0.456   1.959   8.140  0.1230  1.6150  0.9481
 2550SOL     OW 9069   8.296   7.069   4.718  0.0792 -0.5572 -0.2505
 2550SOL    HW1 9070   8.342   7.006   4.663  0.4805 -2.4106  2.0371
 2550SOL    HW2 9071   8.361   7.097   4.782 -0.7033  0.5273  0.1029
 2551SOL     OW 9072   2.203   1.233   1.778  0.7152  0.1107  0.2581
 2551SOL    HW1 9073   2.205   1.236   1.682  1.7261  2.1670  0.2973
 2551SOL    HW2 9074   2.111   1.243   1.800  0.4489 -0.5602 -0.4917
 2552SOL     OW 9075   2.473   7.521   8.365  0.0949  0.3468  0.3618
 2552SOL    HW1 9076   2.405   7.588   8.370  0.4193  0.7496 -0.3293
 2552SOL    HW2 9077   2.450   7.457   8.432 -1.1277  0.3140 -0.0678
 2553SOL     OW 9078   7.811   4.386   7.535 -0.6067 -0.2545 -0.1809
 2553SOL    HW1 9079   7.801   4.310   7.593 -0.8570 -1.0471 -1.2355
 2553SOL    HW2 9080   7.802   4.461   7.594  0.4907 -1.0181  1.0282
 2554SOL     OW 9081   4.608   5.638   0.174 -0.5189 -0.1898 -0.2541
 2554SOL    HW1 9082   4.662   5.685   0.237  0.7517 -0.5289 -1.0436
 2554SOL    HW2 9083   4.671   5.598   0.113 -1.4588 -3.1530  0.5169
 2555SOL     OW 9084   2.771   5.315   6.336 -0.2141 -0.0435  0.5505
 2555SOL    HW1 9085   2.711   5.246   6.309  0.0859 -0.1569  0.1582
 2555SOL    HW2 9086   2.832   5.325   6.262 -1.7235  2.3347 -0.5039
 2556SOL     OW 9087   7.575   5.512   1.387 -0.6436 -0.1989 -0.4187
 2556SOL    HW1 9088   7.628   5.466   1.452 -0.5342  0.6273  0.0973
 2556SOL    HW2 9089   7.511   5.561   1.440 -0.4795  0.5776 -0.9270
 2557SOL     OW 9090   5.711   3.712   7.639  0.1021  0.7342  0.0833
 2557SOL    HW1 9091   5.649   3.676   7.576  1.0936  0.1012 -0.5706
 2557SOL    HW2 9092   5.660   3.771   7.693 -1.7295 -1.8242  1.3726
 2558SOL     OW 9093   0.622   6.396   2.644  0.2115 -0.2051  0.3409
 2558SOL    HW1 9094   0.562   6.359   2.579 -0.5220  3.1785 -1.1284
 2558SOL    HW2 9095   0.571   6.403   2.724  0.2527 -1.8164  0.5457
 2559SOL     OW 9096   1.131   6.927   0.326 -0.4893 -0.2593 -0.3860
 2559SOL    HW1 9097   1.178   6.978   0.392 -0.7258 -1.6537  0.8992
 2559SOL    HW2 9098   1.196   6.865   0.293 -0.7305 -0.4549 -0.4946
 2560SOL     OW 9099   2.455   2.588   1.165  0.5494 -0.1086 -0.0336
 2560SOL    HW1 9100   2.488   2.677   1.153 -2.8157  1.2599 -0.1717
 2560SOL    HW2 9101   2.391   2.576   1.094  1.0394 -2.7725 -0.1552
 2561SOL     OW 9102   4.966   7.262   5.844  0.1646  0.4266 -0.0454
 2561SOL    HW1 9103   5.022   7.311   5.904  1.5176  0.9128 -1.6187
 2561SOL    HW2 9104   4.878   7.298   5.858  0.2244 -0.2039  2.3146
 2562SOL     OW 9105   7.130   7.222   2.711 -0.1606  0.6610 -0.6855
 2562SOL    HW1 9106   7.106   7.265   2.793  1.9582  0.0115  0.3420
 2562SOL    HW2 9107   7.156   7.294   2.654  0.6252  0.9601  0.0339
 2563SOL     OW 9108   0.542   2.337   0.967 -0.0380  0.8837  0.2266
 2563SOL    HW1 9109   0.527   2.265   1.027 -2.4962  2.2572  1.4300
 2563SOL    HW2 9110   0.602   2.396   1.014  1.1091  0.1929 -0.3187
 2564SOL     OW 9111   2.714   0.782   7.486  0.0538 -0.0681  0.5888
 2564SOL    HW1 9112   2.809   0.789   7.496  0.0404 -1.1884  1.7222
 2564SOL    HW2 9113   2.702   0.724   7.411  0.3392 -2.0531  1.9974
 2565SOL     OW 9114   2.614   3.637   5.984 -0.3641 -0.5377 -0.0697
 2565SOL    HW1 9115   2.589   3.724   5.951 -0.2640 -0.5347 -0.1381
 2565SOL    HW2 9116   2.670   3.601   5.916  0.8085 -0.0606  0.6103
 2566SOL     OW 9117   3.424   2.247   5.487  0.5284  0.3117 -0.2497
 2566SOL    HW1 9118   3.443   2.186   5.416 -0.0454  0.6504 -0.7109
 2566SOL    HW2 9119   3.329   2.243   5.497  0.3662  1.7762 -0.9150
 2567SOL     OW 9120   4.326   3.613   0.478 -0.1810 -0.3878  0.4141
 2567SOL    HW1 9121   4.307   3.562   0.557  1.4290  0.0026  1.1028
 2567SOL    HW2 9122   4.369   3.551   0.419  2.1090  0.1553  1.3928
 2568SOL     OW 9123   3.211   4.121   1.172 -0.2762  0.1018  0.2853
 2568SOL    HW1 9124   3.171   4.155   1.253 -1.1410 -1.2479  0.4653
 2568SOL    HW2 9125   3.136   4.099   1.117  0.3037  0.4530 -0.6571
 2569SOL     OW 9126   4.738   1.782   2.990 -0.0992  0.1665 -0.5197
 2569SOL    HW1 9127   4.682   1.805   2.916 -1.9477 -0.2093  0.6898
 2569SOL    HW2 9128   4.731   1.857   3.050 -0.0560 -0.2814  0.0567
 2570SOL     OW 9129   1.413   7.669   1.791  0.1407  0.2214 -0.0910
 2570SOL    HW1 9130   1.466   7.612   1.847 -0.2326 -0.3347 -0.2943
 2570SOL    HW2 9131   1.448   7.656   1.703 -1.7604 -1.9397 -0.6267
 2571SOL     OW 9132   1.343   5.961   4.434  0.0857 -0.2982 -0.4039
 2571SOL    HW1 9133   1.355   6.001   4.348  0.4505  1.5764  0.4498
 2571SOL    HW2 9134   1.432   5.935   4.460  0.1186 -0.0235 -0.2328
 2572SOL     OW 9135   5.065   3.646   6.538  0.0536 -0.3822 -0.3147
 2572SOL    HW1 9136   5.152   3.676   6.512 -0.7642 -0.0719 -2.9623
 2572SOL    HW2 9137   5.073   3.551   6.543  0.8217 -0.2799  0.6707
 2573SOL     OW 9138   8.049   8.161   4.267 -0.6119  0.7791 -0.3815
 2573SOL    HW1 9139   8.014   8.208   4.191 -1.3108 -0.2680 -0.7331
 2573SOL    HW2 9140   8.142   8.150   4.247 -1.1467 -1.3729 -2.1896
 2574SOL     OW 9141   2.765   2.152   6.310  0.0612  0.0045 -0.4383
 2574SOL    HW1 9142   2.797   2.107   6.232 -0.4579  1.6225 -1.6588
 2574SOL    HW2 9143   2.721   2.230   6.275  0.5711  1.2304  1.5121
 2575SOL     OW 9144   1.098   4.828   7.999  0.0567 -0.1743  0.1864
 2575SOL    HW1 9145   1.045   4.849   8.076 -0.5842  1.3938 -0.6420
 2575SOL    HW2 9146   1.186   4.860   8.022  0.4081 -1.6204  1.0477
 2576SOL     OW 9147   0.363   3.443   3.982  0.2821  0.0815  0.2809
 2576SOL    HW1 9148   0.346   3.396   3.900 -2.0224 -0.1350  0.8070
 2576SOL    HW2 9149   0.301   3.404   4.044  0.7864  1.4266  1.6659
 2577SOL     OW 9150   5.297   0.219   3.825  0.1358 -0.3109 -0.2014
 2577SOL    HW1 9151   5.292   0.287   3.892  3.0696 -0.2895  0.1318
 2577SOL    HW2 9152   5.309   0.266   3.743  1.6370 -0.3342 -0.0346
 2578SOL     OW 9153   5.606   1.333   1.433 -0.3452 -0.5820  0.0411
 2578SOL    HW1 9154   5.673   1.305   1.495  0.3664 -0.4042 -0.6282
 2578SOL    HW2 9155   5.560   1.404   1.478  0.7991  0.2065  0.0231
 2579SOL     OW 9156   4.152   4.977   0.960  0.1820  0.5499  0.0450
 2579SOL    HW1 9157   4.149   4.897   1.013 -1.0568  1.4844  1.4800
 2579SOL    HW2 9158   4.152   5.048   1.024  0.3292  1.7135 -1.2093
 2580SOL     OW 9159   3.360   1.849   6.163 -0.7118  0.1234  0.2916
 2580SOL    HW1 9160   3.290   1.784   6.156 -1.9342  0.9163  3.5551
 2580SOL    HW2 9161   3.425   1.808   6.219 -0.0508  0.6072 -0.1072
 2581SOL     OW 9162   4.987   0.326   7.966 -0.1074  0.1148  1.0231
 2581SOL    HW1 9163   4.947   0.292   8.046 -0.7061 -0.0445  0.6604
 2581SOL    HW2 9164   5.078   0.343   7.990 -0.2099 -0.2069  1.6563
 2582SOL     OW 9165   0.855   0.943   7.520  0.5447 -0.1715 -1.0120
 2582SOL    HW1 9166   0.826   0.933   7.611 -1.8110 -1.5778 -1.8167
 2582SOL    HW2 9167   0.905   0.864   7.502 -0.8138 -0.9551 -1.5045
 2583SOL     OW 9168   1.427   3.847   4.940 -0.2333 -0.1200 -0.5215
 2583SOL    HW1 9169   1.390   3.760   4.953  0.4986 -0.6385 -1.8539
 2583SOL    HW2 9170   1.351   3.905   4.940 -0.9159 -0.9822 -1.5256
 2584SOL     OW 9171   6.348   4.579   4.648 -0.6565 -0.4199  0.1108
 2584SOL    HW1 9172   6.325   4.650   4.708  0.5314  0.2061 -0.1394
 2584SOL    HW2 9173   6.354   4.502   4.704  0.0737  0.0847  0.7452
 2585SOL     OW 9174   1.237   4.228   2.922  0.4581  0.9678 -0.1625
 2585SOL    HW1 9175   1.174   4.298   2.941 -2.0088 -1.4734  1.5739
 2585SOL    HW2 9176   1.291   4.223   3.001  0.8149  1.0577 -0.3975
 2586SOL     OW 9177   7.295   6.855   2.150 -0.0984 -0.2029  0.1082
 2586SOL    HW1 9178   7.211   6.900   2.150 -0.3011 -0.5483  1.0929
 2586SOL    HW2 9179   7.326   6.862   2.060 -0.7986  0.6324 -0.0820
 2587SOL     OW 9180   6.931   6.279   5.270  0.0487 -0.4886  0.2521
 2587SOL    HW1 9181   6.956   6.298   5.361 -0.8694  1.8207  0.0786
 2587SOL    HW2 9182   6.850   6.328   5.257  0.6014 -0.0937 -2.0698
 2588SOL     OW 9183   7.141   5.104   5.289 -0.4693 -0.2284 -0.5006
 2588SOL    HW1 9184   7.054   5.065   5.284 -0.0226 -1.1212 -1.9246
 2588SOL    HW2 9185   7.196   5.033   5.323 -0.1069 -0.0076 -0.6270
 2589SOL     OW 9186   1.100   5.203   7.402  0.1646 -0.0451 -0.2703
 2589SOL    HW1 9187   1.189   5.233   7.380  0.4444 -1.3414 -0.9926
 2589SOL    HW2 9188   1.059   5.280   7.442  0.9527  1.2049 -1.7378
 2590SOL     OW 9189   0.497   1.728   1.338 -0.0048 -0.1785 -0.0771
 2590SOL    HW1 9190   0.503   1.660   1.271  0.4375  0.5355 -0.7859
 2590SOL    HW2 9191   0.559   1.795   1.309 -0.8805  0.8020  0.2822
 2591SOL     OW 9192   6.852   4.437   6.722 -0.7036  0.2929  0.3472
 2591SOL    HW1 9193   6.778   4.421   6.665  0.1059  0.1058 -0.6807
 2591SOL    HW2 9194   6.918   4.374   6.695 -0.8447 -0.9289  2.5905
 2592SOL     OW 9195   0.270   3.354   5.809 -0.2338  0.2255 -0.1163
 2592SOL    HW1 9196   0.278   3.440   5.767 -0.3213  0.4075  0.2366
 2592SOL    HW2 9197   0.220   3.371   5.889  0.5894  0.0074  0.4533
 2593SOL     OW 9198   2.907   1.540   5.156 -0.1796 -0.3688  0.0140
 2593SOL    HW1 9199   2.977   1.579   5.104 -0.8170  0.2557 -0.4013
 2593SOL    HW2 9200   2.944   1.532   5.244 -0.0407  1.2680  0.1368
 2594SOL     OW 9201   3.784   2.432   0.305 -0.1635  0.2602  0.1443
 2594SOL    HW1 9202   3.793   2.421   0.400  1.0918 -1.9207 -0.1554
 2594SOL    HW2 9203   3.864   2.478   0.279  0.6728 -1.2451 -0.0867
 2595SOL     OW 9204   7.488   6.780   3.292 -0.3120 -0.1740  0.7616
 2595SOL    HW1 9205   7.462   6.773   3.384  0.1035 -0.6238  0.8493
 2595SOL    HW2 9206   7.409   6.758   3.243 -0.4904 -0.0932  1.0123
 2596SOL     OW 9207   5.629   5.893   7.633  0.4169  0.5367 -0.4917
 2596SOL    HW1 9208   5.653   5.911   7.724  0.0574  1.7339 -0.6169
 2596SOL    HW2 9209   5.545   5.849   7.639  0.1708  1.0309 -0.2554
 2597SOL     OW 9210   5.328   2.070   3.029  1.0113  0.6451  0.3827
 2597SOL    HW1 9211   5.396   2.068   2.962 -0.3238  0.0037 -1.0203
 2597SOL    HW2 9212   5.255   2.118   2.989 -0.5386 -1.3905  0.5782
 2598SOL     OW 9213   1.104   6.975   7.936 -0.1680  0.2129 -0.6029
 2598SOL    HW1 9214   1.095   7.067   7.958 -1.7920 -0.0147 -0.1731
 2598SOL    HW2 9215   1.015   6.939   7.943  0.7649 -1.9390  1.7790
 2599SOL     OW 9216   1.088   5.911   5.228  0.1797  0.4292  0.0296
 2599SOL    HW1 9217   1.145   5.839   5.205  0.2303  0.2679  0.6544
 2599SOL    HW2 9218   1.146   5.986   5.238  0.3869  0.1130  1.3630
 2600SOL     OW 9219   1.238   2.886   3.940  0.8212 -0.1723  0.1672
 2600SOL    HW1 9220   1.317   2.885   3.993  1.3006  0.7948 -0.5026
 2600SOL    HW2 9221   1.227   2.977   3.913 -2.2686  0.4123  2.7679
 2601SOL     OW 9222   2.505   7.847   7.696  0.5994  0.2021  0.2124
 2601SOL    HW1 9223   2.484   7.848   7.603 -0.7819  0.1813  0.4976
 2601SOL    HW2 9224   2.558   7.769   7.709 -0.1894 -0.4482 -0.3753
 2602SOL     OW 9225   5.509   5.065   7.919 -0.2103  0.2173 -0.1459
 2602SOL    HW1 9226   5.478   5.032   8.003 -0.5964  0.1080 -0.3293
 2602SOL    HW2 9227   5.581   5.124   7.941 -0.5943  0.5266  0.2956
 2603SOL     OW 9228   0.437   3.042   5.376  0.2066  0.2072 -0.7956
 2603SOL    HW1 9229   0.470   3.017   5.289 -1.0066 -0.7728 -0.9863
 2603SOL    HW2 9230   0.417   2.960   5.419 -2.0158  0.7327 -0.7026
 2604SOL     OW 9231   2.078   2.521   4.836 -0.3197  0.1891 -0.2296
 2604SOL    HW1 9232   2.152   2.507   4.778 -0.7662  1.1093 -1.0470
 2604SOL    HW2 9233   2.114   2.573   4.909  0.3716 -1.4597  0.6665
 2605SOL     OW 9234   5.228   5.153   4.122  0.0559 -0.1412 -0.3093
 2605SOL    HW1 9235   5.237   5.098   4.199  1.3481 -1.5562 -1.4216
 2605SOL    HW2 9236   5.299   5.127   4.064  0.6666  2.6319 -0.9612
 2606SOL     OW 9237   5.707   7.828   3.685 -0.1431  0.0594 -0.7130
 2606SOL    HW1 9238   5.730   7.749   3.734  1.2760  0.9489  0.1275
 2606SOL    HW2 9239   5.616   7.813   3.658 -1.1599 -0.3490  2.4743
 2607SOL     OW 9240   7.829   2.336   0.060 -0.5009  0.3468 -0.0973
 2607SOL    HW1 9241   7.898   2.309   0.121  0.6382 -0.9349 -1.8394
 2607SOL    HW2 9242   7.827   2.266  -0.005 -1.5583  1.7165 -1.6005
 2608SOL     OW 9243   1.199   4.490   0.551 -0.5249 -0.0686  0.1348
 2608SOL    HW1 9244   1.126   4.446   0.507 -0.8889  1.7706 -1.2351
 2608SOL    HW2 9245   1.277   4.453   0.510 -0.8492  1.4038 -2.0174
 2609SOL     OW 9246   7.074   3.242   1.602 -0.1265  0.4385 -0.4450
 2609SOL    HW1 9247   7.131   3.168   1.582 -0.9705 -0.3412  0.0011
 2609SOL    HW2 9248   7.117   3.317   1.560  0.3859 -0.4100 -1.4587
 2610SOL     OW 9249   4.754   5.483   1.306 -0.0055 -0.3638  0.6011
 2610SOL    HW1 9250   4.680   5.501   1.247  0.0100 -0.8396  0.4333
 2610SOL    HW2 9251   4.716   5.484   1.394  0.0311  0.6937  0.6225
 2611SOL     OW 9252   1.382   4.436   7.495  0.3338 -0.2698  0.3444
 2611SOL    HW1 9253   1.333   4.359   7.466  0.2690  0.2594 -1.0374
 2611SOL    HW2 9254   1.474   4.412   7.483  0.3084 -0.0644 -0.3338
 2612SOL     OW 9255   2.268   6.258   7.772  0.0761 -0.6231  0.2278
 2612SOL    HW1 9256   2.353   6.214   7.779  0.1637 -0.5117 -0.1424
 2612SOL    HW2 9257   2.226   6.241   7.857  1.4990  1.4694  1.4542
 2613SOL     OW 9258   1.228   3.942   3.627  0.1968 -0.1170  0.1587
 2613SOL    HW1 9259   1.155   3.887   3.656 -0.0861 -0.6830 -1.4942
 2613SOL    HW2 9260   1.211   4.027   3.666 -1.4857 -0.1844 -0.3725
 2614SOL     OW 9261   6.819   2.330   2.280 -0.2063 -0.4798 -0.0988
 2614SOL    HW1 9262   6.907   2.353   2.310 -0.2353 -1.0620  0.4515
 2614SOL    HW2 9263   6.816   2.360   2.189  0.3532  0.0861  0.0653
 2615SOL     OW 9264   6.109   1.392   1.635  0.5394  0.1423 -0.5127
 2615SOL    HW1 9265   6.099   1.307   1.592 -0.6931  0.4901 -0.9404
 2615SOL    HW2 9266   6.100   1.456   1.565 -0.4095  0.6849  0.0938
 2616SOL     OW 9267   4.754   6.975   6.620 -0.0828  0.0191  0.0124
 2616SOL    HW1 9268   4.827   6.934   6.665  0.3761 -0.4347 -1.1179
 2616SOL    HW2 9269   4.725   6.910   6.556  0.8737  1.4968 -2.0536
 2617SOL     OW 9270   1.081   0.065   5.917  0.2393  0.0232  0.1126
 2617SOL    HW1 9271   1.106   0.048   6.008  0.9413 -1.7458 -0.3681
 2617SOL    HW2 9272   1.163   0.064   5.869 -0.0487  1.7247 -0.4722
 2618SOL     OW 9273   7.095   8.126   0.114  0.4241 -0.2127  0.1987
 2618SOL    HW1 9274   7.147   8.133   0.035 -0.5822  0.0784 -0.4518
 2618SOL    HW2 9275   7.155   8.087   0.179  0.9977 -1.2584 -0.9246
 2619SOL     OW 9276   1.971   6.489   7.818  0.4653  0.1586  0.1158
 2619SOL    HW1 9277   1.944   6.576   7.850  0.7729  0.0611  0.6588
 2619SOL    HW2 9278   1.961   6.432   7.894 -0.1532 -0.3793 -0.3528
 2620SOL     OW 9279   0.631   7.123   7.965  0.1812  0.0129 -0.0454
 2620SOL    HW1 9280   0.669   7.202   7.926 -1.8515 -0.2632 -2.8779
 2620SOL    HW2 9281   0.693   7.054   7.942  0.2260  0.2514 -0.6676
 2621SOL     OW 9282   5.776   7.717   5.499  0.1299 -0.0297  0.8180
 2621SOL    HW1 9283   5.697   7.767   5.518 -0.3926 -1.1320  1.6884
 2621SOL    HW2 9284   5.809   7.754   5.418 -3.3376 -1.8425 -1.7406
 2622SOL     OW 9285   8.239   8.210   2.528  0.6975  0.1725  0.3878
 2622SOL    HW1 9286   8.147   8.221   2.503  0.2995 -1.6529  0.8752
 2622SOL    HW2 9287   8.281   8.292   2.502 -1.0258  0.9761 -0.0117
 2623SOL     OW 9288   7.503   4.098   7.354 -0.4007 -0.3382  0.3931
 2623SOL    HW1 9289   7.594   4.072   7.335 -0.8703 -2.2252  0.5253
 2623SOL    HW2 9290   7.490   4.071   7.445 -1.3511 -0.8935  0.1042
 2624SOL     OW 9291   0.329   1.966   0.727 -0.0935 -0.3042  0.0915
 2624SOL    HW1 9292   0.369   2.017   0.797  0.0143 -0.1170 -0.1033
 2624SOL    HW2 9293   0.299   2.031   0.664  1.4005 -0.5082 -0.8888
 2625SOL     OW 9294   4.680   0.755   6.968  0.2722  1.0146 -0.1430
 2625SOL    HW1 9295   4.646   0.699   6.898 -0.5708  1.5115 -0.1425
 2625SOL    HW2 9296   4.690   0.696   7.043  0.8401  0.5538 -0.5766
 2626SOL     OW 9297   3.410   6.547   3.006 -0.0907  0.3196  0.3538
 2626SOL    HW1 9298   3.425   6.455   3.027  0.3658  0.5859  1.2434
 2626SOL    HW2 9299   3.430   6.594   3.087 -2.5455  1.0173  0.6123
 2627SOL     OW 9300   5.016   4.112   6.531 -0.4853  0.1724  0.4112
 2627SOL    HW1 9301   4.963   4.033   6.527  1.3223 -1.1051  0.6371
 2627SOL    HW2 9302   5.067   4.111   6.449  0.3038  0.5359  0.8854
 2628SOL     OW 9303   6.846   3.293   2.642  0.1072  0.0141 -0.6953
 2628SOL    HW1 9304   6.939   3.277   2.625 -0.3778 -2.0509 -1.6704
 2628SOL    HW2 9305   6.808   3.305   2.555 -0.6599  0.1541 -0.3478
 2629SOL     OW 9306   0.188   4.114   4.123 -0.2725  0.5588 -0.0661
 2629SOL    HW1 9307   0.233   4.030   4.127 -1.6065 -0.3179 -1.8944
 2629SOL    HW2 9308   0.186   4.145   4.214  2.2450 -0.2443  0.3520
 2630SOL     OW 9309   4.927   1.072   7.092  0.6174 -0.0237 -0.1689
 2630SOL    HW1 9310   4.963   0.984   7.108  0.6847  0.0051 -0.1631
 2630SOL    HW2 9311   5.004   1.127   7.078  0.5657 -0.0175 -0.4350
 2631SOL     OW 9312   7.874   6.363   1.585 -0.2241 -0.6218 -0.1203
 2631SOL    HW1 9313   7.916   6.368   1.671  0.1132  1.1660 -0.3631
 2631SOL    HW2 9314   7.868   6.269   1.568 -1.2693 -1.0903  2.3056
 2632SOL     OW 9315   5.843   2.968   3.021 -0.3975  0.2550 -0.1333
 2632SOL    HW1 9316   5.889   3.037   3.067 -0.0535 -0.1418  0.1279
 2632SOL    HW2 9317   5.765   3.011   2.984 -0.7640  0.5555  0.9438
 2633SOL     OW 9318   4.862   6.896   1.134  0.5272  0.2955 -0.2805
 2633SOL    HW1 9319   4.778   6.871   1.095  0.0996 -0.0425  0.8177
 2633SOL    HW2 9320   4.877   6.831   1.203  1.0869  1.0653  0.3466
 2634SOL     OW 9321   5.916   3.410   0.925  0.2318 -0.0061 -0.0228
 2634SOL    HW1 9322   5.834   3.433   0.970 -0.4608 -1.0995 -0.6858
 2634SOL    HW2 9323   5.978   3.397   0.997 -0.7942 -1.4859  0.6522
 2635SOL     OW 9324   8.182   2.059   0.279 -0.5192  0.4215 -0.3415
 2635SOL    HW1 9325   8.219   2.047   0.366  0.5496 -2.3399 -1.0645
 2635SOL    HW2 9326   8.171   1.970   0.245 -0.2468  1.3966 -3.3047
 2636SOL     OW 9327   4.713   5.995   5.205  0.6033 -0.2449  0.0021
 2636SOL    HW1 9328   4.619   6.012   5.217  0.6582  0.1194 -0.0826
 2636SOL    HW2 9329   4.747   6.075   5.167  0.9863 -0.3089  0.2119
 2637SOL     OW 9330   4.154   1.531   7.150 -0.2851  0.0949  0.1539
 2637SOL    HW1 9331   4.100   1.593   7.199 -0.7749 -0.1728 -0.0407
 2637SOL    HW2 9332   4.173   1.461   7.212 -0.5622 -0.0427  0.0859
 2638SOL     OW 9333   6.860   2.071   1.792 -0.9455 -0.6445  0.6744
 2638SOL    HW1 9334   6.764   2.064   1.787 -1.1527  1.8829 -2.0614
 2638SOL    HW2 9335   6.892   1.996   1.742 -1.5951 -0.4562 -0.0416
 2639SOL     OW 9336   6.410   3.785   3.690  0.1417 -0.4786  0.7051
 2639SOL    HW1 9337   6.363   3.841   3.628  1.2411  1.8238  1.8089
 2639SOL    HW2 9338   6.345   3.765   3.758 -0.3766 -0.9289  0.0913
 2640SOL     OW 9339   5.834   0.413   3.983  0.2515 -0.3866  0.1243
 2640SOL    HW1 9340   5.804   0.369   3.904  1.4943 -0.8792 -0.0998
 2640SOL    HW2 9341   5.790   0.368   4.054  0.7893 -1.3822 -0.1611
 2641SOL     OW 9342   2.854   6.550   1.121  0.2709  0.6299 -0.4272
 2641SOL    HW1 9343   2.795   6.548   1.197  0.9585 -0.4582  0.1035
 2641SOL    HW2 9344   2.916   6.620   1.140  2.0230 -1.2693  1.2935
 2642SOL     OW 9345   6.137   7.746   8.191 -0.0344 -0.3680 -0.9197
 2642SOL    HW1 9346   6.223   7.741   8.149  0.9199  2.5906  0.3847
 2642SOL    HW2 9347   6.092   7.817   8.146 -0.9911 -0.5263 -0.2450
 2643SOL     OW 9348   7.513   8.188   3.412  0.6680  0.3873 -0.1566
 2643SOL    HW1 9349   7.523   8.283   3.417  1.4622  0.3679 -1.0757
 2643SOL    HW2 9350   7.455   8.166   3.485 -0.1247  1.6573 -0.3716
 2644SOL     OW 9351   6.263   0.161   6.536 -0.1888 -0.7050  0.2498
 2644SOL    HW1 9352   6.190   0.220   6.553  0.1729  0.3508 -1.6357
 2644SOL    HW2 9353   6.223   0.080   6.503 -0.5979 -0.9954  1.4130
 2645SOL     OW 9354   0.176   0.677   3.819 -0.1082  0.3708  0.1498
 2645SOL    HW1 9355   0.097   0.715   3.781 -2.2414  0.0150  3.7623
 2645SOL    HW2 9356   0.228   0.752   3.847 -0.4962  0.6424  0.1475
 2646SOL     OW 9357   0.135   4.157   6.355  0.1150 -0.7338 -0.2258
 2646SOL    HW1 9358   0.137   4.137   6.449  2.1561  1.5669  0.3151
 2646SOL    HW2 9359   0.044   4.180   6.337 -0.4296 -1.7806  1.0264
 2647SOL     OW 9360   0.902   5.288   3.036  0.4126 -0.0535 -0.4112
 2647SOL    HW1 9361   0.983   5.339   3.047  1.2145 -1.4364  0.3898
 2647SOL    HW2 9362   0.928   5.198   3.056 -0.5625 -1.0917 -3.2913
 2648SOL     OW 9363   1.986   6.031   4.209 -0.0382 -0.0417 -0.1605
 2648SOL    HW1 9364   2.028   6.043   4.295  1.4545 -1.3290 -0.6618
 2648SOL    HW2 9365   1.980   6.119   4.173 -2.0230  0.7100  1.8349
 2649SOL     OW 9366   5.020   3.073   0.163  0.1412 -0.0299 -0.6630
 2649SOL    HW1 9367   4.980   2.999   0.208  0.5846 -0.1231 -0.4129
 2649SOL    HW2 9368   4.974   3.150   0.199  0.5635 -0.0947  0.0450
 2650SOL     OW 9369   0.124   3.763   3.952 -0.5199  0.3951  0.3032
 2650SOL    HW1 9370   0.169   3.735   3.872 -0.1811  0.6865  0.3860
 2650SOL    HW2 9371   0.042   3.714   3.953  0.7745 -1.9067  1.3256
 2651SOL     OW 9372   3.180   5.638   2.883  0.8842 -0.1292 -0.5999
 2651SOL    HW1 9373   3.116   5.569   2.868 -0.4337  1.2813 -1.8150
 2651SOL    HW2 9374   3.218   5.655   2.797  0.8390  0.9726 -0.4208
 2652SOL     OW 9375   5.996   2.012   1.095  0.4741  0.7048 -0.7996
 2652SOL    HW1 9376   6.082   1.978   1.070  0.0345 -0.7493 -0.4348
 2652SOL    HW2 9377   5.936   1.975   1.030 -0.1246  0.1217  0.0586
 2653SOL     OW 9378   8.062   1.958   5.415 -0.5761  0.1428  0.1121
 2653SOL    HW1 9379   7.977   1.924   5.387 -1.0160  0.9254  0.4486
 2653SOL    HW2 9380   8.116   1.959   5.336  0.0099 -2.8572  0.3787
 2654SOL     OW 9381   7.506   2.034   5.298  0.5588 -0.5947  0.2599
 2654SOL    HW1 9382   7.441   1.985   5.349 -2.3116  0.2185 -2.2520
 2654SOL    HW2 9383   7.485   2.013   5.207  2.0586  1.8662 -0.7662
 2655SOL     OW 9384   4.358   7.615   0.346  0.1956 -0.2732  0.0234
 2655SOL    HW1 9385   4.286   7.666   0.383 -0.2513 -0.8258 -0.0645
 2655SOL    HW2 9386   4.412   7.679   0.300  1.9994  0.8749  3.3969
 2656SOL     OW 9387   2.130   0.267   6.525  0.1358  0.2784  0.0531
 2656SOL    HW1 9388   2.079   0.317   6.589 -0.5149 -1.1308  0.6814
 2656SOL    HW2 9389   2.212   0.247   6.571  0.7194  1.3722 -0.4694
 2657SOL     OW 9390   5.879   4.241   7.518  0.0467 -0.4287  0.0343
 2657SOL    HW1 9391   5.810   4.175   7.525 -1.2285  0.7623 -0.8819
 2657SOL    HW2 9392   5.945   4.201   7.462 -2.0893  0.1077 -3.0856
 2658SOL     OW 9393   3.510   5.163   5.076  0.1704  0.2113 -0.3499
 2658SOL    HW1 9394   3.511   5.160   4.980  0.2935  0.1982 -0.3477
 2658SOL    HW2 9395   3.564   5.238   5.098  0.9105 -0.3361 -0.2622
 2659SOL     OW 9396   6.393   4.557   5.139 -0.1227 -0.2506  0.2967
 2659SOL    HW1 9397   6.314   4.543   5.087 -0.3849 -0.7920  0.8286
 2659SOL    HW2 9398   6.366   4.622   5.205  0.4561  1.1171 -0.7677
 2660SOL     OW 9399   0.914   4.284   7.819  0.0238 -0.0675 -0.0566
 2660SOL    HW1 9400   0.949   4.325   7.740 -0.0448 -1.8957 -1.0853
 2660SOL    HW2 9401   0.819   4.281   7.805 -0.0210 -0.1184  0.2436
 2661SOL     OW 9402   0.620   0.858   5.732  0.2668  0.3447 -0.3583
 2661SOL    HW1 9403   0.536   0.833   5.769  0.0244  0.0555 -1.0717
 2661SOL    HW2 9404   0.601   0.875   5.639  0.9848  0.3249 -0.5158
 2662SOL     OW 9405   5.213   2.603   6.857  0.4803 -0.2478 -0.5125
 2662SOL    HW1 9406   5.276   2.618   6.787  0.7574 -1.5841 -0.5783
 2662SOL    HW2 9407   5.230   2.513   6.886 -1.1116 -0.4927 -0.2402
 2663SOL     OW 9408   6.024   0.292   5.318  0.3667 -0.2046 -0.6860
 2663SOL    HW1 9409   6.041   0.239   5.240  0.5588  1.2004 -1.6224
 2663SOL    HW2 9410   5.948   0.345   5.296  1.1277  1.0599 -0.3758
 2664SOL     OW 9411   2.548   6.963   3.441  0.1845 -0.0635 -0.0231
 2664SOL    HW1 9412   2.601   7.012   3.504  0.6051 -0.4732 -0.0549
 2664SOL    HW2 9413   2.579   6.994   3.355  0.4489 -0.3825 -0.0433
 2665SOL     OW 9414   6.061   1.962   0.201 -0.2728  0.1767  0.0904
 2665SOL    HW1 9415   6.088   2.050   0.225 -2.2730  0.4663  1.5719
 2665SOL    HW2 9416   6.108   1.905   0.261 -1.7709  0.5640  1.6980
 2666SOL     OW 9417   0.114   6.877   3.146  0.0264  0.1298  0.1323
 2666SOL    HW1 9418   0.051   6.807   3.162  0.9861 -0.8202 -0.1292
 2666SOL    HW2 9419   0.082   6.951   3.197 -1.1917 -0.3912  0.1438
 2667SOL     OW 9420   3.841   5.333   6.176 -0.0584 -0.5278  0.0758
 2667SOL    HW1 9421   3.841   5.240   6.197  0.7049 -0.7269 -0.7446
 2667SOL    HW2 9422   3.855   5.377   6.260  2.3558 -1.2728  0.1269
 2668SOL     OW 9423   1.927   3.672   1.110 -0.3210  0.2682  0.1353
 2668SOL    HW1 9424   1.900   3.759   1.083 -1.4931  0.1925  0.9556
 2668SOL    HW2 9425   1.874   3.653   1.188  1.3942 -0.3397  1.2306
 2669SOL     OW 9426   2.467   2.000   0.970 -0.4592 -0.1335 -0.4552
 2669SOL    HW1 9427   2.386   2.046   0.992  0.9365  1.2026  2.4010
 2669SOL    HW2 9428   2.467   1.998   0.874 -3.2495  0.8750 -0.5827
 2670SOL     OW 9429   4.224   2.072   4.563  0.3238 -0.3975 -0.1444
 2670SOL    HW1 9430   4.248   2.044   4.652 -0.3359  0.7232  0.4216
 2670SOL    HW2 9431   4.275   2.152   4.549 -0.9204  0.4513 -0.0276
 2671SOL     OW 9432   7.601   5.038   2.621 -0.3519 -0.3643  0.2273
 2671SOL    HW1 9433   7.661   4.973   2.583 -0.7741 -0.8777  0.4204
 2671SOL    HW2 9434   7.655   5.116   2.633  0.1076 -0.6013 -0.2299
 2672SOL     OW 9435   0.359   7.953   5.376 -0.2705  0.3223  0.1207
 2672SOL    HW1 9436   0.374   7.864   5.408 -3.9475 -0.6148 -0.3479
 2672SOL    HW2 9437   0.444   7.980   5.342  1.1640 -2.7056  0.8981
 2673SOL     OW 9438   0.465   3.514   5.537 -0.1352  0.3241  0.1361
 2673SOL    HW1 9439   0.478   3.421   5.555 -0.3119  0.2837  0.0639
 2673SOL    HW2 9440   0.456   3.554   5.623 -0.7524  0.1655  0.1540
 2674SOL     OW 9441   1.974   3.592   7.330  0.6808  0.6785  0.2535
 2674SOL    HW1 9442   1.946   3.672   7.375  1.6840  2.3964 -1.9954
 2674SOL    HW2 9443   2.009   3.623   7.246 -1.0357 -2.2979 -1.7350
 2675SOL     OW 9444   2.667   7.758   2.746  0.4215 -0.3222 -0.3593
 2675SOL    HW1 9445   2.682   7.702   2.822  0.6692 -0.4902 -0.5309
 2675SOL    HW2 9446   2.656   7.697   2.673  0.4299 -0.1547 -0.5004
 2676SOL     OW 9447   0.452   1.870   1.640  0.0846 -0.0356 -0.0196
 2676SOL    HW1 9448   0.481   1.805   1.704 -2.2861 -2.1352 -0.9604
 2676SOL    HW2 9449   0.463   1.828   1.555  0.3086  1.5730 -0.8451
 2677SOL     OW 9450   0.889   7.928   3.274  0.0834  0.6596  0.0182
 2677SOL    HW1 9451   0.906   8.021   3.291 -0.2823  1.2731 -2.5456
 2677SOL    HW2 9452   0.801   7.914   3.310  0.1241  1.3285  0.4020
 2678SOL     OW 9453   0.213   0.050   5.081 -0.3613  0.2672  0.0632
 2678SOL    HW1 9454   0.155   0.065   5.155 -0.2520  2.4188 -0.2205
 2678SOL    HW2 9455   0.160  -0.001   5.019 -0.9935 -0.1789  0.9578
 2679SOL     OW 9456   3.147   3.802   0.595 -0.7596 -0.0975 -0.5337
 2679SOL    HW1 9457   3.228   3.839   0.561 -0.4306  0.5221  0.8683
 2679SOL    HW2 9458   3.090   3.795   0.518  0.7940 -1.1022 -1.6507
 2680SOL     OW 9459   8.121   5.978   3.314  0.3275  0.0658  0.2611
 2680SOL    HW1 9460   8.091   6.069   3.320  0.2234  0.0312  0.2473
 2680SOL    HW2 9461   8.198   5.976   3.371  0.1273  0.0773  0.5303
 2681SOL     OW 9462   5.073   0.478   5.301  0.5559 -0.1482 -0.5976
 2681SOL    HW1 9463   5.091   0.572   5.305  2.2247 -0.4215 -0.9172
 2681SOL    HW2 9464   5.153   0.440   5.265  0.7820 -1.9440  1.6262
 2682SOL     OW 9465   3.168   7.231   3.269  0.0725  0.1292  0.0294
 2682SOL    HW1 9466   3.246   7.211   3.218 -0.0554 -1.0671  0.2901
 2682SOL    HW2 9467   3.128   7.146   3.287 -1.7382  0.7652 -0.7885
 2683SOL     OW 9468   6.581   2.304   3.140 -0.0266 -0.2613  0.1435
 2683SOL    HW1 9469   6.538   2.299   3.225  1.8333 -3.6061  1.0823
 2683SOL    HW2 9470   6.605   2.397   3.131 -2.8085  0.7453  1.8274
 2684SOL     OW 9471   3.534   4.179   3.820 -0.3356  1.0522  0.6308
 2684SOL    HW1 9472   3.564   4.105   3.873  2.0769  1.7125  0.2876
 2684SOL    HW2 9473   3.517   4.141   3.733 -1.1195  0.5710  0.9797
 2685SOL     OW 9474   1.351   1.955   0.950 -0.6165  0.2904  0.1394
 2685SOL    HW1 9475   1.341   1.973   0.856  1.8182  0.4097 -0.1598
 2685SOL    HW2 9476   1.407   2.026   0.982 -0.3376 -0.4678  1.4002
 2686SOL     OW 9477   1.521   3.897   2.706 -0.1830  0.2473  0.3889
 2686SOL    HW1 9478   1.438   3.912   2.751  0.3341  1.2519  1.0508
 2686SOL    HW2 9479   1.498   3.846   2.629 -1.2241 -0.6586  1.2780
 2687SOL     OW 9480   2.982   3.256   5.433  0.0368  0.5093  0.1838
 2687SOL    HW1 9481   2.976   3.292   5.344  1.3003  1.5076  0.4779
 2687SOL    HW2 9482   2.941   3.170   5.426 -0.5011  0.8408 -1.2097
 2688SOL     OW 9483   6.576   6.017   3.912 -0.0346 -0.2642 -0.8570
 2688SOL    HW1 9484   6.573   5.926   3.881 -1.4209 -1.4038  2.2317
 2688SOL    HW2 9485   6.485   6.046   3.908 -0.0178  0.0400  0.6058
 2689SOL     OW 9486   4.150   4.909   3.295  0.0942 -0.3553  0.6483
 2689SOL    HW1 9487   4.188   4.910   3.207 -1.0382  3.0048  0.0609
 2689SOL    HW2 9488   4.199   4.841   3.341  1.0745 -1.9060 -2.3895
 2690SOL     OW 9489   7.071   0.073   5.398 -0.6606  0.4699  0.0761
 2690SOL    HW1 9490   7.090   0.155   5.443  0.3814  0.3658 -0.1553
 2690SOL    HW2 9491   7.017   0.023   5.460  3.0984 -0.9313  2.5918
 2691SOL     OW 9492   6.648   0.008   5.573 -0.0789  0.0399  0.0423
 2691SOL    HW1 9493   6.565   0.037   5.610 -1.2840 -2.5901 -0.2900
 2691SOL    HW2 9494   6.623  -0.061   5.511  2.2146  0.7586 -1.8296
 2692SOL     OW 9495   3.393   2.368   3.869  0.1748  0.3812  0.2349
 2692SOL    HW1 9496   3.488   2.363   3.875  0.0945 -0.6227  0.9407
 2692SOL    HW2 9497   3.364   2.397   3.956 -0.2733 -1.5642  0.7842
 2693SOL     OW 9498   6.368   6.002   4.541 -0.1877 -0.5047  0.4157
 2693SOL    HW1 9499   6.374   5.918   4.494  0.0324 -0.0219 -0.4460
 2693SOL    HW2 9500   6.299   5.989   4.605 -0.7069 -1.0982 -0.2456
 2694SOL     OW 9501   3.551   1.805   0.115  0.2223  0.6446  0.0984
 2694SOL    HW1 9502   3.597   1.733   0.070 -0.5904  0.4155 -0.3785
 2694SOL    HW2 9503   3.595   1.884   0.084  0.3585  0.4232 -0.2762
 2695SOL     OW 9504   1.599   1.753   1.769 -0.4363 -0.5835 -0.0906
 2695SOL    HW1 9505   1.560   1.839   1.753 -0.2506 -0.2416  1.1643
 2695SOL    HW2 9506   1.566   1.698   1.698 -3.6568 -0.4582  1.1302
 2696SOL     OW 9507   4.827   7.467   6.881  0.0974  0.0172  0.0097
 2696SOL    HW1 9508   4.758   7.533   6.881  0.9466  0.9901  1.8655
 2696SOL    HW2 9509   4.832   7.436   6.791 -1.7588  0.9543 -0.4562
 2697SOL     OW 9510   1.845   0.658   2.855 -0.1201  0.0926  0.1382
 2697SOL    HW1 9511   1.797   0.737   2.828  0.8342  0.3688 -0.8297
 2697SOL    HW2 9512   1.864   0.612   2.773  1.9457  0.4113  0.3851
 2698SOL     OW 9513   4.925   5.204   7.495  0.9414 -0.2328 -0.2648
 2698SOL    HW1 9514   4.969   5.137   7.442  0.5715  1.1159 -2.3820
 2698SOL    HW2 9515   4.832   5.182   7.490  0.8790  0.0617 -0.4309
 2699SOL     OW 9516   1.392   7.927   7.176  0.1603  0.0012  0.2279
 2699SOL    HW1 9517   1.378   8.019   7.153  0.1528 -0.2901 -1.0092
 2699SOL    HW2 9518   1.314   7.883   7.143 -0.0327 -0.4052  1.1915
 2700SOL     OW 9519   5.504   3.650   0.193 -0.0085  0.1323  0.4840
 2700SOL    HW1 9520   5.538   3.685   0.275 -0.2968  2.1824 -0.2122
 2700SOL    HW2 9521   5.409   3.657   0.201 -0.0614 -0.2726  0.2322
 2701SOL     OW 9522   0.247   4.905   6.689 -0.4140 -0.5691 -0.0881
 2701SOL    HW1 9523   0.288   4.947   6.613  0.6568  2.3822  1.9556
 2701SOL    HW2 9524   0.162   4.946   6.696 -1.7615 -2.9326 -1.2426
 2702SOL     OW 9525   7.625   6.170   7.170  0.0582  0.3556  0.2842
 2702SOL    HW1 9526   7.719   6.181   7.156 -0.0659  0.3285 -0.6098
 2702SOL    HW2 9527   7.605   6.084   7.132 -0.0711 -0.3015  1.7833
 2703SOL     OW 9528   1.910   6.817   6.946 -0.2284 -0.1590  0.3036
 2703SOL    HW1 9529   1.883   6.843   7.033  0.7566  0.3054  0.4836
 2703SOL    HW2 9530   1.953   6.732   6.958  0.0841 -0.0020  0.3016
 2704SOL     OW 9531   3.148   0.391   1.224 -0.5441  0.0437 -0.1149
 2704SOL    HW1 9532   3.072   0.344   1.189  0.5055 -1.5094 -0.4287
 2704SOL    HW2 9533   3.117   0.428   1.307 -1.8531  0.1328 -0.6218
 2705SOL     OW 9534   4.842   1.576   5.596 -0.0054 -0.0120  0.4856
 2705SOL    HW1 9535   4.793   1.618   5.525  2.1296  0.9021 -0.5266
 2705SOL    HW2 9536   4.860   1.488   5.563  1.0135  0.4231 -0.1567
 2706SOL     OW 9537   3.781   4.996   2.096  0.2669  0.3110  0.1705
 2706SOL    HW1 9538   3.767   5.059   2.026 -1.5348  0.1878  0.3493
 2706SOL    HW2 9539   3.866   4.957   2.078  0.2070  0.8739 -1.4785
 2707SOL     OW 9540   5.469   3.671   1.330 -0.5695  0.3431  0.4085
 2707SOL    HW1 9541   5.473   3.754   1.283  0.0878  0.2783  0.3374
 2707SOL    HW2 9542   5.447   3.607   1.263  0.1670  0.2805  0.2165
 2708SOL     OW 9543   4.978   1.348   4.344  0.1722 -0.6974  0.4431
 2708SOL    HW1 9544   4.932   1.365   4.261 -1.2107 -0.8354  1.1650
 2708SOL    HW2 9545   5.060   1.398   4.336 -1.1426  1.5319  0.0860
 2709SOL     OW 9546   6.154   5.581   3.017  0.1730  0.3271 -0.0301
 2709SOL    HW1 9547   6.229   5.621   2.973 -0.9790  1.8052 -0.7742
 2709SOL    HW2 9548   6.127   5.509   2.959  0.7169  0.0973  0.0031
 2710SOL     OW 9549   3.968   5.449   2.298  0.0676 -0.2416 -0.1237
 2710SOL    HW1 9550   3.917   5.373   2.326 -1.3101  0.0016 -1.8422
 2710SOL    HW2 9551   3.991   5.494   2.380  0.9239 -2.4709  0.9301
 2711SOL     OW 9552   0.772   3.337   6.199 -0.0700  0.1620  0.0581
 2711SOL    HW1 9553   0.815   3.255   6.176  3.8005  1.6255  1.2268
 2711SOL    HW2 9554   0.769   3.336   6.295 -0.7023  1.0628  0.0567
 2712SOL     OW 9555   4.365   3.174   4.722  0.4504 -0.3880  0.1655
 2712SOL    HW1 9556   4.333   3.245   4.778  0.7392 -1.4478  1.7341
 2712SOL    HW2 9557   4.449   3.149   4.760  0.2218 -1.7679 -0.1762
 2713SOL     OW 9558   7.230   2.043   4.943  0.2490 -0.2669 -0.0404
 2713SOL    HW1 9559   7.202   2.116   4.999  0.6780 -0.5560  0.5604
 2713SOL    HW2 9560   7.168   1.973   4.961  2.7799 -1.8960  3.3808
 2714SOL     OW 9561   3.479   4.001   2.770  0.2732 -0.5298 -0.2412
 2714SOL    HW1 9562   3.572   4.021   2.787  0.0884  0.0062  0.1887
 2714SOL    HW2 9563   3.460   3.927   2.828  0.3740 -0.4932 -0.1591
 2715SOL     OW 9564   4.117   6.040   7.675  0.1002 -0.0059 -0.0521
 2715SOL    HW1 9565   4.060   5.977   7.720  1.5516 -0.5931  1.0584
 2715SOL    HW2 9566   4.057   6.094   7.624 -1.2761 -1.8100 -0.4743
 2716SOL     OW 9567   0.110   5.583   7.615  0.3993  0.3235 -0.5998
 2716SOL    HW1 9568   0.086   5.646   7.548 -0.1338  1.5587  0.6872
 2716SOL    HW2 9569   0.128   5.636   7.693 -0.6530 -1.1240  0.7180
 2717SOL     OW 9570   5.723   0.704   5.003  0.1049 -0.3281  0.0271
 2717SOL    HW1 9571   5.772   0.658   4.935  1.7797  3.3073 -1.4621
 2717SOL    HW2 9572   5.786   0.718   5.073 -0.1215  0.4042  0.0912
 2718SOL     OW 9573   6.992   5.874   3.970 -0.1004 -0.5599  0.6681
 2718SOL    HW1 9574   7.020   5.950   3.919  0.7547 -0.3656  1.3997
 2718SOL    HW2 9575   7.073   5.826   3.986 -0.6015 -1.5197  0.4058
 2719SOL     OW 9576   6.471   1.757   0.081 -0.0300  0.3218 -0.2812
 2719SOL    HW1 9577   6.530   1.824   0.046  1.6584 -1.4710 -1.0327
 2719SOL    HW2 9578   6.514   1.724   0.160  0.5777 -1.7439 -1.4071
 2720SOL     OW 9579   7.836   3.252   6.555  0.4054  0.1735 -0.6129
 2720SOL    HW1 9580   7.816   3.223   6.466 -1.2898 -0.2599 -0.1313
 2720SOL    HW2 9581   7.895   3.185   6.589 -0.7958 -0.9503 -0.6575
 2721SOL     OW 9582   6.316   6.340   7.268 -0.4709 -0.5826  0.0768
 2721SOL    HW1 9583   6.231   6.298   7.276 -1.0077  0.2297 -0.9961
 2721SOL    HW2 9584   6.302   6.428   7.304 -0.3840 -0.1051 -1.0141
 2722SOL     OW 9585   3.834   4.153   8.307  0.1987  0.0599 -0.2019
 2722SOL    HW1 9586   3.751   4.105   8.304  0.1055  0.2265 -0.2995
 2722SOL    HW2 9587   3.831   4.202   8.388  0.5080 -0.4804  0.1414
 2723SOL     OW 9588   6.566   3.506   5.523 -0.3472  0.6460  0.1318
 2723SOL    HW1 9589   6.571   3.591   5.567 -2.7199  0.6389  0.5604
 2723SOL    HW2 9590   6.547   3.444   5.593 -1.0591  0.1536 -0.4765
 2724SOL     OW 9591   1.735   2.475   6.401 -0.1429  0.0392 -0.1806
 2724SOL    HW1 9592   1.754   2.554   6.451 -1.2212  0.0448  0.2405
 2724SOL    HW2 9593   1.735   2.503   6.310 -0.1375  0.4409 -0.0569
 2725SOL     OW 9594   2.733   6.681   4.520 -0.2114 -0.2921 -0.0966
 2725SOL    HW1 9595   2.772   6.617   4.580  0.4746  0.3308  0.1472
 2725SOL    HW2 9596   2.695   6.629   4.449  0.6572 -0.9508 -0.0908
 2726SOL     OW 9597   5.474   7.790   0.347 -0.0277 -0.2232 -0.1988
 2726SOL    HW1 9598   5.416   7.714   0.342  0.6112 -0.9230  1.9165
 2726SOL    HW2 9599   5.549   7.759   0.397  0.8762  1.4568 -0.4347
 2727SOL     OW 9600   6.265   1.382   5.519 -0.1264  0.6070  0.0466
 2727SOL    HW1 9601   6.278   1.291   5.547 -0.7034  0.5801  0.2450
 2727SOL    HW2 9602   6.182   1.380   5.470 -0.1466  1.0303  0.0637
 2728SOL     OW 9603   4.766   1.440   1.044 -0.0498  0.1711 -0.1659
 2728SOL    HW1 9604   4.795   1.463   0.956  1.1618 -1.7847 -0.3432
 2728SOL    HW2 9605   4.847   1.436   1.095 -0.7364  1.3104  1.0846
 2729SOL     OW 9606   6.334   6.289   0.704  0.1230 -0.5866  0.3349
 2729SOL    HW1 9607   6.352   6.360   0.642 -0.5241  0.6907  1.5601
 2729SOL    HW2 9608   6.241   6.270   0.691 -0.8086  1.6847  2.7987
 2730SOL     OW 9609   2.391   3.378   2.890 -0.3868  0.0637  0.3759
 2730SOL    HW1 9610   2.343   3.324   2.826 -0.1163  1.2429 -0.8491
 2730SOL    HW2 9611   2.324   3.434   2.929 -0.2852  0.5307 -0.1131
 2731SOL     OW 9612   7.974   5.307   0.646 -0.0793 -0.3110 -0.1009
 2731SOL    HW1 9613   8.001   5.398   0.659  1.1747 -0.8766  1.7296
 2731SOL    HW2 9614   7.883   5.313   0.616 -0.0082  1.5389 -0.0583
 2732SOL     OW 9615   0.469   2.927   2.540 -0.2172 -0.3759 -0.2912
 2732SOL    HW1 9616   0.550   2.876   2.543  1.0597  1.4819 -0.6571
 2732SOL    HW2 9617   0.449   2.946   2.632  1.1205  1.0608 -0.2502
 2733SOL     OW 9618   3.860   7.875   4.482  0.7104 -0.0256  0.4706
 2733SOL    HW1 9619   3.813   7.958   4.475  1.5340  0.4236  0.1012
 2733SOL    HW2 9620   3.814   7.816   4.423  0.6173  0.4057  0.1082
 2734SOL     OW 9621   3.880   3.804   5.414 -0.1208 -0.2844  0.3071
 2734SOL    HW1 9622   3.950   3.739   5.420  0.6179  0.4102 -0.5816
 2734SOL    HW2 9623   3.800   3.752   5.406  0.4942 -1.0972 -0.8253
 2735SOL     OW 9624   2.669   6.613   7.386  0.7104 -0.2157  0.2531
 2735SOL    HW1 9625   2.701   6.548   7.449 -0.4251  0.4970  1.6039
 2735SOL    HW2 9626   2.725   6.600   7.309  1.2320 -2.0444  0.8752
 2736SOL     OW 9627   6.858   5.054   6.784  0.8217 -0.0559  0.3856
 2736SOL    HW1 9628   6.792   5.017   6.726 -1.1503  3.1374  0.3376
 2736SOL    HW2 9629   6.808   5.095   6.855  2.9493 -0.0346  1.9832
 2737SOL     OW 9630   0.674   0.900   0.524 -0.5144  0.3156  0.0442
 2737SOL    HW1 9631   0.611   0.832   0.500 -1.3442  0.5714  1.4029
 2737SOL    HW2 9632   0.695   0.943   0.441  0.1266 -1.6404 -0.8604
 2738SOL     OW 9633   2.442   7.194   1.947  0.2473 -0.7492  0.2653
 2738SOL    HW1 9634   2.485   7.147   1.876 -2.7967 -1.0374 -1.5487
 2738SOL    HW2 9635   2.420   7.126   2.011 -0.2566 -1.0990 -0.2744
 2739SOL     OW 9636   0.761   5.711   0.282 -0.1015 -0.3768 -0.2177
 2739SOL    HW1 9637   0.815   5.646   0.327 -0.2723 -1.1372 -1.0859
 2739SOL    HW2 9638   0.812   5.792   0.288  0.6319 -0.8352 -0.0626
 2740SOL     OW 9639   6.391   3.027   5.645  0.3336  0.4404 -0.1235
 2740SOL    HW1 9640   6.412   2.941   5.681  0.2449 -0.6554 -2.4826
 2740SOL    HW2 9641   6.474   3.074   5.643  0.8250 -0.4421 -0.8743
 2741SOL     OW 9642   8.252   1.917   1.243  0.3612  0.1343  0.3963
 2741SOL    HW1 9643   8.331   1.958   1.278  0.7166 -0.3224  0.1418
 2741SOL    HW2 9644   8.278   1.826   1.227 -0.5598 -0.3377  1.4520
 2742SOL     OW 9645   1.219   1.974   5.113  0.0581 -0.1292  0.0447
 2742SOL    HW1 9646   1.300   1.926   5.095  0.5447 -0.1556  2.0580
 2742SOL    HW2 9647   1.243   2.066   5.100 -0.3435 -0.2757 -1.9258
 2743SOL     OW 9648   6.682   0.533   5.898  0.2087 -0.0418 -0.0776
 2743SOL    HW1 9649   6.678   0.494   5.811 -0.3532  0.7201 -0.4052
 2743SOL    HW2 9650   6.776   0.542   5.916  0.4012 -2.3174  0.3939
 2744SOL     OW 9651   7.386   8.241   5.904  0.1082  1.0135  0.2375
 2744SOL    HW1 9652   7.306   8.208   5.944  0.6204 -0.2337  0.2689
 2744SOL    HW2 9653   7.357   8.316   5.851 -1.1437  0.3346 -0.0787
 2745SOL     OW 9654   4.760   3.271   5.140  0.1657  0.2448  0.4809
 2745SOL    HW1 9655   4.836   3.220   5.114 -0.5069 -0.0589 -0.9884
 2745SOL    HW2 9656   4.687   3.233   5.091 -0.6779  1.4565  0.7369
 2746SOL     OW 9657   7.262   2.211   5.943 -0.5005 -0.1069 -0.0236
 2746SOL    HW1 9658   7.217   2.233   6.025  2.4718  1.2749  1.3906
 2746SOL    HW2 9659   7.284   2.296   5.905 -1.5269 -0.7310 -2.1784
 2747SOL     OW 9660   7.570   0.740   7.638 -0.2041 -0.2868 -0.5069
 2747SOL    HW1 9661   7.577   0.646   7.658 -0.9461 -0.6174 -1.7280
 2747SOL    HW2 9662   7.633   0.754   7.568  0.0378  0.1836 -0.2024
 2748SOL     OW 9663   2.414   2.410   0.871 -0.5297 -0.0213 -0.1542
 2748SOL    HW1 9664   2.404   2.376   0.782 -0.6142  0.2388 -0.2444
 2748SOL    HW2 9665   2.339   2.470   0.883 -0.3762  0.1413 -0.0012
 2749SOL     OW 9666   4.377   6.943   1.041  0.3044  0.2360 -0.0094
 2749SOL    HW1 9667   4.352   6.936   1.133 -1.0668  1.8354 -0.1993
 2749SOL    HW2 9668   4.472   6.931   1.040  0.3227  0.0501  1.5770
 2750SOL     OW 9669   7.950   4.484   5.838 -0.0168 -0.5364  0.4452
 2750SOL    HW1 9670   7.889   4.431   5.890 -1.1894  0.8545  0.5386
 2750SOL    HW2 9671   8.037   4.447   5.859 -0.8509 -3.3802 -0.6696
 2751SOL     OW 9672   5.243   0.195   8.106 -0.0924 -0.1923  0.3279
 2751SOL    HW1 9673   5.260   0.205   8.012 -0.6621 -3.0355 -0.1601
 2751SOL    HW2 9674   5.325   0.163   8.143 -0.4752 -1.1673  0.3704
 2752SOL     OW 9675   3.909   2.966   4.270 -0.4065 -0.0215 -0.1645
 2752SOL    HW1 9676   3.903   3.040   4.331  0.0739 -0.7301  0.7669
 2752SOL    HW2 9677   3.864   2.894   4.315  0.2837 -0.6602 -0.4830
 2753SOL     OW 9678   1.282   4.138   0.801  0.0780  0.0306  0.9379
 2753SOL    HW1 9679   1.248   4.055   0.767 -0.0078 -0.3620  1.9516
 2753SOL    HW2 9680   1.350   4.163   0.738  1.6348 -1.9399  1.7245
 2754SOL     OW 9681   1.906   0.136   4.494  0.0275  0.3718 -0.1965
 2754SOL    HW1 9682   1.887   0.048   4.460 -1.8226  0.9210 -0.6959
 2754SOL    HW2 9683   1.966   0.121   4.566  0.2036 -1.2591 -0.6391
 2755SOL     OW 9684   1.104   7.531   7.246 -0.6790 -0.3406 -0.5478
 2755SOL    HW1 9685   1.139   7.544   7.334  0.3916  0.7403 -1.1072
 2755SOL    HW2 9686   1.108   7.437   7.232 -1.0223 -0.5426  0.6173
 2756SOL     OW 9687   2.309   3.258   5.733 -0.3561 -0.1339 -0.0777
 2756SOL    HW1 9688   2.288   3.349   5.756  3.3253  0.6822  0.5911
 2756SOL    HW2 9689   2.249   3.206   5.787 -3.0124  1.8118 -0.9506
 2757SOL     OW 9690   2.837   7.228   4.529 -0.5198  0.1046 -0.3286
 2757SOL    HW1 9691   2.904   7.226   4.460  1.6293 -1.3461  1.6341
 2757SOL    HW2 9692   2.783   7.151   4.511  0.7902 -0.9850  0.2526
 2758SOL     OW 9693   4.508   7.707   4.997 -0.1187 -0.0742  0.3417
 2758SOL    HW1 9694   4.517   7.801   4.983 -0.5537 -0.3797 -2.4614
 2758SOL    HW2 9695   4.422   7.686   4.961  1.2469 -1.9815 -2.0715
 2759SOL     OW 9696   7.661   5.242   2.369  0.3552 -0.4341  1.0529
 2759SOL    HW1 9697   7.711   5.199   2.300  1.1791  0.4407  1.0897
 2759SOL    HW2 9698   7.571   5.211   2.355  0.4476 -0.0698 -0.5881
 2760SOL     OW 9699   2.146   0.813   3.097 -0.2661 -0.8609 -0.1333
 2760SOL    HW1 9700   2.211   0.806   3.027 -0.3589 -3.2055 -0.0693
 2760SOL    HW2 9701   2.189   0.775   3.174 -0.0757  1.8809  1.2362
 2761SOL     OW 9702   3.667   1.010   4.976 -0.4253 -0.1019 -0.4174
 2761SOL    HW1 9703   3.656   0.925   4.934 -1.7918  1.0857 -2.6784
 2761SOL    HW2 9704   3.761   1.026   4.975 -0.2578 -1.0822 -1.0620
 2762SOL     OW 9705   3.492   3.062   4.166  0.2960  0.2177  0.4259
 2762SOL    HW1 9706   3.517   2.970   4.154 -1.5551 -0.3635  0.7693
 2762SOL    HW2 9707   3.490   3.098   4.077 -0.5880 -0.5372  0.1224
 2763SOL     OW 9708   1.978   0.317   4.817  0.1135 -0.3221 -0.0040
 2763SOL    HW1 9709   2.023   0.251   4.765 -0.7735  0.0996 -1.3648
 2763SOL    HW2 9710   1.934   0.268   4.887  1.8983 -0.8226  0.8315
 2764SOL     OW 9711   5.156   5.646   4.456  0.5167 -0.2446  0.7540
 2764SOL    HW1 9712   5.060   5.646   4.449  0.4133 -0.0313  1.8584
 2764SOL    HW2 9713   5.186   5.700   4.383 -0.2948  0.8318  1.1991
 2765SOL     OW 9714   0.340   1.796   3.711 -0.2699  0.1441 -0.1799
 2765SOL    HW1 9715   0.426   1.757   3.697 -0.8104 -1.3444  0.4547
 2765SOL    HW2 9716   0.295   1.785   3.628  0.3926  1.6822 -0.7899
 2766SOL     OW 9717   6.742   3.771   4.843 -0.5091 -0.1665 -0.1601
 2766SOL    HW1 9718   6.764   3.812   4.927 -0.7092  1.8222 -1.0222
 2766SOL    HW2 9719   6.744   3.843   4.780 -2.4097 -1.2176 -1.5195
 2767SOL     OW 9720   4.401   0.570   4.606  0.0747 -0.0377 -0.2738
 2767SOL    HW1 9721   4.466   0.639   4.597 -0.2245  0.2871  0.0388
 2767SOL    HW2 9722   4.372   0.575   4.697 -1.1477  0.5217 -0.6665
 2768SOL     OW 9723   2.751   7.071   2.079  0.2471 -0.3301 -0.2216
 2768SOL    HW1 9724   2.690   7.144   2.089 -0.0068 -0.6927  1.0119
 2768SOL    HW2 9725   2.723   7.028   1.998  0.1568  0.7010 -0.7525
 2769SOL     OW 9726   1.439   6.483   7.523  0.1186 -0.3912 -0.4494
 2769SOL    HW1 9727   1.454   6.445   7.436  0.3466  1.2078 -1.1546
 2769SOL    HW2 9728   1.433   6.408   7.582  1.9381 -1.4398 -1.5258
 2770SOL     OW 9729   1.887   0.532   5.047  0.0048 -0.1532  0.2683
 2770SOL    HW1 9730   1.929   0.506   4.965 -0.2648  0.4254 -0.0599
 2770SOL    HW2 9731   1.917   0.621   5.063 -1.2160  0.3343 -0.0635
 2771SOL     OW 9732   3.571   6.281   0.246  0.0197  0.4799  0.7009
 2771SOL    HW1 9733   3.578   6.252   0.155  0.0841  1.2862  0.4408
 2771SOL    HW2 9734   3.659   6.310   0.269  0.2981 -0.8339  1.4245
 2772SOL     OW 9735   5.386   3.961   4.917 -0.1609 -0.4875 -0.1358
 2772SOL    HW1 9736   5.400   4.013   4.838  1.9959 -2.6718 -1.3323
 2772SOL    HW2 9737   5.329   3.889   4.889  0.8434 -1.4384  0.1734
 2773SOL     OW 9738   6.819   6.139   3.974  0.0407  0.1867  0.2952
 2773SOL    HW1 9739   6.735   6.101   3.946  0.3401 -0.2479 -0.0218
 2773SOL    HW2 9740   6.797   6.187   4.054 -0.8788  1.7351 -0.8494
 2774SOL     OW 9741   1.409   3.490   6.865 -0.0700 -0.0440 -0.2023
 2774SOL    HW1 9742   1.445   3.576   6.845  0.2306 -0.1149  0.0215
 2774SOL    HW2 9743   1.314   3.502   6.862 -0.0274  0.1272 -0.8653
 2775SOL     OW 9744   5.736   3.971   2.007 -0.0641 -0.8585 -0.2315
 2775SOL    HW1 9745   5.800   4.041   1.993  1.1824 -2.0057 -0.4531
 2775SOL    HW2 9746   5.704   3.951   1.919 -1.7657  0.5992 -0.0045
 2776SOL     OW 9747   8.201   8.099   1.066 -0.4453  0.0147  0.2374
 2776SOL    HW1 9748   8.166   8.020   1.107  0.4900 -1.2987 -1.3531
 2776SOL    HW2 9749   8.178   8.170   1.126 -1.3797 -1.4448  1.6834
 2777SOL     OW 9750   7.168   3.672   6.869 -0.2922  0.1684 -0.7977
 2777SOL    HW1 9751   7.167   3.762   6.902  1.6988 -0.1258  0.2003
 2777SOL    HW2 9752   7.075   3.649   6.858 -1.1469  0.6837  3.6063
 2778SOL     OW 9753   7.568   0.638   1.952  0.0608  0.3587 -0.0889
 2778SOL    HW1 9754   7.570   0.560   1.896  1.8035  0.1404  0.2290
 2778SOL    HW2 9755   7.501   0.619   2.017 -1.8783  0.5279 -1.9165
 2779SOL     OW 9756   1.999   6.646   3.907 -0.3976  0.4836 -0.0871
 2779SOL    HW1 9757   2.056   6.713   3.944 -0.2899 -0.4014  1.4515
 2779SOL    HW2 9758   2.056   6.571   3.892 -0.8017  0.2041 -0.2644
 2780SOL     OW 9759   1.134   6.148   0.501 -0.2275 -0.6378  0.4277
 2780SOL    HW1 9760   1.207   6.160   0.440 -0.1986 -0.3305  0.5212
 2780SOL    HW2 9761   1.144   6.220   0.564 -0.9034 -0.3104  0.1593
 2781SOL     OW 9762   0.431   3.207   8.194 -0.0398  0.2499  0.0778
 2781SOL    HW1 9763   0.438   3.302   8.202 -0.3255  0.2029  1.0010
 2781SOL    HW2 9764   0.465   3.188   8.106 -1.3012  1.3327 -0.6858
 2782SOL     OW 9765   0.372   2.321   1.601  0.3323  0.0141  0.0826
 2782SOL    HW1 9766   0.400   2.317   1.509 -1.0376  1.4690 -0.4375
 2782SOL    HW2 9767   0.281   2.293   1.599  0.1757  0.4440  0.9486
 2783SOL     OW 9768   4.711   7.495   7.804  0.1284 -0.0186  0.8383
 2783SOL    HW1 9769   4.665   7.418   7.773 -0.9716  1.7482 -2.4415
 2783SOL    HW2 9770   4.804   7.473   7.795 -0.1485 -1.3107  1.0502
 2784SOL     OW 9771   5.401   2.718   3.278  0.3049 -0.4000 -0.8034
 2784SOL    HW1 9772   5.488   2.701   3.242  1.8908  1.3781  1.8734
 2784SOL    HW2 9773   5.384   2.810   3.257 -1.1106 -0.7853 -1.4994
 2785SOL     OW 9774   4.641   5.135   7.519 -0.1074 -0.2474  0.4974
 2785SOL    HW1 9775   4.577   5.199   7.549 -0.6109 -1.0548  1.1979
 2785SOL    HW2 9776   4.644   5.146   7.424  2.1342  2.9739  0.7741
 2786SOL     OW 9777   6.275   0.843   6.290  0.2875 -0.3572  0.1905
 2786SOL    HW1 9778   6.289   0.891   6.372  2.6236  2.9881 -1.8827
 2786SOL    HW2 9779   6.362   0.811   6.266  0.1211  0.6039 -1.9357
 2787SOL     OW 9780   6.336   5.671   6.047  0.3672 -0.3241 -0.5350
 2787SOL    HW1 9781   6.351   5.713   5.963  1.1972  0.0128 -0.2365
 2787SOL    HW2 9782   6.246   5.691   6.069  0.5623  0.7767 -0.6917
 2788SOL     OW 9783   0.624   6.604   6.818  0.3043 -0.0670 -0.0977
 2788SOL    HW1 9784   0.555   6.562   6.767  1.2409 -1.9342  0.0758
 2788SOL    HW2 9785   0.616   6.697   6.797 -2.6348 -0.0998  0.4028
 2789SOL     OW 9786   5.959   2.629   7.219  0.5138  0.1156 -0.0256
 2789SOL    HW1 9787   5.927   2.617   7.309  1.2020 -1.5332  0.0206
 2789SOL    HW2 9788   5.922   2.714   7.193  0.2232  0.5991  1.7725
 2790SOL     OW 9789   0.421   1.092   4.796  0.4797 -0.1564 -0.2285
 2790SOL    HW1 9790   0.402   1.186   4.805  1.3161 -0.0212  0.2998
 2790SOL    HW2 9791   0.516   1.086   4.810  0.2824 -1.2068  0.8570
 2791SOL     OW 9792   5.823   4.005   3.639 -0.4972  0.0339  0.3306
 2791SOL    HW1 9793   5.754   4.004   3.573  0.7779  1.7996 -1.1459
 2791SOL    HW2 9794   5.792   3.945   3.707 -2.3809 -1.0217 -1.3341
 2792SOL     OW 9795   7.384   7.617   8.224  0.1838  0.1368 -0.2363
 2792SOL    HW1 9796   7.434   7.568   8.289  1.0516  0.2126 -0.8323
 2792SOL    HW2 9797   7.338   7.550   8.173 -1.4615  0.1297  1.1947
 2793SOL     OW 9798   1.272   2.544   7.124  0.2026  0.6142  0.5895
 2793SOL    HW1 9799   1.337   2.510   7.062  1.8485  2.7522  1.0256
 2793SOL    HW2 9800   1.254   2.469   7.182  0.1238 -0.8335 -1.2222
 2794SOL     OW 9801   7.796   1.995   2.185  0.8390  0.6953  1.1341
 2794SOL    HW1 9802   7.821   1.976   2.094 -0.4653  1.9263  0.4708
 2794SOL    HW2 9803   7.783   1.910   2.225 -2.0511  0.0380 -0.8869
 2795SOL     OW 9804   0.227   4.108   7.563  0.4330  0.3809 -0.2563
 2795SOL    HW1 9805   0.201   4.030   7.612 -2.2984  1.4326  0.1433
 2795SOL    HW2 9806   0.237   4.078   7.473  1.1300 -0.7143  0.1620
 2796SOL     OW 9807   0.843   1.385   5.837 -0.1463  0.5915 -0.0241
 2796SOL    HW1 9808   0.910   1.426   5.892  1.8545 -0.2556 -1.6562
 2796SOL    HW2 9809   0.794   1.329   5.897  1.3714  0.3780  1.0798
 2797SOL     OW 9810   5.727   7.087   7.660 -0.2574  0.0649  0.2706
 2797SOL    HW1 9811   5.764   7.173   7.644 -1.9087  0.7259 -0.2619
 2797SOL    HW2 9812   5.646   7.104   7.709  0.0889 -1.2948  1.3814
 2798SOL     OW 9813   7.245   5.405   4.742 -0.0753 -0.1349  0.3422
 2798SOL    HW1 9814   7.151   5.401   4.761 -0.4328 -1.2144 -1.4714
 2798SOL    HW2 9815   7.270   5.315   4.723  1.7901 -0.1893  2.6104
 2799SOL     OW 9816   3.836   3.607   5.738 -0.3652 -0.0491 -0.1157
 2799SOL    HW1 9817   3.790   3.670   5.682 -1.4111  0.3265  1.1217
 2799SOL    HW2 9818   3.780   3.599   5.815  0.6173 -1.2092  0.4973
 2800SOL     OW 9819   4.746   3.515   7.741 -0.2943 -0.3090  0.6500
 2800SOL    HW1 9820   4.728   3.429   7.777 -1.0596 -1.0129 -1.2934
 2800SOL    HW2 9821   4.698   3.576   7.798 -0.2527 -1.2011  1.6625
 2801SOL     OW 9822   6.319   8.294   2.679 -0.2246 -0.3268 -0.9135
 2801SOL    HW1 9823   6.368   8.212   2.676 -0.9565 -0.7823 -0.6563
 2801SOL    HW2 9824   6.386   8.362   2.685  0.3616 -0.9784  0.1951
 2802SOL     OW 9825   8.246   0.727   6.982 -0.2678  0.5446 -0.2421
 2802SOL    HW1 9826   8.257   0.792   6.912  0.0997 -0.6384 -1.3078
 2802SOL    HW2 9827   8.244   0.643   6.938 -1.6975 -0.1577  1.0236
 2803SOL     OW 9828   8.193   5.167   0.637 -0.3508  0.3399  0.4884
 2803SOL    HW1 9829   8.107   5.207   0.650 -1.9258 -1.9783 -1.8237
 2803SOL    HW2 9830   8.216   5.189   0.547  0.5385 -0.7067  0.4483
 2804SOL     OW 9831   2.615   3.285   0.400 -0.5862  0.0283  0.4227
 2804SOL    HW1 9832   2.686   3.310   0.459 -0.2162 -0.9717  0.4209
 2804SOL    HW2 9833   2.607   3.190   0.410 -1.4922  0.0388 -0.0592
 2805SOL     OW 9834   2.746   4.228   5.379 -0.2458  0.6568  0.1921
 2805SOL    HW1 9835   2.740   4.189   5.467 -2.1362  0.5746  0.0816
 2805SOL    HW2 9836   2.839   4.232   5.360  0.3076  1.8760  2.7393
 2806SOL     OW 9837   4.578   3.845   5.756 -0.1636  0.6113 -0.4440
 2806SOL    HW1 9838   4.535   3.861   5.672  1.0057  1.3010 -0.9449
 2806SOL    HW2 9839   4.507   3.825   5.816 -0.8822 -2.4325 -2.0935
 2807SOL     OW 9840   1.403   3.669   0.426 -0.0449 -0.9236  0.2509
 2807SOL    HW1 9841   1.319   3.638   0.392 -1.3052  0.3692  2.0112
 2807SOL    HW2 9842   1.426   3.607   0.496  0.1176 -0.8524  0.2624
 2808SOL     OW 9843   1.685   4.675   1.954 -0.5707  0.2353 -0.2009
 2808SOL    HW1 9844   1.675   4.615   2.028 -2.3572 -0.7525 -1.1866
 2808SOL    HW2 9845   1.753   4.736   1.983 -2.0659  0.7128  2.8217
 2809SOL     OW 9846   8.072   5.035   1.635  0.0087 -0.0540 -0.0914
 2809SOL    HW1 9847   8.109   4.951   1.607 -1.8369 -0.4085 -1.7531
 2809SOL    HW2 9848   8.037   5.073   1.554  0.8073  2.3443  0.6326
 2810SOL     OW 9849   2.197   3.302   1.156 -0.2104 -0.0449 -0.1369
 2810SOL    HW1 9850   2.252   3.247   1.100  1.7175  0.5127  1.1089
 2810SOL    HW2 9851   2.146   3.239   1.208  1.5057 -0.7365  0.8207
 2811SOL     OW 9852   8.288   2.354   7.238 -0.1384 -0.0426  0.3081
 2811SOL    HW1 9853   8.197   2.377   7.255 -0.1102 -0.7714  1.6558
 2811SOL    HW2 9854   8.290   2.259   7.247  0.6950 -0.0607 -0.0319
 2812SOL     OW 9855   1.925   1.500   0.097  0.3997 -0.5484 -0.2742
 2812SOL    HW1 9856   1.919   1.558   0.172  0.2362 -0.8228 -0.0715
 2812SOL    HW2 9857   2.009   1.520   0.057  0.2175  0.0281 -0.3762
 2813SOL     OW 9858   6.067   0.130   6.198 -0.4066  0.2168  0.5633
 2813SOL    HW1 9859   6.093   0.221   6.187  1.6821 -0.4612 -0.6655
 2813SOL    HW2 9860   5.981   0.124   6.156  0.5440  1.1156 -1.6255
 2814SOL     OW 9861   0.650   4.749   1.981  0.2617  0.7202 -0.0160
 2814SOL    HW1 9862   0.720   4.793   1.931  1.2363  0.1945  0.8584
 2814SOL    HW2 9863   0.671   4.768   2.072 -0.9317  0.8090  0.2525
 2815SOL     OW 9864   1.111   7.206   0.731 -1.0173 -0.1189 -0.1753
 2815SOL    HW1 9865   1.124   7.204   0.636 -1.4940 -0.2711 -0.2425
 2815SOL    HW2 9866   1.187   7.253   0.765 -0.9294  0.0871 -0.6471
 2816SOL     OW 9867   0.279   6.410   2.032 -0.4206  0.0548 -0.1640
 2816SOL    HW1 9868   0.372   6.397   2.013 -0.5866 -0.6294 -0.5451
 2816SOL    HW2 9869   0.267   6.504   2.027  0.1944  0.1296 -0.3893
 2817SOL     OW 9870   8.325   3.375   2.317 -0.4297 -0.0833  0.1515
 2817SOL    HW1 9871   8.406   3.353   2.363  0.5688  0.8021 -1.1371
 2817SOL    HW2 9872   8.353   3.402   2.230 -2.1732 -0.3812 -0.5396
 2818SOL     OW 9873   5.170   7.240   7.445  0.0350 -0.0711 -0.9502
 2818SOL    HW1 9874   5.158   7.324   7.401 -0.8001  0.1357 -0.3447
 2818SOL    HW2 9875   5.116   7.179   7.396 -0.3784  0.0210 -0.6116
 2819SOL     OW 9876   1.417   3.255   1.690 -0.4522 -0.5723  0.3854
 2819SOL    HW1 9877   1.369   3.185   1.646 -2.5401  0.7018  0.5133
 2819SOL    HW2 9878   1.396   3.334   1.640  2.2398 -0.0420 -0.0538
 2820SOL     OW 9879   6.289   7.919   4.785 -0.2566  0.3445 -0.0700
 2820SOL    HW1 9880   6.252   7.970   4.713 -1.8719  0.1244  0.5548
 2820SOL    HW2 9881   6.274   7.972   4.863  0.8185  0.2559  0.2192
 2821SOL     OW 9882   0.166   7.905   2.431 -0.0168  0.0392 -0.3988
 2821SOL    HW1 9883   0.220   7.846   2.484  1.9704  0.0711 -2.1981
 2821SOL    HW2 9884   0.152   7.982   2.486 -0.9971 -1.2773  1.2797
 2822SOL     OW 9885   7.590   6.461   6.093 -0.3382  0.3869  0.3927
 2822SOL    HW1 9886   7.607   6.505   6.176 -0.9245 -0.3392  0.9111
 2822SOL    HW2 9887   7.647   6.506   6.030  0.1204  0.9389  1.1805
 2823SOL     OW 9888   3.187   5.781   4.427 -0.0872  0.0120  0.0898
 2823SOL    HW1 9889   3.180   5.789   4.332  0.2495 -0.5678  0.0052
 2823SOL    HW2 9890   3.254   5.713   4.439  0.6396  0.8314  0.7517
 2824SOL     OW 9891   5.158   3.377   4.178 -0.6207  0.4507  0.4574
 2824SOL    HW1 9892   5.148   3.467   4.148  1.1719  0.6295  0.2847
 2824SOL    HW2 9893   5.109   3.373   4.260  0.1654  1.9182  1.0415
 2825SOL     OW 9894   4.332   4.235   4.830  0.5400  0.1890  0.0750
 2825SOL    HW1 9895   4.383   4.176   4.775  0.5150  0.1895  0.0515
 2825SOL    HW2 9896   4.242   4.208   4.818  0.5855 -0.1889  0.5602
 2826SOL     OW 9897   6.089   3.903   4.536 -0.1986  0.2089  0.4495
 2826SOL    HW1 9898   6.124   3.855   4.611 -1.0283  0.1936  0.8477
 2826SOL    HW2 9899   6.066   3.989   4.572  1.1424  0.8651 -0.2209
 2827SOL     OW 9900   5.433   5.527   5.902  0.2292 -0.3141 -0.4934
 2827SOL    HW1 9901   5.380   5.595   5.943 -1.0748 -0.4038 -1.9230
 2827SOL    HW2 9902   5.399   5.445   5.938  0.8753 -0.2857  0.2012
 2828SOL     OW 9903   4.951   6.905   8.320  0.3909  0.0042  0.3696
 2828SOL    HW1 9904   4.969   6.931   8.229  0.4732  0.4178  0.5013
 2828SOL    HW2 9905   4.937   6.810   8.316  1.6523 -0.1804  0.1282
 2829SOL     OW 9906   4.630   0.328   3.946  0.0096 -0.3223  0.0508
 2829SOL    HW1 9907   4.624   0.412   3.992 -3.3691 -1.2678  1.6011
 2829SOL    HW2 9908   4.568   0.336   3.873 -2.0512 -2.1180  1.4941
 2830SOL     OW 9909   3.724   6.298   3.027 -0.1978  0.3359  0.0694
 2830SOL    HW1 9910   3.767   6.220   2.992  1.8544  1.0214  0.8527
 2830SOL    HW2 9911   3.701   6.350   2.950 -0.9723 -0.7126 -0.4282
 2831SOL     OW 9912   3.630   4.873   2.494 -0.6033  0.1455 -0.0506
 2831SOL    HW1 9913   3.621   4.816   2.418 -0.2712  1.1462 -0.8696
 2831SOL    HW2 9914   3.562   4.844   2.555 -0.4336 -1.1100 -0.4329
 2832SOL     OW 9915   0.363   2.081   2.252 -0.4135  0.3881 -0.1836
 2832SOL    HW1 9916   0.325   2.154   2.203  0.6187  0.8974 -0.2655
 2832SOL    HW2 9917   0.456   2.083   2.229 -0.3673 -0.9800 -0.2053
 2833SOL     OW 9918   1.865   3.853   2.125  0.1303  0.0466 -0.0411
 2833SOL    HW1 9919   1.935   3.820   2.182  0.7788  0.0280 -0.8467
 2833SOL    HW2 9920   1.803   3.779   2.120  0.7940 -0.4869 -0.5463
 2834SOL     OW 9921   2.394   2.528   5.831 -0.0905 -0.1175 -0.0489
 2834SOL    HW1 9922   2.328   2.465   5.861 -0.3653  1.1202  2.1441
 2834SOL    HW2 9923   2.346   2.585   5.771 -0.2722 -0.9470 -0.7091
 2835SOL     OW 9924   2.954   0.906   3.389  0.5267 -0.2777  0.4400
 2835SOL    HW1 9925   2.959   0.931   3.481  0.1294  0.4235  0.2715
 2835SOL    HW2 9926   3.026   0.954   3.347  0.8640 -0.7875  0.4187
 2836SOL     OW 9927   2.810   0.031   4.770  0.6539  0.2127  0.3024
 2836SOL    HW1 9928   2.734  -0.020   4.743  0.4859  0.1070  0.9605
 2836SOL    HW2 9929   2.880   0.001   4.712  0.3332 -0.1004  0.0732
 2837SOL     OW 9930   5.825   5.139   1.403  0.0615  0.1604 -0.2795
 2837SOL    HW1 9931   5.764   5.139   1.330  0.6668  0.4995 -0.7935
 2837SOL    HW2 9932   5.876   5.220   1.392  0.2439  0.1493  0.4387
 2838SOL     OW 9933   8.136   2.405   6.832 -0.0012 -0.4910  0.5922
 2838SOL    HW1 9934   8.118   2.471   6.899 -0.9047  0.5834 -0.6517
 2838SOL    HW2 9935   8.051   2.387   6.793  0.5685 -0.7288 -0.5912
 2839SOL     OW 9936   2.255   1.175   7.319  0.0807 -0.3088 -0.5490
 2839SOL    HW1 9937   2.232   1.224   7.240 -0.0288 -1.7666 -1.4599
 2839SOL    HW2 9938   2.185   1.111   7.330 -0.0989  0.1051  0.9605
 2840SOL     OW 9939   3.405   6.997   0.552  0.0009 -0.0256 -0.0386
 2840SOL    HW1 9940   3.321   6.962   0.581 -0.2282  0.6138  0.0955
 2840SOL    HW2 9941   3.427   6.945   0.475  0.2509 -1.2436  0.8158
 2841SOL     OW 9942   5.139   7.178   6.946 -0.1788  0.2755 -0.4644
 2841SOL    HW1 9943   5.162   7.241   7.014  0.7212 -0.2323 -0.2691
 2841SOL    HW2 9944   5.045   7.190   6.932 -0.1235  1.2793 -0.0578
 2842SOL     OW 9945   5.493   1.553   5.641 -0.2372  0.0567  0.2878
 2842SOL    HW1 9946   5.462   1.630   5.689 -1.9005 -1.1295  1.2412
 2842SOL    HW2 9947   5.587   1.567   5.631 -0.0328  0.9830  2.8033
 2843SOL     OW 9948   2.268   0.222   3.175  0.4432 -0.7385 -0.2884
 2843SOL    HW1 9949   2.338   0.267   3.223  0.4765 -1.6866  0.5994
 2843SOL    HW2 9950   2.188   0.248   3.222  0.2105  0.1621 -1.1602
 2844SOL     OW 9951   5.291   1.904   3.517  0.0623 -0.1698 -0.2852
 2844SOL    HW1 9952   5.202   1.927   3.542 -0.4915 -2.4192 -0.0632
 2844SOL    HW2 9953   5.286   1.883   3.424  0.5680  0.5448 -0.4891
 2845SOL     OW 9954   6.714   1.926   0.117  0.1275  0.0251 -0.1512
 2845SOL    HW1 9955   6.686   2.002   0.066  1.1389  0.6219  0.1608
 2845SOL    HW2 9956   6.768   1.876   0.056  1.0943  0.5884  0.2200
 2846SOL     OW 9957   2.871   0.908   5.402 -0.7108 -0.2850 -0.4879
 2846SOL    HW1 9958   2.870   0.984   5.344  0.4443 -0.4424 -0.7390
 2846SOL    HW2 9959   2.926   0.844   5.357  1.4149  0.1069  1.3771
 2847SOL     OW 9960   2.572   0.343   1.433 -0.3045 -0.5671 -0.4751
 2847SOL    HW1 9961   2.612   0.271   1.481  0.1436  1.0789  1.7505
 2847SOL    HW2 9962   2.578   0.418   1.492 -1.9012  1.0132 -2.1907
 2848SOL     OW 9963   4.263   0.653   7.305 -0.0947 -0.1317 -0.8776
 2848SOL    HW1 9964   4.175   0.646   7.270  0.2702  1.0929 -2.1314
 2848SOL    HW2 9965   4.263   0.597   7.383 -1.1474 -2.3721 -2.3947
 2849SOL     OW 9966   3.962   1.773   5.451 -0.0568  0.0216  0.0114
 2849SOL    HW1 9967   4.038   1.719   5.430  1.6624  3.0131 -2.2985
 2849SOL    HW2 9968   3.925   1.733   5.530  5.4169 -0.1970  2.8961
 2850SOL     OW 9969   6.267   0.676   4.621  0.4339 -0.1110 -0.4790
 2850SOL    HW1 9970   6.286   0.758   4.667 -0.5003  0.6184 -1.3474
 2850SOL    HW2 9971   6.224   0.621   4.687 -1.9071  1.3237 -0.6786
 2851SOL     OW 9972   5.447   5.323   4.463 -0.0945  0.3176 -1.0585
 2851SOL    HW1 9973   5.408   5.352   4.545  1.9939 -0.7092  0.3947
 2851SOL    HW2 9974   5.516   5.387   4.445  2.3907 -1.7962  0.4406
 2852SOL     OW 9975   0.222   3.350   4.197 -0.3092  0.1136 -0.0689
 2852SOL    HW1 9976   0.175   3.371   4.278 -2.3106 -3.0713 -0.2284
 2852SOL    HW2 9977   0.238   3.256   4.202  1.4265  0.1745 -2.4889
 2853SOL     OW 9978   4.857   2.532   3.859  0.0527  0.1591 -0.4806
 2853SOL    HW1 9979   4.773   2.558   3.896 -0.9771 -2.4812 -0.7561
 2853SOL    HW2 9980   4.858   2.572   3.772  0.4692  2.6113  0.5651
 2854SOL     OW 9981   3.686   3.859   1.881 -0.0676 -0.1425 -0.1619
 2854SOL    HW1 9982   3.736   3.878   1.961 -0.2201 -2.2097  0.4722
 2854SOL    HW2 9983   3.601   3.829   1.913 -0.8704  0.9613 -1.1797
 2855SOL     OW 9984   2.923   0.565   8.096  0.1866  0.5236  0.4142
 2855SOL    HW1 9985   2.894   0.601   8.180  0.0989  0.8052  0.2627
 2855SOL    HW2 9986   2.993   0.623   8.068 -0.5168  1.0833 -0.2378
 2856SOL     OW 9987   3.468   6.456   0.421  0.9136 -0.0812  0.1913
 2856SOL    HW1 9988   3.539   6.520   0.420  1.0414 -0.2164 -0.8669
 2856SOL    HW2 9989   3.497   6.387   0.360 -0.0687 -0.1888 -0.1706
 2857SOL     OW 9990   1.448   3.445   0.592 -0.0517  0.0608  0.0869
 2857SOL    HW1 9991   1.468   3.445   0.685 -0.4953 -3.1471  0.2861
 2857SOL    HW2 9992   1.380   3.379   0.581 -1.1721  1.4731 -2.3357
 2858SOL     OW 9993   3.853   3.974   4.824  0.2213 -0.1683 -0.0803
 2858SOL    HW1 9994   3.808   3.890   4.810 -0.6027 -0.2745  2.6768
 2858SOL    HW2 9995   3.786   4.040   4.805 -0.7646 -0.3009  2.5996
 2859SOL     OW 9996   5.781   3.056   4.253 -0.0754  0.3196  0.6804
 2859SOL    HW1 9997   5.722   3.131   4.244 -0.9009 -0.4751 -0.8848
 2859SOL    HW2 9998   5.815   3.041   4.165 -1.5566 -2.4141  0.4753
 2860SOL     OW 9999   6.223   2.397   5.261 -0.1039  0.3487  0.0318
 2860SOL    HW110000   6.128   2.386   5.252 -0.2339 -0.8320  2.1665
 2860SOL    HW210001   6.237   2.491   5.257 -1.2984  0.5158 -0.7237
 2861SOL     OW10002   0.802   5.761   3.753  0.5637 -0.0997  0.0361
 2861SOL    HW110003   0.789   5.709   3.674  0.6240  0.3905 -0.2985
 2861SOL    HW210004   0.719   5.806   3.766  1.6982  2.8163 -1.9457
 2862SOL     OW10005   2.694   0.124   1.071 -0.6421  0.7615  0.0748
 2862SOL    HW110006   2.631   0.190   1.099 -1.8659 -0.5447  0.5336
 2862SOL    HW210007   2.668   0.045   1.118  1.6673  0.2882  0.6637
 2863SOL     OW10008   1.572   1.177   4.926 -1.0110 -0.0833  0.1489
 2863SOL    HW110009   1.622   1.173   4.845  0.9767  0.7612  1.2481
 2863SOL    HW210010   1.580   1.089   4.964 -3.3812 -1.0086 -1.2897
 2864SOL     OW10011   5.529   1.714   5.189 -0.1104 -0.1422 -0.5981
 2864SOL    HW110012   5.496   1.671   5.269  0.6656 -1.0278 -0.7343
 2864SOL    HW210013   5.451   1.723   5.133 -0.1776 -2.2441 -0.9423
 2865SOL     OW10014   3.373   0.553   6.601  0.2651 -0.0791 -0.2203
 2865SOL    HW110015   3.333   0.504   6.673  1.8022 -0.3020  0.5258
 2865SOL    HW210016   3.466   0.533   6.608  0.8641  2.3991 -0.3138
 2866SOL     OW10017   0.941   6.198   4.315  0.3689 -0.6954 -0.3336
 2866SOL    HW110018   0.897   6.160   4.239  0.7485 -0.3593 -0.7336
 2866SOL    HW210019   0.962   6.123   4.370 -0.0183 -0.9327 -0.5039
 2867SOL     OW10020   1.857   0.533   3.980  0.7366 -0.1826  0.3431
 2867SOL    HW110021   1.781   0.567   4.027 -0.9684  1.5665 -3.2257
 2867SOL    HW210022   1.901   0.611   3.946  0.9215 -1.2517 -2.1331
 2868SOL     OW10023   5.326   0.452   7.698 -0.2100  0.5597 -0.1882
 2868SOL    HW110024   5.383   0.491   7.764 -1.2520  1.8491 -0.0187
 2868SOL    HW210025   5.354   0.492   7.615  0.8362 -0.7651 -0.5076
 2869SOL     OW10026   1.339   6.367   0.831 -0.7468  0.0502  0.4017
 2869SOL    HW110027   1.349   6.460   0.809  0.4371 -0.1516 -0.0034
 2869SOL    HW210028   1.429   6.334   0.834 -1.2040 -1.4542 -1.1125
 2870SOL     OW10029   7.677   2.246   6.348 -0.8275 -0.2465 -0.1676
 2870SOL    HW110030   7.702   2.283   6.433 -1.2230 -1.7936  0.6667
 2870SOL    HW210031   7.589   2.211   6.363 -1.5204  0.7388 -1.6563
 2871SOL     OW10032   7.112   1.333   0.751  0.1882 -0.7475  0.0328
 2871SOL    HW110033   7.140   1.411   0.799 -1.4470  0.8749 -1.4822
 2871SOL    HW210034   7.037   1.300   0.801 -1.9034  1.2968 -1.5680
 2872SOL     OW10035   7.965   1.463   0.790 -0.0718  0.1542 -0.6122
 2872SOL    HW110036   7.927   1.548   0.769  1.4519  1.4603  1.4718
 2872SOL    HW210037   7.896   1.400   0.769 -1.1315  1.8344 -2.5396
 2873SOL     OW10038   3.088   3.233   1.959 -0.3159  0.1338  0.0174
 2873SOL    HW110039   3.020   3.250   1.894 -1.0953 -1.3559  0.3949
 2873SOL    HW210040   3.113   3.320   1.990 -1.1987  0.7790 -0.9818
 2874SOL     OW10041   3.888   4.139   0.806 -0.0513  0.2915  0.0548
 2874SOL    HW110042   3.956   4.153   0.740 -1.7048  0.6090 -1.6753
 2874SOL    HW210043   3.820   4.090   0.760 -0.1597 -1.8856  2.2968
 2875SOL     OW10044   2.954   3.482   2.707 -0.3965  0.3903 -0.3781
 2875SOL    HW110045   3.011   3.504   2.633  0.2353  0.1347  0.0256
 2875SOL    HW210046   2.872   3.528   2.688 -0.5180 -0.2933 -1.6267
 2876SOL     OW10047   1.142   6.474   6.129  0.5993 -0.9827 -0.1839
 2876SOL    HW110048   1.174   6.436   6.047  3.1156  0.2822  0.1006
 2876SOL    HW210049   1.189   6.427   6.198  0.4425 -0.3319  0.3801
 2877SOL     OW10050   2.009   7.099   2.761  0.3030 -0.0861 -0.1539
 2877SOL    HW110051   2.094   7.095   2.717 -0.5118  2.3198 -2.1773
 2877SOL    HW210052   1.945   7.095   2.689 -1.1562  1.8630  0.9459
 2878SOL     OW10053   5.513   3.106   8.071  0.4576 -0.7205  0.7510
 2878SOL    HW110054   5.500   3.017   8.039  1.0141 -1.0686  1.4737
 2878SOL    HW210055   5.521   3.159   7.992 -0.8953 -1.1482  0.3017
 2879SOL     OW10056   5.800   6.341   5.451  0.0832 -1.0392 -0.1652
 2879SOL    HW110057   5.860   6.321   5.523 -0.1675  1.5781  0.8909
 2879SOL    HW210058   5.838   6.419   5.409 -1.0151 -1.1174 -1.3795
 2880SOL     OW10059   8.128   7.916   5.779  0.1835 -0.0124  0.6966
 2880SOL    HW110060   8.117   7.833   5.824  0.3150  0.6306  1.9564
 2880SOL    HW210061   8.055   7.970   5.809  0.8025  0.7460  0.8914
 2881SOL     OW10062   1.657   6.071   2.153 -0.3981  0.1550 -0.2865
 2881SOL    HW110063   1.723   6.057   2.086 -0.1888 -1.1181  0.1472
 2881SOL    HW210064   1.586   6.118   2.109  1.2039  2.5482 -0.5052
 2882SOL     OW10065   3.535   0.696   0.361 -0.0680  0.3044  0.2505
 2882SOL    HW110066   3.569   0.785   0.347 -0.5716  0.1757 -2.3972
 2882SOL    HW210067   3.610   0.646   0.391  0.5890  1.3248  0.3644
 2883SOL     OW10068   7.793   0.961   1.522 -0.0060 -0.0256  0.2224
 2883SOL    HW110069   7.739   0.969   1.444  0.4894 -0.8007 -0.2173
 2883SOL    HW210070   7.743   0.902   1.580  0.3027 -0.6583 -0.1409
 2884SOL     OW10071   0.806   0.045   5.833  0.3195  0.3106  0.0709
 2884SOL    HW110072   0.805   0.127   5.784  1.0573  0.3559  0.1332
 2884SOL    HW210073   0.898   0.028   5.852  0.4693 -1.7622 -2.0161
 2885SOL     OW10074   3.017   6.539   1.385  0.0183  0.6301 -0.3818
 2885SOL    HW110075   3.101   6.503   1.415 -0.2447  0.2220 -0.1324
 2885SOL    HW210076   3.037   6.576   1.299  0.2310 -0.4202 -0.8088
 2886SOL     OW10077   6.962   7.690   5.134 -0.5331 -0.1962  0.1530
 2886SOL    HW110078   6.895   7.705   5.067 -0.8397  1.6485  0.8217
 2886SOL    HW210079   6.980   7.777   5.170  0.3443 -1.0041  1.7791
 2887SOL     OW10080   0.953   5.728   4.635  0.7314  0.3461  0.3398
 2887SOL    HW110081   0.938   5.717   4.729 -1.1614 -2.7728 -0.1638
 2887SOL    HW210082   1.036   5.682   4.619  0.3416 -0.3574  0.3123
 2888SOL     OW10083   7.030   8.118   7.216 -0.4832 -0.2777 -0.1795
 2888SOL    HW110084   7.021   8.144   7.124 -0.6662 -0.7501 -0.3012
 2888SOL    HW210085   6.949   8.071   7.235 -0.4687 -0.1375  0.2431
 2889SOL     OW10086   8.090   2.712   6.481 -0.6662  0.0431  0.3242
 2889SOL    HW110087   8.000   2.703   6.449 -0.3687  0.9343 -0.8102
 2889SOL    HW210088   8.081   2.714   6.576 -1.7077 -1.2557  0.2861
 2890SOL     OW10089   7.052   4.110   4.829 -0.5725 -0.1253 -0.2694
 2890SOL    HW110090   7.073   4.198   4.796  0.7572 -0.5004 -0.4551
 2890SOL    HW210091   7.127   4.056   4.805 -1.0406 -1.1577  0.4999
 2891SOL     OW10092   2.316   6.929   0.006  0.0300  0.1351  0.5607
 2891SOL    HW110093   2.248   6.981  -0.037  0.4132 -0.4790 -0.8609
 2891SOL    HW210094   2.276   6.843   0.018  0.5250 -0.2196 -0.2521
 2892SOL     OW10095   6.109   1.537   5.823  0.6401 -0.1991  0.1880
 2892SOL    HW110096   6.082   1.602   5.759 -0.0342 -1.3167 -0.7219
 2892SOL    HW210097   6.113   1.584   5.906  1.3279  1.2343 -0.6268
 2893SOL     OW10098   8.061   0.210   2.868  0.2239 -0.4212 -0.4596
 2893SOL    HW110099   7.967   0.224   2.871  0.1529 -0.9702  0.3443
 2893SOL    HW210100   8.081   0.192   2.776 -0.3840  0.1425 -0.7030
 2894SOL     OW10101   6.265   5.356   6.799  0.6227  0.0908 -0.0663
 2894SOL    HW110102   6.235   5.362   6.890  2.3250  1.0431  0.4880
 2894SOL    HW210103   6.354   5.321   6.806  1.5063  1.9953 -1.1928
 2895SOL     OW10104   7.395   5.843   6.271  0.4985  0.5512  0.6864
 2895SOL    HW110105   7.408   5.835   6.176 -1.9208  0.4711  0.3110
 2895SOL    HW210106   7.430   5.929   6.293  0.2063  0.9837 -0.4710
 2896SOL     OW10107   6.400   1.837   6.920  0.0802  0.1948  0.0284
 2896SOL    HW110108   6.417   1.749   6.953 -2.3525 -0.3986 -0.1071
 2896SOL    HW210109   6.315   1.830   6.877 -2.0761  3.4016  3.2174
 2897SOL     OW10110   1.659   7.463   0.172 -0.0489  0.4878 -0.2114
 2897SOL    HW110111   1.696   7.376   0.161 -1.2242 -0.2331  1.2922
 2897SOL    HW210112   1.628   7.487   0.085 -1.9087 -1.6441 -0.2314
 2898SOL     OW10113   7.929   7.491   3.674  0.2714  0.2531 -1.0083
 2898SOL    HW110114   7.996   7.485   3.742  0.6382 -0.2305 -1.4068
 2898SOL    HW210115   7.937   7.581   3.642 -0.2592  0.6545 -0.0669
 2899SOL     OW10116   3.167   0.363   2.305 -0.1369 -0.0586 -0.0757
 2899SOL    HW110117   3.149   0.274   2.276  0.8538 -0.0956 -0.6249
 2899SOL    HW210118   3.219   0.402   2.234  0.5631  0.5213  0.7245
 2900SOL     OW10119   1.060   4.065   4.417  0.3713  0.0667 -0.2245
 2900SOL    HW110120   0.991   4.021   4.466  1.6488 -2.6443 -0.7112
 2900SOL    HW210121   1.134   4.069   4.477  0.3546  1.4818 -0.2511
 2901SOL     OW10122   4.418   5.285   5.126 -0.2393 -0.0510  0.3431
 2901SOL    HW110123   4.396   5.193   5.137 -0.4710 -0.0361  0.0288
 2901SOL    HW210124   4.447   5.314   5.212 -1.5911 -0.0320  0.8231
 2902SOL     OW10125   3.571   4.857   3.156 -0.3941 -0.1489 -0.1326
 2902SOL    HW110126   3.658   4.887   3.183 -0.1983 -2.0146  1.5006
 2902SOL    HW210127   3.519   4.858   3.236 -1.9555  0.9663 -1.0883
 2903SOL     OW10128   5.890   3.815   2.732  0.2465  0.7041 -0.1075
 2903SOL    HW110129   5.936   3.755   2.673  0.1152  0.4460  0.0508
 2903SOL    HW210130   5.941   3.813   2.813  0.1814  0.7224 -0.0656
 2904SOL     OW10131   7.742   6.104   4.294 -0.4763  0.6963 -0.9157
 2904SOL    HW110132   7.748   6.091   4.200 -1.9986 -0.6600 -0.8853
 2904SOL    HW210133   7.738   6.015   4.330  0.5392  1.1746  0.4878
 2905SOL     OW10134   2.762   7.306   2.945 -0.1067  0.2434 -0.1010
 2905SOL    HW110135   2.855   7.283   2.946 -0.0134  0.5107 -1.2216
 2905SOL    HW210136   2.717   7.229   2.979  0.4148 -0.4853 -1.0207
 2906SOL     OW10137   0.723   7.058   5.911 -0.0974 -0.3085 -0.5043
 2906SOL    HW110138   0.788   7.127   5.899 -0.6829  0.1040 -1.3715
 2906SOL    HW210139   0.665   7.066   5.835 -0.2601 -1.6570 -0.5406
 2907SOL     OW10140   3.500   7.363   4.949 -0.0498  0.2994 -0.2926
 2907SOL    HW110141   3.422   7.405   4.915  0.8495  1.1428 -1.4007
 2907SOL    HW210142   3.571   7.392   4.891  0.6453 -2.8175 -1.2299
 2908SOL     OW10143   0.356   3.114   4.583 -0.0419 -0.2206 -0.7650
 2908SOL    HW110144   0.378   3.028   4.547 -2.2937 -0.6941 -1.1631
 2908SOL    HW210145   0.411   3.123   4.661 -0.5478 -2.5407 -0.0762
 2909SOL     OW10146   5.547   8.084   0.086 -0.0551 -0.0943  0.3849
 2909SOL    HW110147   5.474   8.107   0.029 -0.9527 -0.0689  1.4940
 2909SOL    HW210148   5.612   8.045   0.028 -1.5698 -1.5131 -0.4455
 2910SOL     OW10149   3.156   3.493   1.991 -0.7128 -0.1714  0.2918
 2910SOL    HW110150   3.196   3.465   2.073 -1.9896 -0.9701  0.6669
 2910SOL    HW210151   3.160   3.589   1.993  2.8429 -0.1676 -0.5533
 2911SOL     OW10152   1.016   0.768   2.519 -0.1636 -0.2798  0.0810
 2911SOL    HW110153   1.036   0.843   2.576  1.5424 -0.4067 -0.2919
 2911SOL    HW210154   1.078   0.701   2.547 -2.2851 -1.9441  1.0522
 2912SOL     OW10155   1.240   8.157   8.135 -0.1445 -0.1731 -0.1760
 2912SOL    HW110156   1.329   8.170   8.102  0.2150 -1.5801  0.1698
 2912SOL    HW210157   1.230   8.222   8.204  0.9927 -0.6342  0.4482
 2913SOL     OW10158   5.021   3.485   1.985 -0.0440 -0.1319 -0.2358
 2913SOL    HW110159   4.954   3.482   2.053 -0.3064  2.5054 -0.2806
 2913SOL    HW210160   5.013   3.573   1.947  1.5581 -0.7527 -2.1821
 2914SOL     OW10161   3.992   0.510   2.680 -0.1589 -0.0766 -0.0850
 2914SOL    HW110162   3.950   0.569   2.743 -0.1081 -0.9097  0.7483
 2914SOL    HW210163   3.932   0.507   2.606 -0.8354 -0.0708  0.4558
 2915SOL     OW10164   5.845   4.586   3.907 -0.2042  0.6791  0.4823
 2915SOL    HW110165   5.811   4.512   3.957 -0.7037  0.4054 -0.2608
 2915SOL    HW210166   5.790   4.660   3.932  0.9003  1.0567  1.9734
 2916SOL     OW10167   0.611   1.430   4.527 -0.0783  0.6574 -0.0832
 2916SOL    HW110168   0.627   1.516   4.566 -0.5860  1.0887 -0.7960
 2916SOL    HW210169   0.697   1.399   4.500 -0.1842  2.4557 -2.9096
 2917SOL     OW10170   1.469   7.534   3.666  0.1610 -0.7965  0.2979
 2917SOL    HW110171   1.450   7.517   3.758 -0.0163 -1.1246  0.2010
 2917SOL    HW210172   1.537   7.470   3.644  1.8445  0.7242  0.7968
 2918SOL     OW10173   6.815   5.413   1.864  0.1091  0.2898  0.0948
 2918SOL    HW110174   6.880   5.401   1.796 -0.2691  1.0997 -0.4268
 2918SOL    HW210175   6.737   5.368   1.832  0.0744  0.2714  0.2020
 2919SOL     OW10176   4.512   5.396   5.371  0.0645 -0.4090  0.3804
 2919SOL    HW110177   4.556   5.470   5.329  0.5241 -1.1104 -0.4116
 2919SOL    HW210178   4.558   5.384   5.454  0.3550 -0.1647  0.2537
 2920SOL     OW10179   7.390   8.145   2.925 -0.2743 -0.1950  0.4829
 2920SOL    HW110180   7.437   8.110   3.001 -0.5124 -0.0234  0.7089
 2920SOL    HW210181   7.299   8.149   2.953 -0.3605 -0.1257  0.1879
 2921SOL     OW10182   2.149   7.863   5.744 -0.0140  0.1221  0.0990
 2921SOL    HW110183   2.200   7.899   5.672 -0.0399 -0.0440 -0.0025
 2921SOL    HW210184   2.203   7.792   5.778 -2.0452 -3.2376 -2.9396
 2922SOL     OW10185   1.396   6.531   3.832 -0.6302 -0.6602  0.6302
 2922SOL    HW110186   1.386   6.508   3.925 -0.3886 -2.3988  0.2596
 2922SOL    HW210187   1.463   6.599   3.832 -2.0009  0.7696  1.8761
 2923SOL     OW10188   4.191   3.334   3.418  0.3221 -0.2264 -0.2418
 2923SOL    HW110189   4.158   3.292   3.498 -0.4071  1.7814  0.5876
 2923SOL    HW210190   4.271   3.380   3.446  0.7620 -0.5382 -0.9667
 2924SOL     OW10191   4.579   7.582   4.648  0.1091 -0.1901 -0.7508
 2924SOL    HW110192   4.653   7.641   4.633 -0.2008  0.5963  0.6904
 2924SOL    HW210193   4.615   7.510   4.700  0.1063 -0.4182 -1.0576
 2925SOL     OW10194   1.461   5.678   4.785  0.0106 -0.1842  0.8730
 2925SOL    HW110195   1.492   5.599   4.829 -1.2588 -1.7470 -0.8987
 2925SOL    HW210196   1.417   5.728   4.854 -1.3894 -2.2577  1.5645
 2926SOL     OW10197   2.330   5.562   3.452 -0.3889 -0.2941 -0.1173
 2926SOL    HW110198   2.364   5.546   3.540  0.0807  1.0412 -0.0361
 2926SOL    HW210199   2.408   5.588   3.402 -1.0517  1.5062 -0.2665
 2927SOL     OW10200   7.275   5.365   1.590 -0.1836 -0.2672  0.0007
 2927SOL    HW110201   7.298   5.401   1.675 -0.5913  3.2808 -1.2251
 2927SOL    HW210202   7.354   5.321   1.560  0.3418 -0.5317  1.6920
 2928SOL     OW10203   6.417   3.749   3.122 -0.1127  0.3146 -0.5014
 2928SOL    HW110204   6.476   3.687   3.080 -0.6117  0.0633 -0.8415
 2928SOL    HW210205   6.413   3.823   3.062 -1.4600 -0.3879 -1.3125
 2929SOL     OW10206   4.700   1.166   7.329 -0.7169 -0.1432 -0.0647
 2929SOL    HW110207   4.694   1.072   7.342  0.4909 -0.4433 -1.4019
 2929SOL    HW210208   4.689   1.177   7.234 -0.5297  1.0338  0.0379
 2930SOL     OW10209   0.994   6.117   1.286 -0.5449 -0.0541  0.6668
 2930SOL    HW110210   1.080   6.076   1.278  0.0655  1.4099 -0.8846
 2930SOL    HW210211   0.992   6.149   1.376  0.4601 -0.2592  0.7792
 2931SOL     OW10212   5.782   6.201   0.087  0.0255  0.1785 -0.0239
 2931SOL    HW110213   5.871   6.169   0.103 -0.4536 -1.4977 -0.5166
 2931SOL    HW210214   5.755   6.159   0.005 -0.1314  3.0884 -1.5973
 2932SOL     OW10215   8.014   4.498   4.629  0.1536 -0.3171 -0.0986
 2932SOL    HW110216   8.005   4.467   4.539  0.5273  2.3588 -1.1584
 2932SOL    HW210217   7.937   4.465   4.674 -0.1894 -1.4682 -1.4715
 2933SOL     OW10218   5.190   4.266   4.208 -0.1519 -0.4973 -0.2423
 2933SOL    HW110219   5.168   4.206   4.137 -2.3125 -0.2200  0.1403
 2933SOL    HW210220   5.110   4.273   4.260  0.1098  2.4806 -0.1015
 2934SOL     OW10221   0.538   4.589   2.888  0.5577  0.0449  0.4810
 2934SOL    HW110222   0.512   4.499   2.907  1.8136 -1.0283 -2.2811
 2934SOL    HW210223   0.632   4.592   2.908  0.9722  0.0732 -1.2243
 2935SOL     OW10224   0.437   8.224   7.753 -0.2974 -0.2851  0.3453
 2935SOL    HW110225   0.485   8.300   7.788  0.1616 -0.4356  0.0578
 2935SOL    HW210226   0.361   8.215   7.810 -1.7955  1.9759 -1.0854
 2936SOL     OW10227   3.058   7.112   5.537 -0.0842 -0.4268  0.2577
 2936SOL    HW110228   3.087   7.038   5.483 -0.2636 -0.3248  0.0194
 2936SOL    HW210229   3.138   7.151   5.570 -0.0061 -1.1132  0.9056
 2937SOL     OW10230   7.171   0.826   1.352  0.3387 -0.1082  0.0622
 2937SOL    HW110231   7.115   0.896   1.383  0.3513 -0.5437  1.1383
 2937SOL    HW210232   7.248   0.830   1.409  1.2787  0.2905 -1.1862
 2938SOL     OW10233   4.776   1.878   6.896  0.0130  0.2831  0.1425
 2938SOL    HW110234   4.793   1.807   6.957  0.0909  1.6481  1.7743
 2938SOL    HW210235   4.696   1.851   6.850  0.7226 -1.4018 -0.1917
 2939SOL     OW10236   4.090   3.691   6.297  0.1645  0.1432  0.5853
 2939SOL    HW110237   4.105   3.775   6.342 -0.4505  1.2337 -1.1446
 2939SOL    HW210238   4.032   3.713   6.225 -0.1792 -1.8486  0.2114
 2940SOL     OW10239   4.265   3.272   2.822  1.1071  0.2835  0.4164
 2940SOL    HW110240   4.184   3.300   2.778  2.1609  2.8059 -0.0810
 2940SOL    HW210241   4.238   3.253   2.912 -0.2071 -0.0786 -0.0209
 2941SOL     OW10242   0.794   7.669   3.474  0.6226 -0.6997  0.1075
 2941SOL    HW110243   0.708   7.649   3.436  1.0284 -1.3208 -0.5171
 2941SOL    HW210244   0.797   7.765   3.478 -0.5787 -0.6937  1.3013
 2942SOL     OW10245   8.092   4.817   5.005  0.0216 -0.3084 -0.2507
 2942SOL    HW110246   8.161   4.843   5.066  0.1313 -1.9567  0.4011
 2942SOL    HW210247   8.090   4.886   4.939  0.8405  0.8360  0.8717
 2943SOL     OW10248   2.983   7.912   1.510 -0.5803  0.2349 -0.4801
 2943SOL    HW110249   2.919   7.864   1.563  0.1057 -0.0422  0.1185
 2943SOL    HW210250   2.967   8.004   1.530 -0.4630  0.1404  0.0476
 2944SOL     OW10251   7.264   5.410   1.287  0.1930  0.5505  0.1376
 2944SOL    HW110252   7.252   5.399   1.381  0.6106  1.7047  0.3440
 2944SOL    HW210253   7.356   5.435   1.278  0.3888 -0.4097 -0.6663
 2945SOL     OW10254   0.996   5.156   4.872  0.8026 -0.3836 -0.1962
 2945SOL    HW110255   0.948   5.078   4.899  0.3653 -0.2344 -0.5444
 2945SOL    HW210256   0.968   5.172   4.782  0.5588  0.4310  0.0229
 2946SOL     OW10257   4.960   3.546   4.878 -0.2557  0.2428  0.2128
 2946SOL    HW110258   4.893   3.505   4.822 -1.4999  1.5339  0.6992
 2946SOL    HW210259   4.988   3.624   4.829  0.7342 -0.1443  0.1346
 2947SOL     OW10260   5.361   6.088   6.539 -0.2711  0.1599 -0.6482
 2947SOL    HW110261   5.325   6.000   6.554  4.1047 -2.0752 -1.7359
 2947SOL    HW210262   5.335   6.109   6.449  1.3403 -1.6046 -1.5856
 2948SOL     OW10263   4.508   0.827   8.254  0.1465 -0.0898  0.5642
 2948SOL    HW110264   4.470   0.913   8.271  1.9317  0.5818  1.4619
 2948SOL    HW210265   4.561   0.809   8.332  0.7888 -1.4443 -0.1580
 2949SOL     OW10266   4.477   8.199   3.310 -0.2961 -0.1465  0.4839
 2949SOL    HW110267   4.557   8.241   3.342 -0.1791  0.3716 -0.4613
 2949SOL    HW210268   4.450   8.253   3.236  0.7944 -2.6546 -1.8882
 2950SOL     OW10269   3.134   0.774   2.753  0.8333 -0.4234 -0.6448
 2950SOL    HW110270   3.130   0.858   2.707  0.6600 -0.0988 -0.0504
 2950SOL    HW210271   3.064   0.779   2.818 -0.0021 -1.5387 -1.4414
 2951SOL     OW10272   3.256   6.433   0.578 -0.2557 -0.1131  0.0606
 2951SOL    HW110273   3.312   6.466   0.508  1.1532 -1.3181  0.5935
 2951SOL    HW210274   3.240   6.341   0.556 -0.6438 -0.2323  0.7995
 2952SOL     OW10275   2.270   4.730   7.811 -0.3533 -0.2963 -0.0517
 2952SOL    HW110276   2.212   4.764   7.743  0.1186  1.0733  0.2103
 2952SOL    HW210277   2.238   4.769   7.892  1.6433  1.5547 -0.0491
 2953SOL     OW10278   6.319   6.938   4.722 -0.4839 -0.2483  0.6266
 2953SOL    HW110279   6.284   6.911   4.637  0.3183  2.4919 -0.6763
 2953SOL    HW210280   6.303   7.032   4.726  3.6685  0.6208  1.3605
 2954SOL     OW10281   5.521   2.109   1.594 -0.1310 -0.0465  0.4218
 2954SOL    HW110282   5.508   2.078   1.504 -1.1357 -0.8850  0.8311
 2954SOL    HW210283   5.539   2.202   1.584 -0.6907 -0.0292 -0.6405
 2955SOL     OW10284   3.416   5.002   6.228  0.1492 -0.0712  0.8870
 2955SOL    HW110285   3.479   4.930   6.229  1.4241  0.9225 -0.8769
 2955SOL    HW210286   3.368   4.993   6.310  2.7181 -0.7831  2.4458
 2956SOL     OW10287   2.320   6.362   6.732  0.3976 -0.0354  0.3330
 2956SOL    HW110288   2.271   6.441   6.755  0.3372  0.9351 -2.6647
 2956SOL    HW210289   2.371   6.387   6.655  0.7973 -2.7962 -0.4168
 2957SOL     OW10290   1.074   6.104   0.160  0.0996 -0.4102 -0.4126
 2957SOL    HW110291   1.073   6.142   0.073  0.0933  0.6749  0.0412
 2957SOL    HW210292   1.007   6.153   0.208  2.6678  1.7178  1.2844
 2958SOL     OW10293   4.231   4.017   6.098  0.4289 -0.0793  0.0615
 2958SOL    HW110294   4.185   4.083   6.047 -1.6666 -2.1301 -0.8501
 2958SOL    HW210295   4.169   3.989   6.164  0.7769 -2.0129 -0.3695
 2959SOL     OW10296   0.185   0.786   2.138  0.1194  0.2780  0.1197
 2959SOL    HW110297   0.192   0.854   2.206  0.5923 -0.3040  0.6632
 2959SOL    HW210298   0.102   0.742   2.156  1.4418 -1.6503  2.0451
 2960SOL     OW10299   5.925   7.930   0.515 -0.1286  0.1069 -0.2630
 2960SOL    HW110300   5.858   7.895   0.457  0.0498 -2.6699  1.0513
 2960SOL    HW210301   6.007   7.920   0.466 -0.4117  1.8214 -1.1554
 2961SOL     OW10302   4.117   5.230   5.595  0.2780 -0.0308  0.2957
 2961SOL    HW110303   4.140   5.137   5.591  0.6411  0.0112  1.2124
 2961SOL    HW210304   4.154   5.267   5.515  1.5363 -0.3862  0.6794
 2962SOL     OW10305   4.755   5.370   4.725 -0.1725 -0.5034  0.1996
 2962SOL    HW110306   4.706   5.428   4.667  0.7336  1.0920  0.9673
 2962SOL    HW210307   4.691   5.306   4.756 -0.7434 -1.2502 -2.2921
 2963SOL     OW10308   1.568   3.864   4.482 -0.5548 -0.2527  0.5225
 2963SOL    HW110309   1.534   3.839   4.568 -0.8985  0.3568  0.5710
 2963SOL    HW210310   1.630   3.935   4.500  0.1553 -0.8224  0.3574
 2964SOL     OW10311   5.290   1.159   2.616 -0.4043 -0.0045 -0.3913
 2964SOL    HW110312   5.362   1.096   2.625 -1.0359 -0.6973 -0.1610
 2964SOL    HW210313   5.218   1.120   2.665 -0.5872  1.2476  0.3734
 2965SOL     OW10314   2.498   3.837   1.621 -0.1825 -0.2834 -0.1442
 2965SOL    HW110315   2.477   3.922   1.582  2.5860  1.0742  1.0331
 2965SOL    HW210316   2.499   3.855   1.716  4.7594 -0.2908  0.0524
 2966SOL     OW10317   0.073   1.383   7.284 -0.4037  0.7099  0.4952
 2966SOL    HW110318   0.001   1.342   7.234  0.1761 -0.1261  0.3298
 2966SOL    HW210319   0.072   1.474   7.255 -0.3159  0.3260 -0.8057
 2967SOL     OW10320   8.274   5.184   5.230  0.8981 -0.7750  0.3023
 2967SOL    HW110321   8.242   5.239   5.301  1.6120  0.0211  0.0265
 2967SOL    HW210322   8.263   5.237   5.151  0.4385 -1.5157 -0.1336
 2968SOL     OW10323   8.099   1.289   8.057 -0.0158 -0.0805 -0.1995
 2968SOL    HW110324   8.069   1.335   7.979 -0.0755 -0.1706 -0.2302
 2968SOL    HW210325   8.169   1.231   8.026 -0.3902 -0.5000 -0.2826
 2969SOL     OW10326   1.355   0.864   0.525 -0.3384 -0.0204  0.1142
 2969SOL    HW110327   1.367   0.791   0.587  1.5708  0.3521  0.2528
 2969SOL    HW210328   1.410   0.934   0.561  1.9362 -0.2164 -2.6219
 2970SOL     OW10329   5.558   5.425   0.008 -0.2058 -0.7270 -0.2943
 2970SOL    HW110330   5.483   5.373   0.037 -0.4729  0.2854  0.9310
 2970SOL    HW210331   5.601   5.451   0.090  1.7393 -1.6286 -0.9644
 2971SOL     OW10332   7.701   6.766   0.619 -0.6828 -0.3983  0.2483
 2971SOL    HW110333   7.731   6.764   0.528 -1.1359  0.2645  0.0739
 2971SOL    HW210334   7.696   6.859   0.640 -0.4537 -0.5529  0.9974
 2972SOL     OW10335   4.545   0.558   6.817 -0.5161  0.0581  0.4422
 2972SOL    HW110336   4.483   0.569   6.889 -0.1158 -0.1477  0.8139
 2972SOL    HW210337   4.534   0.638   6.764  0.1574  0.8414  1.4600
 2973SOL     OW10338   3.920   4.804   2.286 -0.6155  0.5070 -0.4215
 2973SOL    HW110339   3.906   4.793   2.192  0.5131 -0.8698 -0.4584
 2973SOL    HW210340   3.835   4.787   2.326 -0.6208 -1.1591 -1.0624
 2974SOL     OW10341   5.795   1.663   6.950 -0.3516 -0.0502 -0.5128
 2974SOL    HW110342   5.766   1.620   7.030  1.2390 -0.1537  0.0395
 2974SOL    HW210343   5.844   1.740   6.980 -0.1688  0.1895 -1.3971
 2975SOL     OW10344   4.059   3.186   2.478  0.1765  0.2550 -0.2307
 2975SOL    HW110345   4.048   3.091   2.472  1.0515 -0.0502  1.9880
 2975SOL    HW210346   3.983   3.216   2.527  0.9975  0.3523  1.0339
 2976SOL     OW10347   3.922   0.834   5.304  0.4817 -0.4723  0.1622
 2976SOL    HW110348   3.958   0.766   5.361  0.0072 -0.5996  0.3184
 2976SOL    HW210349   3.849   0.870   5.354  2.0040  1.6421  1.0228
 2977SOL     OW10350   5.494   0.535   3.385  0.3128  0.3648  0.3102
 2977SOL    HW110351   5.541   0.454   3.408  1.1988  1.4164  2.5444
 2977SOL    HW210352   5.430   0.546   3.456  0.5166  1.8408  0.2843
 2978SOL     OW10353   4.540   8.249   2.070  0.2000  0.5139  0.7241
 2978SOL    HW110354   4.542   8.336   2.109  2.3466 -0.0510  2.0216
 2978SOL    HW210355   4.533   8.189   2.145 -0.7220 -0.4795 -0.1095
 2979SOL     OW10356   6.014   2.840   1.225  0.2474  0.3810  0.4962
 2979SOL    HW110357   5.962   2.904   1.176 -0.0637  1.4249  2.1186
 2979SOL    HW210358   6.056   2.787   1.158 -1.2189  0.8899 -0.8854
 2980SOL     OW10359   6.666   6.283   7.577  0.2566 -0.1724  0.1822
 2980SOL    HW110360   6.652   6.369   7.617 -0.7507 -0.5515  0.6861
 2980SOL    HW210361   6.707   6.303   7.493 -0.4256  0.8400  0.0624
 2981SOL     OW10362   6.277   3.307   3.740  0.3467 -0.5304 -0.2462
 2981SOL    HW110363   6.209   3.370   3.765  0.0614 -1.4246  1.3410
 2981SOL    HW210364   6.351   3.362   3.714  0.0587  0.4845  0.9776
 2982SOL     OW10365   7.307   5.765   2.916 -0.1883  0.0058 -0.6159
 2982SOL    HW110366   7.315   5.813   2.999  0.2362 -0.8410 -0.1611
 2982SOL    HW210367   7.355   5.819   2.853 -0.1553  0.4441 -0.2194
 2983SOL     OW10368   0.421   4.979   6.883  0.2413 -0.2995 -0.3295
 2983SOL    HW110369   0.345   4.956   6.830  0.1777 -0.1781 -0.2926
 2983SOL    HW210370   0.414   4.922   6.960 -1.0820  1.2371  0.7909
 2984SOL     OW10371   7.121   3.388   5.049 -0.0593  0.1337 -0.4741
 2984SOL    HW110372   7.149   3.377   4.958  0.1536  1.3643 -0.5788
 2984SOL    HW210373   7.044   3.332   5.058  1.6813 -2.4422 -0.5215
 2985SOL     OW10374   4.397   7.709   6.717 -0.1662 -0.0832  0.0055
 2985SOL    HW110375   4.372   7.737   6.805  1.6128  0.6227  0.3244
 2985SOL    HW210376   4.314   7.684   6.676 -1.1241  0.2510  1.6248
 2986SOL     OW10377   0.048   2.178   6.473 -0.1307 -0.2586 -0.0356
 2986SOL    HW110378   0.061   2.201   6.565  1.9078 -1.3287 -0.0066
 2986SOL    HW210379   0.011   2.257   6.433 -1.9017 -0.0637  1.8455
 2987SOL     OW10380   4.240   4.155   3.596  0.3190  1.1058 -0.6637
 2987SOL    HW110381   4.273   4.108   3.673  0.9430  1.3552 -0.7778
 2987SOL    HW210382   4.225   4.086   3.531 -1.7195  0.6716  0.1683
 2988SOL     OW10383   0.405   0.275   4.142  0.1094 -0.2335 -0.2601
 2988SOL    HW110384   0.448   0.192   4.165  0.0744 -0.4463 -0.9479
 2988SOL    HW210385   0.473   0.326   4.099 -0.0956 -0.2346 -0.5874
 2989SOL     OW10386   3.489   5.798   1.209 -0.6215 -0.1495  0.0175
 2989SOL    HW110387   3.511   5.847   1.288 -0.1589 -1.6505  0.8355
 2989SOL    HW210388   3.399   5.825   1.189 -0.8016  0.1360  1.1420
 2990SOL     OW10389   1.774   5.639   0.706 -0.4339  0.2429  0.1171
 2990SOL    HW110390   1.713   5.571   0.735  0.5068 -0.4984  0.4253
 2990SOL    HW210391   1.827   5.657   0.784 -1.2174  1.9601  0.2897
 2991SOL     OW10392   2.569   1.429   3.917 -0.3462  0.2131  0.3173
 2991SOL    HW110393   2.600   1.366   3.982  0.1038  1.7529  1.6628
 2991SOL    HW210394   2.647   1.482   3.896 -0.7019  0.3286 -0.7863
 2992SOL     OW10395   3.648   1.996   2.606 -1.2545 -0.1825  0.1104
 2992SOL    HW110396   3.667   1.933   2.676  1.6309 -0.5868 -0.8805
 2992SOL    HW210397   3.689   1.958   2.528  0.5833  2.8229 -0.5465
 2993SOL     OW10398   3.021   3.114   6.327 -0.0643 -0.0603  0.1727
 2993SOL    HW110399   3.040   3.089   6.418 -0.6863 -0.4482  0.1982
 2993SOL    HW210400   3.039   3.035   6.276  0.0688  0.0919 -0.0175
 2994SOL     OW10401   4.434   0.146   7.761  0.1153  0.0820  0.1381
 2994SOL    HW110402   4.347   0.161   7.797  0.4922  0.1735  1.0598
 2994SOL    HW210403   4.436   0.052   7.741 -0.6303  0.3197 -1.1405
 2995SOL     OW10404   8.337   1.315   4.503 -0.2784 -0.3317 -0.2795
 2995SOL    HW110405   8.394   1.354   4.437  0.5490  0.0353  0.6287
 2995SOL    HW210406   8.254   1.363   4.494 -0.4089 -0.7518 -1.4929
 2996SOL     OW10407   2.486   4.347   6.743  0.0946  0.0021  0.1474
 2996SOL    HW110408   2.489   4.334   6.648 -1.7514  1.7422 -0.2354
 2996SOL    HW210409   2.577   4.360   6.769  0.5776  0.1968 -1.5133
 2997SOL     OW10410   7.101   7.547   4.141  0.2616 -0.0125 -0.2996
 2997SOL    HW110411   7.049   7.512   4.068  0.9998  0.9350 -1.3002
 2997SOL    HW210412   7.140   7.469   4.182  0.7716 -0.4817 -1.6347
 2998SOL     OW10413   3.509   0.572   7.220  0.2886  0.1704  0.0909
 2998SOL    HW110414   3.579   0.628   7.187  1.2537 -0.1942  1.4283
 2998SOL    HW210415   3.454   0.630   7.273 -0.0434  0.3191 -0.4130
 2999SOL     OW10416   0.235   5.251   3.349  0.0428  0.2387 -0.1647
 2999SOL    HW110417   0.195   5.209   3.273  1.2021 -1.4479  0.1244
 2999SOL    HW210418   0.168   5.243   3.418  0.2984 -1.3217 -0.0683
 3000SOL     OW10419   0.762   5.514   7.105 -0.5455  0.3041 -0.6104
 3000SOL    HW110420   0.691   5.537   7.045  0.2929 -0.1963 -1.8505
 3000SOL    HW210421   0.842   5.545   7.062  0.1471 -0.6471 -0.0742
 3001SOL     OW10422   4.090   3.381   4.464  0.6089  0.0421  0.1405
 3001SOL    HW110423   4.158   3.442   4.434  1.1391 -0.4065  0.4173
 3001SOL    HW210424   4.136   3.299   4.479 -0.2471 -0.7242 -1.1245
 3002SOL     OW10425   3.590   8.337   7.142  0.0062  0.7817  0.0266
 3002SOL    HW110426   3.582   8.288   7.061  1.2410  0.9487 -0.2188
 3002SOL    HW210427   3.530   8.294   7.203 -1.0764  0.7693 -1.0137
 3003SOL     OW10428   8.028   5.466   5.998  0.2637 -0.4906  0.5882
 3003SOL    HW110429   7.944   5.437   5.962  0.9563 -2.6776  0.6032
 3003SOL    HW210430   8.016   5.465   6.093  0.4448 -1.3181  0.6082
 3004SOL     OW10431   5.557   3.855   2.292 -0.9801  0.1829 -0.3747
 3004SOL    HW110432   5.485   3.800   2.262 -2.3145  1.8261 -0.2731
 3004SOL    HW210433   5.576   3.823   2.381 -1.3391 -0.4676 -0.5236
 3005SOL     OW10434   1.287   3.864   5.369 -0.1987  0.0431 -0.0488
 3005SOL    HW110435   1.357   3.861   5.434  1.0312  2.2419 -1.1920
 3005SOL    HW210436   1.310   3.796   5.306  0.5687  0.2905 -0.0512
 3006SOL     OW10437   6.158   0.581   6.559  0.3180 -0.1593  0.0123
 3006SOL    HW110438   6.165   0.501   6.611  3.1224  0.8064  1.3297
 3006SOL    HW210439   6.244   0.592   6.521  0.0755  2.3157  0.0247
 3007SOL     OW10440   2.565   3.464   0.200 -0.4940 -1.3685  0.2229
 3007SOL    HW110441   2.574   3.386   0.255 -0.6119 -3.6714 -2.7980
 3007SOL    HW210442   2.480   3.453   0.157  0.1784 -0.3967 -1.4443
 3008SOL     OW10443   3.957   4.311   5.334 -0.1268 -0.2171 -0.0291
 3008SOL    HW110444   3.967   4.320   5.429 -3.3764  0.2140  0.3908
 3008SOL    HW210445   3.973   4.218   5.316 -1.0479 -0.6408  1.2219
 3009SOL     OW10446   5.548   1.199   5.684  0.0327  0.1644  0.2311
 3009SOL    HW110447   5.534   1.272   5.745  1.8822  0.8218 -0.0809
 3009SOL    HW210448   5.501   1.126   5.724 -0.1649  1.0015  1.6160
 3010SOL     OW10449   3.436   6.545   5.549 -0.2613  0.3420 -0.8033
 3010SOL    HW110450   3.520   6.546   5.503 -0.2237 -0.0766 -0.7469
 3010SOL    HW210451   3.432   6.458   5.590 -0.5321  0.5142 -0.4573
 3011SOL     OW10452   6.314   6.948   2.540 -0.3762 -0.3127 -0.4256
 3011SOL    HW110453   6.311   6.956   2.444  0.6560 -3.1588 -0.7983
 3011SOL    HW210454   6.399   6.984   2.564 -0.1359 -0.6654 -0.7335
 3012SOL     OW10455   6.297   2.342   1.806 -0.4051  0.1924  0.4477
 3012SOL    HW110456   6.310   2.296   1.889  1.1109  1.9465  1.2598
 3012SOL    HW210457   6.204   2.364   1.805 -0.6435 -0.7081  1.1978
 3013SOL     OW10458   8.100   1.095   5.255  0.1970 -0.0846 -0.2284
 3013SOL    HW110459   8.086   1.027   5.189 -1.2043  0.7009 -0.7868
 3013SOL    HW210460   8.012   1.118   5.285  0.7954 -0.5481  2.0871
 3014SOL     OW10461   2.364   8.363   7.028 -0.1299  0.1237 -0.4334
 3014SOL    HW110462   2.304   8.410   6.970  0.5838 -1.0930 -2.2626
 3014SOL    HW210463   2.315   8.284   7.053 -0.9433  1.2237  1.8186
 3015SOL     OW10464   5.466   3.074   0.539  0.0126 -0.2832 -0.2353
 3015SOL    HW110465   5.447   3.083   0.633 -0.9580  1.1457 -0.5428
 3015SOL    HW210466   5.407   3.004   0.509 -1.0134  0.5067 -0.1224
 3016SOL     OW10467   0.259   6.984   4.842  0.0500  0.3458 -0.1679
 3016SOL    HW110468   0.276   6.949   4.929  0.3454  0.0149 -0.3576
 3016SOL    HW210469   0.344   6.983   4.798 -0.1143  0.4224 -0.4935
 3017SOL     OW10470   0.373   4.874   2.299 -0.4785 -0.1435 -0.0744
 3017SOL    HW110471   0.303   4.860   2.362 -1.6353  0.6519 -1.1412
 3017SOL    HW210472   0.446   4.908   2.351 -1.2647  0.0856  0.8953
 3018SOL     OW10473   3.660   5.679   4.908 -0.5013 -0.2520 -0.6091
 3018SOL    HW110474   3.720   5.635   4.848  1.5109  0.6083  0.6694
 3018SOL    HW210475   3.651   5.619   4.982 -0.8319 -0.1603 -0.5716
 3019SOL     OW10476   4.419   0.883   7.253 -0.4506  0.1421  0.4485
 3019SOL    HW110477   4.370   0.804   7.275  1.4104 -1.0671  0.4651
 3019SOL    HW210478   4.488   0.888   7.320  1.3093  0.0529 -1.2508
 3020SOL     OW10479   6.027   6.664   0.733 -0.1621 -0.3077 -0.2491
 3020SOL    HW110480   6.037   6.627   0.820 -1.2013 -0.3883 -0.1490
 3020SOL    HW210481   6.037   6.758   0.745 -2.0941 -0.1360  0.2847
 3021SOL     OW10482   6.698   5.035   5.534 -0.4491  0.1248 -0.3126
 3021SOL    HW110483   6.632   4.989   5.587  1.1163 -0.5381  1.1313
 3021SOL    HW210484   6.763   5.064   5.597  0.5781  0.9223 -1.6956
 3022SOL     OW10485   7.422   1.088   5.108  0.2429  0.2152  0.0302
 3022SOL    HW110486   7.470   1.113   5.187  1.8634 -0.1724 -0.7833
 3022SOL    HW210487   7.479   1.026   5.064 -0.4589  0.6798 -1.6197
 3023SOL     OW10488   7.271   2.179   7.707  0.1126  0.3644 -0.5572
 3023SOL    HW110489   7.342   2.117   7.691  0.4027  0.6861 -0.5410
 3023SOL    HW210490   7.294   2.222   7.789  0.2568  0.9532 -0.8945
 3024SOL     OW10491   3.220   0.479   4.582  0.2371 -0.7812  0.9072
 3024SOL    HW110492   3.193   0.412   4.520 -0.0960  0.3150 -0.1754
 3024SOL    HW210493   3.310   0.457   4.605  0.0117 -1.7930  0.8784
 3025SOL     OW10494   7.058   4.463   6.454 -0.2816 -0.8913 -0.4892
 3025SOL    HW110495   7.028   4.392   6.511  1.4790 -0.2845  1.3226
 3025SOL    HW210496   7.109   4.520   6.512 -0.7432  1.2948 -2.1097
 3026SOL     OW10497   5.055   3.433   5.401  0.7955 -0.1535  0.3001
 3026SOL    HW110498   5.085   3.505   5.345 -1.1737  1.1982  0.8601
 3026SOL    HW210499   5.104   3.444   5.483  1.7578 -0.5341 -0.2067
 3027SOL     OW10500   6.642   3.642   0.487 -0.1258 -0.5720  0.5359
 3027SOL    HW110501   6.723   3.641   0.436  0.6027 -1.1534  1.6617
 3027SOL    HW210502   6.643   3.726   0.532 -0.9860  0.1321 -0.6958
 3028SOL     OW10503   7.871   3.253   3.421  0.5624 -0.1501  0.0323
 3028SOL    HW110504   7.812   3.186   3.455 -1.2168  0.8953 -0.8734
 3028SOL    HW210505   7.902   3.217   3.337  2.2995 -1.2577  1.0905
 3029SOL     OW10506   5.864   8.182   7.249 -0.0984  0.0357 -0.7370
 3029SOL    HW110507   5.808   8.199   7.173  1.9405  0.1611 -2.3059
 3029SOL    HW210508   5.945   8.146   7.212  0.4376 -1.2965  1.5189
 3030SOL     OW10509   3.749   0.918   1.767 -0.2781  0.0347  0.4467
 3030SOL    HW110510   3.814   0.858   1.731 -0.5454  0.2340 -0.3863
 3030SOL    HW210511   3.792   0.956   1.843 -0.1269 -1.2511  1.0300
 3031SOL     OW10512   4.145   0.447   4.309 -0.1860 -0.2831 -0.0429
 3031SOL    HW110513   4.192   0.434   4.391 -3.2450 -1.0361  1.7535
 3031SOL    HW210514   4.152   0.541   4.292  0.4064 -0.0952  1.1522
 3032SOL     OW10515   3.349   2.149   4.100 -0.2086 -0.6794  1.0195
 3032SOL    HW110516   3.293   2.140   4.023  0.9236  0.0999  0.0760
 3032SOL    HW210517   3.362   2.060   4.131 -0.7524 -0.9935  0.3603
 3033SOL     OW10518   0.878   0.002   7.074  0.2931  0.0996  0.3731
 3033SOL    HW110519   0.833  -0.077   7.106  0.9322  0.1926  1.5457
 3033SOL    HW210520   0.844   0.072   7.130  0.0774  0.5867 -0.3616
 3034SOL     OW10521   1.271   1.912   6.859  0.4668 -0.3664  0.3150
 3034SOL    HW110522   1.352   1.868   6.832 -0.6096 -2.8367  0.8003
 3034SOL    HW210523   1.201   1.854   6.828 -1.0308  0.4737  1.9479
 3035SOL     OW10524   0.589   7.613   5.225  0.4991  0.3094  0.2754
 3035SOL    HW110525   0.513   7.600   5.169 -0.2187 -0.1143  1.3011
 3035SOL    HW210526   0.556   7.663   5.300  1.7051  1.9730 -0.2369
 3036SOL     OW10527   0.484   5.038   3.120 -0.4557 -0.3622 -0.0530
 3036SOL    HW110528   0.432   5.101   3.070  2.2972  0.4409 -2.1636
 3036SOL    HW210529   0.530   5.091   3.185  0.5628 -0.4039 -0.7119
 3037SOL     OW10530   1.852   4.460   3.062 -0.7300  0.2936  0.3575
 3037SOL    HW110531   1.878   4.394   2.998 -0.8205  0.2115  0.4036
 3037SOL    HW210532   1.920   4.456   3.130 -1.6526 -1.0154  1.2622
 3038SOL     OW10533   5.996   5.787   1.234  0.9638  0.5320  0.0452
 3038SOL    HW110534   5.988   5.693   1.218  0.2066  0.0919  2.5848
 3038SOL    HW210535   5.923   5.826   1.185  1.1754 -0.1945 -0.8721
 3039SOL     OW10536   0.062   4.291   5.618  0.3417  0.3236  0.3573
 3039SOL    HW110537   0.067   4.380   5.653 -0.0285  0.3095  0.4492
 3039SOL    HW210538   0.122   4.240   5.672  2.2945  0.9681 -1.1120
 3040SOL     OW10539   2.664   7.333   6.004 -0.4740 -0.6317 -0.0963
 3040SOL    HW110540   2.759   7.329   6.001 -0.4649 -1.0884  0.6416
 3040SOL    HW210541   2.644   7.409   6.059 -0.5125 -1.2762  0.8094
 3041SOL     OW10542   5.696   6.469   6.550 -0.1646 -0.0114  0.3114
 3041SOL    HW110543   5.674   6.384   6.513  2.8864 -0.3100 -1.1638
 3041SOL    HW210544   5.668   6.533   6.485  0.9048 -0.2054 -0.3649
 3042SOL     OW10545   5.511   2.327   2.874  0.4493 -0.0589  0.0200
 3042SOL    HW110546   5.545   2.238   2.867  1.1840  0.2436 -0.4322
 3042SOL    HW210547   5.433   2.328   2.818  0.1922 -0.5294  0.3679
 3043SOL     OW10548   1.544   0.441   6.035  0.1158 -0.0482  0.3669
 3043SOL    HW110549   1.618   0.498   6.056 -1.6353  2.5872 -0.0818
 3043SOL    HW210550   1.513   0.472   5.950 -1.1458 -1.4736  0.2635
 3044SOL     OW10551   7.540   4.341   4.995 -1.2544 -0.1008  0.3824
 3044SOL    HW110552   7.475   4.411   4.989  0.4468  1.5140 -0.2878
 3044SOL    HW210553   7.622   4.382   4.968  0.0688 -2.0465  1.1950
 3045SOL     OW10554   3.495   4.928   2.136 -0.6491  0.7988 -0.0873
 3045SOL    HW110555   3.494   4.916   2.041  0.5933  3.3717 -0.5019
 3045SOL    HW210556   3.585   4.911   2.161 -1.2919 -1.4645  0.9670
 3046SOL     OW10557   3.213   3.463   5.869  0.0102  0.2991  0.1154
 3046SOL    HW110558   3.130   3.431   5.905 -0.2774 -1.2887 -1.7689
 3046SOL    HW210559   3.259   3.383   5.843  0.9800  1.2709 -1.2652
 3047SOL     OW10560   4.217   4.011   5.304 -0.1551  0.7562  0.3682
 3047SOL    HW110561   4.143   4.038   5.358  0.1801 -1.2845  1.9753
 3047SOL    HW210562   4.179   3.953   5.238 -0.2848  1.6483 -0.3619
 3048SOL     OW10563   4.239   4.899   3.985 -0.2121 -0.0679 -0.3906
 3048SOL    HW110564   4.246   4.861   4.072  3.4430 -0.2883 -0.6251
 3048SOL    HW210565   4.256   4.993   3.998  3.0739 -0.4726 -1.0101
 3049SOL     OW10566   7.134   6.775   7.640  0.2955 -0.1030 -0.1259
 3049SOL    HW110567   7.207   6.788   7.579  1.3279 -0.6623  0.9558
 3049SOL    HW210568   7.146   6.842   7.707 -0.2602 -0.1181 -0.0072
 3050SOL     OW10569   3.086   7.060   8.337 -0.6055  0.0764 -0.2648
 3050SOL    HW110570   2.997   7.060   8.372 -0.7561  0.7168 -0.6203
 3050SOL    HW210571   3.082   7.000   8.262 -0.4933 -0.6321  0.2862
 3051SOL     OW10572   4.363   1.387   2.886  0.7043  0.0841  0.1834
 3051SOL    HW110573   4.348   1.359   2.977 -0.3113  0.6916  0.2187
 3051SOL    HW210574   4.325   1.318   2.833  2.6057 -1.0068  0.1665
 3052SOL     OW10575   5.931   4.963   0.963 -0.3738 -0.5625  0.9909
 3052SOL    HW110576   5.838   4.942   0.958 -0.4677 -0.1886  1.1932
 3052SOL    HW210577   5.975   4.880   0.942 -0.7213 -1.5109  3.5849
 3053SOL     OW10578   8.151   3.956   2.601 -0.3877 -0.0747  0.1494
 3053SOL    HW110579   8.165   4.033   2.656 -0.1075  1.2179 -1.6092
 3053SOL    HW210580   8.230   3.903   2.614  0.6002  1.1854 -0.4738
 3054SOL     OW10581   2.979   6.704   2.897 -0.0817 -0.0817 -0.3751
 3054SOL    HW110582   2.939   6.627   2.859 -0.0875  0.9399 -2.6017
 3054SOL    HW210583   3.063   6.713   2.852 -0.4741  1.6871 -0.8618
 3055SOL     OW10584   4.701   7.581   8.049  0.0243  0.3770  0.3671
 3055SOL    HW110585   4.696   7.552   7.957 -1.6723 -2.1550  1.1472
 3055SOL    HW210586   4.631   7.647   8.056  1.9920  2.7598 -0.7206
 3056SOL     OW10587   2.374   1.842   4.572  0.3386 -0.2766  0.0221
 3056SOL    HW110588   2.352   1.834   4.479 -1.3568 -1.4442  0.4608
 3056SOL    HW210589   2.354   1.933   4.594 -0.6528 -0.3691 -0.4519
 3057SOL     OW10590   3.037   7.190   1.419  0.2601 -0.0300  0.3371
 3057SOL    HW110591   3.100   7.119   1.411 -0.8784 -0.8835 -2.1816
 3057SOL    HW210592   3.088   7.269   1.401  0.9703 -0.5083  0.2333
 3058SOL     OW10593   6.083   3.325   5.991 -0.0426  0.5682  0.4677
 3058SOL    HW110594   5.988   3.323   5.981 -0.0109 -0.8734  0.1572
 3058SOL    HW210595   6.106   3.418   5.996 -1.3172  0.9749 -0.8760
 3059SOL     OW10596   7.922   5.525   5.565  0.0992  0.1238  0.3855
 3059SOL    HW110597   7.872   5.537   5.484 -1.7899  0.7241  1.5968
 3059SOL    HW210598   8.007   5.565   5.546 -0.3673  0.4478 -1.2189
 3060SOL     OW10599   3.348   7.584   4.560  0.1880 -0.3800  0.3944
 3060SOL    HW110600   3.365   7.491   4.575 -0.3899 -0.1721  2.8066
 3060SOL    HW210601   3.284   7.607   4.628 -0.6241  1.5096 -0.9367
 3061SOL     OW10602   3.740   1.218   8.209  0.3972 -0.1000  0.0205
 3061SOL    HW110603   3.725   1.168   8.289  2.3325  1.0412  1.1987
 3061SOL    HW210604   3.833   1.204   8.189  0.1316  0.2156 -1.6454
 3062SOL     OW10605   5.498   0.286   2.474 -0.3089 -0.1689  0.0589
 3062SOL    HW110606   5.485   0.223   2.545  0.3199 -1.7630 -1.1690
 3062SOL    HW210607   5.590   0.274   2.449  0.3924  2.6277  1.0225
 3063SOL     OW10608   1.083   4.711   0.120  0.7756 -0.1377  0.0678
 3063SOL    HW110609   1.053   4.670   0.202  0.1004  0.0475 -0.0763
 3063SOL    HW210610   1.008   4.703   0.061  1.4073 -0.6755 -0.6939
 3064SOL     OW10611   4.069   6.496   7.790  0.2175  0.5361 -0.4156
 3064SOL    HW110612   4.084   6.492   7.695 -0.5041  2.9671 -0.7007
 3064SOL    HW210613   4.138   6.554   7.823 -0.1453  0.5213  0.3915
 3065SOL     OW10614   4.517   1.316   1.329 -0.1636  0.0368  0.1186
 3065SOL    HW110615   4.604   1.286   1.303 -0.8593 -1.0941 -1.0136
 3065SOL    HW210616   4.482   1.245   1.383 -0.5430  0.3010  0.2263
 3066SOL     OW10617   7.912   7.595   0.215 -0.5623 -0.0001  0.1858
 3066SOL    HW110618   7.929   7.672   0.270  0.9164 -0.9286  1.0941
 3066SOL    HW210619   7.998   7.569   0.183 -1.2747 -0.0377 -1.8896
 3067SOL     OW10620   2.276   2.392   6.798  0.0470 -0.5884 -0.1202
 3067SOL    HW110621   2.226   2.440   6.731  0.6123 -0.2094 -0.2802
 3067SOL    HW210622   2.242   2.303   6.794 -0.3738 -0.4192 -0.4673
 3068SOL     OW10623   2.990   0.548   2.166  0.0532 -0.2350 -0.4455
 3068SOL    HW110624   3.006   0.534   2.073  1.8845  1.0541 -0.3893
 3068SOL    HW210625   3.035   0.475   2.209  0.6671  0.0772 -0.5362
 3069SOL     OW10626   6.870   7.711   3.234 -0.7772 -0.0631  0.7105
 3069SOL    HW110627   6.829   7.634   3.194 -1.5043 -0.3583  1.9707
 3069SOL    HW210628   6.798   7.775   3.241 -0.1175  0.8715 -0.6035
 3070SOL     OW10629   0.112   7.470   3.272 -0.3957  0.5827 -0.5003
 3070SOL    HW110630   0.166   7.423   3.335 -3.8704 -1.5202  1.2568
 3070SOL    HW210631   0.112   7.561   3.303  1.2484  0.4352  0.0161
 3071SOL     OW10632   7.195   5.671   4.015 -0.0965 -0.3509 -0.1442
 3071SOL    HW110633   7.281   5.640   4.044 -0.6281  0.2961  2.3191
 3071SOL    HW210634   7.142   5.592   4.007 -0.4766 -0.4696  2.7112
 3072SOL     OW10635   4.005   7.195   4.291 -0.1074  0.0017 -0.0907
 3072SOL    HW110636   3.974   7.152   4.212 -1.2215 -0.8198  0.7635
 3072SOL    HW210637   4.028   7.284   4.263  0.5538 -0.5905 -1.5290
 3073SOL     OW10638   1.073   3.970   0.333  0.8120 -0.0585  0.7647
 3073SOL    HW110639   1.060   3.884   0.293 -0.5776 -0.3989  1.8626
 3073SOL    HW210640   1.165   3.991   0.314  1.5133 -2.2529  1.3298
 3074SOL     OW10641   5.403   6.927   7.332 -0.1176 -0.3486 -0.6782
 3074SOL    HW110642   5.401   6.973   7.416 -0.5742  0.7297 -1.2612
 3074SOL    HW210643   5.454   6.848   7.349  0.9934  0.5374  0.2728
 3075SOL     OW10644   5.700   7.712   2.423 -0.4075  0.0165  0.5184
 3075SOL    HW110645   5.663   7.761   2.497  1.3677  0.0844  1.4320
 3075SOL    HW210646   5.774   7.766   2.394  0.1307 -0.9812  0.0068
 3076SOL     OW10647   1.970   4.095   3.536  0.3934 -0.4018 -0.1190
 3076SOL    HW110648   1.888   4.045   3.527  1.5851 -2.4700 -0.1107
 3076SOL    HW210649   1.950   4.161   3.602 -1.0546 -1.3617  0.4567
 3077SOL     OW10650   0.333   0.565   2.754 -0.0365  0.3272 -0.2239
 3077SOL    HW110651   0.306   0.656   2.768  0.5697  0.3147  1.1919
 3077SOL    HW210652   0.422   0.561   2.790 -0.1731 -0.9108  0.0187
 3078SOL     OW10653   3.814   5.134   4.245  0.1335 -0.3037  0.3254
 3078SOL    HW110654   3.718   5.125   4.247  0.2888 -2.7607 -0.2006
 3078SOL    HW210655   3.836   5.129   4.152  0.7562  1.0628  0.3761
 3079SOL     OW10656   6.567   0.181   7.989 -0.4772 -0.3514 -0.2120
 3079SOL    HW110657   6.606   0.166   8.075 -0.7718 -0.3245 -0.0706
 3079SOL    HW210658   6.520   0.099   7.969 -0.9898 -0.1092 -0.0305
 3080SOL     OW10659   4.119   4.864   2.743  0.2381  0.4742 -0.1711
 3080SOL    HW110660   4.141   4.774   2.720  0.4538  0.0872  1.4095
 3080SOL    HW210661   4.189   4.892   2.802 -1.4100  0.5690  1.8401
 3081SOL     OW10662   8.070   5.848   4.355  0.0022  0.2311  0.4898
 3081SOL    HW110663   8.023   5.837   4.438 -1.0220  1.6773  0.1299
 3081SOL    HW210664   8.060   5.763   4.311 -0.7822 -0.0459  1.1734
 3082SOL     OW10665   0.987   7.205   5.925  0.5111  0.0710  0.2746
 3082SOL    HW110666   1.022   7.262   5.994  0.2114 -0.0930  0.5652
 3082SOL    HW210667   1.010   7.249   5.843  3.7219 -1.2784  0.3180
 3083SOL     OW10668   0.979   6.141   3.894  0.0675  0.1873  0.1797
 3083SOL    HW110669   1.013   6.074   3.835  0.2038  0.5073 -0.1060
 3083SOL    HW210670   0.949   6.211   3.837 -1.1323 -0.1031  0.4168
 3084SOL     OW10671   3.804   3.199   0.089  0.6989  0.3353 -0.8966
 3084SOL    HW110672   3.759   3.208   0.006  2.6288  2.7801 -1.8074
 3084SOL    HW210673   3.844   3.112   0.086 -0.3341 -0.1253 -1.9013
 3085SOL     OW10674   2.923   0.889   4.453  0.7663  0.3442  0.0124
 3085SOL    HW110675   2.883   0.818   4.505  0.6737  1.7759  1.9941
 3085SOL    HW210676   2.850   0.947   4.432  1.0729  0.5855 -0.3997
 3086SOL     OW10677   8.325   2.273   1.377 -0.3340 -0.0328  0.1840
 3086SOL    HW110678   8.320   2.340   1.309 -1.9736 -0.5543 -0.2515
 3086SOL    HW210679   8.394   2.214   1.348 -1.6199 -0.7525 -1.5337
 3087SOL     OW10680   7.256   6.820   7.393  0.3263 -0.0811  0.1505
 3087SOL    HW110681   7.347   6.799   7.375 -0.0221 -1.7115  0.1540
 3087SOL    HW210682   7.207   6.777   7.323 -0.5183 -0.3248  0.8717
 3088SOL     OW10683   0.825   2.245   1.167 -0.1003  0.6254  0.7636
 3088SOL    HW110684   0.865   2.189   1.100  0.0760  0.0812  1.3126
 3088SOL    HW210685   0.870   2.329   1.160 -0.0926  0.5759  0.1953
 3089SOL     OW10686   1.412   1.357   4.507  0.9552  0.2826  0.1474
 3089SOL    HW110687   1.372   1.274   4.481 -0.3598  0.8099  0.4363
 3089SOL    HW210688   1.392   1.366   4.600  0.9503  1.0075  0.0791
 3090SOL     OW10689   6.065   5.786   4.757  0.0915  0.0283 -0.0743
 3090SOL    HW110690   6.082   5.878   4.774  0.3888 -0.1627  0.7109
 3090SOL    HW210691   6.067   5.778   4.662  1.4456  0.5702 -0.1052
 3091SOL     OW10692   7.389   0.531   6.283  0.2833  0.1444 -0.3823
 3091SOL    HW110693   7.391   0.576   6.367  1.4138 -1.3623  0.4500
 3091SOL    HW210694   7.315   0.471   6.289  2.0364 -2.0417  0.7520
 3092SOL     OW10695   0.400   2.648   1.067 -0.0043  0.5803  0.1224
 3092SOL    HW110696   0.436   2.621   1.151  0.7782  0.6411 -0.1860
 3092SOL    HW210697   0.476   2.679   1.017 -0.2391 -0.7530 -1.1121
 3093SOL     OW10698   3.540   0.950   7.431  0.4965 -0.2357 -0.2376
 3093SOL    HW110699   3.632   0.974   7.423  0.6623  0.1964  2.1522
 3093SOL    HW210700   3.517   0.973   7.521 -1.9931 -0.2316 -0.8036
 3094SOL     OW10701   0.231   2.373   1.105 -0.0504  0.9789 -0.4616
 3094SOL    HW110702   0.308   2.426   1.083 -0.3189  0.8941 -1.7231
 3094SOL    HW210703   0.165   2.398   1.040 -0.5226 -0.1494 -0.4449
 3095SOL     OW10704   6.640   5.215   5.372  0.0474  0.2929 -0.0963
 3095SOL    HW110705   6.561   5.265   5.394 -0.4531  0.0580 -1.2459
 3095SOL    HW210706   6.649   5.151   5.443 -0.7057  0.4307  0.1318
 3096SOL     OW10707   7.769   4.133   3.542 -0.0035 -0.0791  0.3687
 3096SOL    HW110708   7.833   4.153   3.611 -0.4359 -0.0757  0.7699
 3096SOL    HW210709   7.823   4.118   3.464  0.4342  0.8512  0.4840
 3097SOL     OW10710   3.674   4.304   6.077 -0.6249  0.2807  0.4694
 3097SOL    HW110711   3.713   4.388   6.101 -0.6861  0.7858 -1.0441
 3097SOL    HW210712   3.579   4.321   6.078 -0.6170  0.4570 -0.5117
 3098SOL     OW10713   8.190   5.562   4.563  0.0285 -0.2868 -0.0625
 3098SOL    HW110714   8.278   5.525   4.553  1.8450  3.5829 -0.0281
 3098SOL    HW210715   8.144   5.536   4.483  1.3713 -1.8390 -0.3901
 3099SOL     OW10716   0.065   4.601   4.749 -0.1969  0.0507  0.4374
 3099SOL    HW110717   0.055   4.554   4.831 -1.3395  0.5135  0.5869
 3099SOL    HW210718  -0.021   4.640   4.733  0.2955  0.8235 -0.4505
 3100SOL     OW10719   6.144   6.181   6.327  0.7092  0.2087  0.4235
 3100SOL    HW110720   6.235   6.152   6.333  0.7814  0.1567 -0.6770
 3100SOL    HW210721   6.105   6.123   6.262  0.3918  1.4386 -0.5251
 3101SOL     OW10722   5.586   5.101   8.241  0.0495 -0.7202  0.0482
 3101SOL    HW110723   5.502   5.117   8.284 -0.1622  0.3278 -0.7338
 3101SOL    HW210724   5.583   5.008   8.217 -0.7299 -0.7782  0.3385
 3102SOL     OW10725   5.497   2.180   5.164 -0.1004  0.3554 -0.2482
 3102SOL    HW110726   5.418   2.208   5.209 -0.4109 -0.1836 -0.4366
 3102SOL    HW210727   5.539   2.118   5.224  0.5424  1.1353  0.1364
 3103SOL     OW10728   0.403   8.205   6.411 -0.0235  0.3730  0.0865
 3103SOL    HW110729   0.498   8.194   6.414 -0.0490  0.3645  1.4510
 3103SOL    HW210730   0.378   8.227   6.501 -1.5936 -2.1139  0.3672
 3104SOL     OW10731   4.831   5.054   4.342  0.5165  0.2175 -0.9488
 3104SOL    HW110732   4.882   4.984   4.302 -0.5429 -1.2651  0.1600
 3104SOL    HW210733   4.740   5.032   4.322  0.0672  0.3637  0.7606
 3105SOL     OW10734   1.548   0.265   7.682 -0.3156 -0.1523  0.1438
 3105SOL    HW110735   1.516   0.228   7.764 -2.7636 -0.4913 -0.8816
 3105SOL    HW210736   1.511   0.354   7.679  2.5719  1.2204  0.9094
 3106SOL     OW10737   3.633   8.115   5.096 -0.2306 -0.2314 -0.0964
 3106SOL    HW110738   3.553   8.127   5.148 -0.4325 -1.1148 -0.2010
 3106SOL    HW210739   3.667   8.030   5.123 -1.0904 -1.3928 -2.3964
 3107SOL     OW10740   3.522   0.059   1.720 -0.2929  0.0784  0.8473
 3107SOL    HW110741   3.501   0.004   1.644 -1.6208 -0.1439  1.3396
 3107SOL    HW210742   3.567   0.135   1.683 -0.9035 -0.0267 -0.1780
 3108SOL     OW10743   1.180   5.384   2.217 -0.6315  0.6854  0.1334
 3108SOL    HW110744   1.240   5.389   2.291 -1.5808  1.7137  0.8569
 3108SOL    HW210745   1.191   5.295   2.184 -1.3407 -0.3436  2.4824
 3109SOL     OW10746   2.120   1.820   6.708  0.2832  0.2770 -0.0676
 3109SOL    HW110747   2.129   1.763   6.631 -0.1447  1.5993 -1.1469
 3109SOL    HW210748   2.210   1.848   6.728  0.2947  0.7677 -0.7687
 3110SOL     OW10749   6.125   8.367   4.139 -0.4042  0.6592 -0.4852
 3110SOL    HW110750   6.173   8.448   4.158  0.3440  0.1827 -0.2645
 3110SOL    HW210751   6.166   8.334   4.059  0.3381 -0.2674  0.2526
 3111SOL     OW10752   8.254   0.360   3.682  0.2035 -0.9895  0.0119
 3111SOL    HW110753   8.192   0.397   3.620  0.7692  0.6895  0.3943
 3111SOL    HW210754   8.201   0.307   3.741 -0.7279 -0.3443 -0.2279
 3112SOL     OW10755   1.896   0.780   3.705 -0.0424  0.0488 -0.0519
 3112SOL    HW110756   1.915   0.696   3.664 -1.5861 -0.7625  0.7996
 3112SOL    HW210757   1.836   0.823   3.644  0.6404  0.4849 -0.4229
 3113SOL     OW10758   6.932   1.192   5.220  0.1406  0.2308 -0.4575
 3113SOL    HW110759   6.956   1.204   5.312  0.0079  0.1819 -0.4165
 3113SOL    HW210760   7.002   1.235   5.171  1.2074 -1.3173 -0.3737
 3114SOL     OW10761   5.788   2.930   3.800  0.0966  0.1775  0.0205
 3114SOL    HW110762   5.767   2.959   3.711 -3.3944  0.0176  0.6399
 3114SOL    HW210763   5.748   2.843   3.807  1.1927 -0.2493  1.4485
 3115SOL     OW10764   7.745   4.866   2.454  0.0734  0.3123 -0.1212
 3115SOL    HW110765   7.772   4.787   2.408 -1.1057 -0.1590 -0.0265
 3115SOL    HW210766   7.805   4.872   2.528 -0.6657 -1.2684  0.6553
 3116SOL     OW10767   1.896   1.819   8.080  0.0160 -0.2753 -0.1027
 3116SOL    HW110768   1.909   1.730   8.112  2.0681  0.1305  0.3407
 3116SOL    HW210769   1.923   1.815   7.988  0.3153 -0.0846 -0.0253
 3117SOL     OW10770   2.614   0.673   1.064  0.0187  0.3842 -0.4243
 3117SOL    HW110771   2.674   0.724   1.010 -0.2681  1.1375 -0.0363
 3117SOL    HW210772   2.588   0.600   1.008  0.1115  0.8838 -1.1318
 3118SOL     OW10773   3.513   3.025   0.635  0.2275 -0.2104 -0.1657
 3118SOL    HW110774   3.514   3.102   0.577  0.4319  0.3170  0.5233
 3118SOL    HW210775   3.489   2.953   0.577  0.7184  0.2477 -0.9745
 3119SOL     OW10776   7.592   7.778   0.794  0.0634 -0.4059 -0.0920
 3119SOL    HW110777   7.673   7.828   0.801 -0.7373  0.8556  0.7268
 3119SOL    HW210778   7.612   7.692   0.831  0.8345  0.1374  0.7732
 3120SOL     OW10779   7.914   6.764   7.889 -0.0627 -0.2254 -0.0539
 3120SOL    HW110780   8.003   6.731   7.873 -0.2545 -0.5835 -0.3822
 3120SOL    HW210781   7.863   6.686   7.911 -0.6996 -0.2792 -1.6095
 3121SOL     OW10782   4.158   3.032   8.225 -0.1094 -0.3358  0.3069
 3121SOL    HW110783   4.217   3.072   8.290 -0.8271  1.2559  0.0379
 3121SOL    HW210784   4.081   3.089   8.225 -0.0987 -0.2267 -1.9723
 3122SOL     OW10785   4.836   6.494   5.968  0.2495 -0.5102  0.2065
 3122SOL    HW110786   4.881   6.409   5.961 -0.1540 -0.9312  2.1724
 3122SOL    HW210787   4.749   6.472   6.000 -0.4347  0.5510 -0.8512
 3123SOL     OW10788   4.686   4.717   0.115  0.4165 -0.3554  0.0835
 3123SOL    HW110789   4.733   4.691   0.193  1.2675  0.9575  0.0285
 3123SOL    HW210790   4.594   4.716   0.141  0.7082  0.2974  1.1683
 3124SOL     OW10791   5.855   0.399   7.681  0.1350  0.2088 -0.6845
 3124SOL    HW110792   5.938   0.370   7.721  0.5261  1.3033 -0.6585
 3124SOL    HW210793   5.791   0.389   7.751  0.6209  1.1222 -0.0833
 3125SOL     OW10794   2.203   7.354   5.983  0.1098 -0.3000 -0.0917
 3125SOL    HW110795   2.267   7.404   5.932  0.2758 -0.0341  0.3731
 3125SOL    HW210796   2.125   7.351   5.928 -0.5504  2.0719  0.6051
 3126SOL     OW10797   4.619   7.448   4.881 -0.1565  0.5597  0.1814
 3126SOL    HW110798   4.578   7.524   4.922 -1.0490  0.5738 -0.7134
 3126SOL    HW210799   4.557   7.376   4.895  0.7166 -0.0522  1.0975
 3127SOL     OW10800   2.071   3.419   5.572  0.1093  0.0515 -0.2570
 3127SOL    HW110801   1.995   3.369   5.543 -0.7265  1.3206 -0.2978
 3127SOL    HW210802   2.073   3.407   5.667  0.6814 -1.0904 -0.3953
 3128SOL     OW10803   0.343   4.478   6.446  0.4931  0.5418  0.0995
 3128SOL    HW110804   0.403   4.428   6.391 -0.6128 -0.5709 -0.1292
 3128SOL    HW210805   0.334   4.562   6.401 -1.6411 -0.8770 -2.4422
 3129SOL     OW10806   3.706   6.923   6.986  0.5327  0.4150 -0.0093
 3129SOL    HW110807   3.670   6.995   6.934 -0.5011  0.2418  0.4294
 3129SOL    HW210808   3.705   6.847   6.927 -0.0829  0.3543  0.0690
 3130SOL     OW10809   5.334   0.438   4.465  0.3339 -0.3269 -0.3903
 3130SOL    HW110810   5.249   0.478   4.486  0.1828 -0.2661 -1.0955
 3130SOL    HW210811   5.392   0.513   4.450  1.1402 -0.2827  2.2963
 3131SOL     OW10812   4.725   6.126   0.343  0.4701  0.1575 -0.5541
 3131SOL    HW110813   4.647   6.180   0.356 -0.1000 -1.2090  2.9033
 3131SOL    HW210814   4.795   6.172   0.388  0.4267 -0.9502  0.7228
 3132SOL     OW10815   2.282   4.879   4.204 -0.3680  0.2538  0.0196
 3132SOL    HW110816   2.244   4.802   4.161 -0.8885 -0.4642  1.6857
 3132SOL    HW210817   2.376   4.864   4.200 -0.1485  1.5770 -3.2767
 3133SOL     OW10818   2.897   3.125   5.798  0.2005  0.1168  0.0586
 3133SOL    HW110819   2.867   3.142   5.887 -0.0296  1.3849 -0.2387
 3133SOL    HW210820   2.857   3.041   5.775  0.2910 -0.2418  1.1512
 3134SOL     OW10821   5.202   7.820   0.931  0.1365 -0.5565 -0.3339
 3134SOL    HW110822   5.179   7.840   1.021  0.1423 -1.2553 -0.1732
 3134SOL    HW210823   5.150   7.881   0.879  1.5244  1.1590  0.1923
 3135SOL     OW10824   5.206   6.221   5.353 -0.3005 -0.5596  0.4545
 3135SOL    HW110825   5.274   6.233   5.286  1.1258  0.4567  1.9994
 3135SOL    HW210826   5.239   6.269   5.429 -2.7086 -0.1629  1.3314
 3136SOL     OW10827   6.287   1.310   3.866 -0.1018  0.0264 -0.0944
 3136SOL    HW110828   6.358   1.286   3.926  0.1980  0.8749 -0.0927
 3136SOL    HW210829   6.219   1.347   3.922  0.0808  0.6017 -0.2472
 3137SOL     OW10830   1.539   3.686   3.900  0.0510  0.2011 -0.3011
 3137SOL    HW110831   1.451   3.688   3.862 -0.1893 -0.8727  0.1510
 3137SOL    HW210832   1.525   3.657   3.990  0.8754 -0.0623 -0.2490
 3138SOL     OW10833   7.409   1.422   2.243  0.1033 -0.0289 -0.3338
 3138SOL    HW110834   7.315   1.416   2.263  0.3266  0.8473  1.1499
 3138SOL    HW210835   7.414   1.485   2.172 -0.4715 -0.5345 -0.8378
 3139SOL     OW10836   8.173   6.849   5.852 -0.1520 -0.3813 -0.1755
 3139SOL    HW110837   8.257   6.877   5.890  0.0286 -1.2376  0.0772
 3139SOL    HW210838   8.186   6.757   5.830 -1.1883 -0.6622  0.3259
 3140SOL     OW10839   3.823   5.259   4.850  0.4003 -0.1374  0.1803
 3140SOL    HW110840   3.753   5.305   4.895  0.1377  0.9766 -1.2953
 3140SOL    HW210841   3.892   5.324   4.840 -0.0882  0.0836 -2.1916
 3141SOL     OW10842   2.544   8.007   5.363  0.8444 -0.8503  0.0422
 3141SOL    HW110843   2.612   8.071   5.342  1.3850 -1.3742  0.1680
 3141SOL    HW210844   2.509   7.981   5.278 -0.6492  0.9363  0.0480
 3142SOL     OW10845   1.842   6.760   6.123  0.1840  0.2331  0.0809
 3142SOL    HW110846   1.851   6.770   6.218 -0.2392 -2.0767  0.4292
 3142SOL    HW210847   1.774   6.822   6.098 -0.8639 -0.2638  1.5719
 3143SOL     OW10848   7.821   3.615   2.152  0.4169  0.2600 -0.3276
 3143SOL    HW110849   7.740   3.565   2.162 -0.0598  1.2847  1.2862
 3143SOL    HW210850   7.888   3.563   2.196  0.4533 -0.1239 -0.8249
 3144SOL     OW10851   2.863   2.153   0.274  0.1042 -0.2934  0.6701
 3144SOL    HW110852   2.949   2.120   0.248  0.2608 -0.8543  1.8649
 3144SOL    HW210853   2.821   2.176   0.191  1.2546 -0.3625  0.0426
 3145SOL     OW10854   3.219   4.250   0.233  0.2935  0.1108  0.2174
 3145SOL    HW110855   3.282   4.241   0.162 -0.8621  3.5583 -1.4770
 3145SOL    HW210856   3.252   4.324   0.285 -2.3173  2.1653 -0.8515
 3146SOL     OW10857   7.633   7.705   4.034  0.1959  0.1966 -0.2040
 3146SOL    HW110858   7.723   7.719   4.065  0.0951  3.1945 -0.9896
 3146SOL    HW210859   7.625   7.760   3.957 -2.5620  0.6705  0.3182
 3147SOL     OW10860   2.618   4.349   1.912 -0.5348 -0.1504  0.6983
 3147SOL    HW110861   2.580   4.425   1.869 -0.8075 -0.9745 -0.5612
 3147SOL    HW210862   2.543   4.294   1.935 -0.2927 -0.3749  0.9746
 3148SOL     OW10863   4.567   0.185   3.466  0.7178 -0.6621  0.0406
 3148SOL    HW110864   4.515   0.217   3.392  1.4909  0.9116  0.1441
 3148SOL    HW210865   4.643   0.143   3.426 -1.5139 -5.0932 -0.2354
 3149SOL     OW10866   8.118   3.765   8.183  0.4847 -0.4937  0.0040
 3149SOL    HW110867   8.165   3.832   8.134  0.5353 -0.5179  0.0209
 3149SOL    HW210868   8.030   3.764   8.144  0.9561 -1.5613 -1.0894
 3150SOL     OW10869   0.558   3.130   4.791 -0.3292 -0.5162 -0.1728
 3150SOL    HW110870   0.538   3.159   4.880  2.0106  0.8385 -0.0174
 3150SOL    HW210871   0.624   3.062   4.802  0.7109  0.3542 -0.8850
 3151SOL     OW10872   4.537   2.290   2.563 -0.2574  0.4621 -0.0654
 3151SOL    HW110873   4.526   2.253   2.475  0.3139  1.9131 -0.7912
 3151SOL    HW210874   4.575   2.219   2.615 -0.7890 -0.4824 -0.9263
 3152SOL     OW10875   1.641   6.012   5.131 -0.0770 -0.5622 -0.0955
 3152SOL    HW110876   1.716   5.970   5.089 -0.5756  0.6949 -2.4144
 3152SOL    HW210877   1.568   5.952   5.116 -0.0248 -0.6491 -0.0013
 3153SOL     OW10878   5.946   1.807   0.663  0.3120  0.0767  0.1979
 3153SOL    HW110879   5.908   1.829   0.749 -1.3521  0.2511 -0.5546
 3153SOL    HW210880   5.900   1.864   0.601  1.2246 -0.3198 -0.8740
 3154SOL     OW10881   8.135   3.301   0.697  0.4898 -0.0565  0.2212
 3154SOL    HW110882   8.140   3.206   0.683  0.5511  0.2106 -1.9637
 3154SOL    HW210883   8.085   3.333   0.622  2.0401  1.8295 -0.0638
 3155SOL     OW10884   4.136   7.283   1.649  0.1599  0.1268 -0.4840
 3155SOL    HW110885   4.203   7.270   1.716  0.6260  0.5289 -0.8715
 3155SOL    HW210886   4.056   7.301   1.698  0.8646  2.2316 -0.0441
 3156SOL     OW10887   2.416   3.228   0.649 -0.6808  0.1705  0.2595
 3156SOL    HW110888   2.483   3.176   0.603 -1.6335 -1.3024  0.4682
 3156SOL    HW210889   2.432   3.210   0.742 -1.8836 -0.9246  0.2863
 3157SOL     OW10890   4.126   7.669   4.338 -0.0724  0.2317 -0.3829
 3157SOL    HW110891   4.109   7.642   4.429 -0.3464 -0.6845 -0.6958
 3157SOL    HW210892   4.157   7.759   4.346 -1.0532  0.5174  0.5462
 3158SOL     OW10893   2.077   1.562   5.953  0.3166 -0.0997 -0.6290
 3158SOL    HW110894   2.033   1.512   5.885 -0.3986 -0.7710  0.2951
 3158SOL    HW210895   2.101   1.497   6.019  0.3730  0.6166  0.0738
 3159SOL     OW10896   6.866   3.307   2.382  0.2605 -0.6121  0.2144
 3159SOL    HW110897   6.856   3.386   2.330  2.3596  1.5258  2.7511
 3159SOL    HW210898   6.905   3.243   2.322  1.5275  1.3296 -1.1441
 3160SOL     OW10899   6.730   4.032   1.826 -0.5383  0.0335  0.4218
 3160SOL    HW110900   6.679   4.113   1.825 -1.0124 -0.2071  1.9627
 3160SOL    HW210901   6.704   3.989   1.907  0.6309 -1.0694  0.2388
 3161SOL     OW10902   3.336   7.955   2.901  0.3547  0.0203  0.3447
 3161SOL    HW110903   3.340   8.050   2.889  1.5423  0.0194  0.5971
 3161SOL    HW210904   3.309   7.943   2.992 -0.5265  0.0978  0.1031
 3162SOL     OW10905   3.923   2.500   5.268  0.1671 -0.3389  0.1398
 3162SOL    HW110906   4.009   2.462   5.250  0.3866 -0.6553  1.7015
 3162SOL    HW210907   3.941   2.575   5.325 -0.3343  1.7162 -2.2595
 3163SOL     OW10908   3.678   4.173   4.818  0.3376 -0.0038  0.6759
 3163SOL    HW110909   3.616   4.101   4.829 -1.4572  1.3729  0.1258
 3163SOL    HW210910   3.640   4.245   4.869  1.4529  0.9250  0.2478
 3164SOL     OW10911   6.824   0.229   2.689  0.0994  1.0523  0.2091
 3164SOL    HW110912   6.744   0.198   2.732 -0.9813 -0.6904 -2.7602
 3164SOL    HW210913   6.877   0.265   2.760 -2.3940  0.2973  2.6207
 3165SOL     OW10914   0.983   0.809   4.893  0.4261  0.0252  0.4127
 3165SOL    HW110915   0.938   0.852   4.821  2.0912  0.0693 -0.6506
 3165SOL    HW210916   0.913   0.770   4.945 -1.0395  2.4934  0.4651
 3166SOL     OW10917   0.887   6.987   6.771  0.4628  0.3835  0.0374
 3166SOL    HW110918   0.911   7.061   6.715  1.3841  0.7096  0.8414
 3166SOL    HW210919   0.795   7.002   6.793  0.6262  1.2672  0.1473
 3167SOL     OW10920   3.882   0.002   7.070  0.0588  0.3830  0.0551
 3167SOL    HW110921   3.798   0.039   7.099 -0.8431 -1.2743 -0.3251
 3167SOL    HW210922   3.918   0.068   7.011 -1.0931  1.0461  0.0615
 3168SOL     OW10923   0.239   3.381   0.664 -0.0017  1.0118 -0.0826
 3168SOL    HW110924   0.173   3.396   0.732  0.3513 -0.3324  0.6131
 3168SOL    HW210925   0.322   3.375   0.712  0.4556  1.4774 -0.8021
 3169SOL     OW10926   7.754   6.837   3.183 -0.6904 -0.9660  0.1430
 3169SOL    HW110927   7.799   6.756   3.207  2.8173  1.5819  3.4341
 3169SOL    HW210928   7.676   6.839   3.239 -1.3744 -2.4094 -0.7017
 3170SOL     OW10929   7.487   1.824   1.817  0.1508  0.3486  0.0138
 3170SOL    HW110930   7.405   1.853   1.775  0.3074  0.1922 -0.4088
 3170SOL    HW210931   7.470   1.831   1.911 -0.0410  1.1765 -0.0747
 3171SOL     OW10932   0.467   6.877   7.241 -0.1644 -0.2373  0.3980
 3171SOL    HW110933   0.526   6.939   7.286 -0.3226  0.8223 -0.7924
 3171SOL    HW210934   0.411   6.843   7.311 -0.2017  1.1259  1.0773
 3172SOL     OW10935   7.196   0.800   5.913  0.3068 -0.0079  0.4296
 3172SOL    HW110936   7.167   0.737   5.847  0.5564 -0.7970  1.0649
 3172SOL    HW210937   7.122   0.808   5.973 -0.4556  1.7465 -0.6492
 3173SOL     OW10938   2.504   6.188   2.061  0.7545  0.6677  0.8204
 3173SOL    HW110939   2.571   6.197   2.129 -0.0209 -0.1762  1.7249
 3173SOL    HW210940   2.485   6.094   2.059  1.1838  0.5851 -0.9983
 3174SOL     OW10941   2.149   6.703   1.763  0.0049 -0.4398  0.1267
 3174SOL    HW110942   2.202   6.672   1.689  0.1129  0.0915 -0.0189
 3174SOL    HW210943   2.120   6.623   1.806  1.6530 -0.7564  0.7365
 3175SOL     OW10944   1.494   2.295   4.817 -0.0646 -0.0434 -0.7594
 3175SOL    HW110945   1.451   2.323   4.736  0.7456  0.3746 -1.0587
 3175SOL    HW210946   1.587   2.296   4.796  0.0748 -1.7399 -0.3804
 3176SOL     OW10947   5.585   3.425   0.536  0.3074  0.0485 -0.5416
 3176SOL    HW110948   5.576   3.387   0.448  3.3285 -0.0033 -0.9472
 3176SOL    HW210949   5.627   3.510   0.521  0.5111  0.2136  0.8187
 3177SOL     OW10950   8.009   8.266   2.142  0.5288 -0.8716  0.1685
 3177SOL    HW110951   8.087   8.308   2.178 -0.6160  1.0321  0.5545
 3177SOL    HW210952   7.939   8.288   2.203 -0.5310 -1.6001 -0.7399
 3178SOL     OW10953   2.984   1.027   1.447 -0.0848  0.1531 -0.3921
 3178SOL    HW110954   3.045   0.957   1.426 -1.6847 -1.2799 -0.4561
 3178SOL    HW210955   2.923   1.029   1.373  0.7998  2.7174 -1.1815
 3179SOL     OW10956   0.306   5.518   4.395 -0.3859 -0.8980 -0.3583
 3179SOL    HW110957   0.326   5.500   4.487 -0.8774  1.7813  0.3487
 3179SOL    HW210958   0.362   5.592   4.372 -0.8037 -1.0608 -2.0062
 3180SOL     OW10959   3.701   1.439   3.323  0.6477  0.1217 -0.0839
 3180SOL    HW110960   3.695   1.505   3.392 -0.4234 -0.6997  0.6371
 3180SOL    HW210961   3.737   1.362   3.366  0.5623 -0.2052 -0.5904
 3181SOL     OW10962   3.446   5.545   1.878  0.8965 -0.1414  0.1980
 3181SOL    HW110963   3.360   5.572   1.909  0.6117  0.2972 -0.9391
 3181SOL    HW210964   3.464   5.463   1.924 -1.5915 -2.0666 -1.9854
 3182SOL     OW10965   2.339   1.297   5.199  0.2511 -0.4295  0.1387
 3182SOL    HW110966   2.293   1.304   5.115  0.5229 -1.2142 -0.0853
 3182SOL    HW210967   2.273   1.321   5.264 -0.1596 -0.4851 -0.2517
 3183SOL     OW10968   1.456   2.643   0.404 -0.4375  0.1099 -0.6853
 3183SOL    HW110969   1.460   2.732   0.370  1.3755 -0.3694 -1.8782
 3183SOL    HW210970   1.523   2.595   0.354 -0.1077 -1.4990  1.1816
 3184SOL     OW10971   0.624   7.484   8.197 -0.1624 -0.1668  0.3092
 3184SOL    HW110972   0.678   7.539   8.253 -0.6536 -0.2933  0.9255
 3184SOL    HW210973   0.616   7.401   8.246 -1.7389  0.1932  0.7237
 3185SOL     OW10974   1.163   1.333   5.488  0.1096 -0.1802  0.1606
 3185SOL    HW110975   1.111   1.291   5.556  0.9376 -1.5957 -0.0375
 3185SOL    HW210976   1.233   1.270   5.469  0.6517  0.7496 -1.0700
 3186SOL     OW10977   1.615   6.287   0.656  0.0698  0.6173  0.4342
 3186SOL    HW110978   1.629   6.199   0.621 -0.8432  0.8767 -0.6292
 3186SOL    HW210979   1.576   6.336   0.584  3.4326  2.8487 -0.0749
 3187SOL     OW10980   0.448   5.262   4.025 -0.4099 -0.2777  0.0674
 3187SOL    HW110981   0.380   5.325   4.044  0.7754  0.2454  3.2477
 3187SOL    HW210982   0.523   5.315   3.996 -0.9263 -0.7753 -2.4760
 3188SOL     OW10983   1.448   7.947   2.947 -0.0886  0.4070 -0.0118
 3188SOL    HW110984   1.473   7.877   3.008  1.3215  0.5383 -0.4228
 3188SOL    HW210985   1.480   7.917   2.862 -1.7941  0.3629 -0.6743
 3189SOL     OW10986   2.854   3.787   5.791 -0.3592 -0.6983  0.6104
 3189SOL    HW110987   2.837   3.693   5.801 -2.5868 -0.3772  0.3502
 3189SOL    HW210988   2.791   3.816   5.726  1.3419  0.7353 -0.5093
 3190SOL     OW10989   7.833   0.896   0.815  0.9576  0.4955  0.0767
 3190SOL    HW110990   7.762   0.877   0.876  1.6090 -0.9007  0.4482
 3190SOL    HW210991   7.877   0.973   0.850  0.7325  0.2813  0.8348
 3191SOL     OW10992   5.701   7.207   0.541  0.1853  0.0374  0.5857
 3191SOL    HW110993   5.748   7.187   0.460 -0.3856  0.8991  0.0148
 3191SOL    HW210994   5.628   7.262   0.512 -0.7181 -0.6290  1.5471
 3192SOL     OW10995   2.719   6.296   2.192  0.4820  0.0497  0.8393
 3192SOL    HW110996   2.783   6.302   2.263 -0.8610  0.9524  2.0341
 3192SOL    HW210997   2.721   6.383   2.151 -0.4810  0.3630  1.3966
 3193SOL     OW10998   5.513   7.694   7.910 -0.0183 -0.7566 -0.0994
 3193SOL    HW110999   5.422   7.722   7.919 -0.5331 -1.3674 -2.7280
 3193SOL    HW211000   5.538   7.668   7.999 -2.0742  0.3285  0.8738
 3194SOL     OW11001   2.495   4.377   5.381  0.4819  0.0657  0.3504
 3194SOL    HW111002   2.513   4.413   5.294  0.0301  1.8976  0.9752
 3194SOL    HW211003   2.568   4.317   5.398  1.0885  0.4259 -0.8867
 3195SOL     OW11004   4.844   8.292   7.211  0.1830  0.0682 -0.1713
 3195SOL    HW111005   4.906   8.330   7.148  1.2011 -3.3259 -1.4222
 3195SOL    HW211006   4.765   8.278   7.160  0.3040 -0.7501 -0.1490
 3196SOL     OW11007   0.466   1.259   0.462  0.3059 -0.5207 -0.4808
 3196SOL    HW111008   0.518   1.311   0.523 -1.0810  1.2531 -0.7365
 3196SOL    HW211009   0.505   1.276   0.376 -1.8631  2.6612 -1.0292
 3197SOL     OW11010   4.859   1.851   2.642 -0.1295  0.4978  0.6265
 3197SOL    HW111011   4.920   1.829   2.712  0.0221 -0.8488  0.1111
 3197SOL    HW211012   4.812   1.769   2.626 -1.6388  1.3327  0.5760
 3198SOL     OW11013   7.108   3.295   2.211 -0.2093 -0.5670  0.2562
 3198SOL    HW111014   7.109   3.374   2.265  1.2169 -1.2322  1.2537
 3198SOL    HW211015   7.133   3.326   2.124 -1.0661  0.2827  0.2904
 3199SOL     OW11016   2.685   0.111   2.388  0.4556  0.0171  0.3348
 3199SOL    HW111017   2.750   0.059   2.437 -0.6010 -0.6302  1.1070
 3199SOL    HW211018   2.661   0.181   2.449 -1.1294 -0.9963  0.9431
 3200SOL     OW11019   0.939   4.433   5.679  0.5847 -0.1868 -0.0653
 3200SOL    HW111020   0.931   4.353   5.627  1.2935 -0.1860 -0.1853
 3200SOL    HW211021   0.872   4.424   5.747  1.4686 -1.4731  0.6743
 3201SOL     OW11022   6.524   5.881   0.611 -0.0574 -0.1109  0.0063
 3201SOL    HW111023   6.447   5.904   0.559 -0.6492  0.6124  1.1682
 3201SOL    HW211024   6.589   5.947   0.588 -0.0606 -0.2409 -0.3757
 3202SOL     OW11025   5.669   5.371   5.910 -0.0277  0.6413 -0.1492
 3202SOL    HW111026   5.677   5.395   6.003 -2.3933 -0.2859  0.3822
 3202SOL    HW211027   5.606   5.299   5.910 -1.2908  1.6328 -2.6043
 3203SOL     OW11028   5.600   1.361   3.672 -0.4863 -0.4185 -0.1270
 3203SOL    HW111029   5.662   1.414   3.621 -1.3855  1.0199  0.2168
 3203SOL    HW211030   5.557   1.306   3.607 -1.5243  1.2919 -0.9626
 3204SOL     OW11031   1.123   0.325   0.197 -0.3119 -0.0378  0.2559
 3204SOL    HW111032   1.108   0.237   0.232 -0.0110  0.8737  2.8797
 3204SOL    HW211033   1.037   0.365   0.194 -0.2280  0.1893  0.8430
 3205SOL     OW11034   7.053   8.019   1.186 -0.5541  0.0766 -0.3735
 3205SOL    HW111035   7.111   8.067   1.127 -1.5692 -1.1784 -2.4941
 3205SOL    HW211036   7.106   7.946   1.218 -0.6032 -0.4166 -1.3993
 3206SOL     OW11037   2.333   7.432   1.905  0.0973 -0.0934  0.2142
 3206SOL    HW111038   2.242   7.436   1.936 -0.7340  0.5902 -2.1216
 3206SOL    HW211039   2.359   7.341   1.921 -1.9260 -1.0347 -1.3732
 3207SOL     OW11040   2.324   6.935   3.666 -0.1319 -0.0711  0.8477
 3207SOL    HW111041   2.319   6.852   3.618  2.2045 -0.9412  1.9335
 3207SOL    HW211042   2.353   6.998   3.600  0.4504 -0.6619  0.5197
 3208SOL     OW11043   0.159   7.135   2.236  0.2252 -0.0908  0.3356
 3208SOL    HW111044   0.188   7.220   2.268  1.0513 -0.3517  0.2989
 3208SOL    HW211045   0.071   7.151   2.203  0.6601  0.9321 -0.3883
 3209SOL     OW11046   0.011   3.149   1.861  0.4648  0.5885 -0.3461
 3209SOL    HW111047   0.073   3.133   1.933  0.8816 -0.2109 -0.8699
 3209SOL    HW211048   0.023   3.241   1.838  1.8839  0.3010 -0.8287
 3210SOL     OW11049   5.446   2.856   2.359 -0.4647 -0.8686 -0.1794
 3210SOL    HW111050   5.428   2.801   2.435 -0.8172  0.3360  0.6345
 3210SOL    HW211051   5.530   2.897   2.378 -0.5639 -0.5452 -0.4289
 3211SOL     OW11052   3.308   4.981   6.503  0.6490  0.4505  0.1448
 3211SOL    HW111053   3.371   4.931   6.554 -0.8134  0.1563  1.8015
 3211SOL    HW211054   3.304   5.066   6.547 -1.5137 -0.2051  1.3808
 3212SOL     OW11055   5.845   2.290   4.887  0.3420 -0.2407 -0.9160
 3212SOL    HW111056   5.798   2.310   4.968 -0.8434 -0.7279 -1.4629
 3212SOL    HW211057   5.821   2.199   4.867  0.9883 -0.2773 -1.5793
 3213SOL     OW11058   1.190   1.596   6.942  0.4523 -0.0260 -0.4034
 3213SOL    HW111059   1.163   1.525   6.884 -1.1661  0.6902 -0.5849
 3213SOL    HW211060   1.121   1.662   6.933  1.1059  0.8940  0.9512
 3214SOL     OW11061   8.345   4.350   2.383  0.4239  0.3960 -0.3355
 3214SOL    HW111062   8.264   4.308   2.412  0.5696  0.6372  0.4677
 3214SOL    HW211063   8.337   4.440   2.415  0.5070  0.7385 -1.2557
 3215SOL     OW11064   4.934   6.541   5.068  0.2113 -0.2751  0.0695
 3215SOL    HW111065   4.964   6.632   5.065  0.5651 -0.4074 -0.8182
 3215SOL    HW211066   5.014   6.489   5.070  0.0191 -0.5669  1.8356
 3216SOL     OW11067   3.438   6.451   1.177 -0.3176 -0.5712  0.0708
 3216SOL    HW111068   3.386   6.420   1.103  0.1055  1.5459 -1.2012
 3216SOL    HW211069   3.528   6.429   1.153 -0.3628 -2.1787  1.2079
 3217SOL     OW11070   4.216   5.025   2.111 -0.6107 -0.0418 -0.1607
 3217SOL    HW111071   4.249   5.114   2.113 -2.2115  0.5957 -0.4212
 3217SOL    HW211072   4.184   5.009   2.200  0.0065 -0.5015 -0.0147
 3218SOL     OW11073   4.270   0.963   2.162 -0.2036  0.1048 -0.4244
 3218SOL    HW111074   4.205   0.935   2.226  1.6680 -0.1943  1.4551
 3218SOL    HW211075   4.260   0.902   2.089 -0.8212 -1.0468  0.6021
 3219SOL     OW11076   5.701   2.721   6.350 -0.2147 -0.8455  0.3618
 3219SOL    HW111077   5.776   2.716   6.409  0.3602 -1.2241 -0.3890
 3219SOL    HW211078   5.728   2.673   6.272 -0.4843  0.6997 -0.7311
 3220SOL     OW11079   2.213   0.908   5.385 -0.2573 -0.6179  0.1451
 3220SOL    HW111080   2.120   0.915   5.405 -0.1926  0.2720  0.1603
 3220SOL    HW211081   2.256   0.964   5.450  0.0838  0.9164 -1.3370
 3221SOL     OW11082   6.385   6.971   7.274  0.0421 -0.3608 -0.0625
 3221SOL    HW111083   6.416   6.998   7.187 -1.0096  1.0680 -0.0158
 3221SOL    HW211084   6.456   6.916   7.307  1.1006  0.2135 -1.2505
 3222SOL     OW11085   5.996   7.465   2.030  0.0062 -0.0341 -0.0183
 3222SOL    HW111086   6.086   7.498   2.028 -1.0004  3.0849  0.6107
 3222SOL    HW211087   6.003   7.379   2.071  2.8304 -0.5334 -1.2998
 3223SOL     OW11088   0.637   4.747   0.205 -0.1702  0.2809  0.4088
 3223SOL    HW111089   0.716   4.693   0.199 -0.6510 -0.4533  0.5688
 3223SOL    HW211090   0.660   4.828   0.161  0.9267  0.3777  1.1268
 3224SOL     OW11091   2.229   4.062   5.586 -0.1875  0.3354  0.1321
 3224SOL    HW111092   2.217   4.150   5.621 -0.7385  0.8464 -1.2323
 3224SOL    HW211093   2.324   4.050   5.581 -0.0871  1.3042 -0.6606
 3225SOL     OW11094   1.265   6.620   3.253  0.1285 -0.4628  0.2464
 3225SOL    HW111095   1.346   6.575   3.277  0.8333  0.8675  0.4858
 3225SOL    HW211096   1.243   6.672   3.330 -0.5643 -0.2672 -0.0763
 3226SOL     OW11097   3.002   7.076   1.137  0.5255  0.1014 -0.0677
 3226SOL    HW111098   2.997   7.100   1.229  0.1985  0.4058 -0.1606
 3226SOL    HW211099   2.915   7.097   1.102  0.8021  0.4808 -0.5586
 3227SOL     OW11100   6.582   3.221   5.445  0.3758 -0.0817 -0.0305
 3227SOL    HW111101   6.668   3.231   5.487  1.2826  2.0565 -2.1286
 3227SOL    HW211102   6.538   3.304   5.462 -0.2864 -0.2214 -0.9874
 3228SOL     OW11103   1.530   6.741   6.433 -0.0531  0.0021 -0.2817
 3228SOL    HW111104   1.500   6.810   6.492  0.2553 -0.1913  0.1031
 3228SOL    HW211105   1.468   6.669   6.447  1.2126 -0.8402  1.3729
 3229SOL     OW11106   3.226   7.885   7.455  0.6988 -0.7883  0.6215
 3229SOL    HW111107   3.315   7.850   7.448  0.1499 -2.3448  0.9910
 3229SOL    HW211108   3.198   7.861   7.544 -0.0801 -0.2788  0.5265
 3230SOL     OW11109   1.279   4.658   1.426  0.5896 -0.0710  0.2560
 3230SOL    HW111110   1.289   4.709   1.346  0.6295  0.8014  0.8069
 3230SOL    HW211111   1.265   4.723   1.494  1.5708 -0.7424  1.1229
 3231SOL     OW11112   0.493   5.777   7.933 -0.0194  0.1762 -0.1449
 3231SOL    HW111113   0.561   5.843   7.935 -0.2866  0.5239 -1.4945
 3231SOL    HW211114   0.526   5.709   7.874 -0.0918 -0.5079  0.5867
 3232SOL     OW11115   3.030   4.652   8.353 -0.0735 -0.7578  0.2710
 3232SOL    HW111116   2.982   4.650   8.270 -1.8639 -0.2858  1.2508
 3232SOL    HW211117   3.001   4.732   8.396  1.5840 -0.4884  0.9418
 3233SOL     OW11118   2.244   7.777   2.558 -0.4482 -0.0958  0.4300
 3233SOL    HW111119   2.310   7.840   2.584  0.8783 -1.2096 -0.1130
 3233SOL    HW211120   2.257   7.767   2.463 -1.2392 -0.5079  0.3565
 3234SOL     OW11121   0.636   3.942   6.308 -0.2567  0.5081 -0.2762
 3234SOL    HW111122   0.670   4.024   6.271 -1.2689 -0.7239 -4.4594
 3234SOL    HW211123   0.662   3.875   6.245 -1.3123 -2.1305  1.9077
 3235SOL     OW11124   2.284   1.086   6.239 -0.5938  0.0616  0.2582
 3235SOL    HW111125   2.362   1.091   6.294 -0.9074 -0.6968  0.7925
 3235SOL    HW211126   2.309   1.128   6.157  0.1963  0.3130  0.6222
 3236SOL     OW11127   4.673   7.996   1.931 -0.7237 -0.8333 -0.0587
 3236SOL    HW111128   4.756   7.965   1.894 -0.0178 -2.2302  2.4824
 3236SOL    HW211129   4.697   8.073   1.984 -1.3065 -0.3775 -0.4407
 3237SOL     OW11130   4.711   0.717   0.116 -0.1065 -0.1147 -0.3166
 3237SOL    HW111131   4.643   0.652   0.134  0.1399 -0.4649 -0.6419
 3237SOL    HW211132   4.793   0.671   0.135  0.1072 -0.1571 -1.3120
 3238SOL     OW11133   5.809   4.688   4.828  0.1040 -0.4037 -0.8661
 3238SOL    HW111134   5.719   4.719   4.824  0.8640  2.6345  1.7726
 3238SOL    HW211135   5.861   4.765   4.848  2.9135 -2.5135  0.8325
 3239SOL     OW11136   3.397   0.116   7.606 -0.6257  0.1859 -0.0006
 3239SOL    HW111137   3.427   0.177   7.673  0.0442  1.8970 -1.7582
 3239SOL    HW211138   3.308   0.092   7.634 -0.1162  0.2782  1.8245
 3240SOL     OW11139   6.002   0.632   0.012  0.5079 -0.0522  0.1378
 3240SOL    HW111140   6.068   0.595  -0.046  2.0073  1.5226  0.7386
 3240SOL    HW211141   6.047   0.705   0.056 -1.2000  0.1533  1.6715
 3241SOL     OW11142   0.145   8.349   3.625 -0.0651 -0.1644 -0.2843
 3241SOL    HW111143   0.218   8.395   3.583  0.5241  0.6164  1.4944
 3241SOL    HW211144   0.151   8.374   3.717 -2.8279  0.2554 -0.1395
 3242SOL     OW11145   2.668   3.700   5.014  0.1890 -0.2897  0.1480
 3242SOL    HW111146   2.718   3.621   4.990 -0.0139 -0.3220 -0.1853
 3242SOL    HW211147   2.578   3.679   4.988  0.5435  1.0948 -2.6221
 3243SOL     OW11148   5.897   2.537   6.543  0.0854 -0.9261 -0.3943
 3243SOL    HW111149   5.882   2.461   6.486  1.9221 -0.7703 -1.1731
 3243SOL    HW211150   5.993   2.544   6.547 -0.0189  2.0137 -1.2428
 3244SOL     OW11151   2.244   2.673   8.244  0.5671  0.4402  0.2413
 3244SOL    HW111152   2.266   2.710   8.330 -0.0154  1.2789  0.0531
 3244SOL    HW211153   2.324   2.630   8.214  1.1691  1.2361  0.6582
 3245SOL     OW11154   6.048   4.446   1.912  0.5006  0.2218  0.0465
 3245SOL    HW111155   6.008   4.421   1.996 -0.9787 -1.5610 -1.0966
 3245SOL    HW211156   5.981   4.499   1.869  1.3785  1.3981  0.0713
 3246SOL     OW11157   5.354   2.510   1.878  0.4733 -0.6056 -0.3287
 3246SOL    HW111158   5.371   2.596   1.840 -1.0027  0.1492  0.6205
 3246SOL    HW211159   5.331   2.455   1.804  2.3272 -0.4773 -1.0661
 3247SOL     OW11160   6.101   3.318   7.932 -0.2244 -0.4494 -0.3773
 3247SOL    HW111161   6.053   3.392   7.969  0.1731 -0.6782  0.6185
 3247SOL    HW211162   6.190   3.351   7.920  0.4870 -1.3452  2.0173
 3248SOL     OW11163   6.471   5.828   0.074 -0.5435 -0.2711  0.2909
 3248SOL    HW111164   6.409   5.811   0.003  0.1207 -0.0835 -0.3509
 3248SOL    HW211165   6.555   5.798   0.040  0.0798  1.3104  0.3610
 3249SOL     OW11166   3.444   7.854   5.697 -0.3140 -0.2508  0.2347
 3249SOL    HW111167   3.373   7.807   5.654 -2.5747  4.2397 -1.5848
 3249SOL    HW211168   3.407   7.882   5.781  0.3626 -0.3068  0.5545
 3250SOL     OW11169   5.685   0.652   2.493 -0.0675 -0.3704  0.0110
 3250SOL    HW111170   5.673   0.612   2.407 -0.4336  0.1698 -0.1973
 3250SOL    HW211171   5.716   0.740   2.474  0.3912 -0.4309  0.4533
 3251SOL     OW11172   6.914   7.596   5.417  0.2470 -0.0538 -0.1187
 3251SOL    HW111173   6.857   7.632   5.350 -0.1045 -0.1523  0.1234
 3251SOL    HW211174   6.975   7.667   5.438 -1.0517  0.7688  1.0514
 3252SOL     OW11175   7.783   5.890   0.883 -0.2108 -0.2091  0.3152
 3252SOL    HW111176   7.780   5.795   0.868 -0.0106 -0.1124 -0.4028
 3252SOL    HW211177   7.693   5.913   0.906 -0.1570 -0.6461  0.9726
 3253SOL     OW11178   0.940   7.429   4.479 -0.0424  0.0106  0.6962
 3253SOL    HW111179   0.875   7.377   4.526  0.3032 -1.0933 -0.0034
 3253SOL    HW211180   0.893   7.506   4.448 -1.2186 -1.1175 -0.4204
 3254SOL     OW11181   6.400   6.265   1.150  0.4249 -0.4818  0.2564
 3254SOL    HW111182   6.331   6.207   1.116  0.8770 -0.9441  0.1050
 3254SOL    HW211183   6.450   6.290   1.072  1.3370 -1.3723  0.5334
 3255SOL     OW11184   6.660   5.200   6.539  0.3333  0.6658 -0.2729
 3255SOL    HW111185   6.708   5.280   6.518  0.3250  0.8489  0.4040
 3255SOL    HW211186   6.653   5.154   6.455  2.7127  0.0659 -0.2126
 3256SOL     OW11187   0.076   7.395   1.260 -0.1981  0.4619 -0.4079
 3256SOL    HW111188   0.035   7.424   1.179 -0.6945  0.7093 -0.0740
 3256SOL    HW211189   0.016   7.424   1.329 -0.5410 -1.0661 -0.0346
 3257SOL     OW11190   5.042   5.640   7.453  0.6542  0.1168 -0.4995
 3257SOL    HW111191   5.034   5.724   7.409  1.8438  0.7582  0.4465
 3257SOL    HW211192   5.058   5.662   7.545  0.9102 -1.1398 -0.2141
 3258SOL     OW11193   4.982   8.133   1.160 -0.0726  0.4443 -0.4689
 3258SOL    HW111194   4.894   8.130   1.123 -0.5156 -0.2697  0.6135
 3258SOL    HW211195   5.009   8.225   1.151 -0.2522  0.3545 -2.3054
 3259SOL     OW11196   1.594   1.472   6.340  0.6847 -0.0328 -0.3048
 3259SOL    HW111197   1.645   1.552   6.347  1.1298 -0.3117 -0.3212
 3259SOL    HW211198   1.595   1.451   6.247 -0.7156  0.7591 -0.5322
 3260SOL     OW11199   2.215   6.508   7.204  0.2951  0.7167  1.0354
 3260SOL    HW111200   2.307   6.487   7.186  0.1387 -0.6047  1.5996
 3260SOL    HW211201   2.166   6.442   7.155 -0.4154  2.0383 -0.0926
 3261SOL     OW11202   3.822   2.988   0.395 -0.1745 -0.0774  0.0399
 3261SOL    HW111203   3.812   2.907   0.345  0.3901 -0.5606  0.6932
 3261SOL    HW211204   3.862   2.961   0.478 -0.2894  0.8249  0.4067
 3262SOL     OW11205   0.375   0.834   4.219 -0.0918 -0.3042 -0.2347
 3262SOL    HW111206   0.293   0.872   4.253  0.4393  1.6368 -0.9874
 3262SOL    HW211207   0.361   0.739   4.224 -2.7223 -0.0553 -1.1081
 3263SOL     OW11208   2.354   5.002   2.186 -0.3398  0.5622  0.0837
 3263SOL    HW111209   2.393   5.002   2.099 -1.0348 -0.2227 -0.2344
 3263SOL    HW211210   2.364   4.913   2.217 -1.7291  0.3737  0.0557
 3264SOL     OW11211   7.121   8.148   5.710  0.2033  0.3220 -0.0707
 3264SOL    HW111212   7.038   8.119   5.749  0.2781 -0.8624 -0.7568
 3264SOL    HW211213   7.184   8.143   5.781 -0.4430  2.0039  0.6793
 3265SOL     OW11214   3.101   5.008   6.320  0.3687  0.3359  0.2026
 3265SOL    HW111215   3.141   4.977   6.401 -1.2262 -0.1635  0.8447
 3265SOL    HW211216   3.037   4.940   6.297 -0.5423  1.3741 -0.4300
 3266SOL     OW11217   4.687   0.271   1.099 -0.1139  0.3466 -0.1791
 3266SOL    HW111218   4.715   0.319   1.177  0.1314 -0.2202  0.0851
 3266SOL    HW211219   4.631   0.333   1.052  0.4510  1.0028 -0.0067
 3267SOL     OW11220   7.455   5.763   7.002  0.5343 -0.2777  0.1903
 3267SOL    HW111221   7.538   5.807   6.985 -0.2935  1.0192 -0.6691
 3267SOL    HW211222   7.401   5.829   7.044  0.1319 -1.3076  1.3413
 3268SOL     OW11223   8.259   8.101   4.856 -0.0978  0.3479  0.4138
 3268SOL    HW111224   8.294   8.104   4.767 -1.4462  2.1795 -0.1097
 3268SOL    HW211225   8.200   8.026   4.856  0.0770  0.2023 -0.1594
 3269SOL     OW11226   5.971   1.189   2.145  0.1004 -0.1419 -0.1039
 3269SOL    HW111227   6.049   1.234   2.112  0.7562 -0.9832  0.2572
 3269SOL    HW211228   5.918   1.173   2.066  0.1789  0.6312 -0.3227
 3270SOL     OW11229   5.231   4.491   2.837 -0.0144  0.5716  0.3484
 3270SOL    HW111230   5.170   4.563   2.821 -1.6017 -0.6738  0.4689
 3270SOL    HW211231   5.234   4.483   2.932  0.8445  1.0169  0.3659
 3271SOL     OW11232   5.272   6.144   6.994  0.6759 -0.1627  0.3084
 3271SOL    HW111233   5.255   6.201   6.919 -0.2773 -0.7246  0.0792
 3271SOL    HW211234   5.360   6.167   7.022  0.6858  0.7231 -0.3935
 3272SOL     OW11235   3.713   6.192   4.994 -0.5834 -0.1108 -0.5066
 3272SOL    HW111236   3.622   6.192   4.963 -0.4998  2.5388 -1.0484
 3272SOL    HW211237   3.706   6.203   5.088 -0.9368  2.8214 -0.7822
 3273SOL     OW11238   7.363   3.333   0.393 -0.5003  0.4063 -0.5306
 3273SOL    HW111239   7.307   3.263   0.425 -1.7816  0.4343 -2.5509
 3273SOL    HW211240   7.442   3.327   0.447 -1.8573 -0.5028  1.4880
 3274SOL     OW11241   4.587   7.813   8.046 -0.1133 -0.3295  0.1111
 3274SOL    HW111242   4.660   7.848   8.097 -0.3050 -0.5188  0.5211
 3274SOL    HW211243   4.592   7.859   7.962  0.2832 -0.1095  0.2532
 3275SOL     OW11244   6.812   6.203   4.285 -0.2835  0.4778 -0.8466
 3275SOL    HW111245   6.897   6.245   4.297  0.5163 -1.0594 -0.9442
 3275SOL    HW211246   6.832   6.119   4.243 -1.7644 -0.3213 -0.0259
 3276SOL     OW11247   8.292   1.513   2.246  0.2036  0.3306  0.4688
 3276SOL    HW111248   8.279   1.557   2.162 -0.9939 -0.8874 -0.0058
 3276SOL    HW211249   8.302   1.585   2.309 -1.8350  1.3325 -0.2587
 3277SOL     OW11250   1.969   2.439   0.048  0.4218 -0.2869  0.0219
 3277SOL    HW111251   1.961   2.399  -0.039  0.0279 -0.4367  0.1288
 3277SOL    HW211252   1.919   2.521   0.041  0.4824 -0.2444  0.0770
 3278SOL     OW11253   8.089   3.728   1.564  0.4140 -0.0475 -0.2751
 3278SOL    HW111254   8.015   3.686   1.608  0.9861 -0.6257  0.1595
 3278SOL    HW211255   8.071   3.718   1.471  0.3359 -0.9019 -0.1764
 3279SOL     OW11256   5.175   0.370   6.516  0.4030  0.0475  0.5220
 3279SOL    HW111257   5.175   0.431   6.589 -1.5417  0.6665  0.0638
 3279SOL    HW211258   5.100   0.397   6.462  1.7076 -0.4059 -1.6734
 3280SOL     OW11259   4.300   4.971   5.796  0.5894 -0.1712 -0.2468
 3280SOL    HW111260   4.310   4.894   5.741 -0.5651 -0.5527  0.0432
 3280SOL    HW211261   4.355   5.038   5.755  0.0996 -0.5760 -1.6123
 3281SOL     OW11262   3.830   7.216   1.711  0.2331  0.4072 -0.2928
 3281SOL    HW111263   3.827   7.312   1.721  0.3553  0.3549  0.3209
 3281SOL    HW211264   3.890   7.187   1.780  0.3925 -0.0935 -0.6405
 3282SOL     OW11265   4.770   0.893   7.378  0.4769 -0.2420 -0.9700
 3282SOL    HW111266   4.781   0.821   7.316  0.5895  0.5715 -1.9068
 3282SOL    HW211267   4.690   0.871   7.426  0.1292 -0.6402 -1.7252
 3283SOL     OW11268   6.940   1.084   6.281  0.0850  0.3485 -0.0888
 3283SOL    HW111269   7.012   1.144   6.266 -0.4714  0.8675 -0.7630
 3283SOL    HW211270   6.953   1.053   6.371  0.5996  1.1776  0.1371
 3284SOL     OW11271   7.376   5.397   6.074  0.0636 -0.5175 -0.3166
 3284SOL    HW111272   7.382   5.348   5.992  0.1834 -1.6768  0.3561
 3284SOL    HW211273   7.467   5.416   6.097  0.0959 -1.0332  0.0140
 3285SOL     OW11274   6.621   7.778   1.688  0.1881  0.4498 -0.5413
 3285SOL    HW111275   6.681   7.726   1.742 -0.6092 -0.6515 -0.6839
 3285SOL    HW211276   6.675   7.808   1.614  1.0374  1.1396  0.3409
 3286SOL     OW11277   4.161   2.875   4.459 -0.2625 -0.4341 -0.1511
 3286SOL    HW111278   4.198   2.831   4.536 -1.1104  2.4593  2.0787
 3286SOL    HW211279   4.072   2.840   4.452 -1.0936  1.0574  1.8807
 3287SOL     OW11280   3.909   3.820   6.097 -0.2180 -0.1435  0.2866
 3287SOL    HW111281   3.892   3.881   6.025 -1.1137 -0.0804  0.5421
 3287SOL    HW211282   3.823   3.792   6.125  0.1723 -1.1276  0.5267
 3288SOL     OW11283   4.566   2.014   0.226  0.1782  0.5219 -0.4006
 3288SOL    HW111284   4.541   1.942   0.169  0.4044  1.0671 -1.2012
 3288SOL    HW211285   4.483   2.051   0.256  0.0419 -0.8907  1.1092
 3289SOL     OW11286   3.908   2.098   1.118  0.3908  0.2479  0.1939
 3289SOL    HW111287   3.859   2.159   1.174 -1.7977 -1.9621  0.8938
 3289SOL    HW211288   3.849   2.081   1.044  1.6170  0.1551 -0.7946
 3290SOL     OW11289   1.107   5.414   2.708  0.3878 -0.6635 -0.1273
 3290SOL    HW111290   1.192   5.370   2.718  1.6905  1.2209 -2.0544
 3290SOL    HW211291   1.095   5.461   2.791  1.5050 -0.5544 -0.0070
 3291SOL     OW11292   4.090   3.312   7.712  0.0036 -0.1220 -0.2447
 3291SOL    HW111293   4.124   3.245   7.654 -2.2893 -1.5238 -0.0873
 3291SOL    HW211294   4.162   3.331   7.773  2.7878  1.9210 -3.7518
 3292SOL     OW11295   7.715   8.071   8.368 -0.0258 -0.0938  0.1519
 3292SOL    HW111296   7.658   8.112   8.432  1.1751  1.6706  0.1816
 3292SOL    HW211297   7.668   8.079   8.285  0.7316  2.7492 -0.0948
 3293SOL     OW11298   0.681   2.438   3.139  0.0851  0.6004 -0.3287
 3293SOL    HW111299   0.606   2.469   3.188 -0.9081  0.3167 -1.6151
 3293SOL    HW211300   0.700   2.508   3.077 -2.1230 -1.1063 -3.1989
 3294SOL     OW11301   5.468   8.149   7.823  0.0078 -0.1394  0.2769
 3294SOL    HW111302   5.485   8.056   7.815 -0.2906 -0.0272 -2.9697
 3294SOL    HW211303   5.375   8.155   7.846 -0.0237 -0.6213  0.2822
 3295SOL     OW11304   3.398   0.468   5.049 -0.2530 -0.2748 -0.4319
 3295SOL    HW111305   3.344   0.412   5.105  0.3331  0.7464  1.2514
 3295SOL    HW211306   3.384   0.435   4.960  0.3897 -3.3463  0.4960
 3296SOL     OW11307   0.211   5.242   5.683  0.1080  0.4053 -0.1200
 3296SOL    HW111308   0.248   5.216   5.767 -0.3622 -0.7451 -0.2395
 3296SOL    HW211309   0.180   5.331   5.697 -0.9297 -0.1236  1.2780
 3297SOL     OW11310   7.395   7.075   2.686 -0.1320  0.4105  0.2767
 3297SOL    HW111311   7.382   7.086   2.592  1.7279  1.7378  0.1204
 3297SOL    HW211312   7.335   7.138   2.726  0.0801  0.8301 -0.0698
 3298SOL     OW11313   1.331   2.315   3.470 -0.5525 -0.0747  0.3403
 3298SOL    HW111314   1.367   2.330   3.383  0.9408 -0.2587  0.8913
 3298SOL    HW211315   1.402   2.273   3.518 -1.8275 -1.2809  1.2412
 3299SOL     OW11316   3.334   1.777   0.897  0.2347 -0.0154  0.3359
 3299SOL    HW111317   3.282   1.823   0.830  0.1827  0.2942  0.5839
 3299SOL    HW211318   3.374   1.704   0.850 -1.3331 -0.9437  0.3777
 3300SOL     OW11319   0.909   0.159   5.012 -0.2670 -0.1543  0.5618
 3300SOL    HW111320   0.962   0.159   4.932 -1.9495  3.0292 -0.7594
 3300SOL    HW211321   0.826   0.118   4.986 -0.5511  0.2179  0.8588
 3301SOL     OW11322   7.452   6.101   6.369 -0.3864  0.2652  0.0132
 3301SOL    HW111323   7.413   6.173   6.321  0.2702  0.8220  0.3133
 3301SOL    HW211324   7.393   6.089   6.444  0.2886  1.4720  0.7672
 3302SOL     OW11325   6.259   2.381   5.855 -0.2728 -0.1421 -0.1506
 3302SOL    HW111326   6.166   2.402   5.852 -0.2118  0.0246 -0.8738
 3302SOL    HW211327   6.282   2.360   5.765  0.2438 -0.8297  0.1332
 3303SOL     OW11328   7.142   8.211   6.011 -0.4508  0.1523 -0.0934
 3303SOL    HW111329   7.137   8.215   6.106 -0.0926 -1.1396  0.0056
 3303SOL    HW211330   7.065   8.258   5.981  0.2803  1.9790  0.7759
 3304SOL     OW11331   2.967   7.753   4.102 -0.0835  0.4951  0.1219
 3304SOL    HW111332   3.040   7.746   4.041 -0.5310 -0.9444 -0.2957
 3304SOL    HW211333   2.997   7.813   4.169  1.3903  0.1165 -0.1680
 3305SOL     OW11334   0.774   5.727   3.173  0.3533 -0.6269 -0.5712
 3305SOL    HW111335   0.681   5.746   3.182  0.1343 -1.8033 -0.2401
 3305SOL    HW211336   0.778   5.642   3.129  1.2748 -0.4488 -0.8541
 3306SOL     OW11337   0.988   2.332   2.901 -0.2093  0.0060  0.0130
 3306SOL    HW111338   0.950   2.417   2.881 -1.2790  0.0723  2.0493
 3306SOL    HW211339   1.074   2.352   2.939  0.1062  0.0903 -0.7372
 3307SOL     OW11340   5.509   4.709   5.625 -0.0287 -0.0105  0.1442
 3307SOL    HW111341   5.578   4.774   5.640  0.3504 -0.5319  0.6978
 3307SOL    HW211342   5.523   4.681   5.534 -0.5391  1.0611 -0.2879
 3308SOL     OW11343   0.184   0.740   7.160 -0.3453  0.9171 -0.1234
 3308SOL    HW111344   0.237   0.715   7.235 -0.5295  0.0900 -0.2589
 3308SOL    HW211345   0.106   0.685   7.166 -0.5875  1.1912 -0.6464
 3309SOL     OW11346   3.375   7.855   0.163 -0.0898 -0.2441  0.2479
 3309SOL    HW111347   3.330   7.866   0.079  0.9236  0.4126 -0.2315
 3309SOL    HW211348   3.308   7.871   0.229 -1.2326 -2.0796 -0.3940
 3310SOL     OW11349   5.683   4.271   0.084  0.2989 -0.2036  0.3242
 3310SOL    HW111350   5.735   4.192   0.097 -0.9378 -1.2608 -0.8617
 3310SOL    HW211351   5.701   4.297  -0.007  2.4096  2.2276  1.3073
 3311SOL     OW11352   7.818   6.328   1.934  0.3911  0.2228 -0.0948
 3311SOL    HW111353   7.905   6.309   1.969  0.6575 -0.1860 -0.9572
 3311SOL    HW211354   7.772   6.371   2.006  0.9239 -0.5927  0.7564
 3312SOL     OW11355   5.807   8.313   0.676  0.3089 -0.1684 -0.0871
 3312SOL    HW111356   5.887   8.362   0.655  0.8511 -0.9950  0.0260
 3312SOL    HW211357   5.837   8.224   0.695 -0.5887 -0.3812  0.4077
 3313SOL     OW11358   3.111   0.622   7.542 -0.3517  0.0333 -0.0661
 3313SOL    HW111359   3.197   0.637   7.581  0.0122  0.6266 -1.0680
 3313SOL    HW211360   3.129   0.584   7.457 -1.1461 -1.4112  0.3789
 3314SOL     OW11361   2.380   4.103   3.125  0.5781  0.3422  0.4027
 3314SOL    HW111362   2.389   4.020   3.172 -2.0181  0.3036  0.9874
 3314SOL    HW211363   2.295   4.097   3.083 -0.3143  3.2404  1.5758
 3315SOL     OW11364   3.276   6.526   6.627 -1.0795 -0.2209 -0.2257
 3315SOL    HW111365   3.250   6.616   6.612 -1.7160 -0.5289 -0.9914
 3315SOL    HW211366   3.290   6.521   6.722  2.1727  1.5182 -0.4520
 3316SOL     OW11367   2.920   0.448   5.507  0.1457 -0.1989 -0.0725
 3316SOL    HW111368   2.957   0.393   5.438  0.8301  1.8762 -1.4521
 3316SOL    HW211369   2.982   0.441   5.580  0.2321 -1.2000 -0.2285
 3317SOL     OW11370   4.201   4.698   2.306 -0.0308 -0.0759 -0.4654
 3317SOL    HW111371   4.128   4.760   2.307 -0.9743 -1.1518 -0.7959
 3317SOL    HW211372   4.268   4.740   2.360 -0.5523  1.3274 -0.8658
 3318SOL     OW11373   2.337   2.842   1.439  0.2826 -0.3113  0.3129
 3318SOL    HW111374   2.314   2.751   1.421 -1.6247  0.6661 -2.8986
 3318SOL    HW211375   2.263   2.876   1.489  0.6016 -0.2662  0.7672
 3319SOL     OW11376   6.431   5.482   1.026  0.3677 -0.3823  0.5654
 3319SOL    HW111377   6.442   5.509   0.936 -1.7723  1.4230  0.7757
 3319SOL    HW211378   6.465   5.555   1.078  1.1523 -1.2055  1.2483
 3320SOL     OW11379   4.933   3.992   2.234  0.4665  0.1640  0.0296
 3320SOL    HW111380   4.949   4.086   2.244  2.6074 -0.0686 -0.7114
 3320SOL    HW211381   4.975   3.969   2.152 -0.9946 -1.2734 -0.3754
 3321SOL     OW11382   1.629   1.757   4.281  0.3593  0.2680  0.2587
 3321SOL    HW111383   1.565   1.801   4.224 -2.0558 -2.5825  0.5144
 3321SOL    HW211384   1.612   1.793   4.368  2.3753  2.8317 -0.2892
 3322SOL     OW11385   3.425   3.851   5.584  0.0552  0.4955 -0.2913
 3322SOL    HW111386   3.368   3.900   5.643 -1.0237 -0.4774 -0.4820
 3322SOL    HW211387   3.444   3.770   5.631  0.0643  0.1796 -0.8295
 3323SOL     OW11388   5.608   1.870   2.163 -0.6940 -0.2663  0.5781
 3323SOL    HW111389   5.544   1.892   2.231 -1.9017 -2.0221  0.0778
 3323SOL    HW211390   5.641   1.784   2.189 -0.1278 -0.3269 -0.3098
 3324SOL     OW11391   2.443   1.098   0.263 -0.2378 -0.4264  0.1592
 3324SOL    HW111392   2.508   1.052   0.210 -2.0702 -1.4254 -1.3521
 3324SOL    HW211393   2.444   1.054   0.347 -0.2142 -1.6272 -0.4515
 3325SOL     OW11394   0.589   7.492   6.465  0.2475  0.1564  0.4695
 3325SOL    HW111395   0.544   7.422   6.513  0.2717 -1.1766 -1.3728
 3325SOL    HW211396   0.579   7.469   6.373 -1.4329  3.6370 -0.3876
 3326SOL     OW11397   4.944   4.911   0.267 -0.4130  0.8636  0.0579
 3326SOL    HW111398   4.966   4.898   0.175  2.1656  0.4502  0.6524
 3326SOL    HW211399   4.893   4.834   0.291 -0.4407  0.5959 -0.8274
 3327SOL     OW11400   6.348   2.139   1.319 -0.1265  0.4834  0.1824
 3327SOL    HW111401   6.391   2.057   1.295 -1.8019 -0.3641 -0.1027
 3327SOL    HW211402   6.365   2.149   1.412  1.4217  0.6618 -0.1012
 3328SOL     OW11403   4.576   4.328   3.789 -0.1170  0.2287  0.4241
 3328SOL    HW111404   4.630   4.280   3.725 -1.5029 -1.2303  0.2941
 3328SOL    HW211405   4.565   4.415   3.750 -0.2508 -0.3671 -0.9338
 3329SOL     OW11406   6.699   3.036   1.485 -0.3445  0.1350 -0.2330
 3329SOL    HW111407   6.747   3.097   1.542 -0.4875  1.5044 -1.5225
 3329SOL    HW211408   6.615   3.022   1.530 -0.1740  0.6088  0.2431
 3330SOL     OW11409   2.245   1.635   7.600 -0.6316 -0.0090  0.1328
 3330SOL    HW111410   2.264   1.557   7.547  0.1643 -0.3938  0.9629
 3330SOL    HW211411   2.310   1.699   7.572 -0.8215  0.1133 -0.0312
 3331SOL     OW11412   8.021   6.361   6.757 -0.6628  0.0186 -0.0837
 3331SOL    HW111413   7.975   6.304   6.695  0.2333  0.2873 -1.0321
 3331SOL    HW211414   7.953   6.394   6.814 -1.5426 -0.1594 -1.0008
 3332SOL     OW11415   6.491   4.454   6.934  0.2267  0.1237  0.1795
 3332SOL    HW111416   6.442   4.528   6.898 -0.7294 -0.4805  0.1918
 3332SOL    HW211417   6.546   4.424   6.861  0.6241  0.8385  0.1772
 3333SOL     OW11418   0.462   0.990   6.410  0.4054 -0.4763  0.3843
 3333SOL    HW111419   0.493   1.079   6.423  0.4791 -0.6860  1.8830
 3333SOL    HW211420   0.367   0.997   6.416  0.1821 -0.1383 -2.2044
 3334SOL     OW11421   0.765   6.198   6.460 -0.0891  0.5727  0.0623
 3334SOL    HW111422   0.859   6.197   6.441 -0.3193  2.5555 -1.6470
 3334SOL    HW211423   0.723   6.202   6.373 -1.9151 -2.3132  0.6585
 3335SOL     OW11424   1.474   6.887   7.079  0.4756 -0.3291  0.2703
 3335SOL    HW111425   1.533   6.920   7.011 -0.6645 -1.0546 -1.1190
 3335SOL    HW211426   1.417   6.961   7.100  1.0375 -0.0062  0.6942
 3336SOL     OW11427   2.465   5.919   0.249 -0.1734  0.0659  0.4996
 3336SOL    HW111428   2.460   5.907   0.154 -1.1410  1.2469  0.3868
 3336SOL    HW211429   2.544   5.871   0.275 -0.2485 -0.8096 -0.8065
 3337SOL     OW11430   2.858   3.934   6.884  0.1639  0.6443  0.2891
 3337SOL    HW111431   2.931   3.985   6.847  0.0629  0.0619 -0.7511
 3337SOL    HW211432   2.866   3.947   6.978  0.4458  2.1732  0.0872
 3338SOL     OW11433   5.541   4.985   3.682  0.3281  0.0374  0.0000
 3338SOL    HW111434   5.461   4.949   3.643 -1.3900  1.0706  2.3366
 3338SOL    HW211435   5.571   4.917   3.743 -0.1932  0.5941  0.9011
 3339SOL     OW11436   7.764   2.394   1.414  0.1610 -0.4430  0.3590
 3339SOL    HW111437   7.792   2.331   1.481 -1.9240 -0.1995  1.5294
 3339SOL    HW211438   7.674   2.416   1.438  0.4910  2.2475 -0.6047
 3340SOL     OW11439   1.365   1.608   7.904  0.4183  0.3037  0.4420
 3340SOL    HW111440   1.378   1.662   7.982 -1.3393 -0.3857  1.2554
 3340SOL    HW211441   1.315   1.663   7.844  0.1785  0.1990  0.5458
 3341SOL     OW11442   5.187   5.502   7.713 -0.0796 -0.0399  0.6348
 3341SOL    HW111443   5.254   5.487   7.779  0.5503  0.8779  0.2264
 3341SOL    HW211444   5.209   5.442   7.642 -0.1098 -0.2457  0.8000
 3342SOL     OW11445   4.104   3.294   1.622  0.0668 -0.1149 -0.0748
 3342SOL    HW111446   4.169   3.278   1.691 -0.2628  0.0388  0.2749
 3342SOL    HW211447   4.128   3.378   1.584  0.7931 -0.6181 -0.7721
 3343SOL     OW11448   6.817   8.101   6.803 -0.4386 -0.0171  0.0263
 3343SOL    HW111449   6.734   8.061   6.831 -0.7523  0.8779  0.4145
 3343SOL    HW211450   6.791   8.170   6.742 -0.1114  1.2515  1.2603
 3344SOL     OW11451   2.728   4.955   1.280 -0.5058 -0.1498 -0.5653
 3344SOL    HW111452   2.746   5.015   1.352  0.3247  1.4730 -2.0498
 3344SOL    HW211453   2.791   4.884   1.290  0.2006  0.5239 -0.2185
 3345SOL     OW11454   4.279   3.424   1.228  0.3542 -0.2142  0.1295
 3345SOL    HW111455   4.334   3.356   1.267  0.1866  0.0307  0.8111
 3345SOL    HW211456   4.272   3.490   1.296  0.8900  0.7105 -0.6865
 3346SOL     OW11457   7.872   7.368   2.542 -0.2955  0.1573  0.2899
 3346SOL    HW111458   7.933   7.434   2.509  0.5574 -0.3794  0.7587
 3346SOL    HW211459   7.923   7.318   2.605 -0.6683 -1.5161 -0.7004
 3347SOL     OW11460   4.414   4.756   5.203 -0.3526 -0.3520 -0.5111
 3347SOL    HW111461   4.386   4.669   5.172 -0.0574 -0.1019 -1.5275
 3347SOL    HW211462   4.428   4.745   5.297 -0.1149 -1.4645 -0.6621
 3348SOL     OW11463   0.881   3.899   5.091  0.1640 -0.1609  0.6424
 3348SOL    HW111464   0.969   3.920   5.059  0.2247  1.2299  1.6496
 3348SOL    HW211465   0.887   3.808   5.119  1.1731 -0.2096  0.3112
 3349SOL     OW11466   6.041   3.969   1.330 -0.0169 -0.2211  0.1382
 3349SOL    HW111467   6.019   4.041   1.389 -0.5084  1.0773 -1.5398
 3349SOL    HW211468   6.065   3.897   1.388 -2.1496  0.4127  1.9454
 3350SOL     OW11469   3.101   3.956   8.216  0.1962 -0.0554 -0.0006
 3350SOL    HW111470   3.028   3.926   8.271  0.8746 -1.4405  0.1840
 3350SOL    HW211471   3.169   3.890   8.229  1.4221  1.1052 -0.3186
 3351SOL     OW11472   3.214   6.746   4.979  0.2876 -1.1154 -0.1000
 3351SOL    HW111473   3.197   6.726   4.887 -0.6922 -0.7946 -0.0048
 3351SOL    HW211474   3.244   6.664   5.017 -0.3069 -1.5222 -0.4888
 3352SOL     OW11475   5.045   0.510   1.812  0.4244 -0.1506  0.5579
 3352SOL    HW111476   5.067   0.588   1.864  1.7120 -0.4036  0.4189
 3352SOL    HW211477   4.976   0.539   1.753  1.6540  1.2190 -0.2765
 3353SOL     OW11478   3.779   5.034   4.545  0.0095  0.8059 -0.0991
 3353SOL    HW111479   3.783   4.942   4.517  2.5766  0.6448  0.5283
 3353SOL    HW211480   3.789   5.084   4.464  1.7234  0.4483 -0.1324
 3354SOL     OW11481   5.772   1.465   5.319 -0.1774 -0.4539 -0.3716
 3354SOL    HW111482   5.704   1.418   5.368  0.4891 -0.5967  0.4267
 3354SOL    HW211483   5.732   1.482   5.233 -1.5003  0.1173  0.3251
 3355SOL     OW11484   7.191   0.585   7.139  0.6497  0.1336  0.6214
 3355SOL    HW111485   7.185   0.640   7.061 -0.1631  0.2475  0.7514
 3355SOL    HW211486   7.285   0.566   7.148  0.6775 -0.6160 -0.8807
 3356SOL     OW11487   1.068   7.123   8.227 -0.4817 -0.1329 -0.2030
 3356SOL    HW111488   1.154   7.166   8.229 -0.9040  0.8453 -1.6946
 3356SOL    HW211489   1.020   7.169   8.158 -1.5794 -1.8741 -0.6488
 3357SOL     OW11490   5.238   7.438   0.697 -0.2511  0.6084  0.2226
 3357SOL    HW111491   5.225   7.352   0.738  0.9154  1.1188  1.7590
 3357SOL    HW211492   5.185   7.434   0.618 -1.6767 -0.8709  1.1631
 3358SOL     OW11493   0.541   1.926   5.968  0.1944 -1.0808  0.2350
 3358SOL    HW111494   0.500   1.964   6.046 -1.1325 -0.1762 -0.8398
 3358SOL    HW211495   0.585   2.000   5.925 -0.0389 -1.3230 -0.4406
 3359SOL     OW11496   7.597   7.550   7.832 -0.2279 -0.4099 -0.5212
 3359SOL    HW111497   7.607   7.525   7.924  0.6709 -2.2745 -1.0683
 3359SOL    HW211498   7.504   7.542   7.814 -0.2178 -1.4688 -0.1337
 3360SOL     OW11499   1.142   4.442   7.247 -0.4178  0.3086 -0.0955
 3360SOL    HW111500   1.161   4.431   7.341  1.6257  0.0439 -0.4872
 3360SOL    HW211501   1.167   4.358   7.208  1.2343  1.2648 -1.1927
 3361SOL     OW11502   8.277   4.044   5.827 -0.2220  0.5809  0.2401
 3361SOL    HW111503   8.322   3.985   5.888 -1.4256  0.1628  0.7570
 3361SOL    HW211504   8.347   4.078   5.771  0.7896  0.2267  1.2260
 3362SOL     OW11505   2.869   5.919   8.177 -0.0474  0.0457 -0.1779
 3362SOL    HW111506   2.910   5.934   8.263 -0.1047  1.1271 -0.3242
 3362SOL    HW211507   2.926   5.855   8.134 -0.1614 -0.7186  0.7573
 3363SOL     OW11508   3.209   4.463   8.333  0.4678 -0.5368  0.2968
 3363SOL    HW111509   3.159   4.544   8.337 -3.6378 -2.7754  0.0323
 3363SOL    HW211510   3.227   4.450   8.239  0.9536 -0.0725  0.3219
 3364SOL     OW11511   3.542   0.337   1.103 -0.0047 -0.1997 -0.2467
 3364SOL    HW111512   3.541   0.321   1.197  1.8571  1.1039  0.0474
 3364SOL    HW211513   3.451   0.327   1.076 -0.7897  0.6029  1.8999
 3365SOL     OW11514   3.712   5.593   7.701 -0.1586  0.5895  0.3620
 3365SOL    HW111515   3.758   5.509   7.698  0.8748  1.1084  1.0766
 3365SOL    HW211516   3.701   5.610   7.794 -1.9710  0.4200  0.2223
 3366SOL     OW11517   7.366   5.677   3.571  0.1011 -0.1523 -0.2217
 3366SOL    HW111518   7.364   5.627   3.653  1.0243 -0.8542 -0.6108
 3366SOL    HW211519   7.442   5.735   3.581 -0.1251  0.1708 -0.3571
 3367SOL     OW11520   3.916   4.409   1.411  0.0252 -0.0039 -0.0817
 3367SOL    HW111521   3.889   4.318   1.423 -0.7316  0.4291  1.9549
 3367SOL    HW211522   3.860   4.442   1.341  0.3741 -1.1154 -0.9030
 3368SOL     OW11523   3.653   2.438   6.726 -0.3706 -0.3041 -0.2456
 3368SOL    HW111524   3.610   2.452   6.642 -0.6455  0.9447  0.0830
 3368SOL    HW211525   3.747   2.451   6.708 -0.2163 -1.8262 -0.7073
 3369SOL     OW11526   3.550   8.003   2.544  0.2265 -1.0359 -0.1544
 3369SOL    HW111527   3.609   8.052   2.487  0.9942 -1.7136  0.0423
 3369SOL    HW211528   3.504   7.943   2.486  0.5215 -1.2596 -0.1584
 3370SOL     OW11529   4.334   1.761   2.963 -0.2711 -0.1903 -0.7221
 3370SOL    HW111530   4.268   1.693   2.976 -0.6584 -0.1517 -2.2466
 3370SOL    HW211531   4.285   1.834   2.926  0.6180 -0.1892 -1.9497
 3371SOL     OW11532   0.027   8.129   3.883  0.2007  0.4142 -0.1376
 3371SOL    HW111533  -0.014   8.205   3.923  0.4558 -0.1092  1.1792
 3371SOL    HW211534   0.118   8.154   3.869  0.3211  0.3127  0.4363
 3372SOL     OW11535   1.032   2.392   3.228  0.0443 -0.0370 -0.5043
 3372SOL    HW111536   1.077   2.383   3.144 -0.2920  1.0205 -0.8126
 3372SOL    HW211537   1.012   2.485   3.235  0.1103 -0.0977  0.7849
 3373SOL     OW11538   0.932   2.308   7.910  0.5549 -0.2223  0.9749
 3373SOL    HW111539   0.861   2.371   7.894  0.5075 -0.2980  0.8808
 3373SOL    HW211540   1.004   2.361   7.944  0.3811 -0.1767  1.2706
 3374SOL     OW11541   3.407   0.441   6.130 -0.8464 -0.3017 -0.0516
 3374SOL    HW111542   3.426   0.526   6.170  1.8142 -0.2052 -1.3383
 3374SOL    HW211543   3.372   0.388   6.202 -0.5990  1.2448  1.2641
 3375SOL     OW11544   6.115   7.661   4.745  0.0577 -0.0412 -0.1822
 3375SOL    HW111545   6.164   7.743   4.746  0.4127 -0.2420  1.2652
 3375SOL    HW211546   6.050   7.673   4.675 -0.6340  1.9121  0.7045
 3376SOL     OW11547   8.202   2.592   4.317  0.1070 -0.3962  0.1757
 3376SOL    HW111548   8.151   2.577   4.397 -0.0952  0.0855  0.1409
 3376SOL    HW211549   8.137   2.618   4.252  0.4366  0.6219  0.2360
 3377SOL     OW11550   4.344   7.092   4.848  0.0225  0.1922  0.2392
 3377SOL    HW111551   4.274   7.029   4.864  0.0269  0.2499  0.4862
 3377SOL    HW211552   4.411   7.043   4.801  1.2654 -0.7642  2.8050
 3378SOL     OW11553   4.642   5.016   0.562 -0.0674 -0.0524 -0.0258
 3378SOL    HW111554   4.696   5.058   0.629  0.6827 -1.8500  0.5588
 3378SOL    HW211555   4.552   5.029   0.591  0.1932  0.3088  0.6304
 3379SOL     OW11556   1.327   7.191   8.227  0.1123 -0.3008 -0.5709
 3379SOL    HW111557   1.406   7.194   8.172 -0.4362 -3.9620 -1.8155
 3379SOL    HW211558   1.353   7.138   8.303 -0.9661 -1.0348 -0.7015
 3380SOL     OW11559   4.589   7.063   5.187 -0.5594  0.1476  0.2760
 3380SOL    HW111560   4.633   7.144   5.162 -1.0606  0.4312  0.2970
 3380SOL    HW211561   4.581   7.013   5.106  0.4228 -0.2264  0.3853
 3381SOL     OW11562   7.112   8.299   7.437  0.0368  0.5034  0.2046
 3381SOL    HW111563   7.064   8.249   7.371  0.9105  1.5303 -1.2680
 3381SOL    HW211564   7.125   8.385   7.397  3.0888  0.2744  0.5155
 3382SOL     OW11565   3.183   7.053   4.848 -0.0289  0.3350  0.4087
 3382SOL    HW111566   3.217   7.072   4.935 -1.8062 -0.3593  1.2991
 3382SOL    HW211567   3.140   6.968   4.857  0.7265 -0.2843 -1.4436
 3383SOL     OW11568   8.092   4.781   2.914 -0.7900  0.5571  0.5162
 3383SOL    HW111569   8.090   4.688   2.893  0.4226  0.7232 -0.4661
 3383SOL    HW211570   8.010   4.798   2.961 -1.2857 -0.8714  0.1904
 3384SOL     OW11571   3.308   1.609   1.402  0.3451 -0.5860  0.5262
 3384SOL    HW111572   3.294   1.529   1.352 -1.5304  0.1089 -0.1261
 3384SOL    HW211573   3.298   1.679   1.338  0.5647  0.2330  1.3688
 3385SOL     OW11574   2.391   3.629   1.869  0.0274  0.7929  0.0641
 3385SOL    HW111575   2.396   3.724   1.866 -2.5009  0.9666 -0.9127
 3385SOL    HW211576   2.356   3.609   1.956  2.2676  0.5581  0.9922
 3386SOL     OW11577   7.143   4.116   1.691  0.3442 -0.0447  0.2295
 3386SOL    HW111578   7.136   4.021   1.691 -3.3930  0.0117  2.7263
 3386SOL    HW211579   7.206   4.135   1.761  1.0530 -0.6390 -0.2321
 3387SOL     OW11580   5.174   5.306   3.843  0.5492  0.3968  0.1127
 3387SOL    HW111581   5.152   5.379   3.901  0.9207  1.2177 -0.7309
 3387SOL    HW211582   5.265   5.286   3.863  0.7408  0.8159 -0.2984
 3388SOL     OW11583   4.465   4.593   7.434  0.3254  0.3388  0.2034
 3388SOL    HW111584   4.517   4.656   7.484  0.0783  0.2096  0.6359
 3388SOL    HW211585   4.461   4.628   7.346 -0.8649  1.5963  0.7149
 3389SOL     OW11586   2.451   3.638   6.253  0.3484 -0.6325 -0.3742
 3389SOL    HW111587   2.501   3.636   6.335 -0.1380 -0.3591 -0.0673
 3389SOL    HW211588   2.515   3.664   6.187  0.2340  1.6531  0.3264
 3390SOL     OW11589   6.634   6.455   3.129  0.4442  0.0643 -0.6158
 3390SOL    HW111590   6.652   6.375   3.179 -0.7611  0.0308 -0.2117
 3390SOL    HW211591   6.670   6.525   3.183  0.2442 -0.0801 -0.2920
 3391SOL     OW11592   2.773   4.483   7.579  0.0911  0.2927 -0.2439
 3391SOL    HW111593   2.771   4.504   7.485  0.8015  0.1849 -0.2877
 3391SOL    HW211594   2.695   4.431   7.594  0.7553 -1.0140 -1.1015
 3392SOL     OW11595   6.872   5.135   0.820 -0.4627  0.0121  0.1576
 3392SOL    HW111596   6.810   5.104   0.754 -1.8033  0.3811  1.2137
 3392SOL    HW211597   6.882   5.061   0.880 -1.1203  0.4934  0.8671
 3393SOL     OW11598   4.138   1.648   1.236  0.4052 -0.6424  0.2858
 3393SOL    HW111599   4.180   1.668   1.320  0.0670  0.2313  0.2594
 3393SOL    HW211600   4.209   1.619   1.180  0.8301 -0.0764  0.5221
 3394SOL     OW11601   3.405   7.484   0.614 -0.2257  0.1822 -0.5187
 3394SOL    HW111602   3.370   7.431   0.685 -1.3927  0.6154 -0.7468
 3394SOL    HW211603   3.493   7.509   0.643 -0.1678 -0.7705  0.1542
 3395SOL     OW11604   6.225   4.335   3.672 -0.8470  0.5989 -0.3203
 3395SOL    HW111605   6.150   4.292   3.712 -0.0309 -0.0553  0.5498
 3395SOL    HW211606   6.188   4.387   3.601 -2.0926  0.1367 -0.0291
 3396SOL     OW11607   6.690   7.955   7.454  0.2953 -0.1861  0.4276
 3396SOL    HW111608   6.686   7.868   7.414  1.0020 -0.7459  1.5342
 3396SOL    HW211609   6.600   7.974   7.481  0.2731 -0.8899  0.8469
 3397SOL     OW11610   5.277   3.381   1.907  0.3233 -0.1731 -0.1795
 3397SOL    HW111611   5.286   3.286   1.898 -0.0980 -0.0092 -3.9528
 3397SOL    HW211612   5.190   3.393   1.945 -0.6776 -1.3404 -1.9764
 3398SOL     OW11613   5.810   4.495   7.441 -0.3679 -0.6723 -0.3160
 3398SOL    HW111614   5.835   4.413   7.484  3.7725  1.0428  1.0424
 3398SOL    HW211615   5.876   4.507   7.373 -1.4177  1.1224 -1.0734
 3399SOL     OW11616   0.062   2.210   0.277 -0.2993  0.3977  0.2892
 3399SOL    HW111617   0.117   2.174   0.208 -0.1452 -0.0259  0.6266
 3399SOL    HW211618  -0.023   2.170   0.264 -0.4983  0.9633 -0.1621
 3400SOL     OW11619   5.965   8.067   3.913 -0.0771 -0.3658  0.1880
 3400SOL    HW111620   5.978   7.977   3.882  0.9102 -0.0179 -0.4555
 3400SOL    HW211621   5.897   8.102   3.856  1.3133  0.0796 -1.2767
 3401SOL     OW11622   6.717   3.888   2.062 -0.0671 -0.1968 -0.1091
 3401SOL    HW111623   6.676   3.854   2.142 -2.2717 -0.7756 -1.3914
 3401SOL    HW211624   6.807   3.908   2.087 -0.7592 -0.0870  2.5761
 3402SOL     OW11625   8.013   6.693   5.297  0.0326  0.1498  0.2844
 3402SOL    HW111626   7.928   6.654   5.277  0.2400  0.6271 -1.7614
 3402SOL    HW211627   8.073   6.619   5.304 -0.1566 -0.0874 -0.4912
 3403SOL     OW11628   4.683   6.434   4.978 -0.0070  0.2739 -0.2745
 3403SOL    HW111629   4.754   6.481   5.020  0.1440 -1.3478  1.4422
 3403SOL    HW211630   4.603   6.477   5.009  0.1488  1.6334 -1.6294
 3404SOL     OW11631   3.544   4.906   0.811 -0.3715  0.3052  0.2167
 3404SOL    HW111632   3.507   4.977   0.759 -1.3467  0.6188  1.2788
 3404SOL    HW211633   3.637   4.927   0.819 -0.2794  0.4566 -1.0272
 3405SOL     OW11634   6.511   8.280   2.278  0.2569 -0.0914  0.4055
 3405SOL    HW111635   6.587   8.334   2.298  0.5730  0.1174 -1.1868
 3405SOL    HW211636   6.521   8.202   2.333  1.5711 -0.0078  0.3251
 3406SOL     OW11637   6.863   6.456   0.831  0.2594 -0.6188  0.6910
 3406SOL    HW111638   6.957   6.439   0.829  0.3130 -0.6408  2.1886
 3406SOL    HW211639   6.828   6.391   0.892 -0.4734  0.4403  1.4485
 3407SOL     OW11640   2.886   8.120   6.097  0.8779  0.7389  0.0326
 3407SOL    HW111641   2.824   8.056   6.064  1.8908 -0.6232  0.6556
 3407SOL    HW211642   2.896   8.183   6.025  0.4562 -0.2440 -0.9218
 3408SOL     OW11643   6.911   0.790   1.909 -0.2875  0.0030  0.3494
 3408SOL    HW111644   6.841   0.741   1.865 -0.6922 -0.0301  1.0176
 3408SOL    HW211645   6.940   0.732   1.979 -0.2377  0.4104  0.6641
 3409SOL     OW11646   1.831   2.749   1.764 -0.3552  0.3150 -0.3643
 3409SOL    HW111647   1.920   2.720   1.746 -0.5715  0.0292 -0.9779
 3409SOL    HW211648   1.794   2.769   1.678 -0.8592  0.5069 -0.1083
 3410SOL     OW11649   2.061   6.560   2.502 -0.4062  0.6237 -0.6400
 3410SOL    HW111650   2.063   6.643   2.455  0.2334  0.2075 -1.3824
 3410SOL    HW211651   2.051   6.584   2.594  0.5385  1.5702 -0.7595
 3411SOL     OW11652   5.492   2.293   3.721 -0.1693 -0.7874 -0.0664
 3411SOL    HW111653   5.461   2.242   3.646 -0.5693 -0.0616 -0.4033
 3411SOL    HW211654   5.420   2.290   3.784 -0.7464  0.4547 -0.6321
 3412SOL     OW11655   0.801   4.131   5.566 -0.0324 -0.3666  0.2071
 3412SOL    HW111656   0.809   4.076   5.488  1.5751 -0.7961  0.6446
 3412SOL    HW211657   0.732   4.090   5.617 -0.3312 -0.7273 -0.4707
 3413SOL     OW11658   6.052   4.382   8.326  0.8672 -0.1909  0.2412
 3413SOL    HW111659   6.026   4.398   8.235 -0.2832 -2.2404  0.1300
 3413SOL    HW211660   5.990   4.432   8.379  1.5895  1.0719 -0.0723
 3414SOL     OW11661   7.057   6.241   6.873  0.0771  0.6379 -0.3293
 3414SOL    HW111662   7.141   6.197   6.889 -0.0856  0.5416  0.2887
 3414SOL    HW211663   6.996   6.196   6.931 -0.3959  0.7401 -0.7431
 3415SOL     OW11664   1.329   3.186   6.290  0.3189  0.0103 -0.8362
 3415SOL    HW111665   1.384   3.127   6.238 -0.2742 -0.5412 -0.8462
 3415SOL    HW211666   1.243   3.182   6.248  0.4601  1.5026 -1.3178
 3416SOL     OW11667   7.302   6.043   4.192  0.1490 -0.0705 -0.3260
 3416SOL    HW111668   7.302   5.948   4.180 -2.6366 -0.1425 -0.4378
 3416SOL    HW211669   7.274   6.056   4.283 -1.6862  0.6176 -0.9555
 3417SOL     OW11670   5.904   5.049   6.820 -0.2199 -0.2568 -0.0696
 3417SOL    HW111671   5.904   4.986   6.749 -0.9428  1.7318 -1.9404
 3417SOL    HW211672   5.814   5.049   6.853 -0.2140 -0.2166 -0.0528
 3418SOL     OW11673   7.859   6.971   8.035  0.4184 -0.2079  0.5767
 3418SOL    HW111674   7.876   6.898   7.975 -0.5459  1.5337 -2.0232
 3418SOL    HW211675   7.767   6.963   8.058  0.7765 -0.8474  1.8534
 3419SOL     OW11676   1.245   0.893   1.705  0.2802  0.2407  0.2707
 3419SOL    HW111677   1.296   0.933   1.775  0.5719 -0.3509  0.3955
 3419SOL    HW211678   1.157   0.930   1.715  0.5842  0.9719  0.2855
 3420SOL     OW11679   4.560   1.140   6.381 -0.6694  0.0789 -0.1619
 3420SOL    HW111680   4.467   1.135   6.358 -0.8792  3.0183 -0.3288
 3420SOL    HW211681   4.567   1.089   6.462 -2.4633 -0.1148 -0.0803
 3421SOL     OW11682   6.925   1.005   3.039  0.6589  0.6684  0.3881
 3421SOL    HW111683   6.941   1.065   2.966  2.3562  3.0438  2.5729
 3421SOL    HW211684   6.894   1.060   3.110 -1.2686 -1.6235  1.4717
 3422SOL     OW11685   5.085   7.390   6.066 -0.3185  0.4179 -0.0545
 3422SOL    HW111686   5.180   7.399   6.069 -0.2377  0.4337 -1.6309
 3422SOL    HW211687   5.065   7.318   6.126  0.4930  1.4909  1.5744
 3423SOL     OW11688   6.634   3.325   1.409  0.5562 -0.5492 -0.4167
 3423SOL    HW111689   6.572   3.321   1.482  0.3762 -0.1193 -0.5461
 3423SOL    HW211690   6.644   3.234   1.381  0.4507 -0.6882 -0.0036
 3424SOL     OW11691   1.026   2.960   4.165  0.1187  0.0652 -0.1943
 3424SOL    HW111692   1.047   2.918   4.082  0.1257  0.1446 -0.2327
 3424SOL    HW211693   0.968   2.898   4.210  1.8698 -1.0100  0.7017
 3425SOL     OW11694   7.721   7.240   0.485 -0.3263  0.2632  0.2136
 3425SOL    HW111695   7.803   7.248   0.533  0.1261  0.7928 -0.6253
 3425SOL    HW211696   7.669   7.315   0.513 -0.7572 -0.3618  1.1492
 3426SOL     OW11697   2.230   2.172   5.373  0.3712 -0.2636 -0.1792
 3426SOL    HW111698   2.199   2.091   5.413  1.6985 -0.7268 -0.0109
 3426SOL    HW211699   2.160   2.235   5.387 -0.2973 -1.1355  0.5068
 3427SOL     OW11700   5.798   3.371   5.974  0.3724  0.0146  0.4190
 3427SOL    HW111701   5.830   3.421   5.899 -0.7951  0.4702  0.1995
 3427SOL    HW211702   5.773   3.437   6.039  0.3760 -0.3385  0.7878
 3428SOL     OW11703   4.587   4.973   5.871 -0.4095  0.8514  0.5586
 3428SOL    HW111704   4.616   5.055   5.831 -3.2180  0.7527 -2.0876
 3428SOL    HW211705   4.642   4.905   5.832 -0.8729  1.1237 -0.6190
 3429SOL     OW11706   7.930   1.351   3.043 -0.1633 -0.1279  0.0840
 3429SOL    HW111707   7.870   1.364   3.117 -1.1588 -0.7524 -0.5852
 3429SOL    HW211708   7.924   1.433   2.993  0.1603  0.1164  0.4375
 3430SOL     OW11709   7.142   4.587   7.773 -0.3160  0.0460  0.3964
 3430SOL    HW111710   7.212   4.527   7.748 -1.9409 -1.4439 -0.8253
 3430SOL    HW211711   7.123   4.637   7.694 -0.3419  0.7340  0.8356
 3431SOL     OW11712   2.322   6.595   4.530  0.6128  0.0963  0.0487
 3431SOL    HW111713   2.347   6.605   4.622 -1.0013  1.1101  0.4153
 3431SOL    HW211714   2.238   6.641   4.522 -0.4522 -1.9265 -1.4070
 3432SOL     OW11715   3.311   6.247   5.589  0.3244  0.1143  0.2469
 3432SOL    HW111716   3.313   6.226   5.682 -1.2837 -2.0526 -0.1204
 3432SOL    HW211717   3.316   6.162   5.545  0.9638  1.0800 -1.6701
 3433SOL     OW11718   7.037   3.835   4.003  0.0166  0.3277 -0.2001
 3433SOL    HW111719   7.106   3.889   3.965  1.1478 -0.2790  0.9439
 3433SOL    HW211720   7.039   3.754   3.952 -0.1337  0.4558 -0.4160
 3434SOL     OW11721   0.319   6.697   1.977  0.4097 -0.0037 -0.0259
 3434SOL    HW111722   0.389   6.695   2.041  0.4049 -1.8406 -0.0233
 3434SOL    HW211723   0.253   6.756   2.014  1.3602  0.6794  0.5978
 3435SOL     OW11724   5.261   4.742   7.049  0.3931  0.0117  0.0468
 3435SOL    HW111725   5.204   4.698   6.987  0.1763 -0.8936  0.8606
 3435SOL    HW211726   5.261   4.685   7.126  0.7858  1.0154  0.8127
 3436SOL     OW11727   7.702   2.130   3.413 -0.0815 -0.1481 -0.0563
 3436SOL    HW111728   7.610   2.114   3.436 -0.1066  0.7841  0.5392
 3436SOL    HW211729   7.751   2.107   3.491  0.0096  1.1538  0.2991
 3437SOL     OW11730   1.164   3.979   1.445  0.5112  0.1527  0.5266
 3437SOL    HW111731   1.117   3.920   1.385  2.2462 -1.0373  0.2581
 3437SOL    HW211732   1.098   4.042   1.474 -0.8575 -0.4881 -1.0468
 3438SOL     OW11733   5.000   2.084   1.104 -0.0936 -0.0546  0.2083
 3438SOL    HW111734   4.986   2.040   1.021 -0.1016  0.5976 -0.1425
 3438SOL    HW211735   5.007   2.177   1.082  0.7382  0.0507  0.8310
 3439SOL     OW11736   5.807   8.136   4.732  0.0852  0.1187  0.0073
 3439SOL    HW111737   5.843   8.087   4.659  0.0197 -1.0943  0.7584
 3439SOL    HW211738   5.741   8.193   4.693 -0.8843 -1.4378 -0.7523
 3440SOL     OW11739   6.845   2.854   7.927  0.6903 -0.4993 -0.5012
 3440SOL    HW111740   6.767   2.830   7.878  1.1628 -0.4520 -1.2895
 3440SOL    HW211741   6.902   2.897   7.863  0.9838  0.2976  0.2715
 3441SOL     OW11742   8.008   2.284   1.270  0.5426 -0.3383  0.5192
 3441SOL    HW111743   7.941   2.347   1.246 -0.0687 -1.1843 -0.0657
 3441SOL    HW211744   8.091   2.330   1.257  0.1766 -0.1532 -1.5003
 3442SOL     OW11745   1.445   2.395   3.233 -0.0640  0.4256 -0.3220
 3442SOL    HW111746   1.407   2.481   3.217  2.1090  1.5642  0.1625
 3442SOL    HW211747   1.470   2.363   3.146 -1.4326 -0.0434 -0.5704
 3443SOL     OW11748   2.270   4.615   2.001 -0.7206 -0.4875  0.6657
 3443SOL    HW111749   2.191   4.654   1.963 -1.0675 -0.9711  0.8739
 3443SOL    HW211750   2.291   4.670   2.075  1.2552  1.8206 -1.4425
 3444SOL     OW11751   2.628   5.238   7.020 -0.2036  0.2125 -0.4290
 3444SOL    HW111752   2.676   5.298   7.076 -0.4736  0.5467 -0.5510
 3444SOL    HW211753   2.611   5.161   7.075 -1.2501  0.9042  0.2382
 3445SOL     OW11754   7.887   6.603   3.347  0.8940  0.2979 -0.2264
 3445SOL    HW111755   7.810   6.602   3.403  1.2978  3.5486  0.5684
 3445SOL    HW211756   7.959   6.578   3.405  1.0329  1.7774  0.2830
 3446SOL     OW11757   5.597   5.240   0.536 -0.3020  0.5028 -0.1913
 3446SOL    HW111758   5.652   5.300   0.587  0.0666 -0.5648  0.6872
 3446SOL    HW211759   5.515   5.235   0.585 -1.2615  2.1041 -1.5027
 3447SOL     OW11760   2.539   0.184   3.101  0.1549 -0.0106  0.4009
 3447SOL    HW111761   2.566   0.195   3.009 -0.7268  1.1055  0.2561
 3447SOL    HW211762   2.515   0.272   3.130 -0.9680 -0.5640  1.2561
 3448SOL     OW11763   4.028   3.161   6.327 -0.1325  0.2790 -0.2619
 3448SOL    HW111764   4.124   3.170   6.326 -0.0971 -0.0951 -0.6000
 3448SOL    HW211765   3.995   3.245   6.295  0.1294 -0.1404 -1.6659
 3449SOL     OW11766   1.042   7.728   4.973 -0.2935  0.0179 -0.1640
 3449SOL    HW111767   0.992   7.689   4.901  0.6651  0.5234 -1.1469
 3449SOL    HW211768   1.028   7.822   4.963 -3.1765  0.0516  2.6098
 3450SOL     OW11769   6.820   3.321   4.657  0.5611 -0.6168 -0.2413
 3450SOL    HW111770   6.811   3.300   4.750  1.5471 -1.1180 -0.2430
 3450SOL    HW211771   6.733   3.306   4.620 -0.0210  0.2825  0.7264
 3451SOL     OW11772   2.740   4.366   4.466  0.0752  0.1027 -0.1014
 3451SOL    HW111773   2.784   4.281   4.472 -1.9381 -1.1245 -1.7416
 3451SOL    HW211774   2.650   4.349   4.492 -0.8951  1.2647 -2.4244
 3452SOL     OW11775   4.502   4.685   0.365  0.1681  0.4121 -0.2825
 3452SOL    HW111776   4.575   4.663   0.424  1.8295  0.4828 -2.1951
 3452SOL    HW211777   4.461   4.761   0.407  0.4134 -0.3632  1.4664
 3453SOL     OW11778   3.728   5.304   3.740  0.2323 -0.0314 -0.1569
 3453SOL    HW111779   3.689   5.228   3.698  0.6051 -1.3367  1.7494
 3453SOL    HW211780   3.674   5.319   3.818  0.6825  1.1218 -0.0445
 3454SOL     OW11781   3.075   1.788   7.881  0.2617  0.0225 -0.0169
 3454SOL    HW111782   3.064   1.883   7.888 -1.0262 -0.1397  0.4936
 3454SOL    HW211783   3.157   1.769   7.926  0.9760  0.9753 -0.8702
 3455SOL     OW11784   3.212   3.777   7.479  0.1216  0.5890 -0.1625
 3455SOL    HW111785   3.289   3.721   7.487 -0.8802 -0.8253 -0.0157
 3455SOL    HW211786   3.245   3.866   7.495  1.8462  0.1273 -0.9032
 3456SOL     OW11787   5.769   1.650   3.580 -0.4747 -0.1867  0.5023
 3456SOL    HW111788   5.771   1.703   3.500 -1.6037 -0.6388  0.1479
 3456SOL    HW211789   5.846   1.678   3.629 -0.3935  0.9377 -0.2136
 3457SOL     OW11790   2.918   0.247   3.652  0.2820  0.0040  0.1128
 3457SOL    HW111791   2.951   0.321   3.601  0.4601  1.3199  2.0018
 3457SOL    HW211792   2.961   0.170   3.614  2.8965  1.2633  0.2833
 3458SOL     OW11793   4.063   1.156   2.137  0.2897 -0.8351 -0.1507
 3458SOL    HW111794   4.073   1.249   2.116  1.6895 -0.6376  1.2234
 3458SOL    HW211795   4.021   1.118   2.059 -0.2090  0.9061 -0.7817
 3459SOL     OW11796   4.409   5.701   6.150  0.3212 -0.4001 -0.1177
 3459SOL    HW111797   4.385   5.792   6.169 -0.3630 -0.8505  1.3592
 3459SOL    HW211798   4.456   5.673   6.228  0.3922 -1.3651 -0.5013
 3460SOL     OW11799   2.307   7.894   1.653 -0.0973 -0.0001 -0.4173
 3460SOL    HW111800   2.391   7.928   1.621 -0.6228  2.0117  0.2512
 3460SOL    HW211801   2.252   7.887   1.576  0.2484 -0.0339 -0.6617
 3461SOL     OW11802   3.282   2.632   0.757 -0.3623 -0.5120  1.0770
 3461SOL    HW111803   3.284   2.701   0.823 -0.1143  1.2597 -0.6974
 3461SOL    HW211804   3.189   2.616   0.741 -0.4297  0.3224  0.6021
 3462SOL     OW11805   2.238   7.029   1.664  0.4596 -0.2566 -0.0440
 3462SOL    HW111806   2.196   7.073   1.738 -0.9806  0.6399 -1.3325
 3462SOL    HW211807   2.204   6.940   1.665  1.3581 -0.6164  1.0253
 3463SOL     OW11808   1.830   4.111   0.070 -0.2224 -0.1145 -0.0088
 3463SOL    HW111809   1.839   4.200   0.103 -0.3877  0.1970 -0.7755
 3463SOL    HW211810   1.918   4.074   0.079  0.5401  1.0059 -2.0837
 3464SOL     OW11811   1.878   6.933   8.200  0.3861  0.1121 -0.2631
 3464SOL    HW111812   1.917   6.964   8.282  0.5296 -0.7759  0.0157
 3464SOL    HW211813   1.945   6.948   8.134  0.8425 -0.5101  0.0454
 3465SOL     OW11814   4.843   3.437   2.430  0.7035  0.1116 -0.2119
 3465SOL    HW111815   4.762   3.422   2.480 -0.5728 -0.7200 -2.3801
 3465SOL    HW211816   4.903   3.369   2.460  0.4056  0.3550  0.9943
 3466SOL     OW11817   2.913   1.552   4.196 -0.1976  0.1969  0.0977
 3466SOL    HW111818   2.972   1.628   4.203 -0.2481  0.0830  3.0416
 3466SOL    HW211819   2.842   1.572   4.257 -0.3019 -2.1111  0.8257
 3467SOL     OW11820   5.099   1.829   0.406 -0.1717 -0.4833  0.3782
 3467SOL    HW111821   5.150   1.856   0.330 -0.4103  1.3095  0.8102
 3467SOL    HW211822   5.040   1.761   0.373 -2.4050  2.2518 -1.8449
 3468SOL     OW11823   1.503   2.832   4.031  0.4697  0.4536 -0.0589
 3468SOL    HW111824   1.534   2.743   4.050  0.2149  0.7148  1.7375
 3468SOL    HW211825   1.496   2.835   3.935 -1.2711 -2.0571 -0.1055
 3469SOL     OW11826   4.843   5.575   7.693 -0.0462  0.2842 -0.1198
 3469SOL    HW111827   4.909   5.645   7.691 -0.0862  0.3258 -0.0291
 3469SOL    HW211828   4.850   5.539   7.781 -0.0523  0.1992 -0.1545
 3470SOL     OW11829   5.856   0.779   6.146 -0.3969  0.1304 -0.2630
 3470SOL    HW111830   5.785   0.798   6.208 -0.5234  0.1107 -0.4004
 3470SOL    HW211831   5.839   0.689   6.118  0.3704 -0.3031  0.6157
 3471SOL     OW11832   4.021   1.216   8.228  0.2965 -0.5617 -0.4102
 3471SOL    HW111833   4.074   1.262   8.163  0.8352  0.4222  0.6956
 3471SOL    HW211834   4.031   1.267   8.308 -2.4162 -0.2725 -0.1725
 3472SOL     OW11835   7.773   7.209   7.789 -0.2204 -0.0611 -0.0258
 3472SOL    HW111836   7.847   7.239   7.736 -0.3898 -0.2138 -0.3533
 3472SOL    HW211837   7.813   7.161   7.861 -0.0475 -2.3192 -1.5263
 3473SOL     OW11838   0.631   6.658   2.541 -0.4503  0.6138 -0.2375
 3473SOL    HW111839   0.672   6.572   2.554 -1.5599 -0.3818 -2.6484
 3473SOL    HW211840   0.546   6.639   2.502 -1.0585  2.8015 -0.1265
 3474SOL     OW11841   4.289   4.997   1.384  0.3121 -0.2045 -0.6653
 3474SOL    HW111842   4.260   5.084   1.411  2.1772 -0.7263  3.8413
 3474SOL    HW211843   4.382   5.007   1.366  0.2136 -1.0324 -1.7860
 3475SOL     OW11844   5.969   5.674   6.511 -0.4336 -0.1481  0.0129
 3475SOL    HW111845   5.989   5.583   6.491  0.3633  0.0197 -0.0176
 3475SOL    HW211846   6.050   5.721   6.488  0.1451  0.2131  2.5274
 3476SOL     OW11847   7.504   5.030   6.182  0.2478 -0.8144  0.6211
 3476SOL    HW111848   7.528   4.937   6.188  1.7785 -0.4159  1.0972
 3476SOL    HW211849   7.512   5.062   6.272  0.3519 -0.0780  0.3534
 3477SOL     OW11850   6.116   4.571   5.773  0.2887 -0.0262 -0.0945
 3477SOL    HW111851   6.041   4.583   5.714 -1.3025  0.6756  1.9619
 3477SOL    HW211852   6.150   4.484   5.752 -0.8075 -0.1781 -1.3708
 3478SOL     OW11853   4.575   5.630   7.265  0.3086  0.0979  0.1397
 3478SOL    HW111854   4.647   5.586   7.309 -0.2919 -0.3663  0.6821
 3478SOL    HW211855   4.555   5.575   7.190 -1.5965 -1.5749  1.7803
 3479SOL     OW11856   2.323   4.242   3.367 -0.1116  0.1623 -0.5927
 3479SOL    HW111857   2.389   4.309   3.351  0.2520  0.0414  0.3511
 3479SOL    HW211858   2.345   4.172   3.306 -0.1828  0.6782 -1.2224
 3480SOL     OW11859   0.780   0.614   2.690  1.0227  0.3490 -0.3086
 3480SOL    HW111860   0.746   0.583   2.606  0.6494 -2.4979  0.7679
 3480SOL    HW211861   0.874   0.623   2.676  1.1128 -1.0775 -0.8089
 3481SOL     OW11862   1.145   2.995   1.025  0.2815  0.0178 -0.1493
 3481SOL    HW111863   1.100   3.062   0.973  0.7232  0.0068 -0.5481
 3481SOL    HW211864   1.090   2.985   1.103  0.9948  1.9749  0.6908
 3482SOL     OW11865   8.134   4.494   5.267 -0.4276 -0.3554  0.8037
 3482SOL    HW111866   8.136   4.562   5.335 -0.9383 -0.0391  0.5026
 3482SOL    HW211867   8.089   4.421   5.309 -2.4436  0.4829  0.2432
 3483SOL     OW11868   3.538   6.607   7.635 -0.5841 -0.2548 -0.5284
 3483SOL    HW111869   3.587   6.528   7.612  1.1488  0.9031 -1.0185
 3483SOL    HW211870   3.605   6.668   7.667 -1.6892  1.4303 -1.3032
 3484SOL     OW11871   0.544   3.580   5.917  0.0120 -0.3578 -0.5542
 3484SOL    HW111872   0.496   3.612   5.841 -1.3644 -1.5425 -0.2326
 3484SOL    HW211873   0.612   3.524   5.881 -1.7494 -2.3736 -0.9179
 3485SOL     OW11874   1.489   5.811   2.537  0.1736 -0.1940 -0.0871
 3485SOL    HW111875   1.411   5.860   2.563  0.4032  0.3669 -0.4487
 3485SOL    HW211876   1.563   5.863   2.569  0.3984 -1.2526  1.2021
 3486SOL     OW11877   6.521   1.675   3.677 -0.3348  0.2959  0.1911
 3486SOL    HW111878   6.552   1.762   3.650 -1.2003  0.1966 -1.1905
 3486SOL    HW211879   6.427   1.678   3.663 -0.2499 -1.2132 -0.9010
 3487SOL     OW11880   3.956   1.927   1.415 -0.3021  0.0383  0.0858
 3487SOL    HW111881   3.906   1.902   1.337 -0.0050  0.2565 -0.1791
 3487SOL    HW211882   3.924   1.869   1.484 -0.0224 -0.6949 -0.3795
 3488SOL     OW11883   3.831   4.754   3.499 -0.2817 -0.2708  0.1220
 3488SOL    HW111884   3.861   4.783   3.585  0.2656  0.3666 -0.2638
 3488SOL    HW211885   3.747   4.711   3.515  0.7334 -1.9865  1.2429
 3489SOL     OW11886   7.412   1.162   6.671 -0.1967  0.7430 -0.3055
 3489SOL    HW111887   7.356   1.114   6.731  2.9667  0.4533  2.7231
 3489SOL    HW211888   7.385   1.253   6.680  0.7269  0.8268  2.3643
 3490SOL     OW11889   3.757   8.114   6.093  0.2004 -0.3722 -0.0568
 3490SOL    HW111890   3.738   8.206   6.077  1.9123 -0.1155 -0.7949
 3490SOL    HW211891   3.671   8.071   6.092 -0.4642  0.8946 -1.8448
 3491SOL     OW11892   3.487   4.616   4.460  0.1434 -0.0407 -0.1305
 3491SOL    HW111893   3.450   4.675   4.526 -2.1411  1.2839 -2.4104
 3491SOL    HW211894   3.446   4.532   4.478  0.5762 -0.0461  0.9093
 3492SOL     OW11895   4.699   7.222   3.219  0.3603 -0.4811  0.2568
 3492SOL    HW111896   4.773   7.196   3.274  0.4972 -0.3875  0.1163
 3492SOL    HW211897   4.732   7.217   3.129  0.6714  1.0463  0.2594
 3493SOL     OW11898   2.801   2.248   3.825  0.4049  0.2625  0.0407
 3493SOL    HW111899   2.805   2.343   3.834 -1.1929  0.3657 -0.0950
 3493SOL    HW211900   2.755   2.219   3.904  2.4197 -0.6053  0.9706
 3494SOL     OW11901   0.229   6.255   4.428 -0.1449 -0.1841 -0.0630
 3494SOL    HW111902   0.220   6.350   4.423 -0.6105 -0.2746 -1.3512
 3494SOL    HW211903   0.219   6.234   4.521  0.3933  1.0586  0.2888
 3495SOL     OW11904   8.230   4.517   6.564 -0.8427  0.2766  0.1822
 3495SOL    HW111905   8.257   4.447   6.623  0.2902  0.6983  0.1900
 3495SOL    HW211906   8.178   4.474   6.497 -0.6049 -0.4866  0.4822
 3496SOL     OW11907   0.552   0.395   3.824  0.1543 -0.0335 -0.0710
 3496SOL    HW111908   0.592   0.358   3.745 -0.3135 -0.4598 -0.1130
 3496SOL    HW211909   0.458   0.394   3.806  0.0662  0.1893  0.3570
 3497SOL     OW11910   6.256   6.678   2.570 -0.0861  0.2435  0.1364
 3497SOL    HW111911   6.255   6.773   2.562  0.1805  0.1842 -0.7347
 3497SOL    HW211912   6.172   6.650   2.532 -0.7744  0.2018  1.6312
 3498SOL     OW11913   3.516   7.143   3.354  0.3181 -0.2083 -0.5512
 3498SOL    HW111914   3.575   7.209   3.317  0.0885  0.8806  0.9291
 3498SOL    HW211915   3.461   7.117   3.280  0.5760  1.1038 -1.2477
 3499SOL     OW11916   7.890   6.324   5.384 -0.2142  0.2042 -0.2204
 3499SOL    HW111917   7.866   6.252   5.325  0.2494 -0.1856  0.0578
 3499SOL    HW211918   7.818   6.386   5.375 -0.5007 -0.1755 -0.6600
 3500SOL     OW11919   2.718   1.010   0.434 -0.3450 -0.2946 -0.7114
 3500SOL    HW111920   2.797   0.978   0.391  1.0608  0.6862  0.9878
 3500SOL    HW211921   2.729   0.983   0.526 -1.7298  0.3189 -0.3465
 3501SOL     OW11922   7.763   8.045   3.393 -0.6129 -0.5440  0.1766
 3501SOL    HW111923   7.672   8.051   3.423  0.0011  0.4235  2.0189
 3501SOL    HW211924   7.794   8.136   3.392 -0.1155 -0.6756 -2.0920
 3502SOL     OW11925   7.346   5.062   1.386 -0.0880 -0.9325  0.0421
 3502SOL    HW111926   7.414   5.051   1.454  0.0821  1.1057  0.2489
 3502SOL    HW211927   7.363   5.148   1.349 -1.9206 -0.8462 -0.6710
 3503SOL     OW11928   3.087   0.481   6.034  0.7775 -0.0974  0.2155
 3503SOL    HW111929   3.163   0.447   6.080  1.9092 -0.7327 -2.0004
 3503SOL    HW211930   3.109   0.572   6.014  1.3204 -0.4808 -1.0507
 3504SOL     OW11931   4.322   4.931   2.886 -0.2149  0.3942 -0.2772
 3504SOL    HW111932   4.344   4.914   2.978  1.4026 -1.0940 -0.8857
 3504SOL    HW211933   4.349   5.022   2.872  0.6204  0.2705  0.4360
 3505SOL     OW11934   4.505   2.688   1.062  0.6449  0.3786 -0.3928
 3505SOL    HW111935   4.553   2.770   1.051  1.4000  0.4387  2.6608
 3505SOL    HW211936   4.490   2.658   0.972  2.7009  2.4846 -1.5652
 3506SOL     OW11937   0.469   5.955   0.669  0.0289 -0.2953 -0.6805
 3506SOL    HW111938   0.476   5.917   0.756 -1.3957  1.5584  0.3120
 3506SOL    HW211939   0.520   6.036   0.673 -2.0014  1.0778 -0.7045
 3507SOL     OW11940   4.733   5.943   1.446 -0.1185 -0.3702  0.1425
 3507SOL    HW111941   4.773   5.875   1.501  0.7666  0.0941  0.0962
 3507SOL    HW211942   4.747   5.913   1.356 -2.1251 -1.4424  0.1409
 3508SOL     OW11943   1.306   7.662   4.874  0.1652 -0.5233 -0.4533
 3508SOL    HW111944   1.354   7.580   4.881 -0.4680 -0.8017  0.8231
 3508SOL    HW211945   1.215   7.639   4.894  0.0938  0.6024  0.6069
 3509SOL     OW11946   1.635   2.322   2.415 -0.6143  0.1494  0.0975
 3509SOL    HW111947   1.644   2.324   2.319  2.1506  0.7506  0.2818
 3509SOL    HW211948   1.686   2.397   2.445  0.7130 -1.4654  2.1448
 3510SOL     OW11949   3.680   8.101   2.767 -0.6501 -1.0792 -0.4036
 3510SOL    HW111950   3.625   8.062   2.698  0.3133 -1.5498 -0.9255
 3510SOL    HW211951   3.729   8.027   2.803 -1.3226 -0.8700  0.9697
 3511SOL     OW11952   0.761   5.503   0.069  1.0224 -0.7186  0.0611
 3511SOL    HW111953   0.720   5.546   0.144 -1.2408 -1.4866 -0.6783
 3511SOL    HW211954   0.742   5.561  -0.005 -2.4851 -2.9816 -1.0453
 3512SOL     OW11955   8.157   2.316   3.061  0.1074  0.1889  0.2701
 3512SOL    HW111956   8.087   2.252   3.061 -0.5765  0.8324 -2.3123
 3512SOL    HW211957   8.229   2.274   3.014 -0.5752  1.4619 -2.0176
 3513SOL     OW11958   2.892   1.407   6.571  0.0368 -0.2026  0.0095
 3513SOL    HW111959   2.966   1.392   6.512 -0.8294 -0.2137 -1.1056
 3513SOL    HW211960   2.931   1.446   6.649  1.2268 -0.2974 -0.5130
 3514SOL     OW11961   6.176   1.860   2.980  0.0498  0.1479  0.1694
 3514SOL    HW111962   6.213   1.840   2.894 -2.4467  0.7642 -1.1294
 3514SOL    HW211963   6.155   1.775   3.018  0.3881 -0.0939 -0.1774
 3515SOL     OW11964   6.350   0.049   0.054 -0.2205 -0.2531 -0.2109
 3515SOL    HW111965   6.399   0.118   0.099 -0.8048  0.1883 -0.2316
 3515SOL    HW211966   6.416  -0.010   0.020  0.2633 -1.3202  2.3189
 3516SOL     OW11967   1.281   1.703   0.566 -0.4415  0.1002 -0.4546
 3516SOL    HW111968   1.272   1.640   0.495 -1.5136  1.1383 -1.2926
 3516SOL    HW211969   1.305   1.785   0.522 -0.2979  0.5713  0.4711
 3517SOL     OW11970   0.866   7.417   6.489 -0.3135  0.3200  0.3668
 3517SOL    HW111971   0.775   7.441   6.471 -0.2536  0.1825 -0.1397
 3517SOL    HW211972   0.917   7.491   6.457 -0.2765  0.6631  1.2003
 3518SOL     OW11973   0.122   4.578   5.701  0.3727  0.0831  0.3470
 3518SOL    HW111974   0.044   4.602   5.751  0.4398 -0.8480  0.9341
 3518SOL    HW211975   0.092   4.574   5.610 -0.0800  0.4640  0.4726
 3519SOL     OW11976   2.095   3.733   6.063 -0.6199  0.1896 -0.0980
 3519SOL    HW111977   2.127   3.777   6.142 -1.7845  0.1266  0.4298
 3519SOL    HW211978   2.131   3.644   6.069 -2.1586 -0.3969  1.3405
 3520SOL     OW11979   5.187   0.828   3.576 -0.7438 -0.2267  0.0994
 3520SOL    HW111980   5.104   0.820   3.623 -0.9570 -0.7016 -0.3471
 3520SOL    HW211981   5.226   0.908   3.610 -1.9729  0.6926 -0.5747
 3521SOL     OW11982   0.607   1.520   2.272  0.0463 -0.2266  0.2225
 3521SOL    HW111983   0.615   1.482   2.359 -0.7141 -1.2326 -0.1344
 3521SOL    HW211984   0.688   1.496   2.228 -0.3177 -1.2398  0.0833
 3522SOL     OW11985   2.455   0.706   2.039  0.0361 -0.1089 -0.4528
 3522SOL    HW111986   2.515   0.779   2.057  0.7363 -0.9568  0.8591
 3522SOL    HW211987   2.506   0.646   1.985  0.8422 -1.3350  1.5362
 3523SOL     OW11988   7.080   7.287   8.239 -0.1505 -0.3215 -0.0229
 3523SOL    HW111989   7.068   7.249   8.152  1.4290  0.4354 -0.6073
 3523SOL    HW211990   7.147   7.232   8.281 -0.0676 -0.0041  0.2701
 3524SOL     OW11991   1.171   1.264   3.381  0.5666 -0.5470  0.1140
 3524SOL    HW111992   1.100   1.200   3.375  0.1121 -0.0121 -0.3045
 3524SOL    HW211993   1.251   1.212   3.367  0.3515 -1.3180  1.5695
 3525SOL     OW11994   3.498   0.607   2.264  0.8259 -0.3542  0.0615
 3525SOL    HW111995   3.489   0.703   2.263 -0.5948 -0.4329  0.8793
 3525SOL    HW211996   3.423   0.576   2.212  1.2941 -1.0202 -0.2199
 3526SOL     OW11997   3.009   6.162   2.498  0.3794 -0.0588 -0.0803
 3526SOL    HW111998   2.955   6.086   2.521 -0.5534  0.7621  0.5304
 3526SOL    HW211999   2.961   6.205   2.427 -0.1706  1.0739  0.9444
 3527SOL     OW12000   5.141   1.548   0.622  0.1038  0.3693  0.4957
 3527SOL    HW112001   5.234   1.566   0.610  0.5323 -1.2779  1.0144
 3527SOL    HW212002   5.132   1.455   0.599 -1.3337  0.4130  0.8008
 3528SOL     OW12003   7.287   6.895   0.499  0.2507 -0.4798 -0.3700
 3528SOL    HW112004   7.321   6.852   0.578  2.3185  1.8517  0.1455
 3528SOL    HW212005   7.193   6.879   0.501  0.6821 -3.6204  0.5191
 3529SOL     OW12006   5.251   1.064   8.163 -0.1083  0.4267  0.6315
 3529SOL    HW112007   5.346   1.058   8.152 -0.1819  0.9301 -0.4055
 3529SOL    HW212008   5.238   1.140   8.219  0.1084  0.1376  1.0829
 3530SOL     OW12009   0.154   3.160   3.491 -0.7837 -0.5049  0.1696
 3530SOL    HW112010   0.171   3.066   3.500 -0.6193 -0.5951 -1.0302
 3530SOL    HW212011   0.072   3.165   3.443 -2.7948 -0.0398  3.3132
 3531SOL     OW12012   0.243   1.840   1.350  0.6170  0.2351  0.1112
 3531SOL    HW112013   0.214   1.790   1.274  0.7127 -3.4827  2.2500
 3531SOL    HW212014   0.339   1.830   1.351  0.4387 -2.2762  2.0948
 3532SOL     OW12015   0.340   1.707   5.961 -0.2437  0.2794  0.2653
 3532SOL    HW112016   0.336   1.749   6.047 -1.8752  0.2077  0.2701
 3532SOL    HW212017   0.401   1.760   5.910 -0.3157  1.1349  1.0537
 3533SOL     OW12018   0.401   0.361   2.002  0.6349 -0.1154 -0.0680
 3533SOL    HW112019   0.472   0.424   2.016  1.0355 -0.0680 -2.0233
 3533SOL    HW212020   0.324   0.414   1.983  0.8627 -0.1877 -1.2429
 3534SOL     OW12021   7.050   2.387   7.860  0.1977 -0.2370  0.0612
 3534SOL    HW112022   7.096   2.397   7.943 -0.0759 -1.1866  0.3479
 3534SOL    HW212023   6.991   2.312   7.874  0.8666 -1.0703 -1.2801
 3535SOL     OW12024   1.788   5.046   0.855 -0.5599 -0.0815  0.2887
 3535SOL    HW112025   1.750   5.088   0.933 -2.4877 -1.3394  0.1009
 3535SOL    HW212026   1.753   4.957   0.857  1.1656 -0.8406 -0.8387
 3536SOL     OW12027   6.705   7.219   8.080 -0.2057  0.2063 -0.0920
 3536SOL    HW112028   6.622   7.243   8.121 -0.2841 -2.1997  1.3778
 3536SOL    HW212029   6.772   7.263   8.133 -0.4837  1.7380 -0.9678
 3537SOL     OW12030   5.312   0.620   2.948  0.5818 -0.7808  0.0574
 3537SOL    HW112031   5.229   0.620   2.995  1.8582  0.2483  2.4485
 3537SOL    HW212032   5.308   0.698   2.893  0.3204 -0.2097  0.8655
 3538SOL     OW12033   7.494   2.273   4.775  0.9219 -0.2135  0.3175
 3538SOL    HW112034   7.549   2.339   4.817  0.3115  0.7995 -0.4253
 3538SOL    HW212035   7.501   2.196   4.832  1.9556  0.3511  0.9956
 3539SOL     OW12036   5.856   0.049   4.018  0.2637  0.5435  0.2400
 3539SOL    HW112037   5.879   0.101   3.940  0.4355  0.0444 -0.0480
 3539SOL    HW212038   5.940   0.031   4.060  0.3128 -0.3887 -0.2376
 3540SOL     OW12039   8.293   0.555   2.875  0.3552 -0.0172  0.2457
 3540SOL    HW112040   8.367   0.616   2.879  1.2956 -1.0639 -0.4259
 3540SOL    HW212041   8.301   0.503   2.954  0.0199  0.1995  0.4258
 3541SOL     OW12042   2.705   0.068   1.955 -0.3562  0.9155  0.3961
 3541SOL    HW112043   2.747   0.152   1.976  0.9853  0.3316  0.2018
 3541SOL    HW212044   2.645   0.052   2.027 -1.2758  2.4411  0.0082
 3542SOL     OW12045   1.584   4.378   5.822  0.1054 -0.1185 -0.3233
 3542SOL    HW112046   1.537   4.310   5.870  1.5830 -1.5318 -0.8088
 3542SOL    HW212047   1.669   4.338   5.800  1.0984  1.9341 -0.4625
 3543SOL     OW12048   3.349   5.644   0.931  0.8866 -0.0345 -0.1000
 3543SOL    HW112049   3.330   5.595   0.851  0.8481  0.3810 -0.3486
 3543SOL    HW212050   3.418   5.706   0.905  0.1784  0.7795 -0.0643
 3544SOL     OW12051   1.174   3.596   1.781  0.1603  0.2147  0.4104
 3544SOL    HW112052   1.099   3.653   1.794  0.7712  0.8578  1.2780
 3544SOL    HW212053   1.139   3.507   1.792 -0.8507  0.3765 -1.2251
 3545SOL     OW12054   7.449   2.531   7.016  0.0538 -0.2862  0.5583
 3545SOL    HW112055   7.388   2.457   7.017 -1.2929  0.7586 -0.3380
 3545SOL    HW212056   7.396   2.605   6.986  1.6739  0.7685  0.1818
 3546SOL     OW12057   5.457   5.711   6.993  0.0796 -0.2282 -0.3932
 3546SOL    HW112058   5.434   5.714   6.900 -1.8306  0.3307  0.0414
 3546SOL    HW212059   5.390   5.766   7.035  1.9068  0.9665  1.1278
 3547SOL     OW12060   0.870   2.807   0.649 -0.4564 -0.2021 -0.1704
 3547SOL    HW112061   0.897   2.786   0.738 -0.1167 -0.0668 -0.2423
 3547SOL    HW212062   0.946   2.786   0.595 -1.4191 -2.6154 -0.7526
 3548SOL     OW12063   0.500   1.152   1.691 -0.2838  0.8721 -0.5173
 3548SOL    HW112064   0.471   1.093   1.622  3.0317  0.1792 -1.4685
 3548SOL    HW212065   0.433   1.144   1.759 -1.5230 -1.6313 -1.9000
 3549SOL     OW12066   2.203   2.634   4.435 -0.5134 -0.0483 -0.1054
 3549SOL    HW112067   2.116   2.666   4.413 -0.8280 -0.6540  0.2261
 3549SOL    HW212068   2.226   2.574   4.364 -0.4394 -0.0197 -0.1055
 3550SOL     OW12069   1.210   7.282   3.834 -0.0180  0.0894 -0.1099
 3550SOL    HW112070   1.243   7.314   3.918 -0.4005 -1.4904  0.6782
 3550SOL    HW212071   1.279   7.225   3.801  1.3251  2.6976 -2.2305
 3551SOL     OW12072   8.281   3.099   3.866  0.6817  0.3381  0.3031
 3551SOL    HW112073   8.356   3.090   3.925 -0.1437 -0.9602  1.1973
 3551SOL    HW212074   8.207   3.120   3.923 -0.0100 -0.3317 -0.3138
 3552SOL     OW12075   1.171   6.320   6.918  0.0228  0.1938 -0.1226
 3552SOL    HW112076   1.159   6.413   6.901  0.1201  0.1764 -0.2775
 3552SOL    HW212077   1.151   6.277   6.835 -2.0087 -0.0788  0.4369
 3553SOL     OW12078   6.703   0.125   4.496 -0.1813  0.4715 -0.2582
 3553SOL    HW112079   6.665   0.148   4.580 -0.2131 -2.0334  0.4671
 3553SOL    HW212080   6.796   0.150   4.504 -0.3684  1.0582  0.1498
 3554SOL     OW12081   7.619   4.797   6.269  0.0028  0.2253 -0.4021
 3554SOL    HW112082   7.616   4.740   6.346 -3.4747  0.2824 -0.3723
 3554SOL    HW212083   7.621   4.736   6.195 -2.0483  0.0213 -0.3304
 3555SOL     OW12084   7.016   7.411   1.936  0.0102 -0.0742 -0.3280
 3555SOL    HW112085   6.924   7.402   1.911 -0.0537 -0.1557 -0.0637
 3555SOL    HW212086   7.063   7.407   1.853 -0.2859  0.9194 -0.5607
 3556SOL     OW12087   5.264   7.488   5.676 -0.1342 -0.5188 -0.3412
 3556SOL    HW112088   5.205   7.557   5.644 -1.8123 -1.6918  0.0454
 3556SOL    HW212089   5.205   7.419   5.706  1.4848 -1.8861 -0.1647
 3557SOL     OW12090   2.484   6.684   3.002 -0.5084  0.0307  0.3179
 3557SOL    HW112091   2.512   6.648   3.087 -1.9845  0.7266  1.1384
 3557SOL    HW212092   2.433   6.614   2.963  0.7181 -0.5363 -0.3266
 3558SOL     OW12093   2.499   7.073   1.715  0.4013  0.7798 -0.3868
 3558SOL    HW112094   2.557   7.005   1.680  0.5820  0.1772  1.0299
 3558SOL    HW212095   2.411   7.039   1.699  0.4819  0.5039 -0.2610
 3559SOL     OW12096   8.240   6.851   1.001  0.1461 -0.2047  0.2069
 3559SOL    HW112097   8.265   6.799   0.925  0.9237  0.1572  0.2028
 3559SOL    HW212098   8.323   6.875   1.043 -0.2406  0.1510  0.7974
 3560SOL     OW12099   3.475   3.508   0.041 -0.0490 -0.3439 -0.0182
 3560SOL    HW112100   3.528   3.466   0.108  0.1061 -1.1580 -0.6336
 3560SOL    HW212101   3.388   3.517   0.080 -0.2828 -1.9251 -0.1311
 3561SOL     OW12102   3.880   4.085   7.641  0.1221  0.3414  0.3057
 3561SOL    HW112103   3.933   4.133   7.705  0.6164 -0.9897  0.9357
 3561SOL    HW212104   3.910   3.994   7.648 -3.1170 -0.7779  1.7076
 3562SOL     OW12105   3.686   5.056   3.633  0.4193 -0.1787  0.4028
 3562SOL    HW112106   3.696   5.099   3.549 -0.6230  0.8813  0.7875
 3562SOL    HW212107   3.598   5.017   3.630  0.9590 -1.4238  0.4398
 3563SOL     OW12108   3.392   3.981   6.731  0.9629 -0.4600  0.6831
 3563SOL    HW112109   3.322   3.982   6.796  0.1273  0.7404 -0.1837
 3563SOL    HW212110   3.413   3.888   6.719 -0.5355 -0.8670  0.9279
 3564SOL     OW12111   7.986   0.981   3.268 -0.1214 -0.2180  0.3562
 3564SOL    HW112112   8.051   1.001   3.336 -1.9717  0.9333  1.8803
 3564SOL    HW212113   7.994   0.886   3.255 -0.2569 -0.6591  2.8465
 3565SOL     OW12114   4.293   1.975   8.001 -0.4300  0.3192 -0.0298
 3565SOL    HW112115   4.356   1.950   8.069 -1.6772  0.1105  1.0814
 3565SOL    HW212116   4.307   2.069   7.989 -0.9845  0.5977  1.3729
 3566SOL     OW12117   3.658   0.564   5.975  0.0133  0.0631 -0.6549
 3566SOL    HW112118   3.660   0.487   5.918 -0.7817  0.4772 -1.2659
 3566SOL    HW212119   3.573   0.604   5.957  0.1750  0.7625  0.0920
 3567SOL     OW12120   1.316   8.276   4.842  0.3049 -0.1716 -0.6068
 3567SOL    HW112121   1.221   8.286   4.831  0.1325 -0.1915  0.7192
 3567SOL    HW212122   1.354   8.350   4.794 -0.5387  1.7420  1.4803
 3568SOL     OW12123   6.715   2.771   5.386  0.2614 -0.2255 -0.4332
 3568SOL    HW112124   6.651   2.838   5.363  1.0388  0.7580  0.1762
 3568SOL    HW212125   6.800   2.808   5.361  0.6336 -1.3698 -0.9296
 3569SOL     OW12126   4.192   8.089   7.966  0.0061 -0.0333  0.1491
 3569SOL    HW112127   4.108   8.131   7.985  0.5992  0.5253  1.6359
 3569SOL    HW212128   4.168   8.009   7.919 -1.2455  1.0003 -1.0460
 3570SOL     OW12129   7.855   0.368   0.085 -0.1024 -0.3168 -0.7952
 3570SOL    HW112130   7.762   0.350   0.100 -0.1069 -0.1902 -0.6703
 3570SOL    HW212131   7.900   0.293   0.123 -0.1130  0.0102 -0.1216
 3571SOL     OW12132   3.510   3.003   4.430  0.4824  0.3172 -0.0537
 3571SOL    HW112133   3.559   2.921   4.430 -0.1847 -0.1232 -1.5702
 3571SOL    HW212134   3.504   3.027   4.337 -1.1026  1.0068  0.1954
 3572SOL     OW12135   5.570   7.905   5.290 -0.1810  0.0389 -0.1573
 3572SOL    HW112136   5.661   7.933   5.292  0.1015 -0.6995 -1.3423
 3572SOL    HW212137   5.555   7.864   5.375  0.7522 -0.3015 -0.1520
 3573SOL     OW12138   3.816   8.138   4.387 -0.1380  0.3679  0.1656
 3573SOL    HW112139   3.786   8.229   4.386  0.4755  0.6046  1.1490
 3573SOL    HW212140   3.883   8.134   4.319 -0.9372  0.3625 -0.6304
 3574SOL     OW12141   1.481   0.813   2.157  0.3821  0.4573  0.3770
 3574SOL    HW112142   1.479   0.718   2.164  1.2276  0.3144 -0.9295
 3574SOL    HW212143   1.390   0.838   2.144  0.2157 -0.2356  0.1786
 3575SOL     OW12144   5.929   8.236   2.622 -0.0768 -0.2213 -0.3168
 3575SOL    HW112145   5.934   8.148   2.586  0.3388 -0.9136  1.3398
 3575SOL    HW212146   5.921   8.293   2.545  0.9128 -1.5903 -1.4922
 3576SOL     OW12147   4.658   4.996   5.284 -0.0292 -0.8056  0.6648
 3576SOL    HW112148   4.682   4.970   5.195  0.1428  0.4352  0.3316
 3576SOL    HW212149   4.565   5.016   5.279  0.3511  0.9996  0.3130
 3577SOL     OW12150   6.992   2.064   0.294  0.3651  0.2537  0.1557
 3577SOL    HW112151   6.961   2.000   0.230 -0.0740  0.3664  0.2458
 3577SOL    HW212152   6.922   2.130   0.297 -0.7122 -0.8758  2.3598
 3578SOL     OW12153   4.735   7.134   4.651 -0.2244  0.3217 -0.1315
 3578SOL    HW112154   4.744   7.220   4.691 -2.3834  0.4034  0.2632
 3578SOL    HW212155   4.819   7.091   4.669  0.1385  1.5999  1.4641
 3579SOL     OW12156   7.765   1.244   0.726  0.6229 -0.0340 -0.2039
 3579SOL    HW112157   7.670   1.256   0.725  0.5823 -0.2618  0.5860
 3579SOL    HW212158   7.778   1.157   0.687  0.5094 -0.0072 -0.3034
 3580SOL     OW12159   4.410   2.027   3.914 -0.6410 -0.0958 -0.0087
 3580SOL    HW112160   4.486   2.008   3.968  0.0357  1.1331 -0.4865
 3580SOL    HW212161   4.342   2.052   3.976  0.1115  1.2409  0.3155
 3581SOL     OW12162   7.319   3.303   6.768  0.5207 -0.8687 -0.0442
 3581SOL    HW112163   7.322   3.385   6.719 -0.2498 -1.7201 -1.5955
 3581SOL    HW212164   7.361   3.323   6.851 -1.2115  1.5584  0.3424
 3582SOL     OW12165   8.159   3.725   0.701  0.0303  0.1078  0.3892
 3582SOL    HW112166   8.135   3.720   0.608  1.2620  0.8159  0.0044
 3582SOL    HW212167   8.167   3.819   0.718  1.2397 -0.0496  0.8029
 3583SOL     OW12168   4.305   7.524   0.603  0.0526  0.0056 -0.2486
 3583SOL    HW112169   4.331   7.432   0.609  0.9789  0.3230  1.1034
 3583SOL    HW212170   4.347   7.556   0.523 -0.5867 -0.8153 -0.9380
 3584SOL     OW12171   7.706   4.698   6.525 -0.3409 -0.0275 -0.3403
 3584SOL    HW112172   7.670   4.682   6.612 -1.2894 -0.4516 -0.8042
 3584SOL    HW212173   7.722   4.792   6.523 -0.4224  0.0058  0.2402
 3585SOL     OW12174   3.384   4.256   2.632  0.3110  0.1413  0.6247
 3585SOL    HW112175   3.474   4.231   2.610  0.7956  0.2748  2.3173
 3585SOL    HW212176   3.330   4.184   2.600  1.2828 -1.1416  1.7502
 3586SOL     OW12177   1.281   6.475   4.085  0.2791  0.6793  0.1446
 3586SOL    HW112178   1.286   6.384   4.056  2.1933  1.3083 -1.7023
 3586SOL    HW212179   1.187   6.494   4.087 -0.1466 -1.2328  0.3271
 3587SOL     OW12180   1.022   2.857   4.932 -0.1808 -0.0810  0.1422
 3587SOL    HW112181   1.087   2.861   4.862 -0.7207  0.2385 -0.3487
 3587SOL    HW212182   1.001   2.765   4.940 -1.5572  0.0508 -1.4762
 3588SOL     OW12183   6.085   1.351   0.864 -0.1020 -0.7188  0.0247
 3588SOL    HW112184   6.027   1.277   0.884 -1.6585  0.5808  0.6138
 3588SOL    HW212185   6.111   1.338   0.773 -1.6051 -1.2103 -0.3647
 3589SOL     OW12186   0.301   4.274   0.077  0.1227 -0.2778  0.1132
 3589SOL    HW112187   0.259   4.245  -0.004  1.4569 -2.8874  0.2542
 3589SOL    HW212188   0.241   4.249   0.146 -0.4290  0.7870  0.0401
 3590SOL     OW12189   2.289   1.632   0.586  0.3903  0.0407 -0.2208
 3590SOL    HW112190   2.245   1.648   0.503  0.1971  0.4607 -0.0388
 3590SOL    HW212191   2.377   1.667   0.573  0.9279 -1.4537 -0.8341
 3591SOL     OW12192   4.439   5.864   2.918  0.0273 -0.1291 -0.0554
 3591SOL    HW112193   4.399   5.951   2.925  1.3789  0.6916 -1.7073
 3591SOL    HW212194   4.530   5.877   2.944 -0.0972 -1.4082  1.1362
 3592SOL     OW12195   0.018   7.714   6.227 -0.1692 -0.5490 -0.1331
 3592SOL    HW112196   0.101   7.705   6.275  0.1986 -0.9937 -0.8416
 3592SOL    HW212197  -0.032   7.636   6.252 -0.1461 -0.5686 -0.1480
 3593SOL     OW12198   0.675   2.726   4.721  0.4391  0.0314  0.2941
 3593SOL    HW112199   0.702   2.669   4.793 -0.8348 -1.7337 -0.5563
 3593SOL    HW212200   0.583   2.746   4.740 -0.0171 -0.7537 -1.0017
 3594SOL     OW12201   2.890   6.905   5.642  0.3206 -0.1584  0.3647
 3594SOL    HW112202   2.853   6.831   5.690 -0.8608  0.4954  0.4850
 3594SOL    HW212203   2.896   6.875   5.551 -0.1875 -0.3881  0.4076
 3595SOL     OW12204   0.054   7.256   8.121 -0.0950  1.0375  0.0051
 3595SOL    HW112205   0.037   7.264   8.027 -1.5514  0.1651  0.1743
 3595SOL    HW212206   0.097   7.339   8.144  0.6585  1.1008 -1.4866
 3596SOL     OW12207   2.498   7.542   6.121 -0.2434 -0.0343  0.3292
 3596SOL    HW112208   2.407   7.573   6.121 -0.0730  0.5271  1.4876
 3596SOL    HW212209   2.505   7.490   6.201  0.6811  0.6471  0.6985
 3597SOL     OW12210   2.990   1.532   6.825 -0.0554  0.4824 -0.5034
 3597SOL    HW112211   2.903   1.573   6.823 -0.4135 -0.1610  0.8055
 3597SOL    HW212212   3.031   1.567   6.905  0.4774 -0.0485 -0.5395
 3598SOL     OW12213   8.071   5.562   0.339  0.1023 -0.4072  0.8999
 3598SOL    HW112214   8.046   5.646   0.299 -2.2672 -1.4034  0.1202
 3598SOL    HW212215   8.040   5.569   0.429  0.5007 -0.2073  1.0230
 3599SOL     OW12216   8.132   4.333   3.343  0.1257  0.2194  0.5659
 3599SOL    HW112217   8.119   4.316   3.436  0.8064 -2.2148  0.2857
 3599SOL    HW212218   8.183   4.259   3.312 -1.7233 -0.0632 -2.1673
 3600SOL     OW12219   1.502   3.421   5.980 -0.4646  0.1411  0.0819
 3600SOL    HW112220   1.422   3.430   6.032 -0.9056 -0.6197 -0.4494
 3600SOL    HW212221   1.572   3.440   6.042 -0.9761 -0.8172  0.9945
 3601SOL     OW12222   1.366   2.502   6.835 -0.3840  0.0624 -0.8420
 3601SOL    HW112223   1.375   2.407   6.834  0.8944  0.1686 -2.1627
 3601SOL    HW212224   1.452   2.535   6.809 -0.2852  1.6498  1.2033
 3602SOL     OW12225   8.289   1.986   1.865  0.4515 -0.0358 -0.1849
 3602SOL    HW112226   8.325   2.014   1.950 -1.3980 -0.0368  0.6462
 3602SOL    HW212227   8.265   2.068   1.821 -1.3067 -0.1089  0.5732
 3603SOL     OW12228   2.871   8.220   2.140 -0.4395  0.2486 -0.6125
 3603SOL    HW112229   2.799   8.157   2.138  1.1983 -1.7085 -2.6690
 3603SOL    HW212230   2.875   8.255   2.052 -0.3362  2.1652  0.1163
 3604SOL     OW12231   1.767   7.621   0.699 -0.0405 -0.2896  0.4126
 3604SOL    HW112232   1.787   7.712   0.676  0.2594 -0.2543  0.7987
 3604SOL    HW212233   1.852   7.578   0.704 -0.2135 -0.7849 -0.5012
 3605SOL     OW12234   5.729   6.325   4.905  0.0094  0.4467  0.3096
 3605SOL    HW112235   5.809   6.337   4.854 -0.7784  0.4767 -0.9421
 3605SOL    HW212236   5.726   6.400   4.964  1.0977  0.2373  0.6594
 3606SOL     OW12237   0.553   6.183   0.058 -0.1494  0.5255 -0.2914
 3606SOL    HW112238   0.614   6.158  -0.012  1.5761  1.9466  0.6010
 3606SOL    HW212239   0.594   6.151   0.138 -0.9813  0.8433  0.2771
 3607SOL     OW12240   6.414   5.101   4.353  0.1561  0.3149  0.3397
 3607SOL    HW112241   6.355   5.161   4.398  0.2080 -0.2905  1.2286
 3607SOL    HW212242   6.421   5.026   4.411  1.2301  0.0687 -0.0884
 3608SOL     OW12243   3.935   1.984   8.158 -0.2962  0.0793 -0.2050
 3608SOL    HW112244   3.910   1.894   8.178 -0.1724  0.2737  0.9139
 3608SOL    HW212245   3.994   2.009   8.229  0.5220  0.6966 -1.0742
 3609SOL     OW12246   7.100   6.246   0.269 -0.1010 -0.3769 -0.2273
 3609SOL    HW112247   7.015   6.217   0.235 -0.1140 -0.1706 -0.3767
 3609SOL    HW212248   7.150   6.269   0.191 -0.7885  1.9314 -0.0725
 3610SOL     OW12249   6.718   1.983   5.259  0.3505  0.0786 -0.0117
 3610SOL    HW112250   6.649   1.927   5.294  1.1300  0.7191  2.8380
 3610SOL    HW212251   6.671   2.053   5.214 -1.0173  1.0834  2.7535
 3611SOL     OW12252   3.498   3.635   7.485  0.0051 -0.3000 -0.1941
 3611SOL    HW112253   3.544   3.705   7.531  0.8998 -0.5696 -0.6545
 3611SOL    HW212254   3.494   3.563   7.548 -0.5078 -0.0100  0.1188
 3612SOL     OW12255   3.197   5.849   5.118 -0.3751  0.3153  0.2661
 3612SOL    HW112256   3.146   5.816   5.044  0.0754  1.2518 -0.4722
 3612SOL    HW212257   3.155   5.932   5.141  2.1501  2.3529 -1.8891
 3613SOL     OW12258   4.705   1.064   8.081  0.6296  0.5201 -0.2225
 3613SOL    HW112259   4.696   0.985   8.028 -1.3337  0.0445  0.7087
 3613SOL    HW212260   4.788   1.053   8.127  0.1028 -1.3524  0.3728
 3614SOL     OW12261   0.335   6.284   0.148  0.6479 -0.3938  0.1305
 3614SOL    HW112262   0.265   6.219   0.151  0.7489 -0.4705  1.3646
 3614SOL    HW212263   0.405   6.241   0.100 -0.0332 -0.4250 -0.8651
 3615SOL     OW12264   6.578   3.101   3.983  0.2431 -0.4924  0.2170
 3615SOL    HW112265   6.491   3.073   3.954 -0.3748 -0.1542  1.6709
 3615SOL    HW212266   6.562   3.168   4.049  1.6264 -0.1145  0.2114
 3616SOL     OW12267   4.837   8.219   6.628  0.4294 -0.3640 -0.7986
 3616SOL    HW112268   4.749   8.213   6.591  0.1451 -1.3894 -0.0183
 3616SOL    HW212269   4.873   8.300   6.593 -1.0261  0.3476 -0.7192
 3617SOL     OW12270   6.855   8.309   1.759 -0.4146  0.0400 -0.0879
 3617SOL    HW112271   6.801   8.302   1.837 -0.8594 -1.4664 -0.5068
 3617SOL    HW212272   6.882   8.401   1.757 -2.3881  0.6845  0.4985
 3618SOL     OW12273   6.253   2.398   7.523  0.6387 -0.1461 -0.3331
 3618SOL    HW112274   6.294   2.484   7.526  1.0734 -0.3193 -0.9763
 3618SOL    HW212275   6.285   2.353   7.601 -0.3377  0.5842  0.5248
 3619SOL     OW12276   5.697   4.243   1.923 -0.6945  0.0681 -0.1046
 3619SOL    HW112277   5.728   4.250   2.013 -0.1563  1.2681 -0.3658
 3619SOL    HW212278   5.601   4.246   1.930 -0.6545  0.1385  0.4253
 3620SOL     OW12279   3.527   5.726   7.524  0.1556 -0.0095  0.1683
 3620SOL    HW112280   3.581   5.679   7.587  0.9097 -1.7508 -1.6743
 3620SOL    HW212281   3.439   5.690   7.537  0.3251 -0.4240  0.1804
 3621SOL     OW12282   3.729   3.032   1.944 -0.2190  0.4849 -0.1976
 3621SOL    HW112283   3.810   3.083   1.949 -1.6175  2.8188  0.0810
 3621SOL    HW212284   3.758   2.943   1.924  2.2794  1.6952 -2.6846
 3622SOL     OW12285   4.329   8.239   4.857 -0.9648  0.4961  0.0093
 3622SOL    HW112286   4.410   8.232   4.808 -0.3161  1.1598  0.9560
 3622SOL    HW212287   4.303   8.149   4.876  0.6265  0.2876  1.4030
 3623SOL     OW12288   2.792   4.611   5.873 -0.0733  0.4619 -0.4536
 3623SOL    HW112289   2.711   4.650   5.905  0.0174  0.3892 -0.1323
 3623SOL    HW212290   2.766   4.525   5.841 -0.1501  0.5032 -0.5026
 3624SOL     OW12291   1.638   4.204   7.735 -0.1268  0.3428  0.2057
 3624SOL    HW112292   1.583   4.154   7.796 -0.2698 -0.4676 -0.5690
 3624SOL    HW212293   1.605   4.293   7.741 -2.6268 -0.3532 -1.3702
 3625SOL     OW12294   2.641   6.969   6.250  0.0702 -0.2386  0.3084
 3625SOL    HW112295   2.636   7.014   6.335  1.4095  0.8311 -0.1262
 3625SOL    HW212296   2.729   6.932   6.249  0.8636  1.5105 -1.3997
 3626SOL     OW12297   3.372   7.295   2.247 -0.0163  0.5087  0.5676
 3626SOL    HW112298   3.419   7.213   2.264  2.0263  1.5539  0.3241
 3626SOL    HW212299   3.294   7.291   2.302 -0.0859 -1.6685  0.3900
 3627SOL     OW12300   3.031   0.605   0.054 -0.4489 -0.4090 -1.0388
 3627SOL    HW112301   3.022   0.600   0.149 -1.4702  0.2879 -1.0809
 3627SOL    HW212302   3.068   0.692   0.039 -1.3500 -0.0667 -1.3282
 3628SOL     OW12303   5.907   7.193   6.563 -0.4372 -0.0024  0.1980
 3628SOL    HW112304   5.859   7.111   6.567  0.0576 -0.2619  3.1598
 3628SOL    HW212305   5.877   7.235   6.482 -2.2632 -2.1138 -0.3093
 3629SOL     OW12306   6.374   0.922   4.700 -0.0405  0.2004  0.2036
 3629SOL    HW112307   6.374   1.007   4.742 -0.2110  0.1635  0.2822
 3629SOL    HW212308   6.459   0.915   4.657  0.1106  0.2611  0.4923
 3630SOL     OW12309   0.297   0.533   1.350  0.6399  0.2460 -0.5298
 3630SOL    HW112310   0.218   0.552   1.401 -0.2012 -0.5447 -1.5196
 3630SOL    HW212311   0.365   0.520   1.416 -0.4911 -1.0644  0.4261
 3631SOL     OW12312   3.799   2.183   0.510  0.8238 -0.5042 -0.1784
 3631SOL    HW112313   3.848   2.207   0.589 -0.5944  0.4997  0.4406
 3631SOL    HW212314   3.783   2.089   0.519  0.3065 -0.3263  0.9755
 3632SOL     OW12315   4.006   7.605   0.655 -0.6111  0.1230  0.7010
 3632SOL    HW112316   3.973   7.519   0.629 -2.7848  1.2193 -0.4170
 3632SOL    HW212317   4.101   7.596   0.653 -0.7938 -2.0998  0.0956
 3633SOL     OW12318   0.588   4.224   0.983  0.3677  0.4632  0.1142
 3633SOL    HW112319   0.570   4.155   1.047  0.9213  0.7858  0.6306
 3633SOL    HW212320   0.664   4.193   0.935  0.6504  0.7328  0.3830
 3634SOL     OW12321   0.295   2.337   8.265  0.4724 -0.1136  0.2600
 3634SOL    HW112322   0.222   2.367   8.211  0.0304 -2.4059 -0.5133
 3634SOL    HW212323   0.338   2.418   8.293 -0.7614  1.2249 -1.4618
 3635SOL     OW12324   5.392   0.864   4.625 -0.4424  0.4893  0.1502
 3635SOL    HW112325   5.400   0.797   4.693 -0.4621 -0.4782 -0.7792
 3635SOL    HW212326   5.452   0.835   4.556  0.1352  1.8433  0.0504
 3636SOL     OW12327   3.060   7.515   0.355 -0.3925 -0.0607  0.4454
 3636SOL    HW112328   3.064   7.520   0.451 -0.4321 -0.9465  0.4972
 3636SOL    HW212329   3.093   7.428   0.334  0.3777  0.4171 -0.3997
 3637SOL     OW12330   5.158   2.693   6.121 -0.5757 -0.3169 -0.6642
 3637SOL    HW112331   5.089   2.665   6.181 -0.6168 -0.2487 -0.6804
 3637SOL    HW212332   5.223   2.735   6.177 -1.0083  0.5078 -0.7671
 3638SOL     OW12333   6.100   0.900   3.906 -0.3565 -0.0704  0.1856
 3638SOL    HW112334   6.062   0.977   3.948 -1.0788 -0.3577  0.0842
 3638SOL    HW212335   6.058   0.896   3.820  0.2229 -0.1664 -0.1005
 3639SOL     OW12336   3.498   6.340   6.088 -0.0294  0.2938 -0.3496
 3639SOL    HW112337   3.464   6.389   6.012  2.5594  1.7686 -0.6689
 3639SOL    HW212338   3.586   6.375   6.101 -0.2180 -0.2386  3.1031
 3640SOL     OW12339   1.217   2.499   0.416 -0.1686 -0.1551  0.2261
 3640SOL    HW112340   1.171   2.570   0.460 -0.3832 -0.5479  0.6549
 3640SOL    HW212341   1.310   2.515   0.435 -0.2565 -0.2920  0.7854
 3641SOL     OW12342   3.627   0.644   7.507 -0.1861 -0.1894 -0.6719
 3641SOL    HW112343   3.658   0.728   7.541  0.1603 -0.3709 -0.5275
 3641SOL    HW212344   3.670   0.579   7.563  0.9914 -0.5165 -1.9151
 3642SOL     OW12345   1.212   3.729   0.965 -0.2671 -0.1774 -0.6653
 3642SOL    HW112346   1.170   3.698   0.885  0.1756 -1.9180 -0.2534
 3642SOL    HW212347   1.306   3.715   0.949 -0.1493 -0.1610  0.0104
 3643SOL     OW12348   1.935   6.371   8.069  0.3759 -0.2378  0.4142
 3643SOL    HW112349   1.984   6.431   8.125 -1.4339  0.1379  1.6903
 3643SOL    HW212350   1.927   6.291   8.121 -2.3986  0.5345  1.3578
 3644SOL     OW12351   0.742   4.236   3.289 -0.3302  0.4116  0.8338
 3644SOL    HW112352   0.662   4.283   3.267 -0.8029 -0.2887  1.0339
 3644SOL    HW212353   0.776   4.282   3.366  0.5325  1.9355 -0.3802
 3645SOL     OW12354   4.355   3.196   0.230 -0.4577  0.1846  0.2298
 3645SOL    HW112355   4.414   3.125   0.255 -0.6850 -0.0755  0.0357
 3645SOL    HW212356   4.376   3.267   0.291 -3.1958 -1.4723  3.4302
 3646SOL     OW12357   0.860   7.190   4.924 -0.4569  0.2278  0.1081
 3646SOL    HW112358   0.816   7.126   4.980  1.1208  1.1448  2.5786
 3646SOL    HW212359   0.843   7.274   4.967  0.1649  1.1028 -1.2814
 3647SOL     OW12360   5.887   3.619   2.313  0.3456  0.5207  0.6598
 3647SOL    HW112361   5.830   3.573   2.253  1.1255  0.8816 -0.3884
 3647SOL    HW212362   5.850   3.707   2.318  0.5757  0.6414  0.2872
 3648SOL     OW12363   1.234   3.437   3.358 -0.1281  0.5275 -0.1313
 3648SOL    HW112364   1.147   3.473   3.372 -0.2171  1.0844 -1.8987
 3648SOL    HW212365   1.253   3.454   3.266  1.4986 -0.3602 -0.0037
 3649SOL     OW12366   2.773   4.298   4.108 -0.0316  0.1748  0.3751
 3649SOL    HW112367   2.776   4.221   4.166 -1.3434 -1.5289 -1.6387
 3649SOL    HW212368   2.859   4.339   4.118  0.8911 -1.8008  1.2445
 3650SOL     OW12369   4.064   4.808   5.111 -0.6586 -0.5452 -0.8241
 3650SOL    HW112370   3.983   4.816   5.061 -0.8722  1.7294 -0.1787
 3650SOL    HW212371   4.045   4.741   5.177 -2.2657  0.4293 -0.2479
 3651SOL     OW12372   3.533   6.409   3.913  0.4549 -0.2621 -0.8825
 3651SOL    HW112373   3.522   6.324   3.871  2.5537  0.2145 -2.5879
 3651SOL    HW212374   3.610   6.398   3.968 -1.3025 -0.3924  1.7375
 3652SOL     OW12375   4.767   3.782   2.743  0.3695  0.4498  0.1497
 3652SOL    HW112376   4.807   3.833   2.673  1.1028 -1.0626 -0.5770
 3652SOL    HW212377   4.701   3.728   2.698  2.7878 -2.6686  0.0326
 3653SOL     OW12378   4.115   4.158   2.325  0.0248  0.1889 -0.0949
 3653SOL    HW112379   4.022   4.180   2.330  0.0849  0.1296  2.3768
 3653SOL    HW212380   4.154   4.229   2.274 -1.3738  0.1473 -1.2677
 3654SOL     OW12381   7.547   3.863   5.474 -0.1133  0.0757  0.4591
 3654SOL    HW112382   7.581   3.838   5.387 -1.6888  0.4462 -0.2978
 3654SOL    HW212383   7.461   3.821   5.478  0.1281 -0.3081  2.0598
 3655SOL     OW12384   4.165   2.815   3.925  0.4871  0.1110  0.0400
 3655SOL    HW112385   4.156   2.733   3.974 -0.0191 -0.5462 -1.1081
 3655SOL    HW212386   4.255   2.814   3.892 -0.2591 -1.3445 -2.2148
 3656SOL     OW12387   7.149   6.045   3.215  0.4577 -0.3553  0.2327
 3656SOL    HW112388   7.162   6.084   3.301  0.8084 -1.4339  0.6950
 3656SOL    HW212389   7.076   6.093   3.177  2.4677  2.5166 -0.3433
 3657SOL     OW12390   4.508   4.957   7.098  0.0908 -0.0312 -0.6739
 3657SOL    HW112391   4.414   4.974   7.094  0.4343  2.0678 -1.2271
 3657SOL    HW212392   4.527   4.911   7.016 -0.3239  0.2829 -0.9487
 3658SOL     OW12393   4.495   3.381   0.383  0.1254  0.0989  0.4294
 3658SOL    HW112394   4.534   3.408   0.300  0.0798 -0.7329  0.1309
 3658SOL    HW212395   4.557   3.412   0.449  0.3986  0.3499  0.0585
 3659SOL     OW12396   7.336   7.306   8.074 -0.0931  0.0313 -0.5445
 3659SOL    HW112397   7.295   7.220   8.071  0.3725 -0.1815 -1.0840
 3659SOL    HW212398   7.388   7.310   7.994 -2.8082  2.2159 -2.3585
 3660SOL     OW12399   2.558   6.001   2.341 -0.0449  0.5166  0.6413
 3660SOL    HW112400   2.528   5.997   2.250 -1.3037  2.3212  0.9184
 3660SOL    HW212401   2.538   6.090   2.369  1.6692  0.4502  2.2589
 3661SOL     OW12402   0.067   5.224   4.833 -0.3639 -0.0997  0.4311
 3661SOL    HW112403   0.113   5.307   4.823 -0.1062 -0.1900  0.8443
 3661SOL    HW212404   0.133   5.163   4.866 -0.6777 -0.3373  0.6344
 3662SOL     OW12405   6.357   2.895   5.116  0.2500  0.4040 -0.4462
 3662SOL    HW112406   6.452   2.885   5.108  0.0790 -1.5721 -0.5365
 3662SOL    HW212407   6.337   2.973   5.065  1.6001 -0.3481 -2.2470
 3663SOL     OW12408   0.833   2.310   6.120 -0.1209  0.1806  0.0276
 3663SOL    HW112409   0.834   2.391   6.069 -0.3752 -0.3774 -0.8883
 3663SOL    HW212410   0.914   2.266   6.098 -0.7613 -0.6087 -0.8148
 3664SOL     OW12411   5.775   1.791   4.729  0.6900 -0.1696  0.1376
 3664SOL    HW112412   5.680   1.786   4.743  0.9588 -0.4465  2.2498
 3664SOL    HW212413   5.797   1.881   4.750  0.8858 -0.0624 -0.5148
 3665SOL     OW12414   0.771   6.155   3.465 -0.4043 -0.1122  0.2345
 3665SOL    HW112415   0.766   6.107   3.548  0.7912 -0.7982 -0.0544
 3665SOL    HW212416   0.849   6.119   3.422 -1.4990 -0.4044 -1.5861
 3666SOL     OW12417   4.400   4.666   7.171  0.2279 -0.0312  0.0930
 3666SOL    HW112418   4.411   4.757   7.196  1.7605 -0.0977 -0.2386
 3666SOL    HW212419   4.327   4.667   7.108 -0.4984  0.7859  0.9235
 3667SOL     OW12420   7.543   0.395   6.097 -0.5486  0.1137 -0.1465
 3667SOL    HW112421   7.519   0.450   6.172 -0.4284  0.9982 -0.7343
 3667SOL    HW212422   7.587   0.320   6.135  0.2683  0.9599  0.6228
 3668SOL     OW12423   6.433   4.783   7.300  0.7522  0.3598  0.0303
 3668SOL    HW112424   6.412   4.794   7.207 -0.2396  1.1050  0.3319
 3668SOL    HW212425   6.361   4.730   7.335  0.2543  1.4423  0.7039
 3669SOL     OW12426   8.058   7.886   4.877 -0.1249 -0.4178 -0.0893
 3669SOL    HW112427   7.964   7.875   4.871  0.0478 -3.2167  1.0133
 3669SOL    HW212428   8.092   7.799   4.896  2.9427 -0.0423 -2.8075
 3670SOL     OW12429   2.821   1.765   7.805 -0.2159 -0.5781  0.5086
 3670SOL    HW112430   2.834   1.718   7.723  1.3224  0.0655  0.3580
 3670SOL    HW212431   2.909   1.786   7.836 -0.6296  4.7627 -0.9513
 3671SOL     OW12432   1.978   3.096   3.495 -0.0332 -0.5556  0.4788
 3671SOL    HW112433   1.984   3.185   3.459  0.0617 -1.0428 -0.7690
 3671SOL    HW212434   2.065   3.059   3.479  0.2717 -0.5323  1.9778
 3672SOL     OW12435   7.248   3.561   0.312 -0.0254  0.2770 -0.2271
 3672SOL    HW112436   7.277   3.484   0.361 -0.7492  1.5957  2.4584
 3672SOL    HW212437   7.190   3.526   0.244  0.9439 -1.6485 -0.1249
 3673SOL     OW12438   7.305   4.306   7.399 -0.0306 -0.2073  0.5781
 3673SOL    HW112439   7.237   4.247   7.366  0.2428  0.4771 -1.3751
 3673SOL    HW212440   7.387   4.261   7.378  0.2105 -1.4276  3.6900
 3674SOL     OW12441   7.453   6.868   2.385  0.3169  0.3381 -0.0090
 3674SOL    HW112442   7.407   6.947   2.413 -1.5628 -0.9232  0.6713
 3674SOL    HW212443   7.421   6.851   2.297  0.0339 -0.1373  0.1820
 3675SOL     OW12444   2.488   6.110   1.349  0.3762  0.5296  0.2660
 3675SOL    HW112445   2.580   6.082   1.344 -0.1574 -1.1856 -1.0868
 3675SOL    HW212446   2.484   6.191   1.298  1.2424  0.9827  0.8911
 3676SOL     OW12447   0.134   4.106   7.046  0.6777 -0.1449  0.0278
 3676SOL    HW112448   0.195   4.118   7.119  1.0482  0.8342 -0.4165
 3676SOL    HW212449   0.150   4.017   7.015  1.3779 -0.1458  0.3704
 3677SOL     OW12450   6.417   1.445   4.592 -0.2047  0.1439  0.1751
 3677SOL    HW112451   6.397   1.443   4.498  0.4453  0.3040  0.0269
 3677SOL    HW212452   6.436   1.537   4.610 -3.1779  0.6992  1.1040
 3678SOL     OW12453   6.593   0.658   0.632  0.2863  0.3331  0.5372
 3678SOL    HW112454   6.602   0.652   0.537  2.0490  1.4637  0.5948
 3678SOL    HW212455   6.650   0.588   0.666  1.9718  1.7662  0.7745
 3679SOL     OW12456   7.332   0.837   4.372 -0.1109 -0.5320  0.4694
 3679SOL    HW112457   7.355   0.880   4.290 -0.1473 -1.8815 -0.2685
 3679SOL    HW212458   7.414   0.800   4.403 -0.1680 -0.3326  0.8620
 3680SOL     OW12459   3.002   3.790   1.445 -0.2879  0.2188 -0.4938
 3680SOL    HW112460   3.035   3.701   1.434  0.8158  0.7208 -1.4120
 3680SOL    HW212461   3.069   3.835   1.496 -0.3830  0.7690 -0.8357
 3681SOL     OW12462   0.285   3.473   7.504  0.1895 -0.1994 -0.2031
 3681SOL    HW112463   0.215   3.457   7.441  1.1172 -0.2648 -1.2310
 3681SOL    HW212464   0.297   3.568   7.503  1.2063 -0.3206 -1.2485
 3682SOL     OW12465   7.437   6.189   6.075  0.1488  0.0967  0.5491
 3682SOL    HW112466   7.478   6.271   6.104  2.2944 -1.0263  0.8970
 3682SOL    HW212467   7.508   6.125   6.077 -1.1811 -1.5107 -0.9267
 3683SOL     OW12468   4.589   5.759   1.029 -0.0169  0.5915  0.1676
 3683SOL    HW112469   4.683   5.750   1.015 -0.0609 -0.7260  0.5181
 3683SOL    HW212470   4.569   5.850   1.008  1.6474  1.4080  1.8222
 3684SOL     OW12471   1.246   5.100   4.265  0.4176  0.0118  0.4690
 3684SOL    HW112472   1.193   5.076   4.341 -1.0465  1.1431 -0.1512
 3684SOL    HW212473   1.184   5.136   4.203  1.6522 -0.4720 -1.1146
 3685SOL     OW12474   6.000   0.110   0.570 -0.0138  0.0757 -0.3979
 3685SOL    HW112475   6.085   0.067   0.572 -0.4587 -0.8128 -0.4177
 3685SOL    HW212476   6.021   0.204   0.562  0.9937  0.0198  1.1866
 3686SOL     OW12477   4.025   5.016   1.757 -0.0084 -0.6990  0.2092
 3686SOL    HW112478   3.955   4.980   1.703  2.1327 -2.7576 -1.4390
 3686SOL    HW212479   4.056   4.941   1.809  1.0870  0.1033  0.7622
 3687SOL     OW12480   6.570   4.474   3.513 -0.5936  0.2005  0.1526
 3687SOL    HW112481   6.649   4.497   3.561 -0.4938  0.6051 -0.2071
 3687SOL    HW212482   6.590   4.492   3.421 -0.8807 -0.3034 -0.0167
 3688SOL     OW12483   5.613   5.164   7.183 -0.0184 -0.1285 -0.3825
 3688SOL    HW112484   5.535   5.118   7.154  1.9175 -3.7858 -0.3636
 3688SOL    HW212485   5.610   5.159   7.278 -0.2689  0.7257 -0.3382
 3689SOL     OW12486   2.271   3.501   4.097  0.4271  0.1297  0.0169
 3689SOL    HW112487   2.191   3.483   4.147  0.4209  1.4783  0.5365
 3689SOL    HW212488   2.263   3.594   4.072  1.7423  0.2303 -0.0873
 3690SOL     OW12489   0.805   3.383   4.294 -0.3044  0.3028  0.3911
 3690SOL    HW112490   0.822   3.468   4.254 -0.1478  0.3886  0.6347
 3690SOL    HW212491   0.714   3.386   4.321 -0.8039 -0.2398 -1.1236
 3691SOL     OW12492   4.181   6.239   0.849  0.5227 -0.5994  0.2915
 3691SOL    HW112493   4.152   6.304   0.785  2.7834 -0.2878 -0.5082
 3691SOL    HW212494   4.116   6.244   0.919 -1.0024  0.3750 -1.1076
 3692SOL     OW12495   5.911   2.069   7.785 -0.1355  0.8613  0.3967
 3692SOL    HW112496   5.860   2.144   7.815 -0.4104  0.4795  0.8820
 3692SOL    HW212497   5.976   2.055   7.853  0.0422  0.7809  0.2106
 3693SOL     OW12498   7.162   4.736   2.339 -0.5404 -0.4279  0.5356
 3693SOL    HW112499   7.167   4.742   2.435 -1.5841  0.2472  0.5528
 3693SOL    HW212500   7.128   4.820   2.311 -0.2901 -0.6384 -0.4393
 3694SOL     OW12501   6.768   1.557   4.845  0.4440 -0.4088  0.3605
 3694SOL    HW112502   6.688   1.555   4.899 -0.7134 -0.1923 -1.2622
 3694SOL    HW212503   6.790   1.465   4.832 -0.9516 -0.5800 -1.1043
 3695SOL     OW12504   4.087   7.846   7.829 -0.1432 -0.5753  0.0310
 3695SOL    HW112505   4.113   7.761   7.795  2.7548 -0.8888  2.6033
 3695SOL    HW212506   4.061   7.897   7.752  0.4010 -2.9727 -1.8319
 3696SOL     OW12507   2.257   5.150   3.491 -0.8358  0.4957  0.0134
 3696SOL    HW112508   2.235   5.216   3.425 -0.0469  0.2848 -0.4773
 3696SOL    HW212509   2.199   5.077   3.472 -2.1325  1.2492  0.9297
 3697SOL     OW12510   3.248   2.724   6.433  0.1558 -0.4235 -0.0597
 3697SOL    HW112511   3.335   2.729   6.474 -0.6214 -0.0530  1.6285
 3697SOL    HW212512   3.212   2.640   6.463 -0.4251 -0.1524  0.0080
 3698SOL     OW12513   1.112   4.176   6.047 -0.4561  0.2499 -0.0105
 3698SOL    HW112514   1.019   4.156   6.037 -0.8334  1.0489  1.5942
 3698SOL    HW212515   1.143   4.190   5.958 -1.4308 -1.8352 -0.7346
 3699SOL     OW12516   0.969   2.940   1.664 -0.2250  0.2655  0.1446
 3699SOL    HW112517   0.973   2.962   1.757  0.1249  1.9814 -0.2472
 3699SOL    HW212518   1.060   2.945   1.633 -0.6695  3.5107 -1.0467
 3700SOL     OW12519   4.310   3.444   0.700 -0.4250  0.3402  0.1925
 3700SOL    HW112520   4.332   3.430   0.792 -0.3581  2.6827  0.6066
 3700SOL    HW212521   4.222   3.408   0.691 -0.1275 -0.6372  0.9445
 3701SOL     OW12522   5.135   5.208   0.783 -0.6938  0.4735  0.3035
 3701SOL    HW112523   5.214   5.199   0.836 -1.5267 -0.5650  1.4496
 3701SOL    HW212524   5.068   5.162   0.833 -1.7956  0.4471 -1.1295
 3702SOL     OW12525   6.482   2.921   1.706  0.1962 -0.2452 -0.0724
 3702SOL    HW112526   6.521   2.834   1.719 -1.2432 -0.9047  0.0631
 3702SOL    HW212527   6.465   2.953   1.794 -0.8057 -0.5609 -0.1451
 3703SOL     OW12528   0.916   2.630   7.966  0.1775 -0.5667  0.1918
 3703SOL    HW112529   0.844   2.578   8.002 -0.8366  0.2108 -0.6187
 3703SOL    HW212530   0.914   2.610   7.872  1.2954 -0.8350  0.2166
 3704SOL     OW12531   3.594   8.199   6.895 -0.1245  0.4057 -0.4737
 3704SOL    HW112532   3.654   8.156   6.835 -0.3894  0.7468 -0.9936
 3704SOL    HW212533   3.508   8.187   6.856 -0.4850 -0.6309  0.5913
 3705SOL     OW12534   2.901   4.509   6.194 -0.1390  0.2868  0.0388
 3705SOL    HW112535   2.899   4.463   6.278 -0.5431  0.7774  0.3028
 3705SOL    HW212536   2.906   4.440   6.129  2.9779 -0.0822  0.5210
 3706SOL     OW12537   0.785   2.655   1.743 -0.2502  0.1283  0.1174
 3706SOL    HW112538   0.835   2.690   1.817  1.4924  0.4630 -1.1342
 3706SOL    HW212539   0.697   2.643   1.776 -0.0276  2.2487  1.6678
 3707SOL     OW12540   1.781   5.241   4.509 -0.2568  0.1669 -0.1436
 3707SOL    HW112541   1.792   5.149   4.484 -0.9588  0.4330 -1.5664
 3707SOL    HW212542   1.825   5.249   4.593  1.3459 -1.0742 -0.8110
 3708SOL     OW12543   2.843   5.329   8.097  0.1319 -0.1568 -0.0095
 3708SOL    HW112544   2.769   5.276   8.069 -0.6472  0.3668  0.9757
 3708SOL    HW212545   2.905   5.325   8.024 -0.1434 -1.9264 -0.1824
 3709SOL     OW12546   4.312   5.281   6.918  0.0484 -0.0125 -0.2207
 3709SOL    HW112547   4.296   5.365   6.960 -0.8732  1.0305 -2.5280
 3709SOL    HW212548   4.401   5.257   6.946  0.1584  1.4834  0.8316
 3710SOL     OW12549   4.777   0.317   6.064 -0.2504 -0.3453 -0.0684
 3710SOL    HW112550   4.692   0.345   6.098 -0.3409 -1.4461  0.6532
 3710SOL    HW212551   4.800   0.384   5.999 -1.9621 -0.3742 -0.7445
 3711SOL     OW12552   1.251   5.648   8.167 -0.7467 -0.2272 -0.2980
 3711SOL    HW112553   1.180   5.685   8.219  0.0868  0.3025  0.4938
 3711SOL    HW212554   1.305   5.722   8.143 -0.5684 -0.5996 -1.0807
 3712SOL     OW12555   0.127   2.819   7.376  0.0172 -0.2652  0.3624
 3712SOL    HW112556   0.143   2.866   7.294 -1.2727 -0.3349  0.0559
 3712SOL    HW212557   0.185   2.743   7.372  0.3604  0.0212 -0.2223
 3713SOL     OW12558   4.472   3.764   2.322 -0.1571 -0.7864 -0.3098
 3713SOL    HW112559   4.420   3.719   2.255 -0.0162  2.1001 -2.5971
 3713SOL    HW212560   4.558   3.776   2.280  0.0046  0.9356  0.4613
 3714SOL     OW12561   0.175   7.622   1.545  0.4089 -0.5173  0.2294
 3714SOL    HW112562   0.255   7.628   1.494 -0.4654 -2.3595 -1.4873
 3714SOL    HW212563   0.109   7.668   1.493  0.6096  2.5969  2.4717
 3715SOL     OW12564   4.687   8.034   3.679 -0.2142  0.0328 -0.9031
 3715SOL    HW112565   4.617   8.094   3.652 -1.3636 -0.5362  0.6834
 3715SOL    HW212566   4.767   8.081   3.657 -1.0809  1.4941 -1.1252
 3716SOL     OW12567   0.358   6.618   0.369 -0.2184  0.3173 -0.0413
 3716SOL    HW112568   0.449   6.597   0.351 -0.2052  0.9015 -0.7061
 3716SOL    HW212569   0.357   6.646   0.460  0.1730 -0.2015  0.1228
 3717SOL     OW12570   5.351   2.996   7.423 -0.3431  0.2890  0.0044
 3717SOL    HW112571   5.362   3.091   7.428 -0.1622  0.2363  0.6113
 3717SOL    HW212572   5.270   2.979   7.471 -1.6703  0.3783 -2.0957
 3718SOL     OW12573   2.339   6.229   4.069 -0.0485 -0.3144  0.4813
 3718SOL    HW112574   2.321   6.254   3.978  3.3155  1.9244  0.2453
 3718SOL    HW212575   2.392   6.150   4.062 -0.2986 -0.4882  0.5414
 3719SOL     OW12576   3.879   0.998   5.781 -0.6650  0.6281  0.0932
 3719SOL    HW112577   3.806   0.943   5.753 -0.1883  1.1268 -2.3072
 3719SOL    HW212578   3.839   1.083   5.799 -0.8067  0.6712 -0.4056
 3720SOL     OW12579   0.784   7.366   6.120 -0.4012  0.4020  0.0108
 3720SOL    HW112580   0.730   7.303   6.169  0.5005 -2.7054 -2.6422
 3720SOL    HW212581   0.870   7.359   6.161 -0.9355  2.2300  1.5744
 3721SOL     OW12582   3.266   1.709   2.084  0.8198 -0.1499  0.6243
 3721SOL    HW112583   3.234   1.670   2.003  0.2531 -0.4186  0.9716
 3721SOL    HW212584   3.189   1.755   2.120  1.5813  1.7855 -0.0505
 3722SOL     OW12585   4.843   1.990   8.070  0.0210 -0.3237 -0.6585
 3722SOL    HW112586   4.751   2.000   8.045 -0.1731  0.9183  0.4201
 3722SOL    HW212587   4.892   2.011   7.991 -0.5980  1.9785 -0.4917
 3723SOL     OW12588   6.817   5.115   6.302  0.5807  0.2154 -0.4106
 3723SOL    HW112589   6.882   5.181   6.278 -0.1150  1.4934  1.0043
 3723SOL    HW212590   6.861   5.061   6.367 -0.2279  2.2530  2.0219
 3724SOL     OW12591   0.506   5.732   5.584  0.3826 -0.2846  0.2383
 3724SOL    HW112592   0.556   5.655   5.610  0.7664 -0.4387 -0.9078
 3724SOL    HW212593   0.440   5.699   5.523  0.6160  0.2979 -0.3452
 3725SOL     OW12594   6.238   2.296   6.265  0.0648 -0.0209 -0.3907
 3725SOL    HW112595   6.175   2.366   6.280 -0.7015 -0.4676 -1.4321
 3725SOL    HW212596   6.293   2.296   6.343 -0.6122  1.0175  0.0998
 3726SOL     OW12597   5.545   0.198   2.910  0.0606  0.3504  0.2636
 3726SOL    HW112598   5.481   0.268   2.925 -0.5020  0.5798 -2.6342
 3726SOL    HW212599   5.508   0.147   2.838  1.7632 -1.3226  0.4958
 3727SOL     OW12600   7.740   4.936   6.632 -0.4489  0.3423 -0.0074
 3727SOL    HW112601   7.782   4.883   6.699 -0.7321 -0.6301 -0.5910
 3727SOL    HW212602   7.733   5.023   6.671  0.7981  0.1691  0.6302
 3728SOL     OW12603   7.062   5.217   5.964 -0.6637 -0.3007 -0.3831
 3728SOL    HW112604   7.082   5.260   5.881  1.0004  1.5638  0.8969
 3728SOL    HW212605   7.142   5.170   5.987  0.7039  2.8564  2.2011
 3729SOL     OW12606   1.369   1.765   4.176  0.7629  0.0530  0.0615
 3729SOL    HW112607   1.383   1.699   4.244  0.1619  0.4258  0.5536
 3729SOL    HW212608   1.350   1.845   4.224 -0.2996  0.1811 -0.5460
 3730SOL     OW12609   4.525   1.589   3.214 -0.9511  0.0881 -0.0564
 3730SOL    HW112610   4.467   1.634   3.153 -1.2170 -1.7716 -1.2526
 3730SOL    HW212611   4.600   1.562   3.161  0.8350  1.9189  1.3329
 3731SOL     OW12612   0.978   5.165   6.026  0.5657  0.0257  0.1381
 3731SOL    HW112613   1.030   5.160   5.946  0.3983 -0.2754  0.0460
 3731SOL    HW212614   1.039   5.195   6.093  1.0616 -1.0617  0.2010
 3732SOL     OW12615   1.034   7.150   2.327  0.3509  0.0455 -0.8687
 3732SOL    HW112616   1.025   7.143   2.422  2.3096 -1.8666 -0.7327
 3732SOL    HW212617   0.973   7.084   2.293  0.4513 -0.0427 -0.8780
 3733SOL     OW12618   8.276   7.597   5.372  0.1810  0.0215  0.5952
 3733SOL    HW112619   8.191   7.626   5.405  0.9357  2.0476  0.9130
 3733SOL    HW212620   8.338   7.627   5.439  1.1941 -1.1249  0.2007
 3734SOL     OW12621   1.309   2.624   3.144 -0.4367  0.1231  0.2484
 3734SOL    HW112622   1.224   2.664   3.125 -0.9572  0.2793  2.5461
 3734SOL    HW212623   1.355   2.689   3.196  0.5717 -0.4812  0.1398
 3735SOL     OW12624   3.037   0.038   2.352  0.4607  0.5564  0.3758
 3735SOL    HW112625   3.023   0.103   2.283 -0.9670  0.7611  0.8380
 3735SOL    HW212626   2.974  -0.032   2.333  2.2157 -0.9448 -0.3446
 3736SOL     OW12627   0.701   0.783   3.033  0.4962  0.6894  0.0128
 3736SOL    HW112628   0.794   0.804   3.029  0.6564  0.1068  0.5193
 3736SOL    HW212629   0.657   0.865   3.011  1.1202  1.2224  0.7147
 3737SOL     OW12630   3.421   3.113   6.102  0.3311  0.5402  0.6588
 3737SOL    HW112631   3.479   3.140   6.031  0.8176  1.6987  1.4524
 3737SOL    HW212632   3.368   3.043   6.065  2.3500 -0.6900 -0.0503
 3738SOL     OW12633   8.344   4.505   8.317  0.3081 -0.6838 -0.8354
 3738SOL    HW112634   8.265   4.519   8.369 -0.3916 -0.2492 -1.9755
 3738SOL    HW212635   8.416   4.504   8.381 -0.3632  1.2599 -0.0039
 3739SOL     OW12636   5.324   6.218   6.015  0.0089 -0.2166 -0.6371
 3739SOL    HW112637   5.408   6.198   6.056 -1.0062 -0.8266  1.2747
 3739SOL    HW212638   5.328   6.312   5.998  0.1800  0.2927  1.7803
 3740SOL     OW12639   4.398   7.547   5.780 -0.4872  1.0383  0.5348
 3740SOL    HW112640   4.414   7.573   5.870  0.6431 -0.6308  0.8562
 3740SOL    HW212641   4.377   7.454   5.785  3.7000 -0.2255 -1.1967
 3741SOL     OW12642   5.258   2.470   0.829  0.0013 -0.4283  0.1367
 3741SOL    HW112643   5.284   2.450   0.739 -1.1675 -0.3442 -0.2246
 3741SOL    HW212644   5.341   2.491   0.873  0.4147  1.4981 -1.4031
 3742SOL     OW12645   1.417   0.234   2.629 -0.6143 -0.1329  0.0729
 3742SOL    HW112646   1.511   0.246   2.624 -0.6286 -0.4235 -1.1012
 3742SOL    HW212647   1.405   0.139   2.641 -0.7849 -0.3105 -1.3638
 3743SOL     OW12648   5.130   1.605   2.004  0.0036 -0.5493  0.3235
 3743SOL    HW112649   5.152   1.670   2.071  1.3820 -1.3039  0.6573
 3743SOL    HW212650   5.112   1.525   2.053 -1.2203 -0.5560 -0.1047
 3744SOL     OW12651   6.683   1.174   5.482 -0.0503 -0.0292  0.4687
 3744SOL    HW112652   6.682   1.161   5.577  0.4121 -0.4099  0.4244
 3744SOL    HW212653   6.724   1.095   5.447  0.0746  0.2464 -0.0261
 3745SOL     OW12654   0.173   3.168   2.071  0.1235 -0.0668 -0.3750
 3745SOL    HW112655   0.185   3.229   2.143 -1.1069  1.6169 -1.5355
 3745SOL    HW212656   0.255   3.118   2.068  0.7120  0.7342  1.3107
 3746SOL     OW12657   6.884   5.887   1.476  0.2475  0.3269  0.2100
 3746SOL    HW112658   6.806   5.863   1.425  1.1933  0.1085 -1.1823
 3746SOL    HW212659   6.953   5.829   1.445  0.8604  0.1394  1.8237
 3747SOL     OW12660   3.317   0.499   2.089  0.0897  0.6051 -0.1477
 3747SOL    HW112661   3.367   0.478   2.010  0.9815 -0.3512  0.6337
 3747SOL    HW212662   3.256   0.568   2.062  1.2926  1.2427 -1.3265
 3748SOL     OW12663   4.602   6.425   6.896  0.0580 -0.6998  0.2432
 3748SOL    HW112664   4.685   6.427   6.943  0.7772  0.7543 -0.9957
 3748SOL    HW212665   4.535   6.435   6.964  1.1291  3.7230  0.9433
 3749SOL     OW12666   5.287   2.633   0.423  0.1196  0.3050 -0.0628
 3749SOL    HW112667   5.280   2.614   0.329 -0.3311 -2.3423  0.4250
 3749SOL    HW212668   5.271   2.728   0.429  1.2706  0.7646 -2.7254
 3750SOL     OW12669   3.258   5.958   8.153 -0.2476 -0.2546  0.2960
 3750SOL    HW112670   3.193   5.951   8.083 -0.6097  1.0013  0.4752
 3750SOL    HW212671   3.283   5.867   8.172 -0.8485 -0.6687 -0.7921
 3751SOL     OW12672   2.043   7.839   8.269 -0.1378 -0.2228 -0.1397
 3751SOL    HW112673   2.038   7.753   8.229  0.0287 -0.3518  0.1185
 3751SOL    HW212674   2.077   7.896   8.200  1.1432 -0.6416  0.1282
 3752SOL     OW12675   2.440   2.148   2.799  0.6295  0.6019 -0.8996
 3752SOL    HW112676   2.496   2.217   2.765  2.6109 -0.4813  0.0018
 3752SOL    HW212677   2.473   2.067   2.760  0.3161 -0.1755  0.3556
 3753SOL     OW12678   0.244   3.742   1.859  0.0075 -0.0200 -0.3570
 3753SOL    HW112679   0.161   3.790   1.866  1.0407  1.8571 -0.1789
 3753SOL    HW212680   0.253   3.698   1.943 -0.6012  0.1378 -0.2008
 3754SOL     OW12681   6.902   5.079   2.162  0.3072  0.0850 -0.2495
 3754SOL    HW112682   6.874   4.994   2.194 -0.5194 -0.0758 -1.3515
 3754SOL    HW212683   6.994   5.085   2.188  1.1780 -2.2900 -2.4231
 3755SOL     OW12684   6.476   0.318   8.277 -0.1712  0.0909  0.2579
 3755SOL    HW112685   6.510   0.230   8.259 -0.0625  0.6668 -2.7311
 3755SOL    HW212686   6.382   0.311   8.259 -0.1428  0.6027 -0.1030
 3756SOL     OW12687   6.135   7.945   0.304 -0.0461  0.1971  0.3988
 3756SOL    HW112688   6.059   7.998   0.279  0.1019  0.2719  0.0942
 3756SOL    HW212689   6.136   7.873   0.240 -0.2813 -0.2101  0.8474
 3757SOL     OW12690   3.679   8.210   0.508 -0.0452  0.2993  0.4766
 3757SOL    HW112691   3.656   8.168   0.425  1.4437 -0.8321  0.6084
 3757SOL    HW212692   3.616   8.282   0.516 -1.5085 -0.7931 -0.6366
 3758SOL     OW12693   0.891   5.256   6.949  0.0240 -0.4138  0.1161
 3758SOL    HW112694   0.838   5.176   6.956 -0.6467 -0.1019 -1.1783
 3758SOL    HW212695   0.962   5.233   6.890 -0.0884 -0.0976 -0.1424
 3759SOL     OW12696   6.196   6.148   0.998  0.1323 -0.5243  0.3303
 3759SOL    HW112697   6.196   6.067   0.948 -0.8093 -1.2361  1.4383
 3759SOL    HW212698   6.167   6.215   0.935 -0.5432 -1.2995 -0.1997
 3760SOL     OW12699   6.020   6.448   3.718 -0.4682 -0.3351 -0.5987
 3760SOL    HW112700   5.953   6.480   3.779 -1.2174 -0.7285 -1.2057
 3760SOL    HW212701   5.983   6.463   3.631  0.8024  0.6768 -0.9941
 3761SOL     OW12702   1.374   7.235   7.450 -0.0632 -0.1599 -0.2425
 3761SOL    HW112703   1.420   7.153   7.467  0.3831  0.2322  0.4563
 3761SOL    HW212704   1.312   7.244   7.523 -0.1827  0.0807 -0.3721
 3762SOL     OW12705   6.654   2.590   3.330  0.0650  0.2330 -0.0096
 3762SOL    HW112706   6.689   2.602   3.418  0.0867 -0.1208  0.0307
 3762SOL    HW212707   6.591   2.661   3.319  0.1764  0.3675  0.2332
 3763SOL     OW12708   1.673   3.066   5.883  0.4432  0.1800 -0.2564
 3763SOL    HW112709   1.724   3.080   5.962  1.1753  0.9564 -0.8487
 3763SOL    HW212710   1.669   3.152   5.841 -1.0460  0.0621 -0.4181
 3764SOL     OW12711   7.257   1.638   3.937 -0.3946  0.6743 -0.1263
 3764SOL    HW112712   7.171   1.605   3.911 -0.1141 -0.2473  0.0798
 3764SOL    HW212713   7.319   1.576   3.898  0.0927  0.1682  1.3849
 3765SOL     OW12714   6.126   6.905   0.687 -0.1860 -1.0148 -0.2720
 3765SOL    HW112715   6.173   6.958   0.751  0.8200 -0.2927 -1.5564
 3765SOL    HW212716   6.060   6.964   0.650 -0.6040 -1.3560 -0.0818
 3766SOL     OW12717   2.999   3.795   4.280 -0.2298  0.5987 -0.3623
 3766SOL    HW112718   3.009   3.808   4.186 -0.2924  0.9838 -0.3161
 3766SOL    HW212719   2.912   3.756   4.290 -0.2049  0.5159 -0.4655
 3767SOL     OW12720   0.085   2.511   4.239 -0.0493  0.4507 -0.2040
 3767SOL    HW112721  -0.010   2.515   4.255 -0.1224 -2.1477  0.3803
 3767SOL    HW212722   0.093   2.516   4.144 -0.9097 -0.5015 -0.3491
 3768SOL     OW12723   5.326   0.684   5.670 -0.1793 -0.8315 -0.8298
 3768SOL    HW112724   5.304   0.684   5.763 -2.5134  0.8107 -1.2807
 3768SOL    HW212725   5.402   0.743   5.664  0.9540 -2.1214  0.1509
 3769SOL     OW12726   5.952   5.099   3.106  0.2773  0.2358 -0.1038
 3769SOL    HW112727   6.026   5.041   3.091  0.3764 -0.1486  1.6459
 3769SOL    HW212728   5.991   5.180   3.140 -0.0543  0.1694  0.4607
 3770SOL     OW12729   2.169   5.149   0.337 -0.3595  0.4850  0.3572
 3770SOL    HW112730   2.212   5.233   0.352 -0.9235  0.5096  1.9900
 3770SOL    HW212731   2.171   5.138   0.242 -0.4636  2.4227  0.0966
 3771SOL     OW12732   7.967   0.737   0.085  0.2668 -0.2738  0.1934
 3771SOL    HW112733   7.958   0.720   0.179  1.2616 -0.3153  0.2897
 3771SOL    HW212734   7.894   0.796   0.064  0.4496  0.3071  1.1407
 3772SOL     OW12735   0.213   1.189   3.020 -0.2013 -0.6567  0.0086
 3772SOL    HW112736   0.235   1.198   2.928  1.3967 -0.0897  0.4072
 3772SOL    HW212737   0.251   1.104   3.045 -0.2704 -0.6201  0.2396
 3773SOL     OW12738   5.263   4.002   5.297  0.1452  0.0766 -0.1475
 3773SOL    HW112739   5.257   4.042   5.210  1.1601 -2.0545 -1.3051
 3773SOL    HW212740   5.354   3.972   5.303  0.6932  1.9697  2.5770
 3774SOL     OW12741   2.395   0.140   8.055 -0.1365  0.3291  0.1892
 3774SOL    HW112742   2.438   0.056   8.069 -2.2108 -0.6152  1.3670
 3774SOL    HW212743   2.359   0.133   7.966 -1.6014 -0.7272  0.8104
 3775SOL     OW12744   0.053   6.274   8.130 -0.0970  0.3416 -0.3690
 3775SOL    HW112745   0.118   6.339   8.105 -0.0289  0.3395 -0.1954
 3775SOL    HW212746   0.077   6.196   8.080  0.9761 -0.1523  0.8627
 3776SOL     OW12747   0.735   7.434   5.755 -0.3535  0.6784  0.2383
 3776SOL    HW112748   0.678   7.456   5.829 -0.4597  0.1721  0.3114
 3776SOL    HW212749   0.680   7.379   5.699  0.5624 -1.3083  1.1621
 3777SOL     OW12750   6.455   6.977   3.679 -0.1044  0.3024 -0.8566
 3777SOL    HW112751   6.489   6.907   3.623 -0.2082 -0.4687  0.0138
 3777SOL    HW212752   6.510   6.974   3.758 -0.7608  0.5249 -0.3818
 3778SOL     OW12753   1.502   6.081   0.941  0.1739 -0.3733 -0.6310
 3778SOL    HW112754   1.524   6.130   1.021  0.7811  0.0872 -1.0722
 3778SOL    HW212755   1.467   5.998   0.973 -0.4854  0.1724  0.1296
 3779SOL     OW12756   3.377   4.980   7.563  0.0725  0.1357 -0.1923
 3779SOL    HW112757   3.316   4.907   7.566 -0.1618  0.3629  0.7928
 3779SOL    HW212758   3.333   5.046   7.509  0.4586 -0.5827 -1.4270
 3780SOL     OW12759   6.444   1.156   0.851 -0.0527 -0.1648 -0.5700
 3780SOL    HW112760   6.380   1.108   0.904  0.0031 -0.2637 -0.5910
 3780SOL    HW212761   6.518   1.096   0.843  1.1293  0.8878  1.6173
 3781SOL     OW12762   2.004   1.309   6.947  0.0422 -0.3246 -0.2219
 3781SOL    HW112763   1.927   1.288   6.895 -0.8273  1.0629  0.4463
 3781SOL    HW212764   2.047   1.380   6.899 -0.7845  0.9917  0.9045
 3782SOL     OW12765   4.542   8.163   7.382 -0.1531 -0.5091 -0.6045
 3782SOL    HW112766   4.578   8.075   7.397  0.4546  0.0044  1.1579
 3782SOL    HW212767   4.456   8.147   7.345 -0.3424 -1.8801  0.3411
 3783SOL     OW12768   2.334   1.168   2.468 -0.0063  0.1159  0.0279
 3783SOL    HW112769   2.372   1.147   2.383  0.2670  0.7936 -0.0238
 3783SOL    HW212770   2.409   1.185   2.525 -0.1345 -1.5926  0.7702
 3784SOL     OW12771   5.746   0.001   4.370  0.6560  0.0155  0.0494
 3784SOL    HW112772   5.792  -0.055   4.306 -1.6174 -0.8240 -0.9654
 3784SOL    HW212773   5.761  -0.042   4.454  0.6006 -1.0293 -0.4528
 3785SOL     OW12774   3.216   6.775   0.629 -0.0625  0.0753  0.3776
 3785SOL    HW112775   3.285   6.709   0.632 -0.3295 -0.2398 -0.1090
 3785SOL    HW212776   3.207   6.794   0.535 -0.5987  0.1437  0.4425
 3786SOL     OW12777   0.922   5.936   5.831 -0.1946  0.4114 -0.1895
 3786SOL    HW112778   0.973   5.936   5.750  1.0851  1.8194  0.5554
 3786SOL    HW212779   0.853   6.000   5.816  1.0551  1.9733  0.3522
 3787SOL     OW12780   0.711   6.936   1.946  0.5030 -0.1067 -0.3408
 3787SOL    HW112781   0.632   6.983   1.974  1.0527  0.1100  0.8792
 3787SOL    HW212782   0.745   6.988   1.874 -0.5734 -0.3147 -1.0308
 3788SOL     OW12783   7.294   7.814   1.730 -0.6835  0.0577  0.0168
 3788SOL    HW112784   7.270   7.897   1.689  0.6046  0.6362  0.4020
 3788SOL    HW212785   7.239   7.749   1.686 -1.4013  1.0459 -0.5859
 3789SOL     OW12786   2.277   0.626   0.763 -0.0936  0.7394 -0.5847
 3789SOL    HW112787   2.275   0.661   0.853 -1.2641  0.9171 -0.6717
 3789SOL    HW212788   2.257   0.702   0.708 -0.1038  0.4736 -0.9453
 3790SOL     OW12789   5.290   4.991   0.273 -0.2287  0.2995 -0.6503
 3790SOL    HW112790   5.225   4.956   0.334  2.3013  0.0048  2.1044
 3790SOL    HW212791   5.296   5.084   0.295  1.6705 -0.0747  0.6305
 3791SOL     OW12792   6.989   4.866   8.151 -0.9780  0.2836  0.4509
 3791SOL    HW112793   6.932   4.927   8.197 -2.4261 -1.2883  0.8482
 3791SOL    HW212794   6.935   4.788   8.139  1.2487 -1.4974  1.3184
 3792SOL     OW12795   5.720   4.347   6.689  0.0647 -0.2311  0.2473
 3792SOL    HW112796   5.674   4.375   6.610  0.7557 -0.3974 -0.2288
 3792SOL    HW212797   5.803   4.312   6.657  0.1694 -0.7121  1.0152
 3793SOL     OW12798   0.441   3.746   8.140 -0.2206 -0.2807  0.1754
 3793SOL    HW112799   0.405   3.833   8.156 -0.6427 -0.5501  0.7435
 3793SOL    HW212800   0.413   3.723   8.052  1.0587  0.7199 -0.5238
 3794SOL     OW12801   2.492   3.547   2.693  0.1767 -0.1125 -0.5791
 3794SOL    HW112802   2.486   3.509   2.781  1.0296 -1.3417 -1.0160
 3794SOL    HW212803   2.402   3.557   2.665 -0.0982 -0.0434  0.2917
 3795SOL     OW12804   3.161   1.442   2.632 -0.4026 -0.5192  0.0091
 3795SOL    HW112805   3.147   1.397   2.715 -0.8612 -0.9557 -0.2977
 3795SOL    HW212806   3.107   1.394   2.569  1.3487 -1.3476 -0.9339
 3796SOL     OW12807   6.087   4.825   2.140  0.4328  0.3545 -0.6212
 3796SOL    HW112808   6.114   4.777   2.061  2.0178 -0.2563  0.2424
 3796SOL    HW212809   6.126   4.912   2.129 -0.4937  0.7216 -1.1154
 3797SOL     OW12810   1.348   3.520   8.367  0.0921 -0.2055  0.0773
 3797SOL    HW112811   1.428   3.568   8.345 -0.9754  0.8912 -1.7172
 3797SOL    HW212812   1.351   3.442   8.312  1.1084 -1.5118  1.8985
 3798SOL     OW12813   6.359   0.278   2.032  0.8280  0.0818 -0.0974
 3798SOL    HW112814   6.294   0.262   1.963  1.8836 -2.1853 -0.6683
 3798SOL    HW212815   6.317   0.342   2.089 -1.3161 -0.1989 -1.2139
 3799SOL     OW12816   4.488   3.313   6.407  0.3873 -0.3631  0.3217
 3799SOL    HW112817   4.427   3.286   6.337  1.4577 -1.0346 -0.3869
 3799SOL    HW212818   4.516   3.400   6.382 -0.9101  0.3197  1.1132
 3800SOL     OW12819   1.919   2.094   7.575  0.1185 -0.0456 -0.0250
 3800SOL    HW112820   1.959   2.096   7.662 -0.9966  0.8288  0.5017
 3800SOL    HW212821   1.979   2.143   7.520  0.3185  0.3094  0.5027
 3801SOL     OW12822   5.989   3.812   7.719 -0.1454  0.3085 -0.1600
 3801SOL    HW112823   5.903   3.778   7.693 -0.1866  1.1929 -1.2777
 3801SOL    HW212824   5.983   3.823   7.814 -0.8449 -0.7753 -0.0575
 3802SOL     OW12825   0.361   4.625   4.012  0.0342  0.0285 -0.1832
 3802SOL    HW112826   0.286   4.633   4.071  0.2492  0.6068  0.0094
 3802SOL    HW212827   0.321   4.621   3.925 -0.2139  0.4161 -0.0881
 3803SOL     OW12828   7.143   3.913   6.978 -0.4370 -0.2406  0.4065
 3803SOL    HW112829   7.198   3.979   7.021  0.6489 -0.3407 -0.7684
 3803SOL    HW212830   7.083   3.964   6.924 -1.1318 -0.1552  1.2307
 3804SOL     OW12831   7.235   2.990   4.120  0.3901  0.4162 -0.2199
 3804SOL    HW112832   7.226   2.974   4.213  1.4116  1.3837  0.0721
 3804SOL    HW212833   7.158   3.041   4.096  0.0148 -0.0259  0.0454
 3805SOL     OW12834   4.509   1.027   3.004 -0.0619  0.1380  0.4947
 3805SOL    HW112835   4.431   1.063   3.047 -0.1529 -0.1009  0.5269
 3805SOL    HW212836   4.505   1.062   2.914 -1.3424 -1.5611 -0.1605
 3806SOL     OW12837   1.762   1.745   2.204  0.1058 -0.3506 -0.4333
 3806SOL    HW112838   1.727   1.830   2.229 -0.1772 -0.3727 -0.7503
 3806SOL    HW212839   1.842   1.765   2.155  0.4038 -0.2925  0.0651
 3807SOL     OW12840   7.635   1.268   7.068  0.3580 -0.4262  0.4422
 3807SOL    HW112841   7.594   1.316   7.139  1.4837  0.4220  0.5446
 3807SOL    HW212842   7.607   1.177   7.080 -2.7219  0.3157 -0.4045
 3808SOL     OW12843   6.521   2.796   4.050 -0.3743  0.1855 -0.0828
 3808SOL    HW112844   6.584   2.863   4.022 -2.7383  2.2657 -0.8543
 3808SOL    HW212845   6.479   2.768   3.969 -0.5925 -1.0135  0.4314
 3809SOL     OW12846   2.478   3.478   6.948 -0.2543 -0.5956 -0.2292
 3809SOL    HW112847   2.513   3.413   7.009  3.0850  0.1582 -1.1374
 3809SOL    HW212848   2.508   3.562   6.983 -0.8882  0.1082 -1.3299
 3810SOL     OW12849   6.245   6.286   3.709 -0.1525 -0.5556  0.1916
 3810SOL    HW112850   6.163   6.335   3.706  0.8135  1.1224 -0.7583
 3810SOL    HW212851   6.233   6.216   3.646 -0.3958  0.4990 -0.9750
 3811SOL     OW12852   3.900   2.165   3.468  0.4798  0.2536 -0.6927
 3811SOL    HW112853   3.897   2.256   3.438 -0.7677  0.4908  0.0835
 3811SOL    HW212854   3.993   2.145   3.476  0.8158  0.8172 -2.7431
 3812SOL     OW12855   5.267   2.377   1.623 -0.3626 -0.2235  0.2585
 3812SOL    HW112856   5.189   2.426   1.594 -0.4898  0.8149  2.1438
 3812SOL    HW212857   5.236   2.287   1.634 -0.8221 -0.1985 -0.7188
 3813SOL     OW12858   7.358   5.798   6.741 -0.2735  0.2812  0.4659
 3813SOL    HW112859   7.362   5.794   6.837 -0.5512  0.0480  0.4714
 3813SOL    HW212860   7.264   5.799   6.721 -0.2447 -1.1531  0.1488
 3814SOL     OW12861   6.082   0.972   4.562 -0.0106  0.4013 -0.2892
 3814SOL    HW112862   6.041   0.939   4.642 -2.6842  1.7735 -0.9554
 3814SOL    HW212863   6.174   0.983   4.584 -0.1881 -1.5585  1.8016
 3815SOL     OW12864   5.301   4.845   1.672 -0.1086 -0.7641  0.2271
 3815SOL    HW112865   5.345   4.899   1.607 -1.3544 -0.5666 -0.4997
 3815SOL    HW212866   5.273   4.907   1.739  0.3542 -0.8280  0.4792
 3816SOL     OW12867   1.592   5.367   6.191 -0.0298 -0.2660  0.6771
 3816SOL    HW112868   1.542   5.331   6.265  0.1191  0.1670  0.9889
 3816SOL    HW212869   1.678   5.387   6.228  1.0042 -2.6373 -0.2423
 3817SOL     OW12870   2.191   4.669   5.930  0.1872 -0.1384 -0.3577
 3817SOL    HW112871   2.194   4.755   5.887 -0.9997  0.0350 -0.1424
 3817SOL    HW212872   2.151   4.687   6.015 -1.2238 -1.0668 -0.7959
 3818SOL     OW12873   1.361   3.048   5.159 -0.2743 -0.0971  0.5893
 3818SOL    HW112874   1.389   3.088   5.242 -0.5442  1.1807  0.0796
 3818SOL    HW212875   1.285   2.995   5.182 -1.5882  1.8252  0.8599
 3819SOL     OW12876   0.030   3.649   7.748  0.4729  0.6152  0.0323
 3819SOL    HW112877   0.090   3.623   7.817 -0.7512 -3.8269 -0.3043
 3819SOL    HW212878  -0.057   3.639   7.786 -0.1649  0.9855 -1.2660
 3820SOL     OW12879   4.788   3.490   1.431 -0.1552 -0.7993  0.5433
 3820SOL    HW112880   4.776   3.549   1.506 -1.2643 -1.2120  0.7046
 3820SOL    HW212881   4.878   3.507   1.403 -0.6804  1.6328  0.0339
 3821SOL     OW12882   6.002   1.032   0.689 -0.3875 -0.5804  0.2896
 3821SOL    HW112883   5.952   0.992   0.618  0.3836 -0.5849 -0.2650
 3821SOL    HW212884   6.031   1.116   0.653  1.4017 -1.2993 -0.0121
 3822SOL     OW12885   0.256   5.932   6.268  0.0944 -0.0990  0.0945
 3822SOL    HW112886   0.347   5.906   6.286  0.3319 -0.4895 -1.5320
 3822SOL    HW212887   0.214   5.850   6.241  0.2086  0.6694 -2.6715
 3823SOL     OW12888   1.741   0.195   0.107  0.1531 -0.6632  0.0056
 3823SOL    HW112889   1.725   0.179   0.014 -2.2024  1.9077 -0.1624
 3823SOL    HW212890   1.663   0.160   0.151  1.4950 -2.3655  1.1427
 3824SOL     OW12891   3.423   4.376   2.261 -0.0533 -0.5958 -0.4084
 3824SOL    HW112892   3.464   4.430   2.328 -0.0217  0.6863 -1.4052
 3824SOL    HW212893   3.351   4.430   2.228  0.6912 -0.6662 -2.2450
 3825SOL     OW12894   6.342   7.207   4.341  0.4476 -0.5056  0.2989
 3825SOL    HW112895   6.270   7.160   4.298  0.9545  0.4810 -1.7129
 3825SOL    HW212896   6.420   7.157   4.319  0.8348  0.5497 -0.7986
 3826SOL     OW12897   3.616   5.632   7.049 -0.3424 -0.0971 -0.1126
 3826SOL    HW112898   3.537   5.604   7.096 -1.7265  2.6503 -0.6374
 3826SOL    HW212899   3.604   5.600   6.960 -0.8463  0.2571 -0.1745
 3827SOL     OW12900   0.023   5.431   3.496 -0.7713 -0.1708  0.6007
 3827SOL    HW112901  -0.047   5.390   3.546 -1.0500  0.2582  0.5664
 3827SOL    HW212902  -0.014   5.444   3.409 -1.0539  1.1032  0.8909
 3828SOL     OW12903   4.333   2.995   2.717 -0.2782  0.3164  0.2415
 3828SOL    HW112904   4.299   3.076   2.755 -0.4298 -0.2788  1.4308
 3828SOL    HW212905   4.405   2.969   2.775 -1.1639 -1.1488  0.7597
 3829SOL     OW12906   2.771   1.072   3.910  0.4003  0.5002 -0.0748
 3829SOL    HW112907   2.769   1.159   3.952  0.3103  0.7186 -0.5271
 3829SOL    HW212908   2.740   1.012   3.978  4.5265  0.1352  1.8270
 3830SOL     OW12909   5.230   0.187   2.748  0.4860  0.3531  0.9040
 3830SOL    HW112910   5.309   0.145   2.714 -0.9358 -1.0107 -0.9423
 3830SOL    HW212911   5.257   0.277   2.766  2.2722  0.1351 -0.3876
 3831SOL     OW12912   3.267   3.216   3.230  0.5929 -0.2003  0.0354
 3831SOL    HW112913   3.175   3.242   3.223  0.4720 -0.3991  0.7474
 3831SOL    HW212914   3.313   3.277   3.173 -0.1217 -1.0199 -1.4870
 3832SOL     OW12915   1.087   4.544   3.713 -0.3187 -0.7155 -0.2488
 3832SOL    HW112916   1.039   4.500   3.782 -0.1315 -0.6412 -0.0707
 3832SOL    HW212917   1.115   4.474   3.654  0.3641 -0.8852  0.2718
 3833SOL     OW12918   4.313   8.241   0.175  0.2868 -1.1579 -0.3355
 3833SOL    HW112919   4.382   8.178   0.156  1.0785  0.0091 -1.6164
 3833SOL    HW212920   4.308   8.295   0.095  0.8539  1.4621  1.2643
 3834SOL     OW12921   4.766   7.225   5.050 -0.3139  0.3476  0.0853
 3834SOL    HW112922   4.759   7.313   5.088  0.3710  0.5306 -0.1790
 3834SOL    HW212923   4.779   7.241   4.957  0.7973  0.0173  0.1595
 3835SOL     OW12924   8.082   6.094   8.182 -0.0413  0.0768 -0.2952
 3835SOL    HW112925   8.058   6.045   8.103 -0.0785 -0.2893 -0.0617
 3835SOL    HW212926   8.114   6.027   8.242 -1.2870  0.1721  0.5043
 3836SOL     OW12927   4.662   3.876   7.527 -0.0760  0.6288 -0.0939
 3836SOL    HW112928   4.732   3.926   7.484  0.6349 -0.2255  0.0602
 3836SOL    HW212929   4.619   3.941   7.584  1.5435  0.8385  0.9537
 3837SOL     OW12930   0.540   1.896   5.074  0.2664  0.0959 -0.4212
 3837SOL    HW112931   0.476   1.907   5.003  1.3717 -0.2077 -1.4884
 3837SOL    HW212932   0.595   1.974   5.069 -0.5778  0.8334  1.1241
 3838SOL     OW12933   3.137   5.799   3.871 -0.1898  0.2348 -0.0213
 3838SOL    HW112934   3.120   5.837   3.784 -0.5587 -1.2214 -0.6123
 3838SOL    HW212935   3.216   5.746   3.858 -1.8316 -2.3005 -0.2527
 3839SOL     OW12936   5.228   2.976   3.127 -0.8030  0.4537  0.0689
 3839SOL    HW112937   5.185   3.055   3.096 -1.3956  0.8926  1.8573
 3839SOL    HW212938   5.158   2.910   3.130 -0.7531  0.4105  0.3941
 3840SOL     OW12939   2.818   7.091   5.414  0.3947 -0.7252 -0.0604
 3840SOL    HW112940   2.899   7.111   5.461  0.5932 -1.2327 -0.1799
 3840SOL    HW212941   2.834   7.006   5.373  0.4398 -0.0504 -1.5212
 3841SOL     OW12942   4.760   0.275   0.243  0.2740  0.0402  0.3214
 3841SOL    HW112943   4.693   0.276   0.175  0.7985 -0.0176 -0.2033
 3841SOL    HW212944   4.746   0.356   0.292  0.8679  0.8531 -0.8209
 3842SOL     OW12945   4.600   3.884   4.833  0.2055 -0.0929 -0.3646
 3842SOL    HW112946   4.670   3.852   4.776  1.0889 -0.4363  0.8930
 3842SOL    HW212947   4.576   3.808   4.886 -0.0157  0.4481  0.3155
 3843SOL     OW12948   6.754   7.388   1.454 -0.0403  0.1284  0.1283
 3843SOL    HW112949   6.667   7.404   1.488 -0.3842  0.0071 -0.6642
 3843SOL    HW212950   6.785   7.475   1.426 -0.5777 -0.0524 -1.1041
 3844SOL     OW12951   6.557   2.426   3.964  0.3760 -0.3484 -0.6418
 3844SOL    HW112952   6.540   2.347   3.912  0.4609 -0.4250 -0.5548
 3844SOL    HW212953   6.514   2.497   3.916 -0.3321 -0.5621 -0.3415
 3845SOL     OW12954   1.223   3.641   2.227  0.2058  0.5449  0.3070
 3845SOL    HW112955   1.265   3.590   2.296 -0.5745  0.5581  0.8083
 3845SOL    HW212956   1.180   3.713   2.274  0.9704  1.4505 -0.3521
 3846SOL     OW12957   3.911   7.693   5.504 -0.5223 -0.0757  0.2116
 3846SOL    HW112958   3.920   7.656   5.416  1.4307 -0.4997  0.5422
 3846SOL    HW212959   3.955   7.778   5.499 -0.9332  0.1642  0.6296
 3847SOL     OW12960   6.791   5.075   8.189 -0.0678 -0.2078  0.3492
 3847SOL    HW112961   6.720   5.041   8.244 -2.0148  1.3697 -1.0380
 3847SOL    HW212962   6.808   5.163   8.223  1.4454 -0.6415  0.8031
 3848SOL     OW12963   3.865   4.634   5.467  0.2093  0.5622 -0.1791
 3848SOL    HW112964   3.872   4.641   5.372  0.6188  2.4651 -0.0564
 3848SOL    HW212965   3.955   4.617   5.496 -0.1335 -1.4865 -0.1825
 3849SOL     OW12966   0.871   0.840   1.316  0.1453 -0.4533  0.1142
 3849SOL    HW112967   0.838   0.929   1.329 -0.8926 -1.0285  1.7838
 3849SOL    HW212968   0.869   0.827   1.222 -1.8497  0.4994 -0.0177
 3850SOL     OW12969   5.463   2.921   1.926  0.5186  0.1470  0.0787
 3850SOL    HW112970   5.503   2.845   1.968  0.0989  0.7252  1.5935
 3850SOL    HW212971   5.536   2.979   1.907  0.5408  0.9634  2.3411
 3851SOL     OW12972   0.365   8.296   8.280 -0.1987 -0.0331  0.0720
 3851SOL    HW112973   0.435   8.310   8.217 -2.3357  1.9776 -2.0812
 3851SOL    HW212974   0.306   8.235   8.237 -0.3244 -0.8772  1.3919
 3852SOL     OW12975   4.042   5.574   7.399  0.3440  0.3434  0.7480
 3852SOL    HW112976   3.947   5.583   7.392  0.0542 -1.3936  1.8545
 3852SOL    HW212977   4.073   5.578   7.309 -0.9432 -0.5905  0.2376
 3853SOL     OW12978   3.691   3.089   4.870  0.3355  0.4050 -0.4301
 3853SOL    HW112979   3.734   3.012   4.832  1.0358 -1.0248  2.9092
 3853SOL    HW212980   3.604   3.089   4.831  0.5804 -1.6425 -1.1086
 3854SOL     OW12981   6.648   0.450   5.665 -0.4136 -0.0049  0.4750
 3854SOL    HW112982   6.714   0.388   5.633 -0.5853 -0.8105  1.6355
 3854SOL    HW212983   6.564   0.409   5.643 -0.5293  0.2570  0.4259
 3855SOL     OW12984   2.554   6.009   4.061  0.3795 -0.3555  0.0637
 3855SOL    HW112985   2.605   5.934   4.092  0.2291 -1.0535 -1.2895
 3855SOL    HW212986   2.610   6.051   3.997  0.2068  0.3259  0.3549
 3856SOL     OW12987   0.706   7.654   6.778 -0.2373 -0.1234 -0.1820
 3856SOL    HW112988   0.773   7.698   6.831  0.4020 -0.1416 -0.9517
 3856SOL    HW212989   0.635   7.717   6.773 -0.5284 -0.3204  1.1117
 3857SOL     OW12990   6.878   5.647   0.204 -0.5900 -0.4401  0.3498
 3857SOL    HW112991   6.891   5.554   0.186 -0.1101 -0.5631  1.2591
 3857SOL    HW212992   6.966   5.684   0.201 -0.7438 -0.0779  0.3226
 3858SOL     OW12993   1.637   7.503   8.269  0.0693  0.3629 -0.0310
 3858SOL    HW112994   1.679   7.420   8.249 -0.3516  0.1263  0.0756
 3858SOL    HW212995   1.550   7.497   8.231 -0.2405  0.4473  0.6493
 3859SOL     OW12996   1.832   6.152   5.625 -0.1459 -0.3225  1.1987
 3859SOL    HW112997   1.763   6.178   5.686 -0.1145  0.5301  0.8748
 3859SOL    HW212998   1.785   6.119   5.548 -0.2169  0.5925  0.8314
 3860SOL     OW12999   1.778   5.802   2.161 -0.3917  0.4421  0.5819
 3860SOL    HW113000   1.718   5.875   2.177 -1.0095  0.0352  0.1544
 3860SOL    HW213001   1.813   5.819   2.073 -0.0315  0.5738  0.7508
 3861SOL     OW13002   6.654   7.680   5.952 -0.1844 -0.5773  0.5928
 3861SOL    HW113003   6.649   7.686   5.856 -5.1809  0.6881  0.6784
 3861SOL    HW213004   6.683   7.766   5.980 -2.2995  0.3103  0.2006
 3862SOL     OW13005   7.298   7.645   3.568 -1.0728  0.3972 -0.4322
 3862SOL    HW113006   7.392   7.625   3.565 -1.0347  0.4839  0.1940
 3862SOL    HW213007   7.255   7.561   3.551 -0.8886  0.3448 -0.6548
 3863SOL     OW13008   1.562   0.527   2.721 -0.1010 -0.0197  0.0105
 3863SOL    HW113009   1.575   0.614   2.683  0.3081 -0.6213 -1.2998
 3863SOL    HW213010   1.647   0.483   2.708 -0.8030 -1.1689 -0.8935
 3864SOL     OW13011   4.522   4.056   6.185 -0.1972 -0.2651  0.4126
 3864SOL    HW113012   4.520   4.124   6.254  1.0907  0.0634  0.1656
 3864SOL    HW213013   4.431   4.033   6.172 -0.6906  1.4522  0.4971
 3865SOL     OW13014   5.596   2.026   3.572  0.7983  0.0020 -0.3098
 3865SOL    HW113015   5.506   2.028   3.540  0.8601 -0.3744 -0.5025
 3865SOL    HW213016   5.587   2.022   3.667  0.5990 -1.1752 -0.3607
 3866SOL     OW13017   8.234   3.829   6.885  0.5042  0.0896 -0.2849
 3866SOL    HW113018   8.260   3.888   6.813 -1.7256 -0.2129 -1.4252
 3866SOL    HW213019   8.172   3.880   6.936 -1.7409 -1.3042 -1.4912
 3867SOL     OW13020   2.307   5.146   7.480  0.4016 -0.5342  0.5380
 3867SOL    HW113021   2.225   5.180   7.515  0.5220 -0.4731  0.7626
 3867SOL    HW213022   2.361   5.224   7.468  0.7441 -0.6551  1.2216
 3868SOL     OW13023   1.124   5.571   2.485  0.1078  0.0956  0.5880
 3868SOL    HW113024   1.177   5.511   2.431 -0.6738  0.3190 -0.4578
 3868SOL    HW213025   1.123   5.531   2.572  1.4947 -0.2175  0.4890
 3869SOL     OW13026   5.337   3.638   5.657 -0.1311  0.6065 -0.8377
 3869SOL    HW113027   5.247   3.610   5.669  0.3993 -0.5869  0.6299
 3869SOL    HW213028   5.363   3.600   5.573 -0.2741 -1.1307 -0.1433
 3870SOL     OW13029   6.536   8.056   0.538  0.0969 -0.1294  0.3464
 3870SOL    HW113030   6.567   7.969   0.512  0.1678  0.7397 -2.8166
 3870SOL    HW213031   6.448   8.062   0.501  0.4203  1.4520 -0.2252
 3871SOL     OW13032   8.155   7.501   1.329  0.6623 -0.4170 -0.7295
 3871SOL    HW113033   8.137   7.451   1.409  2.5831  0.6833  0.4733
 3871SOL    HW213034   8.154   7.592   1.357 -0.2029  0.1088 -2.3387
 3872SOL     OW13035   3.502   2.855   8.211 -0.3108 -0.3823  0.0522
 3872SOL    HW113036   3.417   2.819   8.236 -1.0934  0.4854 -1.2062
 3872SOL    HW213037   3.528   2.804   8.134  0.5627 -0.9680  0.7163
 3873SOL     OW13038   3.400   1.807   4.743 -0.4386  0.3866 -0.1654
 3873SOL    HW113039   3.453   1.834   4.818 -3.1406  1.3460  1.5524
 3873SOL    HW213040   3.370   1.719   4.765 -1.0784  0.5895 -0.2023
 3874SOL     OW13041   1.263   6.128   7.164  0.1495  0.0587 -0.1601
 3874SOL    HW113042   1.231   6.198   7.106  0.9751  0.6345  0.0691
 3874SOL    HW213043   1.343   6.097   7.122  1.4763  1.3604  1.2967
 3875SOL     OW13044   2.996   5.601   2.271  0.2372  0.2488  0.9553
 3875SOL    HW113045   3.011   5.695   2.266 -1.6480  0.6467  2.0339
 3875SOL    HW213046   3.030   5.575   2.357 -0.7283  0.2713  1.3566
 3876SOL     OW13047   0.723   5.505   3.026 -0.4528 -0.1179  0.3882
 3876SOL    HW113048   0.790   5.439   3.040 -3.1006 -3.5355 -1.3355
 3876SOL    HW213049   0.648   5.474   3.078 -2.4078  0.4148 -1.9453
 3877SOL     OW13050   5.594   0.795   7.099  0.2198  0.5365 -0.1763
 3877SOL    HW113051   5.538   0.773   7.025  1.4583 -0.2582 -0.9236
 3877SOL    HW213052   5.639   0.875   7.072 -0.5929  1.2107  0.4476
 3878SOL     OW13053   5.348   7.767   1.394 -0.2339 -0.4990 -0.3146
 3878SOL    HW113054   5.281   7.793   1.458  0.0428  0.0597 -0.2485
 3878SOL    HW213055   5.344   7.835   1.327  0.6958 -0.1132  0.0058
 3879SOL     OW13056   6.058   3.307   7.061  0.5346 -0.0959  0.0897
 3879SOL    HW113057   6.036   3.216   7.078 -1.6995  0.3804  0.0953
 3879SOL    HW213058   6.055   3.316   6.966  0.7991 -0.0413  0.0863
 3880SOL     OW13059   3.957   2.541   7.705  0.7381 -0.2846  0.2987
 3880SOL    HW113060   3.918   2.613   7.657  0.8980  1.5290  2.6701
 3880SOL    HW213061   3.890   2.473   7.707 -0.5601  0.9584  0.4276
 3881SOL     OW13062   8.032   4.309   2.699  0.3393 -0.1005  0.0837
 3881SOL    HW113063   8.020   4.297   2.605  0.1891 -1.4984  0.2600
 3881SOL    HW213064   8.016   4.222   2.736  0.2684  0.4662  1.4133
 3882SOL     OW13065   1.531   5.401   4.075  0.2963 -0.5088 -0.3071
 3882SOL    HW113066   1.531   5.320   4.126  0.1167 -1.5276 -1.8630
 3882SOL    HW213067   1.620   5.435   4.084  0.7817 -1.6255 -0.7336
 3883SOL     OW13068   1.263   5.358   3.954  0.1855 -0.0001  0.1092
 3883SOL    HW113069   1.288   5.291   3.891  0.6997 -0.3065  0.6287
 3883SOL    HW213070   1.346   5.390   3.990 -0.0915 -1.5383  2.3882
 3884SOL     OW13071   5.190   7.766   3.087 -0.1018 -0.0874  0.3124
 3884SOL    HW113072   5.242   7.688   3.074 -1.5492 -1.0069 -0.2370
 3884SOL    HW213073   5.160   7.760   3.178  0.9805  0.6153  0.7352
 3885SOL     OW13074   7.356   0.486   1.194 -0.2175  0.4481  0.1461
 3885SOL    HW113075   7.377   0.567   1.148  0.6643 -0.3612 -0.9140
 3885SOL    HW213076   7.263   0.494   1.216 -0.4819  1.1663 -1.1577
 3886SOL     OW13077   4.529   4.405   4.913  0.3951  0.1029 -0.2723
 3886SOL    HW113078   4.487   4.491   4.910 -0.1982 -0.2022 -1.2021
 3886SOL    HW213079   4.459   4.343   4.892  0.5334 -0.7321  1.5589
 3887SOL     OW13080   2.297   5.425   0.084  0.4119  0.2940 -0.2247
 3887SOL    HW113081   2.344   5.359   0.032  0.6890  1.4896 -1.5778
 3887SOL    HW213082   2.216   5.440   0.035 -0.7563 -0.7213  1.3365
 3888SOL     OW13083   2.014   4.733   4.156  0.4460  0.0139  0.2814
 3888SOL    HW113084   1.951   4.793   4.115  0.5148 -0.5793 -0.7316
 3888SOL    HW213085   1.960   4.676   4.211  0.3770  0.9603  1.2115
 3889SOL     OW13086   5.063   0.783   1.072  0.0961  0.0683 -0.2686
 3889SOL    HW113087   5.091   0.844   1.004  3.2788  0.0106  0.7963
 3889SOL    HW213088   5.104   0.700   1.049 -0.0670 -0.3524  0.8629
 3890SOL     OW13089   6.763   8.359   3.721 -0.2929 -0.0724 -0.5085
 3890SOL    HW113090   6.731   8.418   3.654  0.0500  0.5512 -0.1287
 3890SOL    HW213091   6.773   8.413   3.799  0.6336 -0.4867 -0.3228
 3891SOL     OW13092   6.349   2.434   1.466 -0.6539 -0.2803 -0.1345
 3891SOL    HW113093   6.261   2.404   1.443 -1.0381  0.2831  0.5543
 3891SOL    HW213094   6.398   2.354   1.485 -0.5323 -0.7170 -2.0951
 3892SOL     OW13095   6.210   1.889   3.660 -0.7864  0.6381  0.1843
 3892SOL    HW113096   6.267   1.928   3.593 -1.4254  0.8594 -0.2429
 3892SOL    HW213097   6.186   1.962   3.717 -0.9957  0.6338  0.1029
 3893SOL     OW13098   2.356   0.377   2.778  0.3814  0.2306 -0.1845
 3893SOL    HW113099   2.366   0.312   2.709  2.0723  0.4278 -0.1685
 3893SOL    HW213100   2.394   0.457   2.742 -0.0619  0.7416  0.4426
 3894SOL     OW13101   0.368   7.268   7.309 -0.2453  0.3563  0.1108
 3894SOL    HW113102   0.274   7.276   7.294 -0.0516  0.8668 -0.9749
 3894SOL    HW213103   0.397   7.358   7.323  0.0322  0.1629  0.8017
 3895SOL     OW13104   7.580   4.091   2.963  0.6105 -0.2873  0.1306
 3895SOL    HW113105   7.494   4.055   2.940  0.2545  1.5250 -1.7357
 3895SOL    HW213106   7.626   4.019   3.005 -2.1655 -1.0236  2.1767
 3896SOL     OW13107   7.878   4.369   0.839  0.2981  0.3341  0.1565
 3896SOL    HW113108   7.881   4.311   0.915 -0.7205  0.8293  0.5872
 3896SOL    HW213109   7.787   4.397   0.833  0.0065 -0.8777 -2.1678
 3897SOL     OW13110   5.784   5.990   4.290 -0.0958  0.7720  0.4917
 3897SOL    HW113111   5.833   5.952   4.216 -1.8763 -0.9763  0.1173
 3897SOL    HW213112   5.763   6.079   4.261 -2.0942 -0.3489 -1.8966
 3898SOL     OW13113   7.154   4.037   0.186 -0.6332 -0.6138  0.0331
 3898SOL    HW113114   7.121   4.107   0.243  2.8983  0.1509  1.4016
 3898SOL    HW213115   7.169   4.080   0.102 -1.9021 -0.7043 -0.2641
 3899SOL     OW13116   2.213   2.557   3.511  0.5806 -0.3747 -0.0015
 3899SOL    HW113117   2.290   2.509   3.540 -0.0081 -0.6354  1.2095
 3899SOL    HW213118   2.246   2.622   3.449  1.5822 -1.3681 -0.5463
 3900SOL     OW13119   4.004   3.704   4.949  0.6377 -0.2530 -0.5124
 3900SOL    HW113120   3.924   3.708   4.897  1.3432  1.5033 -1.5654
 3900SOL    HW213121   4.074   3.693   4.885  1.3481 -0.4637  0.2799
 3901SOL     OW13122   6.361   0.061   5.616 -0.3123  0.3564 -0.5082
 3901SOL    HW113123   6.369   0.006   5.694  0.3156  2.8632  1.3143
 3901SOL    HW213124   6.279   0.034   5.575 -0.5072 -1.2376  0.8413
 3902SOL     OW13125   5.352   0.822   3.356 -0.2753 -0.8129  0.5807
 3902SOL    HW113126   5.300   0.822   3.436  0.8189  1.2549  1.3469
 3902SOL    HW213127   5.419   0.755   3.371 -2.9229 -4.0272 -0.6985
 3903SOL     OW13128   2.043   5.470   5.997  0.7374  0.3616  0.1965
 3903SOL    HW113129   2.029   5.432   6.083 -0.1075  0.5681  0.1645
 3903SOL    HW213130   2.138   5.470   5.985  0.8555  0.2797  1.0978
 3904SOL     OW13131   3.055   0.209   0.898 -0.1283 -0.5125 -0.1569
 3904SOL    HW113132   3.007   0.209   0.816  0.9541 -0.9502 -0.8211
 3904SOL    HW213133   2.993   0.242   0.963 -1.8243 -2.5087 -0.6530
 3905SOL     OW13134   0.595   5.074   4.166 -0.2611  0.3364  0.2534
 3905SOL    HW113135   0.549   5.138   4.111  0.1924 -0.0726 -0.6177
 3905SOL    HW213136   0.682   5.113   4.180  0.9586 -1.1581 -2.4092
 3906SOL     OW13137   1.833   7.926   0.366 -0.3432 -0.0382  0.2921
 3906SOL    HW113138   1.829   7.837   0.330 -2.9961  1.0861 -2.5316
 3906SOL    HW213139   1.905   7.967   0.319 -0.1406 -0.2126  0.4454
 3907SOL     OW13140   8.268   1.894   4.605 -0.3667 -0.2085  0.6059
 3907SOL    HW113141   8.251   1.961   4.671 -3.0532 -0.3890  0.2063
 3907SOL    HW213142   8.277   1.813   4.654 -3.2883 -0.5048  0.8340
 3908SOL     OW13143   0.680   3.485   2.995 -0.4755  0.1713  0.4624
 3908SOL    HW113144   0.680   3.481   2.899  0.7183 -0.4798  0.4678
 3908SOL    HW213145   0.617   3.418   3.021  0.3317 -0.7514  0.1323
 3909SOL     OW13146   2.310   7.201   6.167 -0.8610 -0.5258  0.0780
 3909SOL    HW113147   2.266   7.246   6.095  0.4870 -0.3564 -0.6789
 3909SOL    HW213148   2.393   7.171   6.129  0.7775  1.2303  2.0256
 3910SOL     OW13149   1.182   5.792   2.296  0.4893  0.0933 -0.0642
 3910SOL    HW113150   1.220   5.849   2.363 -2.4732  1.4732  0.6297
 3910SOL    HW213151   1.160   5.712   2.343  0.9587 -0.0394 -0.0664
 3911SOL     OW13152   5.611   1.350   0.289  0.3720 -0.0398  0.0591
 3911SOL    HW113153   5.569   1.264   0.292 -0.2444  0.2339 -0.4559
 3911SOL    HW213154   5.686   1.342   0.348  0.9623 -1.2681 -0.8029
 3912SOL     OW13155   4.052   5.465   8.238  0.1249 -0.0057 -0.2223
 3912SOL    HW113156   4.086   5.379   8.211 -0.3122 -0.6200  1.0920
 3912SOL    HW213157   4.118   5.499   8.297  0.1541  0.4381 -0.5080
 3913SOL     OW13158   2.364   2.894   5.436 -0.5759  0.2743 -0.2286
 3913SOL    HW113159   2.280   2.857   5.460 -0.7299  0.8983  0.2099
 3913SOL    HW213160   2.349   2.989   5.434  0.8986  0.7090  3.1283
 3914SOL     OW13161   6.226   4.127   5.119  0.0210  0.4826 -0.7690
 3914SOL    HW113162   6.157   4.144   5.055 -0.0889 -1.2220 -1.1542
 3914SOL    HW213163   6.252   4.213   5.150 -2.2166  1.1776 -0.6707
 3915SOL     OW13164   3.758   2.533   0.568  0.5885  0.7690 -0.2000
 3915SOL    HW113165   3.846   2.515   0.602 -0.1220 -0.9839  0.8292
 3915SOL    HW213166   3.751   2.629   0.571  2.1843  0.9035  0.3844
 3916SOL     OW13167   0.630   3.410   3.510  0.0785 -0.1307  0.6566
 3916SOL    HW113168   0.688   3.384   3.439 -2.7328  0.0953 -1.9117
 3916SOL    HW213169   0.601   3.327   3.549  2.0965 -0.2408  2.0683
 3917SOL     OW13170   3.497   4.117   5.991 -0.2471  0.0334 -0.0125
 3917SOL    HW113171   3.484   4.127   5.896 -2.3913 -0.0109  0.2158
 3917SOL    HW213172   3.583   4.156   6.008 -0.9274  2.4761 -1.6231
 3918SOL     OW13173   2.280   6.403   1.436  0.2581  0.3626  0.2507
 3918SOL    HW113174   2.196   6.445   1.417 -0.8952 -1.2138  1.5266
 3918SOL    HW213175   2.329   6.469   1.486 -0.9746  0.6942  1.0831
 3919SOL     OW13176   8.038   7.722   6.059 -0.6206  0.3553  0.4202
 3919SOL    HW113177   8.103   7.701   5.992 -0.2604  1.2047  0.4878
 3919SOL    HW213178   8.018   7.638   6.100  0.7479  0.1151  0.6621
 3920SOL     OW13179   3.002   5.899   0.062  0.3161  0.5022 -0.0834
 3920SOL    HW113180   3.094   5.925   0.057  0.1511  1.0235 -0.5937
 3920SOL    HW213181   2.965   5.957   0.128 -0.0268  1.5119 -1.1388
 3921SOL     OW13182   6.988   8.237   6.969 -0.1210 -0.1857 -0.1909
 3921SOL    HW113183   6.941   8.185   6.904  2.6449 -2.5556 -0.5055
 3921SOL    HW213184   7.073   8.253   6.928  0.7305  0.6292  1.7953
 3922SOL     OW13185   0.416   2.810   7.699  0.6521  0.1654  0.3545
 3922SOL    HW113186   0.327   2.833   7.670  1.3233  1.7078 -0.6190
 3922SOL    HW213187   0.456   2.894   7.722  2.6573 -0.1708 -1.5816
 3923SOL     OW13188   2.746   5.312   0.013 -0.0766 -0.2052  0.1464
 3923SOL    HW113189   2.779   5.304  -0.077 -1.2854 -0.0874 -0.3378
 3923SOL    HW213190   2.715   5.224   0.035  2.1491 -0.7732  1.2911
 3924SOL     OW13191   1.283   7.510   7.940  0.0555  0.1460 -0.3746
 3924SOL    HW113192   1.360   7.546   7.897 -0.3591  1.6163  0.0670
 3924SOL    HW213193   1.222   7.584   7.949 -0.5285 -0.4623  1.2448
 3925SOL     OW13194   5.127   0.344   8.315 -0.2615  0.5237  0.0301
 3925SOL    HW113195   5.060   0.405   8.284 -0.9186 -1.1668 -2.1663
 3925SOL    HW213196   5.175   0.319   8.235  1.0608 -0.5505  1.1113
 3926SOL     OW13197   6.416   1.317   2.556  0.1706 -0.3289 -0.5635
 3926SOL    HW113198   6.491   1.279   2.602  1.4419  1.3332 -1.1585
 3926SOL    HW213199   6.347   1.321   2.622  0.7368 -1.4341  0.1348
 3927SOL     OW13200   0.486   3.073   0.076 -0.0108 -0.0967  0.1702
 3927SOL    HW113201   0.462   3.123  -0.002 -1.7492 -0.1091  0.6464
 3927SOL    HW213202   0.577   3.047   0.062  0.2554  1.3806 -1.0493
 3928SOL     OW13203   5.812   2.061   0.201 -0.0688 -0.7273  0.4928
 3928SOL    HW113204   5.820   2.145   0.156 -0.4915 -2.0131 -2.2527
 3928SOL    HW213205   5.901   2.028   0.207  0.0299 -0.3815  0.9794
 3929SOL     OW13206   1.928   2.133   0.859 -0.3500 -0.1354 -0.4641
 3929SOL    HW113207   1.863   2.088   0.804  0.3873  2.4379 -3.8173
 3929SOL    HW213208   1.878   2.164   0.934 -2.2621 -0.9366 -1.3242
 3930SOL     OW13209   2.099   6.315   5.019 -0.5748 -0.2155 -0.7738
 3930SOL    HW113210   2.041   6.383   5.051 -0.4605  0.1902 -1.4048
 3930SOL    HW213211   2.079   6.308   4.926  1.2584  0.8541 -1.3020
 3931SOL     OW13212   5.735   7.594   0.847 -0.1350  0.3361 -0.6292
 3931SOL    HW113213   5.673   7.547   0.903 -0.5531 -1.1079 -2.2151
 3931SOL    HW213214   5.693   7.678   0.829 -1.1011 -0.1440 -0.6983
 3932SOL     OW13215   2.735   0.590   2.582 -0.3140  0.4436  0.3992
 3932SOL    HW113216   2.788   0.543   2.647 -1.0478 -2.0594 -0.7115
 3932SOL    HW213217   2.796   0.654   2.545  1.6430 -1.4963  0.0316
 3933SOL     OW13218   7.670   1.681   0.832  0.2582  0.0029 -0.3216
 3933SOL    HW113219   7.751   1.731   0.829 -1.7663  3.6188 -1.1770
 3933SOL    HW213220   7.626   1.711   0.912 -1.4393  0.4576 -1.3528
 3934SOL     OW13221   0.968   1.908   7.923 -0.4462  0.1407 -0.2282
 3934SOL    HW113222   0.995   1.984   7.974  0.5290  0.1553 -0.7475
 3934SOL    HW213223   1.029   1.839   7.949 -1.5984 -0.6155  0.5803
 3935SOL     OW13224   7.360   1.996   0.724 -0.2216  0.1661 -0.0987
 3935SOL    HW113225   7.447   1.972   0.692 -0.2415  1.7580 -1.5038
 3935SOL    HW213226   7.299   1.960   0.659 -0.5886 -0.4786  0.5900
 3936SOL     OW13227   6.708   4.012   6.445 -0.5838  0.1098  0.3135
 3936SOL    HW113228   6.630   3.979   6.489 -1.3558 -0.3619 -1.3162
 3936SOL    HW213229   6.692   4.106   6.437 -1.3166 -0.0682 -0.5639
 3937SOL     OW13230   1.812   4.144   4.115 -0.5062  0.2104 -0.1705
 3937SOL    HW113231   1.806   4.064   4.168  2.2131  0.2330  0.2765
 3937SOL    HW213232   1.807   4.113   4.025  0.4751 -0.4939 -0.0026
 3938SOL     OW13233   0.367   7.383   3.940  0.2443 -0.1730  0.2002
 3938SOL    HW113234   0.434   7.427   3.888  0.7303 -0.6326  0.4254
 3938SOL    HW213235   0.413   7.309   3.981 -0.3655 -0.4098  0.4727
 3939SOL     OW13236   6.088   5.952   5.572  0.5919  0.0442  0.0669
 3939SOL    HW113237   6.033   5.997   5.636  2.1251  1.4654  0.4476
 3939SOL    HW213238   6.071   5.998   5.489 -0.3011 -0.8535 -0.2675
 3940SOL     OW13239   0.944   1.159   3.040 -0.1345  0.0926  0.1187
 3940SOL    HW113240   0.907   1.092   2.983  0.2408  0.4378 -0.5352
 3940SOL    HW213241   0.910   1.137   3.127  1.0830 -1.7806  0.1883
 3941SOL     OW13242   6.201   6.827   7.444  0.5227 -0.7234  0.4460
 3941SOL    HW113243   6.266   6.884   7.401  2.2695 -1.7189  1.6395
 3941SOL    HW213244   6.128   6.885   7.463  0.8559  0.3673 -1.3127
 3942SOL     OW13245   5.866   6.765   7.586 -0.0161  0.0898 -0.1019
 3942SOL    HW113246   5.934   6.832   7.582  0.5100 -0.2424  2.0423
 3942SOL    HW213247   5.784   6.814   7.572  0.5633  0.5538 -2.2890
 3943SOL     OW13248   4.150   7.900   4.090  1.2187  0.7248 -0.1419
 3943SOL    HW113249   4.110   7.892   4.003 -1.0009 -0.1364  0.8982
 3943SOL    HW213250   4.190   7.814   4.105  0.2445  0.3346  0.2959
 3944SOL     OW13251   3.208   4.661   0.316  0.3991 -0.2675 -0.0827
 3944SOL    HW113252   3.290   4.668   0.267 -0.4621 -0.5742 -1.6794
 3944SOL    HW213253   3.220   4.584   0.372  1.7239  0.5812  0.8473
 3945SOL     OW13254   6.551   1.860   4.988  0.4237  0.6250 -0.3055
 3945SOL    HW113255   6.459   1.855   4.962  0.3322 -0.9696  0.2374
 3945SOL    HW213256   6.556   1.937   5.044 -1.0451 -0.4558  1.3910
 3946SOL     OW13257   5.002   2.686   7.473  0.2776 -0.0255 -0.2518
 3946SOL    HW113258   4.943   2.674   7.547 -0.2367 -0.2467 -0.6843
 3946SOL    HW213259   5.037   2.775   7.484  0.6733 -0.2755  0.5698
 3947SOL     OW13260   0.165   6.366   1.104  0.0249  0.8817  0.3056
 3947SOL    HW113261   0.164   6.311   1.026 -1.4807  1.4274 -0.0854
 3947SOL    HW213262   0.075   6.397   1.113  1.0053  4.2599 -0.2079
 3948SOL     OW13263   2.277   0.547   7.641 -0.0946 -0.6919 -0.2173
 3948SOL    HW113264   2.316   0.492   7.573  0.2902 -1.7939  0.8403
 3948SOL    HW213265   2.284   0.494   7.721  1.0471  1.2172  1.0353
 3949SOL     OW13266   3.461   5.312   7.045  0.1949 -0.3086  0.0020
 3949SOL    HW113267   3.405   5.384   7.014 -0.2724 -0.4566  0.4719
 3949SOL    HW213268   3.517   5.291   6.971  1.8383  1.9505  0.4886
 3950SOL     OW13269   7.576   7.871   6.298  0.2268 -0.0484 -0.2244
 3950SOL    HW113270   7.555   7.862   6.391  1.0590 -0.0190 -0.0284
 3950SOL    HW213271   7.623   7.954   6.291  0.2459 -0.0906 -0.6614
 3951SOL     OW13272   7.422   2.884   5.194 -0.4095 -0.1611 -0.2704
 3951SOL    HW113273   7.362   2.959   5.191  0.0377  0.3480  1.8681
 3951SOL    HW213274   7.489   2.905   5.129 -1.2192  0.4313 -0.9397
 3952SOL     OW13275   0.653   3.784   2.726 -0.3849 -0.2994 -0.2126
 3952SOL    HW113276   0.676   3.765   2.816  0.8779  1.6924 -0.0562
 3952SOL    HW213277   0.557   3.783   2.724 -0.4068 -1.6769  0.8084
 3953SOL     OW13278   2.723   0.163   8.179 -0.0646  0.1433 -0.2602
 3953SOL    HW113279   2.670   0.159   8.258  1.9375 -2.9877  1.1385
 3953SOL    HW213280   2.803   0.209   8.207 -0.0410  0.5285 -0.9517
 3954SOL     OW13281   6.519   5.129   3.951 -0.4019 -0.3372 -0.8241
 3954SOL    HW113282   6.443   5.185   3.971  1.1587  1.7600 -0.4330
 3954SOL    HW213283   6.545   5.155   3.863  0.6088 -0.0940 -0.4670
 3955SOL     OW13284   6.547   0.439   7.891 -0.2457  0.3417  0.0461
 3955SOL    HW113285   6.545   0.349   7.924  0.6538 -0.3314 -1.6396
 3955SOL    HW213286   6.640   0.456   7.875 -0.3668  1.7186  0.6435
 3956SOL     OW13287   0.567   3.638   0.862 -0.1081 -0.4632  0.0722
 3956SOL    HW113288   0.511   3.662   0.935  0.7579  0.5121  0.4499
 3956SOL    HW213289   0.651   3.615   0.902 -0.0022 -1.1621 -0.5271
 3957SOL     OW13290   1.012   8.357   2.586  0.1397 -0.1058  0.5897
 3957SOL    HW113291   0.939   8.380   2.643 -0.1812 -1.6012  0.8270
 3957SOL    HW213292   0.981   8.378   2.498 -1.2872 -2.2352  0.5046
 3958SOL     OW13293   5.438   6.361   5.231 -0.0953  0.1643  0.5333
 3958SOL    HW113294   5.444   6.341   5.138  1.8410  1.1024  0.4092
 3958SOL    HW213295   5.449   6.456   5.237  2.7280 -0.1261  1.8330
 3959SOL     OW13296   3.729   5.231   8.008  0.2622 -0.3794 -0.0250
 3959SOL    HW113297   3.762   5.147   7.976  1.1947  0.4149 -1.2638
 3959SOL    HW213298   3.768   5.241   8.095  0.3340 -1.1021  0.0337
 3960SOL     OW13299   6.021   7.163   0.567  0.5734  0.4414  1.0139
 3960SOL    HW113300   5.970   7.214   0.630  1.4877  0.3247  1.8825
 3960SOL    HW213301   5.957   7.130   0.504  0.0227  3.1161  0.0645
 3961SOL     OW13302   6.139   0.455   4.245 -0.3602  0.4101  0.0626
 3961SOL    HW113303   6.187   0.387   4.198 -0.7587  0.3676 -0.2953
 3961SOL    HW213304   6.087   0.407   4.309 -0.6609  0.3711 -0.2070
 3962SOL     OW13305   6.585   4.469   8.341  0.9046 -0.1972  0.0233
 3962SOL    HW113306   6.489   4.474   8.348  0.7575 -2.6337  0.6562
 3962SOL    HW213307   6.609   4.547   8.291 -1.7172 -1.1415 -3.0952
 3963SOL     OW13308   5.744   3.921   1.745 -0.2779 -0.2461  0.3318
 3963SOL    HW113309   5.821   3.957   1.701 -0.0867  2.0940  2.3746
 3963SOL    HW213310   5.762   3.828   1.753  1.2572 -0.1371 -1.2597
 3964SOL     OW13311   3.169   4.376   3.326  0.0625 -0.7749 -0.0212
 3964SOL    HW113312   3.182   4.358   3.419 -0.8230  0.9452  0.4853
 3964SOL    HW213313   3.080   4.348   3.307 -0.2768  0.2170  0.0404
 3965SOL     OW13314   7.755   5.565   0.487  0.3580 -0.2760  0.2417
 3965SOL    HW113315   7.698   5.616   0.544  0.5452 -0.8327  0.9431
 3965SOL    HW213316   7.816   5.521   0.547  0.4978 -0.9466 -0.3714
 3966SOL     OW13317   8.180   0.215   2.203  0.2270 -0.1472 -0.2184
 3966SOL    HW113318   8.136   0.208   2.287  0.1760  0.7791 -0.1584
 3966SOL    HW213319   8.201   0.125   2.179  0.8745 -0.3625  1.1085
 3967SOL     OW13320   2.610   5.046   6.408 -0.4879  0.4259  0.4264
 3967SOL    HW113321   2.593   4.954   6.393 -0.8210  0.4187  0.8515
 3967SOL    HW213322   2.667   5.048   6.485  0.6563  0.5032 -0.3873
 3968SOL     OW13323   3.495   1.285   6.751  0.3995  0.3076  0.2389
 3968SOL    HW113324   3.447   1.337   6.686 -0.3046 -0.1802  0.3603
 3968SOL    HW213325   3.497   1.340   6.829 -0.8304 -0.0611  0.5424
 3969SOL     OW13326   7.553   0.967   7.305 -0.8088 -0.5948 -0.3467
 3969SOL    HW113327   7.608   0.915   7.363 -0.9412 -1.4917 -1.0011
 3969SOL    HW213328   7.578   0.939   7.217 -1.5542 -0.2370 -0.6808
 3970SOL     OW13329   5.859   1.856   0.905 -0.0648  0.6198 -0.2076
 3970SOL    HW113330   5.895   1.768   0.912  1.5733  1.3027  0.4131
 3970SOL    HW213331   5.769   1.848   0.936 -0.7851 -1.2921 -2.5448
 3971SOL     OW13332   5.101   8.166   5.742  0.1834  0.1132 -0.2597
 3971SOL    HW113333   5.180   8.147   5.691 -0.2137 -1.7176 -0.2612
 3971SOL    HW213334   5.133   8.216   5.817  1.3236 -0.4137 -0.3682
 3972SOL     OW13335   1.686   8.197   5.824 -0.5151 -0.5954 -0.1972
 3972SOL    HW113336   1.717   8.275   5.870  0.9294 -2.0918  1.5095
 3972SOL    HW213337   1.737   8.195   5.743 -1.7097  1.0310 -1.0550
 3973SOL     OW13338   0.464   2.120   3.281  0.0211 -0.7229  0.5195
 3973SOL    HW113339   0.372   2.111   3.256  0.5616  0.3326 -2.1945
 3973SOL    HW213340   0.510   2.062   3.221  1.3832  1.3626 -0.5447
 3974SOL     OW13341   7.709   4.003   0.362  0.1854  0.0456  0.2254
 3974SOL    HW113342   7.762   3.924   0.369  0.9759  0.6452  1.2094
 3974SOL    HW213343   7.661   3.992   0.280  1.3162 -0.8173 -0.3490
 3975SOL     OW13344   3.506   4.589   5.997  0.1383 -0.0133 -0.1990
 3975SOL    HW113345   3.436   4.631   6.046  0.7512  0.7375  0.0446
 3975SOL    HW213346   3.464   4.557   5.917 -0.5506  0.0918  0.1181
 3976SOL     OW13347   8.114   6.787   7.105  0.6468  0.1784  0.4149
 3976SOL    HW113348   8.091   6.759   7.194  2.4157 -1.4903  0.4038
 3976SOL    HW213349   8.030   6.791   7.060 -0.0417 -1.9934  1.3549
 3977SOL     OW13350   4.423   0.920   3.990  0.1229  0.0634 -0.0683
 3977SOL    HW113351   4.388   0.963   4.069  0.5168 -2.4151  1.5461
 3977SOL    HW213352   4.504   0.879   4.018 -0.3267 -1.9138 -1.4279
 3978SOL     OW13353   8.136   0.687   7.810 -0.0736  0.1341  0.1837
 3978SOL    HW113354   8.094   0.604   7.831 -0.3666  0.2893  0.2054
 3978SOL    HW213355   8.156   0.727   7.895 -0.1923  0.2179  0.1726
 3979SOL     OW13356   3.506   5.909   0.421 -0.2819 -0.0224 -0.4895
 3979SOL    HW113357   3.486   5.817   0.435 -1.1200 -0.1021 -1.9512
 3979SOL    HW213358   3.459   5.932   0.340  1.9533  1.0064 -1.5895
 3980SOL     OW13359   4.090   2.708   2.992 -0.2671 -0.3878  0.0011
 3980SOL    HW113360   4.115   2.709   3.084  1.9262  1.2557 -0.5375
 3980SOL    HW213361   4.131   2.629   2.956 -1.2871 -1.1356  0.4184
 3981SOL     OW13362   7.260   5.685   1.255 -0.0422  1.0842  0.1394
 3981SOL    HW113363   7.235   5.696   1.163 -0.0095  0.5528  0.0625
 3981SOL    HW213364   7.355   5.693   1.255  0.2003 -1.0342 -0.2262
 3982SOL     OW13365   1.895   6.763   1.437 -0.6892  0.4653 -0.0825
 3982SOL    HW113366   1.932   6.687   1.482 -1.1535  0.2457 -0.0740
 3982SOL    HW213367   1.875   6.825   1.508 -1.6238  0.0337  0.0489
 3983SOL     OW13368   5.086   0.325   0.758  0.3387  0.1178  0.0511
 3983SOL    HW113369   5.113   0.369   0.677  0.3822 -0.0894 -0.0488
 3983SOL    HW213370   5.136   0.244   0.758  0.0306 -0.0733  0.0781
 3984SOL     OW13371   2.126   1.063   5.988 -0.1032 -0.5807  0.9509
 3984SOL    HW113372   2.183   0.991   6.015 -0.2507 -0.7031  0.9396
 3984SOL    HW213373   2.045   1.049   6.038  0.3476  0.3431  1.9554
 3985SOL     OW13374   7.207   3.002   1.858  0.2241 -0.0406  0.3276
 3985SOL    HW113375   7.262   2.941   1.810  0.4336  1.4238 -1.3809
 3985SOL    HW213376   7.263   3.078   1.874 -0.8361  0.8523 -0.0931
 3986SOL     OW13377   2.549   5.812   1.231 -0.0190  0.2649  0.2618
 3986SOL    HW113378   2.629   5.760   1.222 -0.4889 -0.4249 -0.0489
 3986SOL    HW213379   2.568   5.894   1.186 -0.0386 -0.5429 -1.2725
 3987SOL     OW13380   8.002   6.733   6.457  0.0484  0.3933 -0.3652
 3987SOL    HW113381   7.993   6.753   6.550 -0.7790  2.4307 -0.8387
 3987SOL    HW213382   8.077   6.674   6.453 -0.0171  0.1104  1.6068
 3988SOL     OW13383   2.835   7.645   0.240  0.4891  0.0485  0.5137
 3988SOL    HW113384   2.854   7.654   0.147 -1.1470 -1.9432 -0.0889
 3988SOL    HW213385   2.915   7.606   0.277  0.6013 -0.5834 -0.3630
 3989SOL     OW13386   0.551   6.116   5.040 -0.1020  0.3523  0.1140
 3989SOL    HW113387   0.606   6.177   4.991  0.8793 -0.6399 -0.0426
 3989SOL    HW213388   0.599   6.099   5.121 -0.1401 -0.5609 -0.0423
 3990SOL     OW13389   7.313   6.421   2.025  0.1374 -0.0895 -0.0822
 3990SOL    HW113390   7.343   6.477   1.953 -0.8459  0.4122 -0.1073
 3990SOL    HW213391   7.388   6.418   2.085  0.3403  0.9308 -0.2652
 3991SOL     OW13392   2.168   3.964   7.074 -0.1547  0.2539 -0.1178
 3991SOL    HW113393   2.110   3.928   7.141 -1.5244 -1.1082 -1.9369
 3991SOL    HW213394   2.232   3.895   7.058 -1.4423 -0.5814 -2.0249
 3992SOL     OW13395   2.219   1.986   0.379 -0.4604  0.4727  0.1513
 3992SOL    HW113396   2.197   2.015   0.291  0.5192  0.9277  0.0490
 3992SOL    HW213397   2.135   1.986   0.425 -1.1394 -0.7670 -1.0422
 3993SOL     OW13398   4.197   1.306   3.391  0.4586 -0.6662  0.2288
 3993SOL    HW113399   4.164   1.252   3.463  0.3142 -1.2233 -0.2428
 3993SOL    HW213400   4.162   1.393   3.408  1.6419 -0.4210  1.6428
 3994SOL     OW13401   8.001   1.186   5.853 -0.7288  0.1049  0.1222
 3994SOL    HW113402   7.985   1.094   5.833 -0.6932  0.6549 -2.8296
 3994SOL    HW213403   7.928   1.232   5.813  0.4709  1.5175 -0.5121
 3995SOL     OW13404   2.316   7.434   4.505 -0.0819  0.4135  0.3088
 3995SOL    HW113405   2.383   7.406   4.568  0.5145  0.5551 -0.2518
 3995SOL    HW213406   2.320   7.530   4.507 -0.4593  0.4265  0.4740
 3996SOL     OW13407   6.006   4.249   5.329 -0.1627  0.2391  0.0182
 3996SOL    HW113408   5.995   4.156   5.309 -2.5164  0.5684 -0.4447
 3996SOL    HW213409   5.955   4.262   5.409  1.5116  0.8530  1.0563
 3997SOL     OW13410   2.483   2.525   6.907 -0.3785  0.6335 -0.0402
 3997SOL    HW113411   2.533   2.448   6.933 -0.0514  1.3138  1.4316
 3997SOL    HW213412   2.395   2.492   6.890 -0.5725  0.1144  1.8380
 3998SOL     OW13413   4.211   3.617   4.011  0.3371 -0.5351  0.1058
 3998SOL    HW113414   4.179   3.556   4.078 -0.0538 -1.4091 -0.8552
 3998SOL    HW213415   4.217   3.564   3.932  0.5022  0.5653 -0.6291
 3999SOL     OW13416   6.141   5.051   6.970  0.2132 -0.6012  0.4111
 3999SOL    HW113417   6.075   5.056   6.901  0.3989 -0.1086  0.2609
 3999SOL    HW213418   6.099   5.090   7.047 -0.2678 -1.8541  0.8121
 4000SOL     OW13419   5.017   3.517   1.275  0.3247 -0.4479  0.2192
 4000SOL    HW113420   4.989   3.519   1.184  1.1425 -0.9976 -0.0456
 4000SOL    HW213421   5.073   3.595   1.285  0.3492 -0.4656  0.2189
 4001SOL     OW13422   6.303   4.362   4.810 -0.0073 -0.2561  0.2238
 4001SOL    HW113423   6.353   4.304   4.868  1.0795  0.8999  0.5092
 4001SOL    HW213424   6.241   4.407   4.868  0.2453  0.0099  0.2937
 4002SOL     OW13425   6.721   1.842   8.102  0.0405  0.5048  0.3780
 4002SOL    HW113426   6.749   1.754   8.127 -2.7065 -0.0837  1.7424
 4002SOL    HW213427   6.758   1.899   8.168 -1.2199 -0.1569  1.7129
 4003SOL     OW13428   3.656   4.667   5.183 -0.1243 -0.4605  0.5333
 4003SOL    HW113429   3.646   4.573   5.201  1.2242 -0.8924 -0.8064
 4003SOL    HW213430   3.590   4.685   5.116 -0.5732 -0.3776  0.9916
 4004SOL     OW13431   2.110   6.180   6.560  0.7558  0.1287  0.8021
 4004SOL    HW113432   2.069   6.239   6.497 -1.2737 -1.7790  0.2126
 4004SOL    HW213433   2.174   6.235   6.606  1.4380  1.9059 -2.0050
 4005SOL     OW13434   5.542   4.893   2.746  0.4429  0.7479  0.0697
 4005SOL    HW113435   5.606   4.860   2.684 -2.7479 -1.4337 -2.3741
 4005SOL    HW213436   5.535   4.824   2.812 -0.6518  0.0719 -0.7209
 4006SOL     OW13437   8.135   3.571   4.749 -0.2114 -0.2762  0.1569
 4006SOL    HW113438   8.111   3.515   4.675  1.8585  0.1290 -0.9141
 4006SOL    HW213439   8.176   3.512   4.812 -1.2543 -0.4941  0.6515
 4007SOL     OW13440   3.776   8.359   5.138 -0.1988 -0.4071  0.1315
 4007SOL    HW113441   3.795   8.319   5.223 -2.4691  2.7282  2.3254
 4007SOL    HW213442   3.708   8.303   5.101 -1.4626 -0.1362  1.9100
 4008SOL     OW13443   2.135   6.304   2.460  0.4818 -0.4150 -0.1947
 4008SOL    HW113444   2.098   6.393   2.455 -1.7760 -1.3411 -1.8460
 4008SOL    HW213445   2.204   6.303   2.393 -0.7295 -0.3828 -1.4877
 4009SOL     OW13446   1.897   6.782   5.319  0.3257 -0.0107  0.4433
 4009SOL    HW113447   1.869   6.704   5.368 -0.3564 -0.2994 -0.3810
 4009SOL    HW213448   1.817   6.811   5.274  1.1788 -0.4032 -1.3899
 4010SOL     OW13449   7.361   0.816   7.818 -0.4140 -0.5855  0.2510
 4010SOL    HW113450   7.287   0.806   7.759 -0.8445 -0.4373  0.7548
 4010SOL    HW213451   7.438   0.813   7.761 -0.8485  0.4131 -0.4318
 4011SOL     OW13452   2.229   6.604   4.179  0.0309  0.1484 -0.8104
 4011SOL    HW113453   2.171   6.680   4.175 -1.6366 -0.9398  0.8352
 4011SOL    HW213454   2.305   6.629   4.127 -0.7051  2.7067 -0.8092
 4012SOL     OW13455   7.201   4.695   0.936  0.0031 -0.3369  0.3573
 4012SOL    HW113456   7.174   4.649   1.015 -0.5780  1.3309  1.1837
 4012SOL    HW213457   7.288   4.729   0.956 -0.9459  1.8585  1.1766
 4013SOL     OW13458   1.762   0.195   1.217 -0.0621 -0.1149 -0.4273
 4013SOL    HW113459   1.667   0.198   1.232 -0.0088  0.1811 -0.1481
 4013SOL    HW213460   1.781   0.274   1.166  0.2989  0.7747  1.0364
 4014SOL     OW13461   0.431   2.532   6.650 -0.1306 -0.1737 -0.0160
 4014SOL    HW113462   0.357   2.542   6.589 -0.7009  1.4009  0.8564
 4014SOL    HW213463   0.399   2.570   6.732  0.7346 -1.9234  1.1889
 4015SOL     OW13464   3.965   6.886   6.724  0.1869 -0.0293 -0.1985
 4015SOL    HW113465   4.059   6.879   6.703  0.0630 -0.2324 -0.7249
 4015SOL    HW213466   3.953   6.976   6.753  1.0210 -0.6776  2.4066
 4016SOL     OW13467   6.257   4.878   1.495 -0.3258  0.4674  0.2854
 4016SOL    HW113468   6.197   4.849   1.564 -0.7424 -0.0070 -0.2579
 4016SOL    HW213469   6.204   4.938   1.442 -0.2138  0.3127 -0.0020
 4017SOL     OW13470   4.227   2.517   7.983  0.1329  0.1126  0.3348
 4017SOL    HW113471   4.224   2.539   7.890 -1.0834 -1.8476 -0.1355
 4017SOL    HW213472   4.137   2.529   8.014  0.3786  0.0754  1.0940
 4018SOL     OW13473   6.185   6.483   5.607 -0.2527 -0.0282 -0.0207
 4018SOL    HW113474   6.136   6.493   5.689 -0.6854 -0.7205 -0.1881
 4018SOL    HW213475   6.273   6.457   5.635  0.1093  1.4286  0.2908
 4019SOL     OW13476   0.259   1.967   5.285 -0.3740 -0.1621  0.3530
 4019SOL    HW113477   0.349   1.939   5.302 -0.6073 -0.0395  1.9627
 4019SOL    HW213478   0.267   2.053   5.245  0.2438 -0.9051 -1.2332
 4020SOL     OW13479   0.631   4.691   8.160 -0.1775  0.4486  0.0013
 4020SOL    HW113480   0.547   4.711   8.204  0.4719 -0.1641  1.6194
 4020SOL    HW213481   0.606   4.639   8.084 -1.3187  0.6354  0.2233
 4021SOL     OW13482   1.682   3.582   0.331 -0.1074  0.6915 -0.0193
 4021SOL    HW113483   1.697   3.674   0.355 -1.6466  1.3170 -1.2802
 4021SOL    HW213484   1.602   3.584   0.278  1.6381 -0.8854 -2.9958
 4022SOL     OW13485   1.676   2.365   5.909  0.5069 -0.0851  0.1434
 4022SOL    HW113486   1.584   2.393   5.910  0.6769  0.7399 -2.1140
 4022SOL    HW213487   1.719   2.421   5.972 -0.3772  0.1641  0.5401
 4023SOL     OW13488   7.646   1.566   1.937 -0.1019 -0.1486 -0.3010
 4023SOL    HW113489   7.687   1.513   2.005  1.0479  1.2041  0.1014
 4023SOL    HW213490   7.589   1.626   1.985  0.7151  0.8095 -0.4825
 4024SOL     OW13491   7.882   6.029   6.789  0.8154 -0.1726 -0.2386
 4024SOL    HW113492   7.949   5.974   6.829  0.6093  0.0325  0.4057
 4024SOL    HW213493   7.910   6.038   6.698  0.5684 -1.7639 -0.4963
 4025SOL     OW13494   7.871   7.283   7.426  0.2853 -0.7343 -0.0829
 4025SOL    HW113495   7.917   7.360   7.394 -1.5082  0.7303  0.6866
 4025SOL    HW213496   7.938   7.215   7.430  1.9493  0.7954 -0.6973
 4026SOL     OW13497   0.936   0.028   0.230  0.4318 -0.1011  0.3530
 4026SOL    HW113498   0.919  -0.066   0.223 -1.4090  0.1613  0.8693
 4026SOL    HW213499   0.981   0.037   0.314  2.3367 -0.6927 -0.5465
 4027SOL     OW13500   4.912   2.359   1.024 -0.2215 -0.0404 -0.3636
 4027SOL    HW113501   4.839   2.315   0.980 -0.6269  0.5387 -0.2920
 4027SOL    HW213502   4.925   2.439   0.972  0.4532 -0.2090 -0.4566
 4028SOL     OW13503   0.645   2.164   4.768 -0.8319 -0.4778 -0.5787
 4028SOL    HW113504   0.555   2.197   4.762 -1.2460 -1.5685 -0.5998
 4028SOL    HW213505   0.669   2.176   4.859 -1.0711 -0.3721 -0.5274
 4029SOL     OW13506   4.317   0.996   8.177  0.0403 -0.2657 -0.1990
 4029SOL    HW113507   4.245   0.960   8.229 -0.7725  0.6135 -0.6789
 4029SOL    HW213508   4.278   1.014   8.092  0.5958  1.0012 -0.2081
 4030SOL     OW13509   4.273   3.440   5.813 -0.2305  0.8791 -0.3521
 4030SOL    HW113510   4.328   3.389   5.753  0.8924  0.2557  1.1673
 4030SOL    HW213511   4.334   3.493   5.863 -1.1296  1.1809  0.4510
 4031SOL     OW13512   7.242   1.693   1.433  0.4311 -0.1481 -0.0113
 4031SOL    HW113513   7.276   1.757   1.496 -0.7014  1.0180 -0.5298
 4031SOL    HW213514   7.187   1.745   1.374 -1.8795 -1.8208  0.5173
 4032SOL     OW13515   5.377   1.992   4.516 -0.0248  0.7687 -0.7996
 4032SOL    HW113516   5.325   2.072   4.508  1.2324  2.0907  2.5404
 4032SOL    HW213517   5.364   1.964   4.607  2.0952 -1.0359 -0.9700
 4033SOL     OW13518   6.289   1.062   2.758  0.5104  0.0643  0.7028
 4033SOL    HW113519   6.342   1.066   2.678  1.2000  0.6539  1.1772
 4033SOL    HW213520   6.238   1.143   2.757 -0.7576 -0.7183  0.0092
 4034SOL     OW13521   1.022   0.204   1.194  0.1360  0.0195  0.1945
 4034SOL    HW113522   0.946   0.174   1.144  0.5075 -0.5145 -0.0636
 4034SOL    HW213523   1.067   0.123   1.220  0.2151  0.3108  0.9698
 4035SOL     OW13524   6.501   1.681   2.681 -0.1214  0.2351  0.3011
 4035SOL    HW113525   6.503   1.599   2.731 -0.6636  0.5446  0.8318
 4035SOL    HW213526   6.590   1.690   2.646  0.3561  0.1823  1.4756
 4036SOL     OW13527   7.462   2.136   0.182 -0.3903  0.2704  0.2919
 4036SOL    HW113528   7.551   2.108   0.162 -0.8770 -1.7849  0.8004
 4036SOL    HW213529   7.468   2.174   0.270 -0.1773 -0.8485  0.7802
 4037SOL     OW13530   5.635   1.153   0.640 -0.3857 -0.3794  0.2425
 4037SOL    HW113531   5.565   1.175   0.702  0.0464 -2.1584  1.4258
 4037SOL    HW213532   5.705   1.214   0.659 -0.4224 -0.6405  1.2438
 4038SOL     OW13533   3.565   6.683   4.884  0.4686 -0.2620 -0.0168
 4038SOL    HW113534   3.596   6.723   4.965 -3.1308  1.0287  0.8997
 4038SOL    HW213535   3.536   6.757   4.830  0.9167 -1.2425 -1.6991
 4039SOL     OW13536   5.123   6.950   6.579  0.4828  0.1099  0.0937
 4039SOL    HW113537   5.187   6.996   6.633  0.3228  0.7135 -0.2210
 4039SOL    HW213538   5.063   6.911   6.642  0.9381 -0.1296  0.3794
 4040SOL     OW13539   8.214   8.167   2.919  0.1103  0.5780 -0.1386
 4040SOL    HW113540   8.126   8.204   2.915 -0.2232 -0.2933 -2.5652
 4040SOL    HW213541   8.272   8.242   2.909 -0.3506  1.0721  0.7488
 4041SOL     OW13542   4.665   2.763   8.323  0.9782  0.2210 -0.5600
 4041SOL    HW113543   4.736   2.698   8.322 -0.8103 -1.8581 -0.0231
 4041SOL    HW213544   4.632   2.763   8.233  0.4623 -0.2549 -0.3792
 4042SOL     OW13545   3.123   5.338   3.212  0.3804  0.0886 -0.3814
 4042SOL    HW113546   3.173   5.276   3.160 -0.9065  0.4398 -2.1117
 4042SOL    HW213547   3.032   5.320   3.189 -0.0495  2.2322 -0.4977
 4043SOL     OW13548   7.657   2.456   8.033 -0.4256 -0.1138 -0.7170
 4043SOL    HW113549   7.723   2.520   8.059  1.1788 -2.0431  0.1920
 4043SOL    HW213550   7.694   2.413   7.956 -0.5560 -1.2880 -0.1461
 4044SOL     OW13551   2.501   7.376   6.314 -0.1345 -0.5351  0.5509
 4044SOL    HW113552   2.427   7.321   6.287 -1.7641  1.2248  1.1754
 4044SOL    HW213553   2.521   7.347   6.403 -0.1517 -0.9387  0.4241
 4045SOL     OW13554   1.266   7.420   2.786 -0.2706 -0.9552 -0.4123
 4045SOL    HW113555   1.172   7.399   2.792 -0.3433 -0.3260  1.0078
 4045SOL    HW213556   1.274   7.506   2.827  1.3192 -2.2089  2.1682
 4046SOL     OW13557   0.626   8.144   4.714 -0.2187 -0.0121  0.0053
 4046SOL    HW113558   0.605   8.071   4.655 -0.5650  0.4444 -0.4503
 4046SOL    HW213559   0.557   8.209   4.697  0.5571  0.7713 -0.2175
 4047SOL     OW13560   4.263   8.092   0.427 -0.2249  0.4193 -0.5399
 4047SOL    HW113561   4.266   8.004   0.390 -0.3011 -0.1929  0.8773
 4047SOL    HW213562   4.350   8.129   0.408 -0.0032 -0.1574 -0.6524
 4048SOL     OW13563   0.754   5.817   4.323 -0.2544  0.2965  0.6409
 4048SOL    HW113564   0.671   5.779   4.351 -0.9766  1.5749  0.3328
 4048SOL    HW213565   0.743   5.831   4.229  0.2235  0.6911  0.6398
 4049SOL     OW13566   1.380   4.606   7.134  0.3469 -0.1039  0.1788
 4049SOL    HW113567   1.340   4.604   7.047 -0.2583 -0.7657  0.4596
 4049SOL    HW213568   1.325   4.548   7.187  1.5282 -0.8252  0.6537
 4050SOL     OW13569   4.553   8.264   0.868 -0.4583 -0.1451  0.2713
 4050SOL    HW113570   4.547   8.170   0.884  2.3589 -0.0786  2.5951
 4050SOL    HW213571   4.478   8.301   0.915 -1.3833 -1.1410 -0.3585
 4051SOL     OW13572   1.487   2.832   1.788  0.4226  0.1126 -0.1279
 4051SOL    HW113573   1.569   2.866   1.752  0.9791  0.1583  1.1242
 4051SOL    HW213574   1.485   2.740   1.762 -1.3178  1.0452 -3.9596
 4052SOL     OW13575   4.973   1.704   7.922 -0.5141  0.1289  0.3853
 4052SOL    HW113576   5.007   1.621   7.888 -0.2709  1.3957 -2.7907
 4052SOL    HW213577   5.018   1.716   8.005  0.4506 -2.2488  0.2953
 4053SOL     OW13578   4.949   1.133   0.274  0.3050  0.2487  1.0641
 4053SOL    HW113579   5.039   1.157   0.297  0.9674 -0.5151 -0.5678
 4053SOL    HW213580   4.945   1.039   0.289 -0.0175  0.1797  0.5687
 4054SOL     OW13581   0.198   0.018   6.315 -0.2977  0.0146 -0.4081
 4054SOL    HW113582   0.157   0.015   6.401  1.8974  0.5541  0.7211
 4054SOL    HW213583   0.196   0.111   6.290  1.8682  0.3881  0.5669
 4055SOL     OW13584   3.287   0.275   1.019 -0.2147 -0.2726  0.6932
 4055SOL    HW113585   3.240   0.291   1.101 -0.4065  0.8442  0.3792
 4055SOL    HW213586   3.220   0.246   0.958  0.0681 -2.0141  1.1478
 4056SOL     OW13587   4.479   2.987   6.410  0.4190  0.0960 -0.6118
 4056SOL    HW113588   4.450   2.961   6.322 -0.1040 -0.8388 -0.1715
 4056SOL    HW213589   4.515   3.075   6.398  0.5185 -0.0882 -1.7999
 4057SOL     OW13590   8.321   0.582   7.639  0.5247  0.2773  0.4035
 4057SOL    HW113591   8.261   0.621   7.702 -0.0408 -2.5348  1.7497
 4057SOL    HW213592   8.397   0.639   7.640 -0.8378  2.2072  0.9978
 4058SOL     OW13593   3.524   2.777   7.499 -0.2120 -0.2514 -0.4002
 4058SOL    HW113594   3.523   2.847   7.564  2.2687 -0.3308 -0.1606
 4058SOL    HW213595   3.465   2.806   7.430 -2.4325  0.1311  1.5337
 4059SOL     OW13596   4.373   5.212   2.891 -0.4926  0.5655 -0.5274
 4059SOL    HW113597   4.295   5.265   2.872 -0.1141  1.6947  0.8276
 4059SOL    HW213598   4.438   5.276   2.921  0.7949 -0.4144 -1.1304
 4060SOL     OW13599   7.351   5.631   2.149 -0.2644  0.1347  0.0708
 4060SOL    HW113600   7.265   5.620   2.188 -1.2921  0.6017 -1.9400
 4060SOL    HW213601   7.412   5.618   2.221 -2.0571  2.1596  2.0932
 4061SOL     OW13602   2.599   6.673   7.857 -0.4380  0.5316  0.3202
 4061SOL    HW113603   2.674   6.620   7.884 -1.7706 -0.6286  1.9946
 4061SOL    HW213604   2.587   6.654   7.764  1.4181  0.8997 -0.0278
 4062SOL     OW13605   3.950   8.278   4.915  0.0917 -0.5243  0.2134
 4062SOL    HW113606   3.944   8.317   5.002 -0.7402 -0.2461  0.0346
 4062SOL    HW213607   3.917   8.345   4.856  0.8273 -0.6437 -0.3476
 4063SOL     OW13608   2.374   2.900   2.993  0.1597 -0.0178  0.0820
 4063SOL    HW113609   2.413   2.868   2.912  0.0985  0.6464 -0.2129
 4063SOL    HW213610   2.365   2.822   3.048  0.8329 -0.3544 -0.2852
 4064SOL     OW13611   2.083   4.737   3.242  0.1630  0.1965  0.5869
 4064SOL    HW113612   2.127   4.699   3.165 -0.5801  0.2661  0.1204
 4064SOL    HW213613   2.115   4.685   3.315  0.2306 -0.4277  0.1244
 4065SOL     OW13614   6.348   7.728   3.912  0.4848  0.6439  0.1650
 4065SOL    HW113615   6.319   7.640   3.935 -0.6014  0.5458 -1.4249
 4065SOL    HW213616   6.401   7.757   3.987 -0.6989 -0.6129  1.5387
 4066SOL     OW13617   8.085   6.866   2.077 -0.0040 -0.4385 -0.1059
 4066SOL    HW113618   8.132   6.883   1.996 -1.4698  2.0957 -0.5190
 4066SOL    HW213619   8.008   6.815   2.050  0.3826 -1.0894 -0.0125
 4067SOL     OW13620   5.121   0.741   0.053 -0.3200  0.0739  0.4626
 4067SOL    HW113621   5.134   0.830   0.086 -1.1541  0.7071 -0.8393
 4067SOL    HW213622   5.179   0.734  -0.023 -0.1300 -0.5641  0.6585
 4068SOL     OW13623   6.810   0.147   2.120  0.2821 -0.5279 -0.2478
 4068SOL    HW113624   6.897   0.107   2.123 -0.2438 -1.6579  0.6557
 4068SOL    HW213625   6.823   0.235   2.156  0.7630 -1.2980  1.5430
 4069SOL     OW13626   1.383   1.537   2.938 -0.4001  0.5780 -0.1913
 4069SOL    HW113627   1.452   1.534   2.872 -0.4213 -0.8291 -0.1813
 4069SOL    HW213628   1.352   1.628   2.937  0.5427  0.9050 -1.1214
 4070SOL     OW13629   0.147   5.000   7.393 -0.2493  0.5916 -0.2789
 4070SOL    HW113630   0.089   4.925   7.406  0.0474  0.7179  2.4937
 4070SOL    HW213631   0.235   4.964   7.399 -0.1018  1.1214  1.5341
 4071SOL     OW13632   5.173   2.807   1.880  0.2768 -1.1178  0.4607
 4071SOL    HW113633   5.266   2.810   1.901 -0.0039 -1.2071  1.7648
 4071SOL    HW213634   5.171   2.802   1.784  1.5693  1.5013  0.1948
 4072SOL     OW13635   6.977   4.989   7.672 -0.2626 -0.2050 -0.3642
 4072SOL    HW113636   6.980   5.046   7.749 -0.9860  0.5133 -0.8531
 4072SOL    HW213637   7.007   5.044   7.599  0.5313 -0.9127 -0.5947
 4073SOL     OW13638   4.601   5.509   1.547 -0.2785  0.3775  0.0161
 4073SOL    HW113639   4.519   5.485   1.589  1.0421 -2.9065  1.0572
 4073SOL    HW213640   4.660   5.529   1.619  0.5624 -0.0401 -0.5389
 4074SOL     OW13641   6.224   1.194   1.477 -0.7551 -0.2001 -0.4341
 4074SOL    HW113642   6.237   1.113   1.525 -0.0831  0.3667  0.3548
 4074SOL    HW213643   6.186   1.166   1.393  1.1602 -1.4980 -0.9412
 4075SOL     OW13644   3.421   5.220   1.374 -0.2845  0.6930 -0.4509
 4075SOL    HW113645   3.336   5.185   1.345  0.0632  0.2194 -0.9141
 4075SOL    HW213646   3.433   5.300   1.323 -0.7309  1.0966  0.0615
 4076SOL     OW13647   4.149   2.244   5.355  0.3847  0.3125 -0.2328
 4076SOL    HW113648   4.242   2.261   5.347  0.4503 -0.8366 -2.8462
 4076SOL    HW213649   4.143   2.178   5.424  1.0751  2.8035  2.3968
 4077SOL     OW13650   5.627   4.263   2.753  0.3367  1.0347 -0.4422
 4077SOL    HW113651   5.681   4.269   2.674  1.8702 -0.1734  0.4525
 4077SOL    HW213652   5.590   4.174   2.750  0.4982  0.9438  0.2567
 4078SOL     OW13653   1.844   8.279   0.094  0.2867  0.2350  0.2817
 4078SOL    HW113654   1.853   8.193   0.133  0.3259 -0.0831 -0.4171
 4078SOL    HW213655   1.813   8.335   0.166  0.2148 -0.3642  0.7230
 4079SOL     OW13656   3.049   2.908   5.002  0.9463 -0.0977  0.7227
 4079SOL    HW113657   2.967   2.937   5.042  0.4180 -1.8362  1.0048
 4079SOL    HW213658   3.025   2.882   4.913  1.6541  1.4583  0.0386
 4080SOL     OW13659   7.030   6.557   2.373  0.1468 -0.0056  0.1098
 4080SOL    HW113660   6.990   6.642   2.394 -0.4362 -0.8252  2.6239
 4080SOL    HW213661   7.084   6.575   2.296 -1.5176  2.1789 -0.6646
 4081SOL     OW13662   4.889   2.537   4.342 -0.0568 -0.3112 -0.0417
 4081SOL    HW113663   4.984   2.527   4.329  0.2566  0.1860  1.5695
 4081SOL    HW213664   4.869   2.478   4.415 -0.5630  1.1504  1.0516
 4082SOL     OW13665   1.637   5.305   1.612  0.1220  0.2445 -0.1933
 4082SOL    HW113666   1.654   5.382   1.666 -1.1516 -0.0916  0.7366
 4082SOL    HW213667   1.654   5.334   1.522  0.6130  1.3073  0.2292
 4083SOL     OW13668   4.277   4.528   3.150  0.2084 -0.7065  0.3313
 4083SOL    HW113669   4.291   4.434   3.157 -0.7764 -0.7915  1.4353
 4083SOL    HW213670   4.184   4.538   3.134  0.3839  0.0767 -0.2909
 4084SOL     OW13671   5.835   1.166   2.376 -0.2759  0.0270 -0.7950
 4084SOL    HW113672   5.882   1.207   2.448 -1.5837  0.5236 -0.1822
 4084SOL    HW213673   5.898   1.162   2.304  0.7840  0.3212  0.1035
 4085SOL     OW13674   6.112   4.282   7.851 -0.2866  0.4352 -0.0540
 4085SOL    HW113675   6.037   4.341   7.848 -1.6039 -0.9364  2.6249
 4085SOL    HW213676   6.075   4.195   7.841  1.1759 -0.1908 -0.3057
 4086SOL     OW13677   3.090   4.229   1.399  0.4943 -0.6844 -0.5253
 4086SOL    HW113678   3.094   4.318   1.365 -0.4233 -1.0610 -1.6698
 4086SOL    HW213679   3.064   4.239   1.491 -0.1552  0.2021 -0.7978
 4087SOL     OW13680   1.592   6.044   1.257 -0.6012 -0.6821  0.9687
 4087SOL    HW113681   1.547   5.969   1.295  0.0695  0.0716  3.4944
 4087SOL    HW213682   1.626   6.092   1.333  2.0695  0.2528 -0.6763
 4088SOL     OW13683   1.221   5.830   1.950  0.1973 -0.1732  0.1214
 4088SOL    HW113684   1.311   5.856   1.932 -0.1314  0.4146 -0.8056
 4088SOL    HW213685   1.223   5.735   1.953  0.7634 -0.1852 -0.3975
 4089SOL     OW13686   7.279   4.628   7.054  0.5531  0.2279 -0.0503
 4089SOL    HW113687   7.206   4.681   7.022  1.5186  1.0885 -0.9231
 4089SOL    HW213688   7.253   4.600   7.142 -0.6356  0.8514 -0.1886
 4090SOL     OW13689   7.892   0.619   4.208 -0.4377 -0.2482  0.2037
 4090SOL    HW113690   7.898   0.558   4.282  0.9977  0.7775  1.0003
 4090SOL    HW213691   7.966   0.679   4.222 -0.9765  0.8063 -1.3176
 4091SOL     OW13692   0.764   1.990   8.276  0.1852 -0.3208  0.3724
 4091SOL    HW113693   0.699   1.964   8.210  0.3753 -0.1271  0.1031
 4091SOL    HW213694   0.721   2.060   8.325 -0.3118 -1.1033  1.0719
 4092SOL     OW13695   4.114   7.130   1.358 -0.1062 -0.0192 -0.0972
 4092SOL    HW113696   4.083   7.046   1.392 -2.1158  0.3483 -0.8942
 4092SOL    HW213697   4.099   7.192   1.430  0.7938 -0.1975  0.2635
 4093SOL     OW13698   5.707   1.655   6.597 -0.0527  0.0971  0.3097
 4093SOL    HW113699   5.629   1.647   6.542  0.5535 -2.0397 -0.3120
 4093SOL    HW213700   5.768   1.590   6.562  1.5416  0.8342  1.5864
 4094SOL     OW13701   1.222   6.738   6.143  0.8213  0.3185  0.3894
 4094SOL    HW113702   1.191   6.655   6.105  1.2977  0.6483 -0.7803
 4094SOL    HW213703   1.154   6.763   6.205 -0.7379  0.4800 -1.2941
 4095SOL     OW13704   3.593   2.896   6.151  0.2381  0.5764  0.1475
 4095SOL    HW113705   3.532   2.966   6.129  0.7745  0.5675 -1.5251
 4095SOL    HW213706   3.635   2.925   6.232 -1.5201  0.8549  0.9993
 4096SOL     OW13707   3.913   3.750   2.904 -0.0670  0.6278 -0.5369
 4096SOL    HW113708   3.831   3.738   2.855  0.3347  0.7802 -1.2607
 4096SOL    HW213709   3.977   3.696   2.857 -0.0223 -0.5251  0.7782
 4097SOL     OW13710   3.973   2.853   5.969  0.0975  0.1633  0.3069
 4097SOL    HW113711   3.967   2.888   6.057  0.1202  0.0266  0.3644
 4097SOL    HW213712   4.013   2.923   5.917  0.8999 -0.0648  0.5927
 4098SOL     OW13713   0.174   3.300   7.669 -0.0826 -0.1363  0.5496
 4098SOL    HW113714   0.201   3.374   7.614  0.3222 -1.3451 -0.9613
 4098SOL    HW213715   0.082   3.286   7.644  0.0043 -0.4826  0.4285
 4099SOL     OW13716   3.076   1.901   2.120 -0.0969 -0.4912 -0.0774
 4099SOL    HW113717   3.122   1.937   2.195  1.2385 -1.0002 -0.6129
 4099SOL    HW213718   3.045   1.977   2.072 -1.1125 -0.1604  1.0530
 4100SOL     OW13719   6.874   1.569   8.178 -0.1092 -0.2346  0.3541
 4100SOL    HW113720   6.963   1.594   8.203  0.4395 -0.0503 -1.5677
 4100SOL    HW213721   6.886   1.505   8.108 -1.4526  0.7309 -0.8202
 4101SOL     OW13722   1.263   2.330   1.735 -0.0691  0.4238  0.3835
 4101SOL    HW113723   1.250   2.411   1.686 -1.0659  0.1169  0.1146
 4101SOL    HW213724   1.177   2.309   1.770  0.6154  0.6126  2.2783
 4102SOL     OW13725   4.935   1.896   7.413  0.3021  0.1334 -0.3392
 4102SOL    HW113726   4.957   1.989   7.422  1.2225 -0.0201 -0.8658
 4102SOL    HW213727   4.976   1.855   7.490 -1.0615  0.2985  0.5086
 4103SOL     OW13728   1.297   3.153   1.448 -0.1268 -0.3458 -0.3351
 4103SOL    HW113729   1.281   3.247   1.449 -0.0526 -0.3124  1.4659
 4103SOL    HW213730   1.308   3.131   1.355 -2.4107  1.0012 -0.9996
 4104SOL     OW13731   5.350   5.064   5.785 -0.5486 -0.0165 -0.4363
 4104SOL    HW113732   5.315   5.142   5.743 -0.3478  0.7968  0.8372
 4104SOL    HW213733   5.279   5.000   5.781 -0.7187  0.2342 -1.4839
 4105SOL     OW13734   7.693   8.028   3.746  0.6910 -0.7990 -0.2367
 4105SOL    HW113735   7.729   7.940   3.735 -1.8528 -1.6647 -2.7269
 4105SOL    HW213736   7.609   8.014   3.791 -0.3490  0.1357 -1.8107
 4106SOL     OW13737   2.203   3.676   0.116  0.3673 -0.2420  0.3925
 4106SOL    HW113738   2.129   3.721   0.157 -0.4866  0.8274 -2.1432
 4106SOL    HW213739   2.280   3.717   0.156 -0.3937  0.3221  1.3351
 4107SOL     OW13740   4.190   0.407   6.691 -0.3882  0.1491  0.0299
 4107SOL    HW113741   4.179   0.502   6.694  0.7025  0.2638  0.9625
 4107SOL    HW213742   4.264   0.393   6.632 -1.5017 -0.2525 -1.3589
 4108SOL     OW13743   5.826   2.825   5.100 -0.6445 -0.5646  0.0991
 4108SOL    HW113744   5.864   2.912   5.114  1.5871 -1.3907 -0.3128
 4108SOL    HW213745   5.779   2.833   5.017 -2.1487  0.7259  1.0341
 4109SOL     OW13746   5.509   2.542   7.530  0.2173  0.2574  0.3425
 4109SOL    HW113747   5.507   2.637   7.523  0.9524  0.2521 -0.0829
 4109SOL    HW213748   5.541   2.525   7.619  0.1257  0.4071  0.4039
 4110SOL     OW13749   7.338   0.333   5.904  0.2296  0.1553  0.0920
 4110SOL    HW113750   7.412   0.348   5.962  1.2428  1.6252 -1.4638
 4110SOL    HW213751   7.329   0.238   5.901  1.8239 -0.0501  0.6228
 4111SOL     OW13752   5.484   2.053   0.578  0.3823  0.0348 -0.2099
 4111SOL    HW113753   5.573   2.042   0.610  0.3196 -2.1040 -0.5760
 4111SOL    HW213754   5.448   1.964   0.576 -1.7458  0.8294 -0.1310
 4112SOL     OW13755   5.039   3.616   8.326 -0.8081 -0.1774 -0.0071
 4112SOL    HW113756   5.048   3.529   8.364  1.5980 -0.3888 -0.8943
 4112SOL    HW213757   4.946   3.624   8.305 -1.3035 -1.9792  1.3142
 4113SOL     OW13758   3.141   6.047   2.984 -0.1459  0.7861  0.1048
 4113SOL    HW113759   3.165   5.987   3.055 -1.4588  1.1465  0.8900
 4113SOL    HW213760   3.045   6.049   2.985 -0.2231  0.6022 -1.8686
 4114SOL     OW13761   7.237   7.346   3.325 -0.2447 -0.7755 -1.2311
 4114SOL    HW113762   7.203   7.419   3.273 -2.3085 -0.7559  0.0337
 4114SOL    HW213763   7.223   7.372   3.416  1.5986 -1.5862 -0.6646
 4115SOL     OW13764   4.779   3.304   2.184 -0.2295  0.3523  0.0701
 4115SOL    HW113765   4.767   3.219   2.227  0.6056  0.6193  0.8686
 4115SOL    HW213766   4.807   3.362   2.255 -1.7521  1.5515 -0.2463
 4116SOL     OW13767   4.044   5.115   2.645  0.4609  0.7863  0.2545
 4116SOL    HW113768   4.077   5.031   2.677 -0.1035  0.1252 -0.8451
 4116SOL    HW213769   3.951   5.113   2.664  0.4171  1.0990  0.0787
 4117SOL     OW13770   2.700   1.005   5.854 -0.0864 -0.5654 -0.3478
 4117SOL    HW113771   2.608   0.985   5.833  0.0790 -1.0371 -0.6372
 4117SOL    HW213772   2.717   1.087   5.808  0.1223 -1.3297 -1.6801
 4118SOL     OW13773   5.231   4.100   2.829 -0.4100  0.5115  0.4184
 4118SOL    HW113774   5.260   4.132   2.744 -0.9865  0.8167  0.3300
 4118SOL    HW213775   5.282   4.021   2.844  0.5298  1.0827  0.3168
 4119SOL     OW13776   4.141   5.261   3.882 -0.1965  0.1906  0.2774
 4119SOL    HW113777   4.209   5.328   3.876  0.3243 -0.3330  0.2049
 4119SOL    HW213778   4.185   5.180   3.858 -0.5502 -0.3521  1.3704
 4120SOL     OW13779   0.049   1.968   6.164 -0.0623  0.4049  0.0172
 4120SOL    HW113780   0.008   2.047   6.199 -0.8010  0.3820 -0.7637
 4120SOL    HW213781   0.099   1.998   6.088 -1.5262 -0.0320 -1.1896
 4121SOL     OW13782   2.585   4.497   4.003 -0.3752  0.1821 -0.2562
 4121SOL    HW113783   2.616   4.423   4.055 -1.4203  0.5269  0.9072
 4121SOL    HW213784   2.664   4.537   3.968  0.4594  0.6354  2.0474
 4122SOL     OW13785   2.918   2.509   5.005  0.4065  0.1547  0.6039
 4122SOL    HW113786   2.875   2.594   5.011  0.3969  0.0928  1.5827
 4122SOL    HW213787   2.949   2.492   5.094 -0.1609 -1.1644  0.5630
 4123SOL     OW13788   5.055   5.085   8.262  0.3129  0.8248 -0.5806
 4123SOL    HW113789   5.077   5.176   8.284  2.5020 -0.2053  2.2140
 4123SOL    HW213790   5.126   5.057   8.204  2.0803 -0.1727  1.8996
 4124SOL     OW13791   2.721   4.429   1.225  0.0503 -0.3568  0.4380
 4124SOL    HW113792   2.792   4.372   1.196 -0.3020 -1.5537  1.8175
 4124SOL    HW213793   2.739   4.444   1.318 -1.8228 -1.1855  0.9665
 4125SOL     OW13794   5.749   4.048   4.837  0.0399  0.4834  0.6130
 4125SOL    HW113795   5.730   3.955   4.830 -1.2804  0.7861 -0.0006
 4125SOL    HW213796   5.698   4.089   4.768 -0.3288  1.7848  1.6129
 4126SOL     OW13797   3.190   0.497   5.358 -0.3465  0.2580 -0.3156
 4126SOL    HW113798   3.216   0.421   5.306 -1.8927 -1.6106  1.4919
 4126SOL    HW213799   3.124   0.541   5.305 -3.2289 -2.6131  0.5939
 4127SOL     OW13800   2.541   3.606   0.649  0.4353  0.0641 -0.3736
 4127SOL    HW113801   2.475   3.586   0.716 -0.3390  3.9163  0.2244
 4127SOL    HW213802   2.490   3.614   0.568  0.5614  0.5138 -0.4087
 4128SOL     OW13803   1.711   6.312   5.077  0.7050 -0.3476 -0.7005
 4128SOL    HW113804   1.730   6.228   5.117  0.3383  0.3065  0.9537
 4128SOL    HW213805   1.777   6.372   5.113 -0.3664  0.5177 -0.0804
 4129SOL     OW13806   3.771   6.677   0.218 -0.2537 -0.0004  0.4947
 4129SOL    HW113807   3.773   6.589   0.256 -0.6897 -1.0761 -1.7602
 4129SOL    HW213808   3.679   6.701   0.217 -0.2052  0.1841  0.4875
 4130SOL     OW13809   3.755   1.484   8.096  0.3236  0.2141 -0.0382
 4130SOL    HW113810   3.765   1.459   8.004 -1.4689 -0.3633 -0.1094
 4130SOL    HW213811   3.739   1.401   8.141 -2.0498  0.7799  0.2816
 4131SOL     OW13812   6.770   3.281   4.904 -0.7308 -0.1821 -0.1056
 4131SOL    HW113813   6.781   3.234   4.986 -1.8152  0.3358  0.3639
 4131SOL    HW213814   6.803   3.369   4.922 -0.5899 -0.1853 -0.3455
 4132SOL     OW13815   7.968   5.245   8.352  0.0717  0.4482 -0.2920
 4132SOL    HW113816   7.958   5.156   8.386 -0.0344  0.5646 -0.0141
 4132SOL    HW213817   7.891   5.292   8.385  1.6995  1.5053  2.3000
 4133SOL     OW13818   1.156   4.319   2.067  0.0739  0.3030  0.2148
 4133SOL    HW113819   1.126   4.360   2.147 -0.5115  1.4995 -0.5879
 4133SOL    HW213820   1.100   4.242   2.057  1.2460 -0.8357  1.7776
 4134SOL     OW13821   5.753   3.125   0.528 -0.0757 -0.3273  0.4466
 4134SOL    HW113822   5.657   3.131   0.519 -0.0449  0.7379  0.7499
 4134SOL    HW213823   5.776   3.194   0.590  0.8939 -0.5972  0.4019
 4135SOL     OW13824   2.741   0.386   0.886 -0.3675  0.3675  0.1894
 4135SOL    HW113825   2.723   0.297   0.918  0.3574  0.0482 -0.2642
 4135SOL    HW213826   2.654   0.426   0.879 -0.7530 -0.4718 -0.0707
 4136SOL     OW13827   7.469   7.172   5.842 -0.1982  0.2291  0.0112
 4136SOL    HW113828   7.564   7.160   5.849  0.1484  1.4115 -1.7772
 4136SOL    HW213829   7.439   7.096   5.792 -0.0258  0.3559 -0.2880
 4137SOL     OW13830   1.957   8.331   3.859  0.1440  0.1758  0.2362
 4137SOL    HW113831   1.916   8.352   3.776  1.8394  0.4184 -0.5876
 4137SOL    HW213832   1.935   8.405   3.916 -0.8509  0.1079 -0.0432
 4138SOL     OW13833   0.343   8.032   0.773 -0.2003 -0.0119  0.2662
 4138SOL    HW113834   0.356   8.064   0.862  1.1021 -1.0099  0.4698
 4138SOL    HW213835   0.406   7.959   0.764 -0.9510 -0.5277 -1.1530
 4139SOL     OW13836   0.898   0.540   3.866  0.3842 -0.2918 -0.7990
 4139SOL    HW113837   0.848   0.460   3.878  0.5685 -0.3688 -0.5356
 4139SOL    HW213838   0.952   0.525   3.788  0.8773 -0.6593 -0.3930
 4140SOL     OW13839   6.769   5.388   3.921  0.0905 -0.1916 -0.0189
 4140SOL    HW113840   6.790   5.466   3.972  1.5400 -0.2801 -0.4462
 4140SOL    HW213841   6.673   5.390   3.913 -0.2781 -0.3648  2.9929
 4141SOL     OW13842   5.992   1.151   7.875  0.5148 -0.3449  0.1629
 4141SOL    HW113843   6.047   1.130   7.951  0.9514 -0.0544 -0.0657
 4141SOL    HW213844   5.903   1.131   7.903  0.3860  1.8324  1.5370
 4142SOL     OW13845   3.819   0.023   6.674 -0.5052  0.8637 -0.1049
 4142SOL    HW113846   3.908  -0.001   6.701 -0.5666  1.3865  0.6158
 4142SOL    HW213847   3.830   0.099   6.617 -0.3645 -0.3386 -1.7179
 4143SOL     OW13848   4.271   3.947   6.411  0.3918  0.3464 -0.4036
 4143SOL    HW113849   4.278   3.975   6.502 -0.6305  0.4949 -0.3608
 4143SOL    HW213850   4.354   3.903   6.393 -0.3971 -2.0507  1.3999
 4144SOL     OW13851   8.121   0.198   8.239 -0.6743 -0.0302  0.2179
 4144SOL    HW113852   8.064   0.258   8.192 -0.2733  0.4369  0.3173
 4144SOL    HW213853   8.181   0.164   8.172 -0.3109  0.3894  0.3220
 4145SOL     OW13854   5.444   5.202   7.657 -0.2028 -0.0945  0.4420
 4145SOL    HW113855   5.474   5.241   7.739 -0.1962 -0.0182  0.4032
 4145SOL    HW213856   5.515   5.219   7.595 -0.4217  0.2786  0.2939
 4146SOL     OW13857   6.591   4.264   6.357 -0.4039  0.2412  0.2917
 4146SOL    HW113858   6.540   4.203   6.302  0.6273  0.1044 -0.5447
 4146SOL    HW213859   6.606   4.340   6.301 -0.1661  0.5189  0.7266
 4147SOL     OW13860   7.160   7.022   7.770  0.1623 -0.0576  0.4868
 4147SOL    HW113861   7.081   7.055   7.812 -0.7790 -0.6541 -0.7366
 4147SOL    HW213862   7.183   7.089   7.706 -0.2441 -0.5431 -0.1899
 4148SOL     OW13863   2.909   3.774   7.988 -0.2961 -0.2274 -0.0753
 4148SOL    HW113864   2.971   3.718   8.035  0.3162  0.5135  0.0240
 4148SOL    HW213865   2.949   3.785   7.901 -0.2420  0.3217  0.0174
 4149SOL     OW13866   5.804   6.567   5.768  0.0947 -0.3412 -0.3417
 4149SOL    HW113867   5.755   6.638   5.726 -0.2375  0.4219  1.2416
 4149SOL    HW213868   5.883   6.610   5.802  0.7726 -1.1108 -0.9172
 4150SOL     OW13869   1.684   0.007   4.264 -0.3192  0.7060 -0.3265
 4150SOL    HW113870   1.634   0.087   4.274  0.2392  1.0787 -0.4591
 4150SOL    HW213871   1.632  -0.047   4.204 -0.0829  1.4914 -1.2500
 4151SOL     OW13872   7.810   0.279   0.876 -0.1495  0.1539 -0.1491
 4151SOL    HW113873   7.841   0.256   0.788 -1.0612 -1.1736 -0.1523
 4151SOL    HW213874   7.715   0.272   0.870 -0.1719 -0.9909  1.2127
 4152SOL     OW13875   2.243   0.556   1.437  0.1831  0.7363 -0.2798
 4152SOL    HW113876   2.293   0.635   1.418  1.8970 -0.4390 -0.8849
 4152SOL    HW213877   2.227   0.517   1.351  0.8014 -0.4142  0.1111
 4153SOL     OW13878   6.663   0.083   0.581 -0.5482 -0.2244  0.2173
 4153SOL    HW113879   6.611   0.158   0.553  0.4826  0.4751  0.1096
 4153SOL    HW213880   6.739   0.121   0.626 -0.1690 -1.2069  0.4442
 4154SOL     OW13881   2.668   3.225   5.207 -0.0984 -0.1560  0.2941
 4154SOL    HW113882   2.668   3.241   5.302  0.0115  0.4855  0.1893
 4154SOL    HW213883   2.575   3.218   5.185 -0.0999 -1.3262  0.6063
 4155SOL     OW13884   1.687   7.442   1.754  0.2275 -0.4121  0.1525
 4155SOL    HW113885   1.636   7.451   1.835 -0.2781  1.0828 -0.3076
 4155SOL    HW213886   1.738   7.523   1.749  1.0470 -0.9631 -0.4958
 4156SOL     OW13887   1.332   5.575   6.670 -0.0657 -0.5272  0.2517
 4156SOL    HW113888   1.295   5.597   6.755  0.6905  0.5831  0.3287
 4156SOL    HW213889   1.329   5.658   6.621 -2.0544 -1.5132 -1.4411
 4157SOL     OW13890   7.734   4.412   7.260  0.2589  1.0315 -0.6123
 4157SOL    HW113891   7.764   4.371   7.341  0.7571  0.7091 -0.9511
 4157SOL    HW213892   7.717   4.503   7.284  0.3375  0.9236 -0.1309
 4158SOL     OW13893   4.987   5.460   7.884  0.7568  0.4360  0.1191
 4158SOL    HW113894   5.052   5.476   7.815  1.7848  0.0919  0.9737
 4158SOL    HW213895   4.983   5.365   7.892  0.6682  0.4732  0.5502
 4159SOL     OW13896   3.358   8.292   3.806  0.6313 -0.1861  0.0548
 4159SOL    HW113897   3.433   8.233   3.797 -0.0786 -1.0000 -0.8259
 4159SOL    HW213898   3.310   8.281   3.724 -1.1292 -0.6545  1.1034
 4160SOL     OW13899   7.617   8.342   7.398  0.1906  0.0077 -0.2943
 4160SOL    HW113900   7.647   8.327   7.309  1.7827  0.4134  0.1416
 4160SOL    HW213901   7.525   8.370   7.388  1.1539  3.0908 -2.0862
 4161SOL     OW13902   3.878   0.942   0.709 -0.1133  0.5568 -0.0224
 4161SOL    HW113903   3.868   0.941   0.804 -0.9081 -1.6365 -0.0663
 4161SOL    HW213904   3.789   0.943   0.675  0.1107 -0.5384 -0.6970
 4162SOL     OW13905   8.315   6.367   2.482 -0.8466  0.3674 -0.3473
 4162SOL    HW113906   8.269   6.381   2.564  2.0153 -0.6783  1.5780
 4162SOL    HW213907   8.256   6.312   2.431 -2.3528  0.3527  1.3148
 4163SOL     OW13908   4.217   0.646   5.064 -0.1097  0.2043 -0.1823
 4163SOL    HW113909   4.266   0.725   5.084  1.4029 -0.8880  0.6274
 4163SOL    HW213910   4.126   0.669   5.082  0.2872  1.7551 -0.0070
 4164SOL     OW13911   5.783   3.181   2.761 -0.4454 -0.4644 -0.1203
 4164SOL    HW113912   5.825   3.219   2.684 -1.1165 -0.5829 -0.5511
 4164SOL    HW213913   5.720   3.118   2.726 -2.1491  0.8608  0.4371
 4165SOL     OW13914   2.084   6.088   7.632 -0.2456 -0.2257  0.0738
 4165SOL    HW113915   2.150   6.139   7.679  1.4694 -1.6113 -0.7028
 4165SOL    HW213916   2.074   6.008   7.684  1.2848 -1.5408 -1.4982
 4166SOL     OW13917   6.472   0.694   7.880 -0.1047 -0.8856 -0.1688
 4166SOL    HW113918   6.525   0.731   7.810  0.1897 -0.6002  0.2039
 4166SOL    HW213919   6.528   0.626   7.919  0.0472 -0.4914  0.3128
 4167SOL     OW13920   4.341   7.510   6.054  0.5624 -0.3248  0.1423
 4167SOL    HW113921   4.395   7.588   6.068 -1.6706  1.4007 -0.1851
 4167SOL    HW213922   4.298   7.495   6.138 -0.7050  0.1982 -0.3912
 4168SOL     OW13923   2.520   1.735   3.275  0.2841 -0.4171 -0.2817
 4168SOL    HW113924   2.578   1.697   3.209  0.4333  2.0624 -1.7187
 4168SOL    HW213925   2.543   1.690   3.356  2.0220 -1.6886 -1.4018
 4169SOL     OW13926   3.438   1.190   6.408  0.1058  0.0578 -0.8235
 4169SOL    HW113927   3.472   1.279   6.403  0.4938 -0.0081  0.3044
 4169SOL    HW213928   3.515   1.135   6.393  0.3057 -0.0819  0.5411
 4170SOL     OW13929   0.072   4.231   4.411  0.2555 -0.5093  0.3857
 4170SOL    HW113930   0.136   4.293   4.377  0.1633 -0.8010 -0.3407
 4170SOL    HW213931   0.012   4.284   4.464  0.6132 -0.1055  0.3876
 4171SOL     OW13932   3.833   0.699   1.627 -0.0468 -0.2862 -0.7399
 4171SOL    HW113933   3.921   0.712   1.594 -0.3250 -0.5512 -1.6161
 4171SOL    HW213934   3.840   0.625   1.687  0.7063  0.9972  0.8244
 4172SOL     OW13935   0.450   1.607   0.515  0.3206  0.4073  0.1688
 4172SOL    HW113936   0.494   1.682   0.554 -0.1247 -0.0717  1.6792
 4172SOL    HW213937   0.495   1.531   0.553 -1.0881 -0.0772  0.9562
 4173SOL     OW13938   5.690   6.929   0.681  0.1197 -0.2427 -0.0816
 4173SOL    HW113939   5.686   7.003   0.619 -2.2803 -0.1294  0.1372
 4173SOL    HW213940   5.742   6.963   0.754 -0.2063  0.9268 -0.3636
 4174SOL     OW13941   5.828   4.753   7.189  0.4786  0.1086  0.0466
 4174SOL    HW113942   5.822   4.748   7.285 -0.0433  0.0593  0.0134
 4174SOL    HW213943   5.750   4.801   7.162  0.1482 -0.6707 -0.4169
 4175SOL     OW13944   7.952   0.103   3.556  0.0119 -0.3094  0.5219
 4175SOL    HW113945   8.041   0.099   3.522 -0.0302  0.1518  0.3538
 4175SOL    HW213946   7.944   0.026   3.612  0.0507 -1.1380 -0.5797
 4176SOL     OW13947   2.935   1.733   8.137  0.3003  0.3155 -0.4009
 4176SOL    HW113948   2.983   1.659   8.100  2.6388  2.6030 -2.3709
 4176SOL    HW213949   2.917   1.789   8.061 -1.0656  1.9597  1.0620
 4177SOL     OW13950   6.404   2.647   0.135  0.7829 -0.3414 -0.0079
 4177SOL    HW113951   6.370   2.729   0.171  1.4544 -0.7068  1.5278
 4177SOL    HW213952   6.482   2.673   0.086 -1.0334  0.3771 -2.7412
 4178SOL     OW13953   2.645   1.230   3.534  0.1305  0.0927 -0.1431
 4178SOL    HW113954   2.731   1.224   3.574  0.1843  1.4078 -0.0134
 4178SOL    HW213955   2.660   1.213   3.441  0.0570 -2.6084  0.2509
 4179SOL     OW13956   4.120   3.002   2.946  0.0716 -0.3032  0.1204
 4179SOL    HW113957   4.129   2.907   2.956 -1.5050 -0.2731  3.6076
 4179SOL    HW213958   4.026   3.015   2.931  0.3017  0.7225 -0.4822
 4180SOL     OW13959   4.408   8.365   1.065 -0.0663  0.3804  0.2251
 4180SOL    HW113960   4.324   8.325   1.087  0.6873 -1.1115  0.5321
 4180SOL    HW213961   4.407   8.450   1.111 -1.9779  1.0685 -0.9982
 4181SOL     OW13962   4.589   4.834   7.446 -0.2488  0.4037 -0.0470
 4181SOL    HW113963   4.615   4.926   7.447  0.2847  0.3125 -1.9876
 4181SOL    HW213964   4.496   4.835   7.468 -0.1406  1.3544  0.3997
 4182SOL     OW13965   4.682   6.921   8.365 -0.1058  0.3057 -0.6124
 4182SOL    HW113966   4.660   6.866   8.440 -0.5618 -0.5784 -1.3722
 4182SOL    HW213967   4.778   6.920   8.361  0.0429  1.9527  1.0928
 4183SOL     OW13968   4.709   5.113   3.810 -0.1906  0.2389 -0.3066
 4183SOL    HW113969   4.747   5.198   3.785  1.3993 -0.3778 -0.1242
 4183SOL    HW213970   4.641   5.135   3.874  0.1676  1.3819 -0.2854
 4184SOL     OW13971   2.261   3.809   5.164  0.7004  0.3754  0.2397
 4184SOL    HW113972   2.315   3.888   5.165 -0.8550  1.5080 -0.4998
 4184SOL    HW213973   2.223   3.805   5.251 -0.2912  1.2532 -0.1348
 4185SOL     OW13974   0.725   4.361   4.795  0.1751  0.2071  0.4595
 4185SOL    HW113975   0.687   4.361   4.707 -0.4663  1.4671  0.7206
 4185SOL    HW213976   0.745   4.453   4.812  0.6157 -0.0724  1.5069
 4186SOL     OW13977   3.033   3.662   6.419  0.5017  0.3166  0.0743
 4186SOL    HW113978   2.982   3.594   6.464  1.5110 -0.0561  0.6715
 4186SOL    HW213979   3.102   3.614   6.373  0.1419  0.7942 -0.9967
 4187SOL     OW13980   2.378   4.915   7.590  0.1972 -0.2864  0.0171
 4187SOL    HW113981   2.347   4.881   7.506  1.1395  0.2381 -0.5564
 4187SOL    HW213982   2.395   5.007   7.573  0.2504 -0.1428  0.8343
 4188SOL     OW13983   3.829   3.594   6.514  0.0517 -0.0177 -0.0654
 4188SOL    HW113984   3.914   3.552   6.500  0.6479  1.4241 -0.9699
 4188SOL    HW213985   3.816   3.648   6.436 -0.7017  1.4451  1.0248
 4189SOL     OW13986   2.629   6.521   4.294  0.1825 -0.0539 -0.0764
 4189SOL    HW113987   2.663   6.492   4.209  1.4677 -1.9624  0.9997
 4189SOL    HW213988   2.579   6.446   4.326 -1.2172  1.0465  0.4113
 4190SOL     OW13989   8.357   4.497   5.004 -0.3428 -0.1104 -0.5708
 4190SOL    HW113990   8.311   4.413   5.002 -1.5239  0.4779  0.2438
 4190SOL    HW213991   8.294   4.557   5.043  0.9344  0.8761  0.0431
 4191SOL     OW13992   3.537   3.497   7.727 -0.3779 -0.2348 -0.1615
 4191SOL    HW113993   3.632   3.500   7.740 -0.4608  1.0781  0.3626
 4191SOL    HW213994   3.516   3.404   7.722  1.0285 -0.5424 -1.0532
 4192SOL     OW13995   0.648   2.453   1.464  0.4846 -0.0243 -0.1052
 4192SOL    HW113996   0.659   2.478   1.556  1.8164 -0.6245 -0.0811
 4192SOL    HW213997   0.668   2.360   1.462 -1.5000 -0.4926 -0.7014
 4193SOL     OW13998   0.809   8.114   4.953  0.1159  0.4872 -0.1015
 4193SOL    HW113999   0.783   8.191   5.003  0.4332  1.3924 -1.2710
 4193SOL    HW214000   0.763   8.041   4.994 -0.4077  1.3385  0.8569
 4194SOL     OW14001   2.138   5.923   7.403  0.2071  0.2074  1.1126
 4194SOL    HW114002   2.151   6.006   7.448  0.7250  0.6736  0.1361
 4194SOL    HW214003   2.066   5.940   7.342  1.9546  0.7452 -0.9172
 4195SOL     OW14004   5.408   0.704   3.803  0.1683  0.4180  0.3085
 4195SOL    HW114005   5.361   0.787   3.792  0.6539  0.8571  1.4080
 4195SOL    HW214006   5.495   0.721   3.766  0.4992  0.6447  1.1548
 4196SOL     OW14007   5.019   7.188   0.462  0.1633  0.2849  0.4065
 4196SOL    HW114008   4.966   7.180   0.541 -0.2289  1.9795  0.3391
 4196SOL    HW214009   5.025   7.098   0.428 -1.1030 -0.2055  1.4125
 4197SOL     OW14010   4.348   5.600   6.846  0.2958  0.1000 -0.1612
 4197SOL    HW114011   4.264   5.557   6.834  0.1066  0.7373 -1.2175
 4197SOL    HW214012   4.330   5.693   6.829  1.0026  0.3887  0.6079
 4198SOL     OW14013   7.858   0.376   1.987 -0.6177 -0.3414  0.0939
 4198SOL    HW114014   7.937   0.322   1.983 -0.1256  0.4347 -1.1607
 4198SOL    HW214015   7.862   0.431   1.909 -1.1638  1.4132  1.2319
 4199SOL     OW14016   6.216   6.570   7.099 -0.2184 -0.2268  0.2130
 4199SOL    HW114017   6.200   6.555   7.192  1.9206 -0.1934  0.6424
 4199SOL    HW214018   6.213   6.665   7.089  2.8695  0.0841  1.0432
 4200SOL     OW14019   6.067   6.880   3.817 -0.3235  0.2866 -0.4145
 4200SOL    HW114020   5.977   6.878   3.850 -0.9065  3.2013 -1.4794
 4200SOL    HW214021   6.106   6.797   3.845 -2.9870 -0.5612  1.0517
 4201SOL     OW14022   2.390   5.740   4.184 -0.0833 -0.1179 -0.3586
 4201SOL    HW114023   2.297   5.755   4.169 -0.3192 -0.9847  0.1790
 4201SOL    HW214024   2.423   5.707   4.100 -0.6072 -1.3185 -0.1252
 4202SOL     OW14025   6.278   3.981   8.062  0.0107 -0.5015 -0.6040
 4202SOL    HW114026   6.232   4.026   8.133 -0.7058 -1.1674 -0.6387
 4202SOL    HW214027   6.246   4.023   7.982 -1.7488 -1.9630 -0.7348
 4203SOL     OW14028   8.108   6.096   1.779 -0.1861  0.5644  0.1584
 4203SOL    HW114029   8.106   6.012   1.733 -1.8914 -0.3698  1.7999
 4203SOL    HW214030   8.111   6.162   1.710  0.7075 -0.8230 -1.1746
 4204SOL     OW14031   1.777   4.499   3.921 -0.5267  0.3182  0.4920
 4204SOL    HW114032   1.730   4.535   3.997 -2.4029 -1.1163  0.0934
 4204SOL    HW214033   1.757   4.561   3.850 -0.3179  0.6664  0.7311
 4205SOL     OW14034   0.382   0.552   4.270  0.5921 -0.4178 -0.7068
 4205SOL    HW114035   0.344   0.477   4.317 -0.9411  0.2069 -0.9127
 4205SOL    HW214036   0.420   0.513   4.191  0.5430 -1.0924 -0.4090
 4206SOL     OW14037   0.753   4.857   2.980 -0.1751 -0.0449 -0.0532
 4206SOL    HW114038   0.844   4.841   2.957 -0.1072 -1.1784  0.9472
 4206SOL    HW214039   0.713   4.770   2.983 -0.8777  0.2946  1.1906
 4207SOL     OW14040   2.103   3.422   5.862  0.1923  0.4715 -0.2116
 4207SOL    HW114041   2.018   3.463   5.845  0.3320  0.9813  0.2862
 4207SOL    HW214042   2.121   3.442   5.954 -0.1770 -1.5044  0.3327
 4208SOL     OW14043   0.353   5.797   0.466  0.8901 -0.2587  0.6270
 4208SOL    HW114044   0.401   5.830   0.542 -0.1143  2.3565  0.2523
 4208SOL    HW214045   0.410   5.815   0.391  0.5252  0.2216  0.4593
 4209SOL     OW14046   1.648   4.549   7.169  0.7329 -0.0737  0.3503
 4209SOL    HW114047   1.674   4.493   7.096  0.3874 -0.9847  0.9038
 4209SOL    HW214048   1.556   4.569   7.152  0.9757  0.7048 -0.0776
 4210SOL     OW14049   6.395   7.093   7.970 -0.4380  0.1351  0.0839
 4210SOL    HW114050   6.391   7.165   8.034 -0.0920 -0.6198  0.9712
 4210SOL    HW214051   6.307   7.058   7.968 -0.1988 -0.5467  0.9901
 4211SOL     OW14052   1.610   2.830   6.263 -0.1185  0.4107  0.3473
 4211SOL    HW114053   1.537   2.798   6.317 -0.6469  1.7283  0.4481
 4211SOL    HW214054   1.650   2.751   6.228 -2.4109 -0.3299 -0.7826
 4212SOL     OW14055   3.427   4.213   0.046  0.0330 -0.0231 -0.1983
 4212SOL    HW114056   3.483   4.142   0.015 -1.8119 -1.5456 -0.2382
 4212SOL    HW214057   3.478   4.255   0.116  1.8808 -0.2120 -1.3754
 4213SOL     OW14058   3.344   3.612   4.236 -0.0480 -0.0674 -0.0819
 4213SOL    HW114059   3.321   3.673   4.306 -0.5556  0.4379 -0.6646
 4213SOL    HW214060   3.330   3.525   4.273  0.1498  0.1782  0.5887
 4214SOL     OW14061   3.616   5.584   3.868  0.2060 -0.5153  0.2876
 4214SOL    HW114062   3.647   5.630   3.789 -1.2927  1.0767  0.5676
 4214SOL    HW214063   3.695   5.548   3.907  0.9852 -1.5578 -2.0404
 4215SOL     OW14064   1.064   5.925   1.692 -0.2622  0.6878 -0.5790
 4215SOL    HW114065   0.977   5.964   1.702 -1.3584 -1.8758  0.4827
 4215SOL    HW214066   1.088   5.895   1.779  0.8943 -0.2809 -1.1946
 4216SOL     OW14067   6.143   5.408   7.651 -0.4307 -0.1420 -0.7668
 4216SOL    HW114068   6.068   5.361   7.613 -0.2040  0.4922 -2.0491
 4216SOL    HW214069   6.105   5.457   7.724 -0.9459 -1.1143 -0.3543
 4217SOL     OW14070   1.454   2.418   2.606  0.0742 -0.9528 -0.1356
 4217SOL    HW114071   1.502   2.501   2.605 -1.2063 -0.1929 -0.8658
 4217SOL    HW214072   1.488   2.370   2.530 -0.9397 -0.0278 -1.2083
 4218SOL     OW14073   5.733   7.004   1.260 -0.3512  0.1982 -0.3904
 4218SOL    HW114074   5.756   6.914   1.234 -1.2829  0.0198 -0.6535
 4218SOL    HW214075   5.776   7.016   1.344 -2.2567 -1.4389  0.9222
 4219SOL     OW14076   6.639   4.871   1.815  0.5075 -0.4614  0.5329
 4219SOL    HW114077   6.636   4.868   1.719 -1.4636  2.0670  0.3972
 4219SOL    HW214078   6.721   4.917   1.834  0.4343 -0.1019  0.0077
 4220SOL     OW14079   8.346   5.966   1.285  0.0128  0.1274 -0.0700
 4220SOL    HW114080   8.329   5.885   1.333 -1.1494  0.7309  0.5814
 4220SOL    HW214081   8.418   5.944   1.226 -0.2742 -1.3802  0.0921
 4221SOL     OW14082   7.291   4.782   3.205  0.3688  0.2017 -0.0196
 4221SOL    HW114083   7.260   4.803   3.117  0.4770 -2.5074 -0.7756
 4221SOL    HW214084   7.211   4.765   3.255  0.3821 -0.0196 -0.0751
 4222SOL     OW14085   2.864   4.912   8.157  0.8838  0.1613  0.1425
 4222SOL    HW114086   2.899   4.851   8.222 -0.1717 -1.4419 -0.7052
 4222SOL    HW214087   2.773   4.925   8.183  1.0581  1.3155  0.2304
 4223SOL     OW14088   6.483   8.083   7.667 -0.0251 -0.1401  0.0949
 4223SOL    HW114089   6.390   8.104   7.652  0.3590  1.7355  0.1031
 4223SOL    HW214090   6.487   8.058   7.760 -0.5725 -0.6499 -0.0084
 4224SOL     OW14091   5.683   2.184   4.012  0.6322  0.6782 -0.5094
 4224SOL    HW114092   5.650   2.262   4.056 -0.9981 -0.4131  0.2842
 4224SOL    HW214093   5.716   2.128   4.083 -1.7115 -0.9537 -0.5780
 4225SOL     OW14094   3.971   2.653   1.642 -0.1623 -0.0294 -0.1896
 4225SOL    HW114095   3.979   2.744   1.613  0.0438  0.2935  0.8241
 4225SOL    HW214096   3.944   2.605   1.564  0.1700  0.8275 -0.8463
 4226SOL     OW14097   1.037   7.812   5.490 -0.2147  0.0464 -0.0208
 4226SOL    HW114098   0.991   7.728   5.491 -0.0001 -0.0683  0.6136
 4226SOL    HW214099   1.108   7.802   5.553  0.0455  0.5770 -0.2210
 4227SOL     OW14100   3.112   0.748   6.002 -0.0693 -0.0742 -0.3487
 4227SOL    HW114101   3.027   0.782   5.973  0.6261  1.1712 -1.0079
 4227SOL    HW214102   3.133   0.800   6.080  0.0683 -0.4296 -0.1450
 4228SOL     OW14103   0.464   3.901   6.841  0.2762  0.2352 -0.2071
 4228SOL    HW114104   0.382   3.853   6.824  1.7829 -2.2155 -1.0756
 4228SOL    HW214105   0.504   3.909   6.754  1.2111  0.9482  0.2834
 4229SOL     OW14106   4.135   0.418   4.689 -0.0027 -0.1457  0.7271
 4229SOL    HW114107   4.190   0.403   4.612 -0.1061  2.4862  0.0220
 4229SOL    HW214108   4.198   0.432   4.760  0.1499 -0.6794  0.6959
 4230SOL     OW14109   4.654   8.325   0.514  0.1878  0.0237  0.0636
 4230SOL    HW114110   4.732   8.373   0.488 -1.2886  1.9126 -1.1934
 4230SOL    HW214111   4.589   8.393   0.532 -1.7022 -1.4686 -0.7621
 4231SOL     OW14112   2.604   5.192   3.948  0.0200 -0.2012 -0.1171
 4231SOL    HW114113   2.578   5.257   4.013  0.9798 -0.2622  0.3605
 4231SOL    HW214114   2.671   5.236   3.895  0.7248 -0.7928  0.2509
 4232SOL     OW14115   0.989   0.849   4.338  0.4364 -0.0134  0.4834
 4232SOL    HW114116   1.002   0.905   4.262  0.0977 -1.0298 -0.3540
 4232SOL    HW214117   1.015   0.762   4.308 -1.3613 -0.7555  0.9827
 4233SOL     OW14118   0.680   2.395   1.747 -0.1861  0.4395 -0.0940
 4233SOL    HW114119   0.757   2.452   1.752  0.1515  0.0139 -0.2671
 4233SOL    HW214120   0.716   2.309   1.722 -0.7097  0.2164 -0.0989
 4234SOL     OW14121   8.003   7.403   1.624  0.4017 -0.0694 -0.3634
 4234SOL    HW114122   7.981   7.428   1.713 -0.2046 -2.1224  0.0988
 4234SOL    HW214123   7.930   7.436   1.571 -0.1351 -0.4272  0.1463
 4235SOL     OW14124   1.384   7.621   4.487 -0.0853 -0.8141  0.0986
 4235SOL    HW114125   1.474   7.592   4.502 -0.3944 -1.1374  1.5236
 4235SOL    HW214126   1.343   7.548   4.440  0.2181 -0.9408  0.0290
 4236SOL     OW14127   6.460   2.094   2.804 -0.3688 -0.2495 -0.4579
 4236SOL    HW114128   6.450   2.081   2.710  1.3291 -0.9803 -0.5705
 4236SOL    HW214129   6.501   2.013   2.835  1.6470  1.0297  0.4344
 4237SOL     OW14130   6.613   4.750   6.865 -0.7855 -0.8726  0.2679
 4237SOL    HW114131   6.634   4.834   6.824 -0.7420 -1.0874 -0.1574
 4237SOL    HW214132   6.694   4.723   6.907 -0.9436 -0.4549  0.8496
 4238SOL     OW14133   3.981   3.657   3.407  0.0133 -0.1293 -0.1075
 4238SOL    HW114134   3.943   3.576   3.443  0.5961 -0.3514  0.0214
 4238SOL    HW214135   3.950   3.660   3.316 -0.2515 -0.3400 -0.0266
 4239SOL     OW14136   3.395   5.511   6.868  0.1021 -0.0639  0.3679
 4239SOL    HW114137   3.455   5.524   6.795  0.4227 -3.1983 -0.0622
 4239SOL    HW214138   3.328   5.578   6.856  0.0451 -0.5518 -2.9376
 4240SOL     OW14139   8.295   7.486   0.727  0.0539 -1.0924 -0.0857
 4240SOL    HW114140   8.254   7.400   0.738 -3.8304 -0.6292 -6.3529
 4240SOL    HW214141   8.232   7.548   0.763  0.9382 -0.6082  0.7021
 4241SOL     OW14142   2.370   1.136   2.803 -0.1452 -0.3475 -0.6825
 4241SOL    HW114143   2.449   1.151   2.751 -0.8964  0.5978 -1.6005
 4241SOL    HW214144   2.324   1.220   2.802 -0.6230 -0.5614  0.7902
 4242SOL     OW14145   2.777   1.432   0.903  0.0840 -0.0024  0.0699
 4242SOL    HW114146   2.808   1.465   0.819  2.8965  0.4963  1.1856
 4242SOL    HW214147   2.740   1.346   0.883  0.9790 -0.0300 -1.6359
 4243SOL     OW14148   6.210   1.604   0.055 -0.4846  0.1634  0.1901
 4243SOL    HW114149   6.285   1.662   0.062  0.1310 -0.7390  1.8872
 4243SOL    HW214150   6.246   1.516   0.069 -1.2570 -0.7907 -3.0346
 4244SOL     OW14151   1.877   5.736   1.846 -0.3071  0.1071  0.0943
 4244SOL    HW114152   1.948   5.799   1.857 -0.8151  0.6979 -0.0271
 4244SOL    HW214153   1.893   5.671   1.915 -0.7634  1.2805  1.3564
 4245SOL     OW14154   5.012   3.612   4.104 -0.4838  0.0441 -0.1324
 4245SOL    HW114155   4.935   3.621   4.160  0.1785  2.0966  0.5522
 4245SOL    HW214156   4.978   3.575   4.022 -2.2022  0.8362  0.1791
 4246SOL     OW14157   3.138   1.635   5.044 -0.0657  0.4982  0.1153
 4246SOL    HW114158   3.136   1.695   4.970 -2.5593  0.7431  0.2740
 4246SOL    HW214159   3.158   1.691   5.119  0.3522  0.6356 -0.0984
 4247SOL     OW14160   6.770   2.036   3.902  0.6993 -0.0806 -0.1351
 4247SOL    HW114161   6.747   1.943   3.897  2.4781 -0.6882  1.8378
 4247SOL    HW214162   6.700   2.075   3.955  0.7074 -0.5648  0.2328
 4248SOL     OW14163   7.619   5.006   5.237  0.1422  0.0942 -0.3705
 4248SOL    HW114164   7.603   4.949   5.312 -1.0972  0.7178 -0.1407
 4248SOL    HW214165   7.706   5.043   5.253 -0.0595  0.1262  0.6915
 4249SOL     OW14166   4.201   1.328   4.052 -0.4137 -0.0568  0.1437
 4249SOL    HW114167   4.260   1.265   4.092  0.4825  0.0293 -1.0047
 4249SOL    HW214168   4.191   1.397   4.118  0.5535 -0.2101  0.4628
 4250SOL     OW14169   3.065   1.340   5.002  0.5571  0.0518 -0.1699
 4250SOL    HW114170   3.094   1.409   5.062 -0.4539 -2.7567  3.9657
 4250SOL    HW214171   2.978   1.368   4.973  0.0934  0.5403  1.5603
 4251SOL     OW14172   5.168   3.600   4.571  0.5400 -0.3470  0.3099
 4251SOL    HW114173   5.261   3.608   4.550  0.6315  0.0469  0.8536
 4251SOL    HW214174   5.138   3.690   4.583  0.4801 -0.5448  1.7844
 4252SOL     OW14175   5.370   2.393   8.151  0.2211  1.1566 -0.6371
 4252SOL    HW114176   5.319   2.467   8.118 -0.9349  0.2384 -1.0054
 4252SOL    HW214177   5.329   2.316   8.111  2.2189  0.3847 -1.3621
 4253SOL     OW14178   0.837   1.785   2.851  0.2117  0.0409 -0.2031
 4253SOL    HW114179   0.931   1.765   2.856  0.4278  1.0135 -0.1750
 4253SOL    HW214180   0.822   1.810   2.760 -0.3291 -1.4658 -0.5648
 4254SOL     OW14181   4.034   1.519   1.792 -0.2921  0.0951  0.1552
 4254SOL    HW114182   4.100   1.480   1.736 -1.4133 -1.2914 -0.2418
 4254SOL    HW214183   4.081   1.541   1.873  0.4707 -1.7739  0.2612
 4255SOL     OW14184   6.364   6.051   6.266  0.1322 -0.0120 -0.0181
 4255SOL    HW114185   6.336   5.979   6.210 -1.5625  1.2769 -0.9354
 4255SOL    HW214186   6.460   6.048   6.263  0.1287 -0.0134 -3.0399
 4256SOL     OW14187   3.924   1.292   1.908 -0.1618 -0.3774 -0.4309
 4256SOL    HW114188   3.954   1.227   1.844 -1.0416 -0.5618 -0.6673
 4256SOL    HW214189   3.956   1.375   1.875  3.1904 -0.8721  1.1560
 4257SOL     OW14190   1.060   5.132   2.559 -0.3794  0.2973  0.1175
 4257SOL    HW114191   1.101   5.218   2.555 -0.9030  0.5191 -0.6891
 4257SOL    HW214192   0.967   5.150   2.573 -0.6049 -0.1069 -0.8142
 4258SOL     OW14193   1.600   1.242   0.771 -0.0831  0.1815 -0.7326
 4258SOL    HW114194   1.589   1.151   0.800  1.1806  0.7635  1.9286
 4258SOL    HW214195   1.529   1.289   0.815  1.3451  0.9568  0.8926
 4259SOL     OW14196   0.374   1.101   5.340 -0.8178 -0.6523  0.6919
 4259SOL    HW114197   0.352   1.166   5.273 -1.7103 -1.4743  0.1560
 4259SOL    HW214198   0.370   1.149   5.422 -0.1212  0.2776  0.2104
 4260SOL     OW14199   5.892   3.956   2.272  0.2071 -0.0460 -0.0832
 4260SOL    HW114200   5.973   3.918   2.240  0.8482  2.1328 -1.1994
 4260SOL    HW214201   5.912   3.982   2.362 -0.1383 -1.9312  0.5762
 4261SOL     OW14202   6.977   1.909   1.598  0.1536  0.3580 -0.1912
 4261SOL    HW114203   7.019   1.904   1.512  0.5207 -1.4339  0.0534
 4261SOL    HW214204   6.906   1.845   1.594 -1.9758  2.5866 -0.2266
 4262SOL     OW14205   2.117   3.219   6.158 -0.4708  0.2783  0.3577
 4262SOL    HW114206   2.140   3.235   6.249  0.7244 -0.7215  0.2589
 4262SOL    HW214207   2.138   3.301   6.113  1.0317  0.0612  0.6217
 4263SOL     OW14208   2.980   8.276   5.276 -0.4652  0.2996 -0.5469
 4263SOL    HW114209   3.065   8.262   5.317 -1.4610 -0.7877  1.2874
 4263SOL    HW214210   2.996   8.266   5.183  1.4181  0.1834 -0.2383
 4264SOL     OW14211   5.157   3.547   0.957 -0.3680 -0.4035 -0.4103
 4264SOL    HW114212   5.084   3.492   0.983 -1.4290  1.4125  0.6238
 4264SOL    HW214213   5.124   3.636   0.963  1.4013  0.4110 -1.6629
 4265SOL     OW14214   6.249   6.146   8.154  0.0736 -0.8358 -0.4614
 4265SOL    HW114215   6.288   6.232   8.167 -2.1906  0.3453 -0.8958
 4265SOL    HW214216   6.277   6.095   8.230  2.9754 -0.3811 -1.1325
 4266SOL     OW14217   6.705   3.435   4.286  1.0214  0.2142  0.2651
 4266SOL    HW114218   6.741   3.496   4.349  3.3063  0.8847 -1.5655
 4266SOL    HW214219   6.766   3.436   4.212 -0.9346 -1.3177 -1.5359
 4267SOL     OW14220   6.003   3.185   0.744 -0.6505 -0.6032 -0.2346
 4267SOL    HW114221   5.973   3.246   0.811 -2.7141 -1.7520 -0.0221
 4267SOL    HW214222   6.045   3.240   0.678 -2.2493  1.0462  0.0316
 4268SOL     OW14223   1.065   0.632   7.188  0.7148 -0.2176 -0.3611
 4268SOL    HW114224   0.990   0.681   7.154  1.5909  1.6256  0.2063
 4268SOL    HW214225   1.028   0.550   7.221 -0.9195  0.3123 -0.8107
 4269SOL     OW14226   6.109   4.148   7.404  0.2624 -0.0870 -0.3552
 4269SOL    HW114227   6.140   4.090   7.474  0.6442 -0.1075 -0.5378
 4269SOL    HW214228   6.189   4.190   7.371  0.5714 -2.3338 -2.8534
 4270SOL     OW14229   8.068   6.440   4.080  0.6327 -0.1007 -0.3306
 4270SOL    HW114230   8.029   6.527   4.088  2.3308  0.7714 -0.9948
 4270SOL    HW214231   8.032   6.391   4.153  0.6462  1.5840  0.8766
 4271SOL     OW14232   0.431   3.942   5.543 -0.5782 -0.3330 -0.1069
 4271SOL    HW114233   0.341   3.920   5.518 -0.0178 -0.8551 -1.7912
 4271SOL    HW214234   0.479   3.943   5.461  0.8546  0.5233  0.7002
 4272SOL     OW14235   2.769   0.062   3.171 -0.7052  0.7025 -0.0913
 4272SOL    HW114236   2.682   0.086   3.140 -0.8413  0.9975  0.5085
 4272SOL    HW214237   2.807   0.144   3.203 -1.0063  0.2269  1.5677
 4273SOL     OW14238   6.739   2.712   5.657 -0.3279 -0.8099  0.0513
 4273SOL    HW114239   6.818   2.762   5.677  0.5771 -2.2823  0.3192
 4273SOL    HW214240   6.721   2.732   5.565  0.1329 -0.1584  0.0960
 4274SOL     OW14241   5.053   5.528   5.736 -0.6235  0.3142  0.3398
 4274SOL    HW114242   5.012   5.566   5.814 -1.3695 -1.3372  0.8082
 4274SOL    HW214243   4.980   5.487   5.689  0.0717 -0.1496 -0.3490
 4275SOL     OW14244   3.633   7.992   4.263  0.4411  0.3425  0.6053
 4275SOL    HW114245   3.691   7.989   4.187  0.9442 -0.8473  1.0166
 4275SOL    HW214246   3.676   8.054   4.323  1.0921 -0.2281  0.7408
 4276SOL     OW14247   6.515   7.946   5.086 -0.1618  0.1542 -0.5038
 4276SOL    HW114248   6.535   8.036   5.060  0.2063  0.2526  0.0781
 4276SOL    HW214249   6.570   7.931   5.164  2.0102 -1.5466 -2.2270
 4277SOL     OW14250   5.069   0.893   7.895  0.0945 -0.2792 -0.0986
 4277SOL    HW114251   5.067   0.892   7.991 -1.7359 -1.0012 -0.1066
 4277SOL    HW214252   5.076   0.800   7.870 -0.1038 -0.1439 -0.6681
 4278SOL     OW14253   0.593   1.776   7.587 -0.5148  0.4407  0.3659
 4278SOL    HW114254   0.626   1.702   7.638 -1.0502 -0.0557  0.0060
 4278SOL    HW214255   0.629   1.763   7.499 -2.9726 -1.0845 -0.5260
 4279SOL     OW14256   7.467   5.488   6.327 -0.5321 -0.4082 -0.0706
 4279SOL    HW114257   7.518   5.531   6.259  0.7198 -0.6758  0.6705
 4279SOL    HW214258   7.388   5.458   6.283  0.7023 -1.4875 -1.6275
 4280SOL     OW14259   4.854   0.394   1.323 -0.4022  0.5176  0.2832
 4280SOL    HW114260   4.910   0.343   1.265 -0.5014  2.0117 -1.2040
 4280SOL    HW214261   4.841   0.477   1.277 -1.8210  1.1489  1.7215
 4281SOL     OW14262   7.928   4.226   6.130 -0.5833  0.1546 -0.0224
 4281SOL    HW114263   7.979   4.148   6.150  0.4403  1.1953  1.6502
 4281SOL    HW214264   7.890   4.209   6.044  2.2212 -0.8563 -1.1492
 4282SOL     OW14265   7.977   3.099   4.787 -0.3956  0.3673  0.3064
 4282SOL    HW114266   7.932   3.050   4.855 -0.5340  0.2549  0.1360
 4282SOL    HW214267   8.019   3.032   4.732  0.3403  0.4844  0.7065
 4283SOL     OW14268   0.650   0.453   2.236  0.2463  0.1377  0.4209
 4283SOL    HW114269   0.642   0.462   2.141 -1.2771  0.1000  0.5180
 4283SOL    HW214270   0.578   0.506   2.271  0.4961 -0.2340  1.5349
 4284SOL     OW14271   6.696   3.665   1.684 -0.9034  0.0136  0.0568
 4284SOL    HW114272   6.750   3.608   1.629 -1.3092 -0.1906 -0.1361
 4284SOL    HW214273   6.758   3.704   1.746 -0.4717  0.0887 -0.4123
 4285SOL     OW14274   5.352   3.986   2.137  0.0693 -0.2090 -0.1535
 4285SOL    HW114275   5.431   4.022   2.178  1.0896 -0.8083 -1.5039
 4285SOL    HW214276   5.346   3.896   2.169 -0.4494  0.0285  0.4423
 4286SOL     OW14277   3.243   2.801   3.491  0.2173  0.4237  0.4240
 4286SOL    HW114278   3.321   2.853   3.510  0.2807 -0.1225  1.7840
 4286SOL    HW214279   3.244   2.790   3.396  3.2998 -1.8387  0.5585
 4287SOL     OW14280   7.447   2.018   5.605 -0.3166  0.1895 -0.0039
 4287SOL    HW114281   7.468   2.027   5.698  0.1264 -2.2850  0.1963
 4287SOL    HW214282   7.358   2.053   5.598  0.1776  1.7930  1.0263
 4288SOL     OW14283   5.136   7.891   1.526 -0.3206 -0.7202 -0.0105
 4288SOL    HW114284   5.084   7.850   1.457  0.8787 -1.7468 -0.3495
 4288SOL    HW214285   5.101   7.980   1.533 -0.1964 -0.4217 -2.2622
 4289SOL     OW14286   4.139   6.959   6.221  0.6657 -0.1327 -0.8596
 4289SOL    HW114287   4.117   7.051   6.239 -0.6330 -1.0246  2.9578
 4289SOL    HW214288   4.100   6.943   6.135  0.4429  2.6985 -1.4134
 4290SOL     OW14289   1.644   5.892   0.086 -0.2900 -0.1785  0.0192
 4290SOL    HW114290   1.630   5.843   0.167 -0.5511 -0.1084  0.0191
 4290SOL    HW214291   1.601   5.840   0.018  2.0050 -1.5085 -0.5152
 4291SOL     OW14292   7.811   6.168   6.306  0.2008 -0.4392 -0.1633
 4291SOL    HW114293   7.815   6.218   6.224  1.1992 -0.5239 -0.1667
 4291SOL    HW214294   7.721   6.182   6.337  0.6303  1.9055  0.1859
 4292SOL     OW14295   2.943   3.488   6.003 -0.0190  0.1298  0.1338
 4292SOL    HW114296   2.876   3.421   6.021  0.3796 -0.5472 -0.8514
 4292SOL    HW214297   3.006   3.478   6.075 -0.6322  0.3331  0.7108
 4293SOL     OW14298   3.446   0.327   3.425  0.0177 -0.0513  0.3315
 4293SOL    HW114299   3.396   0.389   3.478 -2.0063 -0.3261 -1.1430
 4293SOL    HW214300   3.447   0.246   3.476  0.0829  0.3431  0.9542
 4294SOL     OW14301   3.957   4.499   6.696  0.6476 -0.0734 -0.2004
 4294SOL    HW114302   3.997   4.477   6.612  0.4447  1.4279 -0.7119
 4294SOL    HW214303   3.930   4.590   6.687 -0.8856 -0.3720  0.9106
 4295SOL     OW14304   0.100   5.627   2.165 -0.2308 -0.2711  0.1412
 4295SOL    HW114305   0.115   5.718   2.142  0.2557  0.1181  1.8605
 4295SOL    HW214306   0.064   5.587   2.085  0.8471  1.0783 -1.0541
 4296SOL     OW14307   3.867   4.167   6.349 -0.0768  1.0513 -0.6556
 4296SOL    HW114308   3.940   4.196   6.293  0.4121  2.4494  0.6357
 4296SOL    HW214309   3.796   4.150   6.288  0.7905  1.4037 -1.8052
 4297SOL     OW14310   5.137   6.621   2.510  0.1994 -0.1492  0.2733
 4297SOL    HW114311   5.147   6.716   2.512  1.3573 -0.1534 -1.9129
 4297SOL    HW214312   5.146   6.598   2.417  2.4259 -2.6301  0.9766
 4298SOL     OW14313   5.486   1.714   4.754 -0.7348 -0.2417  0.0006
 4298SOL    HW114314   5.412   1.755   4.798 -0.6287 -1.2085  1.1250
 4298SOL    HW214315   5.494   1.628   4.794  0.6515 -0.3783 -0.4954
 4299SOL     OW14316   3.624   2.109   6.421  0.0352  0.0769  0.5317
 4299SOL    HW114317   3.535   2.124   6.389  0.2655 -0.6589 -0.5097
 4299SOL    HW214318   3.613   2.052   6.497 -0.3595 -0.4850  0.0624
 4300SOL     OW14319   5.026   2.982   6.763  0.1850 -0.0120  0.1214
 4300SOL    HW114320   5.036   2.999   6.857  0.2199 -2.8520  0.7134
 4300SOL    HW214321   4.959   2.913   6.758 -0.8664  1.0665 -2.0783
 4301SOL     OW14322   7.096   8.122   2.729 -0.4912 -0.0342 -0.4401
 4301SOL    HW114323   7.041   8.044   2.739  1.1443 -1.2682 -0.5760
 4301SOL    HW214324   7.039   8.195   2.753 -1.2304 -1.4883  2.8947
 4302SOL     OW14325   0.726   3.452   4.631  0.2419  0.5150  0.2319
 4302SOL    HW114326   0.673   3.428   4.555 -0.4528  0.8692  0.5925
 4302SOL    HW214327   0.814   3.421   4.610 -0.0401  0.2009 -0.5167
 4303SOL     OW14328   0.361   7.029   2.395 -0.3793  0.0280 -0.1800
 4303SOL    HW114329   0.275   7.014   2.356 -0.4358  1.0516 -0.4726
 4303SOL    HW214330   0.400   7.098   2.342  0.9012 -0.8555 -0.4493
 4304SOL     OW14331   2.039   4.446   6.101  0.0806  0.4840  0.5095
 4304SOL    HW114332   2.020   4.530   6.144 -1.6381  0.3961  0.0116
 4304SOL    HW214333   1.960   4.394   6.117  0.4477 -0.4399 -0.6043
 4305SOL     OW14334   0.675   6.358   4.819 -0.4510  0.8573  0.1164
 4305SOL    HW114335   0.724   6.377   4.899  0.7173  2.3397 -0.8860
 4305SOL    HW214336   0.733   6.301   4.768  0.3752  2.6774 -1.1041
 4306SOL     OW14337   4.127   6.735   1.612 -0.1305 -0.2993 -0.5014
 4306SOL    HW114338   4.207   6.704   1.654  0.1167  1.2759  0.2609
 4306SOL    HW214339   4.065   6.662   1.621 -0.6683  0.4342  4.1986
 4307SOL     OW14340   5.809   3.348   4.958 -0.0007  0.5303  0.6593
 4307SOL    HW114341   5.752   3.284   5.000  0.7361  0.3425  1.4119
 4307SOL    HW214342   5.783   3.432   4.996  1.1827  0.2765  2.1658
 4308SOL     OW14343   7.721   7.586   5.030 -0.1864  0.7116  0.0109
 4308SOL    HW114344   7.692   7.565   4.941  0.7264  0.2391 -0.1842
 4308SOL    HW214345   7.668   7.531   5.087  1.3672 -1.3311 -0.4251
 4309SOL     OW14346   4.449   7.277   4.992  0.3151  0.0539  0.0503
 4309SOL    HW114347   4.440   7.251   5.083  1.4892  0.1515  0.2128
 4309SOL    HW214348   4.411   7.205   4.942  2.3650 -1.4681  0.5274
 4310SOL     OW14349   2.934   6.630   5.486  0.1581  0.0102  0.3274
 4310SOL    HW114350   2.921   6.558   5.547 -0.1560  0.8544  1.2995
 4310SOL    HW214351   3.028   6.648   5.491  0.4695 -1.1770 -0.9292
 4311SOL     OW14352   0.309   7.359   2.307 -0.0190 -0.0822 -0.3034
 4311SOL    HW114353   0.387   7.304   2.301  0.3415  0.4935 -1.2626
 4311SOL    HW214354   0.314   7.399   2.394  0.2833 -0.7348 -0.0204
 4312SOL     OW14355   3.241   7.418   5.505  0.0907 -0.2215 -0.6278
 4312SOL    HW114356   3.301   7.356   5.464  0.3616 -0.5404  0.2238
 4312SOL    HW214357   3.296   7.471   5.563  0.1840  2.0606 -2.6372
 4313SOL     OW14358   3.500   0.043   0.537 -0.1783 -0.2624  0.5213
 4313SOL    HW114359   3.414   0.002   0.528 -0.4985  0.3926  0.5951
 4313SOL    HW214360   3.485   0.136   0.522  0.8898 -0.3894 -1.8778
 4314SOL     OW14361   8.248   2.503   1.687 -0.6593 -0.0106 -0.0646
 4314SOL    HW114362   8.227   2.521   1.779 -1.2964  0.9914 -0.3902
 4314SOL    HW214363   8.333   2.544   1.673 -0.7658  0.2193 -0.0376
 4315SOL     OW14364   6.730   7.143   2.999  0.1219 -0.2743  0.4148
 4315SOL    HW114365   6.778   7.214   3.042  0.0128 -1.0216  1.8134
 4315SOL    HW214366   6.639   7.174   2.996  0.1453 -0.1814  0.6548
 4316SOL     OW14367   4.207   2.418   6.599 -0.1689 -0.3622 -0.3297
 4316SOL    HW114368   4.220   2.471   6.678  3.9343  0.7033 -1.4542
 4316SOL    HW214369   4.226   2.478   6.527 -0.6350 -2.0861 -1.9402
 4317SOL     OW14370   6.636   2.878   4.777 -0.2305 -0.0104  0.1817
 4317SOL    HW114371   6.632   2.968   4.743  1.6160  0.6100  1.3970
 4317SOL    HW214372   6.670   2.888   4.866 -0.3515 -1.9004  0.4810
 4318SOL     OW14373   0.105   6.610   6.454  0.1309 -0.2870  0.4757
 4318SOL    HW114374   0.033   6.608   6.516  0.7831 -0.4591  1.2405
 4318SOL    HW214375   0.125   6.519   6.436 -0.9428 -0.2556 -1.0678
 4319SOL     OW14376   7.184   4.192   5.353  0.0561  0.1679  0.0994
 4319SOL    HW114377   7.264   4.148   5.324 -0.4436 -0.7312  0.0507
 4319SOL    HW214378   7.165   4.152   5.438  1.0344  2.1622  1.3230
 4320SOL     OW14379   2.751   2.989   0.280 -0.4179  1.0420 -0.1504
 4320SOL    HW114380   2.683   2.995   0.348 -0.3342  0.0598  0.0374
 4320SOL    HW214381   2.832   3.013   0.325 -0.4055  0.6586  0.0440
 4321SOL     OW14382   4.858   1.181   2.004 -0.3619  0.0856 -0.5496
 4321SOL    HW114383   4.889   1.190   1.914  1.8307  2.1597  0.3068
 4321SOL    HW214384   4.816   1.264   2.024  0.3014  0.1383  0.7216
 4322SOL     OW14385   3.567   1.034   6.988  0.9787  0.0900 -0.0450
 4322SOL    HW114386   3.589   1.124   7.010 -0.7016  0.7169 -0.7147
 4322SOL    HW214387   3.644   1.000   6.943  1.2042  1.6160 -0.8949
 4323SOL     OW14388   8.315   6.020   2.032 -0.4258  0.3951  0.0930
 4323SOL    HW114389   8.311   6.039   1.938 -1.6515 -0.0560  0.0424
 4323SOL    HW214390   8.320   6.106   2.073  0.0131  0.6021 -0.3753
 4324SOL     OW14391   0.710   1.940   1.242  0.0697 -0.2514 -0.0995
 4324SOL    HW114392   0.794   1.985   1.254 -1.6498  2.6781  2.6187
 4324SOL    HW214393   0.722   1.889   1.162  4.7480 -0.9722  0.7397
 4325SOL     OW14394   7.939   0.488   8.221  0.1997  0.1352 -0.1353
 4325SOL    HW114395   7.896   0.452   8.299  2.3067  1.9265  1.9942
 4325SOL    HW214396   7.877   0.552   8.187 -0.9004 -0.9216 -0.2205
 4326SOL     OW14397   0.552   5.313   7.099  0.0029 -0.1145 -0.4175
 4326SOL    HW114398   0.630   5.359   7.132 -0.1399 -0.8696  1.0569
 4326SOL    HW214399   0.550   5.231   7.149 -1.4752 -0.3127 -0.7724
 4327SOL     OW14400   1.802   6.558   5.415  0.3193 -0.8679  0.8800
 4327SOL    HW114401   1.771   6.467   5.406  0.2153 -0.7369 -0.3010
 4327SOL    HW214402   1.722   6.608   5.431  0.0620 -0.7087 -0.7678
 4328SOL     OW14403   6.130   2.786   7.800 -0.7853  0.3753  0.2573
 4328SOL    HW114404   6.074   2.813   7.726  0.4363  0.2621 -0.7459
 4328SOL    HW214405   6.153   2.695   7.780 -0.3372  0.3891  0.7060
 4329SOL     OW14406   1.116   2.903   5.183  0.1654 -0.1494 -0.3187
 4329SOL    HW114407   1.054   2.874   5.116 -0.1724  1.0811 -0.5553
 4329SOL    HW214408   1.063   2.910   5.263  0.2036  0.0202 -0.3085
 4330SOL     OW14409   0.646   0.000   7.574 -0.4886 -0.7467  0.1707
 4330SOL    HW114410   0.604   0.064   7.517 -0.7766  0.1193  1.3067
 4330SOL    HW214411   0.635   0.037   7.662  1.6663 -1.0560  0.6133
 4331SOL     OW14412   3.157   3.530   1.705 -0.1354 -0.1872  0.4486
 4331SOL    HW114413   3.235   3.486   1.739 -0.5642 -1.0737  0.3219
 4331SOL    HW214414   3.115   3.568   1.782  0.0197 -0.3537  0.6149
 4332SOL     OW14415   5.326   5.633   2.185  0.0235 -0.0528 -0.1644
 4332SOL    HW114416   5.320   5.562   2.249  0.2318 -1.0072 -1.1657
 4332SOL    HW214417   5.330   5.713   2.238 -1.1141 -0.7088  0.9719
 4333SOL     OW14418   4.596   7.492   0.991 -0.3348  0.0486 -0.0581
 4333SOL    HW114419   4.584   7.553   1.064 -1.4034  1.4977 -1.3789
 4333SOL    HW214420   4.519   7.504   0.937 -0.6642 -2.6470 -0.3088
 4334SOL     OW14421   1.310   1.033   7.234  0.7068  0.0812  0.3750
 4334SOL    HW114422   1.251   1.107   7.241  1.2956  0.5151  0.8582
 4334SOL    HW214423   1.265   0.961   7.278  2.0642  1.3479  4.2604
 4335SOL     OW14424   7.060   8.362   1.151  0.4276  0.3455  0.6192
 4335SOL    HW114425   7.003   8.334   1.223 -1.9543 -0.4404 -1.4423
 4335SOL    HW214426   7.117   8.287   1.136  0.0171 -0.0110  0.8111
 4336SOL     OW14427   1.984   1.405   7.307 -0.1732 -0.5535 -0.3446
 4336SOL    HW114428   1.898   1.374   7.279 -0.3252  0.7964 -1.5477
 4336SOL    HW214429   2.013   1.463   7.236  0.7786  0.7024  0.9822
 4337SOL     OW14430   7.929   1.315   4.973 -0.3500  0.0171  0.4531
 4337SOL    HW114431   7.993   1.323   5.044 -2.3551  0.0246  2.3756
 4337SOL    HW214432   7.880   1.398   4.975  0.7945  0.8912 -2.3483
 4338SOL     OW14433   0.237   7.094   2.689 -0.1330 -0.3288  0.1285
 4338SOL    HW114434   0.283   7.065   2.610 -1.1996  1.3306 -1.1710
 4338SOL    HW214435   0.228   7.015   2.742  1.9353 -1.1945 -0.7029
 4339SOL     OW14436   0.762   0.632   5.700  0.4187  0.7020 -0.0870
 4339SOL    HW114437   0.699   0.699   5.727 -2.1872 -1.2934 -0.8243
 4339SOL    HW214438   0.783   0.585   5.780 -1.4333 -0.4641 -0.2191
 4340SOL     OW14439   3.271   0.644   2.972 -0.5590 -0.0402 -0.6044
 4340SOL    HW114440   3.257   0.680   2.884  0.8879 -1.5391 -1.5043
 4340SOL    HW214441   3.303   0.719   3.023 -0.7367  0.6888 -1.5291
 4341SOL     OW14442   2.921   7.868   2.403 -0.4459  0.4252 -0.3141
 4341SOL    HW114443   2.837   7.829   2.379 -0.5951  0.3880  0.2675
 4341SOL    HW214444   2.985   7.797   2.393 -0.7771 -0.1022  1.1570
 4342SOL     OW14445   1.954   2.251   1.530 -0.0989  0.2146  0.4251
 4342SOL    HW114446   1.965   2.273   1.437  0.9280  0.0675  0.4948
 4342SOL    HW214447   1.889   2.181   1.530  3.2955 -3.3413 -0.7343
 4343SOL     OW14448   1.915   6.381   3.398 -0.3063  0.1623  0.1119
 4343SOL    HW114449   1.831   6.426   3.410 -1.1699 -1.1882 -0.7171
 4343SOL    HW214450   1.928   6.379   3.304 -0.6195 -1.8775  0.0800
 4344SOL     OW14451   3.854   6.305   1.490  0.8778  0.3685  0.0290
 4344SOL    HW114452   3.866   6.210   1.483  0.4988  0.3417 -0.3173
 4344SOL    HW214453   3.907   6.341   1.419 -0.2940  0.3023 -0.9252
 4345SOL     OW14454   4.653   2.383   7.756  0.3204 -0.0584 -0.1227
 4345SOL    HW114455   4.602   2.408   7.679  0.6088  2.2406  0.3505
 4345SOL    HW214456   4.613   2.432   7.828  0.7780 -1.2627  0.9949
 4346SOL     OW14457   1.897   5.642   5.119 -0.6480  0.9323  0.2593
 4346SOL    HW114458   1.831   5.582   5.083  0.8931 -0.4699 -0.3709
 4346SOL    HW214459   1.966   5.584   5.152 -0.8613  2.2394  3.3359
 4347SOL     OW14460   7.887   0.036   4.427  0.0515 -0.2890  0.0496
 4347SOL    HW114461   7.926  -0.044   4.463 -1.4910 -0.9794  0.2851
 4347SOL    HW214462   7.830   0.005   4.357 -1.2120  0.4994  0.6788
 4348SOL     OW14463   2.719   1.920   3.072  0.4351  0.0878  0.0115
 4348SOL    HW114464   2.813   1.934   3.084  0.2962  1.1526 -0.0452
 4348SOL    HW214465   2.680   2.007   3.080 -0.5949 -0.3849  0.3911
 4349SOL     OW14466   6.363   7.761   0.676  0.0639 -0.1431 -0.1646
 4349SOL    HW114467   6.385   7.719   0.593 -1.0685 -2.3582  0.5646
 4349SOL    HW214468   6.367   7.690   0.740 -2.7799  0.6352  1.0204
 4350SOL     OW14469   4.951   6.095   7.413  0.0111 -0.4328 -0.0443
 4350SOL    HW114470   4.891   6.144   7.468 -1.8837 -1.4669 -1.0591
 4350SOL    HW214471   4.948   6.140   7.328 -0.2803 -1.1733 -0.4402
 4351SOL     OW14472   5.583   0.254   6.787  0.3224 -0.3011  0.0288
 4351SOL    HW114473   5.583   0.235   6.693  0.2860  1.9105 -0.4670
 4351SOL    HW214474   5.548   0.174   6.827 -1.4119 -0.6561 -1.9905
 4352SOL     OW14475   4.941   6.705   0.711 -0.1943 -0.0751  0.4825
 4352SOL    HW114476   5.016   6.754   0.744 -1.1411  0.6765  1.5680
 4352SOL    HW214477   4.888   6.770   0.665 -0.1136 -0.6310 -0.4201
 4353SOL     OW14478   4.104   2.683   6.181  0.0336  0.0213 -0.0066
 4353SOL    HW114479   4.078   2.629   6.106  0.3287 -1.2680  0.7745
 4353SOL    HW214480   4.035   2.748   6.190 -0.0991  0.0796 -1.2709
 4354SOL     OW14481   2.727   4.062   2.728 -0.8941 -0.2378  0.3154
 4354SOL    HW114482   2.687   4.001   2.666 -0.8492 -0.7478  0.7772
 4354SOL    HW214483   2.802   4.098   2.681 -0.9703 -0.4741  0.0070
 4355SOL     OW14484   3.597   4.500   7.653 -0.1933  0.1685 -0.9881
 4355SOL    HW114485   3.622   4.496   7.745  0.2293  0.1488 -1.1039
 4355SOL    HW214486   3.574   4.592   7.638 -5.7963 -0.6040  0.5863
 4356SOL     OW14487   1.269   3.182   5.926 -0.3343 -0.3403  0.0751
 4356SOL    HW114488   1.268   3.258   5.983 -2.9301 -1.1204  1.2025
 4356SOL    HW214489   1.334   3.123   5.965  0.0313  0.3194  0.4848
 4357SOL     OW14490   4.841   6.631   3.737 -0.3920  0.5938  0.6759
 4357SOL    HW114491   4.918   6.670   3.777 -1.2207 -0.2911  3.3333
 4357SOL    HW214492   4.783   6.705   3.719  0.9366  1.2586 -1.2888
 4358SOL     OW14493   6.226   7.012   5.055 -0.2739 -0.3512  0.3890
 4358SOL    HW114494   6.190   7.043   5.139 -1.1613  1.1679 -0.5098
 4358SOL    HW214495   6.319   6.998   5.073  0.0523  2.1590  1.1147
 4359SOL     OW14496   1.470   0.644   6.488 -0.6576  0.2568 -0.1495
 4359SOL    HW114497   1.522   0.594   6.424  0.0083  0.4357  0.2383
 4359SOL    HW214498   1.379   0.627   6.463 -0.4416 -0.7928 -0.3002
 4360SOL     OW14499   6.068   0.121   3.847  0.6496 -0.0256  0.3005
 4360SOL    HW114500   6.018   0.102   3.767 -1.7368  0.0317  1.6776
 4360SOL    HW214501   6.119   0.041   3.862 -0.2223 -0.7260 -0.3276
 4361SOL     OW14502   0.507   1.449   8.198 -0.4840  0.0896  0.3449
 4361SOL    HW114503   0.454   1.370   8.204 -3.4929  1.8420 -1.0841
 4361SOL    HW214504   0.446   1.521   8.216  1.7937  2.2060  0.1714
 4362SOL     OW14505   1.817   5.358   8.121  0.8683 -0.3905 -0.5858
 4362SOL    HW114506   1.722   5.356   8.108  0.8382 -1.7211 -0.2979
 4362SOL    HW214507   1.851   5.298   8.054  1.4058 -0.7683  0.0113
 4363SOL     OW14508   7.604   7.007   1.767 -0.2888  0.0373  0.0599
 4363SOL    HW114509   7.683   6.995   1.820 -0.8960 -1.3236  0.7042
 4363SOL    HW214510   7.610   6.938   1.701 -0.2480  0.8349 -0.7907
 4364SOL     OW14511   5.986   1.236   4.457  0.1706 -0.0755 -0.4036
 4364SOL    HW114512   6.061   1.239   4.397  0.3537  2.1220 -0.1570
 4364SOL    HW214513   5.991   1.149   4.497  2.1020 -0.3054 -1.0179
 4365SOL     OW14514   7.933   7.612   6.545  0.2770 -0.3786  0.3863
 4365SOL    HW114515   7.971   7.529   6.518  0.5525  0.2577 -1.3624
 4365SOL    HW214516   7.841   7.607   6.517  0.4205  0.0817 -0.1927
 4366SOL     OW14517   4.412   1.582   7.048 -0.2805 -0.2385  0.2315
 4366SOL    HW114518   4.321   1.555   7.041 -0.8314  1.0589  1.5986
 4366SOL    HW214519   4.424   1.599   7.142  0.4016  2.6533 -0.2856
 4367SOL     OW14520   4.078   8.370   5.713  0.4414  0.1793  0.2497
 4367SOL    HW114521   4.112   8.458   5.693 -0.5418  0.6737  0.6936
 4367SOL    HW214522   4.155   8.321   5.742  1.8344 -0.3255 -3.6288
 4368SOL     OW14523   4.154   2.305   2.061  0.2876 -0.2399  0.0466
 4368SOL    HW114524   4.199   2.281   2.142  0.6517  1.8538  0.5297
 4368SOL    HW214525   4.065   2.272   2.073 -0.2635  1.7590  2.2711
 4369SOL     OW14526   1.230   0.811   1.237  0.3212 -0.3464  0.3494
 4369SOL    HW114527   1.202   0.786   1.149 -0.2155  0.8554  0.1667
 4369SOL    HW214528   1.167   0.877   1.265  0.6151 -0.5449  1.5618
 4370SOL     OW14529   4.519   6.974   6.162 -0.1608  0.2422  0.2295
 4370SOL    HW114530   4.506   6.991   6.255  0.3119 -0.0828  0.3597
 4370SOL    HW214531   4.598   6.921   6.159  0.0694  0.6183 -0.3926
 4371SOL     OW14532   2.548   5.723   6.110  0.3995 -0.1655 -0.0186
 4371SOL    HW114533   2.480   5.788   6.127 -0.2614 -0.6240 -0.8048
 4371SOL    HW214534   2.622   5.774   6.079 -0.5670  0.1403 -1.9686
 4372SOL     OW14535   1.039   5.420   6.613 -0.3079  0.4656  0.0565
 4372SOL    HW114536   1.058   5.351   6.550 -0.5469  0.3459  0.1153
 4372SOL    HW214537   1.076   5.499   6.574  0.2453  0.2519  0.1351
 4373SOL     OW14538   0.722   4.682   3.321 -0.0458  0.2712 -0.8658
 4373SOL    HW114539   0.675   4.766   3.319 -0.6754 -0.0224  0.4743
 4373SOL    HW214540   0.796   4.697   3.379 -3.1998 -1.4652  4.2978
 4374SOL     OW14541   4.015   3.017   5.720 -0.2313 -0.4956 -0.4676
 4374SOL    HW114542   4.051   2.936   5.683 -0.6746 -0.6800 -0.5060
 4374SOL    HW214543   4.080   3.084   5.699  0.0406 -0.8036 -0.6200
 4375SOL     OW14544   1.371   5.242   5.908 -0.0561 -0.1213 -0.0913
 4375SOL    HW114545   1.447   5.235   5.850  1.0661  1.4757  1.1099
 4375SOL    HW214546   1.312   5.302   5.863  0.6836  0.8850  0.2419
 4376SOL     OW14547   2.170   2.422   7.878  0.5530 -0.7811 -0.1804
 4376SOL    HW114548   2.147   2.427   7.971  0.8764  0.8740 -0.1599
 4376SOL    HW214549   2.259   2.387   7.877  0.7446 -0.3178  0.1796
 4377SOL     OW14550   4.290   7.390   7.783 -0.0062 -0.1202 -0.2813
 4377SOL    HW114551   4.344   7.412   7.860  0.1034 -0.3459 -0.2932
 4377SOL    HW214552   4.351   7.393   7.710 -0.2359  0.7061 -0.4536
 4378SOL     OW14553   2.320   6.900   1.084 -0.4115  0.4266  0.2831
 4378SOL    HW114554   2.309   6.958   1.160  1.4247  0.1615  0.7824
 4378SOL    HW214555   2.374   6.828   1.116 -1.4691 -0.8608 -0.7142
 4379SOL     OW14556   5.877   2.015   1.345 -0.2222  0.0399 -0.1339
 4379SOL    HW114557   5.950   2.011   1.407  0.7643  2.3669 -1.0383
 4379SOL    HW214558   5.919   2.024   1.259 -1.5269  1.2330 -0.6840
 4380SOL     OW14559   3.846   2.965   6.997  0.0088  0.1108  0.8656
 4380SOL    HW114560   3.898   2.904   6.945 -1.1956 -0.3157  0.1270
 4380SOL    HW214561   3.812   2.913   7.069 -2.5167 -0.6478 -0.7407
 4381SOL     OW14562   7.991   5.076   5.530  0.0965  0.3106  0.2901
 4381SOL    HW114563   8.021   5.130   5.602  0.4545  0.3263  0.1280
 4381SOL    HW214564   7.897   5.094   5.524 -0.1609 -0.5070  1.4527
 4382SOL     OW14565   6.618   1.430   6.173  0.6177 -0.3560 -0.1586
 4382SOL    HW114566   6.533   1.442   6.131  0.7389  1.8860  0.1210
 4382SOL    HW214567   6.601   1.441   6.266  0.9876 -1.5329  0.0702
 4383SOL     OW14568   3.535   4.217   3.028 -0.2539  0.6276  0.1705
 4383SOL    HW114569   3.446   4.190   3.052 -0.3394 -0.8600 -1.5984
 4383SOL    HW214570   3.522   4.290   2.968 -0.2342  0.9966  0.6102
 4384SOL     OW14571   6.958   3.065   6.936  0.8330 -0.4115 -0.1795
 4384SOL    HW114572   6.929   3.157   6.930 -0.2685 -0.7512 -0.3789
 4384SOL    HW214573   7.052   3.069   6.921  1.0724  0.8652  1.3973
 4385SOL     OW14574   5.023   4.152   2.978 -0.2701  0.6356 -0.1957
 4385SOL    HW114575   5.092   4.134   2.913 -0.7516  0.6207 -0.7065
 4385SOL    HW214576   4.962   4.079   2.968  0.9749 -0.8833  2.1348
 4386SOL     OW14577   1.793   3.713   4.796  0.5246  0.2088  0.0858
 4386SOL    HW114578   1.764   3.786   4.851 -0.1631  0.1813 -0.2303
 4386SOL    HW214579   1.819   3.645   4.858  0.9572  0.6357  0.3810
 4387SOL     OW14580   3.435   3.798   0.042 -0.4534 -0.0410  0.7414
 4387SOL    HW114581   3.380   3.745  -0.016 -1.8533  2.0646  0.0317
 4387SOL    HW214582   3.393   3.792   0.128 -0.7283  0.0530  0.6152
 4388SOL     OW14583   0.424   1.890   0.381  0.8583  0.2579  0.2426
 4388SOL    HW114584   0.388   1.802   0.390  0.4700  0.2669 -1.0279
 4388SOL    HW214585   0.480   1.901   0.458 -1.0396 -0.1415  1.7412
 4389SOL     OW14586   5.506   2.517   3.581  0.2819 -0.0539 -0.4870
 4389SOL    HW114587   5.576   2.535   3.518  1.5239 -1.5777  0.3568
 4389SOL    HW214588   5.530   2.432   3.619 -0.3123  0.8569  2.1443
 4390SOL     OW14589   4.873   8.239   4.480  0.1907 -0.2829 -0.2228
 4390SOL    HW114590   4.914   8.288   4.408 -0.2514  0.3861 -0.0272
 4390SOL    HW214591   4.937   8.242   4.551  0.6952 -1.0806 -0.6413
 4391SOL     OW14592   2.644   2.545   4.124  0.2082  0.1203 -0.3057
 4391SOL    HW114593   2.721   2.598   4.103 -0.1285  1.2220  1.0864
 4391SOL    HW214594   2.667   2.499   4.205 -0.1816 -0.4451 -0.5072
 4392SOL     OW14595   2.587   5.014   5.952 -0.5026  0.7066 -0.3751
 4392SOL    HW114596   2.683   5.025   5.952 -0.3167 -0.5952 -1.6404
 4392SOL    HW214597   2.573   4.930   5.995 -1.1179  1.0555  0.1138
 4393SOL     OW14598   3.263   5.931   6.311 -0.5010  0.4706 -0.6706
 4393SOL    HW114599   3.258   6.023   6.287 -0.4574  0.8735  0.7960
 4393SOL    HW214600   3.345   5.922   6.359 -0.3853 -0.3914 -1.0031
 4394SOL     OW14601   4.319   8.091   6.914 -0.3094  0.3385  0.3867
 4394SOL    HW114602   4.319   8.092   6.818  1.2398 -1.5472  0.3074
 4394SOL    HW214603   4.362   8.172   6.939 -1.7477  1.4092 -0.4429
 4395SOL     OW14604   0.649   3.751   3.002 -0.0783  0.4608 -0.4295
 4395SOL    HW114605   0.667   3.658   3.015 -1.7184  0.1445 -0.1855
 4395SOL    HW214606   0.572   3.769   3.056  0.0624  1.9087 -0.6589
 4396SOL     OW14607   6.763   6.550   3.949  0.3538  0.1407  0.8155
 4396SOL    HW114608   6.734   6.480   4.009  3.8259 -0.3318  2.1840
 4396SOL    HW214609   6.713   6.535   3.869 -1.0571 -2.1769  2.0205
 4397SOL     OW14610   1.850   4.158   7.276  0.2590 -0.3197 -0.0594
 4397SOL    HW114611   1.798   4.147   7.356 -0.2400 -1.3972 -0.5015
 4397SOL    HW214612   1.791   4.131   7.205  0.8021  0.2899 -0.7623
 4398SOL     OW14613   2.881   7.329   2.564 -0.5013  0.5837 -0.0224
 4398SOL    HW114614   2.796   7.332   2.609 -0.0227 -1.0212  1.1083
 4398SOL    HW214615   2.882   7.407   2.509 -2.4475  0.9699  0.4019
 4399SOL     OW14616   1.140   3.745   2.931  0.3349  0.1718 -0.5225
 4399SOL    HW114617   1.152   3.840   2.928  0.3566  0.1507 -1.6191
 4399SOL    HW214618   1.183   3.713   2.851 -0.1094 -0.7086 -0.4236
 4400SOL     OW14619   6.793   7.207   1.230 -0.0379  0.5683  0.3669
 4400SOL    HW114620   6.818   7.117   1.250 -2.7984 -0.2407  0.4532
 4400SOL    HW214621   6.784   7.250   1.315 -1.9906 -0.0587  0.5103
 4401SOL     OW14622   0.341   7.048   5.512 -0.4223 -0.3979 -0.3851
 4401SOL    HW114623   0.271   7.084   5.456 -0.9459 -0.2209  0.3718
 4401SOL    HW214624   0.420   7.057   5.459 -0.8436  0.1565 -0.9416
 4402SOL     OW14625   5.710   7.867   1.777 -0.2796 -0.1950  0.1759
 4402SOL    HW114626   5.621   7.880   1.745 -0.5869 -1.9310  0.2701
 4402SOL    HW214627   5.749   7.955   1.774 -1.3964  0.2871 -1.5991
 4403SOL     OW14628   0.958   3.292   3.995 -0.2739  0.5822  0.1936
 4403SOL    HW114629   0.883   3.351   3.988  0.4368  1.4276 -0.4909
 4403SOL    HW214630   0.952   3.256   4.083 -2.2594 -0.4333 -0.3058
 4404SOL     OW14631   3.574   4.412   5.492  0.5180  0.2649  0.1047
 4404SOL    HW114632   3.659   4.368   5.499  1.1503  1.1800 -1.2657
 4404SOL    HW214633   3.586   4.494   5.541  0.4429  0.4220 -0.1413
 4405SOL     OW14634   1.950   7.444   5.863  0.1541 -0.8179 -0.4195
 4405SOL    HW114635   1.872   7.469   5.814  0.4729  0.6747 -0.2185
 4405SOL    HW214636   1.918   7.413   5.948 -0.2646 -1.2602 -0.7353
 4406SOL     OW14637   1.177   8.145   7.575  0.6606  0.0481 -0.3137
 4406SOL    HW114638   1.139   8.162   7.489 -1.4568 -0.7131  0.4143
 4406SOL    HW214639   1.271   8.161   7.563  0.5584 -0.9015 -2.9643
 4407SOL     OW14640   6.017   0.706   7.191  0.0916  0.4414 -0.1631
 4407SOL    HW114641   6.074   0.722   7.266  0.3216  1.5241 -0.5556
 4407SOL    HW214642   6.062   0.747   7.117 -0.8073  0.6039 -0.6317
 4408SOL     OW14643   0.783   0.007   4.635  0.2956  0.0535  0.3346
 4408SOL    HW114644   0.765  -0.065   4.696  1.1512 -0.2933  0.1906
 4408SOL    HW214645   0.827  -0.034   4.561 -1.1731  0.3926 -0.7745
 4409SOL     OW14646   8.353   1.083   1.081 -0.1606  0.2854 -0.5510
 4409SOL    HW114647   8.438   1.089   1.037 -1.1864 -0.8279 -2.8337
 4409SOL    HW214648   8.365   1.014   1.146  0.9079  0.7135 -0.2793
 4410SOL     OW14649   7.151   7.012   8.111  0.1763  0.1159  0.3796
 4410SOL    HW114650   7.198   6.939   8.072  1.3585  0.9589  0.1787
 4410SOL    HW214651   7.162   7.001   8.205 -1.7441 -1.3030  0.4975
 4411SOL     OW14652   5.915   5.844   4.014 -0.1869  0.7171  0.0844
 4411SOL    HW114653   5.992   5.818   3.963 -0.3652  1.3945 -0.5484
 4411SOL    HW214654   5.869   5.906   3.958 -1.2702  0.2343  0.4000
 4412SOL     OW14655   7.481   0.865   1.844  0.4048 -0.0070  0.2606
 4412SOL    HW114656   7.541   0.808   1.891 -0.5641  1.2555  3.2683
 4412SOL    HW214657   7.485   0.949   1.890 -0.2661  1.5649 -2.2808
 4413SOL     OW14658   6.982   3.080   3.983  0.4132 -0.0327  0.4940
 4413SOL    HW114659   7.032   3.107   3.906 -1.6067  2.3995 -0.0893
 4413SOL    HW214660   6.929   3.006   3.953 -0.3040  0.8549 -0.4689
 4414SOL     OW14661   4.757   1.616   2.571  0.5924 -0.1798 -0.4132
 4414SOL    HW114662   4.757   1.603   2.476 -0.3825 -1.4885 -0.2647
 4414SOL    HW214663   4.771   1.528   2.607  0.0065  0.1474  0.6640
 4415SOL     OW14664   2.685   3.268   2.380  0.2088 -0.1160  0.6233
 4415SOL    HW114665   2.631   3.340   2.411 -1.5574 -0.7914 -0.7358
 4415SOL    HW214666   2.683   3.204   2.451  0.3353  0.4205  1.1178
 4416SOL     OW14667   7.220   4.883   3.739  0.1749 -0.1450 -0.2272
 4416SOL    HW114668   7.178   4.969   3.741  1.3868  0.4789 -0.4042
 4416SOL    HW214669   7.303   4.899   3.695 -0.3280 -1.7674 -1.8856
 4417SOL     OW14670   2.406   0.302   6.579 -0.0897 -0.7307 -0.2220
 4417SOL    HW114671   2.464   0.300   6.503  0.3530 -0.7213  0.1104
 4417SOL    HW214672   2.458   0.264   6.650  0.3852  1.4696  0.6964
 4418SOL     OW14673   6.592   2.794   0.396 -0.2194  0.6568  0.1805
 4418SOL    HW114674   6.687   2.787   0.406 -0.0651  0.9522 -0.8936
 4418SOL    HW214675   6.559   2.706   0.412  0.4999 -0.0128 -1.7600
 4419SOL     OW14676   5.824   0.456   4.348 -0.2107  0.4598  0.1652
 4419SOL    HW114677   5.775   0.522   4.300  0.8775  0.7336 -0.5998
 4419SOL    HW214678   5.824   0.379   4.291 -1.6060 -0.2936  1.1177
 4420SOL     OW14679   5.256   4.094   0.608  0.0203  0.3262  0.3996
 4420SOL    HW114680   5.284   4.183   0.627  1.4228  0.4631 -1.8303
 4420SOL    HW214681   5.338   4.044   0.602 -0.4674 -0.3483 -1.5860
 4421SOL     OW14682   7.049   3.900   2.699  0.1588 -0.0379  0.4245
 4421SOL    HW114683   7.074   3.981   2.743  1.6585  0.0981 -0.6070
 4421SOL    HW214684   6.956   3.912   2.678 -0.5108  0.0547  3.0593
 4422SOL     OW14685   3.166   0.494   0.755 -0.6770  0.6532 -0.1370
 4422SOL    HW114686   3.078   0.507   0.792 -0.4888 -0.7941  0.9078
 4422SOL    HW214687   3.225   0.533   0.819 -0.3486 -1.8637  1.2324
 4423SOL     OW14688   4.405   0.143   4.185  0.6089  0.0669 -0.0020
 4423SOL    HW114689   4.390   0.111   4.095  0.4572  0.4286 -0.1062
 4423SOL    HW214690   4.498   0.126   4.201  0.1821 -2.0403  0.5827
 4424SOL     OW14691   0.856   3.577   7.759  0.6436 -0.0887  0.0030
 4424SOL    HW114692   0.889   3.516   7.825  0.6028 -0.1831 -0.0639
 4424SOL    HW214693   0.763   3.587   7.779  0.7904  0.4834  0.4320
 4425SOL     OW14694   5.936   2.762   0.054  0.2181 -0.3779  0.3594
 4425SOL    HW114695   5.957   2.836  -0.003  0.1886 -0.7244 -0.1076
 4425SOL    HW214696   5.852   2.784   0.093 -0.3522 -0.6647 -0.6575
 4426SOL     OW14697   1.584   5.433   0.755 -0.2270  0.0850  0.0309
 4426SOL    HW114698   1.613   5.413   0.844  0.0305 -0.2404 -0.1258
 4426SOL    HW214699   1.488   5.436   0.761 -0.2674 -1.0606  0.0842
 4427SOL     OW14700   1.726   0.602   2.386  0.2138  0.1584  0.4172
 4427SOL    HW114701   1.654   0.587   2.325  1.1586  0.3983 -0.7897
 4427SOL    HW214702   1.757   0.514   2.407  1.4274  0.1134 -1.3748
 4428SOL     OW14703   6.935   5.339   2.905  0.0675 -0.2309 -0.0369
 4428SOL    HW114704   6.861   5.326   2.964  0.2220 -1.5001 -0.0935
 4428SOL    HW214705   6.897   5.340   2.817 -0.0141  0.3410  0.0031
 4429SOL     OW14706   1.023   3.958   5.429  0.7029  0.5972 -0.1056
 4429SOL    HW114707   1.109   3.936   5.393  0.7427 -0.5888  0.6477
 4429SOL    HW214708   0.961   3.908   5.375  0.6098  0.3606  0.2149
 4430SOL     OW14709   5.870   7.979   4.474  0.2894 -0.1588  0.0227
 4430SOL    HW114710   5.899   7.890   4.493 -1.6037 -1.6302 -3.0964
 4430SOL    HW214711   5.834   7.974   4.385 -3.5283  2.8013  1.1218
 4431SOL     OW14712   4.351   7.084   5.985  0.4214  0.2122  0.5206
 4431SOL    HW114713   4.298   7.145   6.036 -0.5221 -1.3776  1.5110
 4431SOL    HW214714   4.408   7.042   6.050  2.6438  1.5170 -0.4454
 4432SOL     OW14715   3.296   2.954   4.597  0.2366 -0.3182 -1.0280
 4432SOL    HW114716   3.221   2.988   4.549 -0.1379 -0.4992 -0.5723
 4432SOL    HW214717   3.372   2.992   4.553 -0.1720  2.5961  0.4942
 4433SOL     OW14718   5.867   6.373   7.559  0.0073 -0.0991 -0.0476
 4433SOL    HW114719   5.950   6.419   7.576  0.0412 -0.5666  1.1469
 4433SOL    HW214720   5.879   6.287   7.599 -0.8461 -0.3926 -0.4057
 4434SOL     OW14721   5.317   2.330   1.227 -0.2454  0.0593 -0.2865
 4434SOL    HW114722   5.280   2.288   1.305 -1.1962  1.9341  0.3286
 4434SOL    HW214723   5.323   2.259   1.163 -1.4327 -1.1010  0.8137
 4435SOL     OW14724   1.595   6.995   8.094  0.5907 -0.5187  0.6143
 4435SOL    HW114725   1.584   6.900   8.086  0.4340 -0.5825  1.5109
 4435SOL    HW214726   1.677   7.006   8.141  1.3368 -0.1580 -0.7014
 4436SOL     OW14727   4.767   3.638   0.006  0.0791 -0.8711  0.3925
 4436SOL    HW114728   4.676   3.667  -0.000 -0.1391 -1.5346  0.4163
 4436SOL    HW214729   4.796   3.671   0.091 -0.1672 -0.7147  0.4186
 4437SOL     OW14730   3.141   2.949   6.576 -0.7947  0.6642 -0.1850
 4437SOL    HW114731   3.177   2.881   6.519 -1.2675 -0.4585  0.8210
 4437SOL    HW214732   3.059   2.911   6.609 -0.0344  0.8311  2.0544
 4438SOL     OW14733   2.957   2.153   5.330  0.1849 -0.2735  0.3691
 4438SOL    HW114734   2.899   2.082   5.302 -1.0288 -0.0158  2.0334
 4438SOL    HW214735   2.941   2.223   5.267  0.8652 -1.2015 -0.8724
 4439SOL     OW14736   3.823   3.074   5.167 -0.0550 -0.4977  0.5363
 4439SOL    HW114737   3.763   3.014   5.212  1.2252 -0.8823  1.7935
 4439SOL    HW214738   3.816   3.050   5.075 -1.7547 -0.5841  0.6549
 4440SOL     OW14739   7.872   0.970   5.580 -0.6317  0.1810 -0.1981
 4440SOL    HW114740   7.924   0.911   5.526  1.4194  0.6550  1.1421
 4440SOL    HW214741   7.865   1.050   5.528  0.5648  0.3290 -0.1572
 4441SOL     OW14742   3.677   1.308   5.198 -0.2340 -0.5989 -0.3433
 4441SOL    HW114743   3.607   1.243   5.193 -0.8252 -0.1577  1.4467
 4441SOL    HW214744   3.644   1.381   5.144 -0.6771 -0.8132 -0.3724
 4442SOL     OW14745   7.695   2.684   3.047 -0.5062  0.2020  0.5348
 4442SOL    HW114746   7.649   2.670   3.130  0.3883  0.2005  1.0495
 4442SOL    HW214747   7.632   2.659   2.980 -0.4336 -2.2351  1.2745
 4443SOL     OW14748   3.624   5.425   1.366  0.3783 -0.1438  0.5554
 4443SOL    HW114749   3.673   5.369   1.307  0.1844  0.6061 -0.3387
 4443SOL    HW214750   3.673   5.422   1.448  2.1393  0.8575 -0.3981
 4444SOL     OW14751   6.593   4.447   0.767  0.1620 -0.1376  0.5694
 4444SOL    HW114752   6.666   4.395   0.800  0.0717  0.6206  2.0273
 4444SOL    HW214753   6.613   4.459   0.674  0.3956 -2.3873  0.2558
 4445SOL     OW14754   5.990   7.803   2.742 -0.5354 -0.1844  0.3775
 4445SOL    HW114755   5.989   7.765   2.830 -0.4552  0.4812  0.6671
 4445SOL    HW214756   5.938   7.883   2.750  0.1869  0.3327  0.0264
 4446SOL     OW14757   5.457   1.065   7.070 -0.7113 -0.2096  0.3161
 4446SOL    HW114758   5.547   1.040   7.091 -0.6856 -0.2801  0.1209
 4446SOL    HW214759   5.464   1.114   6.988 -1.0012 -1.3630 -0.4211
 4447SOL     OW14760   5.874   7.826   3.290 -0.0762  0.3337  0.1475
 4447SOL    HW114761   5.927   7.894   3.332  1.2949  0.2174 -1.2900
 4447SOL    HW214762   5.809   7.875   3.238  0.8966  0.5829 -0.8719
 4448SOL     OW14763   4.181   5.481   3.180 -0.1251 -0.2769 -0.2470
 4448SOL    HW114764   4.241   5.519   3.116  0.2741 -1.1625 -0.4095
 4448SOL    HW214765   4.233   5.413   3.225 -0.8030 -0.5992  0.0642
 4449SOL     OW14766   1.250   8.256   0.032 -0.3866  0.2685 -0.5221
 4449SOL    HW114767   1.249   8.308   0.113 -0.8389  0.9750 -0.9750
 4449SOL    HW214768   1.170   8.204   0.036 -1.1403  1.3491 -1.1739
 4450SOL     OW14769   3.096   1.806   4.473  0.5861  0.3477 -0.4289
 4450SOL    HW114770   3.042   1.884   4.461  0.7078  0.8075  1.6537
 4450SOL    HW214771   3.186   1.840   4.480  0.5072  0.2384  1.8847
 4451SOL     OW14772   7.332   3.861   2.682  0.3925 -0.4017 -0.1667
 4451SOL    HW114773   7.356   3.875   2.590 -0.7555  1.2594 -0.2625
 4451SOL    HW214774   7.241   3.890   2.687  0.3705 -0.6749  1.4565
 4452SOL     OW14775   1.108   1.015   7.652  0.3274 -0.0983 -0.0173
 4452SOL    HW114776   1.161   0.978   7.722  1.2204 -0.0592 -0.6573
 4452SOL    HW214777   1.069   0.938   7.609  1.2270 -0.2551 -0.5938
 4453SOL     OW14778   7.767   6.713   7.498 -0.3232  0.1651  0.5242
 4453SOL    HW114779   7.704   6.643   7.516 -0.7511  0.3272 -0.2968
 4453SOL    HW214780   7.774   6.760   7.581  0.2162 -1.0309  1.1837
 4454SOL     OW14781   1.977   4.435   6.952 -0.3360  0.3609 -0.0264
 4454SOL    HW114782   1.993   4.449   7.045  2.3400  0.5588 -0.4374
 4454SOL    HW214783   2.058   4.396   6.919 -0.2613  2.4714 -2.7063
 4455SOL     OW14784   2.858   5.232   5.730  0.3409  0.6803  0.4086
 4455SOL    HW114785   2.803   5.292   5.782  0.6213  1.7818 -0.5185
 4455SOL    HW214786   2.798   5.194   5.666  0.2178  0.1512  0.8285
 4456SOL     OW14787   6.207   6.772   0.040  0.3255  0.4561 -0.1256
 4456SOL    HW114788   6.257   6.787  -0.040  1.8134 -0.7314  0.5279
 4456SOL    HW214789   6.187   6.860   0.073  1.6699  0.9723 -0.6151
 4457SOL     OW14790   4.814   1.184   4.126  0.0402  0.2965 -0.1342
 4457SOL    HW114791   4.787   1.268   4.163 -0.6180  0.0814 -0.1095
 4457SOL    HW214792   4.785   1.119   4.190 -2.2320 -0.1852 -1.5273
 4458SOL     OW14793   7.695   0.634   2.385  0.8513 -0.1971 -0.0883
 4458SOL    HW114794   7.719   0.648   2.293 -1.2564 -0.2770 -0.7102
 4458SOL    HW214795   7.608   0.675   2.393  0.5924 -1.0014  1.6341
 4459SOL     OW14796   5.384   7.902   6.627  0.0103  0.0479  0.5459
 4459SOL    HW114797   5.314   7.906   6.562  2.0846  3.2799 -1.8180
 4459SOL    HW214798   5.426   7.818   6.613 -0.0127  0.3987 -1.9366
 4460SOL     OW14799   5.397   1.230   1.742  0.4201  1.1656  0.1491
 4460SOL    HW114800   5.388   1.145   1.698 -1.6663 -0.1430  2.7496
 4460SOL    HW214801   5.330   1.285   1.701 -1.8977 -0.2114  1.7813
 4461SOL     OW14802   6.297   2.858   0.241  0.8371  0.2352 -0.0077
 4461SOL    HW114803   6.321   2.935   0.189 -0.1867  0.2236 -0.5138
 4461SOL    HW214804   6.238   2.892   0.308  0.9598 -0.0008  0.2213
 4462SOL     OW14805   6.655   7.099   4.506  0.1618  0.3523 -0.0627
 4462SOL    HW114806   6.652   7.033   4.575 -2.1703  0.6302  0.1955
 4462SOL    HW214807   6.635   7.181   4.550  0.1091  0.7642 -0.8319
 4463SOL     OW14808   7.991   3.213   0.258  0.1087 -0.0257 -0.1737
 4463SOL    HW114809   7.966   3.129   0.296 -0.4275  0.4677  0.5827
 4463SOL    HW214810   8.009   3.270   0.333 -0.5159  0.8260 -0.6457
 4464SOL     OW14811   0.693   3.826   1.708 -0.3136 -0.4815 -0.4866
 4464SOL    HW114812   0.612   3.778   1.725  0.1538 -0.6242  1.6351
 4464SOL    HW214813   0.676   3.914   1.742  0.1203 -0.2399 -0.8774
 4465SOL     OW14814   3.741   0.497   0.267 -0.0552 -0.6439 -0.3691
 4465SOL    HW114815   3.764   0.445   0.344  0.7761 -0.4376 -0.4677
 4465SOL    HW214816   3.652   0.469   0.245  0.2336 -1.7412 -0.1867
 4466SOL     OW14817   5.117   1.779   6.916  0.1028  0.3173  0.0591
 4466SOL    HW114818   5.193   1.742   6.960 -0.8306 -1.2155  0.4658
 4466SOL    HW214819   5.054   1.797   6.986 -0.4312  0.2838 -0.4036
 4467SOL     OW14820   1.085   0.539   5.209 -0.0967 -0.7076  0.3099
 4467SOL    HW114821   1.157   0.601   5.200 -0.9517  0.1333 -1.1500
 4467SOL    HW214822   1.067   0.509   5.120 -2.9196  0.7755  0.2481
 4468SOL     OW14823   1.406   7.566   1.320  0.1682  0.0199  0.4097
 4468SOL    HW114824   1.475   7.562   1.386  0.2347  2.2340  0.5543
 4468SOL    HW214825   1.450   7.601   1.242 -0.5979  0.6204  0.2346
 4469SOL     OW14826   4.366   7.921   1.192 -0.0622  0.1648  0.0079
 4469SOL    HW114827   4.271   7.908   1.187  0.0224 -1.5783  1.8797
 4469SOL    HW214828   4.377   7.981   1.267  0.3298  0.0783  0.0183
 4470SOL     OW14829   7.708   5.168   6.803  0.4697  0.0454  0.7872
 4470SOL    HW114830   7.670   5.116   6.874  0.6887 -1.0915  0.0948
 4470SOL    HW214831   7.639   5.230   6.780 -1.0157 -1.9433 -0.4112
 4471SOL     OW14832   1.898   1.505   4.519  0.2029 -0.0299 -0.0881
 4471SOL    HW114833   1.813   1.542   4.545  0.4314  0.3570  0.1132
 4471SOL    HW214834   1.876   1.442   4.450 -0.3856 -0.9688  0.9313
 4472SOL     OW14835   6.334   6.517   0.088  0.0828 -0.1363 -0.3061
 4472SOL    HW114836   6.262   6.578   0.105 -0.4238 -0.5083 -1.0704
 4472SOL    HW214837   6.413   6.569   0.103 -0.3364  0.7188 -0.9500
 4473SOL     OW14838   5.884   1.444   4.951 -0.8599 -0.2772  0.4828
 4473SOL    HW114839   5.819   1.374   4.946 -1.9089  0.6519  0.6056
 4473SOL    HW214840   5.905   1.463   4.860  1.1176 -2.2191  0.4678
 4474SOL     OW14841   2.698   3.785   7.803  0.9253  0.0396 -0.0729
 4474SOL    HW114842   2.758   3.762   7.874  1.6142  0.9873 -0.3241
 4474SOL    HW214843   2.755   3.798   7.727  0.4609  1.3218 -0.2356
 4475SOL     OW14844   0.405   5.575   4.641  0.4848 -0.1536  0.0673
 4475SOL    HW114845   0.357   5.648   4.603  1.6464  0.9563  0.6479
 4475SOL    HW214846   0.484   5.615   4.678  1.0151 -1.6654  0.6491
 4476SOL     OW14847   1.248   3.233   3.982  0.1565  0.2713  0.0090
 4476SOL    HW114848   1.159   3.262   4.004  0.0828 -1.6816  2.9475
 4476SOL    HW214849   1.305   3.283   4.040  0.5255 -1.2986  1.0773
 4477SOL     OW14850   2.349   0.276   2.274  0.3167  0.1314 -0.4613
 4477SOL    HW114851   2.313   0.299   2.188  2.7829 -1.1841 -1.9510
 4477SOL    HW214852   2.392   0.356   2.304  0.7675  0.1637 -1.1808
 4478SOL     OW14853   6.343   0.690   1.189 -0.1158  0.4457  0.0336
 4478SOL    HW114854   6.328   0.780   1.160 -0.6263 -0.0887 -1.4107
 4478SOL    HW214855   6.302   0.636   1.122  1.2106 -0.8987  0.2666
 4479SOL     OW14856   0.139   0.549   8.348  0.5449  0.0582  0.1852
 4479SOL    HW114857   0.107   0.471   8.304 -0.2816  0.0995  0.6888
 4479SOL    HW214858   0.235   0.543   8.343  0.4771 -0.7663 -0.1415
 4480SOL     OW14859   1.978   4.007   5.663 -0.5075  0.1496 -0.2740
 4480SOL    HW114860   1.963   4.047   5.749 -1.8465  0.2284 -0.5231
 4480SOL    HW214861   2.069   4.028   5.643 -0.4476  0.9441  0.7078
 4481SOL     OW14862   4.392   7.215   6.701  0.1208 -0.0007 -0.2432
 4481SOL    HW114863   4.376   7.272   6.626  0.6546 -1.1239 -1.2355
 4481SOL    HW214864   4.439   7.271   6.764 -0.0610  0.8627 -0.8581
 4482SOL     OW14865   7.934   3.545   7.677  0.2304 -0.2786 -0.8473
 4482SOL    HW114866   7.990   3.566   7.752 -0.2813  0.7480 -0.7280
 4482SOL    HW214867   7.915   3.452   7.686  0.8462 -0.3467 -0.1660
 4483SOL     OW14868   0.637   6.030   4.499 -0.0503  0.4038 -0.1486
 4483SOL    HW114869   0.548   6.061   4.485 -0.3797 -0.0078  0.9170
 4483SOL    HW214870   0.647   5.956   4.440 -1.2606 -1.0458  1.3644
 4484SOL     OW14871   8.227   3.240   3.077  0.6376  0.0150 -0.2680
 4484SOL    HW114872   8.285   3.173   3.041  0.0870 -0.4126 -0.3664
 4484SOL    HW214873   8.242   3.317   3.021  1.0729 -0.1075 -0.3212
 4485SOL     OW14874   6.253   5.782   1.139  0.1064  0.4108 -0.1623
 4485SOL    HW114875   6.166   5.764   1.175  0.2585 -2.6459 -1.0569
 4485SOL    HW214876   6.313   5.736   1.197  1.2967  2.8729  0.7185
 4486SOL     OW14877   7.337   3.776   0.741 -0.3062  0.2922  0.0755
 4486SOL    HW114878   7.283   3.720   0.685 -0.4053  0.4410  0.0218
 4486SOL    HW214879   7.361   3.849   0.684  1.4998 -0.6777 -0.5056
 4487SOL     OW14880   0.214   2.593   6.484 -0.4832  0.2272 -0.0155
 4487SOL    HW114881   0.246   2.628   6.401  0.5221 -0.2886  0.1429
 4487SOL    HW214882   0.135   2.545   6.461 -1.9485  2.5631 -0.2440
 4488SOL     OW14883   6.562   4.097   4.974 -0.3515  0.1894 -0.0499
 4488SOL    HW114884   6.548   4.183   5.015 -0.9571  0.4694 -0.8185
 4488SOL    HW214885   6.653   4.099   4.944 -0.2293  0.3898  0.3292
 4489SOL     OW14886   1.413   1.149   1.378 -0.2197 -0.1831 -0.0289
 4489SOL    HW114887   1.357   1.078   1.409 -1.3048  0.8127  0.3549
 4489SOL    HW214888   1.462   1.177   1.455  0.7621 -0.9882 -0.3433
 4490SOL     OW14889   5.254   5.640   1.616 -0.7683  0.1235 -0.1024
 4490SOL    HW114890   5.215   5.716   1.658 -0.5515  0.7095 -0.9423
 4490SOL    HW214891   5.252   5.572   1.683  1.0586  1.4614  1.4050
 4491SOL     OW14892   2.568   0.485   3.462 -0.0763  0.0309 -0.2135
 4491SOL    HW114893   2.569   0.461   3.554  0.2821 -3.7718 -1.0278
 4491SOL    HW214894   2.611   0.570   3.458 -0.5354  0.5366  3.1121
 4492SOL     OW14895   6.447   0.808   3.143 -0.0732 -0.3843 -0.5946
 4492SOL    HW114896   6.452   0.755   3.064 -1.3975 -1.3154 -0.0923
 4492SOL    HW214897   6.532   0.851   3.149  0.3601 -0.9879 -2.0280
 4493SOL     OW14898   5.955   6.668   8.328 -0.3639 -0.4544 -0.2091
 4493SOL    HW114899   6.034   6.697   8.373 -0.5850 -0.9521  0.5193
 4493SOL    HW214900   5.886   6.673   8.394 -0.5623 -1.8564 -0.2761
 4494SOL     OW14901   6.135   8.053   5.576  0.1942 -0.5971  0.5599
 4494SOL    HW114902   6.209   8.058   5.514  1.9371 -2.2872  2.3741
 4494SOL    HW214903   6.138   7.964   5.610 -1.3248 -0.0224  2.3551
 4495SOL     OW14904   1.091   5.452   8.095  0.3276 -0.3939 -0.9277
 4495SOL    HW114905   1.140   5.533   8.107  1.7951 -1.3442 -0.1600
 4495SOL    HW214906   1.006   5.480   8.062  0.5181  1.5110  0.0550
 4496SOL     OW14907   2.791   3.390   6.787  0.2386  0.0619  0.4565
 4496SOL    HW114908   2.797   3.480   6.755 -0.6558 -0.1758 -0.4391
 4496SOL    HW214909   2.772   3.400   6.880  1.1608  0.7797  0.5873
 4497SOL     OW14910   7.009   0.454   5.381  0.1103  0.1863  0.5058
 4497SOL    HW114911   7.061   0.425   5.456  0.9578  0.4487  0.0270
 4497SOL    HW214912   7.029   0.547   5.372  1.2140 -0.1570 -0.9670
 4498SOL     OW14913   2.359   0.090   7.777  0.0851 -0.6315  0.5058
 4498SOL    HW114914   2.404   0.007   7.761  0.0767 -0.3457 -1.1696
 4498SOL    HW214915   2.420   0.156   7.743  0.5358  0.1585  2.7281
 4499SOL     OW14916   5.739   3.148   0.081 -0.3653  0.2572 -0.2971
 4499SOL    HW114917   5.705   3.219   0.136  1.1188  0.7392  0.0389
 4499SOL    HW214918   5.661   3.099   0.055 -1.0779 -0.4588  2.8322
 4500SOL     OW14919   6.408   7.290   0.704  0.1266 -0.1685  0.2112
 4500SOL    HW114920   6.391   7.207   0.747  0.4762 -0.3689 -0.0420
 4500SOL    HW214921   6.498   7.284   0.672  0.1551  0.3037  0.1934
 4501SOL     OW14922   2.254   5.967   0.458  0.0745 -0.4955  0.3088
 4501SOL    HW114923   2.183   5.911   0.489 -0.5532  0.7745  1.2888
 4501SOL    HW214924   2.313   5.908   0.411 -0.3815 -2.0251  1.5673
 4502SOL     OW14925   7.047   2.029   7.332  0.1112 -0.0676 -0.2263
 4502SOL    HW114926   7.119   2.059   7.277  1.3943  0.0582  1.4336
 4502SOL    HW214927   7.040   2.095   7.401  1.6575 -2.3493  2.3547
 4503SOL     OW14928   2.938   7.612   7.675 -0.0983 -0.0640 -0.4696
 4503SOL    HW114929   2.893   7.582   7.596 -0.3362 -1.2717  0.0969
 4503SOL    HW214930   2.975   7.533   7.714 -1.1902  0.2679  1.3747
 4504SOL     OW14931   1.263   5.726   5.382 -0.6758 -0.1172 -0.0548
 4504SOL    HW114932   1.312   5.656   5.337 -1.7205 -0.5098 -0.6104
 4504SOL    HW214933   1.331   5.779   5.424  0.1167 -2.0449  1.2578
 4505SOL     OW14934   0.195   0.258   0.832  1.1632 -0.1911 -0.2448
 4505SOL    HW114935   0.127   0.269   0.765  0.4998  0.2400  0.4781
 4505SOL    HW214936   0.259   0.326   0.812  1.2099 -0.3730 -0.7245
 4506SOL     OW14937   1.971   3.490   0.753  0.2672 -0.0556  0.1421
 4506SOL    HW114938   1.924   3.465   0.833 -0.5303  0.7893 -0.0495
 4506SOL    HW214939   1.915   3.556   0.712  1.1160  0.1878 -0.6476
 4507SOL     OW14940   6.306   3.897   1.690  0.7280 -0.2403 -0.4199
 4507SOL    HW114941   6.305   3.843   1.611 -0.2636 -0.9582  0.0705
 4507SOL    HW214942   6.345   3.841   1.757  3.5596  1.0470 -0.8134
 4508SOL     OW14943   2.587   8.177   3.840 -0.0666 -0.2227 -0.1382
 4508SOL    HW114944   2.655   8.111   3.831  1.1790  0.7586  1.3890
 4508SOL    HW214945   2.621   8.253   3.793 -0.4638  0.0318 -0.0194
 4509SOL     OW14946   7.140   2.837   4.957  0.3600  0.0534  0.4942
 4509SOL    HW114947   7.207   2.778   4.991 -0.5319 -1.6164 -0.4956
 4509SOL    HW214948   7.057   2.796   4.982 -0.3685 -1.0286 -3.0143
 4510SOL     OW14949   2.105   8.191   2.952 -0.3395  0.5071  0.3095
 4510SOL    HW114950   2.046   8.167   2.881  0.5929 -0.5648 -0.1345
 4510SOL    HW214951   2.184   8.222   2.908  0.4528 -0.6849  0.8402
 4511SOL     OW14952   5.266   8.216   2.017 -0.0789 -0.0370  0.4055
 4511SOL    HW114953   5.226   8.220   1.930  0.2609 -1.0627  0.1994
 4511SOL    HW214954   5.195   8.189   2.075 -0.2647  0.4879  0.4288
 4512SOL     OW14955   5.823   1.228   5.663  0.1021  0.0968  0.0270
 4512SOL    HW114956   5.886   1.170   5.622 -0.2777 -0.3992  0.1416
 4512SOL    HW214957   5.743   1.177   5.670 -1.8892  2.0561 -4.3420
 4513SOL     OW14958   5.599   3.211   3.691 -0.1652  0.7105 -0.5589
 4513SOL    HW114959   5.566   3.165   3.769 -1.0718  0.5158 -1.0395
 4513SOL    HW214960   5.554   3.296   3.693 -0.2269  0.6862 -0.8930
 4514SOL     OW14961   3.902   7.690   5.968 -0.0752 -0.5141  0.2055
 4514SOL    HW114962   3.932   7.650   5.887  1.3629  2.4846 -0.8667
 4514SOL    HW214963   3.976   7.683   6.028  0.2289  0.5646 -0.0253
 4515SOL     OW14964   7.389   3.267   0.104 -0.2527  0.4039  0.2096
 4515SOL    HW114965   7.395   3.283   0.198 -0.1255 -2.2069  0.7398
 4515SOL    HW214966   7.295   3.265   0.086 -0.3182 -0.2303  0.5628
 4516SOL     OW14967   7.540   0.295   7.006  0.1443  0.1663  0.1679
 4516SOL    HW114968   7.464   0.240   7.026 -0.4283  1.1009  0.6067
 4516SOL    HW214969   7.511   0.384   7.023  2.3882  0.3834  3.9900
 4517SOL     OW14970   4.324   4.964   7.505 -0.7124  0.4004  0.6239
 4517SOL    HW114971   4.368   5.040   7.469 -0.0888  0.0275  0.5910
 4517SOL    HW214972   4.233   4.973   7.476 -0.7388  1.3344  0.9564
 4518SOL     OW14973   5.434   0.796   6.812 -0.4773 -0.3027 -0.1031
 4518SOL    HW114974   5.523   0.831   6.806 -0.6322  1.1458  3.3904
 4518SOL    HW214975   5.378   0.872   6.800 -0.9514 -0.0067  2.9868
 4519SOL     OW14976   3.738   1.092   2.570 -0.3172  0.2474  0.5678
 4519SOL    HW114977   3.726   1.086   2.475 -0.6481 -2.1262  0.7179
 4519SOL    HW214978   3.663   1.143   2.600 -1.9231 -1.6097 -0.1452
 4520SOL     OW14979   7.126   4.795   4.314  0.3733 -0.2852  0.5307
 4520SOL    HW114980   7.152   4.743   4.390  0.1398  1.0205  1.5500
 4520SOL    HW214981   7.128   4.886   4.346  0.4326  0.3063 -1.0758
 4521SOL     OW14982   6.951   0.388   6.727 -0.0422  0.2935  0.4136
 4521SOL    HW114983   6.984   0.456   6.786 -0.8939  1.5883 -0.5416
 4521SOL    HW214984   6.864   0.418   6.701  0.0590 -0.5272 -1.0204
 4522SOL     OW14985   0.360   1.368   2.326  0.0159  0.4379  0.3025
 4522SOL    HW114986   0.284   1.312   2.310  0.2167  0.1261  0.4424
 4522SOL    HW214987   0.327   1.457   2.309  0.0274  0.1956 -1.0920
 4523SOL     OW14988   3.786   7.200   8.103  0.6772 -0.1455  0.6883
 4523SOL    HW114989   3.845   7.176   8.032 -0.3697 -1.0784  0.1050
 4523SOL    HW214990   3.728   7.125   8.112 -2.3151  1.8176 -0.7162
 4524SOL     OW14991   7.020   0.156   4.258  0.1794  0.6855  0.6058
 4524SOL    HW114992   6.996   0.064   4.244 -0.5913  1.1425 -1.4930
 4524SOL    HW214993   6.998   0.173   4.349  0.0761 -1.1247  0.9593
 4525SOL     OW14994   5.868   7.020   0.427 -0.2853 -0.4317  0.0263
 4525SOL    HW114995   5.896   6.929   0.420  1.1534 -0.0930  0.9233
 4525SOL    HW214996   5.797   7.029   0.363 -1.5391 -2.5688  1.0307
 4526SOL     OW14997   1.005   2.716   7.214 -0.5711 -0.3494  0.7811
 4526SOL    HW114998   1.093   2.680   7.225 -1.1090 -1.8855  0.2357
 4526SOL    HW214999   0.992   2.770   7.292  0.1722 -1.5761  1.8045
 4527SOL     OW15000   4.861   3.066   0.826  0.2541 -0.3719 -0.0661
 4527SOL    HW115001   4.801   3.134   0.796  1.0830 -0.4427 -1.9530
 4527SOL    HW215002   4.876   3.087   0.918 -3.0308 -0.6379  0.6765
 4528SOL     OW15003   0.077   2.809   6.605  0.0063  0.5865  0.5029
 4528SOL    HW115004   0.109   2.774   6.689  0.5929 -0.8639 -0.2939
 4528SOL    HW215005   0.138   2.774   6.540  0.4529  2.8718 -0.4126
 4529SOL     OW15006   1.277   1.016   0.995 -0.3446 -0.1979 -0.0830
 4529SOL    HW115007   1.242   0.927   0.993 -0.9440  0.0337 -0.4101
 4529SOL    HW215008   1.232   1.058   1.068 -2.7787  0.8655 -2.0423
 4530SOL     OW15009   3.277   0.834   1.654  0.4644  0.5226 -0.2160
 4530SOL    HW115010   3.187   0.805   1.669  0.8658 -0.2123  0.9033
 4530SOL    HW215011   3.294   0.896   1.725  1.2926 -0.4112  0.4156
 4531SOL     OW15012   5.770   0.648   7.579  0.6354  0.0138 -0.0056
 4531SOL    HW115013   5.801   0.631   7.491  0.8174 -0.8274  0.2080
 4531SOL    HW215014   5.810   0.579   7.632 -1.0803 -0.7179  0.3853
 4532SOL     OW15015   7.703   3.433   0.264 -0.0093  0.6931  0.1515
 4532SOL    HW115016   7.766   3.504   0.276  0.6003  0.0421  0.9704
 4532SOL    HW215017   7.714   3.405   0.174  0.6844  0.7771  0.2036
 4533SOL     OW15018   6.303   0.687   4.342 -0.2989  0.2880  0.6269
 4533SOL    HW115019   6.369   0.757   4.344 -0.2317  0.2603  3.2338
 4533SOL    HW215020   6.280   0.674   4.434 -3.2021 -0.4412 -0.1172
 4534SOL     OW15021   1.976   4.667   2.752  0.6184  0.2346 -0.2180
 4534SOL    HW115022   1.954   4.709   2.835  1.0021 -1.6437  0.8840
 4534SOL    HW215023   1.925   4.716   2.687 -0.7069  0.9378  1.2762
 4535SOL     OW15024   6.541   3.009   7.317 -0.5437 -0.4347 -0.0234
 4535SOL    HW115025   6.627   3.009   7.358 -0.9697  0.3857  0.9070
 4535SOL    HW215026   6.509   3.099   7.328 -1.3396 -0.6147 -0.7440
 4536SOL     OW15027   4.124   0.529   3.837  0.2384 -0.7356 -0.2407
 4536SOL    HW115028   4.047   0.492   3.879 -2.0889  2.5974 -1.1584
 4536SOL    HW215029   4.123   0.492   3.748 -0.9835  0.0549 -0.5788
 4537SOL     OW15030   6.995   1.523   1.554  0.0191 -0.1851 -0.1538
 4537SOL    HW115031   6.924   1.551   1.612  0.0895 -0.9175  0.3003
 4537SOL    HW215032   6.977   1.568   1.472 -0.2819  0.5989  0.3223
 4538SOL     OW15033   5.057   8.345   4.305  0.2064 -0.2783 -0.2490
 4538SOL    HW115034   5.100   8.370   4.223 -0.3229  0.8869 -0.1937
 4538SOL    HW215035   5.123   8.362   4.373  0.5055 -0.8649 -0.3844
 4539SOL     OW15036   3.527   0.183   5.336 -0.1711  0.2609  0.2921
 4539SOL    HW115037   3.530   0.252   5.270 -0.3238  1.1310  1.1647
 4539SOL    HW215038   3.519   0.102   5.286 -1.6517  0.9856 -0.7227
 4540SOL     OW15039   6.846   2.932   6.724 -0.4718  0.0009  0.2556
 4540SOL    HW115040   6.849   2.991   6.799 -0.7114  2.3457 -1.4313
 4540SOL    HW215041   6.937   2.923   6.697 -0.3572 -1.0689  0.9614
 4541SOL     OW15042   5.403   1.165   7.581  0.1434 -0.4106 -0.1678
 4541SOL    HW115043   5.443   1.151   7.495  0.2822 -3.6521  0.2750
 4541SOL    HW215044   5.353   1.084   7.597  0.5218 -0.1365  2.9749
 4542SOL     OW15045   3.151   0.295   0.200  0.0093 -0.8797 -0.3741
 4542SOL    HW115046   3.238   0.288   0.160  0.9341  0.5264  1.2696
 4542SOL    HW215047   3.132   0.389   0.198 -0.9822 -1.0539  0.3124
 4543SOL     OW15048   7.316   2.096   1.206  0.4893 -0.1338  0.0556
 4543SOL    HW115049   7.361   2.113   1.123  0.6671 -1.9205 -0.2664
 4543SOL    HW215050   7.354   2.159   1.267 -1.4068  2.9804 -1.6928
 4544SOL     OW15051   2.085   5.727   7.622  0.2390 -0.2962 -0.3084
 4544SOL    HW115052   2.132   5.789   7.566  1.3847 -1.4728 -0.7074
 4544SOL    HW215053   2.036   5.672   7.561 -0.7495  0.1882  0.0386
 4545SOL     OW15054   2.404   2.905   4.681 -0.2621 -0.1337  0.0507
 4545SOL    HW115055   2.469   2.847   4.641  0.0103  0.4551 -0.3853
 4545SOL    HW215056   2.455   2.962   4.739 -0.5463 -0.4285  0.5947
 4546SOL     OW15057   2.574   7.161   3.675  0.0497 -0.0329 -0.0916
 4546SOL    HW115058   2.567   7.166   3.770  0.2025 -1.2420 -0.0027
 4546SOL    HW215059   2.489   7.192   3.643 -0.1840 -0.0957  0.4584
 4547SOL     OW15060   2.625   6.031   1.056 -0.1098  0.2855 -0.0894
 4547SOL    HW115061   2.625   5.951   1.004 -0.1903  0.3234 -0.1476
 4547SOL    HW215062   2.573   6.094   1.005  0.6711  0.6484 -0.4558
 4548SOL     OW15063   3.877   0.974   2.246 -0.1519 -0.1910  0.0426
 4548SOL    HW115064   3.930   0.898   2.223  0.1287 -0.7689  2.3759
 4548SOL    HW215065   3.915   1.046   2.195 -0.5289 -1.5661 -2.3411
 4549SOL     OW15066   7.019   5.235   6.627 -0.0816 -0.1076 -0.2763
 4549SOL    HW115067   7.091   5.243   6.690  0.3671 -0.0281 -0.7936
 4549SOL    HW215068   6.947   5.195   6.677  0.7301 -1.3561 -0.0605
 4550SOL     OW15069   1.610   2.579   8.134 -0.0403  0.2145  0.4578
 4550SOL    HW115070   1.610   2.624   8.050 -1.2048 -1.2186 -0.3768
 4550SOL    HW215071   1.619   2.486   8.111  4.2474  0.0071  2.1881
 4551SOL     OW15072   4.844   0.554   2.421 -0.2975 -0.1170  0.5164
 4551SOL    HW115073   4.855   0.630   2.365 -1.9021 -2.0114 -2.6899
 4551SOL    HW215074   4.921   0.500   2.404 -1.0349 -0.9340 -0.3266
 4552SOL     OW15075   3.991   6.496   1.651  0.0076  0.1190  0.7196
 4552SOL    HW115076   3.945   6.434   1.594 -0.0932  1.0233 -0.2074
 4552SOL    HW215077   3.972   6.466   1.740 -1.5822 -0.0824  0.3328
 4553SOL     OW15078   4.836   5.220   7.026  0.1974  0.9013 -0.2903
 4553SOL    HW115079   4.930   5.236   7.033  0.2603  0.2740  0.4190
 4553SOL    HW215080   4.810   5.191   7.113  0.1005 -2.8135 -1.4040
 4554SOL     OW15081   2.512   2.149   5.617  0.1234 -0.3486 -0.5869
 4554SOL    HW115082   2.456   2.159   5.694  0.9306  1.7152 -0.2006
 4554SOL    HW215083   2.502   2.058   5.591  0.9067 -1.5407  2.8089
 4555SOL     OW15084   6.549   3.874   8.041  0.1331  0.1175 -0.0173
 4555SOL    HW115085   6.600   3.945   8.080  0.4896  0.1046 -0.4494
 4555SOL    HW215086   6.466   3.915   8.017  0.0102  0.1863  0.5059
 4556SOL     OW15087   7.960   5.982   1.258  0.0467 -0.4105 -0.2550
 4556SOL    HW115088   7.984   5.986   1.166  0.7605  1.4976 -0.0477
 4556SOL    HW215089   7.887   5.921   1.262  0.4752 -1.0805 -1.9655
 4557SOL     OW15090   4.144   5.513   1.902  0.1017  0.9144 -0.2763
 4557SOL    HW115091   4.110   5.424   1.907  2.2685 -0.0638 -1.7110
 4557SOL    HW215092   4.213   5.516   1.969  0.0098  1.5219 -0.2054
 4558SOL     OW15093   4.539   8.247   3.647 -0.1185  0.2339  0.2104
 4558SOL    HW115094   4.586   8.276   3.569 -0.7487  0.2493 -0.1663
 4558SOL    HW215095   4.446   8.259   3.626 -0.2658  1.5487  1.4675
 4559SOL     OW15096   7.363   4.820   0.634 -0.3495 -0.2674 -0.0724
 4559SOL    HW115097   7.298   4.780   0.576 -1.2026 -1.2849  1.5136
 4559SOL    HW215098   7.401   4.747   0.682  0.7036  0.5038  0.3045
 4560SOL     OW15099   6.500   8.063   2.441 -0.2893 -0.5315  0.2591
 4560SOL    HW115100   6.461   7.991   2.392 -0.7396 -1.1406  1.4644
 4560SOL    HW215101   6.509   8.029   2.530 -2.3974  1.5256  1.3687
 4561SOL     OW15102   1.868   2.361   3.749  0.0339 -0.0252  0.5619
 4561SOL    HW115103   1.899   2.420   3.680 -0.8173 -0.4965 -0.2346
 4561SOL    HW215104   1.782   2.395   3.772 -0.0834 -0.4333  0.7244
 4562SOL     OW15105   4.693   5.636   8.221  0.6293  0.2687 -0.1023
 4562SOL    HW115106   4.771   5.605   8.175  0.6751  1.4258 -0.8592
 4562SOL    HW215107   4.716   5.725   8.249  0.2763 -0.0721  1.4047
 4563SOL     OW15108   2.447   0.633   7.297 -0.0728  0.4034 -0.0108
 4563SOL    HW115109   2.398   0.622   7.215  1.1332 -1.6763 -0.5299
 4563SOL    HW215110   2.539   0.628   7.270  0.3499 -1.1831  1.5173
 4564SOL     OW15111   3.487   3.149   1.984 -0.1185  0.7945 -0.0644
 4564SOL    HW115112   3.420   3.110   1.929 -1.0381  1.4916  0.5374
 4564SOL    HW215113   3.568   3.104   1.959 -1.0147 -1.0301  0.1568
 4565SOL     OW15114   1.432   6.996   7.580 -0.3652  0.7468 -0.0825
 4565SOL    HW115115   1.370   7.009   7.651 -1.1016  0.9139 -0.7446
 4565SOL    HW215116   1.394   6.926   7.527  0.8444 -0.3244  0.4086
 4566SOL     OW15117   2.813   2.631   3.272  0.2568  0.4920 -0.0048
 4566SOL    HW115118   2.792   2.702   3.333  1.1887 -0.1957  1.1589
 4566SOL    HW215119   2.867   2.571   3.323 -1.5932 -1.7571 -0.5406
 4567SOL     OW15120   2.396   6.091   6.512 -0.1216 -0.1281  0.0548
 4567SOL    HW115121   2.426   6.052   6.430 -2.7157  0.5066 -1.3270
 4567SOL    HW215122   2.313   6.134   6.489 -0.0844  1.5709  2.6552
 4568SOL     OW15123   3.692   4.526   1.671 -0.6834  0.5946  0.3162
 4568SOL    HW115124   3.650   4.540   1.587 -2.3044 -1.3091  0.7244
 4568SOL    HW215125   3.664   4.599   1.726 -1.5477  0.6169 -0.1394
 4569SOL     OW15126   0.993   5.354   5.406  0.0131  0.5023  0.6710
 4569SOL    HW115127   1.052   5.284   5.433 -0.0443  0.6159  1.0862
 4569SOL    HW215128   0.910   5.334   5.447 -0.4201  0.0178 -0.3929
 4570SOL     OW15129   7.066   2.439   4.934  0.5519 -0.2095  0.1753
 4570SOL    HW115130   7.066   2.370   5.000 -1.0744 -0.4799 -0.0774
 4570SOL    HW215131   7.115   2.402   4.861  2.4954  0.1475  1.2344
 4571SOL     OW15132   4.342   4.291   1.740  0.3252 -0.5195  0.2870
 4571SOL    HW115133   4.356   4.255   1.828 -0.9385  0.9275  1.1218
 4571SOL    HW215134   4.263   4.247   1.709 -0.4095  0.4586  0.7343
 4572SOL     OW15135   5.959   0.139   0.239 -0.0079 -0.2851 -0.2994
 4572SOL    HW115136   5.952   0.054   0.283 -0.5254 -0.4665 -0.7178
 4572SOL    HW215137   6.052   0.160   0.243  0.1129 -0.8291 -0.1098
 4573SOL     OW15138   4.479   5.100   4.734  0.2126  0.1150 -0.0992
 4573SOL    HW115139   4.394   5.097   4.777  0.8238 -0.9660  1.1316
 4573SOL    HW215140   4.520   5.180   4.768  0.5408 -0.5347  1.1005
 4574SOL     OW15141   1.961   7.801   5.421  0.5891  0.1019 -0.5363
 4574SOL    HW115142   2.050   7.769   5.430  0.1137 -0.7055  2.1811
 4574SOL    HW215143   1.968   7.896   5.434  1.0024 -0.0464  0.4202
 4575SOL     OW15144   8.239   5.312   7.269 -0.0195 -0.2373 -0.1832
 4575SOL    HW115145   8.178   5.381   7.294 -0.3884 -0.9230  0.8623
 4575SOL    HW215146   8.299   5.354   7.207 -1.2885  0.5560 -0.9077
 4576SOL     OW15147   4.064   3.715   2.484 -0.8343 -0.3090  0.1989
 4576SOL    HW115148   4.103   3.797   2.453  0.1531 -0.7970  0.1123
 4576SOL    HW215149   3.970   3.730   2.480 -0.6709  1.3330  1.5304
 4577SOL     OW15150   6.761   3.926   2.940 -0.2570  0.0333  0.6353
 4577SOL    HW115151   6.703   3.980   2.887  1.8311  1.3524 -0.4263
 4577SOL    HW215152   6.712   3.845   2.954 -1.5387  0.2553 -1.9443
 4578SOL     OW15153   8.334   4.380   8.075 -0.1180  0.0549  0.3735
 4578SOL    HW115154   8.348   4.419   8.161  0.2623 -0.7349  0.6797
 4578SOL    HW215155   8.256   4.423   8.041 -0.6256 -0.0656  1.3723
 4579SOL     OW15156   3.788   0.369   3.101 -0.2257  0.4049 -0.5382
 4579SOL    HW115157   3.790   0.463   3.083  1.2537  0.3109 -0.9697
 4579SOL    HW215158   3.831   0.329   3.025 -1.9395 -0.7459 -0.9630
 4580SOL     OW15159   5.380   0.320   1.618 -0.0460  0.2102  0.6965
 4580SOL    HW115160   5.312   0.345   1.555 -0.9957 -0.5831  1.3708
 4580SOL    HW215161   5.451   0.285   1.564 -1.6343 -2.3611  0.0944
 4581SOL     OW15162   8.002   4.055   2.175  0.3608  0.1112  0.6820
 4581SOL    HW115163   8.021   4.094   2.090 -0.0237  2.2689  1.5422
 4581SOL    HW215164   8.086   4.022   2.206  0.7602  0.5272  0.0554
 4582SOL     OW15165   0.166   8.039   7.156 -0.2193 -0.3282  0.1802
 4582SOL    HW115166   0.164   8.086   7.240 -1.2227 -1.9528  1.1299
 4582SOL    HW215167   0.075   8.013   7.141 -0.2048  0.6170 -1.8698
 4583SOL     OW15168   4.831   2.350   8.119  0.3899  0.2025  0.6371
 4583SOL    HW115169   4.746   2.324   8.155 -0.0490 -1.6723 -1.5306
 4583SOL    HW215170   4.894   2.293   8.164  0.1735 -0.2451  0.3805
 4584SOL     OW15171   7.497   7.070   1.446 -0.0459 -0.4222 -0.5851
 4584SOL    HW115172   7.575   7.055   1.500 -1.8066 -0.7738  2.0249
 4584SOL    HW215173   7.484   7.165   1.449 -0.3763 -0.4835 -0.0318
 4585SOL     OW15174   4.874   2.362   4.562  0.0125  0.1394  0.5689
 4585SOL    HW115175   4.895   2.439   4.615 -0.6452  0.6814  0.0631
 4585SOL    HW215176   4.913   2.289   4.609  2.1086  0.9627  0.2226
 4586SOL     OW15177   6.724   1.764   6.393  0.3146 -0.1106 -0.4172
 4586SOL    HW115178   6.770   1.818   6.458  1.3910 -0.6661 -0.6918
 4586SOL    HW215179   6.777   1.773   6.313 -1.0186  0.6066 -1.2507
 4587SOL     OW15180   8.359   5.217   1.316 -0.5097 -0.1844  0.5062
 4587SOL    HW115181   8.446   5.247   1.289 -1.6953  2.1254 -1.0269
 4587SOL    HW215182   8.369   5.197   1.409  2.0465 -1.6971  0.0082
 4588SOL     OW15183   1.737   2.014   6.849 -0.1446 -0.4588 -0.0645
 4588SOL    HW115184   1.677   1.969   6.909 -0.1331 -0.9492 -0.4162
 4588SOL    HW215185   1.679   2.054   6.783 -0.1786  0.3300  0.4261
 4589SOL     OW15186   7.257   8.081   4.696 -0.0840  0.0955 -0.1606
 4589SOL    HW115187   7.312   8.059   4.771  0.0867  0.2616 -0.2362
 4589SOL    HW215188   7.208   8.001   4.678  1.4764 -0.6780 -1.2378
 4590SOL     OW15189   7.598   8.343   2.051 -0.3562 -0.0632 -0.5773
 4590SOL    HW115190   7.662   8.319   1.983 -1.0490  0.0369 -1.2781
 4590SOL    HW215191   7.621   8.288   2.125  1.8338  1.3793 -0.0723
 4591SOL     OW15192   6.664   7.804   7.049  0.2390 -0.5299 -0.4790
 4591SOL    HW115193   6.732   7.769   6.991 -0.9779 -1.9921 -1.1139
 4591SOL    HW215194   6.673   7.752   7.129  1.0018  0.5117  0.1268
 4592SOL     OW15195   2.790   3.360   6.257 -0.1359  0.7317 -0.2328
 4592SOL    HW115196   2.787   3.455   6.248 -1.2349  0.6548 -0.8922
 4592SOL    HW215197   2.751   3.343   6.342  0.2105  0.8824 -0.0442
 4593SOL     OW15198   1.095   7.383   6.117 -0.4659 -0.0851  0.7207
 4593SOL    HW115199   1.169   7.359   6.061 -0.3395  1.5207  0.1664
 4593SOL    HW215200   1.099   7.478   6.124 -2.1249 -0.0150  1.1921
 4594SOL     OW15201   4.001   0.491   7.076  0.1660 -0.8994  0.4974
 4594SOL    HW115202   4.079   0.438   7.063 -1.3496 -3.0279 -0.3968
 4594SOL    HW215203   3.952   0.482   6.995 -1.2303  0.0577  1.1880
 4595SOL     OW15204   0.409   1.226   6.762  0.5864  0.2862 -0.0291
 4595SOL    HW115205   0.435   1.242   6.672  1.0720 -0.4088 -0.0192
 4595SOL    HW215206   0.375   1.310   6.793 -0.2938  0.3382 -1.0915
 4596SOL     OW15207   3.838   6.304   8.218 -0.6056  0.5527  0.1175
 4596SOL    HW115208   3.843   6.213   8.188 -0.5788  0.6978 -0.3256
 4596SOL    HW215209   3.921   6.343   8.193 -1.0003  0.9632 -0.5834
 4597SOL     OW15210   0.748   2.523   7.311  0.2250 -0.3357  0.4779
 4597SOL    HW115211   0.672   2.480   7.272 -0.7713  0.3739  1.5541
 4597SOL    HW215212   0.816   2.518   7.243 -1.0547 -0.1878 -0.8826
 4598SOL     OW15213   6.302   6.715   5.441  0.6469 -0.4508 -0.2873
 4598SOL    HW115214   6.278   6.691   5.531 -0.3954  0.9281 -0.1625
 4598SOL    HW215215   6.220   6.749   5.403  1.8831  2.6359 -0.4815
 4599SOL     OW15216   2.844   4.221   8.019 -0.0755  0.3656 -0.4425
 4599SOL    HW115217   2.834   4.305   7.975  1.3346  1.2438  0.8075
 4599SOL    HW215218   2.932   4.191   7.995  0.0785  0.0670  0.4418
 4600SOL     OW15219   8.351   0.317   0.684  0.1428  0.1061  0.1284
 4600SOL    HW115220   8.267   0.355   0.711  0.1640 -0.2334  0.6871
 4600SOL    HW215221   8.329   0.227   0.659  0.3420  0.0197  0.2686
 4601SOL     OW15222   5.868   3.050   1.654  0.3476  0.6289  0.1686
 4601SOL    HW115223   5.959   3.023   1.659  0.0959 -0.0707  3.0232
 4601SOL    HW215224   5.867   3.138   1.691 -0.3295 -0.1975  2.2853
 4602SOL     OW15225   7.623   5.873   6.088 -0.1072  0.7691  0.3904
 4602SOL    HW115226   7.629   5.904   6.178 -1.2953  1.5741  0.2165
 4602SOL    HW215227   7.698   5.814   6.078  0.9718  1.8910  1.4081
 4603SOL     OW15228   1.300   7.933   2.157  0.2385 -0.1601 -0.2735
 4603SOL    HW115229   1.278   7.843   2.180  0.2358  0.0900  0.7542
 4603SOL    HW215230   1.222   7.983   2.182  1.1222  0.4520  1.4870
 4604SOL     OW15231   5.293   0.481   0.599 -0.3810 -0.0980 -0.1312
 4604SOL    HW115232   5.305   0.566   0.641 -0.4229  0.2712 -0.8380
 4604SOL    HW215233   5.380   0.440   0.602 -0.0402  0.5367 -0.9635
 4605SOL     OW15234   3.930   6.356   5.007  0.4404  0.6088 -0.3282
 4605SOL    HW115235   3.843   6.316   5.013  0.8572 -0.0790  2.6535
 4605SOL    HW215236   3.966   6.323   4.925 -0.6816 -2.2296  0.2059
 4606SOL     OW15237   0.873   7.700   7.243  0.3442 -0.3503 -0.6057
 4606SOL    HW115238   0.948   7.641   7.233 -0.8373 -1.6008 -3.2205
 4606SOL    HW215239   0.840   7.711   7.154 -1.1662  2.1153  0.1539
 4607SOL     OW15240   7.446   0.337   3.555  0.3481  0.5467  0.0577
 4607SOL    HW115241   7.423   0.351   3.647  2.2217 -2.1114  1.0529
 4607SOL    HW215242   7.365   0.308   3.515  0.1839 -1.6695  1.7708
 4608SOL     OW15243   7.584   3.516   3.655  0.0643  0.5418  0.1834
 4608SOL    HW115244   7.529   3.581   3.698  0.7371  1.7986 -0.7691
 4608SOL    HW215245   7.538   3.497   3.573  0.1098  0.1692  0.2437
 4609SOL     OW15246   6.900   0.949   7.937  0.1174  0.4567  1.0047
 4609SOL    HW115247   6.929   0.988   7.855 -0.2918 -1.7061 -0.2571
 4609SOL    HW215248   6.977   0.948   7.993  0.8567  0.3997 -0.0036
 4610SOL     OW15249   1.993   2.904   1.002 -0.1525 -0.2895  0.0471
 4610SOL    HW115250   1.973   2.891   1.095 -0.5252 -1.1768 -0.1534
 4610SOL    HW215251   1.929   2.852   0.955  0.5773 -0.5483 -0.6923
 4611SOL     OW15252   4.944   8.104   4.207 -0.1405 -0.2161 -0.0380
 4611SOL    HW115253   4.969   8.102   4.115 -1.0897  2.1847 -0.4159
 4611SOL    HW215254   4.985   8.183   4.242  0.1855 -1.0692  1.6089
 4612SOL     OW15255   2.089   5.908   5.656 -0.7981  0.2173 -0.3584
 4612SOL    HW115256   2.137   5.893   5.575 -1.5207  0.9373 -0.9449
 4612SOL    HW215257   2.025   5.836   5.660  1.8729 -2.2665  1.7325
 4613SOL     OW15258   7.045   3.899   2.060 -0.4360 -0.3212 -0.2435
 4613SOL    HW115259   7.111   3.895   1.991  0.4166 -0.4153  0.5654
 4613SOL    HW215260   7.048   3.813   2.102 -1.8614 -0.7252 -0.8908
 4614SOL     OW15261   7.546   2.505   2.875  0.3457 -0.1748 -0.1083
 4614SOL    HW115262   7.551   2.513   2.780 -0.9078  0.0847 -0.1763
 4614SOL    HW215263   7.454   2.521   2.895  0.8606  1.3587  1.2874
 4615SOL     OW15264   2.958   4.821   2.129  0.2240 -0.2925  0.2110
 4615SOL    HW115265   3.015   4.897   2.140  1.0388 -0.8250 -0.2048
 4615SOL    HW215266   2.930   4.798   2.218  0.2738  0.2671  0.3721
 4616SOL     OW15267   2.784   6.855   3.313 -0.3077  0.1580  0.3752
 4616SOL    HW115268   2.812   6.921   3.376  0.3235  1.1409 -0.8937
 4616SOL    HW215269   2.736   6.905   3.246  1.6033 -0.3639 -1.4843
 4617SOL     OW15270   7.687   0.085   5.121 -0.0877  0.3419 -0.0926
 4617SOL    HW115271   7.746   0.150   5.160  0.3243 -0.8376  1.3505
 4617SOL    HW215272   7.599   0.118   5.140  0.0372  2.0036 -2.0729
 4618SOL     OW15273   1.196   4.956   0.043 -0.2710 -0.0685  0.2979
 4618SOL    HW115274   1.156   4.881   0.087  0.3001  0.3839  1.6306
 4618SOL    HW215275   1.127   4.989  -0.015 -1.6245  0.2530  1.9958
 4619SOL     OW15276   7.609   7.464   0.569  0.6972 -0.0946  0.1520
 4619SOL    HW115277   7.631   7.514   0.648 -0.3268  0.8230 -0.1120
 4619SOL    HW215278   7.516   7.445   0.579  0.1604  1.4074 -1.5384
 4620SOL     OW15279   0.015   2.129   2.083 -0.1672 -0.3831  0.0864
 4620SOL    HW115280   0.011   2.163   2.172  0.1955  2.1745 -0.8006
 4620SOL    HW215281   0.107   2.141   2.057 -0.4891 -0.1430 -0.9738
 4621SOL     OW15282   0.754   3.238   1.592 -0.4750  0.0449 -0.1850
 4621SOL    HW115283   0.686   3.302   1.572 -0.2996  0.7097  1.1979
 4621SOL    HW215284   0.768   3.191   1.510 -2.3877  0.0770 -0.5804
 4622SOL     OW15285   5.576   1.562   4.538  0.2477 -0.3479 -0.4476
 4622SOL    HW115286   5.580   1.627   4.608 -1.2928 -0.8570  0.1659
 4622SOL    HW215287   5.585   1.478   4.583  0.1360 -0.6424 -0.9694
 4623SOL     OW15288   2.072   5.445   3.758 -0.1844  0.1782 -0.1641
 4623SOL    HW115289   2.066   5.481   3.847  0.8979 -0.0521  0.0137
 4623SOL    HW215290   2.018   5.503   3.705 -0.9970  0.2181  0.6694
 4624SOL     OW15291   8.034   3.454   2.241  0.3978 -0.4216 -0.1047
 4624SOL    HW115292   8.031   3.393   2.167  0.1436 -1.3983  0.6818
 4624SOL    HW215293   8.127   3.466   2.260  0.4683 -0.0299 -0.6795
 4625SOL     OW15294   3.623   6.486   3.321 -0.2365  0.6730 -0.1670
 4625SOL    HW115295   3.541   6.532   3.304  0.8796  2.5000 -0.8576
 4625SOL    HW215296   3.665   6.536   3.392 -0.2548 -0.9815  1.0843
 4626SOL     OW15297   6.849   6.170   5.957  0.0388 -0.5372  0.6432
 4626SOL    HW115298   6.874   6.128   5.875  2.2789 -0.3306  1.1669
 4626SOL    HW215299   6.832   6.097   6.017 -3.6545 -0.7698 -0.4240
 4627SOL     OW15300   3.804   8.200   6.357 -0.2095  0.2883  0.4599
 4627SOL    HW115301   3.767   8.278   6.315 -2.0235 -0.3493  0.8053
 4627SOL    HW215302   3.805   8.135   6.287 -1.0617 -0.0932  0.7890
 4628SOL     OW15303   4.123   7.905   6.963  0.4253 -0.4732 -0.4226
 4628SOL    HW115304   4.195   7.968   6.955 -0.0374 -0.1123 -2.2023
 4628SOL    HW215305   4.073   7.916   6.883 -1.1256 -1.3466  0.3876
 4629SOL     OW15306   0.375   0.465   0.084  0.0578 -0.2931  0.2429
 4629SOL    HW115307   0.378   0.458   0.180  0.6534  1.0204  0.3365
 4629SOL    HW215308   0.414   0.383   0.053  0.1148 -0.6138  1.1282
 4630SOL     OW15309   3.088   4.807   5.660 -0.0223  0.2753 -0.0100
 4630SOL    HW115310   3.108   4.736   5.600 -0.6788  0.2478 -0.2056
 4630SOL    HW215311   2.998   4.832   5.639 -0.4165 -0.0182  1.2540
 4631SOL     OW15312   1.536   4.121   2.535 -0.2887  0.3201 -0.2456
 4631SOL    HW115313   1.484   4.161   2.604 -2.1982 -0.5174 -1.1258
 4631SOL    HW215314   1.591   4.057   2.580 -0.8233  0.4447  0.6051
 4632SOL     OW15315   4.351   3.926   0.939  0.3036  0.2150 -0.1616
 4632SOL    HW115316   4.416   3.896   1.002  0.3089  1.8943  0.6904
 4632SOL    HW215317   4.270   3.933   0.990 -0.2325 -0.5538 -0.8893
 4633SOL     OW15318   6.339   5.059   5.392  0.1467  0.0067  0.7587
 4633SOL    HW115319   6.330   5.109   5.472 -0.7107  1.2576 -0.0809
 4633SOL    HW215320   6.361   5.124   5.325 -0.4275 -0.8080 -0.2603
 4634SOL     OW15321   4.977   7.513   7.733  0.2258 -0.5398  0.6130
 4634SOL    HW115322   5.013   7.595   7.699  2.7402 -1.1629  1.5588
 4634SOL    HW215323   4.957   7.531   7.825  0.8270 -0.9791  0.8351
 4635SOL     OW15324   6.202   1.808   4.440 -0.3527 -0.4076  0.6909
 4635SOL    HW115325   6.232   1.758   4.365 -1.3876 -0.6345  0.4162
 4635SOL    HW215326   6.204   1.899   4.410 -0.2390 -0.4464  0.5778
 4636SOL     OW15327   4.325   6.616   0.639 -0.2501  0.1440 -0.9732
 4636SOL    HW115328   4.404   6.564   0.652  0.0778  0.7151 -0.6740
 4636SOL    HW215329   4.323   6.676   0.713  1.2182  2.9133 -3.0104
 4637SOL     OW15330   3.183   6.094   0.920 -0.1218 -0.4601 -0.4316
 4637SOL    HW115331   3.162   6.129   1.006  5.2707  1.8604  0.3837
 4637SOL    HW215332   3.132   6.147   0.859  0.9112  2.7087  1.2183
 4638SOL     OW15333   3.485   6.618   2.745  0.0262  0.0409 -0.0280
 4638SOL    HW115334   3.573   6.584   2.729 -0.0452 -0.1583 -0.0020
 4638SOL    HW215335   3.467   6.597   2.837 -0.3125 -0.5289 -0.2176
 4639SOL     OW15336   7.289   3.619   2.137  0.4179  0.8374  0.2724
 4639SOL    HW115337   7.245   3.587   2.215  0.4447  0.7455  0.2503
 4639SOL    HW215338   7.340   3.544   2.106 -1.4025  0.1237 -1.1641
 4640SOL     OW15339   7.690   0.867   4.778  0.0937 -0.1875  0.5327
 4640SOL    HW115340   7.703   0.947   4.728  1.6490  0.3372  1.6869
 4640SOL    HW215341   7.773   0.820   4.768 -0.6568 -1.4846  0.2038
 4641SOL     OW15342   0.912   1.793   2.544 -0.3226  1.0447  0.1021
 4641SOL    HW115343   0.916   1.879   2.502 -0.2150  2.0212  1.9857
 4641SOL    HW215344   0.822   1.763   2.529  0.1355  0.6220 -2.0996
 4642SOL     OW15345   0.397   3.200   6.976  0.6102  0.0129  0.2016
 4642SOL    HW115346   0.358   3.286   6.963  1.6233  0.4768  0.1200
 4642SOL    HW215347   0.340   3.140   6.927 -0.5861  0.4935  0.9648
 4643SOL     OW15348   4.902   3.995   5.212  0.0999 -0.6211 -0.0137
 4643SOL    HW115349   4.842   3.936   5.256  1.6283 -2.7121 -0.5888
 4643SOL    HW215350   4.894   4.078   5.260 -2.8541 -0.9121  0.1674
 4644SOL     OW15351   1.139   5.120   5.339 -0.2339  0.1221 -0.7002
 4644SOL    HW115352   1.170   5.188   5.278  3.2109 -1.8920 -1.4693
 4644SOL    HW215353   1.185   5.041   5.312 -2.1103 -1.9748  1.7462
 4645SOL     OW15354   3.131   4.792   2.727  0.0114  0.3834 -1.0615
 4645SOL    HW115355   3.149   4.849   2.652  1.4062  0.5724 -0.6165
 4645SOL    HW215356   3.073   4.724   2.692  0.9657  0.2254 -2.4230
 4646SOL     OW15357   4.429   5.386   5.860  0.0715 -0.5060  0.0507
 4646SOL    HW115358   4.458   5.346   5.942  0.6907 -0.7757 -0.2903
 4646SOL    HW215359   4.509   5.422   5.821 -0.5359  1.5164  0.5595
 4647SOL     OW15360   3.990   1.340   2.673 -0.3941 -0.4561  0.3779
 4647SOL    HW115361   3.987   1.304   2.584  0.5331 -0.5758  0.3836
 4647SOL    HW215362   4.040   1.276   2.723 -2.2112 -1.1706  1.3849
 4648SOL     OW15363   1.684   6.596   2.435  0.4282  0.0433 -0.2575
 4648SOL    HW115364   1.737   6.579   2.513 -0.4510 -0.2156  0.3046
 4648SOL    HW215365   1.630   6.517   2.426  0.5291  0.0688 -1.1369
 4649SOL     OW15366   1.371   5.211   1.719 -0.3383  0.3653  0.3041
 4649SOL    HW115367   1.305   5.218   1.651 -0.5060  0.4529  0.4739
 4649SOL    HW215368   1.340   5.269   1.789 -0.6932 -0.4949  0.8784
 4650SOL     OW15369   5.256   5.707   5.730  0.0417  0.1701  0.0378
 4650SOL    HW115370   5.243   5.741   5.819 -0.6810  0.7777 -0.2876
 4650SOL    HW215371   5.191   5.639   5.720 -0.1599  0.3919 -0.1703
 4651SOL     OW15372   4.616   7.037   1.658  0.4267  0.0479 -0.1418
 4651SOL    HW115373   4.649   7.006   1.574  1.2708  0.2424  0.1163
 4651SOL    HW215374   4.521   7.026   1.651  0.6377 -2.3639 -0.1640
 4652SOL     OW15375   0.690   7.884   5.071 -0.3270  0.6367  0.1401
 4652SOL    HW115376   0.644   7.891   4.987  1.4454 -0.9574 -1.0376
 4652SOL    HW215377   0.684   7.792   5.094  0.5839  0.7648  0.9468
 4653SOL     OW15378   3.203   1.104   6.510 -0.1820 -0.3951  0.1469
 4653SOL    HW115379   3.221   1.094   6.604  0.2500  4.8857  0.9503
 4653SOL    HW215380   3.288   1.125   6.471 -0.5225 -1.5797 -1.3376
 4654SOL     OW15381   6.961   6.705   3.728 -0.4808 -0.0619  0.5384
 4654SOL    HW115382   6.981   6.713   3.821 -0.2035  2.3212  0.3449
 4654SOL    HW215383   7.046   6.685   3.687 -0.2857  0.4784  0.6645
 4655SOL     OW15384   5.481   3.591   0.806  0.1685  0.4324 -0.1642
 4655SOL    HW115385   5.536   3.629   0.737  0.9496  0.6273  0.5562
 4655SOL    HW215386   5.404   3.558   0.759  1.5446 -1.2087 -1.4278
 4656SOL     OW15387   3.969   7.622   1.982 -0.7502 -0.1478  0.1849
 4656SOL    HW115388   3.915   7.616   2.061  0.8687  1.0379  1.4393
 4656SOL    HW215389   4.057   7.599   2.011 -0.0685  0.5263 -1.2423
 4657SOL     OW15390   2.180   4.525   5.714  0.0172  0.3472  0.1388
 4657SOL    HW115391   2.168   4.560   5.802  1.4073  1.0241  0.0811
 4657SOL    HW215392   2.236   4.589   5.670  0.5924 -0.7372 -0.7631
 4658SOL     OW15393   1.327   5.687   1.577 -0.4222 -0.3995 -0.3761
 4658SOL    HW115394   1.319   5.782   1.576  0.9715 -0.2661 -1.1767
 4658SOL    HW215395   1.328   5.664   1.670  1.0365  0.5573 -0.1218
 4659SOL     OW15396   1.083   1.327   7.757  0.1877 -0.3938  0.1536
 4659SOL    HW115397   1.157   1.354   7.811  0.5763  1.4702 -1.2039
 4659SOL    HW215398   1.101   1.236   7.735  1.3342 -0.3979  1.0165
 4660SOL     OW15399   2.889   2.552   7.576 -0.3209 -0.1841  0.3437
 4660SOL    HW115400   2.890   2.645   7.596 -2.5524 -0.3403  1.5700
 4660SOL    HW215401   2.969   2.536   7.526  0.6867  2.1463  1.1055
 4661SOL     OW15402   4.095   0.855   3.737  0.0818 -0.0506  0.5208
 4661SOL    HW115403   4.064   0.869   3.826  1.7245 -1.1143  1.2842
 4661SOL    HW215404   4.048   0.777   3.707  0.5534 -0.5097  0.9654
 4662SOL     OW15405   0.170   5.468   3.178  0.5645 -0.9039  0.3499
 4662SOL    HW115406   0.204   5.417   3.252  0.6105 -0.8136  0.3920
 4662SOL    HW215407   0.214   5.431   3.101  3.4180  1.3235  0.6883
 4663SOL     OW15408   2.640   3.002   1.840  0.2176  0.0710  0.5154
 4663SOL    HW115409   2.712   3.064   1.831  0.2551 -0.0935 -0.4317
 4663SOL    HW215410   2.563   3.051   1.813 -0.0624  0.2716  1.6029
 4664SOL     OW15411   6.354   2.261   3.001  0.3109  0.0981 -0.3012
 4664SOL    HW115412   6.427   2.268   3.062  0.0133  0.7942 -0.0207
 4664SOL    HW215413   6.391   2.217   2.924  0.6055 -1.0912  0.4983
 4665SOL     OW15414   4.872   3.434   3.181  0.1869  1.1263  0.1864
 4665SOL    HW115415   4.903   3.348   3.210 -0.7151  0.4044 -0.9197
 4665SOL    HW215416   4.929   3.457   3.108  1.9975  2.6229  1.9419
 4666SOL     OW15417   1.499   7.787   1.566  0.2803  0.4015 -0.3753
 4666SOL    HW115418   1.508   7.860   1.627  2.4668 -1.0513  1.1948
 4666SOL    HW215419   1.563   7.805   1.497  1.0024 -0.0978  0.1445
 4667SOL     OW15420   4.437   5.867   0.355  0.2753  0.0162 -0.5588
 4667SOL    HW115421   4.525   5.859   0.392  0.3761 -2.8306 -1.2086
 4667SOL    HW215422   4.411   5.777   0.334 -3.0668  0.6874  0.1846
 4668SOL     OW15423   7.950   3.833   5.160 -0.4565 -0.0175 -0.3887
 4668SOL    HW115424   8.024   3.893   5.150  0.3408 -0.4059  2.3539
 4668SOL    HW215425   7.988   3.752   5.195 -2.0929 -0.3527  0.7627
 4669SOL     OW15426   6.364   1.171   4.889  0.0999  0.2333 -0.3825
 4669SOL    HW115427   6.329   1.242   4.835 -1.3817 -0.4188 -0.3523
 4669SOL    HW215428   6.414   1.215   4.957 -1.1445  1.2933 -0.1022
 4670SOL     OW15429   8.068   6.254   2.013 -0.1290  0.7678  0.4329
 4670SOL    HW115430   8.118   6.241   2.094 -0.6452  1.0361  0.7948
 4670SOL    HW215431   8.110   6.195   1.950  2.2329  2.6962  0.0417
 4671SOL     OW15432   1.432   7.172   2.863 -0.1940 -0.3056 -0.0715
 4671SOL    HW115433   1.421   7.261   2.831 -1.0140 -0.1794  0.5530
 4671SOL    HW215434   1.350   7.151   2.908  0.3427 -1.0345  0.6089
 4672SOL     OW15435   3.879   6.165   6.140  0.7352  0.5758  0.2638
 4672SOL    HW115436   3.937   6.233   6.105  0.5592  0.2406 -0.7247
 4672SOL    HW215437   3.880   6.179   6.234  1.8697  1.0138  0.2047
 4673SOL     OW15438   4.230   3.747   4.513 -0.0574 -0.0835 -0.8054
 4673SOL    HW115439   4.249   3.668   4.464 -0.5066 -1.5333  1.2172
 4673SOL    HW215440   4.139   3.768   4.493 -0.2795 -0.7425 -0.4919
 4674SOL     OW15441   4.234   6.879   0.822 -0.2968  0.0595  0.0955
 4674SOL    HW115442   4.293   6.896   0.896 -1.3561 -0.6580  1.1398
 4674SOL    HW215443   4.171   6.952   0.825  0.1505  0.4868 -0.6355
 4675SOL     OW15444   3.365   7.992   5.918  0.5080  0.0882  0.5650
 4675SOL    HW115445   3.399   8.079   5.898  1.3213 -0.5822 -1.2009
 4675SOL    HW215446   3.292   8.008   5.978 -0.0996  2.0945 -0.6033
 4676SOL     OW15447   8.116   1.473   7.439  0.0245  0.5600  0.1845
 4676SOL    HW115448   8.097   1.550   7.492  1.3406  1.1913 -0.2135
 4676SOL    HW215449   8.185   1.502   7.379  0.3335 -0.8374 -0.1712
 4677SOL     OW15450   4.041   1.693   0.702  0.4956  0.8935 -0.2278
 4677SOL    HW115451   4.131   1.700   0.734 -0.2455  0.2898  2.1457
 4677SOL    HW215452   3.987   1.721   0.776 -1.3257 -0.2883 -1.0504
 4678SOL     OW15453   2.264   4.225   1.795 -0.0440 -0.1188  0.0884
 4678SOL    HW115454   2.250   4.274   1.715  0.2296 -2.1614 -1.2830
 4678SOL    HW215455   2.180   4.228   1.840 -0.2848  0.8060 -0.4012
 4679SOL     OW15456   3.993   1.125   3.658 -0.0121  0.5809  0.7803
 4679SOL    HW115457   4.033   1.051   3.703  1.7541  1.7388  1.2425
 4679SOL    HW215458   3.992   1.195   3.723  0.0919  1.4900 -0.1607
 4680SOL     OW15459   6.375   6.091   7.188  0.0743  0.2712 -0.0542
 4680SOL    HW115460   6.358   6.180   7.217 -0.5614 -0.3224  1.5314
 4680SOL    HW215461   6.291   6.061   7.151  0.5226  0.5952 -1.3657
 4681SOL     OW15462   4.805   1.836   3.942  0.0879 -0.5579  0.3792
 4681SOL    HW115463   4.722   1.853   3.985 -0.4085  2.0140 -1.3818
 4681SOL    HW215464   4.783   1.825   3.849  1.6412 -0.3321 -0.0471
 4682SOL     OW15465   7.233   5.199   6.817  0.1655 -0.1478 -0.1925
 4682SOL    HW115466   7.322   5.188   6.850  0.6796 -2.5222 -2.0807
 4682SOL    HW215467   7.177   5.181   6.893  1.2575  0.8692  0.8939
 4683SOL     OW15468   0.593   2.723   6.312 -0.4652  0.6885  0.0476
 4683SOL    HW115469   0.574   2.732   6.405 -0.5434  0.9182  0.0078
 4683SOL    HW215470   0.509   2.702   6.272 -0.7364  2.1287 -0.1887
 4684SOL     OW15471   5.839   4.859   1.478 -0.0167 -0.1825  0.1305
 4684SOL    HW115472   5.911   4.801   1.455  1.9916  1.7544  1.1185
 4684SOL    HW215473   5.858   4.941   1.433 -1.7348  0.3286  0.2457
 4685SOL     OW15474   2.899   6.334   4.379  0.1437  0.2267  0.1011
 4685SOL    HW115475   2.880   6.241   4.384 -0.0761  0.2714  0.0849
 4685SOL    HW215476   2.814   6.377   4.389 -0.0806  0.3827 -2.0589
 4686SOL     OW15477   1.307   1.745   1.138 -0.1175  0.1524  0.5040
 4686SOL    HW115478   1.332   1.817   1.080 -0.1405  0.3748  0.7725
 4686SOL    HW215479   1.303   1.669   1.080  0.1478  0.3178  0.2642
 4687SOL     OW15480   1.435   3.439   3.736  0.5082  0.6934  0.1800
 4687SOL    HW115481   1.368   3.480   3.790 -0.0822  2.3305 -1.6459
 4687SOL    HW215482   1.500   3.406   3.798 -0.9250  0.9774  1.9058
 4688SOL     OW15483   6.325   3.632   5.900  0.6345  0.0197  0.1096
 4688SOL    HW115484   6.350   3.540   5.901 -1.4470 -0.5964  0.7875
 4688SOL    HW215485   6.294   3.648   5.810  0.6917 -0.0367  0.0802
 4689SOL     OW15486   1.996   2.127   5.724  0.0016 -0.1899 -0.0716
 4689SOL    HW115487   1.914   2.083   5.701  0.1433 -0.2207 -0.5279
 4689SOL    HW215488   2.064   2.066   5.698  0.1788 -0.0694  0.1042
 4690SOL     OW15489   7.574   5.988   1.045 -0.2965 -0.0930  0.2721
 4690SOL    HW115490   7.562   6.044   1.122 -2.1713 -1.3960  1.0128
 4690SOL    HW215491   7.509   6.019   0.983  1.0433  0.7863 -0.7489
 4691SOL     OW15492   3.294   7.556   4.282 -0.2317 -0.3438  0.3665
 4691SOL    HW115493   3.330   7.636   4.245  1.0495 -0.8586  0.4482
 4691SOL    HW215494   3.307   7.564   4.376 -0.6941 -0.3722  0.4374
 4692SOL     OW15495   4.915   0.159   5.160 -0.4205  0.0535  1.2150
 4692SOL    HW115496   4.927   0.253   5.169 -1.5955  0.6772 -2.2378
 4692SOL    HW215497   4.821   0.148   5.146 -0.2039 -1.5552  0.8648
 4693SOL     OW15498   5.663   7.387   7.976  0.3701  0.3021  0.0360
 4693SOL    HW115499   5.735   7.324   7.986 -1.3014 -2.0269 -1.5620
 4693SOL    HW215500   5.674   7.423   7.889 -1.1612 -1.2605 -0.8786
 4694SOL     OW15501   4.967   5.281   5.901  0.0540 -0.6426  0.4571
 4694SOL    HW115502   4.931   5.370   5.907 -0.0773 -0.7267  0.9618
 4694SOL    HW215503   4.933   5.236   5.978 -0.6609 -1.4272 -0.3047
 4695SOL     OW15504   7.985   6.990   2.954  0.0854 -0.2453  0.2446
 4695SOL    HW115505   8.009   6.915   2.898 -0.5012  0.1177 -0.5160
 4695SOL    HW215506   8.040   6.980   3.031 -0.4721 -1.8600  0.4817
 4696SOL     OW15507   3.756   3.189   2.341  0.0267  0.5576  0.0693
 4696SOL    HW115508   3.834   3.190   2.285 -0.8982  0.3282 -1.2802
 4696SOL    HW215509   3.707   3.113   2.311  0.6096 -1.0589  2.8514
 4697SOL     OW15510   3.397   4.934   0.218  0.3616 -0.0004 -0.0634
 4697SOL    HW115511   3.482   4.899   0.189  0.9409  1.3535 -0.0888
 4697SOL    HW215512   3.397   4.922   0.313  0.6227  0.0802 -0.0517
 4698SOL     OW15513   4.684   5.916   7.271 -0.0818 -0.1536  0.2825
 4698SOL    HW115514   4.740   5.915   7.193  4.1706  0.8182  2.9557
 4698SOL    HW215515   4.644   5.830   7.273  0.7594 -0.6896 -2.2228
 4699SOL     OW15516   2.760   6.993   4.135 -0.0332 -0.4457  0.2537
 4699SOL    HW115517   2.696   6.931   4.172  0.6776 -2.1241 -1.2196
 4699SOL    HW215518   2.828   6.938   4.097  2.0358  1.2860  1.2175
 4700SOL     OW15519   6.885   7.683   2.178 -0.1335  0.3539  0.3379
 4700SOL    HW115520   6.938   7.763   2.181  2.3447 -1.1846  1.5515
 4700SOL    HW215521   6.794   7.713   2.181  0.7107  3.1025  0.8143
 4701SOL     OW15522   1.768   4.517   6.315  0.5218 -0.5365 -0.0246
 4701SOL    HW115523   1.696   4.555   6.264 -0.7767 -2.9077 -0.1118
 4701SOL    HW215524   1.820   4.469   6.251  0.5837 -1.1081  0.4494
 4702SOL     OW15525   3.396   7.682   7.785 -0.1839 -0.0064  0.4718
 4702SOL    HW115526   3.467   7.631   7.825 -0.4489 -1.2532 -0.5600
 4702SOL    HW215527   3.366   7.740   7.855  1.7682  0.5059  0.9765
 4703SOL     OW15528   5.499   6.986   0.893  0.2479  0.4677  0.2037
 4703SOL    HW115529   5.533   6.964   0.806  0.0930  0.6491  0.0943
 4703SOL    HW215530   5.447   6.910   0.918  0.5600  0.2780  0.2798
 4704SOL     OW15531   5.111   0.739   5.367 -0.4760  0.3882  0.1270
 4704SOL    HW115532   5.203   0.748   5.341 -0.6338 -0.2683 -0.7149
 4704SOL    HW215533   5.075   0.828   5.361  0.1802  0.7113  0.8059
 4705SOL     OW15534   5.538   2.306   4.670  0.0151  0.2574 -0.3299
 4705SOL    HW115535   5.580   2.224   4.644 -0.3014  0.2600 -0.8438
 4705SOL    HW215536   5.494   2.285   4.753 -1.9742 -0.7272 -1.5577
 4706SOL     OW15537   6.253   3.039   1.329 -0.1931 -0.3271 -0.2086
 4706SOL    HW115538   6.201   2.967   1.292 -1.0956 -0.8293  1.8728
 4706SOL    HW215539   6.318   2.996   1.384 -1.4654  0.3609  1.9873
 4707SOL     OW15540   6.146   3.000   1.633  0.5991 -0.2458 -0.4087
 4707SOL    HW115541   6.216   3.045   1.585  1.3758 -1.7518 -0.7228
 4707SOL    HW215542   6.142   2.913   1.594  0.9802 -1.4059  2.0158
 4708SOL     OW15543   6.384   0.735   4.994  0.0778 -0.0254 -0.3978
 4708SOL    HW115544   6.319   0.781   4.941  0.2484 -0.0168 -0.6032
 4708SOL    HW215545   6.336   0.663   5.035 -0.1378  0.1951 -0.2635
 4709SOL     OW15546   8.302   8.062   2.136 -0.1194 -0.1739  0.1696
 4709SOL    HW115547   8.212   8.030   2.140  0.0991 -0.9965 -0.9164
 4709SOL    HW215548   8.323   8.063   2.043  0.8331  0.4923  0.3739
 4710SOL     OW15549   3.037   6.054   3.382  0.4604  0.1267 -0.0697
 4710SOL    HW115550   2.967   6.017   3.436  1.2510  3.1323  3.4078
 4710SOL    HW215551   3.000   6.135   3.348  1.1735  0.0335 -1.1019
 4711SOL     OW15552   6.236   7.416   5.258  0.4006  0.6524  0.5659
 4711SOL    HW115553   6.181   7.416   5.180 -1.2963  0.6262  1.7095
 4711SOL    HW215554   6.307   7.355   5.237  0.1248  0.8445 -1.0344
 4712SOL     OW15555   0.566   7.485   4.949  0.5571 -0.2225  0.6215
 4712SOL    HW115556   0.499   7.540   4.991  1.0118  1.0074 -0.2033
 4712SOL    HW215557   0.524   7.400   4.938 -1.3018  0.8103 -0.8491
 4713SOL     OW15558   0.158   3.471   6.360 -0.1024 -0.2886 -0.6863
 4713SOL    HW115559   0.254   3.467   6.355 -0.0596 -0.7061  0.2423
 4713SOL    HW215560   0.134   3.543   6.301  0.9461  1.1997  0.6188
 4714SOL     OW15561   4.859   8.283   2.316 -0.1717 -0.2710 -0.2751
 4714SOL    HW115562   4.788   8.330   2.361  0.0571  0.4878 -0.6926
 4714SOL    HW215563   4.817   8.239   2.243 -0.0283  1.3389 -1.3817
 4715SOL     OW15564   5.942   6.724   2.144  0.0721  0.4028 -0.2226
 4715SOL    HW115565   5.952   6.798   2.204  0.6054  0.2822 -0.1609
 4715SOL    HW215566   5.847   6.714   2.134 -0.0072  0.9254 -0.0239
 4716SOL     OW15567   1.946   2.761   4.423 -0.6128  0.7906  0.1309
 4716SOL    HW115568   1.864   2.710   4.425  0.1923 -0.5565  0.0433
 4716SOL    HW215569   1.968   2.772   4.516 -1.0988  1.5300  0.1690
 4717SOL     OW15570   0.363   0.945   8.215  0.2765  0.3901 -0.0951
 4717SOL    HW115571   0.402   0.900   8.290  0.8434 -1.3258 -1.3620
 4717SOL    HW215572   0.270   0.920   8.218  0.3183  0.2405 -0.0437
 4718SOL     OW15573   4.455   3.322   4.484 -0.2777  0.4119 -0.0778
 4718SOL    HW115574   4.519   3.257   4.456 -0.4316 -0.1885  0.8977
 4718SOL    HW215575   4.417   3.285   4.564 -0.0018  1.9146  0.8021
 4719SOL     OW15576   4.063   5.769   5.415  0.2771 -0.6204  0.2845
 4719SOL    HW115577   4.006   5.695   5.394  0.3281 -0.2328 -1.3117
 4719SOL    HW215578   4.149   5.743   5.382 -0.2738  1.2662 -3.0348
 4720SOL     OW15579   1.490   8.267   8.075 -0.0023 -0.5706  0.1484
 4720SOL    HW115580   1.502   8.299   8.165  2.0812 -0.4279 -0.1292
 4720SOL    HW215581   1.575   8.281   8.033 -0.6648 -1.4664 -1.5963
 4721SOL     OW15582   7.712   5.378   7.224 -0.5562  0.5436  0.2249
 4721SOL    HW115583   7.700   5.408   7.134  0.0204 -0.1265 -0.0841
 4721SOL    HW215584   7.752   5.291   7.215 -0.7008  0.3791  1.1230
 4722SOL     OW15585   3.100   1.649   1.144 -0.7682  0.3818 -0.5116
 4722SOL    HW115586   3.008   1.631   1.164 -1.0751  0.0837 -2.0919
 4722SOL    HW215587   3.098   1.703   1.066  0.4227 -0.3993 -1.1180
 4723SOL     OW15588   5.755   0.894   2.426 -0.1272  0.0956 -0.0758
 4723SOL    HW115589   5.816   0.967   2.440  0.7728 -0.4242 -1.1351
 4723SOL    HW215590   5.680   0.935   2.382  0.6124  0.3126 -1.1749
 4724SOL     OW15591   1.296   5.958   1.568 -0.1319 -0.4770 -0.0949
 4724SOL    HW115592   1.212   5.953   1.612 -0.3514  1.4658 -0.2050
 4724SOL    HW215593   1.274   5.974   1.476  0.3505 -2.6575 -0.6382
 4725SOL     OW15594   2.851   5.921   5.153  0.4257 -0.2795 -0.3360
 4725SOL    HW115595   2.798   5.986   5.199  0.9657 -0.5814  0.7535
 4725SOL    HW215596   2.809   5.911   5.068  0.1302  1.2419 -0.3975
 4726SOL     OW15597   7.413   7.996   7.384  0.4978  0.8074  0.1642
 4726SOL    HW115598   7.329   7.982   7.428  0.1295 -0.4016 -0.8488
 4726SOL    HW215599   7.475   7.942   7.434  0.2078 -0.0606 -0.3914
 4727SOL     OW15600   6.205   8.267   3.886 -0.8715  0.2334  0.0191
 4727SOL    HW115601   6.295   8.237   3.904 -0.7903  1.1879  1.4214
 4727SOL    HW215602   6.160   8.189   3.854  0.4236 -0.2976 -0.6113
 4728SOL     OW15603   1.526   0.018   6.885  0.4091 -0.1358 -0.1047
 4728SOL    HW115604   1.506  -0.059   6.832 -1.0078 -0.5499  0.9759
 4728SOL    HW215605   1.458   0.081   6.864  2.3321  1.4347 -2.0205
 4729SOL     OW15606   7.123   1.777   2.377  0.1276 -0.0194 -0.1530
 4729SOL    HW115607   7.098   1.774   2.285 -1.5448  1.6225  0.1826
 4729SOL    HW215608   7.210   1.817   2.377  1.1829 -2.1679 -1.1162
 4730SOL     OW15609   2.848   4.630   5.280 -0.7397  0.4035  0.5725
 4730SOL    HW115610   2.941   4.633   5.258 -0.7717 -2.3538 -0.3417
 4730SOL    HW215611   2.846   4.628   5.376  0.2291 -0.5516  0.5873
 4731SOL     OW15612   3.094   0.720   4.634  0.2464  0.0692 -0.5791
 4731SOL    HW115613   3.001   0.697   4.637  0.0858  0.8414  0.7452
 4731SOL    HW215614   3.140   0.636   4.635 -0.3354 -0.3878  3.7672
 4732SOL     OW15615   8.066   0.131   0.736 -0.0240 -0.0126 -0.5173
 4732SOL    HW115616   8.049   0.225   0.745 -0.5585 -0.1103 -0.4586
 4732SOL    HW215617   8.062   0.115   0.642  2.9271  0.5292 -0.8161
 4733SOL     OW15618   1.838   2.683   0.317 -0.6338  0.6683  0.4627
 4733SOL    HW115619   1.811   2.775   0.324 -0.9201  0.7699 -1.4906
 4733SOL    HW215620   1.916   2.685   0.261 -0.6590 -0.2778  0.3723
 4734SOL     OW15621   6.698   7.694   7.365 -0.6476 -0.0162  0.4467
 4734SOL    HW115622   6.763   7.633   7.329 -1.1716  1.1875 -2.9390
 4734SOL    HW215623   6.615   7.648   7.357 -0.6319 -0.2235  1.4090
 4735SOL     OW15624   5.583   2.056   5.760  0.3441  0.7831  0.2507
 4735SOL    HW115625   5.648   2.009   5.708  0.9927  1.1413  0.7089
 4735SOL    HW215626   5.622   2.142   5.775  0.3575  0.5731  1.6273
 4736SOL     OW15627   5.337   5.691   8.055 -0.0231 -0.0836  0.2115
 4736SOL    HW115628   5.264   5.716   8.113 -2.4047 -2.1557 -1.6784
 4736SOL    HW215629   5.366   5.607   8.089  1.9873  0.9818  1.2865
 4737SOL     OW15630   3.299   6.668   4.294 -0.3746 -0.1905 -0.2292
 4737SOL    HW115631   3.336   6.664   4.382 -1.8125 -0.7365  0.3806
 4737SOL    HW215632   3.302   6.578   4.263  0.5918  0.0811 -0.9582
 4738SOL     OW15633   2.464   0.979   0.511  0.5649 -0.6102 -0.0708
 4738SOL    HW115634   2.554   0.983   0.479  0.3179  0.7214 -0.6318
 4738SOL    HW215635   2.467   1.020   0.597  0.7836 -2.0933  0.6711
 4739SOL     OW15636   3.586   2.921   3.223 -0.3982 -0.1085  0.6785
 4739SOL    HW115637   3.668   2.883   3.193  1.2509  1.8890  2.3445
 4739SOL    HW215638   3.587   3.010   3.188 -1.3953  0.2543  1.5330
 4740SOL     OW15639   0.460   2.430   2.504 -0.2733  0.7050 -0.0021
 4740SOL    HW115640   0.373   2.468   2.515 -1.1577 -0.6451 -1.7672
 4740SOL    HW215641   0.453   2.342   2.543 -0.3075 -0.1042 -1.7339
 4741SOL     OW15642   2.364   0.818   6.696  0.4676  0.7363 -0.2380
 4741SOL    HW115643   2.291   0.800   6.756  1.1023 -0.0534  0.3252
 4741SOL    HW215644   2.337   0.897   6.648 -0.2188  1.1787  0.8294
 4742SOL     OW15645   0.560   3.936   0.961  0.0363  0.0653 -0.1532
 4742SOL    HW115646   0.577   3.852   0.919 -1.5950 -0.3319 -0.0932
 4742SOL    HW215647   0.608   4.000   0.909 -1.9707 -0.3871 -2.7100
 4743SOL     OW15648   3.846   5.987   5.952  0.0280 -0.0726  0.1369
 4743SOL    HW115649   3.849   5.898   5.988 -2.1583 -0.0046  0.6417
 4743SOL    HW215650   3.832   6.043   6.028 -3.2494  0.1995 -0.5013
 4744SOL     OW15651   5.405   7.557   1.235  0.4720  0.6427 -0.0174
 4744SOL    HW115652   5.397   7.639   1.283 -1.4248  1.4620 -1.5798
 4744SOL    HW215653   5.480   7.512   1.275  0.4970  2.3465  1.9975
 4745SOL     OW15654   1.702   0.944   2.825  0.2471  0.0212 -0.0771
 4745SOL    HW115655   1.639   0.950   2.752  1.9355  0.1529 -1.5858
 4745SOL    HW215656   1.786   0.967   2.786  1.6165 -2.1113  1.3970
 4746SOL     OW15657   0.736   2.510   0.351  0.0128  0.0850 -0.0297
 4746SOL    HW115658   0.669   2.579   0.347  0.1533  0.1661 -1.6912
 4746SOL    HW215659   0.790   2.525   0.273  1.7749 -0.1908  1.0752
 4747SOL     OW15660   5.548   6.232   5.448 -0.3121 -0.0478 -0.4390
 4747SOL    HW115661   5.511   6.299   5.392  1.0765 -0.1340 -1.5248
 4747SOL    HW215662   5.641   6.256   5.456 -0.0953 -1.0421  0.3196
 4748SOL     OW15663   7.414   4.298   4.595 -0.8661  0.4975 -0.6076
 4748SOL    HW115664   7.321   4.319   4.589 -0.5952  1.4377 -1.7071
 4748SOL    HW215665   7.458   4.370   4.551  0.3484 -0.2700 -0.6827
 4749SOL     OW15666   2.559   8.036   6.283  0.0497  0.3341  0.4130
 4749SOL    HW115667   2.511   8.072   6.357 -0.9546 -0.3952  0.1266
 4749SOL    HW215668   2.650   8.061   6.300 -0.6300  3.6298 -0.1398
 4750SOL     OW15669   1.203   1.529   3.352 -0.1512 -0.5459  0.4776
 4750SOL    HW115670   1.197   1.433   3.359  0.2645 -0.6149 -0.0238
 4750SOL    HW215671   1.277   1.552   3.408  0.1713 -0.5916  0.0735
 4751SOL     OW15672   7.842   5.568   3.041 -0.4435  0.7058 -0.2257
 4751SOL    HW115673   7.880   5.612   3.116  0.1366 -0.9481  0.5045
 4751SOL    HW215674   7.914   5.560   2.978 -0.2867  0.0073  0.0301
 4752SOL     OW15675   3.984   8.183   5.546 -0.1487 -0.1550  0.3513
 4752SOL    HW115676   3.891   8.166   5.560 -0.5946  2.4005  0.9502
 4752SOL    HW215677   4.009   8.242   5.617  2.0095 -0.9173  0.3185
 4753SOL     OW15678   5.672   0.728   3.256  0.2593 -0.7228 -0.3207
 4753SOL    HW115679   5.629   0.679   3.326 -1.1262  3.5471  2.1642
 4753SOL    HW215680   5.611   0.724   3.183 -0.1167 -2.0531  0.0315
 4754SOL     OW15681   5.135   2.501   6.397  0.3601  0.0895  0.2925
 4754SOL    HW115682   5.160   2.580   6.444 -1.7539  1.1380 -0.2155
 4754SOL    HW215683   5.049   2.477   6.433 -0.0178 -0.7060 -1.0507
 4755SOL     OW15684   1.812   2.498   7.262  0.3649 -0.1598  0.4984
 4755SOL    HW115685   1.901   2.462   7.258  0.5790  0.2863  1.0948
 4755SOL    HW215686   1.801   2.525   7.353  0.5782  2.1761 -0.1135
 4756SOL     OW15687   8.104   2.866   7.963  0.0141  0.1219 -0.4243
 4756SOL    HW115688   8.131   2.827   8.046  0.7377 -0.0392 -0.7279
 4756SOL    HW215689   8.018   2.828   7.945 -0.3902  0.5531  0.5037
 4757SOL     OW15690   1.908   2.107   5.993  0.5077  0.3014 -0.4940
 4757SOL    HW115691   1.996   2.100   6.030  0.8079 -1.8774 -1.4258
 4757SOL    HW215692   1.922   2.108   5.898 -0.4269  0.8058 -0.6341
 4758SOL     OW15693   2.018   8.012   6.712 -0.6452 -0.1750  0.1586
 4758SOL    HW115694   1.929   8.047   6.711  0.2765  2.4043  0.6359
 4758SOL    HW215695   2.065   8.062   6.645 -0.2030 -3.6642 -2.3815
 4759SOL     OW15696   1.008   5.975   4.473 -0.3191 -0.3394  0.2952
 4759SOL    HW115697   1.080   5.949   4.415 -1.2785 -1.2949 -0.5268
 4759SOL    HW215698   0.964   5.892   4.493 -1.2143  0.2360  0.7260
 4760SOL     OW15699   0.243   1.846   3.137 -0.1156 -0.1405 -0.1367
 4760SOL    HW115700   0.178   1.811   3.199  0.1006 -1.6656 -0.7177
 4760SOL    HW215701   0.191   1.884   3.066 -0.3837 -0.6364 -0.2118
 4761SOL     OW15702   5.297   4.145   3.668 -0.3776  0.0631 -0.3179
 4761SOL    HW115703   5.328   4.170   3.580  0.9977  0.3981  0.2350
 4761SOL    HW215704   5.339   4.061   3.685 -0.0775  0.3280  0.2891
 4762SOL     OW15705   6.172   0.870   5.312 -0.6468 -0.2446 -0.4375
 4762SOL    HW115706   6.195   0.809   5.382 -0.4899  0.0059 -0.2655
 4762SOL    HW215707   6.256   0.908   5.286 -0.7668  0.0584 -0.3866
 4763SOL     OW15708   1.874   2.465   2.385  0.1968 -0.2938  0.6412
 4763SOL    HW115709   1.896   2.387   2.335  0.2604  0.1327 -0.0072
 4763SOL    HW215710   1.954   2.518   2.384 -0.0564  0.0963  0.4717
 4764SOL     OW15711   4.895   4.220   4.043  0.0107  0.1006  0.4040
 4764SOL    HW115712   4.907   4.284   4.113 -0.7393  0.9370 -0.2029
 4764SOL    HW215713   4.895   4.272   3.962 -0.3063 -0.6961 -0.1317
 4765SOL     OW15714   7.920   2.110   6.760  0.2766 -0.2657  0.3792
 4765SOL    HW115715   8.014   2.104   6.746  0.7735  0.6177  2.8660
 4765SOL    HW215716   7.895   2.195   6.724  0.4925 -0.3716 -0.0184
 4766SOL     OW15717   4.006   4.579   2.082  0.4046 -0.3720 -0.0595
 4766SOL    HW115718   4.078   4.556   2.025  0.7777  0.7413 -0.0678
 4766SOL    HW215719   4.013   4.674   2.092 -0.1227 -0.4485  1.2007
 4767SOL     OW15720   5.712   2.581   2.533 -0.0596  0.3310 -0.0785
 4767SOL    HW115721   5.753   2.503   2.569 -0.9089 -0.2996 -0.4584
 4767SOL    HW215722   5.720   2.571   2.438 -0.2155  0.6842 -0.1333
 4768SOL     OW15723   7.114   5.860   6.644  0.4894  0.0888 -0.0445
 4768SOL    HW115724   7.047   5.926   6.662  1.4434  1.3976 -1.0989
 4768SOL    HW215725   7.074   5.802   6.579  0.7896  1.6796 -1.7396
 4769SOL     OW15726   2.046   3.316   6.416  0.5764  0.0143  0.0508
 4769SOL    HW115727   2.028   3.265   6.495 -0.8652  0.3424 -0.0388
 4769SOL    HW215728   2.137   3.345   6.426  0.2574  0.4767  1.8300
 4770SOL     OW15729   6.279   3.700   6.243 -0.0640 -0.2956 -0.0868
 4770SOL    HW115730   6.314   3.750   6.170  0.7141 -0.9145 -0.1492
 4770SOL    HW215731   6.355   3.685   6.300 -1.1026  2.5886  2.3231
 4771SOL     OW15732   5.400   1.521   0.550  0.0827 -0.2235 -0.1694
 4771SOL    HW115733   5.460   1.494   0.620 -0.1189 -0.7073 -0.1808
 4771SOL    HW215734   5.407   1.452   0.484 -0.2385 -0.1152 -0.3206
 4772SOL     OW15735   5.086   2.086   6.347  0.3852 -0.3294  0.3127
 4772SOL    HW115736   5.071   2.142   6.270 -0.5164 -0.9397  0.0347
 4772SOL    HW215737   5.178   2.102   6.370  0.0067  1.7281  0.6142
 4773SOL     OW15738   1.114   2.778   6.649  0.4428  0.1893 -0.3036
 4773SOL    HW115739   1.126   2.871   6.667 -2.1764  0.6190 -0.3724
 4773SOL    HW215740   1.134   2.735   6.733 -0.5630  1.0581  0.4103
 4774SOL     OW15741   6.578   6.034   0.966  0.2850 -0.0720  0.2393
 4774SOL    HW115742   6.592   6.074   0.880 -0.4012  0.4296  0.3481
 4774SOL    HW215743   6.659   5.987   0.985 -0.9665 -3.8241 -2.5637
 4775SOL     OW15744   4.290   5.593   0.668  0.1729  0.5860 -0.4605
 4775SOL    HW115745   4.384   5.600   0.687 -0.2428 -0.6900  2.8396
 4775SOL    HW215746   4.251   5.667   0.714 -0.6208 -0.3043  0.3443
 4776SOL     OW15747   7.227   0.657   2.387  0.1795 -0.0050 -0.0816
 4776SOL    HW115748   7.193   0.580   2.433 -0.5045  0.3961  0.0997
 4776SOL    HW215749   7.149   0.700   2.351  0.6204  0.1989 -0.8249
 4777SOL     OW15750   1.939   8.274   8.217  0.3450 -0.5271 -0.0631
 4777SOL    HW115751   1.913   8.264   8.309 -0.1883  1.2329  0.0166
 4777SOL    HW215752   1.928   8.187   8.179  1.0314 -1.4079  1.6419
 4778SOL     OW15753   0.445   6.511   5.812  0.5278  0.3929  0.4168
 4778SOL    HW115754   0.455   6.598   5.772 -0.4226  0.4442  0.2640
 4778SOL    HW215755   0.450   6.528   5.906 -2.3778  1.0749  0.5523
 4779SOL     OW15756   7.874   4.278   7.951  0.3138 -0.0164 -0.2532
 4779SOL    HW115757   7.955   4.326   7.933  0.9356 -1.1471 -0.5206
 4779SOL    HW215758   7.900   4.206   8.008 -0.7642  0.4507  0.9031
 4780SOL     OW15759   0.860   6.294   1.133  0.3250  0.1213  0.1602
 4780SOL    HW115760   0.918   6.241   1.188  0.1197  1.3377  1.6302
 4780SOL    HW215761   0.919   6.346   1.079  0.5793  0.1462  0.4570
 4781SOL     OW15762   1.825   5.282   5.956  0.0735 -0.4613  0.3941
 4781SOL    HW115763   1.796   5.266   6.046  1.0519 -0.2703  0.7576
 4781SOL    HW215764   1.903   5.336   5.965 -0.1104 -0.0041 -0.5999
 4782SOL     OW15765   2.834   7.219   5.754 -0.1928  0.8215 -0.4233
 4782SOL    HW115766   2.830   7.314   5.766  2.7969  1.3146 -2.1506
 4782SOL    HW215767   2.748   7.196   5.719 -0.4737  3.2337 -1.5774
 4783SOL     OW15768   2.796   3.253   3.041  0.3974  0.2880 -0.3114
 4783SOL    HW115769   2.731   3.184   3.059  3.0847 -1.6131  3.5851
 4783SOL    HW215770   2.745   3.334   3.042 -2.4261 -1.3251 -1.5448
 4784SOL     OW15771   1.393   6.424   7.954 -0.4466 -0.3416 -1.1170
 4784SOL    HW115772   1.334   6.479   7.903  0.3162  0.0379 -1.6050
 4784SOL    HW215773   1.402   6.344   7.903 -1.9740 -1.1932 -0.1579
 4785SOL     OW15774   8.171   2.157   3.803  0.2155  0.2055  0.5763
 4785SOL    HW115775   8.082   2.191   3.810  0.5240  1.5311 -1.2161
 4785SOL    HW215776   8.160   2.065   3.778 -0.6653  0.4116  0.1819
 4786SOL     OW15777   3.249   7.795   1.605 -0.4490  0.3201 -0.4432
 4786SOL    HW115778   3.266   7.853   1.530 -0.5663  0.3651 -0.4354
 4786SOL    HW215779   3.157   7.769   1.594 -1.0668  1.8573  0.7324
 4787SOL     OW15780   3.900   5.877   2.337  0.0099 -0.0037  0.5620
 4787SOL    HW115781   3.870   5.961   2.299  1.1480  0.0523 -0.2584
 4787SOL    HW215782   3.821   5.824   2.340 -0.4723  0.6308 -0.2249
 4788SOL     OW15783   0.963   4.807   5.868  0.0940  0.1044 -0.1691
 4788SOL    HW115784   1.008   4.748   5.809 -1.6742 -1.3658 -0.1283
 4788SOL    HW215785   1.004   4.893   5.853  0.2391 -0.3866 -2.9145
 4789SOL     OW15786   3.382   5.955   1.999  0.6305  0.0185  0.0021
 4789SOL    HW115787   3.346   5.909   1.923 -0.7172 -0.1065  0.6862
 4789SOL    HW215788   3.340   6.041   1.997  1.6010  0.5094 -0.1228
 4790SOL     OW15789   0.075   6.891   4.590 -0.1682  0.2772  0.0051
 4790SOL    HW115790   0.053   6.914   4.500  0.0068 -0.2728 -0.1821
 4790SOL    HW215791   0.169   6.872   4.588  0.0287  1.1376  0.4911
 4791SOL     OW15792   4.399   1.270   4.369  0.0973 -0.3053 -0.4967
 4791SOL    HW115793   4.305   1.285   4.377  0.0428 -0.6837 -0.4040
 4791SOL    HW215794   4.438   1.357   4.371 -0.2278 -0.1648 -0.2084
 4792SOL     OW15795   3.885   0.652   5.719 -0.2886  0.4643 -0.2675
 4792SOL    HW115796   3.827   0.728   5.725 -0.1840  0.5185  0.0679
 4792SOL    HW215797   3.827   0.579   5.699 -0.1752  0.9536 -2.7410
 4793SOL     OW15798   4.234   5.700   6.415  0.5933  0.0486 -0.0531
 4793SOL    HW115799   4.267   5.790   6.424 -0.1746  0.4501 -1.0252
 4793SOL    HW215800   4.313   5.647   6.409  1.0615  0.6870  0.2839
 4794SOL     OW15801   3.056   6.196   7.737 -0.2002 -0.2594 -0.5317
 4794SOL    HW115802   3.039   6.266   7.673 -0.3964 -0.6030 -0.8556
 4794SOL    HW215803   3.146   6.169   7.720 -0.1987 -0.2424 -0.5513
 4795SOL     OW15804   0.384   7.900   0.210 -0.3063  0.4319 -0.7393
 4795SOL    HW115805   0.455   7.850   0.172 -0.1263  0.7004 -0.7614
 4795SOL    HW215806   0.312   7.891   0.148 -0.1886  0.4223 -0.8746
 4796SOL     OW15807   4.295   2.175   1.134  0.2818 -0.4377  0.1512
 4796SOL    HW115808   4.275   2.119   1.210  0.2186 -0.4609  0.1174
 4796SOL    HW215809   4.210   2.190   1.093  0.1446  0.5212  0.7411
 4797SOL     OW15810   0.408   6.314   4.753 -0.0939  0.0989  0.2125
 4797SOL    HW115811   0.489   6.333   4.800 -0.4378 -0.5198  1.1123
 4797SOL    HW215812   0.398   6.385   4.690  1.6726 -0.3630 -0.6442
 4798SOL     OW15813   0.857   4.285   1.160 -0.2072  0.0801 -0.6676
 4798SOL    HW115814   0.794   4.352   1.132 -2.3836 -0.9663  1.3280
 4798SOL    HW215815   0.877   4.236   1.080 -0.8498  1.2844 -1.6111
 4799SOL     OW15816   0.056   4.958   2.273 -0.2492  0.3183  0.4421
 4799SOL    HW115817   0.095   4.872   2.258 -0.0936  0.3420  0.6987
 4799SOL    HW215818   0.064   4.972   2.367  1.3911  1.4003  0.1791
 4800SOL     OW15819   3.747   2.122   5.887 -0.6676 -0.4393  0.2735
 4800SOL    HW115820   3.677   2.080   5.938  0.2076 -0.9042  1.1088
 4800SOL    HW215821   3.813   2.145   5.951 -0.2458  0.4291 -0.4553
 4801SOL     OW15822   6.063   7.736   6.606 -0.1558  0.3801 -0.3450
 4801SOL    HW115823   6.063   7.772   6.695  0.3564  1.6787 -0.8321
 4801SOL    HW215824   6.013   7.655   6.612 -1.8708  1.4537  0.7285
 4802SOL     OW15825   2.573   3.857   8.182 -0.0043  0.2816  0.3348
 4802SOL    HW115826   2.498   3.879   8.237 -1.5532  2.0614 -2.2814
 4802SOL    HW215827   2.643   3.916   8.212 -0.0025 -0.4811  1.9285
 4803SOL     OW15828   7.941   5.748   5.265  0.0310 -0.0754 -0.3172
 4803SOL    HW115829   7.902   5.661   5.275 -0.9304  0.4219  0.4127
 4803SOL    HW215830   7.969   5.751   5.173  0.5348 -1.3257 -0.2340
 4804SOL     OW15831   4.513   0.781   6.633 -0.0943  0.1193  0.8167
 4804SOL    HW115832   4.583   0.730   6.592 -1.0122  0.6542 -1.5591
 4804SOL    HW215833   4.547   0.870   6.635 -0.1587  0.1402  1.0185
 4805SOL     OW15834   5.944   1.712   0.076 -0.3874  0.5852 -0.0373
 4805SOL    HW115835   5.965   1.804   0.093  1.0208  0.2741 -0.0215
 4805SOL    HW215836   6.027   1.666   0.082 -0.7734 -0.4456 -1.7845
 4806SOL     OW15837   2.981   2.737   1.853 -0.4089  0.2852  0.0466
 4806SOL    HW115838   2.912   2.673   1.868 -0.4743  0.5451  0.9353
 4806SOL    HW215839   3.060   2.697   1.888 -0.7249  1.2489  2.0366
 4807SOL     OW15840   2.773   1.338   6.993 -0.1585 -0.2452  0.1917
 4807SOL    HW115841   2.793   1.312   7.083  0.7372  0.6412  0.2547
 4807SOL    HW215842   2.840   1.402   6.970  0.6894 -1.6814 -1.7063
 4808SOL     OW15843   3.596   2.079   5.311  0.1210 -0.9204 -0.1788
 4808SOL    HW115844   3.633   2.037   5.233  0.4906  0.8792 -1.0397
 4808SOL    HW215845   3.656   2.152   5.329 -1.2828  0.1529  0.3167
 4809SOL     OW15846   3.095   0.061   1.565  0.2378  0.2435  0.0700
 4809SOL    HW115847   3.136  -0.016   1.604  0.1024  0.0147 -0.2348
 4809SOL    HW215848   3.150   0.083   1.490 -0.1996 -0.0887 -0.3638
 4810SOL     OW15849   3.559   0.005   6.620 -0.1655  0.2071 -0.1114
 4810SOL    HW115850   3.606  -0.002   6.537 -1.9085 -1.3814 -1.0440
 4810SOL    HW215851   3.625   0.034   6.683  2.0418 -1.7869 -1.3570
 4811SOL     OW15852   0.920   7.648   1.951 -0.4615  0.2932  0.6867
 4811SOL    HW115853   0.968   7.629   1.870  0.0294 -0.2668  1.0941
 4811SOL    HW215854   0.867   7.569   1.966 -0.7784  0.5189  0.7474
 4812SOL     OW15855   2.187   1.527   6.608  0.5180 -0.1759 -0.2283
 4812SOL    HW115856   2.193   1.531   6.512  0.2664 -1.4918 -0.3166
 4812SOL    HW215857   2.093   1.526   6.626  0.5615 -0.4410 -0.0048
 4813SOL     OW15858   1.153   2.236   7.086 -0.0361 -0.2340 -0.1918
 4813SOL    HW115859   1.181   2.148   7.112  0.0649  0.2037  1.3093
 4813SOL    HW215860   1.135   2.229   6.993 -3.1323 -2.6807  0.4226
 4814SOL     OW15861   4.535   6.477   2.294 -0.1198  0.7057  0.0024
 4814SOL    HW115862   4.569   6.551   2.345 -1.7108  1.6926 -0.2974
 4814SOL    HW215863   4.575   6.487   2.208  1.2465  0.0153  0.5286
 4815SOL     OW15864   6.599   2.375   5.387 -0.6574  0.6628  0.1017
 4815SOL    HW115865   6.620   2.456   5.341  1.6714  0.7008  1.0933
 4815SOL    HW215866   6.630   2.305   5.329 -0.7404  0.5664  0.1721
 4816SOL     OW15867   1.002   1.493   0.510 -0.0896  0.0245  0.3975
 4816SOL    HW115868   0.944   1.553   0.464 -0.9987 -1.1087  0.0125
 4816SOL    HW215869   0.990   1.515   0.603  0.1022  0.8726  0.2280
 4817SOL     OW15870   4.676   5.624   4.593  0.1514  0.4112  0.4413
 4817SOL    HW115871   4.690   5.717   4.571  0.2499  0.2543 -0.1781
 4817SOL    HW215872   4.586   5.620   4.624  0.0652  0.6714  0.2259
 4818SOL     OW15873   7.327   7.017   3.273  0.2422 -0.1146  0.3445
 4818SOL    HW115874   7.407   6.976   3.241  0.5049  0.5335  0.1815
 4818SOL    HW215875   7.275   7.033   3.195  0.7308  1.1340  0.2575
 4819SOL     OW15876   2.810   1.088   0.082 -0.2433  0.1151 -0.3300
 4819SOL    HW115877   2.898   1.053   0.096  0.0537  0.2558 -1.7717
 4819SOL    HW215878   2.824   1.178   0.054 -0.6200 -0.7708 -3.8094
 4820SOL     OW15879   2.509   2.682   6.615 -0.0761  0.9033 -0.0993
 4820SOL    HW115880   2.538   2.632   6.692  0.1224 -0.8464 -1.2544
 4820SOL    HW215881   2.430   2.728   6.645 -0.3088 -0.1589  1.0330
 4821SOL     OW15882   4.750   0.538   2.665 -1.0008  0.3518  0.1641
 4821SOL    HW115883   4.790   0.549   2.579  0.1097 -1.4043  0.4044
 4821SOL    HW215884   4.688   0.465   2.654 -0.4773 -0.2261  0.9437
 4822SOL     OW15885   3.069   5.704   6.534 -0.9194 -0.2894 -0.0249
 4822SOL    HW115886   3.136   5.764   6.500 -0.4752 -1.5941 -1.5501
 4822SOL    HW215887   3.002   5.703   6.466 -0.9002 -1.5273 -0.0366
 4823SOL     OW15888   5.946   3.420   0.423  0.2846 -0.0634 -0.2969
 4823SOL    HW115889   5.852   3.427   0.443  0.4925  2.3235  0.1819
 4823SOL    HW215890   5.989   3.463   0.497  1.6047  0.9263 -1.5930
 4824SOL     OW15891   2.493   0.887   3.363  0.4209 -0.3773 -0.1315
 4824SOL    HW115892   2.520   0.963   3.312 -1.0387  1.0557  1.1276
 4824SOL    HW215893   2.481   0.921   3.452 -0.3332 -2.0632  0.4492
 4825SOL     OW15894   0.385   2.148   2.577 -0.0726  0.4830  0.1928
 4825SOL    HW115895   0.411   2.122   2.666 -3.8843 -0.7594  1.1046
 4825SOL    HW215896   0.400   2.069   2.524 -1.9238 -0.3025  0.7613
 4826SOL     OW15897   1.025   3.245   5.816  0.1402  0.3380  0.0683
 4826SOL    HW115898   1.110   3.215   5.849  0.1076  0.5708  0.3720
 4826SOL    HW215899   0.964   3.175   5.840  0.5004 -0.5717 -1.5342
 4827SOL     OW15900   3.230   6.640   5.401  0.6371  0.1209 -0.0760
 4827SOL    HW115901   3.306   6.694   5.422  0.6602 -0.1422  0.5491
 4827SOL    HW215902   3.255   6.551   5.427  0.0847  0.0503  0.2465
 4828SOL     OW15903   0.997   8.195   3.826 -0.2902 -0.3599  0.4561
 4828SOL    HW115904   1.047   8.114   3.814  0.3956 -0.1363  1.6236
 4828SOL    HW215905   1.044   8.261   3.774  0.2358 -0.3097  0.9866
 4829SOL     OW15906   3.696   7.836   6.259 -0.1535  0.3052  0.1981
 4829SOL    HW115907   3.714   7.872   6.346  0.1509 -1.5155  0.9443
 4829SOL    HW215908   3.775   7.854   6.209 -0.1952  1.0800  0.4040
 4830SOL     OW15909   3.550   4.248   0.580 -0.1281  0.3041  0.3672
 4830SOL    HW115910   3.596   4.166   0.593  0.0238  0.0863 -1.3908
 4830SOL    HW215911   3.457   4.225   0.586 -0.0963 -0.0890 -0.5860
 4831SOL     OW15912   6.691   4.772   3.350 -0.5788  0.2163  0.4537
 4831SOL    HW115913   6.757   4.841   3.344 -1.1061  0.6871 -0.0772
 4831SOL    HW215914   6.706   4.731   3.435  2.6555 -1.9733 -0.9496
 4832SOL     OW15915   4.189   0.468   1.807  0.2400  0.1609  0.2913
 4832SOL    HW115916   4.255   0.427   1.863 -1.1358 -0.2719  1.6527
 4832SOL    HW215917   4.185   0.412   1.729  0.4580 -0.6049  0.8276
 4833SOL     OW15918   4.706   2.351   4.943 -0.3672  0.2716  0.1520
 4833SOL    HW115919   4.672   2.262   4.940  0.9675 -0.2220 -1.5999
 4833SOL    HW215920   4.799   2.340   4.966 -0.0632  1.1461 -0.6092
 4834SOL     OW15921   7.933   3.373   7.268  1.1107 -1.0069  0.3835
 4834SOL    HW115922   7.884   3.389   7.187  2.8572 -0.0792 -0.5427
 4834SOL    HW215923   7.889   3.426   7.334 -0.4384 -1.9052  0.1230
 4835SOL     OW15924   7.857   2.896   4.936  0.3002 -0.0740  0.0535
 4835SOL    HW115925   7.928   2.906   4.999  0.1645 -1.3750  0.4547
 4835SOL    HW215926   7.854   2.802   4.919 -0.1644  0.1687 -1.3233
 4836SOL     OW15927   3.497   6.348   2.082  0.2406 -0.1723 -0.6763
 4836SOL    HW115928   3.562   6.396   2.031 -0.4629  1.7654  0.1692
 4836SOL    HW215929   3.509   6.379   2.172  1.2887 -3.3193  0.4233
 4837SOL     OW15930   5.590   4.099   5.073 -0.3405 -0.0234  0.0250
 4837SOL    HW115931   5.526   4.029   5.058  1.8125 -2.2616  0.5950
 4837SOL    HW215932   5.654   4.088   5.003  1.3546 -0.2706  1.5573
 4838SOL     OW15933   7.896   1.095   2.902  0.3489  0.0405 -0.1132
 4838SOL    HW115934   7.842   1.039   2.958 -0.8965  0.1149 -1.1980
 4838SOL    HW215935   7.902   1.177   2.951 -1.3926  0.3779 -0.3890
 4839SOL     OW15936   5.758   5.529   0.956 -0.4165  0.2862  0.0244
 4839SOL    HW115937   5.816   5.551   1.028 -2.8044  0.8662  1.9226
 4839SOL    HW215938   5.687   5.593   0.963 -2.3346 -1.6292 -0.8039
 4840SOL     OW15939   3.773   2.492   3.694 -0.4282 -0.5417  0.0267
 4840SOL    HW115940   3.720   2.454   3.764 -0.4293 -2.0031 -0.7359
 4840SOL    HW215941   3.757   2.586   3.701 -0.0396 -0.5951  2.2967
 4841SOL     OW15942   1.711   2.860   2.720 -1.0016 -0.5700 -0.0490
 4841SOL    HW115943   1.652   2.863   2.796 -1.9570 -0.6845 -0.7639
 4841SOL    HW215944   1.705   2.947   2.682 -0.4334 -0.4781  0.0682
 4842SOL     OW15945   6.127   4.472   5.010 -0.2651  0.1276  0.4006
 4842SOL    HW115946   6.064   4.400   5.014 -0.7484  0.5813  1.1194
 4842SOL    HW215947   6.099   4.533   5.077  0.0818  1.0489 -0.2647
 4843SOL     OW15948   5.013   1.134   2.470 -0.5176 -0.1132 -0.3250
 4843SOL    HW115949   5.006   1.134   2.566  1.8746 -0.8362 -0.0740
 4843SOL    HW215950   4.960   1.209   2.442 -1.4375  0.0017  1.5230
 4844SOL     OW15951   8.252   3.081   2.293 -0.5002 -0.2557 -0.7917
 4844SOL    HW115952   8.247   3.163   2.244 -1.5295  0.4652  0.4567
 4844SOL    HW215953   8.306   3.101   2.369 -0.3374 -0.8811 -0.7341
 4845SOL     OW15954   0.361   5.163   7.502 -0.3185 -0.5061 -0.6074
 4845SOL    HW115955   0.279   5.115   7.512 -0.7404  0.1094 -1.0472
 4845SOL    HW215956   0.334   5.253   7.485  0.4643  0.2625  1.9025
 4846SOL     OW15957   6.226   7.433   8.190  0.0400 -0.0514 -0.1378
 4846SOL    HW115958   6.136   7.420   8.160  0.3156 -1.8717 -0.2807
 4846SOL    HW215959   6.259   7.505   8.136 -1.0670  0.0990 -0.6461
 4847SOL     OW15960   6.662   2.487   7.267  0.6116 -0.3160 -0.0075
 4847SOL    HW115961   6.655   2.582   7.280 -1.7872 -0.5952  1.2197
 4847SOL    HW215962   6.595   2.466   7.203 -0.3354 -1.4173  1.2933
 4848SOL     OW15963   4.633   6.164   4.872  0.1747 -0.6179  0.3837
 4848SOL    HW115964   4.646   6.252   4.908 -0.5434 -1.0296  1.7222
 4848SOL    HW215965   4.715   6.119   4.890  0.8491 -0.0128 -1.0280
 4849SOL     OW15966   6.567   4.908   1.512  0.2938  0.2482  0.4996
 4849SOL    HW115967   6.472   4.919   1.510  0.2700  1.0290  2.9471
 4849SOL    HW215968   6.601   4.996   1.495  0.5555  0.1267  0.3992
 4850SOL     OW15969   1.713   2.360   1.767 -0.6420  0.0254 -0.3643
 4850SOL    HW115970   1.690   2.395   1.681  1.7543  0.6783 -0.8015
 4850SOL    HW215971   1.744   2.271   1.749 -0.7170 -0.0613 -0.0719
 4851SOL     OW15972   0.788   3.892   7.444  0.0206  0.4728 -0.5756
 4851SOL    HW115973   0.766   3.894   7.351 -3.0413  1.6538  0.0476
 4851SOL    HW215974   0.831   3.807   7.457 -0.0942 -0.0002 -2.9273
 4852SOL     OW15975   2.549   5.406   1.937  0.1155  0.4651  0.2568
 4852SOL    HW115976   2.477   5.378   1.882 -0.9228  1.5273  1.0044
 4852SOL    HW215977   2.627   5.367   1.898 -0.8701 -0.7870 -0.5174
 4853SOL     OW15978   4.766   0.978   4.326 -0.0351 -0.0762  0.1187
 4853SOL    HW115979   4.831   0.997   4.394 -0.4389 -0.4377  0.6132
 4853SOL    HW215980   4.682   0.980   4.372 -0.2662 -0.8698 -0.2538
 4854SOL     OW15981   0.284   6.352   1.632  0.4525  0.0931  0.3472
 4854SOL    HW115982   0.246   6.289   1.571 -0.3697 -0.2660  1.2034
 4854SOL    HW215983   0.295   6.302   1.713  0.4543  0.8615  0.8266
 4855SOL     OW15984   0.018   2.234   8.091  0.0503  0.2033 -0.2030
 4855SOL    HW115985  -0.043   2.305   8.114 -0.5741 -1.1448  2.6903
 4855SOL    HW215986  -0.026   2.154   8.118  1.8900 -1.1092 -0.8499
 4856SOL     OW15987   1.133   3.503   6.898 -0.1569 -0.1279 -0.6067
 4856SOL    HW115988   1.070   3.436   6.926  0.3093 -0.6573 -0.7911
 4856SOL    HW215989   1.086   3.586   6.908 -1.2179 -0.5718 -1.6189
 4857SOL     OW15990   4.195   6.019   1.395 -0.2785 -0.2279  0.2162
 4857SOL    HW115991   4.225   6.109   1.404  1.4351 -0.8008  0.7587
 4857SOL    HW215992   4.160   5.996   1.481  1.6656 -0.8265  0.9158
 4858SOL     OW15993   4.354   0.194   2.638  0.2707  0.4947  0.6506
 4858SOL    HW115994   4.276   0.218   2.588  1.2865  0.0686 -1.2609
 4858SOL    HW215995   4.322   0.136   2.707 -0.9745 -0.9733 -1.0489
 4859SOL     OW15996   5.316   5.535   0.399  0.1631  0.0606 -0.5536
 4859SOL    HW115997   5.404   5.501   0.413 -1.1486 -3.4990  0.1283
 4859SOL    HW215998   5.268   5.512   0.479 -1.9265 -0.2376 -1.7914
 4860SOL     OW15999   4.893   0.960   6.605 -0.1208 -0.0038  0.2702
 4860SOL    HW116000   4.929   1.048   6.613 -2.3175  0.9426  0.3177
 4860SOL    HW216001   4.932   0.926   6.525  0.6436  1.0536  0.1669
 4861SOL     OW16002   7.337   5.429   8.005 -0.4393  0.1140 -0.4842
 4861SOL    HW116003   7.283   5.503   8.035 -0.7299 -0.6609  0.9770
 4861SOL    HW216004   7.427   5.456   8.025 -0.5816 -0.1168  0.5386
 4862SOL     OW16005   3.820   5.422   7.115  0.0878  0.1418 -0.4742
 4862SOL    HW116006   3.807   5.350   7.177  2.0860  0.6332  0.6402
 4862SOL    HW216007   3.753   5.487   7.139 -0.2517 -0.3937  0.0484
 4863SOL     OW16008   3.436   0.731   3.539 -0.1797 -0.8186 -0.0532
 4863SOL    HW116009   3.517   0.696   3.504 -1.3865 -2.5853 -1.2483
 4863SOL    HW216010   3.371   0.663   3.522 -2.7602  1.9964 -2.7410
 4864SOL     OW16011   0.163   4.429   0.759 -0.1684 -0.2383  0.1516
 4864SOL    HW116012   0.250   4.416   0.797  0.4643  1.1030 -0.7557
 4864SOL    HW216013   0.129   4.507   0.803 -0.9241 -0.7461  0.4903
 4865SOL     OW16014   7.575   3.830   1.383 -0.1699  0.1936  0.0737
 4865SOL    HW116015   7.618   3.913   1.363 -1.2754  1.5820  2.8714
 4865SOL    HW216016   7.546   3.797   1.298 -0.1437  2.9492 -1.1189
 4866SOL     OW16017   7.875   7.199   8.356  0.1056 -0.3578  0.3341
 4866SOL    HW116018   7.966   7.206   8.384  0.7470  1.8038 -1.9431
 4866SOL    HW216019   7.827   7.259   8.413  0.4248 -0.0985  0.3279
 4867SOL     OW16020   3.731   3.722   2.706 -0.3087 -0.1257 -0.2563
 4867SOL    HW116021   3.671   3.679   2.645 -3.0230  0.9353  1.4815
 4867SOL    HW216022   3.744   3.809   2.669  1.0707 -0.6875 -1.1609
 4868SOL     OW16023   3.190   0.761   7.062  0.7855 -0.3872 -0.0594
 4868SOL    HW116024   3.135   0.823   7.109  2.5622  1.5723 -0.4222
 4868SOL    HW216025   3.144   0.746   6.979  0.1799  0.2096  0.1579
 4869SOL     OW16026   6.852   6.776   4.333 -0.2296 -0.5266  0.0342
 4869SOL    HW116027   6.913   6.763   4.405  0.3404 -0.7691 -0.4771
 4869SOL    HW216028   6.775   6.724   4.355 -0.3565 -0.0265  0.8022
 4870SOL     OW16029   0.115   2.471   2.529 -0.5542 -0.4159  0.3910
 4870SOL    HW116030   0.123   2.486   2.623 -3.7145 -0.9516  0.8696
 4870SOL    HW216031   0.090   2.379   2.521 -2.4194  0.1248 -0.7453
 4871SOL     OW16032   0.963   8.131   0.876  0.3149 -0.2231 -0.0583
 4871SOL    HW116033   0.976   8.128   0.971  1.2013  0.4091 -0.1395
 4871SOL    HW216034   0.923   8.047   0.854  1.1735 -0.8663  0.7362
 4872SOL     OW16035   1.516   7.071   6.263  0.2076 -0.7743  0.0462
 4872SOL    HW116036   1.468   7.024   6.331 -2.9013  1.2169 -0.5755
 4872SOL    HW216037   1.547   7.151   6.306  0.8697 -0.9188 -0.1539
 4873SOL     OW16038   5.420   8.059   5.128 -0.3836 -0.2350 -0.7918
 4873SOL    HW116039   5.355   7.991   5.110 -0.8976 -0.0496  0.3209
 4873SOL    HW216040   5.489   8.015   5.177 -1.6080  0.3784  1.6342
 4874SOL     OW16041   2.813   7.192   1.575 -0.2711 -0.0707 -0.2893
 4874SOL    HW116042   2.881   7.187   1.508 -1.2196  0.8108 -1.3680
 4874SOL    HW216043   2.765   7.109   1.568  0.2487 -0.3998 -0.0006
 4875SOL     OW16044   0.489   3.000   6.411  0.2071 -0.3617 -0.9443
 4875SOL    HW116045   0.572   2.962   6.380  0.4452  0.7131 -1.6754
 4875SOL    HW216046   0.471   2.953   6.492  1.6559 -0.4809 -0.6553
 4876SOL     OW16047   6.382   7.823   2.361  0.3692  0.1667  0.5223
 4876SOL    HW116048   6.318   7.771   2.312  2.2334 -3.4468  1.6094
 4876SOL    HW216049   6.341   7.837   2.446 -0.1032  0.4586  0.2556
 4877SOL     OW16050   7.873   5.778   2.691  0.0144 -0.4001 -0.1175
 4877SOL    HW116051   7.915   5.695   2.669 -0.2209 -0.7496  0.7422
 4877SOL    HW216052   7.933   5.820   2.753  0.4199  0.3489 -0.9877
 4878SOL     OW16053   0.111   8.293   4.832 -0.4015 -0.0457 -0.1354
 4878SOL    HW116054   0.073   8.326   4.750  0.1459 -0.5402 -0.6062
 4878SOL    HW216055   0.048   8.227   4.862 -1.2600  1.0653  0.5561
 4879SOL     OW16056   1.146   1.874   8.125 -0.6003  0.1794  0.0129
 4879SOL    HW116057   1.135   1.793   8.174 -0.9915 -0.1045 -0.5382
 4879SOL    HW216058   1.235   1.870   8.090 -0.3683  0.3195  0.5740
 4880SOL     OW16059   7.959   4.428   7.037  0.2473  0.0563 -0.1997
 4880SOL    HW116060   7.980   4.390   6.952 -1.7207  0.9645 -1.1568
 4880SOL    HW216061   7.865   4.445   7.033  0.5327  2.4579  1.1870
 4881SOL     OW16062   5.639   7.866   0.833 -0.5536 -0.5922  0.3014
 4881SOL    HW116063   5.612   7.957   0.820  0.9166 -0.3465 -1.4948
 4881SOL    HW216064   5.721   7.872   0.882  1.4334 -0.6028 -2.7315
 4882SOL     OW16065   3.527   7.753   4.718  0.5371 -0.2031 -0.0758
 4882SOL    HW116066   3.474   7.759   4.798 -0.6558  0.8858 -0.9172
 4882SOL    HW216067   3.464   7.729   4.650  1.0385  1.4024 -1.1559
 4883SOL     OW16068   0.330   7.718   2.548  0.2726  0.0895 -0.2769
 4883SOL    HW116069   0.400   7.745   2.489 -0.0910  0.9044 -0.3374
 4883SOL    HW216070   0.365   7.734   2.636  0.3316  0.0620 -0.2949
 4884SOL     OW16071   0.844   8.173   7.587 -0.1796  0.6082 -0.5842
 4884SOL    HW116072   0.794   8.255   7.591 -0.7688  0.2119  1.8176
 4884SOL    HW216073   0.914   8.184   7.651 -1.4580 -1.4325  1.3085
 4885SOL     OW16074   1.770   3.626   4.561  0.4868 -0.1018 -0.6399
 4885SOL    HW116075   1.772   3.660   4.651  1.5043  0.2806 -0.7941
 4885SOL    HW216076   1.752   3.702   4.507 -0.5101 -0.3981 -0.7493
 4886SOL     OW16077   5.212   0.942   1.903  0.8408  0.0734 -0.6244
 4886SOL    HW116078   5.207   0.923   1.810  1.7835  1.1743 -0.9314
 4886SOL    HW216079   5.231   1.036   1.908 -1.0314  0.4463  0.7328
 4887SOL     OW16080   4.838   0.124   3.424 -0.6646  0.1533  0.1828
 4887SOL    HW116081   4.918   0.127   3.372  0.4065 -0.2611  1.7324
 4887SOL    HW216082   4.868   0.129   3.515 -2.1201 -2.9063  0.9702
 4888SOL     OW16083   5.436   5.638   6.587 -0.3609 -0.1514 -0.0166
 4888SOL    HW116084   5.441   5.605   6.677  1.6247 -0.1954 -0.1087
 4888SOL    HW216085   5.527   5.641   6.557 -0.9638  0.1284 -1.9429
 4889SOL     OW16086   2.837   6.410   1.605  0.6209 -0.1992 -0.5062
 4889SOL    HW116087   2.870   6.442   1.689 -2.0999 -0.0858  0.5985
 4889SOL    HW216088   2.910   6.423   1.545  2.9353 -0.9182  1.9314
 4890SOL     OW16089   4.912   6.627   8.350  0.2384 -0.5398 -0.0952
 4890SOL    HW116090   4.863   6.596   8.426  0.0116  0.8159  0.3280
 4890SOL    HW216091   4.864   6.594   8.275 -0.0386 -1.1347  0.3376
 4891SOL     OW16092   3.170   7.697   3.894 -0.4532  0.2150  0.4156
 4891SOL    HW116093   3.202   7.607   3.886 -1.6747 -0.1035 -1.9452
 4891SOL    HW216094   3.249   7.751   3.892  0.2810 -0.7594  1.6558
 4892SOL     OW16095   1.802   4.845   1.096 -0.4939  0.3803 -0.3685
 4892SOL    HW116096   1.887   4.825   1.134 -1.0204  1.7169  1.7024
 4892SOL    HW216097   1.762   4.760   1.079  0.6652 -0.2631  0.0384
 4893SOL     OW16098   3.880   1.399   5.644  0.7446 -0.5416  0.1049
 4893SOL    HW116099   3.842   1.371   5.728  1.8407  0.0940  0.8361
 4893SOL    HW216100   3.805   1.409   5.586 -0.2296  0.6887  1.5000
 4894SOL     OW16101   1.923   7.495   4.954 -0.0222  0.3642 -0.1857
 4894SOL    HW116102   1.907   7.402   4.973  1.4774 -0.2331 -1.5651
 4894SOL    HW216103   1.914   7.502   4.859 -2.2008  2.1327  0.0733
 4895SOL     OW16104   8.063   2.510   7.495 -0.2093 -0.1618 -0.1759
 4895SOL    HW116105   8.040   2.597   7.526  0.8199 -0.8505  2.9684
 4895SOL    HW216106   8.158   2.513   7.484 -0.4909 -0.0142 -3.4841
 4896SOL     OW16107   5.986   4.465   4.418  0.2610  0.8038 -0.0670
 4896SOL    HW116108   6.001   4.434   4.507 -0.0212  0.6000 -0.0856
 4896SOL    HW216109   6.062   4.435   4.369 -0.2516 -0.3453 -0.1959
 4897SOL     OW16110   4.708   4.043   1.991 -0.7960  0.3300  0.4218
 4897SOL    HW116111   4.692   3.999   2.074 -2.2143  1.0518  0.5577
 4897SOL    HW216112   4.693   4.136   2.010  2.4163  1.0189  0.2423
 4898SOL     OW16113   6.514   7.405   1.565  0.0281  0.1172  0.3251
 4898SOL    HW116114   6.453   7.478   1.551 -0.1681 -0.2880 -1.0798
 4898SOL    HW216115   6.473   7.353   1.634 -0.1340  0.9897  0.9065
 4899SOL     OW16116   2.190   3.060   1.981 -0.3544  0.3525 -0.0215
 4899SOL    HW116117   2.231   3.010   2.051 -1.1548 -0.4183 -0.0775
 4899SOL    HW216118   2.132   3.122   2.026 -1.6994 -0.8837  0.0007
 4900SOL     OW16119   5.043   2.784   3.169 -0.3149  0.6349 -0.2105
 4900SOL    HW116120   4.993   2.739   3.101 -0.0933 -0.3822  0.2817
 4900SOL    HW216121   5.087   2.713   3.216  0.4099  1.4117  0.2894
 4901SOL     OW16122   4.553   4.762   1.665  0.0279 -0.4471  0.1402
 4901SOL    HW116123   4.581   4.722   1.582  0.5412 -3.3000  1.5523
 4901SOL    HW216124   4.467   4.721   1.682 -0.7858  1.2623  0.3197
 4902SOL     OW16125   6.208   6.676   3.941  0.4687 -0.3488 -0.2951
 4902SOL    HW116126   6.247   6.602   3.894  0.7748  0.4069 -1.2601
 4902SOL    HW216127   6.162   6.635   4.015  0.7566 -1.4854 -0.7139
 4903SOL     OW16128   7.672   2.610   1.776  0.0851  0.3360  0.1805
 4903SOL    HW116129   7.649   2.686   1.830  0.4852  1.9087 -1.7258
 4903SOL    HW216130   7.588   2.572   1.751 -0.1874  1.1416 -0.1590
 4904SOL     OW16131   5.856   6.066   4.848  0.0298  0.1580 -0.4398
 4904SOL    HW116132   5.838   6.134   4.914  0.3465  0.5338 -0.7315
 4904SOL    HW216133   5.782   6.072   4.787  1.4850  2.3555 -2.1734
 4905SOL     OW16134   3.061   1.353   2.074 -0.2246 -0.1990  0.0783
 4905SOL    HW116135   2.982   1.377   2.026  0.1640 -0.2438 -0.6030
 4905SOL    HW216136   3.058   1.406   2.153 -1.3965 -0.8630  0.5005
 4906SOL     OW16137   6.233   1.702   4.679 -0.0444 -0.0482 -0.1543
 4906SOL    HW116138   6.328   1.701   4.667 -0.0060 -0.1092  0.1399
 4906SOL    HW216139   6.198   1.732   4.595  0.3099  1.4959  0.2106
 4907SOL     OW16140   6.712   0.607   4.622 -0.4095  0.4777 -0.0438
 4907SOL    HW116141   6.662   0.579   4.699 -2.0155 -2.5279 -1.9443
 4907SOL    HW216142   6.803   0.592   4.645 -0.7998  0.4489  1.5470
 4908SOL     OW16143   7.215   3.776   3.565 -0.8553  0.1467 -0.9923
 4908SOL    HW116144   7.194   3.764   3.473 -0.3217  1.3722 -1.3036
 4908SOL    HW216145   7.137   3.816   3.603 -0.7939  0.3568 -1.0872
 4909SOL     OW16146   7.914   5.791   7.129 -0.1572  0.2190  0.4904
 4909SOL    HW116147   7.960   5.737   7.194  0.8962 -0.1615 -0.5164
 4909SOL    HW216148   7.978   5.801   7.058 -0.7742  1.8070  0.1335
 4910SOL     OW16149   0.520   4.083   7.384 -0.5827  0.0092 -0.7233
 4910SOL    HW116150   0.566   4.152   7.432 -0.0246 -1.3213  0.7231
 4910SOL    HW216151   0.588   4.039   7.334 -0.7199 -0.3427 -0.6003
 4911SOL     OW16152   7.725   3.475   1.289 -0.2992 -0.5099  0.1447
 4911SOL    HW116153   7.786   3.502   1.358  1.9465  0.8394 -2.2004
 4911SOL    HW216154   7.781   3.438   1.221 -2.4011 -1.5687 -1.0983
 4912SOL     OW16155   6.294   8.134   2.044  0.0103  0.6971  0.5406
 4912SOL    HW116156   6.322   8.175   2.127 -0.2820 -0.8053  1.4151
 4912SOL    HW216157   6.351   8.174   1.978  2.0134  0.1405  1.8122
 4913SOL     OW16158   5.775   2.070   1.880 -0.2533  0.1394 -0.1374
 4913SOL    HW116159   5.681   2.085   1.893 -1.0981 -4.1638  0.5737
 4913SOL    HW216160   5.780   2.025   1.796  1.3940  1.3108 -0.7062
 4914SOL     OW16161   1.096   6.775   3.799  0.5145  0.4080 -0.4789
 4914SOL    HW116162   1.071   6.833   3.727 -1.5859  0.3010  0.0707
 4914SOL    HW216163   1.080   6.687   3.766  0.3412  0.3238 -0.1829
 4915SOL     OW16164   3.966   0.059   4.511 -0.3727 -0.2721  0.3693
 4915SOL    HW116165   3.901   0.066   4.442  1.1578  1.8725 -0.9594
 4915SOL    HW216166   4.049   0.085   4.470  0.9754 -0.8909  2.4966
 4916SOL     OW16167   6.143   6.308   5.979 -0.0845 -0.7212  0.2167
 4916SOL    HW116168   6.157   6.244   6.049  0.4967 -1.0111 -0.1544
 4916SOL    HW216169   6.085   6.263   5.917 -0.9123 -0.3238  0.6904
 4917SOL     OW16170   1.112   5.647   5.045  0.2681  0.4197  0.0520
 4917SOL    HW116171   1.056   5.724   5.043 -1.2441 -0.6489 -0.7858
 4917SOL    HW216172   1.053   5.574   5.027  1.9158 -0.7560 -0.8621
 4918SOL     OW16173   6.665   7.815   0.588 -0.3347 -0.5231  0.0330
 4918SOL    HW116174   6.588   7.788   0.638 -0.9111  0.2417 -0.4127
 4918SOL    HW216175   6.663   7.761   0.509  1.4931 -2.9202  1.4968
 4919SOL     OW16176   2.913   6.270   7.991 -0.0799 -0.1411  0.1654
 4919SOL    HW116177   2.950   6.261   7.904 -0.2659 -0.7336  0.1480
 4919SOL    HW216178   2.881   6.183   8.013 -0.8477  0.2102  0.4587
 4920SOL     OW16179   0.287   7.856   4.333  0.2159 -0.5675 -0.2431
 4920SOL    HW116180   0.329   7.833   4.416  0.4202  1.2546  0.1902
 4920SOL    HW216181   0.294   7.951   4.327 -1.3957 -0.4741 -1.5005
 4921SOL     OW16182   5.885   5.396   4.952  0.1714  0.1264 -0.5405
 4921SOL    HW116183   5.880   5.491   4.945 -0.4059  0.1046 -0.4097
 4921SOL    HW216184   5.802   5.364   4.916 -0.7483 -0.2088  1.7222
 4922SOL     OW16185   8.253   2.639   8.095  0.1500 -0.2876 -0.3630
 4922SOL    HW116186   8.344   2.650   8.119  0.0760 -2.5128  1.2357
 4922SOL    HW216187   8.209   2.610   8.175 -2.2761  1.9303 -0.7360
 4923SOL     OW16188   2.068   0.897   6.245  0.0464  0.2316  0.0085
 4923SOL    HW116189   2.113   0.844   6.311  1.7344  1.2936 -0.2443
 4923SOL    HW216190   2.126   0.971   6.229 -1.3119  1.1147 -1.1391
 4924SOL     OW16191   5.872   6.473   3.490 -0.1750 -0.5430  0.0250
 4924SOL    HW116192   5.805   6.539   3.504  0.3312  0.2276 -1.0083
 4924SOL    HW216193   5.824   6.394   3.465 -0.7384 -0.2419  0.1637
 4925SOL     OW16194   4.052   2.081   2.643  0.0723  0.0006  0.5662
 4925SOL    HW116195   4.079   2.172   2.632  1.8345 -0.7473 -2.1453
 4925SOL    HW216196   3.971   2.087   2.694  0.7620  2.9673  1.5349
 4926SOL     OW16197   6.598   0.940   3.437  0.2600 -0.0492  0.1670
 4926SOL    HW116198   6.509   0.963   3.410  0.7404  0.7092 -0.8206
 4926SOL    HW216199   6.615   0.856   3.396 -0.5682 -0.9903  1.6781
 4927SOL     OW16200   3.161   4.619   1.089  0.1159 -0.6688  0.0159
 4927SOL    HW116201   3.149   4.559   1.015  0.5647 -1.2539  0.4041
 4927SOL    HW216202   3.240   4.668   1.067  0.7112 -1.4052  0.4647
 4928SOL     OW16203   6.783   7.963   8.211 -0.5286  0.4482  0.5170
 4928SOL    HW116204   6.700   8.011   8.210 -0.5764  0.3640  0.3164
 4928SOL    HW216205   6.817   7.973   8.122  0.2226  1.4206  0.9014
 4929SOL     OW16206   7.020   5.250   4.817 -0.3133  0.4108 -0.4687
 4929SOL    HW116207   6.981   5.208   4.893  2.2659  1.0868  1.3485
 4929SOL    HW216208   7.044   5.178   4.759 -0.5996 -0.2523  0.2280
 4930SOL     OW16209   1.174   2.535   2.314  0.0289  0.5504 -0.4816
 4930SOL    HW116210   1.237   2.605   2.334  1.2869 -0.5928 -0.3408
 4930SOL    HW216211   1.094   2.563   2.358  0.7091  1.5550  0.1933
 4931SOL     OW16212   1.385   5.652   0.883  0.2893  0.2032 -0.0085
 4931SOL    HW116213   1.389   5.678   0.791 -1.5348  0.3669 -0.0738
 4931SOL    HW216214   1.336   5.722   0.926  0.5861 -0.1708  0.9689
 4932SOL     OW16215   4.055   6.564   5.718 -0.2432  0.5962  0.8052
 4932SOL    HW116216   4.144   6.554   5.752  0.3559 -1.4143 -1.0934
 4932SOL    HW216217   4.058   6.646   5.669  1.1354 -0.2137 -0.5890
 4933SOL     OW16218   6.950   0.753   3.895  0.0734 -0.3500  0.2888
 4933SOL    HW116219   7.038   0.752   3.933 -0.1261 -1.2666  0.7652
 4933SOL    HW216220   6.944   0.669   3.848 -0.4755 -0.2090  0.1002
 4934SOL     OW16221   1.228   7.561   6.480  0.0150  0.7323  0.3105
 4934SOL    HW116222   1.277   7.636   6.448  1.0693 -0.5625 -1.2310
 4934SOL    HW216223   1.146   7.563   6.431  0.1600  0.7086  0.0695
 4935SOL     OW16224   3.657   6.658   0.501  0.0386  0.3984 -0.0489
 4935SOL    HW116225   3.668   6.666   0.595 -0.7939  0.4037  0.0589
 4935SOL    HW216226   3.650   6.748   0.470 -1.2629  0.3678  0.1026
 4936SOL     OW16227   1.025   1.574   3.549 -0.5766  0.0789  0.2691
 4936SOL    HW116228   1.080   1.546   3.476  1.0144 -1.9794  2.1243
 4936SOL    HW216229   0.990   1.659   3.522  2.4466  0.8744 -1.5894
 4937SOL     OW16230   4.236   3.263   6.516  0.0835 -0.1087  0.4620
 4937SOL    HW116231   4.231   3.178   6.560  0.2325 -0.3467  0.0248
 4937SOL    HW216232   4.327   3.270   6.487 -0.2410 -0.4009 -0.6790
 4938SOL     OW16233   5.062   2.229   7.436  0.1792 -0.5073 -0.2196
 4938SOL    HW116234   5.065   2.218   7.531  0.8140  2.6797  0.2694
 4938SOL    HW216235   5.153   2.227   7.408  0.0121 -1.2160 -0.7455
 4939SOL     OW16236   0.105   7.745   3.239  0.5125  1.1387  0.0689
 4939SOL    HW116237   0.073   7.817   3.186 -0.2648  0.3996 -0.5030
 4939SOL    HW216238   0.073   7.764   3.327 -2.3375  0.0368 -0.6087
 4940SOL     OW16239   1.049   6.204   5.612 -0.4724 -0.1394  0.0818
 4940SOL    HW116240   0.977   6.228   5.553  0.5381 -0.1167 -1.1705
 4940SOL    HW216241   1.060   6.110   5.598  0.4195  0.0413 -0.5363
 4941SOL     OW16242   3.305   4.157   0.618  0.3488  1.0194  0.7690
 4941SOL    HW116243   3.306   4.133   0.711  0.3014  0.9582  0.7536
 4941SOL    HW216244   3.214   4.184   0.601  0.1944  0.3749  0.5722
 4942SOL     OW16245   5.779   0.516   6.638  0.0058  0.2773 -0.5072
 4942SOL    HW116246   5.782   0.438   6.583 -0.4036 -0.2141  0.1420
 4942SOL    HW216247   5.706   0.568   6.603 -0.9527 -0.5435  0.2026
 4943SOL     OW16248   1.876   1.868   2.607  0.7214  0.1841  0.1941
 4943SOL    HW116249   1.856   1.883   2.699  0.6495 -1.0315  0.4010
 4943SOL    HW216250   1.939   1.936   2.584  0.6588  0.5614  1.1122
 4944SOL     OW16251   7.387   5.244   5.834  0.2805 -0.2406 -0.3843
 4944SOL    HW116252   7.397   5.219   5.742  1.7296  0.1203 -0.3493
 4944SOL    HW216253   7.433   5.176   5.882 -0.6479 -0.5374  0.1022
 4945SOL     OW16254   4.762   5.485   6.279  0.4420 -0.2248 -0.4992
 4945SOL    HW116255   4.801   5.411   6.233  1.3540 -1.1894  1.6532
 4945SOL    HW216256   4.771   5.462   6.372  1.0805  2.7360  0.2676
 4946SOL     OW16257   3.225   7.407   1.407 -0.2695 -0.4673  0.5030
 4946SOL    HW116258   3.310   7.392   1.450  0.3394  0.0665 -0.4680
 4946SOL    HW216259   3.247   7.455   1.327 -1.4727 -0.5612  0.0961
 4947SOL     OW16260   0.466   2.346   3.600 -0.1906 -0.3651  0.2847
 4947SOL    HW116261   0.396   2.339   3.535 -0.9997 -1.2748  1.2145
 4947SOL    HW216262   0.511   2.427   3.578 -0.1201 -0.9053 -1.7042
 4948SOL     OW16263   4.119   7.048   7.015 -0.6430 -0.1975 -0.1581
 4948SOL    HW116264   4.161   6.982   7.072  1.4059  0.1097 -1.1977
 4948SOL    HW216265   4.161   7.130   7.040  0.5951 -0.1084 -2.2660
 4949SOL     OW16266   4.266   7.799   5.645 -0.5400 -0.2345 -0.2470
 4949SOL    HW116267   4.214   7.862   5.596  0.6222  0.4547 -0.6335
 4949SOL    HW216268   4.335   7.772   5.585 -0.5338 -1.2513  0.1944
 4950SOL     OW16269   2.500   6.643   5.866 -0.1749 -0.0558 -0.2004
 4950SOL    HW116270   2.454   6.724   5.842 -0.2623  0.3232  1.1468
 4950SOL    HW216271   2.436   6.592   5.915  0.8585  0.6434  2.0245
 4951SOL     OW16272   4.343   7.234   1.786 -0.1907 -0.6707 -0.6605
 4951SOL    HW116273   4.338   7.145   1.822 -1.2770 -0.4538 -0.2403
 4951SOL    HW216274   4.355   7.290   1.862 -0.7230 -0.3600 -0.7980
 4952SOL     OW16275   2.047   3.492   0.459  0.5039  0.5239  0.6113
 4952SOL    HW116276   2.142   3.481   0.466  0.6395  1.4762  0.3862
 4952SOL    HW216277   2.020   3.512   0.549  0.9271  3.0750  0.2434
 4953SOL     OW16278   0.377   1.873   1.100 -0.0636  0.2795 -0.2664
 4953SOL    HW116279   0.377   1.780   1.076 -0.2882  0.1252  0.3013
 4953SOL    HW216280   0.298   1.908   1.058  0.3268  0.3476 -0.9552
 4954SOL     OW16281   0.292   5.803   0.068 -0.0051 -0.0079  0.1783
 4954SOL    HW116282   0.228   5.872   0.085  0.5984  0.3949  0.8635
 4954SOL    HW216283   0.368   5.827   0.120 -0.1253 -1.7039  1.2270
 4955SOL     OW16284   3.792   2.067   7.282  0.2654 -0.2428 -0.3001
 4955SOL    HW116285   3.736   2.007   7.330  0.2767  0.9396  1.2909
 4955SOL    HW216286   3.879   2.054   7.319  0.4346  0.1038 -0.5636
 4956SOL     OW16287   4.029   8.121   4.201  0.7448  0.1196  0.3319
 4956SOL    HW116288   4.084   8.046   4.179 -0.8714 -0.3750 -2.6341
 4956SOL    HW216289   4.075   8.196   4.164  0.1384 -0.1050 -0.9192
 4957SOL     OW16290   0.066   3.953   6.654 -0.3096 -0.7638  0.3993
 4957SOL    HW116291   0.158   3.977   6.645 -0.4593 -0.2253  0.2325
 4957SOL    HW216292   0.048   3.897   6.579 -0.3344 -0.1729 -0.0424
 4958SOL     OW16293   1.871   3.240   5.507  0.2804 -0.0501  0.3775
 4958SOL    HW116294   1.882   3.175   5.437 -0.1575  0.6045 -0.3157
 4958SOL    HW216295   1.874   3.189   5.588 -0.6489 -1.0292 -0.1731
 4959SOL     OW16296   4.966   1.028   3.946  0.0002  0.2700  0.0079
 4959SOL    HW116297   4.922   1.080   4.012 -0.9623  0.9491 -1.1353
 4959SOL    HW216298   4.992   1.091   3.879 -0.1408 -0.5504 -0.8393
 4960SOL     OW16299   3.405   4.323   8.153  0.3272  0.1206 -0.0295
 4960SOL    HW116300   3.404   4.277   8.237 -1.9007  0.8022  0.3763
 4960SOL    HW216301   3.483   4.289   8.108  1.5749 -0.2725  2.2699
 4961SOL     OW16302   1.923   2.628   5.751  0.0732  0.2210 -0.4164
 4961SOL    HW116303   1.863   2.657   5.820 -0.8441  2.4802 -2.0379
 4961SOL    HW216304   1.894   2.539   5.730 -0.4141 -0.0419  1.2126
 4962SOL     OW16305   6.635   4.072   0.004 -0.2564 -0.3628  0.0071
 4962SOL    HW116306   6.670   4.132   0.070  0.4373  2.1037 -2.4178
 4962SOL    HW216307   6.540   4.082   0.009 -0.6938 -3.6611  3.5104
 4963SOL     OW16308   2.505   6.710   3.528  0.0875  0.1563  0.6921
 4963SOL    HW116309   2.513   6.800   3.496  1.1954 -0.1165  0.1423
 4963SOL    HW216310   2.594   6.686   3.555 -0.2676 -0.6405  1.2047
 4964SOL     OW16311   6.729   1.688   2.584  0.3002 -0.0400 -0.4132
 4964SOL    HW116312   6.799   1.752   2.572 -0.4820  0.8195 -0.4922
 4964SOL    HW216313   6.674   1.697   2.507  0.3669 -1.0752 -0.6009
 4965SOL     OW16314   2.068   0.788   0.401 -0.0793  0.6315 -0.0011
 4965SOL    HW116315   2.125   0.823   0.469  2.1841 -1.7674 -0.4931
 4965SOL    HW216316   2.081   0.845   0.326  0.6450  0.9077  0.3277
 4966SOL     OW16317   2.016   1.545   3.806 -0.0659 -0.5400 -0.1031
 4966SOL    HW116318   2.097   1.524   3.759 -0.6979 -1.4898 -0.7918
 4966SOL    HW216319   2.046   1.580   3.890  1.0599 -1.4605 -0.0982
 4967SOL     OW16320   0.405   6.743   1.738  0.1243 -0.0905  0.0470
 4967SOL    HW116321   0.326   6.730   1.685 -0.4049  2.7875 -0.0245
 4967SOL    HW216322   0.381   6.710   1.825 -0.0231 -2.0879 -0.6948
 4968SOL     OW16323   7.697   0.565   1.623 -0.2088  0.3263  0.5548
 4968SOL    HW116324   7.631   0.520   1.570  1.4243 -0.0060 -1.3260
 4968SOL    HW216325   7.721   0.642   1.571  0.1988  0.9882  1.6756
 4969SOL     OW16326   2.869   6.853   2.616  0.1755  0.1683  0.0998
 4969SOL    HW116327   2.825   6.875   2.699  0.7246 -0.3892  0.5511
 4969SOL    HW216328   2.823   6.904   2.550  0.2016  1.2132  0.8545
 4970SOL     OW16329   4.278   1.959   6.407 -0.2256 -0.3141  0.0193
 4970SOL    HW116330   4.237   1.901   6.343 -1.1351 -0.2298  0.5064
 4970SOL    HW216331   4.227   2.040   6.402  0.4960  0.1438 -0.0490
 4971SOL     OW16332   3.992   1.844   2.910 -0.0591 -0.1138 -0.0890
 4971SOL    HW116333   4.024   1.756   2.892 -1.6147 -0.9924  1.2192
 4971SOL    HW216334   4.070   1.899   2.910  1.1137 -1.7281  0.4620
 4972SOL     OW16335   3.616   1.587   2.927 -0.3566  0.3950 -0.1867
 4972SOL    HW116336   3.602   1.496   2.951  1.0238  0.1047 -0.4147
 4972SOL    HW216337   3.615   1.588   2.831  2.2327  0.1200 -0.2847
 4973SOL     OW16338   3.125   6.703   4.713  0.2514 -0.5326 -0.3821
 4973SOL    HW116339   3.032   6.723   4.720  0.2505  0.6175 -2.5866
 4973SOL    HW216340   3.130   6.633   4.648  0.9972  1.1012 -2.1901
 4974SOL     OW16341   6.141   3.751   3.845  0.2347  0.3967 -0.2933
 4974SOL    HW116342   6.120   3.836   3.806  1.0668  1.3768  1.3086
 4974SOL    HW216343   6.166   3.771   3.935  2.1298 -1.3591 -0.3666
 4975SOL     OW16344   4.762   5.378   6.556  0.0579  0.1692 -0.2371
 4975SOL    HW116345   4.718   5.293   6.559  2.0195 -0.9532 -0.9906
 4975SOL    HW216346   4.695   5.441   6.579 -0.6757 -1.8186  4.1310
 4976SOL     OW16347   1.177   6.560   7.736  0.5464  0.6969  0.4111
 4976SOL    HW116348   1.085   6.563   7.760  0.5753  0.4477  0.5615
 4976SOL    HW216349   1.187   6.480   7.684  0.7836  0.4171  0.8764
 4977SOL     OW16350   2.446   4.082   6.824  0.4713  0.3904  0.2851
 4977SOL    HW116351   2.362   4.037   6.824  1.4666 -1.6005  0.9623
 4977SOL    HW216352   2.427   4.169   6.791 -1.7381 -0.2100 -0.1705
 4978SOL     OW16353   5.222   1.895   4.745 -0.1766  0.6650 -0.6146
 4978SOL    HW116354   5.182   1.934   4.823  0.9200  0.6600 -0.0268
 4978SOL    HW216355   5.172   1.815   4.730  1.0370 -0.5953  1.5131
 4979SOL     OW16356   1.890   4.394   0.777  0.1374  0.1176 -0.0296
 4979SOL    HW116357   1.971   4.350   0.804 -0.0089 -0.0019  0.2197
 4979SOL    HW216358   1.889   4.474   0.829 -0.2957 -0.2566  0.5507
 4980SOL     OW16359   3.573   2.497   0.852  0.0893 -0.3078 -0.0784
 4980SOL    HW116360   3.547   2.452   0.932 -0.7397 -1.6436 -1.0638
 4980SOL    HW216361   3.492   2.535   0.818  0.5171  0.6592 -0.0595
 4981SOL     OW16362   3.836   0.481   6.833  0.4106  0.2338  0.7976
 4981SOL    HW116363   3.831   0.476   6.737  0.6927 -1.9396  0.8331
 4981SOL    HW216364   3.750   0.512   6.860 -1.8250 -4.3364 -0.0331
 4982SOL     OW16365   1.400   4.183   6.929  0.7393  0.3563 -0.6007
 4982SOL    HW116366   1.447   4.153   6.852 -0.0770 -1.0537 -0.5973
 4982SOL    HW216367   1.468   4.195   6.996  1.3261  0.5794 -1.2236
 4983SOL     OW16368   0.386   3.821   2.740 -0.1504 -0.5484 -0.1390
 4983SOL    HW116369   0.357   3.868   2.662  0.6309 -0.7686 -0.5728
 4983SOL    HW216370   0.306   3.806   2.790 -0.3426  1.8233  0.3601
 4984SOL     OW16371   6.012   7.204   1.653  0.2660 -0.5438  0.8054
 4984SOL    HW116372   5.916   7.195   1.654  0.1708  0.3438  2.3442
 4984SOL    HW216373   6.041   7.134   1.594 -1.3758 -0.1385 -0.5668
 4985SOL     OW16374   8.323   4.949   1.980  0.1796  0.1273  0.2910
 4985SOL    HW116375   8.257   4.881   1.997  0.2060 -0.0989 -0.5078
 4985SOL    HW216376   8.357   4.971   2.067  0.0443 -0.7596  0.5744
 4986SOL     OW16377   1.039   0.427   2.102  0.2418  0.5502  0.0608
 4986SOL    HW116378   1.074   0.472   2.025 -1.6382  2.0765  0.0275
 4986SOL    HW216379   1.033   0.495   2.169 -0.1368 -0.2748  0.8875
 4987SOL     OW16380   1.716   4.112   7.042  0.0477 -0.8283  0.4272
 4987SOL    HW116381   1.780   4.079   6.979 -2.0737  0.8691 -2.9181
 4987SOL    HW216382   1.712   4.206   7.025 -1.1358 -0.3886  2.7103
 4988SOL     OW16383   7.312   7.800   3.117 -0.7174 -0.7727  0.2468
 4988SOL    HW116384   7.229   7.836   3.148 -0.5595 -0.1827 -0.0084
 4988SOL    HW216385   7.298   7.784   3.024 -0.6879 -1.1022  0.2954
 4989SOL     OW16386   2.151   4.902   1.997 -0.4264  0.0207  0.2616
 4989SOL    HW116387   2.220   4.939   1.941 -0.1031  0.0701  0.6863
 4989SOL    HW216388   2.180   4.923   2.086 -0.9176 -0.0922  0.4469
 4990SOL     OW16389   7.168   6.976   6.919  0.3354 -0.3184 -0.3126
 4990SOL    HW116390   7.154   7.058   6.967  2.0869 -0.5651  0.7252
 4990SOL    HW216391   7.081   6.950   6.889 -0.6306  0.6198  1.5110
 4991SOL     OW16392   0.438   3.049   2.948 -0.6055 -0.1505 -0.0668
 4991SOL    HW116393   0.394   2.997   3.015  0.1025  1.1991  1.5054
 4991SOL    HW216394   0.376   3.051   2.875 -1.1774 -2.0992  0.2982
 4992SOL     OW16395   0.072   6.909   0.526 -0.1154  0.1185  0.1700
 4992SOL    HW116396   0.134   6.982   0.531  0.3246 -0.3064  1.1187
 4992SOL    HW216397   0.109   6.851   0.461 -1.1381  1.3310 -1.5797
 4993SOL     OW16398   7.465   5.164   2.830 -0.1945  0.4711 -0.1874
 4993SOL    HW116399   7.546   5.170   2.881 -1.5002 -0.1613  2.1146
 4993SOL    HW216400   7.488   5.111   2.754  1.7175  0.9861 -0.0384
 4994SOL     OW16401   6.436   5.989   5.366  0.1596 -0.2187  0.3716
 4994SOL    HW116402   6.407   6.006   5.455 -1.0278 -1.5702  0.2706
 4994SOL    HW216403   6.479   5.904   5.370  0.9030  0.1228 -0.1803
 4995SOL     OW16404   7.558   6.046   3.334  0.0648  0.1427  0.0280
 4995SOL    HW116405   7.523   5.966   3.295  0.6794  0.6018 -1.5109
 4995SOL    HW216406   7.631   6.071   3.278  0.9849  0.8495  1.4816
 4996SOL     OW16407   0.873   6.371   2.526 -0.2248  0.6189 -0.9355
 4996SOL    HW116408   0.793   6.369   2.578 -0.8280  0.4620 -1.8477
 4996SOL    HW216409   0.940   6.337   2.585 -0.6297  1.6040  0.1446
 4997SOL     OW16410   6.200   1.196   4.246  0.3694  0.4473  0.5040
 4997SOL    HW116411   6.272   1.226   4.191  3.1088  1.5074  4.2946
 4997SOL    HW216412   6.220   1.104   4.264 -2.1595 -0.8449 -2.3904
 4998SOL     OW16413   2.849   1.550   7.196 -0.6235  0.2015 -0.1889
 4998SOL    HW116414   2.810   1.608   7.130 -1.4479  0.1148  0.2119
 4998SOL    HW216415   2.774   1.514   7.244 -0.0371  0.8109  1.2590
 4999SOL     OW16416   7.358   5.233   1.022  0.2468 -0.4921 -0.1923
 4999SOL    HW116417   7.339   5.140   1.039  0.4389 -0.4633  0.2058
 4999SOL    HW216418   7.383   5.268   1.108 -0.8648  0.1859 -0.1205
 5000SOL     OW16419   7.060   4.929   3.474 -0.1500 -0.3246  0.0743
 5000SOL    HW116420   7.067   4.975   3.557  1.2486 -2.0579  0.9889
 5000SOL    HW216421   7.031   4.996   3.412 -2.3016  0.8095  2.1110
 5001SOL     OW16422   0.236   6.515   4.394 -0.2392  0.0855 -0.6428
 5001SOL    HW116423   0.262   6.549   4.480 -0.1977 -1.8066  0.1527
 5001SOL    HW216424   0.161   6.567   4.369 -1.7304 -0.7842  1.6754
 5002SOL     OW16425   1.530   6.955   4.728 -0.2848 -0.4262 -0.1653
 5002SOL    HW116426   1.525   7.025   4.793  2.3340 -1.4828  1.3267
 5002SOL    HW216427   1.503   6.997   4.646 -0.9982  1.6994  1.0789
 5003SOL     OW16428   7.550   1.833   5.942  0.4304 -0.0235  0.1970
 5003SOL    HW116429   7.512   1.831   6.029  0.4719  1.3536  0.2830
 5003SOL    HW216430   7.528   1.920   5.909  1.1221 -0.2245 -0.8373
 5004SOL     OW16431   5.840   7.272   0.764 -0.6102 -0.2719  0.3291
 5004SOL    HW116432   5.780   7.287   0.690  0.9268  3.1296 -0.4301
 5004SOL    HW216433   5.782   7.264   0.840 -2.1198  0.3925 -0.6984
 5005SOL     OW16434   0.345   2.694   2.150  0.1776 -0.4680  0.2173
 5005SOL    HW116435   0.273   2.668   2.091 -0.0711 -1.4555  0.9290
 5005SOL    HW216436   0.303   2.749   2.216  0.2738 -0.1734  0.0337
 5006SOL     OW16437   1.133   5.922   4.205 -0.4819  0.6177  0.5050
 5006SOL    HW116438   1.086   5.840   4.191 -1.8146  1.0821  1.9552
 5006SOL    HW216439   1.121   5.972   4.124 -1.7625  0.3515  0.5134
 5007SOL     OW16440   3.035   5.301   6.929  0.1124 -0.0768  0.0935
 5007SOL    HW116441   3.095   5.363   6.969 -1.5934  0.1089  2.5946
 5007SOL    HW216442   2.956   5.351   6.912 -0.1703 -0.8382 -0.9344
 5008SOL     OW16443   8.093   6.588   4.701 -0.5256 -0.0517 -0.1396
 5008SOL    HW116444   8.044   6.627   4.773 -1.7242 -1.2033 -0.2892
 5008SOL    HW216445   8.050   6.503   4.686 -0.2844  0.1393 -2.1724
 5009SOL     OW16446   1.860   3.891   6.106  0.3399  0.1826 -0.0324
 5009SOL    HW116447   1.914   3.814   6.088  1.2232  0.2244  2.1128
 5009SOL    HW216448   1.787   3.857   6.158  1.2504  0.8606  1.7796
 5010SOL     OW16449   6.806   6.753   6.408 -0.3880 -0.7014 -0.1425
 5010SOL    HW116450   6.890   6.795   6.425  0.1394 -1.8423  0.1214
 5010SOL    HW216451   6.826   6.679   6.350 -1.6375  0.8007 -2.6934
 5011SOL     OW16452   2.279   3.159   5.449 -0.4710 -0.4177  0.0808
 5011SOL    HW116453   2.312   3.202   5.528  1.8163 -0.7296 -0.6075
 5011SOL    HW216454   2.190   3.133   5.471 -0.9678  2.1198  1.4877
 5012SOL     OW16455   2.287   7.619   8.082 -0.5614  0.0368  0.3695
 5012SOL    HW116456   2.240   7.544   8.120  0.9238 -0.6756  0.8498
 5012SOL    HW216457   2.377   7.609   8.112 -0.1554  1.5754 -0.2448
 5013SOL     OW16458   4.387   4.747   6.852  0.1076  0.4782 -0.3544
 5013SOL    HW116459   4.302   4.726   6.890  0.5956 -0.2271  0.3741
 5013SOL    HW216460   4.391   4.695   6.772  0.5510 -0.8529  0.4998
 5014SOL     OW16461   3.337   4.856   6.916  0.2582 -0.2700  0.1233
 5014SOL    HW116462   3.333   4.850   6.820  1.1823 -0.3672  0.0775
 5014SOL    HW216463   3.269   4.919   6.939  0.5672  0.3766 -0.6707
 5015SOL     OW16464   6.154   3.347   1.942 -0.0416 -0.0829  0.0267
 5015SOL    HW116465   6.208   3.353   2.020 -2.0587 -0.5991  1.5619
 5015SOL    HW216466   6.124   3.256   1.940 -0.4302  0.0527 -1.0549
 5016SOL     OW16467   4.763   3.149   0.441  0.3339  0.0255 -0.1366
 5016SOL    HW116468   4.674   3.161   0.408  0.2025  1.6011  0.6851
 5016SOL    HW216469   4.786   3.060   0.417 -1.8614 -0.7901  0.5598
 5017SOL     OW16470   4.231   2.581   7.717  0.4426  0.2888 -0.0081
 5017SOL    HW116471   4.273   2.627   7.644  0.2656 -1.0583 -0.9835
 5017SOL    HW216472   4.137   2.590   7.701  0.3645  1.0896  0.7797
 5018SOL     OW16473   1.765   3.906   1.773  0.0299  0.4732 -0.5822
 5018SOL    HW116474   1.791   3.921   1.682 -0.8427 -0.8645 -1.0866
 5018SOL    HW216475   1.691   3.846   1.767 -0.5189  0.9481  0.9929
 5019SOL     OW16476   7.597   7.142   4.364  0.2788  0.3205 -0.1294
 5019SOL    HW116477   7.597   7.133   4.268  0.9362 -1.3596  0.0010
 5019SOL    HW216478   7.688   7.165   4.385  0.0824  0.9100  0.0782
 5020SOL     OW16479   0.514   5.359   1.271 -0.2992  0.2141  0.7099
 5020SOL    HW116480   0.520   5.424   1.342  0.0644 -0.2268  1.0931
 5020SOL    HW216481   0.583   5.296   1.291  0.8031  0.8729 -0.8564
 5021SOL     OW16482   1.719   0.223   1.817  0.4760 -0.3043 -0.5418
 5021SOL    HW116483   1.782   0.281   1.773  0.8550  0.2127  0.6388
 5021SOL    HW216484   1.683   0.169   1.746  0.1698  1.2949 -1.6888
 5022SOL     OW16485   1.223   3.359   1.155 -0.1586  0.5031  0.4840
 5022SOL    HW116486   1.279   3.417   1.206 -0.7682  0.1858  1.5334
 5022SOL    HW216487   1.269   3.275   1.154  0.2053  0.7001 -0.1303
 5023SOL     OW16488   4.787   7.860   6.599  0.4881 -0.3157  0.1581
 5023SOL    HW116489   4.800   7.778   6.552 -2.6732 -0.7537 -0.1878
 5023SOL    HW216490   4.847   7.922   6.558 -0.1038 -1.3931 -2.5622
 5024SOL     OW16491   3.588   2.907   3.510  0.3861 -0.3337  0.2551
 5024SOL    HW116492   3.553   2.826   3.547 -0.9617  0.8705  1.7361
 5024SOL    HW216493   3.589   2.892   3.415  1.1878 -2.4489  0.5553
 5025SOL     OW16494   7.546   3.823   0.899 -0.5548 -0.3044 -0.4540
 5025SOL    HW116495   7.529   3.914   0.922  2.9816  0.7494 -1.4351
 5025SOL    HW216496   7.475   3.799   0.840 -1.7940  1.6412  0.1716
 5026SOL     OW16497   2.203   0.170   0.175 -0.0960  0.8729 -0.4012
 5026SOL    HW116498   2.174   0.101   0.115 -0.1237  0.1992  0.3553
 5026SOL    HW216499   2.153   0.247   0.149  1.0589  1.0557 -2.2619
 5027SOL     OW16500   0.019   3.386   5.385 -0.4309  0.1718 -0.8722
 5027SOL    HW116501   0.102   3.433   5.387 -0.2006 -0.1969 -1.5172
 5027SOL    HW216502   0.040   3.298   5.416 -0.6020  0.1050 -0.9458
 5028SOL     OW16503   0.548   2.107   7.367  0.3449 -0.3450  0.4602
 5028SOL    HW116504   0.619   2.121   7.430  0.0986  2.1130  0.2903
 5028SOL    HW216505   0.592   2.068   7.291  0.9429 -1.6432  1.4135
 5029SOL     OW16506   5.962   4.997   8.102 -0.2663 -0.4435 -0.2695
 5029SOL    HW116507   5.956   4.954   8.017 -0.9260 -0.7320 -0.0906
 5029SOL    HW216508   5.937   4.929   8.165 -2.1617  0.3732 -0.0447
 5030SOL     OW16509   1.035   0.251   4.103 -0.1374  0.0112  0.5087
 5030SOL    HW116510   0.941   0.265   4.094 -0.4628 -1.0963  1.9227
 5030SOL    HW216511   1.049   0.160   4.079  0.3300 -0.2718  1.7910
 5031SOL     OW16512   0.253   6.705   6.879  0.1601 -0.5291 -0.1776
 5031SOL    HW116513   0.168   6.669   6.856 -0.0390 -1.3929  1.7175
 5031SOL    HW216514   0.315   6.659   6.823 -0.3288 -2.2076  0.6184
 5032SOL     OW16515   6.841   1.005   5.948 -0.4004  0.1759  0.0169
 5032SOL    HW116516   6.885   0.932   5.992  0.6223  0.7838  0.0203
 5032SOL    HW216517   6.789   1.046   6.018 -1.9917 -1.2611 -0.2439
 5033SOL     OW16518   3.379   3.658   2.424  0.0378  0.1199  0.1925
 5033SOL    HW116519   3.436   3.699   2.359 -1.1436 -0.2155 -1.1006
 5033SOL    HW216520   3.427   3.665   2.507  0.8487  2.0418 -0.3979
 5034SOL     OW16521   0.869   0.907   6.385  0.3281 -0.5740 -0.1988
 5034SOL    HW116522   0.863   0.989   6.337  1.2096 -0.8507 -0.7967
 5034SOL    HW216523   0.844   0.930   6.475  1.2833  0.5037 -0.1954
 5035SOL     OW16524   5.542   4.652   5.913 -0.9216  0.3836  0.9283
 5035SOL    HW116525   5.530   4.559   5.932  0.4968 -0.0110  0.0305
 5035SOL    HW216526   5.517   4.661   5.820 -0.1001  0.6860  0.7276
 5036SOL     OW16527   0.896   7.611   4.765  0.4670  1.0995  0.4066
 5036SOL    HW116528   0.807   7.641   4.749  0.3896  1.3816  1.2778
 5036SOL    HW216529   0.885   7.527   4.811  0.6277  1.3961  1.0072
 5037SOL     OW16530   0.403   7.441   0.833  0.7685 -0.1579 -0.2937
 5037SOL    HW116531   0.483   7.393   0.813  0.7526  0.3500 -1.6990
 5037SOL    HW216532   0.336   7.400   0.778  0.0353 -0.6006  0.8869
 5038SOL     OW16533   7.000   5.462   7.523 -0.3200 -0.0533 -0.2840
 5038SOL    HW116534   7.048   5.494   7.599  0.5424  0.3851 -0.9912
 5038SOL    HW216535   7.051   5.387   7.492 -1.7110 -1.4538  0.6872
 5039SOL     OW16536   3.197   6.918   1.434  0.2461 -0.0490 -1.1028
 5039SOL    HW116537   3.164   6.875   1.513  1.4757  0.8254 -0.0927
 5039SOL    HW216538   3.287   6.941   1.454  0.4891  0.4792 -2.6540
 5040SOL     OW16539   2.470   2.091   4.243 -0.0325  0.7372 -0.4578
 5040SOL    HW116540   2.471   2.121   4.152 -1.1763 -2.0813 -1.4996
 5040SOL    HW216541   2.562   2.069   4.262  0.1641  1.0460 -1.0181
 5041SOL     OW16542   7.981   3.762   7.388  0.3961 -0.5180 -0.5368
 5041SOL    HW116543   8.012   3.733   7.474 -2.7674 -2.3801  0.1352
 5041SOL    HW216544   7.953   3.853   7.402  2.5503  0.1893 -0.4365
 5042SOL     OW16545   7.511   0.035   6.756 -0.8775 -0.1470 -0.0824
 5042SOL    HW116546   7.510   0.018   6.851 -2.4353 -1.1220 -0.2234
 5042SOL    HW216547   7.576   0.104   6.744  0.1176 -0.7489  1.5629
 5043SOL     OW16548   0.515   6.688   3.728  0.4378 -0.2085 -0.4013
 5043SOL    HW116549   0.446   6.674   3.663  0.0394 -0.1309  0.0100
 5043SOL    HW216550   0.514   6.782   3.745  2.3052  0.2305 -2.2441
 5044SOL     OW16551   3.369   2.748   2.609 -0.3604 -0.4744 -0.1254
 5044SOL    HW116552   3.280   2.721   2.632 -0.8500  1.0105 -0.1911
 5044SOL    HW216553   3.360   2.793   2.525  0.6612 -1.4319 -0.7851
 5045SOL     OW16554   3.419   3.225   7.693 -0.0555  0.0351 -0.1174
 5045SOL    HW116555   3.433   3.233   7.599  1.9545 -1.4392 -0.0060
 5045SOL    HW216556   3.325   3.238   7.705 -0.5252 -0.7982 -2.4753
 5046SOL     OW16557   4.861   0.074   1.484  0.0291 -0.6774  0.0946
 5046SOL    HW116558   4.875   0.085   1.578 -0.9137 -0.0289  0.1725
 5046SOL    HW216559   4.866   0.163   1.449 -1.3329 -0.6960 -0.2152
 5047SOL     OW16560   3.279   8.296   2.826  0.5094  0.2445  0.1994
 5047SOL    HW116561   3.365   8.319   2.790  0.8664  0.4110  1.1523
 5047SOL    HW216562   3.271   8.346   2.907  0.4364 -1.3842  1.2531
 5048SOL     OW16563   4.821   4.722   4.535  0.3418  0.5178  0.2023
 5048SOL    HW116564   4.739   4.761   4.503  1.1530  1.9326 -0.2735
 5048SOL    HW216565   4.803   4.628   4.539 -1.3133  0.7927  0.1638
 5049SOL     OW16566   2.191   6.414   6.275  0.6823 -0.9038 -1.0094
 5049SOL    HW116567   2.139   6.460   6.209  0.9883  1.3191  0.2191
 5049SOL    HW216568   2.128   6.390   6.343  0.6568 -1.6564 -1.2874
 5050SOL     OW16569   3.022   4.596   7.564 -0.4041  0.0310  0.6191
 5050SOL    HW116570   2.945   4.550   7.597  1.3704 -2.2102  1.9273
 5050SOL    HW216571   3.019   4.582   7.469  0.1503 -3.1559  0.9640
 5051SOL     OW16572   8.213   6.283   1.597  0.3264 -0.2253 -0.4820
 5051SOL    HW116573   8.202   6.346   1.526 -0.6167 -0.3680 -0.4755
 5051SOL    HW216574   8.287   6.317   1.648 -0.9896  1.6434  0.2998
 5052SOL     OW16575   5.934   0.913   6.820 -0.1886 -0.4681  0.3279
 5052SOL    HW116576   5.981   0.895   6.739 -0.4958  0.3328 -0.0355
 5052SOL    HW216577   5.997   0.959   6.875 -0.8183  1.5708 -0.5644
 5053SOL     OW16578   5.333   2.296   4.954 -0.0703 -0.5292 -0.2706
 5053SOL    HW116579   5.383   2.255   5.024 -1.0793 -0.8630  0.2775
 5053SOL    HW216580   5.290   2.371   4.995  1.2922  0.7664 -1.1313
 5054SOL     OW16581   2.084   1.386   4.229  0.3747  0.5521 -0.3025
 5054SOL    HW116582   2.136   1.324   4.280 -1.1368 -0.7450 -0.2645
 5054SOL    HW216583   1.993   1.358   4.243 -0.1725  0.9941 -2.5952
 5055SOL     OW16584   0.115   6.651   2.758 -0.2428 -0.2845  0.6031
 5055SOL    HW116585   0.063   6.659   2.678  0.7196 -1.4156 -0.1615
 5055SOL    HW216586   0.147   6.740   2.775 -1.6296  0.2475  0.5790
 5056SOL     OW16587   6.438   7.972   0.928  0.2151 -0.5231 -0.0116
 5056SOL    HW116588   6.394   7.913   0.867 -1.1561  1.1107 -0.6985
 5056SOL    HW216589   6.485   8.034   0.872 -1.6674  1.4600  0.4515
 5057SOL     OW16590   3.601   8.152   0.244 -0.3132 -0.5628 -0.2306
 5057SOL    HW116591   3.660   8.178   0.174  0.1766  1.0173  0.7153
 5057SOL    HW216592   3.630   8.065   0.269 -0.5332 -1.1765 -1.9892
 5058SOL     OW16593   5.545   4.896   4.496 -0.0208 -0.0224  0.6092
 5058SOL    HW116594   5.486   4.835   4.452  0.9953 -0.7982  0.2795
 5058SOL    HW216595   5.616   4.842   4.529  0.2129  0.8103  1.5305
 5059SOL     OW16596   4.073   1.904   6.033 -0.5701  0.9574  0.2951
 5059SOL    HW116597   3.988   1.860   6.018 -0.4180  0.3061  1.2661
 5059SOL    HW216598   4.049   1.991   6.063 -0.8796  1.2423 -0.7068
 5060SOL     OW16599   3.591   2.713   1.458 -0.4115 -0.5068 -0.6085
 5060SOL    HW116600   3.538   2.633   1.452 -1.2883  0.1196 -1.5083
 5060SOL    HW216601   3.539   2.773   1.511 -0.7325  0.1996 -1.6992
 5061SOL     OW16602   2.969   7.488   6.793  0.2000 -0.3851  0.0396
 5061SOL    HW116603   2.878   7.515   6.808  0.0230 -1.3719  0.8656
 5061SOL    HW216604   2.962   7.399   6.758  0.8478 -0.4473  0.0554
 5062SOL     OW16605   1.885   1.034   6.063 -0.5290  0.2508 -0.8015
 5062SOL    HW116606   1.851   1.122   6.046 -0.9360  0.2838  0.1515
 5062SOL    HW216607   1.817   0.975   6.031 -2.2426  0.3077  2.2995
 5063SOL     OW16608   5.516   2.150   1.898  0.0707 -0.3223  0.0765
 5063SOL    HW116609   5.473   2.220   1.946  1.4262  0.5836  0.0436
 5063SOL    HW216610   5.461   2.136   1.820 -0.8350 -0.1225  0.6700
 5064SOL     OW16611   6.092   0.850   5.820  0.1780  0.1229 -0.3665
 5064SOL    HW116612   6.032   0.913   5.779  1.8127  1.8450 -0.2640
 5064SOL    HW216613   6.128   0.897   5.895 -0.7550 -2.0359  1.5580
 5065SOL     OW16614   1.557   4.258   6.701  0.2279  0.4063 -0.3581
 5065SOL    HW116615   1.571   4.343   6.741 -1.5242 -0.2649  1.8606
 5065SOL    HW216616   1.521   4.277   6.614  1.9726  1.8867 -0.8047
 5066SOL     OW16617   5.032   3.175   5.311  0.2053 -0.7965  0.5376
 5066SOL    HW116618   4.941   3.144   5.310  0.3742 -1.3557  1.6689
 5066SOL    HW216619   5.025   3.266   5.339  0.1525 -1.5293  3.1152
 5067SOL     OW16620   1.895   6.459   2.218  0.4686 -0.4482 -1.4871
 5067SOL    HW116621   1.974   6.513   2.214  0.7302 -0.8770 -2.2440
 5067SOL    HW216622   1.889   6.434   2.310  0.3982  0.7698 -1.1444
 5068SOL     OW16623   6.772   3.119   7.674 -0.1395 -0.2667  0.8584
 5068SOL    HW116624   6.859   3.125   7.715 -0.2467  0.6783  0.9563
 5068SOL    HW216625   6.784   3.054   7.605  0.8814  0.4892  0.2990
 5069SOL     OW16626   0.437   4.183   3.530  0.2682 -0.2611  0.2732
 5069SOL    HW116627   0.483   4.188   3.446  0.7458  1.5691  0.5865
 5069SOL    HW216628   0.354   4.139   3.510  1.1587 -1.5590 -0.7554
 5070SOL     OW16629   0.257   2.415   5.053 -0.3424 -0.5792 -0.1024
 5070SOL    HW116630   0.299   2.404   5.138 -0.3045  0.4316  0.0227
 5070SOL    HW216631   0.323   2.386   4.990 -0.1785 -0.8281  0.1779
 5071SOL     OW16632   4.496   7.957   4.874 -0.0718  0.5074  0.0870
 5071SOL    HW116633   4.414   7.946   4.826  0.0337  0.8364 -0.1783
 5071SOL    HW216634   4.563   7.956   4.806 -0.0225  2.2993  0.0583
 5072SOL     OW16635   0.604   6.707   7.453 -0.3635 -0.7286 -0.3816
 5072SOL    HW116636   0.578   6.654   7.378  0.0547 -1.8178  0.2306
 5072SOL    HW216637   0.650   6.647   7.511 -0.7131  0.0841  0.7795
 5073SOL     OW16638   0.486   7.282   6.832 -0.1724  0.2212 -0.5662
 5073SOL    HW116639   0.477   7.209   6.893  0.6641 -0.3775 -1.1241
 5073SOL    HW216640   0.579   7.304   6.835 -0.4372  1.3412 -0.3326
 5074SOL     OW16641   6.655   6.380   4.130 -0.1660  0.1765 -0.4202
 5074SOL    HW116642   6.685   6.337   4.210  0.1252 -0.6298 -0.9510
 5074SOL    HW216643   6.570   6.418   4.153 -1.2080 -2.0479 -0.3603
 5075SOL     OW16644   6.095   0.737   1.463  0.1652  0.3948  0.1189
 5075SOL    HW116645   6.073   0.651   1.429 -1.7910  1.1454 -0.6836
 5075SOL    HW216646   6.100   0.793   1.385  0.7141  1.1517  0.6789
 5076SOL     OW16647   6.215   3.821   2.345 -0.1274  0.5941  0.2330
 5076SOL    HW116648   6.168   3.832   2.262  0.2438  4.6093  0.3944
 5076SOL    HW216649   6.307   3.825   2.321  0.0730 -0.9996  0.6181
 5077SOL     OW16650   7.243   1.945   6.011  0.4302  0.1804 -0.1565
 5077SOL    HW116651   7.251   2.029   5.965 -0.1789  0.0729 -0.4628
 5077SOL    HW216652   7.176   1.962   6.078  0.6046  0.0541  0.0496
 5078SOL     OW16653   3.867   2.462   6.367 -0.6077  0.2492 -0.1761
 5078SOL    HW116654   3.833   2.397   6.305 -0.7708 -0.6768  0.8552
 5078SOL    HW216655   3.880   2.413   6.448 -0.9196  1.5508  0.6915
 5079SOL     OW16656   3.043   1.241   7.103 -0.0016 -0.2631 -0.1468
 5079SOL    HW116657   3.074   1.332   7.107 -2.1650  0.4818  1.9200
 5079SOL    HW216658   3.009   1.232   7.014 -0.1015  1.0807 -0.2673
 5080SOL     OW16659   0.265   2.145   7.345  0.2809 -0.0992  0.0065
 5080SOL    HW116660   0.354   2.110   7.352  1.1790  1.7197 -1.3345
 5080SOL    HW216661   0.242   2.168   7.435  0.0328 -3.0022  0.7872
 5081SOL     OW16662   3.002   4.941   1.663  0.1494 -0.1395  0.0376
 5081SOL    HW116663   3.093   4.966   1.680  0.4524 -1.9554  1.4169
 5081SOL    HW216664   2.973   4.900   1.744 -1.7084 -0.1908 -0.6031
 5082SOL     OW16665   1.402   7.345   2.576 -0.2482 -0.3952  0.7622
 5082SOL    HW116666   1.432   7.406   2.508  1.1806 -0.3166  1.4228
 5082SOL    HW216667   1.350   7.400   2.636 -1.1214 -0.3720 -0.0033
 5083SOL     OW16668   3.052   1.175   0.649 -0.0909 -0.0787 -0.0208
 5083SOL    HW116669   3.094   1.094   0.618  1.3475 -0.3542  2.3787
 5083SOL    HW216670   2.990   1.145   0.715  0.5926  0.7572  1.0242
 5084SOL     OW16671   5.515   3.273   2.554 -0.0928  0.0062  0.1044
 5084SOL    HW116672   5.512   3.256   2.460 -0.5617  1.4270 -0.1595
 5084SOL    HW216673   5.565   3.200   2.590  0.5041 -0.3076 -1.3039
 5085SOL     OW16674   2.695   1.016   4.426 -0.1534  0.2287  0.2236
 5085SOL    HW116675   2.690   1.106   4.459  1.9205 -0.0762  1.5884
 5085SOL    HW216676   2.651   0.964   4.494  2.0599 -0.1449  1.4667
 5086SOL     OW16677   6.289   2.271   8.085 -0.0319 -0.0525  0.3146
 5086SOL    HW116678   6.302   2.343   8.023  0.3469  0.6108  1.1494
 5086SOL    HW216679   6.375   2.231   8.093 -0.1427 -0.3161  0.2022
 5087SOL     OW16680   7.505   0.943   6.282 -0.9654 -0.4264  0.0421
 5087SOL    HW116681   7.443   0.900   6.342 -1.0373 -1.2187 -0.5786
 5087SOL    HW216682   7.541   1.016   6.333 -0.2381 -1.6921  1.4541
 5088SOL     OW16683   7.452   7.325   3.538 -0.4942  0.5866  0.1460
 5088SOL    HW116684   7.367   7.282   3.546 -0.0179 -0.2409  0.9278
 5088SOL    HW216685   7.460   7.344   3.444 -0.8794 -0.6985 -0.1703
 5089SOL     OW16686   7.822   1.462   3.972 -0.0664  0.0661  0.6034
 5089SOL    HW116687   7.857   1.478   4.060 -0.6980  1.0179  0.6939
 5089SOL    HW216688   7.731   1.436   3.986  0.0328 -0.4947  0.2590
 5090SOL     OW16689   1.583   8.268   4.023 -0.5867  0.0498  0.2336
 5090SOL    HW116690   1.573   8.205   3.951  2.6810  1.6871 -1.9167
 5090SOL    HW216691   1.524   8.340   4.001  0.4093  0.5525 -0.9422
 5091SOL     OW16692   3.258   7.315   2.681 -0.4241  0.2799  0.1114
 5091SOL    HW116693   3.231   7.379   2.747 -2.9479 -0.7889  0.2431
 5091SOL    HW216694   3.184   7.311   2.620  1.1352 -0.0026 -1.8731
 5092SOL     OW16695   4.417   0.101   3.923 -0.2733  0.0457  0.3445
 5092SOL    HW116696   4.499   0.145   3.902 -0.8904  1.3942  0.6363
 5092SOL    HW216697   4.367   0.102   3.841 -0.4906  0.3482  0.4790
 5093SOL     OW16698   8.302   4.662   0.626 -0.5297 -0.4438 -0.3747
 5093SOL    HW116699   8.247   4.624   0.695 -2.2607 -2.8230 -2.8540
 5093SOL    HW216700   8.262   4.747   0.608 -0.9694 -0.4438  0.5399
 5094SOL     OW16701   0.026   1.766   6.408 -0.5390  0.2427 -0.1416
 5094SOL    HW116702   0.028   1.817   6.327 -0.8703 -0.2477 -0.4654
 5094SOL    HW216703   0.048   1.677   6.381  0.7093  0.3255  0.5160
 5095SOL     OW16704   8.227   1.510   6.031  0.0055  0.1287 -0.6953
 5095SOL    HW116705   8.151   1.549   5.987  0.8314 -0.6443 -2.9414
 5095SOL    HW216706   8.297   1.574   6.019 -0.0114  0.3817  0.4732
 5096SOL     OW16707   3.494   3.817   1.631 -0.3085 -0.0611 -0.2005
 5096SOL    HW116708   3.506   3.810   1.726 -1.1837 -1.0113 -0.1418
 5096SOL    HW216709   3.556   3.884   1.604 -0.4473  0.6352  1.1266
 5097SOL     OW16710   4.941   7.699   7.985 -0.6654  0.8854  0.6128
 5097SOL    HW116711   4.987   7.654   8.056 -1.7065 -0.4736  0.4672
 5097SOL    HW216712   4.848   7.686   8.004 -1.0337 -1.5591 -2.1399
 5098SOL     OW16713   2.992   0.036   6.164 -0.2713  0.1586  0.2797
 5098SOL    HW116714   3.081   0.071   6.158  0.0710 -0.3163  2.0447
 5098SOL    HW216715   3.002  -0.045   6.214 -1.4953 -0.7615 -0.8977
 5099SOL     OW16716   0.204   6.332   2.774 -0.0556  0.2325 -0.1215
 5099SOL    HW116717   0.206   6.273   2.700  1.4656  0.1466 -0.0333
 5099SOL    HW216718   0.177   6.416   2.737  2.5749  0.6975 -1.1980
 5100SOL     OW16719   4.080   5.101   6.394  0.2420 -0.0561 -0.0017
 5100SOL    HW116720   4.119   5.187   6.377  0.3464 -0.0124  0.4316
 5100SOL    HW216721   4.155   5.042   6.399  0.0681 -0.4947 -2.0362
 5101SOL     OW16722   7.126   1.213   4.232  0.2543 -0.0169  0.0289
 5101SOL    HW116723   7.147   1.304   4.210 -0.7728 -0.1181 -1.5131
 5101SOL    HW216724   7.082   1.220   4.317 -0.2252  0.9997 -0.2759
 5102SOL     OW16725   3.569   2.732   4.457 -0.2665  0.1253 -0.1198
 5102SOL    HW116726   3.542   2.689   4.538  0.2599  3.2933  1.9078
 5102SOL    HW216727   3.662   2.712   4.449 -0.4816 -0.8297 -0.4347
 5103SOL     OW16728   0.316   2.156   4.520  0.4308  0.1726 -0.3612
 5103SOL    HW116729   0.258   2.192   4.453 -2.7057 -0.4454  1.7957
 5103SOL    HW216730   0.303   2.061   4.514 -0.6755  0.1370  1.6073
 5104SOL     OW16731   6.900   3.809   1.795  0.4528  0.3754  0.0161
 5104SOL    HW116732   6.875   3.901   1.801  0.2141  0.2628  0.8831
 5104SOL    HW216733   6.961   3.805   1.721 -1.5177  0.7649 -1.7202
 5105SOL     OW16734   2.989   3.429   0.573  1.2609 -0.0498  0.4469
 5105SOL    HW116735   2.894   3.425   0.568  1.3194 -0.2231 -0.7853
 5105SOL    HW216736   3.007   3.480   0.652  0.1238  0.9970  0.0628
 5106SOL     OW16737   4.801   2.862   5.177  0.2368 -0.3426 -0.2316
 5106SOL    HW116738   4.879   2.837   5.127 -1.0656 -1.3014 -1.8522
 5106SOL    HW216739   4.737   2.887   5.112 -0.3685  1.9348  1.1407
 5107SOL     OW16740   1.874   0.603   0.233 -0.1046  0.1036 -0.3097
 5107SOL    HW116741   1.901   0.539   0.299 -0.9467 -0.3359 -0.3846
 5107SOL    HW216742   1.847   0.680   0.283  0.1063  0.0986 -0.1863
 5108SOL     OW16743   3.833   1.668   6.235 -0.6579 -0.2596  0.0807
 5108SOL    HW116744   3.864   1.694   6.321 -1.4335 -1.7427  0.8483
 5108SOL    HW216745   3.878   1.586   6.217 -2.5768 -1.4516  0.3731
 5109SOL     OW16746   6.641   5.808   1.399 -0.5256  0.7628  0.0758
 5109SOL    HW116747   6.614   5.897   1.374  0.4977  1.1136  0.1725
 5109SOL    HW216748   6.631   5.806   1.494 -0.9937  0.6144  0.0262
 5110SOL     OW16749   3.151   4.061   4.858  0.1593  0.0848  0.4618
 5110SOL    HW116750   3.172   4.012   4.938  1.1835  0.4530  0.4224
 5110SOL    HW216751   3.094   4.132   4.888 -3.8655 -2.6625  0.1677
 5111SOL     OW16752   6.199   4.439   4.147  0.0705 -0.1819 -0.5339
 5111SOL    HW116753   6.128   4.380   4.122 -0.8054  0.1865  0.9093
 5111SOL    HW216754   6.279   4.396   4.117 -0.6392 -1.5287 -0.5509
 5112SOL     OW16755   2.997   5.024   7.941 -0.2699  0.8974  0.1899
 5112SOL    HW116756   2.959   4.963   8.004  0.7994  1.3986  1.3485
 5112SOL    HW216757   3.087   4.994   7.931  0.1062  1.9558  0.3462
 5113SOL     OW16758   1.861   0.624   5.700 -0.0766 -0.0723 -0.2450
 5113SOL    HW116759   1.879   0.530   5.707 -0.4281 -0.0659  1.0064
 5113SOL    HW216760   1.798   0.632   5.629 -0.4326 -0.8440 -0.0182
 5114SOL     OW16761   1.796   2.530   1.943 -0.4115  0.2266 -0.3030
 5114SOL    HW116762   1.804   2.602   1.881 -2.1772 -0.1238 -0.9898
 5114SOL    HW216763   1.769   2.455   1.889 -1.6768 -0.1669  0.8156
 5115SOL     OW16764   5.122   4.360   5.657  0.0534  0.4251  0.3933
 5115SOL    HW116765   5.138   4.288   5.596  2.2211  0.3061  1.0026
 5115SOL    HW216766   5.188   4.425   5.634  0.2566  0.8051  1.9587
 5116SOL     OW16767   7.772   5.365   5.926 -0.2759 -0.2268 -0.4292
 5116SOL    HW116768   7.817   5.281   5.931  1.0160  0.2738 -2.2943
 5116SOL    HW216769   7.704   5.353   5.860  0.2690  0.3100 -1.1084
 5117SOL     OW16770   2.234   8.131   7.670  0.3397  0.5112  0.2756
 5117SOL    HW116771   2.330   8.130   7.678  0.2540 -0.2046  1.4615
 5117SOL    HW216772   2.217   8.180   7.590  1.7799 -1.4722 -1.3438
 5118SOL     OW16773   1.338   6.665   4.512 -0.1388 -0.1422 -0.4833
 5118SOL    HW116774   1.319   6.751   4.548  1.0983  0.0508 -0.2278
 5118SOL    HW216775   1.254   6.619   4.512 -0.8113  1.0499 -0.6239
 5119SOL     OW16776   7.922   4.716   7.870  0.3267 -0.2363  0.0373
 5119SOL    HW116777   7.905   4.671   7.953 -0.7405 -1.5949 -0.8744
 5119SOL    HW216778   7.974   4.793   7.895  0.6941 -1.0143  1.8631
 5120SOL     OW16779   8.301   6.960   4.339  0.1330  0.7420  0.0835
 5120SOL    HW116780   8.206   6.973   4.344  0.1611  1.3688 -0.8342
 5120SOL    HW216781   8.314   6.906   4.261  0.7045  3.0319 -1.5231
 5121SOL     OW16782   0.044   6.316   2.070  0.5341  0.0159 -0.3444
 5121SOL    HW116783  -0.010   6.381   2.114  0.2887 -1.5593  1.8582
 5121SOL    HW216784   0.119   6.366   2.037 -0.0957  1.5547  0.4369
 5122SOL     OW16785   2.499   0.308   1.152 -0.1442  0.2612  0.2479
 5122SOL    HW116786   2.523   0.312   1.244  1.4627 -0.3269 -0.1184
 5122SOL    HW216787   2.414   0.353   1.147 -0.4043  0.0332  2.0433
 5123SOL     OW16788   3.290   2.884   6.006  0.4554  0.5255  0.0892
 5123SOL    HW116789   3.336   2.823   5.949  1.3929  1.2749  0.0260
 5123SOL    HW216790   3.243   2.942   5.947  1.5280  1.3815  0.0455
 5124SOL     OW16791   0.440   7.534   0.146 -0.1338  0.1260 -0.0968
 5124SOL    HW116792   0.485   7.465   0.096  1.9359 -0.1643  2.0054
 5124SOL    HW216793   0.493   7.613   0.131 -1.5766  0.9495 -1.1877
 5125SOL     OW16794   3.048   3.979   1.785  0.1460 -0.8004  0.1468
 5125SOL    HW116795   3.101   4.022   1.852 -0.2434  1.1651 -0.7443
 5125SOL    HW216796   3.112   3.947   1.722  0.3860 -0.4550  0.2095
 5126SOL     OW16797   2.093   5.014   6.162  0.2296  0.7266 -0.0660
 5126SOL    HW116798   2.102   4.945   6.227 -1.5735 -0.7423 -1.3122
 5126SOL    HW216799   2.155   4.990   6.093  0.1062  0.7400 -0.1816
 5127SOL     OW16800   4.608   2.991   5.970 -0.7651 -0.1434  0.2474
 5127SOL    HW116801   4.617   2.910   5.920  0.2352 -0.4610  0.9009
 5127SOL    HW216802   4.519   2.990   6.004 -0.6079 -1.2377  0.6690
 5128SOL     OW16803   8.273   4.084   5.534 -0.0535 -0.0769 -0.5820
 5128SOL    HW116804   8.179   4.093   5.517  0.0664 -0.1786 -1.3732
 5128SOL    HW216805   8.299   4.168   5.569 -0.2558  0.3161 -1.3393
 5129SOL     OW16806   3.228   1.413   7.684 -0.9182  0.8053  0.6800
 5129SOL    HW116807   3.145   1.405   7.731 -0.4187 -0.9483  1.3601
 5129SOL    HW216808   3.227   1.502   7.648 -2.3354  1.4176  2.0994
 5130SOL     OW16809   4.193   2.784   3.226  0.0643  0.4720  0.5645
 5130SOL    HW116810   4.187   2.787   3.321  2.9788  0.6660  0.8281
 5130SOL    HW216811   4.263   2.845   3.204 -0.2978  0.1675 -1.6787
 5131SOL     OW16812   1.610   7.210   0.579 -0.0949  0.1572 -0.2258
 5131SOL    HW116813   1.632   7.180   0.666  1.3376 -1.8035 -1.1970
 5131SOL    HW216814   1.598   7.305   0.589  1.0570  0.1451  1.8883
 5132SOL     OW16815   3.899   2.583   0.026  0.3883 -0.0759 -0.1249
 5132SOL    HW116816   3.934   2.615  -0.057  3.9843 -1.5272  0.6618
 5132SOL    HW216817   3.897   2.488   0.015  0.4506 -0.2474  1.2894
 5133SOL     OW16818   8.050   3.029   0.664 -0.5915  0.7165 -0.2482
 5133SOL    HW116819   7.982   3.053   0.726 -1.1714 -0.3270 -0.4753
 5133SOL    HW216820   8.003   2.992   0.589  0.1332  1.3400 -1.0349
 5134SOL     OW16821   5.088   4.898   7.993  0.2247  0.0017  0.0622
 5134SOL    HW116822   5.110   4.945   7.913  2.4343 -0.0149  0.6007
 5134SOL    HW216823   5.167   4.904   8.047 -0.5510 -1.5949  1.4713
 5135SOL     OW16824   8.058   5.074   3.847  0.1537  0.4210  0.5129
 5135SOL    HW116825   8.002   5.107   3.918 -0.8762  0.2127 -0.1756
 5135SOL    HW216826   8.043   4.979   3.847  0.0679  0.4322 -0.0462
 5136SOL     OW16827   0.820   1.336   6.774 -0.2913 -0.4659 -0.0140
 5136SOL    HW116828   0.860   1.251   6.792  0.0754 -0.2655  0.1166
 5136SOL    HW216829   0.891   1.399   6.785 -0.3674 -0.2116 -0.8974
 5137SOL     OW16830   5.260   1.386   2.757  0.5360  0.2927 -0.1388
 5137SOL    HW116831   5.277   1.311   2.699  0.4031  0.6686 -0.6711
 5137SOL    HW216832   5.181   1.426   2.721 -0.3553 -0.2743  1.1300
 5138SOL     OW16833   3.752   3.972   1.116  0.1540 -0.5539  0.6819
 5138SOL    HW116834   3.795   3.971   1.030  1.1926  0.3369  1.1700
 5138SOL    HW216835   3.677   4.030   1.104  0.6505  0.0666  0.5261
 5139SOL     OW16836   3.967   4.916   0.113 -0.1172 -0.0500  0.6731
 5139SOL    HW116837   4.015   4.870   0.181  0.6113 -0.0600  0.1705
 5139SOL    HW216838   3.892   4.955   0.158  0.1513 -0.3602  1.4017
 5140SOL     OW16839   6.410   4.997   5.885  0.3384 -0.1235 -0.2563
 5140SOL    HW116840   6.472   4.931   5.853 -0.1075 -0.5959 -0.1565
 5140SOL    HW216841   6.326   4.952   5.885  0.0788  0.3619  0.0873
 5141SOL     OW16842   7.949   3.986   1.703 -0.2915  0.2155  0.0375
 5141SOL    HW116843   7.871   3.953   1.658  0.5378 -1.0716 -0.5239
 5141SOL    HW216844   7.927   3.980   1.796  0.0443 -2.7483  0.0420
 5142SOL     OW16845   6.811   4.552   1.909 -0.0427 -0.2788  0.0111
 5142SOL    HW116846   6.718   4.548   1.934  0.1153  1.5348  1.0798
 5142SOL    HW216847   6.858   4.546   1.992  0.8527 -1.8988 -0.5847
 5143SOL     OW16848   7.530   4.928   7.822  0.1169 -0.5219  0.0799
 5143SOL    HW116849   7.607   4.984   7.816 -0.0351 -0.3538 -0.2622
 5143SOL    HW216850   7.558   4.843   7.787 -0.0612 -0.2533 -0.7194
 5144SOL     OW16851   3.459   2.773   2.904 -0.3117 -0.4366 -0.3630
 5144SOL    HW116852   3.377   2.811   2.935  0.4297  0.6150  0.3710
 5144SOL    HW216853   3.462   2.795   2.811 -0.7126 -0.1980 -0.3224
 5145SOL     OW16854   7.147   4.220   7.891 -0.0078  0.2312 -0.6600
 5145SOL    HW116855   7.212   4.158   7.922 -2.4342 -1.1901  2.0265
 5145SOL    HW216856   7.166   4.301   7.939  0.7399  0.3630 -1.1605
 5146SOL     OW16857   5.804   3.164   3.948  0.2433 -0.0320  0.3045
 5146SOL    HW116858   5.809   3.090   3.888 -0.1783  0.8774 -0.9011
 5146SOL    HW216859   5.894   3.196   3.955  0.4838 -0.8644  1.1175
 5147SOL     OW16860   5.280   7.230   6.449  0.6507 -0.2415 -0.5537
 5147SOL    HW116861   5.309   7.154   6.500  0.9556  0.0443 -0.2949
 5147SOL    HW216862   5.328   7.222   6.366 -0.0422 -0.8485 -0.9113
 5148SOL     OW16863   2.527   6.271   3.646  0.3430  0.3214  0.0909
 5148SOL    HW116864   2.487   6.306   3.725 -0.4100 -0.3424  0.0237
 5148SOL    HW216865   2.535   6.346   3.588  0.2931  0.6926  0.5549
 5149SOL     OW16866   4.627   2.680   7.074 -0.1065  0.0775 -0.1960
 5149SOL    HW116867   4.675   2.607   7.112  0.2918 -0.6100 -1.9233
 5149SOL    HW216868   4.568   2.709   7.143 -1.3937 -2.8938  0.1088
 5150SOL     OW16869   7.746   2.154   5.315 -0.0650 -0.2861 -0.3081
 5150SOL    HW116870   7.662   2.109   5.304  0.7481 -2.3880  1.4690
 5150SOL    HW216871   7.752   2.170   5.409  1.2016  0.5268 -0.5086
 5151SOL     OW16872   3.872   3.631   3.160 -0.5972 -0.4217  0.3435
 5151SOL    HW116873   3.912   3.690   3.095  1.1058 -1.4557  0.4196
 5151SOL    HW216874   3.780   3.625   3.132  0.2419 -1.5405 -2.5894
 5152SOL     OW16875   1.838   1.667   0.827 -0.7082  0.0659  0.1472
 5152SOL    HW116876   1.922   1.667   0.781 -0.5497 -0.6473  0.4272
 5152SOL    HW216877   1.818   1.575   0.841 -0.8041  0.2649  1.4164
 5153SOL     OW16878   5.228   0.177   0.465 -0.4894 -0.2640  0.0382
 5153SOL    HW116879   5.185   0.179   0.379 -0.6939  1.0277  0.1529
 5153SOL    HW216880   5.321   0.187   0.446 -0.5761  0.4835 -0.0183
 5154SOL     OW16881   5.403   3.577   5.933 -0.1763 -0.2529  0.1919
 5154SOL    HW116882   5.372   3.553   5.845  0.7553  0.2618 -0.2913
 5154SOL    HW216883   5.486   3.622   5.917 -0.2481  0.2910  1.3103
 5155SOL     OW16884   4.033   1.611   0.462 -0.1813 -0.3955 -0.1773
 5155SOL    HW116885   4.034   1.652   0.549 -0.2501  2.3456 -1.3718
 5155SOL    HW216886   4.114   1.640   0.421 -1.0487 -0.0181 -1.7066
 5156SOL     OW16887   2.059   2.110   7.123 -0.1050  0.1262 -0.3338
 5156SOL    HW116888   2.045   2.201   7.151  1.2347  0.3240 -0.2041
 5156SOL    HW216889   2.019   2.106   7.036 -3.3988 -0.2179  1.0655
 5157SOL     OW16890   5.680   5.707   5.258 -0.0540  0.6031  0.0586
 5157SOL    HW116891   5.719   5.726   5.172  1.7498 -0.0843  0.6675
 5157SOL    HW216892   5.668   5.792   5.298  1.5556  0.8478  0.1079
 5158SOL     OW16893   7.857   5.031   6.218 -0.7105 -0.3307 -0.2876
 5158SOL    HW116894   7.815   5.056   6.136  0.6265 -1.5229 -1.3969
 5158SOL    HW216895   7.806   4.957   6.250 -1.0427 -0.0704 -0.2179
 5159SOL     OW16896   5.754   3.795   1.456 -0.2527  0.0422 -0.0046
 5159SOL    HW116897   5.755   3.773   1.363  1.3245  1.7545 -0.4519
 5159SOL    HW216898   5.839   3.765   1.488 -0.5708 -0.0574  0.7770
 5160SOL     OW16899   3.394   0.408   7.434 -0.6006 -0.1923  0.7989
 5160SOL    HW116900   3.310   0.434   7.395 -0.6174  0.9394  1.5306
 5160SOL    HW216901   3.403   0.466   7.510  1.1118  0.0775  0.4209
 5161SOL     OW16902   1.243   1.319   1.959 -0.1654 -0.2738  0.3506
 5161SOL    HW116903   1.187   1.319   1.882 -1.1540 -0.4457  1.0511
 5161SOL    HW216904   1.189   1.283   2.028  0.1565  1.3515  1.5167
 5162SOL     OW16905   0.786   7.972   7.779 -0.1584  0.4122  0.3825
 5162SOL    HW116906   0.782   8.031   7.703  1.5444  0.2776  0.1626
 5162SOL    HW216907   0.874   7.936   7.777 -0.5181 -0.6059  1.6913
 5163SOL     OW16908   2.782   1.615   1.481 -0.6554  0.1425 -0.5893
 5163SOL    HW116909   2.708   1.573   1.438 -0.2889  0.1683 -1.2497
 5163SOL    HW216910   2.782   1.704   1.446  0.3623 -0.1843 -1.4571
 5164SOL     OW16911   0.613   5.433   3.782  0.3323  0.3571  0.6224
 5164SOL    HW116912   0.707   5.438   3.799  0.2264  2.4889  0.8630
 5164SOL    HW216913   0.583   5.524   3.787 -1.1811  0.1962 -2.8087
 5165SOL     OW16914   2.977   2.947   1.657 -0.2057  0.6355  0.0167
 5165SOL    HW116915   2.924   3.004   1.712 -0.7571 -0.2276  0.4181
 5165SOL    HW216916   2.970   2.861   1.698  0.3002  0.2013 -0.7699
 5166SOL     OW16917   0.024   8.064   0.233  0.1386  0.6380 -0.0701
 5166SOL    HW116918   0.066   8.032   0.154 -0.4721 -2.5797  0.7634
 5166SOL    HW216919   0.095   8.077   0.295  0.3160 -0.8336  0.0723
 5167SOL     OW16920   1.449   6.579   5.030  0.2270 -0.1166  0.4390
 5167SOL    HW116921   1.368   6.629   5.042 -2.0462 -2.9023 -1.9032
 5167SOL    HW216922   1.475   6.596   4.940  1.2163 -0.6693  0.6054
 5168SOL     OW16923   3.150   4.502   1.375 -0.0405  0.7598 -0.3829
 5168SOL    HW116924   3.140   4.540   1.288  0.3181 -1.1225 -1.2997
 5168SOL    HW216925   3.127   4.573   1.435 -0.4021  2.0728 -1.9988
 5169SOL     OW16926   5.580   1.818   1.876 -0.0916  0.3604  0.4318
 5169SOL    HW116927   5.609   1.812   1.966 -1.0238 -0.8115  0.6782
 5169SOL    HW216928   5.490   1.850   1.881 -0.0851  0.4821 -0.0953
 5170SOL     OW16929   6.838   4.987   2.884 -0.1483  0.2226 -0.5078
 5170SOL    HW116930   6.928   5.013   2.866  0.6384 -0.7009  1.7587
 5170SOL    HW216931   6.799   5.063   2.927  0.1867 -0.0548  0.3085
 5171SOL     OW16932   1.498   1.406   5.778  0.1595  0.5042 -0.1514
 5171SOL    HW116933   1.455   1.414   5.863  0.6047 -0.2674  0.1599
 5171SOL    HW216934   1.587   1.378   5.798  0.0030 -0.6265 -0.8946
 5172SOL     OW16935   1.351   3.070   5.437  0.1065 -0.4828  0.6971
 5172SOL    HW116936   1.291   3.034   5.503 -0.9825 -1.5009 -0.7925
 5172SOL    HW216937   1.430   3.017   5.445  0.0909 -0.4208  1.3569
 5173SOL     OW16938   1.310   6.284   6.292  0.3347 -0.1321  0.1291
 5173SOL    HW116939   1.348   6.286   6.205 -1.1289 -2.3556 -0.6690
 5173SOL    HW216940   1.366   6.225   6.342 -2.0968 -3.9848 -1.2481
 5174SOL     OW16941   5.813   3.793   6.108 -0.2016 -0.0943  0.4722
 5174SOL    HW116942   5.782   3.868   6.158  0.6057  0.9866 -0.5800
 5174SOL    HW216943   5.896   3.822   6.070  0.0768 -1.4876 -0.0471
 5175SOL     OW16944   1.660   1.307   5.166  0.3378 -0.5679 -0.0579
 5175SOL    HW116945   1.704   1.375   5.114  0.2857 -0.2607  0.3011
 5175SOL    HW216946   1.601   1.264   5.104 -0.4506  0.4382 -0.0313
 5176SOL     OW16947   5.175   0.081   7.337  0.1499  0.1636 -0.0340
 5176SOL    HW116948   5.235   0.007   7.346  1.8578  1.6206  1.2191
 5176SOL    HW216949   5.103   0.061   7.396 -0.7777 -1.6792 -1.6619
 5177SOL     OW16950   1.973   5.708   2.326  0.1989 -0.1559 -0.2367
 5177SOL    HW116951   1.913   5.770   2.284 -0.6679 -0.7723  0.0680
 5177SOL    HW216952   2.019   5.760   2.392  0.0852  0.3417 -0.5399
 5178SOL     OW16953   3.128   2.649   3.953  0.7350  0.3810 -0.5144
 5178SOL    HW116954   3.104   2.600   3.874 -0.9020  0.6793 -0.2386
 5178SOL    HW216955   3.180   2.588   4.004 -0.7498 -0.9130 -0.4578
 5179SOL     OW16956   2.962   6.479   6.306  0.2080  0.4415 -0.3037
 5179SOL    HW116957   2.940   6.539   6.235  0.6555  0.3084 -0.5591
 5179SOL    HW216958   2.995   6.401   6.262 -0.3091  0.0331  0.0306
 5180SOL     OW16959   3.146   3.811   3.739  0.2013 -0.3544 -0.4516
 5180SOL    HW116960   3.220   3.837   3.684 -0.2402  0.6860 -0.5950
 5180SOL    HW216961   3.181   3.745   3.798  1.1831 -0.0457 -0.6714
 5181SOL     OW16962   5.169   3.614   8.074  0.6160  0.5153  0.3503
 5181SOL    HW116963   5.113   3.588   8.147  0.0629 -3.0107 -1.1214
 5181SOL    HW216964   5.258   3.612   8.111  0.3473 -1.1142  1.0385
 5182SOL     OW16965   1.239   3.433   4.168  0.4063 -0.2825 -0.0093
 5182SOL    HW116966   1.155   3.412   4.210 -0.3586  1.9473 -0.3117
 5182SOL    HW216967   1.303   3.425   4.239 -0.4480  0.5020  0.8927
 5183SOL     OW16968   4.658   5.142   6.540  0.3328 -0.2125 -0.6107
 5183SOL    HW116969   4.630   5.087   6.614 -2.6851  0.0008 -1.4333
 5183SOL    HW216970   4.691   5.079   6.476  3.0989 -0.3900  0.8620
 5184SOL     OW16971   6.597   5.555   7.915  0.1187 -0.0187  0.0326
 5184SOL    HW116972   6.685   5.538   7.882 -0.2103 -0.2697 -0.7288
 5184SOL    HW216973   6.590   5.500   7.993  0.3557 -0.6064 -0.3537
 5185SOL     OW16974   2.626   2.622   2.202 -0.0840  0.3105 -0.3661
 5185SOL    HW116975   2.572   2.661   2.133  1.5378  1.1234 -1.2158
 5185SOL    HW216976   2.715   2.622   2.167  0.5566 -0.6642  1.1391
 5186SOL     OW16977   0.686   2.472   6.335 -0.0070 -0.1632 -0.0147
 5186SOL    HW116978   0.678   2.562   6.304 -2.0113 -0.7753 -1.4788
 5186SOL    HW216979   0.771   2.443   6.302 -0.1672  0.6119 -1.1769
 5187SOL     OW16980   6.064   4.975   4.966 -0.2889  0.2211  0.0422
 5187SOL    HW116981   6.026   4.994   5.052 -1.6771  0.4593 -0.6039
 5187SOL    HW216982   6.124   5.048   4.950 -1.2162  1.0324  0.1301
 5188SOL     OW16983   7.277   5.226   0.751  0.0675  0.5806 -0.3128
 5188SOL    HW116984   7.293   5.219   0.845  0.2116  1.6617 -0.2432
 5188SOL    HW216985   7.330   5.300   0.723  0.3929 -0.0254 -1.3450
 5189SOL     OW16986   4.167   4.956   5.350  0.0824  0.3233 -0.0910
 5189SOL    HW116987   4.146   4.863   5.359 -0.3590  0.4073 -0.2672
 5189SOL    HW216988   4.140   4.978   5.261 -1.1629  0.9777  0.4397
 5190SOL     OW16989   8.313   7.274   6.976 -0.6007 -0.1783 -0.2090
 5190SOL    HW116990   8.255   7.238   7.043  0.8453  0.4043  1.4257
 5190SOL    HW216991   8.303   7.369   6.984 -0.3854 -0.0986 -0.8144
 5191SOL     OW16992   7.350   7.424   0.650 -0.4622 -0.2592  0.3593
 5191SOL    HW116993   7.324   7.348   0.703 -2.5800 -1.7762 -2.6063
 5191SOL    HW216994   7.300   7.497   0.688 -0.6612 -0.9195  1.4280
 5192SOL     OW16995   7.549   1.426   0.877  0.7916  0.0091 -0.3442
 5192SOL    HW116996   7.597   1.504   0.848  0.3945 -0.0290 -1.1404
 5192SOL    HW216997   7.457   1.447   0.862  0.6819 -0.6164 -0.6002
 5193SOL     OW16998   7.835   7.089   5.491  0.3205  0.2470 -0.5652
 5193SOL    HW116999   7.917   7.064   5.533  0.8554 -0.4605 -1.9656
 5193SOL    HW217000   7.804   7.008   5.450 -1.0016  0.5476 -0.1888
 5194SOL     OW17001   0.243   6.833   0.284 -0.4616 -0.3768  0.1618
 5194SOL    HW117002   0.284   6.757   0.326 -1.6232 -1.3326 -0.3696
 5194SOL    HW217003   0.274   6.830   0.194  1.6493  1.3994  0.7521
 5195SOL     OW17004   1.247   5.955   2.548 -0.3613  0.1257 -0.2142
 5195SOL    HW117005   1.217   5.960   2.639 -0.4864 -1.1932 -0.1575
 5195SOL    HW217006   1.244   6.045   2.516 -0.5698  0.5628  1.0091
 5196SOL     OW17007   4.621   0.464   7.795  0.6246  0.2658 -0.3353
 5196SOL    HW117008   4.690   0.511   7.840  0.2674  0.3754  0.1031
 5196SOL    HW217009   4.553   0.452   7.861 -0.3088  1.2542 -1.0713
 5197SOL     OW17010   2.528   5.532   3.848  0.1716  0.2174 -0.4670
 5197SOL    HW117011   2.525   5.488   3.933 -0.6479  2.3479  0.7047
 5197SOL    HW217012   2.457   5.491   3.798 -0.0553 -0.3438  0.2887
 5198SOL     OW17013   2.002   5.308   0.622  0.6286  0.1549 -0.5826
 5198SOL    HW117014   2.022   5.337   0.533  0.2460 -2.3767 -1.5763
 5198SOL    HW217015   1.913   5.341   0.638 -0.0734 -0.9145 -1.9457
 5199SOL     OW17016   5.201   0.018   1.330 -0.4713  0.5712 -0.4051
 5199SOL    HW117017   5.176  -0.051   1.391  0.3715 -0.7845 -1.5101
 5199SOL    HW217018   5.274  -0.019   1.281  0.2155  2.3839 -0.8462
 5200SOL     OW17019   1.010   0.892   6.128  0.1221 -0.4782 -0.4505
 5200SOL    HW117020   0.977   0.981   6.134 -0.5025 -0.7168 -0.3148
 5200SOL    HW217021   1.070   0.883   6.202 -0.5352 -0.4713  0.0852
 5201SOL     OW17022   4.858   0.759   8.255  0.2365 -0.6670  0.0401
 5201SOL    HW117023   4.898   0.842   8.228  1.7146 -1.8756 -1.6929
 5201SOL    HW217024   4.804   0.782   8.331  1.9107  1.5799  0.6464
 5202SOL     OW17025   0.605   1.420   0.638  0.4229  0.4278 -0.1290
 5202SOL    HW117026   0.699   1.419   0.656  0.3244  1.5289  0.5434
 5202SOL    HW217027   0.564   1.410   0.724 -0.0743  0.3598 -0.3705
 5203SOL     OW17028   1.932   1.108   6.335 -0.4034 -0.5676 -0.3383
 5203SOL    HW117029   1.910   1.095   6.243  0.5008 -0.4642 -0.5816
 5203SOL    HW217030   1.988   1.034   6.358  1.3864  0.6458 -0.5815
 5204SOL     OW17031   6.991   2.021   0.540  0.0435  0.1516  0.1552
 5204SOL    HW117032   7.045   2.086   0.586  0.9494 -0.1787 -0.4158
 5204SOL    HW217033   6.996   2.046   0.448  0.6392 -0.8783 -0.1103
 5205SOL     OW17034   8.039   4.937   7.995 -0.0841 -0.2839 -0.1758
 5205SOL    HW117035   8.076   4.959   7.910  2.1103  0.2528  0.8274
 5205SOL    HW217036   8.097   4.980   8.058 -0.9747 -1.5652  1.6210
 5206SOL     OW17037   7.628   4.518   5.502  0.3358 -0.2828 -0.5900
 5206SOL    HW117038   7.595   4.463   5.431  0.1645 -2.6516  1.2106
 5206SOL    HW217039   7.714   4.546   5.471  0.0726 -0.8498 -1.9354
 5207SOL     OW17040   1.503   6.627   1.505 -0.0472  0.0518  0.1192
 5207SOL    HW117041   1.544   6.554   1.552 -0.7201 -0.1077  0.4832
 5207SOL    HW217042   1.572   6.663   1.450  0.2720 -0.9093 -0.1196
 5208SOL     OW17043   7.444   2.292   8.140 -0.0672 -0.1649  0.4556
 5208SOL    HW117044   7.520   2.322   8.091 -1.4615  0.6241 -1.3278
 5208SOL    HW217045   7.479   2.268   8.226  2.3715 -1.0251 -0.6842
 5209SOL     OW17046   5.161   4.203   5.445 -0.2933 -0.5745 -0.0187
 5209SOL    HW117047   5.081   4.220   5.395 -0.4490 -0.8178  0.1429
 5209SOL    HW217048   5.214   4.148   5.387  0.4844  0.9369 -0.7950
 5210SOL     OW17049   3.672   4.148   7.008 -0.0680  0.2061  0.3846
 5210SOL    HW117050   3.752   4.194   6.982  0.6094 -1.3804 -0.5276
 5210SOL    HW217051   3.623   4.137   6.926 -1.0615  0.8285  0.8779
 5211SOL     OW17052   3.589   5.381   7.471 -0.1127  0.7187 -0.3342
 5211SOL    HW117053   3.494   5.387   7.477 -0.1368  1.2637 -1.1869
 5211SOL    HW217054   3.618   5.367   7.562 -1.0210  0.1678 -0.1185
 5212SOL     OW17055   0.120   4.305   7.290  0.5630  0.1088 -0.1150
 5212SOL    HW117056   0.102   4.211   7.297 -1.1051  0.5296  2.9360
 5212SOL    HW217057   0.212   4.314   7.317 -0.2884 -0.4430  3.5802
 5213SOL     OW17058   1.522   7.456   3.979  0.1753  0.3531 -0.7167
 5213SOL    HW117059   1.549   7.367   3.957 -0.3012  0.0752 -0.1923
 5213SOL    HW217060   1.439   7.445   4.025  0.7335  0.9879  0.4674
 5214SOL     OW17061   7.058   2.137   3.345 -0.2713 -0.1132 -0.7760
 5214SOL    HW117062   7.089   2.226   3.328 -0.6427  0.1616 -0.0614
 5214SOL    HW217063   7.108   2.082   3.284  0.8793  0.4353 -0.3535
 5215SOL     OW17064   2.766   1.095   2.858 -0.3460 -0.5856  0.2463
 5215SOL    HW117065   2.769   1.172   2.915  0.7450  0.9503 -1.7461
 5215SOL    HW217066   2.697   1.115   2.794  1.5795 -0.0524 -1.7798
 5216SOL     OW17067   5.300   5.091   5.310 -0.0884 -0.0831 -0.3684
 5216SOL    HW117068   5.245   5.166   5.290 -1.3202 -0.6020  0.8623
 5216SOL    HW217069   5.249   5.015   5.280  0.0069 -0.5688  0.6504
 5217SOL     OW17070   5.264   5.655   4.714  0.6831  0.1704  0.2267
 5217SOL    HW117071   5.243   5.625   4.626 -1.4445 -0.2853  0.8213
 5217SOL    HW217072   5.205   5.729   4.729 -0.1520 -0.7390  1.7881
 5218SOL     OW17073   6.296   3.813   2.841  0.3838 -0.0716  0.3050
 5218SOL    HW117074   6.321   3.841   2.753  0.5227  0.7804  0.6066
 5218SOL    HW217075   6.313   3.890   2.896 -0.0584 -0.4757  1.0129
 5219SOL     OW17076   5.090   3.320   6.492  0.1480 -0.0288 -0.3380
 5219SOL    HW117077   5.138   3.243   6.523 -0.6572  0.1706  1.5087
 5219SOL    HW217078   5.002   3.288   6.473  0.0356  0.2828 -0.3582
 5220SOL     OW17079   1.060   4.647   6.769  0.1310  0.1521  0.5139
 5220SOL    HW117080   1.081   4.699   6.691 -0.2386  0.9234  0.9191
 5220SOL    HW217081   0.980   4.599   6.745  0.4940 -0.2760  0.1269
 5221SOL     OW17082   0.914   6.112   7.510  0.3243 -0.2882  0.6829
 5221SOL    HW117083   0.940   6.046   7.574 -0.0027 -0.0331  1.0814
 5221SOL    HW217084   0.946   6.078   7.426 -2.7280 -2.6042  0.3126
 5222SOL     OW17085   2.080   8.016   7.422  0.2744  0.4447  0.4231
 5222SOL    HW117086   2.136   8.091   7.400  1.1739  0.1246  1.5287
 5222SOL    HW217087   2.123   7.975   7.497 -0.3787 -0.9972  0.0427
 5223SOL     OW17088   5.985   2.308   7.575 -0.4586 -0.2882 -0.0481
 5223SOL    HW117089   5.997   2.219   7.541  0.3276 -0.2240  0.0473
 5223SOL    HW217090   6.065   2.355   7.549 -2.1904  1.3656 -3.0710
 5224SOL     OW17091   1.090   3.596   5.551 -0.1870  0.0624 -0.6908
 5224SOL    HW117092   1.058   3.567   5.637 -1.4282 -0.1219 -1.1889
 5224SOL    HW217093   1.030   3.666   5.526 -4.0749 -3.9003 -4.1723
 5225SOL     OW17094   6.985   3.428   0.587  0.3004 -1.3548  0.7243
 5225SOL    HW117095   6.891   3.412   0.581  0.1801 -0.5947  0.4899
 5225SOL    HW217096   7.025   3.349   0.551 -0.3137 -0.2900 -2.6332
 5226SOL     OW17097   7.587   6.823   4.323  0.3343 -0.1648 -0.7956
 5226SOL    HW117098   7.608   6.817   4.230 -0.7039  1.2902 -1.1516
 5226SOL    HW217099   7.492   6.813   4.327  0.3249  0.1672  0.0673
 5227SOL     OW17100   0.577   6.986   5.071 -0.0303 -0.1840 -0.0900
 5227SOL    HW117101   0.605   7.035   5.149 -0.6600  0.3976 -0.2187
 5227SOL    HW217102   0.482   6.993   5.071 -0.0033  0.6055 -1.3978
 5228SOL     OW17103   7.801   1.048   6.511  0.5877  0.3503 -0.0437
 5228SOL    HW117104   7.823   0.982   6.445 -0.1767  0.3404 -0.3079
 5228SOL    HW217105   7.714   1.080   6.484  0.9848  1.5430  0.0083
 5229SOL     OW17106   0.334   6.565   4.648  0.2107 -0.2825 -1.0821
 5229SOL    HW117107   0.309   6.556   4.740 -0.4453 -0.2876 -1.2592
 5229SOL    HW217108   0.369   6.654   4.642 -0.1865 -0.1125 -0.9287
 5230SOL     OW17109   2.578   3.157   6.052  0.4489 -0.1793  0.0396
 5230SOL    HW117110   2.520   3.134   6.124 -0.9812  0.8705 -0.7241
 5230SOL    HW217111   2.666   3.140   6.086 -0.1790  0.2066  2.0024
 5231SOL     OW17112   1.528   5.967   5.921  0.4316 -0.5434 -0.1604
 5231SOL    HW117113   1.484   5.940   6.002  1.3720  0.1205  0.5955
 5231SOL    HW217114   1.595   5.900   5.906 -0.2742 -1.1096 -0.8571
 5232SOL     OW17115   3.731   2.754   2.947 -0.1941 -0.2052  0.5058
 5232SOL    HW117116   3.636   2.744   2.949 -0.2181  0.0065  2.0712
 5232SOL    HW217117   3.754   2.773   3.038  1.2413  0.7814 -0.0364
 5233SOL     OW17118   7.763   1.669   8.275 -0.0270 -0.3802 -0.6552
 5233SOL    HW117119   7.775   1.594   8.332  1.7776  1.6084  1.7905
 5233SOL    HW217120   7.840   1.667   8.217  0.2360 -0.2336 -0.3186
 5234SOL     OW17121   4.073   0.516   5.898  0.7828  0.4127 -0.4345
 5234SOL    HW117122   4.040   0.527   5.987 -0.6985 -1.4093 -0.6962
 5234SOL    HW217123   4.009   0.561   5.843  0.0583 -0.9563 -0.7579
 5235SOL     OW17124   4.800   0.097   3.056  0.1394 -0.3194 -0.0460
 5235SOL    HW117125   4.814   0.003   3.064 -0.6922 -0.4827 -0.3893
 5235SOL    HW217126   4.708   0.105   3.029 -0.5007  0.6672  2.2043
 5236SOL     OW17127   1.567   2.393   7.920  0.1777 -0.3008 -0.1996
 5236SOL    HW117128   1.476   2.387   7.891 -0.3221  0.5260  1.1155
 5236SOL    HW217129   1.613   2.328   7.868 -1.4090 -1.6654  0.0256
 5237SOL     OW17130   3.171   2.583   5.970 -0.0425 -0.0456 -0.2286
 5237SOL    HW117131   3.142   2.656   5.914 -1.5988  0.0927  0.6813
 5237SOL    HW217132   3.095   2.565   6.025  0.4393 -2.1305 -0.1824
 5238SOL     OW17133   1.099   1.965   0.690  0.1308  0.2228  0.1320
 5238SOL    HW117134   1.190   1.994   0.697 -0.0563  0.6882  0.7551
 5238SOL    HW217135   1.095   1.885   0.743  0.1232  0.3413  0.3121
 5239SOL     OW17136   7.914   1.802   4.098 -0.3897 -0.5271  0.0718
 5239SOL    HW117137   8.000   1.838   4.121 -0.6361  0.0337  0.1470
 5239SOL    HW217138   7.924   1.768   4.009 -0.5088  1.0287 -0.5755
 5240SOL     OW17139   1.679   0.862   1.043 -0.0378  0.3713 -0.0958
 5240SOL    HW117140   1.659   0.884   1.134  2.0239  0.5150  0.3664
 5240SOL    HW217141   1.771   0.886   1.032  0.0622 -0.6678 -1.9011
 5241SOL     OW17142   2.068   4.573   2.396 -0.7579  0.5243  0.0104
 5241SOL    HW117143   2.093   4.514   2.325 -0.5319  1.4254 -0.6642
 5241SOL    HW217144   2.039   4.514   2.466 -0.3918 -0.3951 -0.5916
 5242SOL     OW17145   0.463   4.653   5.185 -0.0840 -0.2969  0.2672
 5242SOL    HW117146   0.372   4.662   5.155  0.1223  1.8238  0.1772
 5242SOL    HW217147   0.461   4.680   5.277  0.8287  2.2301 -0.3898
 5243SOL     OW17148   5.810   8.080   6.546  0.0499 -0.3772 -0.3944
 5243SOL    HW117149   5.756   8.042   6.477 -1.4499  1.0052 -0.0321
 5243SOL    HW217150   5.848   8.158   6.507  1.2722 -0.9740 -0.4304
 5244SOL     OW17151   3.975   0.625   6.143  0.5599 -0.4977  0.0643
 5244SOL    HW117152   4.001   0.711   6.177 -0.9654  0.3764 -0.8736
 5244SOL    HW217153   3.881   0.632   6.130  0.5077 -2.1115 -0.6538
 5245SOL     OW17154   5.970   7.969   2.478 -0.3590 -0.0605  0.5056
 5245SOL    HW117155   6.044   7.927   2.522 -0.0386 -1.0834 -0.9386
 5245SOL    HW217156   5.940   7.905   2.414 -2.6419  0.2504  1.1542
 5246SOL     OW17157   2.830   5.110   1.483 -0.6448  0.1381  0.4006
 5246SOL    HW117158   2.770   5.156   1.542 -0.1883  0.6596  0.4659
 5246SOL    HW217159   2.894   5.069   1.541 -0.1046  0.7816  0.2678
 5247SOL     OW17160   3.219   0.400   4.838 -0.5029  0.1762  0.0315
 5247SOL    HW117161   3.276   0.348   4.782  0.2150  0.3751  0.5564
 5247SOL    HW217162   3.141   0.418   4.785 -1.7036 -3.0905  0.4879
 5248SOL     OW17163   6.998   1.080   4.444 -0.3183 -0.0271  0.5200
 5248SOL    HW117164   7.025   1.016   4.378 -0.2966  1.7547 -1.2879
 5248SOL    HW217165   6.904   1.065   4.455 -0.2151 -0.7119  0.5166
 5249SOL     OW17166   6.464   3.831   6.040  0.3399 -0.3213 -0.4073
 5249SOL    HW117167   6.427   3.758   5.992  0.8151 -1.0580  0.3255
 5249SOL    HW217168   6.557   3.811   6.049  0.6783  0.8663 -1.0710
 5250SOL     OW17169   4.352   0.546   4.005  0.4202 -0.3656  0.0849
 5250SOL    HW117170   4.308   0.629   4.025  0.9061 -0.0620 -0.0787
 5250SOL    HW217171   4.292   0.500   3.947 -0.5142 -0.7742  1.3284
 5251SOL     OW17172   7.852   2.754   7.915 -0.5891 -0.0494  0.5150
 5251SOL    HW117173   7.872   2.720   8.002 -0.0504 -1.1854 -0.0303
 5251SOL    HW217174   7.772   2.806   7.927  0.3306  1.1100  1.9597
 5252SOL     OW17175   5.084   8.323   0.321 -0.2729  0.1746  0.1344
 5252SOL    HW117176   5.076   8.228   0.318 -1.8833  0.2773  0.2257
 5252SOL    HW217177   5.096   8.343   0.414  0.4777  0.0518  0.0718
 5253SOL     OW17178   8.134   6.804   3.139  0.6064 -0.1929  0.3579
 5253SOL    HW117179   8.193   6.735   3.171  1.7835  1.1191  1.1689
 5253SOL    HW217180   8.093   6.838   3.218  0.5337  0.4608  0.0426
 5254SOL     OW17181   7.582   4.797   5.396  0.0923 -0.0446 -0.2884
 5254SOL    HW117182   7.657   4.741   5.377  0.5060  0.0802  0.8486
 5254SOL    HW217183   7.519   4.738   5.439  0.1160  0.1445  0.0080
 5255SOL     OW17184   1.160   2.460   7.971  0.3678 -0.0334  0.1719
 5255SOL    HW117185   1.216   2.437   7.897 -0.1022  0.3126 -0.3041
 5255SOL    HW217186   1.183   2.550   7.992  0.9140 -0.3228  0.8367
 5256SOL     OW17187   4.298   5.897   7.076  0.1454  0.2845 -0.6032
 5256SOL    HW117188   4.238   5.945   7.133  0.7918  1.4297 -0.8548
 5256SOL    HW217189   4.343   5.835   7.134  0.6137  1.2619  0.1081
 5257SOL     OW17190   6.438   5.373   6.413  0.3065  0.1148  0.3000
 5257SOL    HW117191   6.404   5.399   6.499 -0.0200  0.3819  0.0961
 5257SOL    HW217192   6.481   5.452   6.380 -0.8592  0.4917 -0.4079
 5258SOL     OW17193   7.544   3.894   7.826 -0.1656  0.3881  0.3829
 5258SOL    HW117194   7.607   3.903   7.898  0.3849 -0.2748 -0.0036
 5258SOL    HW217195   7.584   3.829   7.767 -1.6758 -0.8231  0.6281
 5259SOL     OW17196   3.421   0.191   4.748 -0.7452 -0.5557 -0.1286
 5259SOL    HW117197   3.505   0.212   4.707 -1.7048  0.9960 -1.3940
 5259SOL    HW217198   3.369   0.151   4.678 -1.3732 -0.7033  0.4093
 5260SOL     OW17199   3.570   2.788   7.946  0.0648  0.2414 -0.7144
 5260SOL    HW117200   3.653   2.823   7.915  0.9909 -0.5010  0.8106
 5260SOL    HW217201   3.578   2.693   7.935 -0.0101  0.0508  0.7067
 5261SOL     OW17202   7.272   4.837   5.329 -0.5303 -0.8030 -0.4633
 5261SOL    HW117203   7.304   4.750   5.351  2.1261 -0.4046 -2.2855
 5261SOL    HW217204   7.314   4.895   5.393  0.3171 -0.5881 -1.1736
 5262SOL     OW17205   3.531   1.454   6.967 -0.3459 -0.7881 -0.3114
 5262SOL    HW117206   3.576   1.522   6.919  1.4761 -0.8679  1.1759
 5262SOL    HW217207   3.571   1.455   7.054 -2.7262 -1.3797  0.8895
 5263SOL     OW17208   8.083   6.728   2.841  0.0885  0.1171 -0.6509
 5263SOL    HW117209   8.137   6.670   2.895  0.8750  1.5112  0.1361
 5263SOL    HW217210   8.047   6.671   2.773 -0.8211 -1.6821  1.2324
 5264SOL     OW17211   1.747   6.259   4.385  0.4598 -0.4345 -0.7539
 5264SOL    HW117212   1.700   6.206   4.450 -1.1514  1.6757 -0.0658
 5264SOL    HW217213   1.797   6.322   4.437 -0.8643  1.2984 -1.4660
 5265SOL     OW17214   7.399   6.040   3.549 -0.1683 -0.1405 -0.6418
 5265SOL    HW117215   7.471   6.020   3.489  0.0350 -1.3930 -0.0130
 5265SOL    HW217216   7.441   6.085   3.623 -0.1205 -0.2759 -0.5850
 5266SOL     OW17217   7.415   3.159   4.376 -0.7679 -0.4191 -0.2353
 5266SOL    HW117218   7.358   3.147   4.452 -1.6016 -0.4963 -0.8536
 5266SOL    HW217219   7.397   3.248   4.346  0.2991 -0.0279  0.2366
 5267SOL     OW17220   5.079   3.741   1.871 -0.0233  0.4306 -0.2402
 5267SOL    HW117221   5.085   3.684   1.794  0.0013  1.3655 -0.9542
 5267SOL    HW217222   4.985   3.754   1.883  0.0057  2.0603 -1.4951
 5268SOL     OW17223   4.005   0.091   2.378  0.2626  0.4062 -0.0601
 5268SOL    HW117224   4.010   0.182   2.408 -0.0454  0.6986 -0.8529
 5268SOL    HW217225   4.084   0.079   2.325  0.4125  0.1405  0.2214
 5269SOL     OW17226   3.627   4.362   0.342  0.2419 -0.0238  0.6017
 5269SOL    HW117227   3.611   4.338   0.433  0.2269  0.1174  0.6365
 5269SOL    HW217228   3.550   4.412   0.315  0.0240 -0.4916  0.3574
 5270SOL     OW17229   7.638   0.875   6.062  0.3862  0.0144 -1.0293
 5270SOL    HW117230   7.590   0.884   6.144  1.7600 -1.4749 -0.0199
 5270SOL    HW217231   7.607   0.793   6.024  0.5866  0.1237 -1.4421
 5271SOL     OW17232   0.686   0.975   4.602  0.2769 -0.2043  0.2107
 5271SOL    HW117233   0.781   0.980   4.607  0.2070  0.5111  0.8817
 5271SOL    HW217234   0.654   1.037   4.668 -0.6575  2.8315 -2.7861
 5272SOL     OW17235   2.461   3.542   3.753  0.2654 -0.0051 -0.5188
 5272SOL    HW117236   2.458   3.624   3.804  0.6986 -0.1006 -0.3354
 5272SOL    HW217237   2.551   3.539   3.719 -0.0283  0.0699 -1.3140
 5273SOL     OW17238   4.985   7.188   1.808  0.4373 -0.4260  0.0315
 5273SOL    HW117239   4.904   7.240   1.806 -0.4754 -1.6681  2.0241
 5273SOL    HW217240   5.046   7.240   1.860  0.7619  0.2299 -0.9633
 5274SOL     OW17241   4.291   4.455   0.028 -0.5156  0.2450 -0.0426
 5274SOL    HW117242   4.367   4.460   0.085  1.0736 -0.2553 -2.0242
 5274SOL    HW217243   4.254   4.368   0.045  0.0479  0.0321  0.1251
 5275SOL     OW17244   4.719   1.297   6.235 -0.2353 -0.0925  0.2692
 5275SOL    HW117245   4.730   1.383   6.274  0.6499 -0.6690  1.3637
 5275SOL    HW217246   4.656   1.252   6.292  1.1110 -0.9617  1.1434
 5276SOL     OW17247   7.380   4.961   1.074 -0.3626  0.0522 -0.6970
 5276SOL    HW117248   7.473   4.964   1.054 -0.0583  0.4792  0.6917
 5276SOL    HW217249   7.374   4.909   1.155 -1.3460 -0.1555 -0.8866
 5277SOL     OW17250   6.081   7.709   6.189 -0.2037 -0.5383 -0.1223
 5277SOL    HW117251   6.073   7.685   6.097 -1.0787  0.9680 -0.4732
 5277SOL    HW217252   6.169   7.746   6.197 -0.6360  0.6740 -0.7159
 5278SOL     OW17253   1.252   2.649   1.844 -0.3193  1.0532 -0.1790
 5278SOL    HW117254   1.224   2.600   1.766 -1.3400 -0.3681  1.0258
 5278SOL    HW217255   1.221   2.596   1.918 -1.3450  3.4516  1.2285
 5279SOL     OW17256   2.912   0.589   4.279  0.2504  0.1758  0.1686
 5279SOL    HW117257   2.849   0.660   4.287  0.6850  0.5955 -0.1168
 5279SOL    HW217258   2.894   0.549   4.194 -0.7705 -0.8206  0.8181
 5280SOL     OW17259   7.359   8.121   6.285 -0.0034 -0.0981 -0.0463
 5280SOL    HW117260   7.366   8.035   6.327 -0.7983 -2.7148 -4.6676
 5280SOL    HW217261   7.274   8.154   6.313 -0.9423 -2.1403 -0.2691
 5281SOL     OW17262   4.506   3.685   5.043 -0.4485 -0.2669 -0.5018
 5281SOL    HW117263   4.466   3.772   5.039 -0.4113 -0.2234  0.0264
 5281SOL    HW217264   4.515   3.667   5.136  0.2612 -0.5104 -0.6116
 5282SOL     OW17265   2.560   5.509   6.483 -0.1459  0.3104 -0.2904
 5282SOL    HW117266   2.540   5.582   6.424 -1.1940 -0.2159 -0.6121
 5282SOL    HW217267   2.491   5.446   6.466  0.9353 -0.9127 -0.2631
 5283SOL     OW17268   6.102   3.040   7.988 -0.1849  0.7563 -0.2625
 5283SOL    HW117269   6.090   3.135   7.988 -1.4940  0.6165  0.3697
 5283SOL    HW217270   6.195   3.028   8.006 -0.0248  1.9121 -0.2056
 5284SOL     OW17271   4.349   6.734   7.695  0.6405  0.1061 -0.1278
 5284SOL    HW117272   4.305   6.770   7.772 -0.4973 -1.6746  0.1050
 5284SOL    HW217273   4.428   6.788   7.685  0.3644  0.9255  1.7514
 5285SOL     OW17274   0.401   5.825   3.467  0.0327  0.2934 -0.4381
 5285SOL    HW117275   0.310   5.825   3.436  0.7619 -1.6410 -2.9175
 5285SOL    HW217276   0.428   5.917   3.461 -0.7894  0.4418 -3.0261
 5286SOL     OW17277   7.749   6.999   4.775 -0.5034  0.2064 -0.3126
 5286SOL    HW117278   7.733   6.959   4.690 -1.5389  0.7782 -0.3895
 5286SOL    HW217279   7.843   7.018   4.775 -0.3984 -0.2671 -1.1139
 5287SOL     OW17280   0.527   6.869   3.038 -0.1074  0.0762  0.1204
 5287SOL    HW117281   0.552   6.812   2.965  0.4175 -1.0428  1.1400
 5287SOL    HW217282   0.609   6.888   3.084 -0.6324 -0.7887  1.4923
 5288SOL     OW17283   2.045   1.929   3.881 -0.1602 -0.4298  0.4274
 5288SOL    HW117284   1.982   1.859   3.897 -0.7153 -0.1187 -0.3728
 5288SOL    HW217285   2.013   1.974   3.803 -0.0046  0.9248  1.1098
 5289SOL     OW17286   6.554   6.416   6.106  0.3785 -0.0212  0.4674
 5289SOL    HW117287   6.567   6.354   6.178  0.8603 -2.3215 -1.4732
 5289SOL    HW217288   6.643   6.437   6.076  0.1684 -0.7227 -0.7135
 5290SOL     OW17289   7.301   2.299   3.290  0.5480 -0.1707  0.0863
 5290SOL    HW117290   7.333   2.209   3.299 -0.4477 -0.4445  1.1175
 5290SOL    HW217291   7.311   2.337   3.377 -0.1024  0.3473 -0.0585
 5291SOL     OW17292   0.313   4.997   2.043 -0.8976 -0.1136  0.3285
 5291SOL    HW117293   0.361   4.946   2.108  1.1584 -1.6284 -2.2096
 5291SOL    HW217294   0.253   4.935   2.002  1.4950 -0.6765 -2.6642
 5292SOL     OW17295   7.489   4.404   7.122 -0.7346 -0.0082 -0.3199
 5292SOL    HW117296   7.549   4.377   7.192 -0.7066 -0.3614 -0.4809
 5292SOL    HW217297   7.484   4.499   7.131 -1.2581 -0.1119  0.5895
 5293SOL     OW17298   7.948   3.465   1.094  0.2487 -0.0269  0.2781
 5293SOL    HW117299   7.996   3.384   1.077 -0.9232 -0.5621 -0.5807
 5293SOL    HW217300   7.938   3.505   1.007 -0.6226  0.2076  0.4840
 5294SOL     OW17301   0.351   0.674   5.290  0.2849 -0.0146 -0.0503
 5294SOL    HW117302   0.327   0.591   5.249  0.9951  0.1584 -0.8455
 5294SOL    HW217303   0.271   0.705   5.332 -0.2268 -0.6292 -0.5698
 5295SOL     OW17304   5.094   2.349   3.666  0.3860 -0.0973  0.5394
 5295SOL    HW117305   5.136   2.296   3.734  1.1975  0.0406  0.1542
 5295SOL    HW217306   5.166   2.379   3.611 -0.4021 -1.5940 -1.3935
 5296SOL     OW17307   1.853   2.354   5.692  0.0123 -0.1537 -0.1808
 5296SOL    HW117308   1.782   2.347   5.756  0.0670  0.5272 -0.0361
 5296SOL    HW217309   1.894   2.268   5.692 -0.1352 -0.2292  0.5415
 5297SOL     OW17310   4.023   8.028   4.957  0.4329 -0.2704  0.0329
 5297SOL    HW117311   3.999   7.981   4.878  1.9468 -0.5014 -0.3320
 5297SOL    HW217312   4.001   8.119   4.939  2.2070 -0.0547 -1.3246
 5298SOL     OW17313   5.353   5.399   4.719 -0.1392 -0.1515 -0.2522
 5298SOL    HW117314   5.284   5.354   4.767 -0.5732 -0.7268 -1.3697
 5298SOL    HW217315   5.330   5.492   4.724 -0.2874 -0.2222  0.4506
 5299SOL     OW17316   4.195   7.228   1.125  0.0027  0.1114 -0.1975
 5299SOL    HW117317   4.175   7.173   1.200 -0.7289 -0.0134 -0.4754
 5299SOL    HW217318   4.169   7.316   1.152 -2.7557 -0.2958 -1.1720
 5300SOL     OW17319   3.883   8.120   6.951 -0.5276 -0.2078 -0.1568
 5300SOL    HW117320   3.875   8.197   7.007 -0.8976 -0.0370 -0.4373
 5300SOL    HW217321   3.818   8.059   6.985  0.5743 -0.8754  0.8117
 5301SOL     OW17322   4.029   5.637   0.535 -0.2842 -0.3782 -0.2963
 5301SOL    HW117323   3.998   5.547   0.546  0.7923 -0.7109  0.1229
 5301SOL    HW217324   4.123   5.628   0.522 -0.3623  0.6042 -1.6579
 5302SOL     OW17325   0.455   0.967   6.131 -0.5160  0.1069 -0.0772
 5302SOL    HW117326   0.478   0.976   6.224 -0.4724 -0.6845  0.0012
 5302SOL    HW217327   0.539   0.976   6.086 -0.3899 -0.4045  0.0372
 5303SOL     OW17328   1.972   2.317   3.025  0.0021  0.0126 -0.2276
 5303SOL    HW117329   1.935   2.357   2.945  0.1276  0.0243 -0.2808
 5303SOL    HW217330   2.067   2.329   3.015 -0.0191  0.5955  0.2311
 5304SOL     OW17331   4.598   5.454   5.628  0.1325 -0.8599  0.1766
 5304SOL    HW117332   4.516   5.503   5.625  0.9179  0.5378  0.5498
 5304SOL    HW217333   4.666   5.521   5.623  1.2576 -1.8595  1.3705
 5305SOL     OW17334   2.661   5.849   7.051  0.6928  0.2214 -0.4798
 5305SOL    HW117335   2.714   5.921   7.016  0.1367  0.8764  0.0217
 5305SOL    HW217336   2.674   5.853   7.146 -1.6502  1.5443 -0.1402
 5306SOL     OW17337   4.920   4.065   7.116 -0.1284  0.3561 -0.0083
 5306SOL    HW117338   4.973   4.138   7.148  1.4744 -0.2551 -1.1162
 5306SOL    HW217339   4.974   4.025   7.048 -1.9010 -0.5257 -0.9557
 5307SOL     OW17340   4.791   4.644   5.503 -0.7376 -0.6030  0.2031
 5307SOL    HW117341   4.741   4.624   5.424 -0.9600 -0.0203  0.1875
 5307SOL    HW217342   4.880   4.661   5.473 -0.7120 -0.8600  0.1362
 5308SOL     OW17343   0.624   1.877   3.749  0.5916  0.5166 -0.2861
 5308SOL    HW117344   0.605   1.970   3.765  0.9763  0.6684 -0.7079
 5308SOL    HW217345   0.593   1.861   3.660  3.2005  0.9942 -1.3621
 5309SOL     OW17346   0.470   8.108   2.935 -0.2714 -0.7060  0.4134
 5309SOL    HW117347   0.429   8.149   3.011  0.5457  2.1480 -0.5850
 5309SOL    HW217348   0.560   8.089   2.962 -0.2799 -0.6591  0.4720
 5310SOL     OW17349   7.185   5.771   0.174 -0.2616  0.2240 -0.4607
 5310SOL    HW117350   7.209   5.797   0.263 -1.6172  0.7625 -0.2121
 5310SOL    HW217351   7.217   5.682   0.165 -2.7602 -1.0276  1.7180
 5311SOL     OW17352   3.792   0.431   6.566  0.5223 -0.3038 -0.0335
 5311SOL    HW117353   3.858   0.365   6.545  0.1069 -0.9530  0.6582
 5311SOL    HW217354   3.709   0.383   6.568  0.5114 -0.3784  3.1868
 5312SOL     OW17355   7.164   3.555   7.519 -0.1780  0.0031 -0.0091
 5312SOL    HW117356   7.094   3.545   7.583 -1.4193 -1.5781 -1.5062
 5312SOL    HW217357   7.121   3.594   7.442  0.8454  0.1542 -0.5239
 5313SOL     OW17358   1.824   7.271   6.071 -0.1108  0.5229  0.1595
 5313SOL    HW117359   1.751   7.319   6.032  0.1581  0.8211  0.0154
 5313SOL    HW217360   1.843   7.319   6.152 -0.9302 -0.3271  0.8764
 5314SOL     OW17361   3.138   2.198   8.199  0.7100  0.4826  0.3458
 5314SOL    HW117362   3.079   2.271   8.216 -0.6369 -0.1424 -1.3520
 5314SOL    HW217363   3.194   2.228   8.127 -0.1262 -0.2684 -0.6412
 5315SOL     OW17364   5.035   0.544   0.919  0.5497 -0.0416 -0.3611
 5315SOL    HW117365   5.041   0.458   0.879 -2.3339  0.0201 -1.1506
 5315SOL    HW217366   5.046   0.605   0.846  2.1665  0.2899  0.1263
 5316SOL     OW17367   8.319   3.639   1.643  0.0810  0.4122  0.0701
 5316SOL    HW117368   8.392   3.682   1.598  0.1665 -3.1396 -3.7998
 5316SOL    HW217369   8.241   3.679   1.605  0.1710 -1.0438 -1.8322
 5317SOL     OW17370   0.499   6.223   5.975 -0.4372  0.1109  0.3751
 5317SOL    HW117371   0.418   6.192   5.933  0.0945  0.7895 -1.2652
 5317SOL    HW217372   0.496   6.318   5.963  0.3296  0.1920  0.8090
 5318SOL     OW17373   7.138   8.352   3.486 -0.0246 -0.0210 -0.1852
 5318SOL    HW117374   7.077   8.278   3.495  1.1274 -1.0858 -0.7170
 5318SOL    HW217375   7.082   8.430   3.488 -1.2505 -0.8759  0.7480
 5319SOL     OW17376   8.088   1.813   6.143  0.3840 -0.4701 -0.0667
 5319SOL    HW117377   8.085   1.774   6.230  0.5156  1.8111  1.0609
 5319SOL    HW217378   8.031   1.758   6.089  0.0325 -1.7458  1.5366
 5320SOL     OW17379   3.609   7.425   6.056 -0.3053  0.3527  0.3771
 5320SOL    HW117380   3.542   7.382   6.109  0.1850  0.2198  0.9009
 5320SOL    HW217381   3.681   7.362   6.051 -0.6092  0.0735 -1.0487
 5321SOL     OW17382   3.366   2.460   2.884 -0.3707  0.4727 -0.7738
 5321SOL    HW117383   3.444   2.453   2.829  0.9373 -1.5449  1.1360
 5321SOL    HW217384   3.388   2.525   2.950 -0.7261  0.6833 -0.8610
 5322SOL     OW17385   4.795   4.584   3.723  0.3262  0.9274 -0.2399
 5322SOL    HW117386   4.736   4.659   3.729 -1.3538 -0.2909 -0.7450
 5322SOL    HW217387   4.798   4.563   3.630 -2.1573 -1.7481  0.1289
 5323SOL     OW17388   2.966   2.673   6.135 -0.3990  0.9225 -0.3131
 5323SOL    HW117389   3.017   2.741   6.180  0.0135 -0.1326  0.8530
 5323SOL    HW217390   2.970   2.597   6.193 -2.0135  0.3186 -0.9334
 5324SOL     OW17391   1.740   8.135   0.750 -0.2418  0.0683  0.1679
 5324SOL    HW117392   1.761   8.043   0.734 -0.4959  0.0182  0.1090
 5324SOL    HW217393   1.743   8.176   0.663  1.6355  0.4973  0.4125
 5325SOL     OW17394   5.886   0.480   1.091  0.0103  0.1411  0.5209
 5325SOL    HW117395   5.914   0.398   1.050 -0.1131 -0.0066  0.7359
 5325SOL    HW217396   5.873   0.540   1.017 -1.3444 -0.4613  0.2435
 5326SOL     OW17397   5.947   2.991   6.790 -0.2161 -0.5640  0.4056
 5326SOL    HW117398   5.923   2.949   6.707  1.5368 -0.1663 -0.3414
 5326SOL    HW217399   6.035   2.958   6.809 -0.3748 -0.2263  1.8469
 5327SOL     OW17400   2.877   4.777   1.444  0.4378 -0.3854  0.1804
 5327SOL    HW117401   2.907   4.837   1.513  0.1642 -0.0828  0.0415
 5327SOL    HW217402   2.799   4.737   1.480  1.3780 -1.7035  0.8253
 5328SOL     OW17403   7.140   1.949   3.542  0.0218 -0.0488  0.5110
 5328SOL    HW117404   7.114   2.004   3.616 -0.8868 -0.2025  0.3120
 5328SOL    HW217405   7.136   2.007   3.467  0.9979  0.1206  0.5731
 5329SOL     OW17406   0.176   2.168   3.212 -0.3923  0.7307 -0.0621
 5329SOL    HW117407   0.100   2.173   3.270  0.3123 -1.7665  1.2049
 5329SOL    HW217408   0.146   2.114   3.139  0.1163 -0.2667  0.4446
 5330SOL     OW17409   6.897   5.100   5.722 -0.1831 -0.0530 -0.4717
 5330SOL    HW117410   6.980   5.142   5.699 -0.6390  1.5053  0.5985
 5330SOL    HW217411   6.922   5.021   5.770  0.6760 -0.2582 -1.2281
 5331SOL     OW17412   1.866   3.117   6.126  0.4997  0.0918 -0.1852
 5331SOL    HW117413   1.953   3.142   6.158 -0.5568  0.6134  2.5043
 5331SOL    HW217414   1.820   3.084   6.203 -1.7076 -0.1942 -1.5341
 5332SOL     OW17415   5.614   8.290   1.224 -0.3494  0.0228 -0.2390
 5332SOL    HW117416   5.533   8.240   1.227 -1.5627  1.8834  0.2058
 5332SOL    HW217417   5.639   8.301   1.316 -0.8469  1.2751 -0.2211
 5333SOL     OW17418   6.686   1.475   4.017 -0.8257  0.0604  0.0687
 5333SOL    HW117419   6.759   1.415   4.000 -0.2558  0.9384 -0.7020
 5333SOL    HW217420   6.614   1.419   4.042 -0.2045 -0.9264 -0.3035
 5334SOL     OW17421   2.483   5.264   6.783 -0.1919  0.0111  0.1631
 5334SOL    HW117422   2.420   5.326   6.821 -0.7848 -1.2651  1.3591
 5334SOL    HW217423   2.540   5.240   6.856  1.4817  0.8312 -0.8174
 5335SOL     OW17424   2.176   5.598   5.568 -0.5689  0.2470 -0.4463
 5335SOL    HW117425   2.271   5.595   5.583 -0.4752 -1.5514 -1.1548
 5335SOL    HW217426   2.166   5.595   5.473 -1.3444 -0.3801 -0.3578
 5336SOL     OW17427   7.569   8.280   6.158  0.7072 -0.2486 -0.1205
 5336SOL    HW117428   7.500   8.231   6.203 -0.1608 -0.3853 -1.5343
 5336SOL    HW217429   7.553   8.263   6.065  1.0133  1.9076 -0.6048
 5337SOL     OW17430   4.007   7.938   2.675 -0.2274  0.0878  0.1743
 5337SOL    HW117431   4.042   7.849   2.674 -0.0055  0.1414 -1.8376
 5337SOL    HW217432   3.940   7.938   2.743 -2.0068 -2.3617 -1.4445
 5338SOL     OW17433   7.585   0.485   2.608  0.2287  0.5229  0.0595
 5338SOL    HW117434   7.533   0.565   2.602 -1.0315 -0.2939 -0.2896
 5338SOL    HW217435   7.540   0.431   2.673 -0.1519 -0.7304 -1.1743
 5339SOL     OW17436   7.423   4.436   5.959  0.1652 -0.2269 -0.1152
 5339SOL    HW117437   7.362   4.453   5.888  0.6994 -0.5309 -0.6551
 5339SOL    HW217438   7.371   4.391   6.025 -0.6737  1.2852  0.2945
 5340SOL     OW17439   2.080   4.868   2.348 -0.3597  0.0959 -0.1494
 5340SOL    HW117440   2.076   4.773   2.339  0.2316 -0.1080  1.3934
 5340SOL    HW217441   2.157   4.884   2.403 -0.4662  1.4628 -0.3520
 5341SOL     OW17442   0.588   5.118   0.379  0.2719 -0.2976  0.4222
 5341SOL    HW117443   0.538   5.196   0.355 -0.3306 -0.7894  0.0390
 5341SOL    HW217444   0.676   5.135   0.344  0.4952  0.7248  1.4084
 5342SOL     OW17445   1.622   7.881   3.380 -0.1615 -0.3666 -0.5857
 5342SOL    HW117446   1.698   7.909   3.329  0.3703  1.2215  1.0120
 5342SOL    HW217447   1.630   7.926   3.464 -1.1222 -2.7216  0.8705
 5343SOL     OW17448   1.032   2.117   7.465 -0.2658 -0.2519  0.4972
 5343SOL    HW117449   1.003   2.108   7.556  0.5338  2.6367  1.1278
 5343SOL    HW217450   0.989   2.196   7.433  0.6742 -0.3544 -1.1454
 5344SOL     OW17451   5.695   5.654   5.909 -0.0879 -0.0430 -0.2142
 5344SOL    HW117452   5.648   5.614   5.983 -0.4724  0.2546 -0.2966
 5344SOL    HW217453   5.673   5.747   5.914 -1.1426 -0.1941 -1.4438
 5345SOL     OW17454   0.771   6.002   8.299 -0.7689 -0.3957  0.0129
 5345SOL    HW117455   0.761   5.921   8.249 -0.3711  0.4089 -1.4249
 5345SOL    HW217456   0.764   5.975   8.391 -0.8327 -2.0195 -0.4469
 5346SOL     OW17457   4.861   3.132   6.520 -0.0241 -0.0642 -0.7501
 5346SOL    HW117458   4.863   3.057   6.461  0.5138 -0.2311 -0.5309
 5346SOL    HW217459   4.907   3.102   6.598 -1.3226 -0.0742  0.0426
 5347SOL     OW17460   0.309   5.649   6.565  0.1833  0.7430 -0.5875
 5347SOL    HW117461   0.316   5.741   6.540 -0.7866  0.7670 -0.8152
 5347SOL    HW217462   0.390   5.630   6.611  1.6256  0.9688 -2.8767
 5348SOL     OW17463   4.582   4.632   0.716 -0.0134  0.6837 -0.3474
 5348SOL    HW117464   4.493   4.598   0.711  0.7979 -2.0851  1.3013
 5348SOL    HW217465   4.591   4.663   0.806  0.3804  2.0187 -0.8277
 5349SOL     OW17466   6.810   5.929   4.681  0.0041 -0.7592 -0.5910
 5349SOL    HW117467   6.825   5.965   4.769  0.9232 -3.0450  0.2772
 5349SOL    HW217468   6.727   5.967   4.654  0.4815  1.2693  0.5585
 5350SOL     OW17469   7.791   3.294   1.596 -0.2112  0.2352 -0.5954
 5350SOL    HW117470   7.801   3.232   1.668 -0.9533  1.5145  0.6775
 5350SOL    HW217471   7.826   3.249   1.520  0.2518 -1.3188  0.4891
 5351SOL     OW17472   7.465   2.857   5.647  0.7894 -0.6383  0.1129
 5351SOL    HW117473   7.526   2.787   5.669  1.1419 -1.3204 -2.6127
 5351SOL    HW217474   7.378   2.817   5.652  0.8418 -0.7130  0.4336
 5352SOL     OW17475   6.585   3.167   0.019 -0.0368  0.4302  0.3890
 5352SOL    HW117476   6.501   3.149   0.062 -0.9048  3.2140  0.0144
 5352SOL    HW217477   6.573   3.134  -0.070 -0.6393  0.5502  0.4187
 5353SOL     OW17478   7.754   6.822   1.237 -0.5261  0.0727  0.0239
 5353SOL    HW117479   7.739   6.880   1.163 -0.1282  0.0125 -0.1072
 5353SOL    HW217480   7.783   6.880   1.308 -0.4527  0.0746 -0.0077
 5354SOL     OW17481   6.638   7.299   7.830  0.5476  0.0820  0.2447
 5354SOL    HW117482   6.701   7.267   7.766  1.1229 -0.0987  0.8887
 5354SOL    HW217483   6.668   7.262   7.913 -0.3712  0.0438  0.5696
 5355SOL     OW17484   3.894   5.988   5.063 -0.5294 -0.1392 -0.5152
 5355SOL    HW117485   3.810   6.021   5.029 -1.1458 -2.5327 -1.4986
 5355SOL    HW217486   3.874   5.960   5.152 -0.9245 -1.1518 -0.9108
 5356SOL     OW17487   7.023   0.898   5.657  0.2909  0.1532 -0.2569
 5356SOL    HW117488   6.987   0.975   5.699  3.2104  0.3014  2.3456
 5356SOL    HW217489   7.116   0.919   5.643  0.9891 -2.5293 -0.3047
 5357SOL     OW17490   3.082   5.419   7.409 -0.0988  0.0108 -0.0883
 5357SOL    HW117491   3.051   5.507   7.390 -2.3162 -0.7227 -0.1801
 5357SOL    HW217492   3.039   5.364   7.343  1.6886 -1.1100 -0.4075
 5358SOL     OW17493   1.724   1.460   2.199  0.2361  0.0801 -0.1525
 5358SOL    HW117494   1.741   1.554   2.189 -0.1916  0.0132 -1.6840
 5358SOL    HW217495   1.652   1.442   2.139  0.1669 -1.2044  0.2809
 5359SOL     OW17496   8.352   5.067   5.962  0.9837 -0.3180 -0.7530
 5359SOL    HW117497   8.383   5.157   5.976 -0.3208  0.0346  0.0575
 5359SOL    HW217498   8.331   5.035   6.050 -1.0259 -0.4761 -1.2386
 5360SOL     OW17499   4.846   4.678   4.877 -0.7854 -0.6941 -0.5578
 5360SOL    HW117500   4.855   4.660   4.783 -2.5561 -1.0224 -0.6999
 5360SOL    HW217501   4.910   4.747   4.894  0.0274 -1.0775 -1.8563
 5361SOL     OW17502   3.775   3.659   2.410 -0.0208  0.1075 -0.2247
 5361SOL    HW117503   3.819   3.725   2.356 -1.1481  0.1900 -1.0694
 5361SOL    HW217504   3.683   3.662   2.382 -0.2783 -1.1291  0.4180
 5362SOL     OW17505   5.137   6.435   8.269  0.0696 -0.3185  0.4753
 5362SOL    HW117506   5.074   6.500   8.302 -0.3305 -1.1091  1.3339
 5362SOL    HW217507   5.120   6.431   8.175 -0.6008  0.0876  0.5690
 5363SOL     OW17508   2.185   6.509   2.158 -0.2011 -0.4015 -1.5148
 5363SOL    HW117509   2.203   6.415   2.162 -0.5293 -0.4089  1.2168
 5363SOL    HW217510   2.271   6.550   2.157  0.0065 -0.7033  0.3973
 5364SOL     OW17511   3.789   0.014   2.125  0.1543  0.3668  0.3060
 5364SOL    HW117512   3.864   0.004   2.184  1.4529 -1.2152 -1.4709
 5364SOL    HW217513   3.720   0.051   2.180  1.3443 -0.7580  2.7449
 5365SOL     OW17514   4.672   0.421   3.086 -0.5624 -0.2525 -0.3636
 5365SOL    HW117515   4.610   0.391   3.020 -0.6710  1.2696 -0.9881
 5365SOL    HW217516   4.758   0.416   3.044 -0.3158 -1.6362  0.2461
 5366SOL     OW17517   3.796   1.656   1.832  0.0864 -0.0538  0.0019
 5366SOL    HW117518   3.786   1.624   1.922  0.9889 -0.9117 -0.1879
 5366SOL    HW217519   3.862   1.599   1.793 -1.2701 -0.5585 -1.6497
 5367SOL     OW17520   5.712   3.763   0.767  0.2073 -0.1401 -0.4781
 5367SOL    HW117521   5.740   3.732   0.680  1.9689 -1.0600  0.3644
 5367SOL    HW217522   5.790   3.805   0.803 -0.6107  0.5505  0.5443
 5368SOL     OW17523   0.868   4.167   2.003  0.5394  0.1836  0.1982
 5368SOL    HW117524   0.848   4.138   1.914  0.4882 -0.8999  0.5454
 5368SOL    HW217525   0.858   4.262   2.000 -0.4975  0.0711 -0.6861
 5369SOL     OW17526   2.624   3.950   4.216  0.2959  0.2264 -0.1849
 5369SOL    HW117527   2.528   3.944   4.214  0.2243  1.2261 -0.2703
 5369SOL    HW217528   2.654   3.868   4.178 -0.5218 -0.4169  0.5413
 5370SOL     OW17529   3.947   6.941   1.073  0.3443 -0.1449  0.4365
 5370SOL    HW117530   3.924   7.000   1.001  1.4235  0.1837  0.3500
 5370SOL    HW217531   3.981   6.999   1.141  0.6400 -0.5892  0.6720
 5371SOL     OW17532   8.359   3.024   5.010 -0.7873  0.1518 -0.3664
 5371SOL    HW117533   8.444   3.007   5.051  0.0863  1.0654 -1.6658
 5371SOL    HW217534   8.329   2.939   4.980  0.3027 -0.0326 -0.9952
 5372SOL     OW17535   2.666   0.066   5.414 -0.2435  0.0747 -0.0524
 5372SOL    HW117536   2.608   0.141   5.401 -0.7416 -0.2005  0.5323
 5372SOL    HW217537   2.654   0.013   5.335  0.1823  0.6425 -0.5115
 5373SOL     OW17538   3.396   0.865   8.142 -0.4432  0.3211 -0.4194
 5373SOL    HW117539   3.441   0.903   8.218  0.4304 -1.1946 -0.1324
 5373SOL    HW217540   3.393   0.935   8.078 -1.5658  1.7832  1.1405
 5374SOL     OW17541   2.697   5.056   6.693  0.3538  0.4717 -0.5156
 5374SOL    HW117542   2.736   5.073   6.778  0.2519  0.2351 -0.4205
 5374SOL    HW217543   2.612   5.015   6.713  1.0368 -1.1406 -0.7291
 5375SOL     OW17544   2.478   4.661   7.654  0.1914  0.1839 -0.3840
 5375SOL    HW117545   2.408   4.667   7.720  1.0053 -0.4598  0.5574
 5375SOL    HW217546   2.494   4.752   7.629 -1.3351  0.3083 -1.0017
 5376SOL     OW17547   2.343   1.315   0.976 -0.1853  0.3816 -0.0399
 5376SOL    HW117548   2.370   1.333   0.886  0.4428  1.2134  0.3040
 5376SOL    HW217549   2.255   1.354   0.982  1.0390  3.3196  0.6137
 5377SOL     OW17550   5.764   2.967   6.042  0.6678  0.7932  0.2481
 5377SOL    HW117551   5.748   3.011   5.959 -0.3490 -1.6259 -0.9402
 5377SOL    HW217552   5.837   3.016   6.082 -0.2348  3.3287 -0.9945
 5378SOL     OW17553   6.505   5.149   3.679  0.3200 -0.3539  0.5240
 5378SOL    HW117554   6.422   5.193   3.660  0.5000 -0.4504 -0.5719
 5378SOL    HW217555   6.480   5.058   3.695  0.0598 -0.0804  1.7672
 5379SOL     OW17556   6.321   1.383   8.120 -0.3955 -0.1134  0.2143
 5379SOL    HW117557   6.408   1.417   8.140 -0.2451 -0.3395 -0.0492
 5379SOL    HW217558   6.336   1.292   8.094 -0.4538  0.3930 -1.7804
 5380SOL     OW17559   7.649   3.815   2.748  0.0318  0.1363  0.1519
 5380SOL    HW117560   7.602   3.731   2.749  0.0036  0.1263 -0.7784
 5380SOL    HW217561   7.584   3.878   2.715  0.0884  0.5066  0.7367
 5381SOL     OW17562   5.257   2.059   7.206  0.1463  0.2879 -0.0398
 5381SOL    HW117563   5.258   1.969   7.238  0.3213  0.4095  0.3060
 5381SOL    HW217564   5.344   2.093   7.227  0.4090  0.2497 -1.0192
 5382SOL     OW17565   5.239   4.662   1.432 -0.2683  0.9728 -0.5299
 5382SOL    HW117566   5.260   4.660   1.525 -1.6519 -1.0385 -0.1813
 5382SOL    HW217567   5.210   4.573   1.413  0.3201  1.2447 -2.9834
 5383SOL     OW17568   4.163   3.829   1.687 -0.7735  0.7517 -0.5103
 5383SOL    HW117569   4.213   3.754   1.655  0.5481  2.3054 -2.3084
 5383SOL    HW217570   4.072   3.798   1.690 -0.2350 -0.9759 -0.9770
 5384SOL     OW17571   8.196   7.922   6.333 -0.0629  0.2474  0.2181
 5384SOL    HW117572   8.235   8.006   6.309  1.4204 -0.3033  0.6005
 5384SOL    HW217573   8.259   7.857   6.302  0.1937 -0.6140  2.3727
 5385SOL     OW17574   6.950   0.295   8.223 -0.0438  0.3938  0.7007
 5385SOL    HW117575   6.933   0.388   8.234  0.6639  0.5706  0.3602
 5385SOL    HW217576   7.034   0.291   8.177 -1.4222 -0.3619 -1.9294
 5386SOL     OW17577   8.272   7.233   2.931 -0.3844  0.0401  0.4816
 5386SOL    HW117578   8.345   7.264   2.878  0.3036 -0.6356  1.0161
 5386SOL    HW217579   8.243   7.152   2.888 -0.4112 -0.0296  0.6296
 5387SOL     OW17580   3.569   2.360   7.312 -0.3685 -0.3046 -0.3778
 5387SOL    HW117581   3.653   2.317   7.323  0.0383  0.2080 -1.3621
 5387SOL    HW217582   3.564   2.423   7.384  0.6753  0.5556 -1.0325
 5388SOL     OW17583   0.619   4.744   7.642  1.0109 -0.7334  0.1001
 5388SOL    HW117584   0.701   4.793   7.641  0.0095  1.1263 -2.5451
 5388SOL    HW217585   0.608   4.714   7.551 -0.2398 -2.7808  0.8440
 5389SOL     OW17586   1.301   1.208   6.567 -0.0512 -0.3647  0.3508
 5389SOL    HW117587   1.300   1.112   6.566  0.4116 -0.3698 -0.2173
 5389SOL    HW217588   1.347   1.231   6.648  0.8010 -0.6442 -0.0407
 5390SOL     OW17589   2.327   4.469   0.584  0.3685 -0.2636 -0.1227
 5390SOL    HW117590   2.260   4.518   0.537  0.3213 -2.1331 -2.1530
 5390SOL    HW217591   2.302   4.377   0.573  2.3759 -0.9345  0.4648
 5391SOL     OW17592   3.065   2.256   6.046  0.1790  1.0178 -0.2833
 5391SOL    HW117593   3.136   2.194   6.030 -0.6649 -0.1071  0.2145
 5391SOL    HW217594   3.028   2.272   5.959 -3.0605 -3.4634 -0.0421
 5392SOL     OW17595   6.920   1.004   6.766  0.1022  0.1157  0.0503
 5392SOL    HW117596   6.944   0.978   6.677  0.5262  1.0842 -0.1329
 5392SOL    HW217597   6.914   1.099   6.762 -0.7717  0.1032  0.8505
 5393SOL     OW17598   7.425   3.994   0.594  0.0490 -0.1724 -0.1032
 5393SOL    HW117599   7.510   3.973   0.632  0.7799 -0.3835 -1.7799
 5393SOL    HW217600   7.445   4.050   0.519 -1.3455  0.2962 -0.1638
 5394SOL     OW17601   0.713   3.620   3.773  0.4665 -0.3568 -0.3156
 5394SOL    HW117602   0.776   3.653   3.708 -0.7309 -1.2353 -1.9949
 5394SOL    HW217603   0.630   3.617   3.726 -0.7246  0.0870  1.6405
 5395SOL     OW17604   0.277   5.492   6.351  0.2672 -0.5265 -0.7960
 5395SOL    HW117605   0.227   5.542   6.287 -0.1447  0.1348  0.0124
 5395SOL    HW217606   0.285   5.552   6.426  0.4920 -1.3748 -0.1282
 5396SOL     OW17607   5.405   3.568   1.062 -0.0918 -0.2099  0.1271
 5396SOL    HW117608   5.310   3.560   1.062 -0.1596  0.4910 -0.7986
 5396SOL    HW217609   5.428   3.583   0.970  0.9230 -0.4767  0.3251
 5397SOL     OW17610   2.364   0.771   7.975 -0.1366 -0.0122  0.2588
 5397SOL    HW117611   2.356   0.738   7.886 -1.9879  0.8024  0.0673
 5397SOL    HW217612   2.442   0.826   7.974  0.0781 -0.3190 -0.7609
 5398SOL     OW17613   7.288   7.702   0.228 -0.0447  0.4154 -0.5883
 5398SOL    HW117614   7.212   7.685   0.283  0.3131  1.0601  0.1123
 5398SOL    HW217615   7.356   7.646   0.264  0.2204  0.9181 -0.2974
 5399SOL     OW17616   6.313   2.221   7.735 -0.2462 -0.2412 -0.2363
 5399SOL    HW117617   6.340   2.206   7.826  0.4101  0.6838 -0.2638
 5399SOL    HW217618   6.293   2.134   7.701  0.8962 -0.7591  0.3656
 5400SOL     OW17619   5.417   7.180   3.323 -0.3850  0.1624 -0.0887
 5400SOL    HW117620   5.494   7.212   3.370 -0.2541 -0.0328 -0.1716
 5400SOL    HW217621   5.441   7.093   3.293 -1.4780 -0.8969  1.9133
 5401SOL     OW17622   8.248   3.252   5.670 -0.0823 -0.0856 -0.0033
 5401SOL    HW117623   8.325   3.221   5.717  0.9141 -0.4533 -1.8048
 5401SOL    HW217624   8.222   3.179   5.615 -1.7783  0.0167  0.5988
 5402SOL     OW17625   4.723   0.657   2.044  0.1335  0.2090 -0.1620
 5402SOL    HW117626   4.783   0.586   2.067 -2.1454 -2.0416 -0.6983
 5402SOL    HW217627   4.643   0.612   2.015 -1.4532  3.0271 -0.4790
 5403SOL     OW17628   2.186   4.840   6.350  0.0887  0.2203 -0.0772
 5403SOL    HW117629   2.156   4.881   6.431  2.6853  2.5407 -0.1489
 5403SOL    HW217630   2.244   4.769   6.378 -1.9480 -1.5137  0.0152
 5404SOL     OW17631   4.881   8.363   3.846 -0.3266 -0.1987 -0.3350
 5404SOL    HW117632   4.869   8.429   3.914  0.8858 -0.9344  0.6244
 5404SOL    HW217633   4.819   8.388   3.777 -2.2389  0.0634  1.3846
 5405SOL     OW17634   4.868   5.094   7.767  0.3088  0.0239 -0.2726
 5405SOL    HW117635   4.924   5.173   7.765  0.5319 -0.1133  0.3218
 5405SOL    HW217636   4.832   5.089   7.679 -0.0059  1.0081 -0.2186
 5406SOL     OW17637   2.722   3.167   7.223  0.1688 -0.2170  0.0465
 5406SOL    HW117638   2.749   3.204   7.307 -1.2335 -3.1806  2.0134
 5406SOL    HW217639   2.803   3.155   7.174  1.2661 -0.0048  1.7373
 5407SOL     OW17640   1.997   4.875   7.815  0.2170 -1.1420 -0.1271
 5407SOL    HW117641   1.975   4.879   7.722  2.3808 -2.0951 -0.7406
 5407SOL    HW217642   1.917   4.846   7.858 -0.3826 -2.2123 -1.9014
 5408SOL     OW17643   1.322   4.782   7.367 -0.7188  0.2972 -0.4815
 5408SOL    HW117644   1.258   4.853   7.371 -1.2424 -0.2201  0.6702
 5408SOL    HW217645   1.349   4.780   7.275  0.1354  2.6831 -0.3732
 5409SOL     OW17646   2.527   1.417   6.907  0.7283  0.2474  0.5519
 5409SOL    HW117647   2.521   1.481   6.978 -1.4001  0.3203  0.3683
 5409SOL    HW217648   2.618   1.386   6.911  0.7735  0.4670  3.0818
 5410SOL     OW17649   2.701   4.739   2.360  0.1464 -0.4359  0.2118
 5410SOL    HW117650   2.757   4.792   2.416  1.6471 -1.6076 -0.1211
 5410SOL    HW217651   2.629   4.711   2.417  0.3072  0.4385  0.8591
 5411SOL     OW17652   7.137   6.872   5.845 -0.4941  0.0853  0.3519
 5411SOL    HW117653   7.067   6.894   5.784 -0.5546  1.2960  0.8314
 5411SOL    HW217654   7.153   6.953   5.894  0.4149 -0.5066  1.0762
 5412SOL     OW17655   7.961   0.878   4.626  0.3840  0.0417 -0.3518
 5412SOL    HW117656   7.985   0.965   4.659  0.8429 -1.1557  2.8255
 5412SOL    HW217657   8.037   0.850   4.576  0.3350  1.3422 -1.1900
 5413SOL     OW17658   3.937   1.842   3.573 -0.1719 -0.5738  0.2419
 5413SOL    HW117659   4.025   1.879   3.559 -0.6484  0.7139  0.5302
 5413SOL    HW217660   3.918   1.860   3.665 -0.9685 -0.3118  0.0340
 5414SOL     OW17661   2.586   0.872   0.114  0.1926 -0.1841  0.0818
 5414SOL    HW117662   2.655   0.935   0.132 -0.7505  0.7379  0.6331
 5414SOL    HW217663   2.626   0.807   0.057  1.3883  0.5421  0.0688
 5415SOL     OW17664   0.962   7.336   3.097  0.3058  1.1397 -0.0446
 5415SOL    HW117665   0.947   7.242   3.109  1.9829  0.9073  0.7061
 5415SOL    HW217666   0.970   7.348   3.003 -0.1917  0.5734 -0.1613
 5416SOL     OW17667   1.844   5.788   7.092 -0.4767  0.7292  0.3773
 5416SOL    HW117668   1.848   5.692   7.086  0.0783  0.7283  0.7625
 5416SOL    HW217669   1.843   5.818   7.001 -2.3983  0.2991  0.2012
 5417SOL     OW17670   2.334   3.849   3.265 -1.3184  0.1201 -0.1493
 5417SOL    HW117671   2.239   3.839   3.268 -1.1059 -3.4259 -0.8491
 5417SOL    HW217672   2.361   3.849   3.357 -1.9368  0.5365  0.0407
 5418SOL     OW17673   4.469   7.568   5.236 -0.0102  0.3805 -0.7077
 5418SOL    HW117674   4.494   7.624   5.162  1.9574 -0.7919 -1.0193
 5418SOL    HW217675   4.535   7.498   5.236 -1.6629 -1.2665  0.3986
 5419SOL     OW17676   6.050   0.242   3.368  0.6437  0.4228  0.5039
 5419SOL    HW117677   5.969   0.251   3.318 -0.6115  0.7515  2.4933
 5419SOL    HW217678   6.077   0.151   3.354  0.0338  0.3548 -0.3027
 5420SOL     OW17679   3.676   0.719   4.878  0.0972  0.0355  0.2378
 5420SOL    HW117680   3.685   0.695   4.971 -0.9009  1.0335  0.6180
 5420SOL    HW217681   3.598   0.671   4.849 -0.4624  0.8641  0.3343
 5421SOL     OW17682   5.110   4.874   3.310 -0.3050  0.2765 -0.4884
 5421SOL    HW117683   5.044   4.813   3.277  0.1147  1.2768 -3.4924
 5421SOL    HW217684   5.076   4.961   3.289  0.6892  0.9413  0.5109
 5422SOL     OW17685   2.210   1.718   0.338 -0.2631  0.2600 -0.3255
 5422SOL    HW117686   2.236   1.689   0.251 -1.1041 -0.1639 -0.4413
 5422SOL    HW217687   2.217   1.813   0.335 -0.9904  0.2959 -1.0834
 5423SOL     OW17688   4.228   5.831   4.635 -0.0700  0.6823 -0.0807
 5423SOL    HW117689   4.241   5.894   4.565  0.5377 -1.0989 -1.6536
 5423SOL    HW217690   4.231   5.883   4.716  2.1870  2.4109 -1.1849
 5424SOL     OW17691   0.744   2.449   3.609 -0.5538 -0.1308  0.0019
 5424SOL    HW117692   0.804   2.512   3.568  1.6099 -0.7522  1.9514
 5424SOL    HW217693   0.723   2.387   3.539  0.7663  0.3693 -0.8845
 5425SOL     OW17694   3.792   0.360   3.636 -0.7795 -0.4126  0.1054
 5425SOL    HW117695   3.740   0.280   3.644 -0.4552 -0.5301  1.1850
 5425SOL    HW217696   3.804   0.372   3.542  0.2331 -2.3263 -0.0473
 5426SOL     OW17697   4.556   1.243   0.890  0.2769  0.1462 -0.0858
 5426SOL    HW117698   4.604   1.216   0.812 -0.0261  0.6691 -0.4595
 5426SOL    HW217699   4.604   1.319   0.924 -0.7569  1.2369 -0.9719
 5427SOL     OW17700   7.972   8.240   2.552 -0.8093 -0.1140  0.7471
 5427SOL    HW117701   7.892   8.189   2.537 -1.4620  1.2507 -0.6612
 5427SOL    HW217702   7.947   8.303   2.619 -0.9973  0.4440  0.1623
 5428SOL     OW17703   5.312   6.730   1.879 -0.1425 -0.2208  0.5287
 5428SOL    HW117704   5.222   6.698   1.887 -0.9775  1.6863 -0.3992
 5428SOL    HW217705   5.342   6.697   1.795 -0.8977  1.0873 -0.2958
 5429SOL     OW17706   2.262   7.167   2.652 -0.0284 -0.0000  0.0009
 5429SOL    HW117707   2.291   7.176   2.742 -0.9814  0.9780  0.2383
 5429SOL    HW217708   2.294   7.246   2.608  0.5621 -0.5466 -0.5504
 5430SOL     OW17709   1.486   2.825   8.201  0.0745 -0.5416  0.5243
 5430SOL    HW117710   1.554   2.881   8.163 -0.8393 -0.9945 -1.9811
 5430SOL    HW217711   1.499   2.740   8.157 -1.3722 -0.9616  0.8723
 5431SOL     OW17712   3.666   0.004   6.016 -0.2155  0.3439 -0.2004
 5431SOL    HW117713   3.700   0.004   5.927 -1.6163 -0.6049 -0.7532
 5431SOL    HW217714   3.712   0.077   6.059  0.4880  0.7991 -1.6706
 5432SOL     OW17715   2.441   5.816   6.629  0.3253 -0.0020 -0.1349
 5432SOL    HW117716   2.480   5.777   6.550 -0.5087 -0.6525 -0.2404
 5432SOL    HW217717   2.422   5.906   6.605 -1.4042 -0.6130 -1.2498
 5433SOL     OW17718   8.187   7.530   6.292 -0.1004  0.3052  0.4140
 5433SOL    HW117719   8.180   7.482   6.210 -3.6446  0.8570  0.2616
 5433SOL    HW217720   8.146   7.473   6.357 -1.3278  1.6582  0.8834
 5434SOL     OW17721   7.825   1.999   3.635 -0.0889 -0.2937 -0.5063
 5434SOL    HW117722   7.915   1.975   3.656 -0.6105 -1.7365  0.2516
 5434SOL    HW217723   7.794   2.045   3.713 -0.2789 -0.5822 -0.4118
 5435SOL     OW17724   1.288   4.119   0.234 -0.0079 -0.2079  0.3646
 5435SOL    HW117725   1.266   4.210   0.250  1.1546  0.3606 -1.0155
 5435SOL    HW217726   1.260   4.103   0.143  0.0293 -1.1517  0.5021
 5436SOL     OW17727   5.491   0.911   0.547  0.1220  0.3414 -0.3400
 5436SOL    HW117728   5.466   0.935   0.458 -0.7717  1.1575  0.1127
 5436SOL    HW217729   5.533   0.990   0.582  0.2165  0.1161  0.0628
 5437SOL     OW17730   5.147   6.478   7.118  0.0604 -0.4136 -0.2733
 5437SOL    HW117731   5.239   6.454   7.105  0.0131 -0.3199 -0.8231
 5437SOL    HW217732   5.148   6.537   7.193  0.2890 -1.4013  0.5159
 5438SOL     OW17733   1.389   4.921   4.072 -0.4666  0.1985  0.0422
 5438SOL    HW117734   1.480   4.907   4.099  0.2764  0.2681 -2.2137
 5438SOL    HW217735   1.347   4.960   4.149  1.6918  1.2405  0.7805
 5439SOL     OW17736   1.778   7.974   2.691 -0.7200 -0.0674 -0.7548
 5439SOL    HW117737   1.836   7.904   2.663 -0.1523 -0.1289  0.5123
 5439SOL    HW217738   1.690   7.939   2.680 -0.4378 -1.0551  0.0280
 5440SOL     OW17739   1.150   2.121   2.601  0.8334  0.1660  0.1191
 5440SOL    HW117740   1.181   2.183   2.534  0.9858  0.5836  0.5713
 5440SOL    HW217741   1.229   2.096   2.649  0.4214  1.8442  1.7957
 5441SOL     OW17742   4.808   0.547   5.903  0.9265  0.6011  0.3077
 5441SOL    HW117743   4.749   0.518   5.834  0.3776  1.0863  0.5713
 5441SOL    HW217744   4.809   0.642   5.896  0.5344  0.6864  1.2311
 5442SOL     OW17745   6.246   5.007   1.090  0.2386  0.1051  0.1914
 5442SOL    HW117746   6.252   5.098   1.063  0.5808  0.1363  0.3653
 5442SOL    HW217747   6.316   4.962   1.041  2.3502  0.5514  2.5584
 5443SOL     OW17748   7.720   4.905   1.672 -0.4538  1.1487  0.2182
 5443SOL    HW117749   7.715   4.970   1.742 -0.3035 -0.1480  1.4762
 5443SOL    HW217750   7.722   4.821   1.717  0.1869  0.2851 -1.3415
 5444SOL     OW17751   2.559   7.560   8.084  0.3733  0.3536  0.7257
 5444SOL    HW117752   2.548   7.530   8.174  2.8120 -0.8159  0.6995
 5444SOL    HW217753   2.643   7.606   8.084  1.4399 -1.4150 -1.3071
 5445SOL     OW17754   1.667   2.622   2.568 -0.0733 -0.3395 -0.4602
 5445SOL    HW117755   1.667   2.668   2.484  0.3579  0.4240 -0.0445
 5445SOL    HW217756   1.641   2.688   2.632 -2.2864 -1.3607 -0.2123
 5446SOL     OW17757   0.453   3.690   1.668  0.0889 -0.4200 -0.3239
 5446SOL    HW117758   0.377   3.694   1.726 -0.6021 -1.2207 -1.1476
 5446SOL    HW217759   0.422   3.722   1.584  0.7892 -0.2971 -0.5435
 5447SOL     OW17760   4.886   1.340   1.403 -0.6011 -0.1063 -0.4181
 5447SOL    HW117761   4.886   1.418   1.460  1.1852 -0.0275 -0.4670
 5447SOL    HW217762   4.918   1.372   1.319  0.7856 -1.0000 -0.2540
 5448SOL     OW17763   4.827   4.780   0.604 -0.0114  0.5279 -0.1262
 5448SOL    HW117764   4.771   4.731   0.664  0.5867 -0.9487 -0.6971
 5448SOL    HW217765   4.817   4.871   0.629 -0.1323 -0.0020  1.9011
 5449SOL     OW17766   7.789   0.408   4.705  0.5149 -0.1720  0.6856
 5449SOL    HW117767   7.737   0.389   4.783 -0.3074 -0.8753 -0.0135
 5449SOL    HW217768   7.822   0.323   4.676 -1.5792 -0.4023 -1.3457
 5450SOL     OW17769   1.423   1.649   0.893 -0.0728  0.0448 -0.1921
 5450SOL    HW117770   1.352   1.702   0.855 -0.9080 -1.4113 -0.7792
 5450SOL    HW217771   1.501   1.675   0.844 -0.7841 -0.4309 -1.6594
 5451SOL     OW17772   1.823   6.945   3.315  0.2662 -0.0885 -0.1314
 5451SOL    HW117773   1.866   6.906   3.238 -2.1183 -0.9345 -1.1493
 5451SOL    HW217774   1.746   6.889   3.329 -0.2681  1.0722  1.8446
 5452SOL     OW17775   0.320   6.128   3.773  0.1909  0.0080 -0.4491
 5452SOL    HW117776   0.333   6.039   3.805  0.1222  0.5051  1.0033
 5452SOL    HW217777   0.231   6.150   3.799  0.5720  0.8835  0.1361
 5453SOL     OW17778   1.764   8.200   6.702 -0.9034 -0.3729 -0.2720
 5453SOL    HW117779   1.682   8.183   6.750 -1.2325 -0.1275 -0.7346
 5453SOL    HW217780   1.735   8.232   6.616 -0.3178 -0.2984 -0.4460
 5454SOL     OW17781   2.750   3.275   6.533  0.3116  0.4239 -0.5852
 5454SOL    HW117782   2.833   3.299   6.574  0.2789 -2.1951  1.2971
 5454SOL    HW217783   2.684   3.287   6.602 -0.4936  0.2673 -1.3039
 5455SOL     OW17784   1.823   2.281   8.183  0.5581 -0.0000 -0.3919
 5455SOL    HW117785   1.871   2.202   8.207 -1.1445 -0.9574 -0.0234
 5455SOL    HW217786   1.860   2.307   8.099 -0.1230 -2.2938 -1.4701
 5456SOL     OW17787   2.619   0.131   2.827 -0.0866  0.0139 -0.0416
 5456SOL    HW117788   2.598   0.209   2.776 -1.3959 -0.2523  0.0427
 5456SOL    HW217789   2.683   0.084   2.775 -0.3218  0.4676 -0.7510
 5457SOL     OW17790   7.994   0.361   4.982 -0.1808 -0.1220  0.0757
 5457SOL    HW117791   7.914   0.344   4.933 -0.7729  2.7032 -0.1501
 5457SOL    HW217792   8.055   0.294   4.953 -1.7127 -0.8551 -1.6399
 5458SOL     OW17793   6.095   1.519   1.901  0.1808 -0.4774  0.1172
 5458SOL    HW117794   6.051   1.500   1.818 -1.6872  2.7187  0.1750
 5458SOL    HW217795   6.032   1.492   1.968  0.6862 -0.9177  0.4205
 5459SOL     OW17796   7.294   4.219   6.145  0.1186  0.6191 -0.6974
 5459SOL    HW117797   7.270   4.166   6.069  0.7650  1.5201 -1.5593
 5459SOL    HW217798   7.212   4.258   6.175 -0.2420 -0.2689 -0.5103
 5460SOL     OW17799   7.619   0.101   2.950 -0.7698  0.5899  0.3198
 5460SOL    HW117800   7.542   0.088   2.894 -0.5651 -0.7467  0.3191
 5460SOL    HW217801   7.620   0.024   3.007  0.5543  0.6098  0.3392
 5461SOL     OW17802   7.817   1.236   6.157 -0.0880 -0.2321  0.1778
 5461SOL    HW117803   7.872   1.226   6.079 -1.4347  1.3999 -1.0787
 5461SOL    HW217804   7.781   1.325   6.149  0.3376  0.2811  3.1002
 5462SOL     OW17805   0.451   5.184   8.285 -0.4811 -0.1016  0.5792
 5462SOL    HW117806   0.471   5.181   8.192  0.4304  1.2129  0.6961
 5462SOL    HW217807   0.422   5.096   8.307 -0.9448 -0.3679 -0.9886
 5463SOL     OW17808   0.904   2.453   4.403 -0.3643 -0.2850 -0.3027
 5463SOL    HW117809   0.884   2.369   4.445  0.6220 -0.9200 -1.0584
 5463SOL    HW217810   0.847   2.457   4.327  0.1013 -0.6005 -0.6663
 5464SOL     OW17811   2.634   7.036   6.536  0.0386  0.2283  0.0262
 5464SOL    HW117812   2.598   7.124   6.546 -0.1789  0.2674 -0.9795
 5464SOL    HW217813   2.577   6.980   6.588  0.7490  0.8022  1.4665
 5465SOL     OW17814   6.605   7.077   5.688  0.0737  0.0934 -0.1312
 5465SOL    HW117815   6.648   7.107   5.768 -0.5543 -1.1585  0.7029
 5465SOL    HW217816   6.621   6.983   5.686 -0.8267 -0.0568 -0.9195
 5466SOL     OW17817   5.574   3.371   0.162  0.3736 -0.1876  0.5913
 5466SOL    HW117818   5.511   3.331   0.222  0.0278 -0.6543 -0.0699
 5466SOL    HW217819   5.545   3.462   0.154  0.0403 -0.2892  0.6282
 5467SOL     OW17820   7.722   6.635   0.129 -0.6895 -0.0832  0.5351
 5467SOL    HW117821   7.679   6.599   0.051 -2.0704 -0.2164  1.3120
 5467SOL    HW217822   7.805   6.669   0.097  0.1252 -2.7373 -0.5025
 5468SOL     OW17823   4.800   1.328   5.958 -0.5056  0.0001  0.6614
 5468SOL    HW117824   4.812   1.422   5.946 -2.1014  0.2925  1.0588
 5468SOL    HW217825   4.791   1.317   6.053 -2.9545 -0.1409  0.4786
 5469SOL     OW17826   7.033   3.041   7.771 -0.7592 -1.2315 -0.0455
 5469SOL    HW117827   7.075   2.991   7.702 -2.0639 -2.7233  0.1883
 5469SOL    HW217828   7.104   3.088   7.815  0.0720  0.0330 -2.5733
 5470SOL     OW17829   6.043   3.788   2.947 -0.1300 -0.9950 -0.6658
 5470SOL    HW117830   6.017   3.747   3.030  1.0783 -1.3997 -0.4737
 5470SOL    HW217831   6.137   3.773   2.941  0.0291  0.2327 -1.4637
 5471SOL     OW17832   7.592   4.476   0.773  0.3862  0.2551  0.2664
 5471SOL    HW117833   7.578   4.506   0.683  0.0591  0.6608  0.4550
 5471SOL    HW217834   7.628   4.552   0.818 -0.1879  0.2832  0.6765
 5472SOL     OW17835   2.699   1.845   1.315 -0.3267 -0.3857 -0.0790
 5472SOL    HW117836   2.647   1.820   1.239 -0.6308  2.5501 -0.9794
 5472SOL    HW217837   2.780   1.881   1.278  0.1428 -0.2339  1.0523
 5473SOL     OW17838   0.763   0.663   4.958 -0.4481 -0.6524 -0.0043
 5473SOL    HW117839   0.680   0.655   4.911 -0.3984  0.6340 -0.3469
 5473SOL    HW217840   0.815   0.589   4.928 -1.2801 -1.1787 -0.1723
 5474SOL     OW17841   3.754   1.995   3.324 -0.2961 -0.0361  0.0560
 5474SOL    HW117842   3.688   1.968   3.388 -1.0368  0.0110 -0.6766
 5474SOL    HW217843   3.819   2.042   3.376 -0.7526 -0.2203  0.8167
 5475SOL     OW17844   3.509   7.698   1.578 -0.0656  0.2215 -0.5149
 5475SOL    HW117845   3.513   7.721   1.485 -0.2151 -0.1986 -0.6310
 5475SOL    HW217846   3.416   7.705   1.600  0.2036  2.2728  0.1272
 5476SOL     OW17847   2.636   0.702   4.326 -0.1658 -0.2817 -0.4530
 5476SOL    HW117848   2.617   0.766   4.395  1.9141  0.1421 -0.2069
 5476SOL    HW217849   2.601   0.620   4.360 -1.3383  0.3840  0.0034
 5477SOL     OW17850   2.981   0.071   4.419  0.1910 -0.5114 -0.8126
 5477SOL    HW117851   2.933   0.143   4.462  0.1513 -0.7186 -0.5119
 5477SOL    HW217852   2.939  -0.008   4.452 -0.1333 -0.6649 -1.5714
 5478SOL     OW17853   2.001   0.768   3.953  0.2116  0.2109 -0.1323
 5478SOL    HW117854   1.989   0.858   3.981 -0.8696 -0.3686  1.3847
 5478SOL    HW217855   1.979   0.769   3.859  2.9440  1.9873 -0.8745
 5479SOL     OW17856   2.776   5.272   4.404 -0.1342  0.0586  0.6819
 5479SOL    HW117857   2.869   5.269   4.379  0.3401  1.0372  2.1749
 5479SOL    HW217858   2.737   5.335   4.343  0.0903 -0.6598 -0.2141
 5480SOL     OW17859   0.879   6.948   2.214 -0.3948  0.1244 -0.0008
 5480SOL    HW117860   0.830   6.938   2.295  0.2076 -0.4468  0.3057
 5480SOL    HW217861   0.814   6.934   2.144 -0.5977 -1.0325  0.3970
 5481SOL     OW17862   0.158   4.754   3.597  0.2102 -0.0865 -0.1936
 5481SOL    HW117863   0.197   4.688   3.539  1.7592  0.4441  0.1835
 5481SOL    HW217864   0.085   4.789   3.547  2.5905  1.6807 -2.7249
 5482SOL     OW17865   6.900   1.759   7.200 -0.0164 -0.0085 -0.1500
 5482SOL    HW117866   6.924   1.847   7.228  0.7813 -0.4595  0.6212
 5482SOL    HW217867   6.892   1.709   7.282  2.3930 -1.3692 -0.6615
 5483SOL     OW17868   5.680   5.384   7.014  0.5539 -0.4208 -0.5616
 5483SOL    HW117869   5.695   5.331   7.093 -0.5519  0.2804  0.1598
 5483SOL    HW217870   5.597   5.429   7.032  0.4276 -0.0288 -2.0215
 5484SOL     OW17871   6.529   7.554   8.262 -0.1919 -0.0858 -0.2354
 5484SOL    HW117872   6.504   7.603   8.184 -0.4158 -1.2992 -0.9635
 5484SOL    HW217873   6.505   7.463   8.241  2.2562 -0.8828  0.1565
 5485SOL     OW17874   8.190   5.002   4.242  0.0836  0.2447  0.4654
 5485SOL    HW117875   8.098   4.985   4.220  0.1298  0.6791 -0.0868
 5485SOL    HW217876   8.199   5.097   4.234  0.8658  0.0916 -0.5793
 5486SOL     OW17877   7.441   4.336   3.088 -0.3571  0.6540  0.0987
 5486SOL    HW117878   7.488   4.273   3.035 -1.2337  0.7314 -0.7970
 5486SOL    HW217879   7.509   4.385   3.134  0.4333  0.7068 -1.0898
 5487SOL     OW17880   6.658   4.456   0.498  0.5238 -0.4978 -0.0263
 5487SOL    HW117881   6.664   4.360   0.500  1.4151 -0.4617 -0.1471
 5487SOL    HW217882   6.683   4.479   0.408  0.7845 -0.1373  0.1340
 5488SOL     OW17883   8.161   7.057   0.692  0.0552  0.1077 -0.6214
 5488SOL    HW117884   8.110   7.030   0.768 -0.1547 -0.1147 -0.8391
 5488SOL    HW217885   8.123   7.008   0.619 -0.3662  1.0372 -1.0452
 5489SOL     OW17886   2.145   6.735   7.574  0.7215  0.5486  0.6483
 5489SOL    HW117887   2.214   6.674   7.548  1.6752  1.8524  0.0028
 5489SOL    HW217888   2.073   6.717   7.513  0.6883 -0.4201  0.9486
 5490SOL     OW17889   6.164   7.759   0.107  0.3288 -0.0149  0.0217
 5490SOL    HW117890   6.252   7.724   0.121  1.0183  1.7424  0.4204
 5490SOL    HW217891   6.158   7.774   0.013  0.1073 -0.9446 -0.1229
 5491SOL     OW17892   3.766   7.906   1.438 -0.1735 -0.1475 -0.2473
 5491SOL    HW117893   3.840   7.891   1.378 -1.2699  0.4930 -1.8136
 5491SOL    HW217894   3.720   7.981   1.402 -2.1521 -1.1033  0.1375
 5492SOL     OW17895   5.278   4.375   0.652 -0.1201 -0.4615 -0.5799
 5492SOL    HW117896   5.349   4.435   0.676  0.6140 -0.4647 -2.6010
 5492SOL    HW217897   5.227   4.423   0.587 -1.3194 -0.9129 -0.0058
 5493SOL     OW17898   0.626   5.270   6.172  0.0207 -0.7403 -0.6194
 5493SOL    HW117899   0.652   5.179   6.160 -1.4431 -1.0222 -1.9046
 5493SOL    HW217900   0.708   5.319   6.167  0.7612 -1.9148 -0.4986
 5494SOL     OW17901   1.491   3.639   0.869 -0.1022 -0.1138 -0.0045
 5494SOL    HW117902   1.512   3.677   0.784 -1.1839 -1.2806 -0.8450
 5494SOL    HW217903   1.542   3.558   0.872  0.2684  0.1393  0.6547
 5495SOL     OW17904   0.290   2.146   0.495 -0.0730  0.1829  0.3322
 5495SOL    HW117905   0.354   2.216   0.478  0.4066 -0.7715 -2.2856
 5495SOL    HW217906   0.219   2.163   0.432  0.0444 -1.6150 -0.3300
 5496SOL     OW17907   8.081   3.255   3.602  0.4616 -0.0866  0.0481
 5496SOL    HW117908   8.001   3.282   3.556  0.0909 -1.8311 -0.4034
 5496SOL    HW217909   8.051   3.223   3.687  0.4500 -2.0385 -0.6311
 5497SOL     OW17910   1.515   5.681   8.310 -0.3013  0.1839 -0.0729
 5497SOL    HW117911   1.461   5.610   8.344 -0.6871  0.6251  0.2479
 5497SOL    HW217912   1.579   5.638   8.254 -2.6360 -0.1556 -2.6817
 5498SOL     OW17913   4.215   1.897   5.083  0.7348  0.0360 -0.0253
 5498SOL    HW117914   4.257   1.812   5.069  0.5057 -0.4344  1.8883
 5498SOL    HW217915   4.122   1.876   5.091  0.4025  0.7544 -1.5651
 5499SOL     OW17916   0.671   4.369   7.683 -0.5944  0.5118  0.2283
 5499SOL    HW117917   0.589   4.354   7.637 -0.4411 -3.5349  0.8748
 5499SOL    HW217918   0.735   4.386   7.614 -1.7077  2.6844 -0.3391
 5500SOL     OW17919   0.209   4.742   1.945  0.1782  0.5082 -0.1002
 5500SOL    HW117920   0.232   4.761   1.854 -1.6132 -2.3203 -1.2781
 5500SOL    HW217921   0.115   4.729   1.944 -0.0420  1.3928  2.4243
 5501SOL     OW17922   8.129   2.352   5.759 -0.4581 -1.0644  0.5951
 5501SOL    HW117923   8.098   2.380   5.845 -0.6585  0.2989  0.0957
 5501SOL    HW217924   8.132   2.432   5.707 -0.9384 -1.9494 -0.8506
 5502SOL     OW17925   0.740   2.994   0.029  0.0031 -0.2436  0.6664
 5502SOL    HW117926   0.809   3.049  -0.009 -0.9643  0.9182  0.5112
 5502SOL    HW217927   0.785   2.939   0.092  0.9747  1.0421  1.1437
 5503SOL     OW17928   7.502   2.792   1.962  0.1054  0.2358 -0.6708
 5503SOL    HW117929   7.428   2.750   1.917  0.4653 -0.4600 -0.6256
 5503SOL    HW217930   7.467   2.820   2.046  0.4980 -2.4752  0.5018
 5504SOL     OW17931   1.039   5.907   3.747  0.1044  0.0423 -0.3789
 5504SOL    HW117932   1.123   5.882   3.708 -0.6643 -0.1692 -1.9686
 5504SOL    HW217933   0.986   5.827   3.741 -0.2403  0.1803  0.6014
 5505SOL     OW17934   4.804   2.329   0.749 -0.1599  0.1718  0.3370
 5505SOL    HW117935   4.874   2.394   0.755  1.7039 -1.6993 -0.1897
 5505SOL    HW217936   4.800   2.307   0.656 -0.8138 -0.4102  0.4930
 5506SOL     OW17937   3.218   5.299   5.900  0.0178 -0.4809  0.0921
 5506SOL    HW117938   3.311   5.283   5.919 -0.1691 -0.7437  0.8278
 5506SOL    HW217939   3.171   5.236   5.954 -0.5704 -0.9634 -0.9545
 5507SOL     OW17940   0.765   4.947   3.678  0.4015  0.0686 -0.3674
 5507SOL    HW117941   0.790   4.924   3.767 -0.8266  0.3573  0.0701
 5507SOL    HW217942   0.767   5.043   3.676  2.3433  0.0715 -1.2516
 5508SOL     OW17943   0.720   3.582   2.141 -0.4483 -0.2915 -0.0556
 5508SOL    HW117944   0.635   3.597   2.099 -0.6882 -1.7436 -0.1483
 5508SOL    HW217945   0.783   3.622   2.083 -0.9695 -0.3587 -0.6782
 5509SOL     OW17946   2.054   3.115   4.995 -0.4002  0.0088  0.1720
 5509SOL    HW117947   2.122   3.146   5.054 -0.4891  2.6453 -0.9902
 5509SOL    HW217948   2.100   3.058   4.933 -0.1240 -1.9131  2.0421
 5510SOL     OW17949   4.065   7.548   1.083  0.3431 -0.1400 -0.4285
 5510SOL    HW117950   3.984   7.554   1.135  0.3694  2.9469 -0.5928
 5510SOL    HW217951   4.131   7.519   1.145  0.1797  2.5694  1.1684
 5511SOL     OW17952   0.054   7.163   0.731 -0.0929 -0.3075  0.0783
 5511SOL    HW117953   0.061   7.175   0.825  0.3982 -4.6023  0.7809
 5511SOL    HW217954  -0.036   7.134   0.717  0.3891 -1.6567 -0.4072
 5512SOL     OW17955   3.595   0.647   0.673 -0.3861 -0.2733 -0.2263
 5512SOL    HW117956   3.688   0.637   0.693 -0.3840 -1.9000 -0.8457
 5512SOL    HW217957   3.550   0.605   0.747 -0.5685 -0.6849 -0.5651
 5513SOL     OW17958   7.948   5.271   0.903 -0.1816 -0.6408 -0.1378
 5513SOL    HW117959   8.013   5.340   0.915 -1.5906  0.4391  2.1179
 5513SOL    HW217960   7.925   5.276   0.810 -1.2000  2.9580  0.1423
 5514SOL     OW17961   5.361   4.680   0.438  0.3107 -0.5311  0.0809
 5514SOL    HW117962   5.376   4.639   0.353 -1.4183  0.7825 -0.9299
 5514SOL    HW217963   5.414   4.759   0.437 -1.4735  0.7065 -0.7966
 5515SOL     OW17964   3.842   7.898   4.770 -0.5859  0.0838  0.5851
 5515SOL    HW117965   3.788   7.967   4.809 -0.2848 -0.3625  1.8560
 5515SOL    HW217966   3.823   7.902   4.677  0.0715  2.4833  0.4780
 5516SOL     OW17967   1.141   4.737   0.681 -0.1936 -0.2629 -0.0333
 5516SOL    HW117968   1.161   4.666   0.620  1.5927  0.4251 -0.2977
 5516SOL    HW217969   1.047   4.753   0.669 -0.9493 -3.3746  0.9475
 5517SOL     OW17970   6.644   3.623   1.230 -0.3646 -0.5754  0.3736
 5517SOL    HW117971   6.623   3.703   1.278  0.1407 -0.5741  0.6025
 5517SOL    HW217972   6.691   3.568   1.293  2.6094  0.4565 -0.7626
 5518SOL     OW17973   0.408   1.032   1.467  0.7477  0.0591  0.6424
 5518SOL    HW117974   0.417   1.013   1.374  2.2109  0.5161  0.6612
 5518SOL    HW217975   0.320   1.067   1.477  0.8043  0.5969 -0.6743
 5519SOL     OW17976   7.157   8.092   3.075  0.5142  0.0182 -0.1539
 5519SOL    HW117977   7.110   8.041   3.141  0.8782 -1.7106 -1.1782
 5519SOL    HW217978   7.089   8.118   3.013  0.5415 -0.4613 -0.3880
 5520SOL     OW17979   3.148   3.724   5.824  0.0762 -0.2328 -0.2107
 5520SOL    HW117980   3.061   3.708   5.786 -0.0490 -0.9372  0.3533
 5520SOL    HW217981   3.187   3.637   5.834 -0.2375 -0.1792  2.0335
 5521SOL     OW17982   3.285   2.232   6.557  0.7352 -0.4592  0.7628
 5521SOL    HW117983   3.230   2.180   6.616 -3.8005  0.5050 -2.0481
 5521SOL    HW217984   3.314   2.169   6.490  1.1040 -0.5702  1.0269
 5522SOL     OW17985   7.917   0.422   6.306  0.2392  0.0608 -0.1319
 5522SOL    HW117986   7.891   0.503   6.349  1.3594  0.4461 -0.1600
 5522SOL    HW217987   7.970   0.450   6.231  2.9286 -0.7131  1.3585
 5523SOL     OW17988   8.195   6.579   3.451 -0.1307 -0.0514  0.4762
 5523SOL    HW117989   8.215   6.577   3.545 -0.9449  1.9150  0.7413
 5523SOL    HW217990   8.221   6.667   3.423  0.0325 -0.5877 -1.1379
 5524SOL     OW17991   0.339   2.753   5.413 -0.0449  0.1762  0.6367
 5524SOL    HW117992   0.340   2.703   5.495 -3.6406 -1.8876 -0.3730
 5524SOL    HW217993   0.386   2.697   5.351 -2.3712 -1.2392 -0.0005
 5525SOL     OW17994   6.421   6.713   1.902  0.5281  0.1952 -0.3222
 5525SOL    HW117995   6.461   6.707   1.989 -1.7652  0.6444  0.8575
 5525SOL    HW217996   6.471   6.653   1.848  2.7672  0.7736  0.9916
 5526SOL     OW17997   3.910   1.514   1.102  0.1516  0.2202  0.1901
 5526SOL    HW117998   3.922   1.419   1.111  0.8123  0.1855 -0.9308
 5526SOL    HW217999   3.991   1.552   1.136  0.2885  0.3422 -0.2770
 5527SOL     OW18000   3.102   1.306   1.002 -0.3211  0.0183 -0.2053
 5527SOL    HW118001   3.108   1.393   0.963 -0.4580  0.7457  1.2950
 5527SOL    HW218002   3.140   1.317   1.089 -2.7072 -0.7361  1.0123
 5528SOL     OW18003   0.045   0.419   2.671 -0.4624  0.3058 -0.0086
 5528SOL    HW118004   0.058   0.475   2.747  0.0323  0.3676 -0.1371
 5528SOL    HW218005   0.098   0.341   2.690 -0.3548  0.3131 -0.2773
 5529SOL     OW18006   6.925   0.401   7.912  0.8400 -0.7440 -0.1364
 5529SOL    HW118007   6.968   0.316   7.924 -1.7328 -2.2336 -0.6367
 5529SOL    HW218008   6.925   0.414   7.817  1.0653 -0.2517 -0.0727
 5530SOL     OW18009   7.847   0.914   5.896 -0.1984 -0.8210  0.3080
 5530SOL    HW118010   7.835   0.871   5.812  1.9414 -0.3421 -0.3178
 5530SOL    HW218011   7.765   0.901   5.943 -2.3614  0.8124 -2.6921
 5531SOL     OW18012   1.706   4.485   4.515 -0.4310 -0.0615  0.0295
 5531SOL    HW118013   1.672   4.398   4.493 -1.0577 -0.1299  1.1871
 5531SOL    HW218014   1.637   4.545   4.488 -1.4057 -0.1776  2.0941
 5532SOL     OW18015   4.777   7.943   1.350  0.2574  0.0032 -0.2676
 5532SOL    HW118016   4.688   7.967   1.326 -0.5657 -1.1592  1.4492
 5532SOL    HW218017   4.829   8.021   1.329 -0.7241 -0.0571 -3.3362
 5533SOL     OW18018   5.502   4.170   0.996  0.5359 -0.0396  0.1063
 5533SOL    HW118019   5.500   4.077   0.974 -0.2417  0.2171 -0.9831
 5533SOL    HW218020   5.420   4.185   1.044  0.4217  0.1888 -0.1612
 5534SOL     OW18021   2.391   1.758   6.154  0.1236 -0.3230  0.0664
 5534SOL    HW118022   2.350   1.739   6.070 -0.5736 -1.6313  0.6767
 5534SOL    HW218023   2.352   1.842   6.181 -1.3328 -0.9671  0.0920
 5535SOL     OW18024   4.180   0.779   4.053  0.6832  0.1734 -0.7853
 5535SOL    HW118025   4.243   0.842   4.017 -1.7053  2.7651 -0.7090
 5535SOL    HW218026   4.120   0.761   3.980 -0.8827  1.0308  0.2512
 5536SOL     OW18027   1.572   0.737   3.694  0.2292 -0.3810 -0.1877
 5536SOL    HW118028   1.539   0.815   3.651  0.0875 -1.0057 -1.2406
 5536SOL    HW218029   1.526   0.735   3.779 -0.7245 -0.0108 -0.6824
 5537SOL     OW18030   1.047   7.392   2.478  0.2855 -0.3600 -0.1657
 5537SOL    HW118031   1.104   7.454   2.524 -2.8933  1.4184  1.7111
 5537SOL    HW218032   1.055   7.311   2.528 -0.2852  0.4551  1.3086
 5538SOL     OW18033   1.492   0.135   1.339 -0.5226  0.0416 -0.3672
 5538SOL    HW118034   1.438   0.176   1.407  1.6193 -2.3575  3.0861
 5538SOL    HW218035   1.470   0.042   1.345 -0.3380 -0.2802 -3.2144
 5539SOL     OW18036   6.820   8.295   4.980  0.0039  0.3147 -0.3561
 5539SOL    HW118037   6.903   8.273   4.937 -0.7655 -0.0707 -1.7233
 5539SOL    HW218038   6.839   8.290   5.073  1.6707  0.8172 -0.6305
 5540SOL     OW18039   7.180   1.113   3.110 -0.1512 -0.0692 -0.1163
 5540SOL    HW118040   7.113   1.085   3.173 -0.4988 -1.4881 -1.0631
 5540SOL    HW218041   7.251   1.147   3.164 -0.7722 -0.5155  1.0123
 5541SOL     OW18042   2.980   7.477   5.527  0.3508  0.0657  0.0286
 5541SOL    HW118043   3.070   7.454   5.549 -0.0931 -1.2819  0.5482
 5541SOL    HW218044   2.936   7.482   5.612 -0.2257 -0.0338 -0.2630
 5542SOL     OW18045   4.871   1.909   1.848 -0.0397  0.0104 -0.6057
 5542SOL    HW118046   4.780   1.920   1.821  0.4685  1.5157 -1.8249
 5542SOL    HW218047   4.921   1.963   1.787  1.8139 -1.8273 -0.8238
 5543SOL     OW18048   0.781   7.764   2.230 -0.1893  0.6380  0.3903
 5543SOL    HW118049   0.847   7.781   2.163  0.1707  1.4295  0.9288
 5543SOL    HW218050   0.788   7.671   2.248  2.8503  1.1242  2.5337
 5544SOL     OW18051   1.554   7.984   1.773  0.1891  0.4491 -0.0292
 5544SOL    HW118052   1.581   7.910   1.828 -0.5066  2.2963  3.0202
 5544SOL    HW218053   1.636   8.017   1.737  0.7391 -0.5385  0.2528
 5545SOL     OW18054   5.800   5.046   4.669 -0.6071  0.5474 -0.1399
 5545SOL    HW118055   5.779   5.014   4.581 -0.9682  2.0068 -0.6169
 5545SOL    HW218056   5.896   5.042   4.674 -0.6532 -0.9438 -0.0219
 5546SOL     OW18057   4.941   4.257   6.150  0.4973 -0.6453 -0.5481
 5546SOL    HW118058   4.908   4.346   6.161 -1.0971 -1.4439  1.9370
 5546SOL    HW218059   4.948   4.245   6.055 -1.5383  1.3370 -1.0262
 5547SOL     OW18060   4.736   4.455   3.102  0.1465  0.1654 -0.3874
 5547SOL    HW118061   4.668   4.468   3.036  1.1660 -1.4417 -1.8168
 5547SOL    HW218062   4.708   4.376   3.150 -0.2308  0.9239  0.6886
 5548SOL     OW18063   7.593   1.639   0.287  0.2687  0.0658  0.2767
 5548SOL    HW118064   7.645   1.570   0.329  3.0214  0.5897 -1.9879
 5548SOL    HW218065   7.525   1.659   0.351  1.3369 -2.4486  2.3937
 5549SOL     OW18066   3.608   4.461   1.108  0.0868 -0.2305  0.1631
 5549SOL    HW118067   3.649   4.524   1.167  1.5960 -1.5020  0.5176
 5549SOL    HW218068   3.645   4.480   1.022 -0.1515 -0.0480  0.0999
 5550SOL     OW18069   7.430   6.786   3.846  0.1274 -0.4950  0.3678
 5550SOL    HW118070   7.335   6.781   3.847  0.0725 -1.4902 -2.2685
 5550SOL    HW218071   7.450   6.875   3.819 -0.0768 -0.4328  0.4264
 5551SOL     OW18072   7.406   2.911   3.916  0.0738 -0.0132 -0.0518
 5551SOL    HW118073   7.481   2.888   3.971  1.2078  0.3541 -1.3787
 5551SOL    HW218074   7.353   2.969   3.971  1.1423  0.3107  0.6739
 5552SOL     OW18075   6.059   0.317   8.077  0.5504 -0.1175  0.0146
 5552SOL    HW118076   6.138   0.370   8.070  0.2656  0.1540 -2.0987
 5552SOL    HW218077   5.990   0.380   8.100  0.7808 -0.1958  0.9443
 5553SOL     OW18078   2.047   0.004   2.539  0.0861  0.1989  0.0661
 5553SOL    HW118079   2.046   0.048   2.623  3.0620  0.6396 -0.0175
 5553SOL    HW218080   2.042   0.074   2.474  0.9425  0.1256 -0.0886
 5554SOL     OW18081   0.272   6.601   4.913  0.0354 -0.2764 -0.1819
 5554SOL    HW118082   0.286   6.677   4.969 -2.3807  0.5000 -0.4906
 5554SOL    HW218083   0.183   6.572   4.934 -0.3986 -0.8701 -2.5246
 5555SOL     OW18084   6.452   6.716   2.835  0.1908 -0.2621 -0.0499
 5555SOL    HW118085   6.443   6.784   2.902 -0.2450 -0.1280 -0.2350
 5555SOL    HW218086   6.513   6.754   2.771  0.9273 -0.5584  0.4709
 5556SOL     OW18087   6.087   2.504   7.815  0.3026 -0.3769 -0.0386
 5556SOL    HW118088   6.058   2.419   7.781 -0.3264  0.4859 -1.7797
 5556SOL    HW218089   6.168   2.484   7.863 -0.6323 -2.1514  0.8949
 5557SOL     OW18090   3.148   2.813   7.397 -0.2488  0.0169 -0.4266
 5557SOL    HW118091   3.235   2.841   7.367 -0.0463 -1.9621 -1.9006
 5557SOL    HW218092   3.087   2.866   7.346  0.1192 -1.4441 -2.4896
 5558SOL     OW18093   5.704   5.091   6.493  0.1313 -0.2677  0.0443
 5558SOL    HW118094   5.740   5.007   6.522  2.4343  0.0197 -1.6522
 5558SOL    HW218095   5.630   5.067   6.436 -0.3892 -1.0422  1.0132
 5559SOL     OW18096   5.332   2.858   4.778  0.0084 -0.8526  0.0731
 5559SOL    HW118097   5.421   2.872   4.746  1.0766 -0.8356  2.8431
 5559SOL    HW218098   5.342   2.817   4.864 -2.7041 -1.9452 -0.0136
 5560SOL     OW18099   3.859   7.256   8.369 -0.0930 -0.6228  0.3547
 5560SOL    HW118100   3.879   7.345   8.397 -1.8522 -0.2171  0.4445
 5560SOL    HW218101   3.835   7.264   8.277 -0.6981 -0.9289  0.4795
 5561SOL     OW18102   1.786   0.093   5.880 -0.1507 -0.1060  0.3805
 5561SOL    HW118103   1.869   0.134   5.903  0.5648 -1.1228 -0.3129
 5561SOL    HW218104   1.769   0.121   5.790 -0.7419  0.3711  0.6329
 5562SOL     OW18105   7.135   2.781   2.926  0.2426 -0.2260 -0.0798
 5562SOL    HW118106   7.124   2.866   2.884  2.6937  0.0043 -0.3641
 5562SOL    HW218107   7.127   2.718   2.855  2.4110  0.0541 -0.6468
 5563SOL     OW18108   0.067   3.713   0.213  0.1016  0.7964 -0.2771
 5563SOL    HW118109   0.077   3.618   0.219 -1.2165  0.6535  0.0118
 5563SOL    HW218110   0.069   3.742   0.304 -0.6990  0.8983 -0.2876
 5564SOL     OW18111   4.355   3.716   7.516  0.1544 -0.0014  0.0544
 5564SOL    HW118112   4.380   3.808   7.526 -1.0922  0.4343 -0.5972
 5564SOL    HW218113   4.261   3.715   7.534  0.4396 -1.4509  1.7168
 5565SOL     OW18114   5.810   4.592   1.883 -0.0296 -0.3366 -0.4161
 5565SOL    HW118115   5.780   4.522   1.941  2.3974 -0.0933  1.2593
 5565SOL    HW218116   5.735   4.652   1.878 -1.6141 -2.2435 -0.6508
 5566SOL     OW18117   1.473   8.059   4.721 -0.1859 -0.8137  0.4613
 5566SOL    HW118118   1.408   7.989   4.712 -0.6055 -0.3092 -0.5701
 5566SOL    HW218119   1.481   8.096   4.633  1.4588 -0.8181  0.5717
 5567SOL     OW18120   7.079   3.782   5.972 -0.3399 -0.0880 -1.0903
 5567SOL    HW118121   7.055   3.713   6.033  0.2965  1.0822  0.5407
 5567SOL    HW218122   7.169   3.763   5.948 -0.3507 -0.1364 -1.0910
 5568SOL     OW18123   1.217   6.219   2.541  0.2611 -0.4305  0.0532
 5568SOL    HW118124   1.256   6.238   2.455 -2.4696  0.9201 -1.0278
 5568SOL    HW218125   1.234   6.297   2.593  1.3481 -0.9858  0.5675
 5569SOL     OW18126   1.917   0.718   3.122  0.2194 -0.5367  0.7917
 5569SOL    HW118127   1.889   0.696   3.033 -2.0481  1.2914  0.9832
 5569SOL    HW218128   2.005   0.754   3.111 -0.6715  1.2771 -0.9970
 5570SOL     OW18129   2.697   0.101   0.560 -0.0558  0.0729  0.3900
 5570SOL    HW118130   2.745   0.175   0.599 -0.2521  0.8073 -0.7063
 5570SOL    HW218131   2.624   0.087   0.620  0.6877 -0.0862  1.2943
 5571SOL     OW18132   3.302   4.752   1.653 -0.2766 -0.2134  0.4462
 5571SOL    HW118133   3.295   4.769   1.559  1.2665 -1.1338  0.1227
 5571SOL    HW218134   3.262   4.829   1.694 -3.2088 -0.8716 -0.9017
 5572SOL     OW18135   0.345   3.168   6.239  0.1592  0.5264 -0.6913
 5572SOL    HW118136   0.402   3.234   6.199 -0.5988  0.4756 -1.8947
 5572SOL    HW218137   0.404   3.115   6.293  0.9685  1.4837 -0.6025
 5573SOL     OW18138   4.741   4.827   5.075 -0.3022  0.1111 -0.5836
 5573SOL    HW118139   4.777   4.761   5.016  2.2265 -0.1545  1.0699
 5573SOL    HW218140   4.783   4.809   5.159 -3.9289  0.2985  1.4295
 5574SOL     OW18141   6.511   0.847   6.704 -0.0995 -0.0831 -0.9190
 5574SOL    HW118142   6.508   0.754   6.724 -2.2911 -0.2977 -1.9740
 5574SOL    HW218143   6.573   0.883   6.768  1.7471 -2.4001 -1.2582
 5575SOL     OW18144   8.116   6.193   3.694 -0.0725  0.4371 -0.0533
 5575SOL    HW118145   8.030   6.209   3.656  0.0215  2.6978  0.5083
 5575SOL    HW218146   8.112   6.104   3.728 -1.9937  0.3056 -0.5282
 5576SOL     OW18147   1.522   1.805   6.772  0.1560  0.2765  0.1645
 5576SOL    HW118148   1.547   1.714   6.758  2.5948  0.6170  1.8170
 5576SOL    HW218149   1.604   1.850   6.790 -1.2026  2.4284  1.3527
 5577SOL     OW18150   6.762   1.043   5.056 -0.0645  0.1039  0.7880
 5577SOL    HW118151   6.752   1.102   4.981 -1.9049 -0.5688  0.4582
 5577SOL    HW218152   6.798   1.099   5.125  0.2733  1.0860 -0.1468
 5578SOL     OW18153   1.137   5.042   4.512  0.0402 -0.8884  0.0268
 5578SOL    HW118154   1.090   4.961   4.495 -0.6306 -0.6035  0.5072
 5578SOL    HW218155   1.072   5.102   4.548  0.6087 -0.2562  0.0399
 5579SOL     OW18156   3.159   7.943   6.702  0.0193 -0.0995  0.5979
 5579SOL    HW118157   3.121   7.856   6.690 -0.6628  0.1094  1.1243
 5579SOL    HW218158   3.165   7.953   6.797  0.3131  0.3315  0.5370
 5580SOL     OW18159   3.816   1.834   6.017 -0.4268 -0.0335 -0.4978
 5580SOL    HW118160   3.814   1.779   6.095 -0.2753 -0.6553 -0.9299
 5580SOL    HW218161   3.724   1.860   6.004 -0.2227  1.6253  0.9540
 5581SOL     OW18162   7.275   3.137   5.182 -0.0705  0.4414  0.3225
 5581SOL    HW118163   7.288   3.187   5.101 -1.6040 -0.9567 -0.8458
 5581SOL    HW218164   7.191   3.169   5.216  0.0810  0.3056  0.8338
 5582SOL     OW18165   6.945   6.813   2.473 -0.2017 -0.4434  0.0775
 5582SOL    HW118166   6.966   6.884   2.534 -0.3683 -2.0133  2.0605
 5582SOL    HW218167   6.855   6.829   2.447  0.5406  1.5065 -1.6725
 5583SOL     OW18168   3.385   2.176   7.388  0.2275 -0.3215  0.1858
 5583SOL    HW118169   3.413   2.098   7.340 -0.9121 -0.3424 -0.4805
 5583SOL    HW218170   3.436   2.248   7.349  0.7741 -0.6280  0.3282
 5584SOL     OW18171   6.873   8.141   3.868 -0.2613 -0.6876  0.7582
 5584SOL    HW118172   6.846   8.227   3.835 -2.4686 -2.4719 -2.6482
 5584SOL    HW218173   6.792   8.100   3.899  0.6312 -1.8179  1.6990
 5585SOL     OW18174   8.127   7.043   5.375 -0.1014  0.8978 -0.3526
 5585SOL    HW118175   8.139   7.016   5.465  0.4734  1.2380 -0.3225
 5585SOL    HW218176   8.113   7.137   5.380 -1.2436  0.7486 -0.5248
 5586SOL     OW18177   6.109   1.004   8.087  0.3906  0.0470  0.2716
 5586SOL    HW118178   6.061   1.019   8.168  1.6754 -0.9419  1.2681
 5586SOL    HW218179   6.075   0.922   8.053  0.7432 -0.1993  0.5064
 5587SOL     OW18180   0.969   2.134   7.720  0.0167 -0.4918 -0.2381
 5587SOL    HW118181   0.944   2.204   7.782  3.2807  0.3726  0.2717
 5587SOL    HW218182   0.939   2.054   7.762 -3.4814  0.4036 -0.6400
 5588SOL     OW18183   4.675   8.280   7.621  0.4258 -0.1110 -0.5692
 5588SOL    HW118184   4.658   8.367   7.584  1.5001  0.5917  0.5039
 5588SOL    HW218185   4.638   8.219   7.558 -1.2944  1.1468 -0.8371
 5589SOL     OW18186   2.732   1.184   0.752 -0.4750  0.0635 -0.1798
 5589SOL    HW118187   2.746   1.243   0.677  0.3124 -0.5514 -0.5367
 5589SOL    HW218188   2.641   1.158   0.746 -0.1064 -0.9981 -1.7049
 5590SOL     OW18189   4.508   4.637   3.968 -0.0959 -0.7199  0.1158
 5590SOL    HW118190   4.434   4.600   3.920 -0.2109 -0.6003  0.2004
 5590SOL    HW218191   4.560   4.682   3.902  0.0506 -1.0435  0.0110
 5591SOL     OW18192   0.289   5.996   5.740 -0.1343  0.2429  0.7395
 5591SOL    HW118193   0.238   5.983   5.660  0.5384  2.1270 -0.0512
 5591SOL    HW218194   0.372   5.952   5.722  0.8798  2.4907 -0.5907
 5592SOL     OW18195   2.387   5.629   0.542  0.4185 -0.0126  0.2582
 5592SOL    HW118196   2.446   5.627   0.617  0.3679 -0.3036  0.2914
 5592SOL    HW218197   2.439   5.670   0.472  1.2933 -1.8715 -0.2411
 5593SOL     OW18198   3.833   7.295   5.417 -0.1221  0.1911  1.1378
 5593SOL    HW118199   3.796   7.379   5.387 -1.9781 -1.3845 -1.4280
 5593SOL    HW218200   3.916   7.288   5.370 -1.1083 -0.4195 -0.6163
 5594SOL     OW18201   2.882   8.084   2.541  0.0016  0.3322  0.1254
 5594SOL    HW118202   2.891   7.994   2.507  0.8704  0.7537 -0.8268
 5594SOL    HW218203   2.969   8.121   2.532 -0.2523  1.1392  0.9342
 5595SOL     OW18204   6.212   4.872   1.816 -0.2856 -0.0100 -0.5321
 5595SOL    HW118205   6.149   4.821   1.765 -1.0645 -1.1381  1.4656
 5595SOL    HW218206   6.168   4.956   1.829 -0.0297  0.3427 -1.7426
 5596SOL     OW18207   0.395   2.785   0.094  0.2950 -0.4386  0.4839
 5596SOL    HW118208   0.431   2.870   0.069  0.2753 -0.9200 -1.3549
 5596SOL    HW218209   0.448   2.757   0.168  1.2835  0.5030  0.1538
 5597SOL     OW18210   8.227   2.819   3.234 -0.1177  0.3785  0.8824
 5597SOL    HW118211   8.311   2.844   3.272  1.2688 -0.8109 -1.1737
 5597SOL    HW218212   8.207   2.734   3.273  1.7450 -1.2688 -1.4229
 5598SOL     OW18213   7.327   2.377   2.316 -0.4855 -0.0353  0.0518
 5598SOL    HW118214   7.321   2.364   2.222  1.2603 -0.8645  0.0202
 5598SOL    HW218215   7.421   2.384   2.334 -0.6483 -1.7679  1.9588
 5599SOL     OW18216   5.414   4.715   4.341 -0.2390 -0.5262 -0.2627
 5599SOL    HW118217   5.340   4.655   4.331 -0.1783 -0.5184 -0.7886
 5599SOL    HW218218   5.482   4.679   4.284 -1.3349  1.8444 -3.3901
 5600SOL     OW18219   1.110   1.711   6.687 -0.7553  0.0944 -0.5115
 5600SOL    HW118220   1.061   1.700   6.606 -1.6922  0.2093  0.0358
 5600SOL    HW218221   1.124   1.621   6.719  0.2425  0.0037 -1.1531
 5601SOL     OW18222   8.235   4.961   5.505 -0.3867 -0.3507  0.2227
 5601SOL    HW118223   8.158   5.008   5.474  0.5899  0.7366 -0.6460
 5601SOL    HW218224   8.248   4.991   5.595  0.5230  1.4986 -0.4816
 5602SOL     OW18225   3.251   1.763   3.839 -0.1022  0.3042 -0.0803
 5602SOL    HW118226   3.312   1.713   3.893  1.1216  1.9414  0.1243
 5602SOL    HW218227   3.305   1.801   3.770 -1.4197 -0.6246 -1.6838
 5603SOL     OW18228   1.608   4.878   4.197 -0.3468  0.5379  0.8799
 5603SOL    HW118229   1.651   4.921   4.270  0.5516  1.5730 -0.2119
 5603SOL    HW218230   1.669   4.888   4.124 -0.4287 -1.9519  0.3723
 5604SOL     OW18231   2.769   5.972   6.760  0.5070  0.1102  0.2732
 5604SOL    HW118232   2.697   6.028   6.734 -0.5770 -1.5104 -0.3936
 5604SOL    HW218233   2.766   5.899   6.698  2.0454 -0.5356  0.9063
 5605SOL     OW18234   0.104   7.508   0.280  0.1223 -0.2556 -0.3317
 5605SOL    HW118235   0.017   7.547   0.289  0.3711  0.1322  0.5020
 5605SOL    HW218236   0.089   7.414   0.284 -0.2488 -0.1841 -0.0402
 5606SOL     OW18237   1.921   1.657   0.316  0.2858 -0.1126 -0.5809
 5606SOL    HW118238   1.911   1.601   0.393 -1.1325 -0.8528 -1.2641
 5606SOL    HW218239   2.015   1.673   0.310  0.3457  0.7638  1.8277
 5607SOL     OW18240   2.270   0.372   5.799 -0.1426 -0.7024 -0.7894
 5607SOL    HW118241   2.295   0.449   5.850 -2.8922  0.9624 -1.6878
 5607SOL    HW218242   2.277   0.401   5.708  1.5322 -2.5392 -1.3014
 5608SOL     OW18243   8.330   7.712   3.727  0.1775 -0.2464  0.3743
 5608SOL    HW118244   8.385   7.750   3.659  0.2085  0.4996  0.8025
 5608SOL    HW218245   8.390   7.662   3.782  0.1251 -0.9908 -0.2369
 5609SOL     OW18246   0.639   5.137   7.660  0.1133  0.0939 -0.0239
 5609SOL    HW118247   0.552   5.135   7.621  0.8399  0.8003 -1.8218
 5609SOL    HW218248   0.675   5.222   7.634  1.2032 -0.0399  0.9788
 5610SOL     OW18249   7.046   7.959   6.601 -0.3634 -0.0888  0.3012
 5610SOL    HW118250   7.068   7.867   6.585  0.2051 -0.1644  1.4133
 5610SOL    HW218251   6.951   7.963   6.594 -0.4607 -0.9326  1.0052
 5611SOL     OW18252   0.691   2.304   3.388  0.2628 -0.1640 -0.0451
 5611SOL    HW118253   0.691   2.329   3.296  2.1539 -0.0457 -0.0570
 5611SOL    HW218254   0.639   2.224   3.392  0.2514 -0.2286 -1.2300
 5612SOL     OW18255   7.910   0.679   0.652 -0.3194 -0.2480 -0.5235
 5612SOL    HW118256   7.942   0.711   0.568 -0.5679 -0.8345 -0.8469
 5612SOL    HW218257   7.872   0.756   0.695 -0.3363  0.0150 -1.0106
 5613SOL     OW18258   7.166   4.829   6.828  0.8629  0.1677  0.4431
 5613SOL    HW118259   7.112   4.906   6.811  0.0772 -0.9184 -2.4827
 5613SOL    HW218260   7.256   4.861   6.821  0.5707  1.0361  0.4575
 5614SOL     OW18261   1.547   4.506   0.856  0.3781  0.0229 -0.2920
 5614SOL    HW118262   1.578   4.416   0.854 -0.8281 -0.4621  1.1170
 5614SOL    HW218263   1.452   4.498   0.856  0.2567  1.2816  0.0904
 5615SOL     OW18264   5.167   5.454   6.178 -0.6662 -0.1716  0.0366
 5615SOL    HW118265   5.240   5.505   6.213 -0.4948  0.1149 -0.7310
 5615SOL    HW218266   5.109   5.519   6.139 -0.6223 -0.5287 -0.6398
 5616SOL     OW18267   7.695   3.922   6.101  0.4113 -0.2998  0.1477
 5616SOL    HW118268   7.741   3.842   6.125 -0.4733 -0.5747  0.9762
 5616SOL    HW218269   7.604   3.895   6.089 -0.4624  0.9652  3.0109
 5617SOL     OW18270   1.950   6.073   3.467  0.2353 -0.0376  0.0335
 5617SOL    HW118271   1.959   6.090   3.373 -0.0506  1.5418  0.2576
 5617SOL    HW218272   1.861   6.104   3.488  0.6916  0.6368  1.0180
 5618SOL     OW18273   1.972   6.406   0.897 -0.5308 -0.1874 -0.0162
 5618SOL    HW118274   1.923   6.326   0.914  0.0322 -0.0830  2.5343
 5618SOL    HW218275   1.947   6.432   0.808 -5.2099 -0.0747  1.0680
 5619SOL     OW18276   0.858   7.362   1.911 -0.4963  0.8494  0.6703
 5619SOL    HW118277   0.878   7.351   1.819  1.0075  1.4348  0.9101
 5619SOL    HW218278   0.940   7.344   1.957 -1.6138 -1.1601  2.0571
 5620SOL     OW18279   3.164   7.192   5.775 -0.8004  0.1940 -0.3273
 5620SOL    HW118280   3.183   7.280   5.807  1.9835 -1.0281  1.7389
 5620SOL    HW218281   3.249   7.149   5.769 -2.1095 -2.6030 -0.5891
 5621SOL     OW18282   7.223   6.668   3.223 -0.2121 -0.8656 -0.2956
 5621SOL    HW118283   7.134   6.633   3.217 -0.6966  0.5192 -3.4767
 5621SOL    HW218284   7.225   6.738   3.157  2.5472  0.7892  1.3446
 5622SOL     OW18285   6.910   7.839   7.725 -0.0383  0.3105 -0.4644
 5622SOL    HW118286   6.920   7.911   7.662  0.6678 -0.5825 -1.4226
 5622SOL    HW218287   6.999   7.811   7.744 -0.2724  0.2235  0.5458
 5623SOL     OW18288   3.322   4.286   7.549 -0.1568  0.7308 -0.2339
 5623SOL    HW118289   3.395   4.348   7.543  0.2895  0.1603 -0.8546
 5623SOL    HW218290   3.316   4.266   7.642  2.2851 -1.2725 -0.3879
 5624SOL     OW18291   1.109   7.155   6.302 -0.0231 -0.0084 -0.1370
 5624SOL    HW118292   1.166   7.186   6.372  1.8710 -1.9894 -0.6914
 5624SOL    HW218293   1.117   7.222   6.233  2.5699 -0.7106 -0.6172
 5625SOL     OW18294   1.158   6.768   1.374 -0.1915 -0.1276 -0.3935
 5625SOL    HW118295   1.211   6.692   1.397  0.5818  0.2905 -0.7435
 5625SOL    HW218296   1.095   6.776   1.445  2.1260  1.1426  1.6478
 5626SOL     OW18297   1.177   4.194   7.126  0.0558 -0.0021 -0.0414
 5626SOL    HW118298   1.165   4.101   7.144  0.3201 -0.0316 -0.0234
 5626SOL    HW218299   1.229   4.197   7.046 -1.7428  0.1171 -1.2850
 5627SOL     OW18300   4.751   3.112   7.575 -0.2225 -0.6015 -0.9346
 5627SOL    HW118301   4.772   3.100   7.483 -1.8694  2.4601 -1.8418
 5627SOL    HW218302   4.660   3.085   7.583  0.0352 -1.2826 -0.0494
 5628SOL     OW18303   7.062   6.189   4.617 -0.4390 -0.4904 -0.2167
 5628SOL    HW118304   6.984   6.233   4.651  0.2300  0.3223  0.3078
 5628SOL    HW218305   7.028   6.113   4.570 -1.6273  0.6087 -1.1980
 5629SOL     OW18306   6.115   4.688   5.253  0.0470  0.6910 -0.4258
 5629SOL    HW118307   6.026   4.654   5.263 -0.4016  1.9506 -0.0101
 5629SOL    HW218308   6.118   4.767   5.307  1.5257  0.5072 -0.1722
 5630SOL     OW18309   3.814   7.668   7.742  0.1229 -0.0313 -0.2518
 5630SOL    HW118310   3.880   7.686   7.809  0.1358  1.3914 -0.6084
 5630SOL    HW218311   3.743   7.625   7.789  0.1957  0.8137  0.6625
 5631SOL     OW18312   7.557   6.100   2.222 -0.0795  0.1984  0.5757
 5631SOL    HW118313   7.484   6.055   2.266 -0.6864 -0.4447 -1.0203
 5631SOL    HW218314   7.632   6.043   2.236 -0.0360  0.4857  1.5879
 5632SOL     OW18315   3.664   6.280   5.750 -0.0195 -0.1889 -0.3929
 5632SOL    HW118316   3.694   6.191   5.768 -1.8856 -0.9211 -0.5995
 5632SOL    HW218317   3.738   6.336   5.771  1.1324 -1.7797 -0.0636
 5633SOL     OW18318   4.903   7.262   8.282  0.6368 -0.1042  0.4998
 5633SOL    HW118319   4.931   7.231   8.196 -0.4377  0.3072 -0.0137
 5633SOL    HW218320   4.916   7.186   8.340 -0.8735 -1.1862 -0.5106
 5634SOL     OW18321   2.903   0.592   6.658 -0.6642 -0.3718  0.1165
 5634SOL    HW118322   2.908   0.677   6.615 -0.7171 -1.4931 -2.2505
 5634SOL    HW218323   2.809   0.571   6.659 -0.5089 -1.3524 -1.4405
 5635SOL     OW18324   3.224   4.403   2.790 -0.3183  0.2851 -1.0432
 5635SOL    HW118325   3.271   4.356   2.721 -1.0828  0.5649 -1.7636
 5635SOL    HW218326   3.148   4.441   2.747 -0.8733  0.3825 -0.0271
 5636SOL     OW18327   8.296   6.699   0.712 -0.3010  0.2061  0.1690
 5636SOL    HW118328   8.329   6.661   0.631 -0.3663  1.0001 -0.2463
 5636SOL    HW218329   8.238   6.769   0.683 -1.0806 -0.1266  0.9033
 5637SOL     OW18330   7.235   1.053   5.313  0.2407  0.0581 -0.0467
 5637SOL    HW118331   7.261   1.136   5.353 -0.9119 -0.1876  1.3181
 5637SOL    HW218332   7.244   1.067   5.219  1.2727  1.2978  0.2058
 5638SOL     OW18333   5.269   0.836   5.041  0.0241  0.0586 -0.3273
 5638SOL    HW118334   5.339   0.811   4.980 -0.4844  1.5576 -1.6115
 5638SOL    HW218335   5.244   0.924   5.012 -0.9101  0.4176  1.4826
 5639SOL     OW18336   7.358   4.870   2.825 -0.0125 -0.4585 -0.2186
 5639SOL    HW118337   7.312   4.952   2.806  0.4512 -0.2158 -0.2958
 5639SOL    HW218338   7.293   4.817   2.873 -0.1930  0.0964  0.1592
 5640SOL     OW18339   0.780   8.158   3.983 -0.2049 -0.1545 -0.4545
 5640SOL    HW118340   0.734   8.239   3.963 -0.1420 -0.3277 -1.3658
 5640SOL    HW218341   0.853   8.156   3.921 -1.6932 -2.1498 -2.3095
 5641SOL     OW18342   4.559   4.517   6.918  0.3250  0.1974 -0.0766
 5641SOL    HW118343   4.488   4.520   6.855 -0.4155  3.5122  0.7523
 5641SOL    HW218344   4.518   4.490   7.000  0.5214 -0.2733 -0.1296
 5642SOL     OW18345   6.212   4.813   5.860 -0.1485 -0.0323 -0.2877
 5642SOL    HW118346   6.154   4.877   5.901  0.3289 -1.4276  2.8863
 5642SOL    HW218347   6.155   4.740   5.836 -0.1922  0.1012 -0.5968
 5643SOL     OW18348   0.408   1.563   1.136 -0.5186  0.3168  0.0240
 5643SOL    HW118349   0.329   1.510   1.132  0.1568 -0.6528 -0.9449
 5643SOL    HW218350   0.436   1.573   1.045  1.4379 -0.8615  0.4326
 5644SOL     OW18351   2.171   8.134   3.866  0.0626 -0.3479 -0.2307
 5644SOL    HW118352   2.108   8.205   3.859 -1.9595 -1.9783  0.5619
 5644SOL    HW218353   2.122   8.055   3.845  0.9879 -2.0365  3.1539
 5645SOL     OW18354   5.651   3.125   1.874 -0.0512  0.2938 -0.1937
 5645SOL    HW118355   5.722   3.097   1.816 -0.1390  2.1282 -1.2351
 5645SOL    HW218356   5.591   3.172   1.817 -0.4631  1.6029  1.2697
 5646SOL     OW18357   8.122   3.549   1.828 -0.0186  0.2151 -0.0256
 5646SOL    HW118358   8.208   3.570   1.792  0.1102 -0.3322 -0.0565
 5646SOL    HW218359   8.097   3.468   1.782  0.5814 -1.0725  1.8205
 5647SOL     OW18360   5.236   5.806   0.996  0.1113 -0.1587 -0.5317
 5647SOL    HW118361   5.173   5.849   1.054 -0.3299 -2.0056  0.4596
 5647SOL    HW218362   5.212   5.836   0.908  0.6984  2.5953  0.1550
 5648SOL     OW18363   0.735   6.674   1.510 -0.2638  0.3827  0.2979
 5648SOL    HW118364   0.702   6.611   1.446 -1.5333  2.0478 -0.7700
 5648SOL    HW218365   0.762   6.749   1.457  1.0690  0.8252  1.5533
 5649SOL     OW18366   2.693   3.986   6.690 -0.4500 -0.0955 -0.6138
 5649SOL    HW118367   2.760   3.971   6.758 -0.2899  0.0994 -0.7288
 5649SOL    HW218368   2.614   4.008   6.740 -0.2041  0.5584 -0.5008
 5650SOL     OW18369   5.756   5.585   0.566 -0.3542  0.1789  0.5652
 5650SOL    HW118370   5.682   5.579   0.506 -1.0065  1.9919  1.1213
 5650SOL    HW218371   5.745   5.511   0.626 -1.7541  0.4510  0.6729
 5651SOL     OW18372   5.472   1.474   1.852 -0.2709 -0.0103  0.4574
 5651SOL    HW118373   5.448   1.382   1.840  2.0944 -0.5467 -0.9343
 5651SOL    HW218374   5.481   1.485   1.946 -0.8731 -1.1165  0.6617
 5652SOL     OW18375   2.119   2.303   1.751 -0.4418  0.2595 -0.3095
 5652SOL    HW118376   2.071   2.282   1.672 -0.7144  0.7932 -0.2893
 5652SOL    HW218377   2.063   2.274   1.823 -0.6551  0.7068 -0.2908
 5653SOL     OW18378   7.598   5.022   7.003 -0.0884  0.4651  0.0537
 5653SOL    HW118379   7.574   4.964   7.075  1.2171 -0.1961 -0.0205
 5653SOL    HW218380   7.515   5.047   6.963 -0.6865 -1.2509  0.1697
 5654SOL     OW18381   0.513   3.616   5.114  0.0397  0.2851  0.1633
 5654SOL    HW118382   0.565   3.601   5.034  0.2294 -1.6084  0.5859
 5654SOL    HW218383   0.461   3.536   5.123 -0.0098  0.4917  1.9098
 5655SOL     OW18384   8.038   1.122   4.720 -0.4487  0.1028  0.0045
 5655SOL    HW118385   8.104   1.161   4.777 -1.0861 -0.0291  0.8464
 5655SOL    HW218386   7.985   1.196   4.691  2.2070  0.8391 -3.7101
 5656SOL     OW18387   2.424   1.928   6.695  0.4455 -0.3915  0.1505
 5656SOL    HW118388   2.425   1.832   6.688  0.5713 -0.5094  1.5384
 5656SOL    HW218389   2.501   1.956   6.646 -0.9818 -0.7827 -2.5184
 5657SOL     OW18390   5.725   4.051   6.196  0.7615 -1.1440 -0.2382
 5657SOL    HW118391   5.803   4.105   6.199 -0.6337  1.0090 -0.6443
 5657SOL    HW218392   5.685   4.061   6.283 -1.3810  1.5882 -1.3721
 5658SOL     OW18393   3.614   2.874   5.135 -0.5984  0.5445  0.4637
 5658SOL    HW118394   3.543   2.825   5.094  0.1672  0.3317 -0.6654
 5658SOL    HW218395   3.604   2.857   5.228 -1.6801  0.0544  0.2758
 5659SOL     OW18396   2.710   1.675   4.331  0.0735 -0.2039  0.0866
 5659SOL    HW118397   2.741   1.709   4.414  0.8290 -0.7824  0.0498
 5659SOL    HW218398   2.678   1.752   4.284  0.5966  0.2712  0.5008
 5660SOL     OW18399   1.416   1.689   7.062 -0.1469 -0.1167  0.6351
 5660SOL    HW118400   1.344   1.666   7.003 -0.7624 -0.4966  1.5131
 5660SOL    HW218401   1.477   1.616   7.056 -0.3994 -0.3379  0.7632
 5661SOL     OW18402   6.859   1.004   7.645 -0.0249 -0.3502  0.3848
 5661SOL    HW118403   6.854   1.098   7.662  0.5844 -0.2344 -0.0333
 5661SOL    HW218404   6.787   0.967   7.696 -1.6491  0.5661 -1.1085
 5662SOL     OW18405   0.570   4.624   7.389 -0.0740  0.3636  0.0051
 5662SOL    HW118406   0.634   4.556   7.413 -0.9541 -1.3748 -2.2349
 5662SOL    HW218407   0.609   4.668   7.314 -1.1346 -0.2574 -0.9472
 5663SOL     OW18408   1.579   2.244   0.538 -0.2462  0.1906 -0.3235
 5663SOL    HW118409   1.551   2.325   0.582  2.5139  1.0128  0.1096
 5663SOL    HW218410   1.523   2.238   0.461 -2.4660  0.9143  1.1315
 5664SOL     OW18411   7.338   4.899   6.497 -0.2410  0.6714 -0.3334
 5664SOL    HW118412   7.280   4.976   6.500 -1.8832 -0.5335  0.9128
 5664SOL    HW218413   7.303   4.845   6.426  0.2817  0.6026 -0.5437
 5665SOL     OW18414   6.362   7.972   7.311 -0.2373 -0.4940 -0.1032
 5665SOL    HW118415   6.424   7.921   7.364 -0.0630 -1.0868 -0.8505
 5665SOL    HW218416   6.296   8.002   7.374  0.0990 -0.9600  0.4906
 5666SOL     OW18417   7.894   1.802   6.750  0.2290  0.2858  0.0346
 5666SOL    HW118418   7.845   1.789   6.831 -0.4175 -0.4267 -0.4471
 5666SOL    HW218419   7.882   1.895   6.729 -1.6712 -0.0403 -0.5114
 5667SOL     OW18420   0.283   4.583   7.629  0.6880  0.0513 -0.3434
 5667SOL    HW118421   0.374   4.565   7.653 -0.3547 -1.6347  3.0818
 5667SOL    HW218422   0.232   4.535   7.695 -2.6709  2.4593 -0.9620
 5668SOL     OW18423   5.227   2.130   1.423 -0.3016 -0.0920  0.2972
 5668SOL    HW118424   5.275   2.072   1.364 -1.7472 -0.2080 -0.8015
 5668SOL    HW218425   5.251   2.100   1.510 -1.5666 -2.8781 -0.2011
 5669SOL     OW18426   7.058   4.620   1.156  0.6489  0.0355 -0.5218
 5669SOL    HW118427   7.020   4.567   1.227  0.5554 -0.0474 -0.6328
 5669SOL    HW218428   7.085   4.701   1.198 -0.9252  0.6871 -0.6804
 5670SOL     OW18429   1.798   2.929   1.953  0.1876 -0.0568  0.0494
 5670SOL    HW118430   1.783   2.857   1.891  0.6444 -0.0797 -0.0332
 5670SOL    HW218431   1.826   2.886   2.034 -0.8343 -0.0600  0.4268
 5671SOL     OW18432   7.395   4.806   4.576  0.2719 -0.8523 -0.9279
 5671SOL    HW118433   7.364   4.798   4.666  1.5857 -0.3357 -0.4226
 5671SOL    HW218434   7.454   4.881   4.576  1.3398 -1.6469 -1.9128
 5672SOL     OW18435   6.306   2.055   4.024  0.6223 -0.1016  0.0756
 5672SOL    HW118436   6.358   2.117   3.973  1.6628 -0.6626  0.4175
 5672SOL    HW218437   6.356   1.973   4.020  0.3335 -0.3662  1.3293
 5673SOL     OW18438   1.563   3.140   4.076 -0.0303 -0.1090  0.2432
 5673SOL    HW118439   1.525   3.181   4.153  2.4262 -0.3021  1.6631
 5673SOL    HW218440   1.511   3.061   4.062 -2.5996  1.5842 -0.4011
 5674SOL     OW18441   0.257   3.256   2.323 -0.5806 -0.1663 -0.2759
 5674SOL    HW118442   0.348   3.230   2.314  0.0472  1.5070  0.7322
 5674SOL    HW218443   0.260   3.340   2.369 -2.6471 -0.2046  0.0454
 5675SOL     OW18444   8.199   0.542   5.192 -0.2992  0.0396  0.2709
 5675SOL    HW118445   8.168   0.492   5.116  0.8786  0.0864 -0.2684
 5675SOL    HW218446   8.150   0.507   5.266 -1.2238 -0.2440 -0.4628
 5676SOL     OW18447   5.705   7.565   4.283  0.7863  0.1762 -0.4054
 5676SOL    HW118448   5.767   7.492   4.284  2.3704  1.4293  1.5244
 5676SOL    HW218449   5.664   7.563   4.370  0.3093  1.1172 -0.5925
 5677SOL     OW18450   2.967   1.500   5.394 -0.0899  0.4014  0.5448
 5677SOL    HW118451   2.926   1.558   5.459 -0.5449  1.6041 -0.7648
 5677SOL    HW218452   3.060   1.522   5.399 -0.3659  1.9916 -0.5969
 5678SOL     OW18453   1.127   5.678   4.064  0.0391 -0.5561 -0.3092
 5678SOL    HW118454   1.220   5.691   4.082 -0.0605  1.8247 -1.1184
 5678SOL    HW218455   1.124   5.606   4.000  1.3437 -0.4907 -0.4687
 5679SOL     OW18456   7.529   5.992   0.181  0.6707 -0.1991  0.5065
 5679SOL    HW118457   7.446   5.990   0.229  0.4458 -0.4781  0.1081
 5679SOL    HW218458   7.558   5.901   0.179  0.3893 -0.2796 -0.3842
 5680SOL     OW18459   7.874   2.399   5.318  0.5652 -0.2998 -0.0436
 5680SOL    HW118460   7.822   2.327   5.283 -0.5815 -0.0122  1.0241
 5680SOL    HW218461   7.936   2.358   5.378  0.7082 -0.5119 -0.3359
 5681SOL     OW18462   1.758   6.338   1.412 -0.8113  0.4687 -0.2115
 5681SOL    HW118463   1.790   6.322   1.324 -0.9871 -1.5307  0.0298
 5681SOL    HW218464   1.688   6.273   1.424  0.3936 -0.5747  1.9857
 5682SOL     OW18465   8.289   8.128   0.672 -0.0525  0.1321  0.1489
 5682SOL    HW118466   8.324   8.049   0.712  1.6415  0.4122 -0.6629
 5682SOL    HW218467   8.292   8.194   0.741 -2.8223 -0.7864  1.2604
 5683SOL     OW18468   6.627   7.844   5.601 -0.2295  0.5606  0.7623
 5683SOL    HW118469   6.664   7.760   5.626 -0.6673  0.0369 -0.3214
 5683SOL    HW218470   6.535   7.826   5.581 -0.5242  1.4361  1.2600
 5684SOL     OW18471   5.951   4.795   6.018  0.3180  0.2316  0.0453
 5684SOL    HW118472   5.998   4.748   6.086  0.4159  0.9230  0.4602
 5684SOL    HW218473   5.859   4.789   6.043  0.4339  1.3745  0.8204
 5685SOL     OW18474   1.400   6.924   0.913 -0.0154 -0.2271  0.1715
 5685SOL    HW118475   1.370   6.983   0.982 -0.7318  0.0809 -0.3862
 5685SOL    HW218476   1.370   6.838   0.941  0.8831 -0.3183  0.9053
 5686SOL     OW18477   4.827   6.217   5.119  0.0246  0.3392 -0.1534
 5686SOL    HW118478   4.886   6.280   5.077  0.4804  1.3535  1.8620
 5686SOL    HW218479   4.756   6.272   5.154  0.7249 -0.1224  2.1445
 5687SOL     OW18480   5.081   1.850   0.679  0.7827 -0.9065 -0.0294
 5687SOL    HW118481   5.096   1.839   0.586  0.6856  0.4266 -0.2223
 5687SOL    HW218482   5.139   1.786   0.721  2.4465 -0.0625 -0.9485
 5688SOL     OW18483   1.106   1.377   6.806 -0.2988 -0.0148 -0.1476
 5688SOL    HW118484   1.194   1.350   6.834  0.0733  1.0945 -0.1902
 5688SOL    HW218485   1.109   1.373   6.711  0.1556  1.3209 -0.2038
 5689SOL     OW18486   2.137   4.773   5.130  0.0502 -0.5716  0.2229
 5689SOL    HW118487   2.125   4.811   5.217 -0.2654  0.1542 -0.1310
 5689SOL    HW218488   2.060   4.718   5.117 -1.1959  1.2935 -0.6037
 5690SOL     OW18489   5.857   3.015   1.105 -0.4107 -0.5640  0.4665
 5690SOL    HW118490   5.784   3.030   1.044  1.3408 -0.1694 -1.6781
 5690SOL    HW218491   5.843   3.079   1.175 -2.7452 -1.3147  0.7779
 5691SOL     OW18492   5.800   5.033   4.951 -0.0991 -0.0026  0.3222
 5691SOL    HW118493   5.780   5.061   4.862  2.0007 -0.3745 -0.3268
 5691SOL    HW218494   5.895   5.023   4.952  0.0110  0.6224  2.7933
 5692SOL     OW18495   0.048   7.262   5.604  0.1605 -0.2572 -0.0816
 5692SOL    HW118496   0.103   7.214   5.667  1.0805  0.2901 -0.4542
 5692SOL    HW218497  -0.021   7.300   5.658  1.1418  0.5158  0.6764
 5693SOL     OW18498   4.217   8.359   6.812  0.0311  0.1402 -0.5105
 5693SOL    HW118499   4.219   8.270   6.775  0.6642  0.9433 -2.5903
 5693SOL    HW218500   4.299   8.398   6.781  0.5139  0.9795  1.6870
 5694SOL     OW18501   2.068   3.179   8.106  0.2912 -0.3871 -0.1086
 5694SOL    HW118502   1.989   3.174   8.051  0.0682 -1.4868  0.2979
 5694SOL    HW218503   2.115   3.098   8.089  1.4275  0.3163 -0.4479
 5695SOL     OW18504   5.187   0.024   4.913  0.1663  0.0534 -0.4719
 5695SOL    HW118505   5.199   0.075   4.993 -0.5884  1.3852 -1.1712
 5695SOL    HW218506   5.153  -0.060   4.944 -0.1678  0.5624  0.6108
 5696SOL     OW18507   3.494   1.954   6.626 -0.7339  0.0175  0.4347
 5696SOL    HW118508   3.551   1.884   6.657  0.2137  0.3443 -0.5051
 5696SOL    HW218509   3.483   2.011   6.702  0.5488  0.1719  0.5278
 5697SOL     OW18510   2.825   0.703   4.633  1.0754 -0.1228 -0.4368
 5697SOL    HW118511   2.825   0.607   4.642  0.0504  0.0212  1.9596
 5697SOL    HW218512   2.733   0.726   4.626  1.3829  0.5799 -4.3209
 5698SOL     OW18513   2.930   3.359   5.674  0.1285  0.3315  0.1854
 5698SOL    HW118514   2.932   3.330   5.583 -1.0842 -2.5235  0.9430
 5698SOL    HW218515   2.918   3.278   5.725  0.2420  1.8617  2.8580
 5699SOL     OW18516   1.285   6.778   3.482  0.0218 -0.7295  0.2124
 5699SOL    HW118517   1.297   6.843   3.552 -0.7469  0.0623 -0.3789
 5699SOL    HW218518   1.265   6.697   3.529 -3.1823  0.3367  0.9399
 5700SOL     OW18519   6.283   7.391   3.535 -0.6921 -0.2612  0.2823
 5700SOL    HW118520   6.308   7.324   3.598 -1.6849 -0.0680  0.8880
 5700SOL    HW218521   6.218   7.445   3.580 -0.4925  0.6384 -0.4669
 5701SOL     OW18522   3.744   5.120   0.518  0.2723  0.3438  0.6616
 5701SOL    HW118523   3.655   5.088   0.538  0.7905 -1.4839  0.2314
 5701SOL    HW218524   3.777   5.152   0.602 -0.9107  1.4611  0.7497
 5702SOL     OW18525   7.290   2.802   2.584 -0.2819 -0.1868 -0.2912
 5702SOL    HW118526   7.236   2.880   2.600  1.3641  0.6417  1.7741
 5702SOL    HW218527   7.238   2.730   2.619  0.0238  0.6615  2.1386
 5703SOL     OW18528   2.479   4.682   5.792  0.1626  0.0281 -0.7945
 5703SOL    HW118529   2.481   4.705   5.885 -0.6303 -2.0622 -0.1920
 5703SOL    HW218530   2.391   4.706   5.764 -0.7518 -2.2347 -0.1028
 5704SOL     OW18531   2.710   0.393   2.119 -0.5175  0.1398  0.1532
 5704SOL    HW118532   2.708   0.483   2.151  0.0999  0.2695 -0.1645
 5704SOL    HW218533   2.657   0.395   2.039 -1.7255 -0.1006  0.9132
 5705SOL     OW18534   0.968   2.599   7.655 -0.5287 -0.3566  0.7219
 5705SOL    HW118535   1.051   2.647   7.655  0.4642 -1.9339 -0.7795
 5705SOL    HW218536   0.910   2.650   7.599  0.3615 -0.6257 -0.4802
 5706SOL     OW18537   1.309   6.319   5.671 -0.3380  0.9912 -0.3263
 5706SOL    HW118538   1.301   6.405   5.712  0.2692  0.5813  0.6712
 5706SOL    HW218539   1.220   6.282   5.677 -1.0120  2.1521 -2.2125
 5707SOL     OW18540   2.846   1.663   7.516 -0.2413  0.3185  0.3488
 5707SOL    HW118541   2.865   1.584   7.466  0.9638 -0.0545  1.3321
 5707SOL    HW218542   2.863   1.735   7.456  1.0349 -0.1250  0.1497
 5708SOL     OW18543   3.786   7.974   0.322  0.9201 -0.1167 -0.1764
 5708SOL    HW118544   3.819   7.969   0.411  0.7007 -0.8265 -0.1305
 5708SOL    HW218545   3.865   7.976   0.267  1.0469 -0.1320  0.0078
 5709SOL     OW18546   3.310   5.395   3.621 -0.0966 -0.0234  0.5862
 5709SOL    HW118547   3.234   5.377   3.566  0.3289 -0.0058 -0.0191
 5709SOL    HW218548   3.276   5.394   3.711 -0.7123 -0.5106  0.3534
 5710SOL     OW18549   6.213   2.304   5.526  0.3104  0.0495  0.0613
 5710SOL    HW118550   6.290   2.318   5.581 -0.6875  1.6404  1.1371
 5710SOL    HW218551   6.230   2.355   5.447 -0.1618  1.4726  0.8506
 5711SOL     OW18552   0.220   7.103   0.303  0.1504  0.2629  0.9118
 5711SOL    HW118553   0.240   7.011   0.285 -0.1046  0.6656 -1.8494
 5711SOL    HW218554   0.286   7.129   0.366  2.3801 -0.9894 -0.7263
 5712SOL     OW18555   5.010   1.969   2.092  0.2099  0.6530 -0.1087
 5712SOL    HW118556   4.979   1.906   2.027  0.7341 -0.2915  0.5454
 5712SOL    HW218557   5.044   2.042   2.039  0.1894  0.1120 -0.8845
 5713SOL     OW18558   2.794   2.408   6.685  0.4380 -0.2292  0.3927
 5713SOL    HW118559   2.805   2.473   6.616  1.2146 -0.0384  0.6806
 5713SOL    HW218560   2.780   2.459   6.765  0.1352 -0.4342  0.4725
 5714SOL     OW18561   3.064   6.249   4.668 -0.2935  0.1525  0.1112
 5714SOL    HW118562   3.102   6.167   4.701 -0.3097  0.0542 -0.1167
 5714SOL    HW218563   2.974   6.227   4.647 -1.1608  0.8759  2.6425
 5715SOL     OW18564   1.417   8.203   7.363 -0.3005  0.0519 -0.0045
 5715SOL    HW118565   1.356   8.223   7.292  1.3235  0.6633 -1.2984
 5715SOL    HW218566   1.490   8.264   7.350 -0.0229  0.3328  2.3299
 5716SOL     OW18567   0.825   1.825   1.762 -0.4605  0.2761  0.1575
 5716SOL    HW118568   0.919   1.825   1.780 -0.3769 -0.8977 -0.2183
 5716SOL    HW218569   0.818   1.819   1.667 -0.8834 -1.8375  0.2665
 5717SOL     OW18570   5.363   7.082   0.337  0.3001  0.6142 -0.0757
 5717SOL    HW118571   5.408   6.998   0.335 -1.7864 -0.5448 -0.6437
 5717SOL    HW218572   5.316   7.082   0.421  0.2153  1.1778 -0.1184
 5718SOL     OW18573   5.029   3.206   7.562  0.1783 -0.5965 -0.0350
 5718SOL    HW118574   5.050   3.299   7.548  1.3772 -1.0464 -1.4423
 5718SOL    HW218575   4.937   3.206   7.587 -0.1460  0.8930 -1.1033
 5719SOL     OW18576   3.521   2.511   7.534 -0.2264 -0.2162  0.1705
 5719SOL    HW118577   3.430   2.486   7.550 -0.1379 -1.0622 -0.5526
 5719SOL    HW218578   3.520   2.606   7.533 -1.1804 -0.2202 -0.2219
 5720SOL     OW18579   5.325   3.944   1.336  0.7494  0.1708 -0.2105
 5720SOL    HW118580   5.412   3.960   1.372  1.5486 -0.2104 -1.8468
 5720SOL    HW218581   5.336   3.958   1.241 -1.0790  0.5460 -0.3979
 5721SOL     OW18582   8.274   7.357   4.528 -0.0020 -0.3530 -0.1875
 5721SOL    HW118583   8.195   7.309   4.552 -0.1263  1.1091  2.8840
 5721SOL    HW218584   8.341   7.289   4.520 -1.1085 -1.4299 -0.7372
 5722SOL     OW18585   6.244   1.073   5.640 -0.0694 -0.5373 -0.3037
 5722SOL    HW118586   6.248   1.086   5.735 -0.2374  1.1556 -0.4947
 5722SOL    HW218587   6.334   1.050   5.615  0.2053  0.0078  0.1538
 5723SOL     OW18588   0.135   2.916   5.337  0.1425  0.0187  0.0966
 5723SOL    HW118589   0.201   2.863   5.381 -0.0703  1.9365  2.9683
 5723SOL    HW218590   0.072   2.852   5.301  2.2851 -1.7434 -0.7459
 5724SOL     OW18591   6.913   4.237   1.899  0.3102  0.0480  0.1515
 5724SOL    HW118592   6.877   4.148   1.891  0.8148 -0.1176 -0.3768
 5724SOL    HW218593   6.881   4.282   1.821  0.0277  0.3407  0.4379
 5725SOL     OW18594   7.505   5.433   0.811  0.2980  0.7841  0.1281
 5725SOL    HW118595   7.483   5.511   0.861  0.1049  0.1132  1.1121
 5725SOL    HW218596   7.487   5.360   0.870  2.2561  0.0636 -0.0804
 5726SOL     OW18597   6.701   6.783   3.704 -0.3167 -0.0637 -0.4802
 5726SOL    HW118598   6.795   6.770   3.715 -0.6215 -1.3499  1.0054
 5726SOL    HW218599   6.663   6.695   3.711 -1.7374  0.5644  0.3866
 5727SOL     OW18600   5.815   0.458   7.162 -0.1962 -0.2227  0.3139
 5727SOL    HW118601   5.751   0.439   7.230 -1.6242  2.2564 -0.2357
 5727SOL    HW218602   5.763   0.471   7.083  1.2667 -0.9849 -0.8190
 5728SOL     OW18603   1.411   3.688   5.836 -0.0550 -0.1758 -0.3716
 5728SOL    HW118604   1.387   3.664   5.747  1.2177  1.6205 -1.2450
 5728SOL    HW218605   1.439   3.606   5.876  0.8419 -0.7700 -2.1206
 5729SOL     OW18606   1.758   2.913   0.216 -0.1062 -0.1688  0.2248
 5729SOL    HW118607   1.840   2.941   0.175  0.1318 -1.5403 -0.2876
 5729SOL    HW218608   1.690   2.939   0.154 -0.0674  0.8370  0.5821
 5730SOL     OW18609   8.221   3.449   4.466  0.1891  0.7318  0.5698
 5730SOL    HW118610   8.162   3.487   4.401  0.4149 -1.1135 -0.8105
 5730SOL    HW218611   8.165   3.392   4.518  0.4749  0.1088  0.2064
 5731SOL     OW18612   6.694   5.838   5.191 -0.1543 -0.0342 -0.3231
 5731SOL    HW118613   6.711   5.927   5.221 -1.0864 -0.2537  0.9619
 5731SOL    HW218614   6.667   5.848   5.100 -0.5648  1.0469 -0.0969
 5732SOL     OW18615   3.556   5.100   1.716  0.2049  0.2964 -0.4651
 5732SOL    HW118616   3.522   5.184   1.685  0.8144  0.4706 -0.6778
 5732SOL    HW218617   3.558   5.045   1.638 -1.7771 -0.4827 -0.0321
 5733SOL     OW18618   5.435   3.183   5.474 -0.2335 -0.2853 -0.3383
 5733SOL    HW118619   5.433   3.158   5.382  0.7941  0.3548 -0.5441
 5733SOL    HW218620   5.374   3.123   5.516 -1.8499  0.3458 -1.6629
 5734SOL     OW18621   7.145   2.900   7.548  0.4316  0.1707  0.1754
 5734SOL    HW118622   7.102   2.852   7.478 -2.1600  0.2793  1.5956
 5734SOL    HW218623   7.230   2.925   7.510 -0.8767  0.3622 -2.9670
 5735SOL     OW18624   0.908   5.223   7.854  0.0599  0.2148 -0.1958
 5735SOL    HW118625   0.972   5.164   7.815  1.2088  1.6173 -0.5248
 5735SOL    HW218626   0.834   5.167   7.875  1.0732 -1.3309 -0.5282
 5736SOL     OW18627   3.653   1.434   6.045  0.1716 -0.4711  0.4550
 5736SOL    HW118628   3.599   1.464   5.972  0.7513 -1.1648 -0.2722
 5736SOL    HW218629   3.657   1.510   6.104 -1.9602 -0.5564  0.7707
 5737SOL     OW18630   7.813   1.109   1.041  0.1120 -0.2327 -0.1279
 5737SOL    HW118631   7.880   1.170   1.008  0.0212 -0.1957 -0.2437
 5737SOL    HW218632   7.771   1.157   1.112  1.1405 -0.7745  0.8787
 5738SOL     OW18633   0.894   6.438   1.653  0.4718  0.2630  0.5170
 5738SOL    HW118634   0.982   6.476   1.648  0.4929  0.0613 -3.0883
 5738SOL    HW218635   0.836   6.511   1.631 -0.1887  0.0082  1.3470
 5739SOL     OW18636   8.338   2.496   7.470 -0.1106 -0.0166  0.1690
 5739SOL    HW118637   8.421   2.541   7.488 -0.6176  0.6434  0.9050
 5739SOL    HW218638   8.353   2.452   7.387  1.0249 -0.0050  0.3450
 5740SOL     OW18639   1.584   4.828   7.504  0.3816 -0.3186  0.5091
 5740SOL    HW118640   1.509   4.821   7.445 -1.4845  1.9584  2.4300
 5740SOL    HW218641   1.546   4.840   7.590  2.9902  0.4504  1.6493
 5741SOL     OW18642   6.518   3.337   5.738  0.3065 -0.0273  0.0670
 5741SOL    HW118643   6.446   3.292   5.781  0.0536  1.8316  1.7438
 5741SOL    HW218644   6.572   3.372   5.810  0.8543  1.7031 -1.0960
 5742SOL     OW18645   4.600   8.069   5.125 -0.3321 -0.3509  0.5051
 5742SOL    HW118646   4.609   8.162   5.109  0.3828 -0.3889  0.6711
 5742SOL    HW218647   4.561   8.034   5.044  1.2085 -0.2040 -0.3304
 5743SOL     OW18648   5.500   3.280   1.084 -0.3012  0.2419  0.0759
 5743SOL    HW118649   5.428   3.291   1.022 -1.0591  2.3524  1.2061
 5743SOL    HW218650   5.567   3.231   1.036 -1.3043  0.8143 -2.0092
 5744SOL     OW18651   5.127   7.566   6.805  0.4066 -0.3046  0.1555
 5744SOL    HW118652   5.156   7.475   6.794  1.1783 -0.1056  0.5387
 5744SOL    HW218653   5.032   7.558   6.818 -0.2111 -0.7984 -3.4118
 5745SOL     OW18654   4.254   5.264   8.182  0.0851 -0.2137  0.0499
 5745SOL    HW118655   4.307   5.240   8.106  0.1724 -0.0665  0.0635
 5745SOL    HW218656   4.317   5.287   8.249  0.0105 -0.4700  0.2123
 5746SOL     OW18657   4.484   3.439   8.291 -0.1490 -0.8471  0.0621
 5746SOL    HW118658   4.525   3.372   8.237  2.0832  0.6756 -0.3080
 5746SOL    HW218659   4.500   3.521   8.243  0.6095  0.3856  2.2815
 5747SOL     OW18660   2.120   6.612   0.522 -0.6723  0.5061 -0.1778
 5747SOL    HW118661   2.045   6.665   0.494 -0.2594 -0.0650 -2.5598
 5747SOL    HW218662   2.169   6.595   0.442  0.7190 -1.1620  0.9471
 5748SOL     OW18663   6.499   3.896   4.034  0.3190  0.4976  0.2825
 5748SOL    HW118664   6.573   3.933   4.084  0.2061  1.4229 -0.2118
 5748SOL    HW218665   6.540   3.859   3.956  0.3305  0.4048  0.3325
 5749SOL     OW18666   6.511   4.964   3.030 -0.1124  0.3631  0.6341
 5749SOL    HW118667   6.607   4.967   3.037 -0.0026  1.0724 -0.7469
 5749SOL    HW218668   6.491   5.019   2.954 -1.6737  0.7398  1.2754
 5750SOL     OW18669   1.208   6.809   2.858 -0.2289  0.2379  0.2275
 5750SOL    HW118670   1.173   6.897   2.871  0.8724  0.9951 -1.4730
 5750SOL    HW218671   1.281   6.821   2.797  0.9792 -1.6541  1.1666
 5751SOL     OW18672   1.091   0.533   1.290  0.1866 -0.0104 -0.1041
 5751SOL    HW118673   1.155   0.491   1.233  0.4626  0.9603 -0.5329
 5751SOL    HW218674   1.047   0.597   1.235  1.4825  2.0115  1.0524
 5752SOL     OW18675   7.055   3.750   0.036  0.2134 -0.4628  0.0948
 5752SOL    HW118676   6.982   3.808   0.015 -1.4723 -1.5518  2.5378
 5752SOL    HW218677   7.126   3.809   0.062 -0.5772  0.5554  0.0115
 5753SOL     OW18678   2.789   0.476   4.027  0.1412  0.2470  0.6915
 5753SOL    HW118679   2.793   0.381   4.031  0.5079  0.2789  3.5800
 5753SOL    HW218680   2.844   0.500   3.952  1.5922 -1.7571  1.0375
 5754SOL     OW18681   2.657   8.047   0.455 -0.2542 -0.8342 -0.2490
 5754SOL    HW118682   2.741   8.003   0.470  1.4522  1.3538 -2.5649
 5754SOL    HW218683   2.631   8.080   0.541  1.1880 -1.6536  0.5305
 5755SOL     OW18684   7.034   5.548   1.988 -0.2447  0.1693 -0.0964
 5755SOL    HW118685   7.103   5.481   1.981 -1.5889 -1.6266  2.3875
 5755SOL    HW218686   6.952   5.499   1.978 -1.2551  1.6723  0.5317
 5756SOL     OW18687   2.861   7.275   6.625 -0.7409 -0.2069 -0.3589
 5756SOL    HW118688   2.899   7.193   6.595 -1.0695 -0.7100  0.5502
 5756SOL    HW218689   2.777   7.249   6.664 -0.8979  0.5743 -0.1677
 5757SOL     OW18690   0.727   8.234   2.411  0.1105  0.4000  0.0255
 5757SOL    HW118691   0.769   8.317   2.387 -0.6439  0.7346 -0.1602
 5757SOL    HW218692   0.716   8.240   2.506 -0.6302  0.8479 -0.0806
 5758SOL     OW18693   2.377   6.538   1.661  0.2423  0.3483  0.4301
 5758SOL    HW118694   2.468   6.563   1.644  0.7301 -2.2862 -1.4942
 5758SOL    HW218695   2.383   6.474   1.732 -0.0846  0.0695  0.2054
 5759SOL     OW18696   5.299   1.924   3.938 -0.2189 -0.7542  0.0893
 5759SOL    HW118697   5.317   1.831   3.927 -2.6692 -1.1165 -1.9471
 5759SOL    HW218698   5.209   1.927   3.970  0.5659  0.9413  2.4318
 5760SOL     OW18699   6.105   1.735   1.320 -0.1776  0.9476  0.0336
 5760SOL    HW118700   6.084   1.805   1.382 -0.8496  0.9054 -0.1379
 5760SOL    HW218701   6.021   1.694   1.302 -0.5700  2.9004 -3.3144
 5761SOL     OW18702   1.377   7.936   8.240  0.2038 -0.1325  0.0006
 5761SOL    HW118703   1.330   7.861   8.276 -0.5273  0.8450  1.1425
 5761SOL    HW218704   1.308   7.998   8.217  0.8478  0.6230  0.0690
 5762SOL     OW18705   6.865   3.090   0.323  0.3199 -0.0905 -0.5650
 5762SOL    HW118706   6.769   3.086   0.331  0.1797 -0.9134 -2.2173
 5762SOL    HW218707   6.881   3.089   0.229  2.0166 -1.7870 -0.3241
 5763SOL     OW18708   6.974   4.860   6.412 -0.0608 -0.0630 -0.1171
 5763SOL    HW118709   6.957   4.856   6.506 -1.1274  1.0056 -0.2402
 5763SOL    HW218710   6.950   4.773   6.379  0.1011 -0.3673  0.5440
 5764SOL     OW18711   4.945   2.427   1.498  0.0539  0.8199  0.1996
 5764SOL    HW118712   4.959   2.458   1.408  0.4392  1.7872  0.5841
 5764SOL    HW218713   4.870   2.369   1.491  1.2735 -0.7256 -1.1025
 5765SOL     OW18714   1.038   5.173   1.944 -0.0512  0.0996 -0.2802
 5765SOL    HW118715   1.011   5.116   2.016 -2.0680  1.2712 -0.0135
 5765SOL    HW218716   1.055   5.114   1.871 -1.9698 -0.8813  0.0126
 5766SOL     OW18717   6.292   6.310   0.246  0.4251  0.3457  0.2075
 5766SOL    HW118718   6.301   6.364   0.325 -1.2910  3.0522 -1.3140
 5766SOL    HW218719   6.312   6.369   0.174 -1.7134 -0.9638 -1.5769
 5767SOL     OW18720   0.949   6.715   7.471  0.1564  0.4120  0.2923
 5767SOL    HW118721   0.927   6.730   7.379 -2.0340  0.7550  0.8112
 5767SOL    HW218722   0.870   6.678   7.509 -0.3268  3.5588  2.8080
 5768SOL     OW18723   3.312   2.338   2.609 -0.7666  0.2499  0.6014
 5768SOL    HW118724   3.403   2.367   2.610  0.4072 -2.9846  1.0150
 5768SOL    HW218725   3.275   2.378   2.531  0.9850  1.6511  0.4090
 5769SOL     OW18726   0.508   3.332   7.479  0.3495 -0.7055 -0.1104
 5769SOL    HW118727   0.420   3.370   7.478  0.5085 -0.3241 -0.9777
 5769SOL    HW218728   0.564   3.400   7.441  0.7098 -1.6300 -1.3261
 5770SOL     OW18729   1.981   6.033   1.245 -0.4146  0.1261  0.6383
 5770SOL    HW118730   2.023   5.984   1.316 -2.6385  1.1239  2.7720
 5770SOL    HW218731   2.053   6.079   1.203  1.1158 -1.2305  1.6078
 5771SOL     OW18732   3.498   0.307   6.793  0.1296  0.4388 -0.4674
 5771SOL    HW118733   3.525   0.375   6.854 -0.2632  0.8005 -0.6966
 5771SOL    HW218734   3.421   0.267   6.834  0.7744 -0.3623  0.0185
 5772SOL     OW18735   2.440   8.071   1.879 -0.2851  0.6494  0.1138
 5772SOL    HW118736   2.454   8.023   1.960  0.3027 -0.2489 -0.5009
 5772SOL    HW218737   2.431   8.003   1.812 -0.3944  1.3792 -0.6296
 5773SOL     OW18738   0.646   1.002   4.290  0.0375 -0.4890 -0.0777
 5773SOL    HW118739   0.631   0.928   4.231  0.5654 -1.1567  0.6024
 5773SOL    HW218740   0.628   0.967   4.377 -2.1640  0.8672  0.1009
 5774SOL     OW18741   0.230   6.100   1.480 -0.0143  0.2715  0.0975
 5774SOL    HW118742   0.207   6.051   1.401  0.6279 -0.1333  0.1581
 5774SOL    HW218743   0.164   6.074   1.544  1.2972 -1.9117  0.6775
 5775SOL     OW18744   3.706   2.683   5.522 -0.2206 -0.0359 -0.1655
 5775SOL    HW118745   3.739   2.659   5.609 -1.3158  0.1332  0.3095
 5775SOL    HW218746   3.655   2.607   5.494 -0.7532  0.3218 -0.1876
 5776SOL     OW18747   1.016   0.330   5.923  0.0174  0.2458 -0.7867
 5776SOL    HW118748   1.061   0.254   5.887 -0.5353 -0.9682  0.9245
 5776SOL    HW218749   1.014   0.314   6.018  0.3547  2.6620 -0.2869
 5777SOL     OW18750   4.092   4.903   3.658  0.6364  0.8801 -0.3353
 5777SOL    HW118751   4.068   4.996   3.661 -0.5900  0.5559  1.7690
 5777SOL    HW218752   4.015   4.860   3.620  0.6285  0.5857  0.0117
 5778SOL     OW18753   7.094   1.054   3.993  0.3364  0.1711 -0.5864
 5778SOL    HW118754   7.111   1.108   4.070 -1.8049 -0.4398  0.3617
 5778SOL    HW218755   7.076   0.967   4.027  3.6417 -1.2853 -2.0870
 5779SOL     OW18756   1.755   2.097   6.235  0.4069 -0.4277 -0.5394
 5779SOL    HW118757   1.828   2.094   6.298 -0.4845  0.8930  0.6123
 5779SOL    HW218758   1.796   2.117   6.151  1.4090 -0.0087  0.0348
 5780SOL     OW18759   6.354   5.752   2.369  0.2880  0.5664 -0.1027
 5780SOL    HW118760   6.267   5.772   2.401 -0.3130 -1.6974 -0.1741
 5780SOL    HW218761   6.369   5.816   2.299 -2.1786 -0.2763 -1.5092
 5781SOL     OW18762   2.745   6.213   7.090  0.5279 -0.2077  0.5283
 5781SOL    HW118763   2.690   6.201   7.012  0.2624  0.6565  0.5682
 5781SOL    HW218764   2.810   6.278   7.063  0.5443 -0.0417  0.9755
 5782SOL     OW18765   0.357   5.384   2.568  0.2472  0.0022  0.3870
 5782SOL    HW118766   0.312   5.394   2.485  0.6886 -1.3639 -0.0326
 5782SOL    HW218767   0.374   5.474   2.597  1.7780  0.5284 -1.9298
 5783SOL     OW18768   7.434   2.457   1.723  0.0105 -0.2598 -0.2272
 5783SOL    HW118769   7.442   2.384   1.786  0.9419 -0.1072 -0.1558
 5783SOL    HW218770   7.343   2.484   1.730 -0.3060 -1.2932 -0.1063
 5784SOL     OW18771   1.619   0.368   1.488  0.5073 -0.4437 -0.5384
 5784SOL    HW118772   1.606   0.328   1.402  0.5064 -0.0313 -0.7288
 5784SOL    HW218773   1.574   0.308   1.549  2.1451 -1.7777 -0.5736
 5785SOL     OW18774   6.264   5.583   5.622 -0.7468 -1.1984 -0.0385
 5785SOL    HW118775   6.230   5.498   5.651 -1.6386 -0.7365  0.3164
 5785SOL    HW218776   6.358   5.568   5.609 -0.8467 -2.1717  0.2590
 5786SOL     OW18777   5.247   8.098   0.530  0.3255  0.1196  0.4103
 5786SOL    HW118778   5.180   8.088   0.463 -0.0057 -1.1985  0.9100
 5786SOL    HW218779   5.329   8.072   0.487  0.2554  0.1361  0.2685
 5787SOL     OW18780   1.184   7.721   1.355  0.3166 -0.0674 -0.3028
 5787SOL    HW118781   1.218   7.807   1.379  0.1903 -0.3508  0.9696
 5787SOL    HW218782   1.261   7.663   1.359  0.2042 -0.2050 -0.1381
 5788SOL     OW18783   7.897   0.468   6.778 -0.4398 -0.3109  0.1261
 5788SOL    HW118784   7.937   0.495   6.861  0.7948 -0.1038 -0.4994
 5788SOL    HW218785   7.877   0.550   6.733  0.2218 -0.4030 -0.3634
 5789SOL     OW18786   6.771   0.859   1.324 -0.1141 -0.5653  0.0242
 5789SOL    HW118787   6.835   0.899   1.383 -1.1819  1.8202 -0.3191
 5789SOL    HW218788   6.814   0.861   1.238  0.4463 -1.6580  0.2694
 5790SOL     OW18789   7.230   4.492   4.350 -0.2676  0.0012 -0.1299
 5790SOL    HW118790   7.153   4.502   4.407 -1.1308  0.4471 -1.3347
 5790SOL    HW218791   7.199   4.438   4.278  0.1263  1.3894 -1.3784
 5791SOL     OW18792   8.036   0.768   1.973 -0.4334  0.2587  0.1360
 5791SOL    HW118793   8.066   0.772   1.883  1.9749  0.0779  0.8680
 5791SOL    HW218794   7.940   0.765   1.966 -0.4583  2.7185 -2.2896
 5792SOL     OW18795   0.530   5.848   0.250 -0.5708  0.9807  0.1470
 5792SOL    HW118796   0.574   5.930   0.270  0.4735 -0.0183  2.2188
 5792SOL    HW218797   0.597   5.781   0.261 -1.5137 -0.2297 -1.0586
 5793SOL     OW18798   4.763   4.423   7.100 -0.5737 -0.0262 -0.4760
 5793SOL    HW118799   4.731   4.493   7.042  2.5400 -0.5513 -3.1011
 5793SOL    HW218800   4.721   4.344   7.067 -1.1405  0.0607  0.0151
 5794SOL     OW18801   7.903   2.485   1.875  0.0693  0.2865 -0.3613
 5794SOL    HW118802   7.831   2.543   1.853  0.4449  0.1518 -2.0630
 5794SOL    HW218803   7.974   2.544   1.903 -0.0066  0.5576 -0.7362
 5795SOL     OW18804   7.412   1.819   7.314  0.3532  0.3734 -0.1987
 5795SOL    HW118805   7.417   1.894   7.255  0.1853  1.1180  0.7100
 5795SOL    HW218806   7.373   1.749   7.261 -0.6331  1.2902 -0.7119
 5796SOL     OW18807   3.939   3.716   4.519 -0.0588 -0.4550 -0.4262
 5796SOL    HW118808   3.881   3.697   4.445  1.8441 -1.1089 -1.8268
 5796SOL    HW218809   3.954   3.631   4.560 -0.8272 -0.1436  0.5350
 5797SOL     OW18810   7.357   3.172   2.368  0.4282  0.5017  0.1596
 5797SOL    HW118811   7.277   3.171   2.316  1.5456 -0.5326 -1.6425
 5797SOL    HW218812   7.417   3.230   2.320  1.7441 -1.0672 -0.1860
 5798SOL     OW18813   3.793   2.960   8.199  0.0556  0.4486  0.3161
 5798SOL    HW118814   3.842   2.936   8.277  0.0536 -1.7199 -0.2991
 5798SOL    HW218815   3.706   2.921   8.212  0.4501 -1.0715 -1.2994
 5799SOL     OW18816   1.140   1.596   7.364 -0.1523 -0.2903 -0.2773
 5799SOL    HW118817   1.091   1.637   7.435  0.3612  0.8145 -0.5429
 5799SOL    HW218818   1.078   1.596   7.290 -0.4000 -0.6728 -0.0733
 5800SOL     OW18819   5.289   6.209   0.247  0.1310  0.1945  0.0933
 5800SOL    HW118820   5.267   6.119   0.274  0.2754 -0.5309 -1.9924
 5800SOL    HW218821   5.380   6.203   0.217  0.3262  1.1831  0.4763
 5801SOL     OW18822   6.255   4.230   6.404  0.0456  0.2834  0.7560
 5801SOL    HW118823   6.287   4.290   6.471 -1.8321  2.0604  0.1683
 5801SOL    HW218824   6.215   4.158   6.453  2.7975 -0.8952  1.4705
 5802SOL     OW18825   0.369   7.427   2.833  0.1459 -0.4356 -0.3843
 5802SOL    HW118826   0.465   7.433   2.842 -0.0247  2.5148  0.7862
 5802SOL    HW218827   0.336   7.454   2.918 -1.7734 -1.3004 -0.8079
 5803SOL     OW18828   1.768   1.989   5.720  0.4830 -0.2412  0.7340
 5803SOL    HW118829   1.690   1.958   5.675  0.9055 -0.9522  0.4607
 5803SOL    HW218830   1.775   1.933   5.798  1.2469 -0.8386  0.2475
 5804SOL     OW18831   8.098   3.605   6.860  0.8243  0.1632  0.2040
 5804SOL    HW118832   8.142   3.590   6.776  1.7730 -0.4006  0.7779
 5804SOL    HW218833   8.154   3.669   6.905  0.0880  0.7988  0.2410
 5805SOL     OW18834   6.339   2.638   3.892  0.4781  0.4203 -0.8710
 5805SOL    HW118835   6.297   2.644   3.806 -1.1066  1.4138 -0.0792
 5805SOL    HW218836   6.268   2.611   3.951  0.9120  2.1839  0.5361
 5806SOL     OW18837   0.374   7.817   4.665 -0.3278  0.3799 -0.1946
 5806SOL    HW118838   0.366   7.826   4.760 -0.2617 -0.0948 -0.1404
 5806SOL    HW218839   0.340   7.729   4.647 -2.3835  1.2371 -0.8610
 5807SOL     OW18840   5.239   0.724   7.346  0.3983 -0.5811 -0.0714
 5807SOL    HW118841   5.288   0.804   7.328 -0.3012 -0.4022 -1.2710
 5807SOL    HW218842   5.306   0.660   7.372  0.9748  0.3294  0.7362
 5808SOL     OW18843   7.856   0.267   0.613 -0.5420 -0.0870 -0.0231
 5808SOL    HW118844   7.925   0.258   0.547  0.5991  1.4626  0.9111
 5808SOL    HW218845   7.808   0.345   0.588 -0.9445 -0.2411  0.2529
 5809SOL     OW18846   6.981   3.923   1.354 -0.1819 -0.4953 -0.0715
 5809SOL    HW118847   6.965   3.996   1.295 -0.4554 -0.6013 -0.1273
 5809SOL    HW218848   6.898   3.908   1.398  0.3341  0.3712  1.2313
 5810SOL     OW18849   7.805   7.493   4.290 -0.3151  0.0242 -0.3140
 5810SOL    HW118850   7.713   7.467   4.287 -0.8276  1.7356 -1.6262
 5810SOL    HW218851   7.806   7.570   4.347  0.8681 -1.6943  2.1589
 5811SOL     OW18852   0.513   5.852   6.298 -0.0889 -0.4345  0.3044
 5811SOL    HW118853   0.536   5.769   6.258  1.6022  0.6382 -1.0903
 5811SOL    HW218854   0.566   5.856   6.378  0.6563 -0.2524 -0.1885
 5812SOL     OW18855   1.883   0.807   7.355 -0.1379  0.1202 -0.4369
 5812SOL    HW118856   1.801   0.812   7.405 -0.5252 -0.2739 -1.0251
 5812SOL    HW218857   1.937   0.877   7.392 -0.3419 -0.2884  0.6721
 5813SOL     OW18858   6.604   3.202   6.746 -0.4570 -0.1353 -0.2520
 5813SOL    HW118859   6.567   3.117   6.721 -1.8149  0.4696 -0.3655
 5813SOL    HW218860   6.646   3.185   6.830  0.4095 -1.2030 -0.8639
 5814SOL     OW18861   0.413   8.218   2.700  0.0205  0.4338 -0.0602
 5814SOL    HW118862   0.409   8.163   2.778  1.8932 -0.9882 -0.8731
 5814SOL    HW218863   0.450   8.301   2.731  2.0243 -0.5740  0.4106
 5815SOL     OW18864   7.414   0.720   3.525  0.3221 -0.0784  0.9302
 5815SOL    HW118865   7.428   0.766   3.608  1.7115 -1.4589  1.5075
 5815SOL    HW218866   7.480   0.651   3.525 -0.9246 -1.3189 -0.4498
 5816SOL     OW18867   5.639   2.604   5.250  0.6671  0.4089  0.2025
 5816SOL    HW118868   5.568   2.659   5.282  0.0808  0.0535 -0.4651
 5816SOL    HW218869   5.702   2.666   5.213 -0.3766  0.6177 -1.3087
 5817SOL     OW18870   7.646   0.616   0.146  0.1519  0.6120  0.0201
 5817SOL    HW118871   7.704   0.644   0.217  1.6379 -1.7606 -0.1556
 5817SOL    HW218872   7.592   0.548   0.184  0.5135 -0.2368 -0.9330
 5818SOL     OW18873   1.115   6.863   8.287  0.2471  0.5308  0.3647
 5818SOL    HW118874   1.101   6.954   8.261  2.7439  1.2061  1.1972
 5818SOL    HW218875   1.206   6.845   8.264 -0.3179 -1.9303 -0.1810
 5819SOL     OW18876   2.664   4.672   7.957 -0.0887 -0.7502 -0.1453
 5819SOL    HW118877   2.621   4.587   7.950  1.3278 -1.4296 -1.0177
 5819SOL    HW218878   2.622   4.726   7.890 -0.9764 -0.7616  0.3953
 5820SOL     OW18879   5.016   2.366   0.487  0.8159  0.4618 -0.8851
 5820SOL    HW118880   5.019   2.420   0.565  1.3194 -0.7693 -0.0229
 5820SOL    HW218881   5.079   2.296   0.503  0.3557 -0.2628 -2.0563
 5821SOL     OW18882   6.220   1.759   2.737 -0.3239  0.8464  0.1196
 5821SOL    HW118883   6.309   1.773   2.704 -0.5520  0.4856 -0.6677
 5821SOL    HW218884   6.169   1.733   2.660 -0.6924 -0.8658  0.8891
 5822SOL     OW18885   5.611   5.424   3.925 -0.4118  0.2447 -0.0967
 5822SOL    HW118886   5.688   5.442   3.978 -0.3685  0.1363 -0.1221
 5822SOL    HW218887   5.538   5.429   3.986 -0.6004  2.2317 -0.4132
 5823SOL     OW18888   3.587   7.215   0.579  0.1307 -0.3337  0.3635
 5823SOL    HW118889   3.523   7.150   0.550 -2.2834  1.8164  0.5464
 5823SOL    HW218890   3.597   7.275   0.505  3.8188 -1.7823 -0.5425
 5824SOL     OW18891   2.318   2.902   6.184 -0.4695  0.4078 -0.1363
 5824SOL    HW118892   2.343   2.841   6.114 -0.4521  0.1836  0.0633
 5824SOL    HW218893   2.229   2.930   6.162 -0.6328 -0.0092 -0.0090
 5825SOL     OW18894   8.281   5.295   6.333 -0.6611  0.2144 -0.1535
 5825SOL    HW118895   8.340   5.261   6.401 -0.8655 -0.7713 -0.4437
 5825SOL    HW218896   8.220   5.223   6.318 -1.5207  0.9733 -0.3385
 5826SOL     OW18897   1.670   2.498   6.846  0.5140 -0.1586  0.1236
 5826SOL    HW118898   1.752   2.536   6.878  1.5034 -1.7541 -0.3984
 5826SOL    HW218899   1.622   2.477   6.926  0.7073  0.5854  0.4443
 5827SOL     OW18900   1.715   5.099   1.117 -0.5176  0.3277  0.2656
 5827SOL    HW118901   1.742   5.007   1.118  1.5953  0.7686 -2.6895
 5827SOL    HW218902   1.745   5.133   1.202  2.0891 -0.9158 -0.0542
 5828SOL     OW18903   6.142   1.725   4.110 -0.6405 -0.4620  0.1551
 5828SOL    HW118904   6.122   1.661   4.042 -2.6669 -0.0273  0.2865
 5828SOL    HW218905   6.086   1.800   4.090 -0.0688  0.3179  1.3638
 5829SOL     OW18906   5.030   4.684   5.385  0.5388 -0.0649  0.7356
 5829SOL    HW118907   5.051   4.772   5.353 -0.4400  0.4206  1.3595
 5829SOL    HW218908   5.109   4.633   5.369  1.4950  1.1775  1.2788
 5830SOL     OW18909   5.670   3.772   2.555 -0.1003 -0.4524  0.1208
 5830SOL    HW118910   5.666   3.677   2.544  1.0709 -0.4775 -0.2126
 5830SOL    HW218911   5.728   3.785   2.629 -0.4545  0.0090  0.3233
 5831SOL     OW18912   7.378   6.998   5.628  0.0101  0.3366 -0.1892
 5831SOL    HW118913   7.430   6.919   5.620  1.2246  1.0686  0.2941
 5831SOL    HW218914   7.290   6.972   5.599  0.7496 -0.7763 -1.5701
 5832SOL     OW18915   4.517   4.423   1.348  0.0649  0.0188 -0.0451
 5832SOL    HW118916   4.542   4.401   1.259  0.4577 -0.2284  0.1255
 5832SOL    HW218917   4.599   4.443   1.392 -0.0807 -0.2968  0.3787
 5833SOL     OW18918   5.756   1.712   5.456 -0.4828 -0.3362 -0.6368
 5833SOL    HW118919   5.754   1.705   5.361 -1.9709 -1.0086 -0.5990
 5833SOL    HW218920   5.803   1.634   5.485 -1.0198 -0.7303 -0.8027
 5834SOL     OW18921   6.663   7.146   2.200 -0.0777  0.1747 -0.6878
 5834SOL    HW118922   6.692   7.141   2.108  0.4056  0.1662 -0.5404
 5834SOL    HW218923   6.586   7.202   2.198 -1.6340 -1.8850 -1.4517
 5835SOL     OW18924   5.591   1.301   3.961  0.4589 -0.1263  0.0630
 5835SOL    HW118925   5.598   1.374   4.022 -0.2488 -0.1819  0.2240
 5835SOL    HW218926   5.599   1.341   3.874  2.0443 -0.1227  0.1936
 5836SOL     OW18927   5.299   0.737   1.669  0.4607  0.1896 -0.7144
 5836SOL    HW118928   5.385   0.734   1.628 -0.0546 -1.1568 -1.7603
 5836SOL    HW218929   5.241   0.693   1.607 -0.4307 -1.6134  1.2846
 5837SOL     OW18930   6.916   7.824   6.301 -0.4728  0.1314 -0.5983
 5837SOL    HW118931   6.964   7.780   6.371 -2.3837  0.8829  1.3040
 5837SOL    HW218932   6.826   7.831   6.335 -0.7556  3.4967 -1.6871
 5838SOL     OW18933   5.397   3.994   0.075  0.3632  0.7165 -0.0149
 5838SOL    HW118934   5.353   3.948   0.146  0.3573  0.2620 -0.3048
 5838SOL    HW218935   5.439   4.070   0.116  2.5839 -0.9339  0.9565
 5839SOL     OW18936   2.854   7.414   1.756  0.2017  0.3654  0.5442
 5839SOL    HW118937   2.792   7.351   1.720  0.1972  0.4931  0.3226
 5839SOL    HW218938   2.939   7.386   1.723  0.1526  0.7041  0.1060
 5840SOL     OW18939   5.368   6.502   5.697  0.0708 -0.0270 -0.6857
 5840SOL    HW118940   5.292   6.508   5.754 -0.1416 -0.3853 -0.9234
 5840SOL    HW218941   5.376   6.408   5.677  1.4265 -0.2010  0.4871
 5841SOL     OW18942   8.047   2.453   6.013  0.1982  0.1979 -0.1740
 5841SOL    HW118943   7.966   2.420   6.053  0.4006 -0.9603 -0.6608
 5841SOL    HW218944   8.091   2.500   6.083 -0.5619  0.2312  0.2972
 5842SOL     OW18945   6.774   3.858   6.667  0.1632 -0.3312 -0.3512
 5842SOL    HW118946   6.812   3.772   6.650  0.0886 -0.4474  0.0644
 5842SOL    HW218947   6.804   3.912   6.594  1.5556 -0.2852  0.2197
 5843SOL     OW18948   8.170   0.498   4.723  0.5961 -0.2368 -0.2222
 5843SOL    HW118949   8.197   0.425   4.779 -3.8851 -0.4491  2.0656
 5843SOL    HW218950   8.186   0.576   4.777  1.7292  0.1702 -1.1061
 5844SOL     OW18951   3.596   7.794   0.559  0.3160 -0.0659 -0.1262
 5844SOL    HW118952   3.643   7.863   0.606 -0.9447 -0.3623  1.7143
 5844SOL    HW218953   3.621   7.713   0.604 -0.2018 -0.4842 -0.5726
 5845SOL     OW18954   1.176   2.436   4.985  0.5703  0.5281  0.2400
 5845SOL    HW118955   1.245   2.376   5.013 -0.0727  0.1305  1.0530
 5845SOL    HW218956   1.218   2.495   4.923  0.9535 -1.5085 -1.5623
 5846SOL     OW18957   5.489   6.927   2.141 -0.1109 -0.1529  0.3110
 5846SOL    HW118958   5.487   6.951   2.048 -0.0162 -0.5642  0.2010
 5846SOL    HW218959   5.539   6.845   2.144 -0.5679 -0.4250  0.6593
 5847SOL     OW18960   7.484   4.864   1.858 -0.2582 -0.5102  0.3843
 5847SOL    HW118961   7.495   4.796   1.791 -0.5343 -1.7867  1.5753
 5847SOL    HW218962   7.430   4.822   1.925 -1.2779  1.2423  0.7084
 5848SOL     OW18963   3.177   2.610   4.936 -0.5025  0.2401 -0.7378
 5848SOL    HW118964   3.160   2.685   4.879 -1.5735 -0.6912 -1.6804
 5848SOL    HW218965   3.093   2.565   4.942  0.6487 -2.3111 -2.2940
 5849SOL     OW18966   6.485   3.268   1.635 -0.0469  0.2417  0.3875
 5849SOL    HW118967   6.462   3.213   1.710 -0.4778 -0.1315 -0.0157
 5849SOL    HW218968   6.437   3.350   1.649 -0.8998 -0.1869  0.0288
 5850SOL     OW18969   4.502   4.424   6.060  0.3590 -0.2406 -0.2513
 5850SOL    HW118970   4.493   4.396   5.969 -1.6819  2.9785 -1.1894
 5850SOL    HW218971   4.417   4.406   6.100  0.5191  0.3659  0.3875
 5851SOL     OW18972   4.925   4.266   2.276 -0.0192  0.0783  0.6540
 5851SOL    HW118973   4.949   4.316   2.198  2.5960  0.7255  1.7808
 5851SOL    HW218974   4.942   4.326   2.349  0.4934 -1.5201  1.8966
 5852SOL     OW18975   4.513   3.273   2.754  0.0826 -0.2679  0.2641
 5852SOL    HW118976   4.419   3.277   2.768  0.0800  0.3811  0.1131
 5852SOL    HW218977   4.548   3.344   2.808  0.4143 -0.0696 -0.2060
 5853SOL     OW18978   3.711   2.515   4.649 -0.0480 -0.2803 -0.5607
 5853SOL    HW118979   3.633   2.554   4.688 -0.5966 -1.2496 -0.6653
 5853SOL    HW218980   3.752   2.587   4.601  0.4630  0.8888  1.4699
 5854SOL     OW18981   2.445   5.866   8.324 -0.0180  0.4171  0.5867
 5854SOL    HW118982   2.510   5.848   8.257 -0.3080  0.2687  0.3445
 5854SOL    HW218983   2.361   5.863   8.278 -0.2464 -0.0722  1.0227
 5855SOL     OW18984   5.135   5.745   5.427  0.1622  0.4667 -0.1958
 5855SOL    HW118985   5.078   5.696   5.368 -1.1793  1.2462  0.4291
 5855SOL    HW218986   5.165   5.680   5.491  0.6847 -0.1218 -1.0148
 5856SOL     OW18987   7.870   4.515   1.201  0.2286  0.4588 -0.3465
 5856SOL    HW118988   7.913   4.595   1.231  0.2898  0.6614 -0.9541
 5856SOL    HW218989   7.809   4.545   1.134 -0.4919  0.1100  0.1382
 5857SOL     OW18990   0.337   7.102   0.050  0.5764  0.4093  0.6209
 5857SOL    HW118991   0.361   7.152  -0.028 -1.2374  2.6564  1.4087
 5857SOL    HW218992   0.321   7.168   0.117 -3.3687 -0.9877  1.3492
 5858SOL     OW18993   8.197   4.697   8.166 -0.5621 -0.7666  0.0484
 5858SOL    HW118994   8.275   4.650   8.194 -0.8332 -0.4704  1.3655
 5858SOL    HW218995   8.230   4.771   8.114  0.0037 -0.8929  0.2219
 5859SOL     OW18996   3.248   2.421   2.364  0.2006 -0.7412  0.5113
 5859SOL    HW118997   3.183   2.374   2.312  0.2301 -0.5100  0.2627
 5859SOL    HW218998   3.249   2.510   2.327 -0.8032 -0.1408  1.8180
 5860SOL     OW18999   8.058   7.211   4.915  0.5932 -0.2725  0.0067
 5860SOL    HW119000   8.102   7.287   4.876  0.3377 -0.1567 -0.0582
 5860SOL    HW219001   8.121   7.140   4.905  0.4373 -0.3071 -0.8487
 5861SOL     OW19002   5.518   4.633   6.382  0.4696 -0.2404 -0.1064
 5861SOL    HW119003   5.436   4.682   6.382  0.3529 -0.4350 -0.4039
 5861SOL    HW219004   5.537   4.616   6.290  0.9166 -0.0780 -0.0490
 5862SOL     OW19005   2.496   6.075   5.980  0.1846  0.0402 -1.0650
 5862SOL    HW119006   2.505   6.066   6.075 -1.3175 -1.9451 -1.0424
 5862SOL    HW219007   2.401   6.076   5.965  0.3987  0.0550 -2.5698
 5863SOL     OW19008   2.025   8.335   7.797 -0.2423  0.6530  0.9152
 5863SOL    HW119009   2.099   8.274   7.792 -0.7557  0.0946 -0.0544
 5863SOL    HW219010   1.981   8.311   7.879 -0.8184 -0.7447  0.2243
 5864SOL     OW19011   3.450   7.798   4.997 -0.2865  0.6475  0.1458
 5864SOL    HW119012   3.378   7.860   5.009 -1.1652 -0.4394  0.6650
 5864SOL    HW219013   3.504   7.807   5.075  0.0880  1.3825 -0.1908
 5865SOL     OW19014   4.308   8.154   7.251 -0.6897 -0.0913  0.3358
 5865SOL    HW119015   4.305   8.185   7.161 -0.9207 -2.1946 -0.4466
 5865SOL    HW219016   4.222   8.176   7.287  0.2448  3.0043  0.9310
 5866SOL     OW19017   7.091   8.073   0.770 -0.5439  0.6847 -0.3816
 5866SOL    HW119018   7.055   8.021   0.842  0.3419  0.8379  0.1848
 5866SOL    HW219019   7.019   8.080   0.708 -0.6440 -1.3774 -0.5742
 5867SOL     OW19020   4.338   0.672   6.997  0.2990 -0.2621 -0.1142
 5867SOL    HW119021   4.298   0.610   7.058  1.9725 -1.7106 -0.4128
 5867SOL    HW219022   4.380   0.738   7.054  0.3664 -0.6291  0.2649
 5868SOL     OW19023   7.449   7.337   0.949 -0.0412  0.1601 -0.0694
 5868SOL    HW119024   7.516   7.303   1.007 -0.1467  1.1986  0.6897
 5868SOL    HW219025   7.431   7.426   0.981 -3.1633 -0.7172  1.0101
 5869SOL     OW19026   4.145   7.400   5.900  0.1084  0.1853 -0.0205
 5869SOL    HW119027   4.106   7.453   5.831  0.9182 -0.1802 -0.7853
 5869SOL    HW219028   4.213   7.456   5.938 -2.1493  1.4689  2.4623
 5870SOL     OW19029   0.346   2.733   1.462  0.4657  0.1953 -0.1053
 5870SOL    HW119030   0.346   2.709   1.555  2.0521 -1.4692 -0.4819
 5870SOL    HW219031   0.353   2.829   1.462 -0.5317  0.3030  1.4698
 5871SOL     OW19032   0.805   1.347   1.850 -0.1954 -0.2215  0.2104
 5871SOL    HW119033   0.799   1.252   1.857  0.9596 -0.4624 -1.5768
 5871SOL    HW219034   0.863   1.362   1.776  1.9936  1.8999  2.2168
 5872SOL     OW19035   0.126   2.805   4.063  0.7863  0.2244 -0.1509
 5872SOL    HW119036   0.053   2.814   4.124  2.0518 -0.3799  1.5632
 5872SOL    HW219037   0.123   2.714   4.034  1.1565  0.0435  0.3589
 5873SOL     OW19038   3.630   6.474   4.721  0.2779 -0.1123 -0.2464
 5873SOL    HW119039   3.631   6.541   4.789  0.5837  0.3660 -0.7196
 5873SOL    HW219040   3.717   6.434   4.726  1.7510  2.4423 -2.8110
 5874SOL     OW19041   6.268   7.466   5.921 -0.4830 -0.6109  0.0637
 5874SOL    HW119042   6.213   7.403   5.967 -0.0498 -0.4409  0.8202
 5874SOL    HW219043   6.331   7.496   5.986 -1.8683  2.0864  0.2938
 5875SOL     OW19044   1.154   7.657   4.019 -0.8458  0.3897  0.7299
 5875SOL    HW119045   1.145   7.744   4.057 -2.3712  0.0180  1.2917
 5875SOL    HW219046   1.126   7.668   3.928 -3.5916  0.0175  1.4682
 5876SOL     OW19047   2.622   6.975   1.280 -0.2303  0.3956 -0.3045
 5876SOL    HW119048   2.610   7.008   1.191 -1.8786 -0.3450 -0.3999
 5876SOL    HW219049   2.569   7.033   1.335 -0.5877 -0.1610 -0.0496
 5877SOL     OW19050   3.773   0.848   6.904  0.2593  0.1522 -0.0617
 5877SOL    HW119051   3.868   0.853   6.896  0.1729  0.1980 -1.1959
 5877SOL    HW219052   3.758   0.791   6.980  1.1793  0.5605  0.4451
 5878SOL     OW19053   1.812   1.998   5.034  0.0095 -0.0249  0.0332
 5878SOL    HW119054   1.790   1.934   5.102 -0.4985 -0.7131 -0.7626
 5878SOL    HW219055   1.899   1.972   5.004 -0.9813 -1.5999 -1.6609
 5879SOL     OW19056   2.894   6.084   5.541  0.8796 -0.4168  0.6238
 5879SOL    HW119057   2.962   6.017   5.547  0.0219 -1.3567  0.1437
 5879SOL    HW219058   2.877   6.093   5.447  0.9197  0.4139  0.6890
 5880SOL     OW19059   1.787   5.546   6.967 -0.1179 -0.6645  0.3708
 5880SOL    HW119060   1.828   5.489   6.901 -0.9266 -1.0454  0.1810
 5880SOL    HW219061   1.758   5.485   7.035 -1.8081 -0.5931 -0.2624
 5881SOL     OW19062   6.019   7.196   7.264 -0.2923  0.4848  0.1500
 5881SOL    HW119063   6.020   7.291   7.280  0.8852  0.6640 -0.8169
 5881SOL    HW219064   5.937   7.181   7.217  0.0147  1.2104 -0.6460
 5882SOL     OW19065   3.972   1.206   2.432 -0.2600  0.3485  0.1298
 5882SOL    HW119066   4.034   1.142   2.399 -1.0039  0.3698 -1.4024
 5882SOL    HW219067   3.905   1.154   2.477 -0.1138  0.1776  0.1512
 5883SOL     OW19068   2.701   3.235   7.709  0.7492 -0.0300 -0.0989
 5883SOL    HW119069   2.730   3.320   7.744  1.6436 -0.7147  0.8960
 5883SOL    HW219070   2.723   3.172   7.778 -0.1472 -1.0433 -0.7074
 5884SOL     OW19071   4.081   1.000   5.171  0.0744  0.1712 -0.6083
 5884SOL    HW119072   4.032   0.953   5.238 -1.5982  2.8800  0.2136
 5884SOL    HW219073   4.171   1.005   5.205 -0.4287  0.2360  0.7442
 5885SOL     OW19074   8.179   7.642   5.851  0.3719  0.7849  0.3470
 5885SOL    HW119075   8.113   7.582   5.818  0.7217 -1.2919  3.0943
 5885SOL    HW219076   8.262   7.606   5.820  0.5699 -0.1900  1.8721
 5886SOL     OW19077   6.532   6.184   8.279 -0.5309  0.4310  0.4626
 5886SOL    HW119078   6.532   6.137   8.362  0.4404 -0.6673 -0.1311
 5886SOL    HW219079   6.559   6.118   8.214  2.0044  2.0434 -0.2518
 5887SOL     OW19080   7.462   4.842   5.725 -0.5184 -0.1902 -0.0545
 5887SOL    HW119081   7.528   4.772   5.721 -0.8940 -0.6291  1.0344
 5887SOL    HW219082   7.480   4.886   5.808 -1.2149  0.0624 -0.0329
 5888SOL     OW19083   7.166   2.823   0.543 -0.2932  0.1795 -0.1934
 5888SOL    HW119084   7.173   2.728   0.547 -1.5565  0.0755  0.0460
 5888SOL    HW219085   7.252   2.852   0.513  0.9143 -0.8675  2.0217
 5889SOL     OW19086   0.203   1.788   4.907 -0.1885 -0.5232 -0.6329
 5889SOL    HW119087   0.264   1.722   4.874  0.1057  0.2138 -1.6383
 5889SOL    HW219088   0.166   1.750   4.986 -0.0144 -1.8700 -1.1800
 5890SOL     OW19089   7.189   2.422   8.083  0.2431  0.1072  0.2114
 5890SOL    HW119090   7.175   2.467   8.167 -1.5857 -1.2427  0.6841
 5890SOL    HW219091   7.274   2.379   8.093  0.6490  1.0112  0.8494
 5891SOL     OW19092   7.322   4.793   7.370  0.2327  0.1810  0.1205
 5891SOL    HW119093   7.376   4.843   7.309 -0.7342  1.5764  0.3564
 5891SOL    HW219094   7.235   4.833   7.363 -0.1916 -0.4467  1.4931
 5892SOL     OW19095   4.161   7.612   7.717 -0.3006 -0.2452 -0.6094
 5892SOL    HW119096   4.202   7.526   7.724  0.7741  0.1734 -1.4298
 5892SOL    HW219097   4.131   7.618   7.627  0.2167  0.4846 -0.7420
 5893SOL     OW19098   7.905   7.868   5.590  0.5375  0.3480  0.2551
 5893SOL    HW119099   7.874   7.956   5.611 -1.8521 -0.7018  1.5086
 5893SOL    HW219100   7.872   7.813   5.661  2.5635 -1.4910 -0.1154
 5894SOL     OW19101   0.325   2.291   0.816  0.0321 -0.5565  0.3306
 5894SOL    HW119102   0.376   2.324   0.889 -0.9448 -0.6243  1.0750
 5894SOL    HW219103   0.351   2.344   0.741  1.2983 -0.7127  0.6490
 5895SOL     OW19104   7.513   4.144   3.739  0.9494 -0.8705  0.3503
 5895SOL    HW119105   7.564   4.211   3.694  0.0748 -1.2565 -1.2700
 5895SOL    HW219106   7.552   4.061   3.712  1.9796 -1.0936  2.2893
 5896SOL     OW19107   1.355   1.464   6.029 -0.0318 -0.0175 -0.6833
 5896SOL    HW119108   1.265   1.440   6.051  0.4304 -0.2109  1.1799
 5896SOL    HW219109   1.357   1.559   6.036  0.0564 -0.0617 -0.0608
 5897SOL     OW19110   0.486   0.064   0.532 -0.0638 -0.1868 -0.5127
 5897SOL    HW119111   0.508   0.011   0.608  1.2158 -0.0078 -0.7436
 5897SOL    HW219112   0.533   0.146   0.544  0.2547 -0.1973 -1.5394
 5898SOL     OW19113   1.971   3.722   6.488  0.7077  0.0230  0.4715
 5898SOL    HW119114   1.979   3.673   6.407 -0.1098  1.1465 -0.3267
 5898SOL    HW219115   1.891   3.774   6.477  2.0758  2.3566  0.7649
 5899SOL     OW19116   0.018   6.161   3.141 -0.0480 -0.1679  0.0518
 5899SOL    HW119117  -0.051   6.150   3.075  0.7750  0.9191 -1.0389
 5899SOL    HW219118   0.051   6.073   3.156 -1.0694 -0.5876 -0.0645
 5900SOL     OW19119   4.319   4.012   1.486 -0.5249 -0.7167 -0.1927
 5900SOL    HW119120   4.233   4.014   1.443 -0.9042 -1.8619  0.4756
 5900SOL    HW219121   4.321   3.927   1.531 -0.2779  0.5539  2.3218
 5901SOL     OW19122   7.849   5.784   2.392  0.5866  0.2550 -0.0231
 5901SOL    HW119123   7.863   5.747   2.480  1.3189  1.0976  0.2291
 5901SOL    HW219124   7.914   5.740   2.337  0.6262  0.2636  0.0166
 5902SOL     OW19125   5.097   3.948   0.238 -0.2028  0.3131  0.6054
 5902SOL    HW119126   5.031   3.942   0.170  0.9091 -1.0092 -0.3936
 5902SOL    HW219127   5.082   4.034   0.278 -0.6774  1.2722 -1.5123
 5903SOL     OW19128   4.572   5.741   6.408  0.2815  0.1626 -0.2473
 5903SOL    HW119129   4.568   5.698   6.494 -2.0596 -0.8825 -0.7941
 5903SOL    HW219130   4.515   5.818   6.418  0.5197  0.3936 -0.6785
 5904SOL     OW19131   0.671   5.339   2.813 -0.0518  0.2171 -0.0350
 5904SOL    HW119132   0.644   5.407   2.875  1.2914  0.1935  0.6126
 5904SOL    HW219133   0.745   5.296   2.856  0.9468  0.2237 -1.6659
 5905SOL     OW19134   6.398   1.681   4.205 -0.5541 -0.2809  0.3622
 5905SOL    HW119135   6.380   1.613   4.269 -1.6382  0.4022  0.8088
 5905SOL    HW219136   6.317   1.690   4.156 -0.0639 -0.0742 -0.4262
 5906SOL     OW19137   7.963   5.898   4.634  0.5784 -0.2588  0.0482
 5906SOL    HW119138   7.925   5.976   4.675  0.5926 -0.1169 -0.2020
 5906SOL    HW219139   7.894   5.833   4.637 -0.2182  0.4320 -1.6778
 5907SOL     OW19140   6.458   6.068   6.534  0.2953 -0.1003  0.2474
 5907SOL    HW119141   6.421   6.073   6.446 -0.9692  0.4212  0.7895
 5907SOL    HW219142   6.552   6.070   6.520  0.1376 -0.9676 -1.1529
 5908SOL     OW19143   8.035   0.218   7.229 -0.4232 -0.4468 -0.1764
 5908SOL    HW119144   7.943   0.204   7.209 -0.1075 -0.5809 -1.7326
 5908SOL    HW219145   8.064   0.282   7.163  0.4010  0.2408  0.8235
 5909SOL     OW19146   0.936   7.795   2.850 -0.4335  0.2728  0.1608
 5909SOL    HW119147   0.884   7.855   2.797  3.4750  2.6238 -1.4303
 5909SOL    HW219148   0.939   7.714   2.799 -1.1513  0.6352 -0.4751
 5910SOL     OW19149   1.401   1.288   6.820  0.3828 -0.5850  0.0054
 5910SOL    HW119150   1.414   1.340   6.742 -1.7151  0.6675  0.3968
 5910SOL    HW219151   1.448   1.335   6.889 -1.2622  0.7647  0.2982
 5911SOL     OW19152   6.185   7.289   6.972 -0.2620  0.5390  0.7980
 5911SOL    HW119153   6.235   7.340   7.036  0.3191 -2.7891  3.2750
 5911SOL    HW219154   6.093   7.312   6.989  0.0303  2.6872 -0.1154
 5912SOL     OW19155   1.588   7.529   0.914  0.7851  0.2606 -0.3828
 5912SOL    HW119156   1.601   7.525   0.820  0.4788 -0.2896 -0.4013
 5912SOL    HW219157   1.653   7.593   0.944 -0.5558  2.1157 -1.2368
 5913SOL     OW19158   5.285   2.106   1.092  0.3677  0.1232 -0.3123
 5913SOL    HW119159   5.200   2.067   1.073  0.4643  0.3732 -1.3072
 5913SOL    HW219160   5.342   2.074   1.022  1.2988 -0.6835  0.7779
 5914SOL     OW19161   5.903   7.168   0.083  0.1670 -0.4405 -0.3197
 5914SOL    HW119162   5.954   7.217   0.147 -0.2108 -0.1659 -0.2212
 5914SOL    HW219163   5.830   7.132   0.133  1.7091 -3.2224  0.1647
 5915SOL     OW19164   1.833   8.295   1.231  0.2890 -0.6045 -0.6302
 5915SOL    HW119165   1.809   8.388   1.230  1.9367 -0.1520 -2.0975
 5915SOL    HW219166   1.813   8.264   1.143  0.9719 -1.3147 -0.5479
 5916SOL     OW19167   2.672   7.643   1.804  0.6886 -0.0921 -0.0793
 5916SOL    HW119168   2.675   7.552   1.777  2.7496 -0.0304 -0.2690
 5916SOL    HW219169   2.718   7.644   1.889 -0.8614  0.5294  0.7932
 5917SOL     OW19170   6.002   6.251   8.078 -0.2397 -0.3214  0.2032
 5917SOL    HW119171   6.046   6.174   8.112 -0.8968 -0.6472  0.3297
 5917SOL    HW219172   5.993   6.310   8.153  2.3945  0.9383 -0.3587
 5918SOL     OW19173   0.294   7.730   5.888 -0.0422  0.1562  0.2177
 5918SOL    HW119174   0.363   7.794   5.871  0.3475 -0.5211 -0.8861
 5918SOL    HW219175   0.290   7.677   5.808 -0.7830 -0.7993  0.8591
 5919SOL     OW19176   7.724   5.760   1.898  0.3110  0.0625  0.3641
 5919SOL    HW119177   7.629   5.763   1.904  0.3572 -0.2026  1.4019
 5919SOL    HW219178   7.752   5.712   1.977  1.3195  0.5141  0.2987
 5920SOL     OW19179   7.580   6.988   8.016  0.1855 -0.3384 -0.3297
 5920SOL    HW119180   7.550   6.922   8.078 -0.0412  1.2982  1.4038
 5920SOL    HW219181   7.517   6.983   7.944 -1.3074 -0.3738  0.9160
 5921SOL     OW19182   1.595   5.264   1.940 -0.2820 -0.2180 -0.4595
 5921SOL    HW119183   1.515   5.243   1.989  0.3894 -0.0679  0.7393
 5921SOL    HW219184   1.666   5.252   2.004  0.3680  3.6084 -0.2289
 5922SOL     OW19185   2.263   6.800   4.995 -0.2121  0.4182 -0.0955
 5922SOL    HW119186   2.183   6.846   4.971 -0.8485 -0.3349  0.5358
 5922SOL    HW219187   2.334   6.861   4.972 -0.9803  1.2753 -0.2288
 5923SOL     OW19188   0.914   2.493   1.270 -0.2001 -0.1523 -0.4342
 5923SOL    HW119189   0.922   2.520   1.362 -0.7197  0.6685 -0.6254
 5923SOL    HW219190   0.833   2.534   1.240 -1.6537 -2.8069 -0.4397
 5924SOL     OW19191   8.060   2.580   0.817  0.2383  0.3429  0.3180
 5924SOL    HW119192   8.129   2.634   0.779  0.1247 -0.1774 -0.6609
 5924SOL    HW219193   7.988   2.640   0.833 -0.2702  0.3388 -1.7318
 5925SOL     OW19194   7.850   3.956   4.140  0.5561 -0.5027  0.1733
 5925SOL    HW119195   7.808   3.967   4.226  0.8506 -0.5999  0.3290
 5925SOL    HW219196   7.780   3.923   4.084  0.5226 -1.0406  0.5277
 5926SOL     OW19197   1.793   1.403   0.919 -0.2855 -0.4324 -0.0050
 5926SOL    HW119198   1.745   1.333   0.875 -0.7563 -0.7358  0.9821
 5926SOL    HW219199   1.773   1.392   1.012  1.4715 -0.3823  0.3981
 5927SOL     OW19200   7.615   1.241   2.245  0.5208 -0.0636 -0.1860
 5927SOL    HW119201   7.541   1.301   2.254 -0.3352 -1.1903  0.5576
 5927SOL    HW219202   7.613   1.188   2.325  2.3905  0.1505  0.0451
 5928SOL     OW19203   7.161   1.613   8.048  0.3103  0.2039 -0.8062
 5928SOL    HW119204   7.245   1.568   8.043  1.8010  2.4845  1.2921
 5928SOL    HW219205   7.160   1.672   7.973  0.4937 -0.0069 -0.9724
 5929SOL     OW19206   2.751   1.249   4.121  0.6890 -0.3560  0.1521
 5929SOL    HW119207   2.697   1.280   4.194 -1.1076 -0.6624 -0.9891
 5929SOL    HW219208   2.840   1.249   4.156 -0.0128  0.2583  2.0871
 5930SOL     OW19209   2.671   3.094   3.334 -0.4647 -0.2440 -0.6303
 5930SOL    HW119210   2.630   3.023   3.285  0.3506 -1.4572  0.3825
 5930SOL    HW219211   2.747   3.054   3.375 -0.5978  0.9506  0.8672
 5931SOL     OW19212   3.680   3.328   5.296 -0.5804  0.1409 -0.0752
 5931SOL    HW119213   3.761   3.278   5.300  0.0430  0.9452 -1.5358
 5931SOL    HW219214   3.633   3.292   5.221 -0.5574  1.0791 -0.5606
 5932SOL     OW19215   0.626   3.285   7.179 -0.0741 -0.3705  0.6044
 5932SOL    HW119216   0.660   3.305   7.092 -0.6595  1.2001  0.7031
 5932SOL    HW219217   0.703   3.258   7.229  0.7104  1.1009  0.2539
 5933SOL     OW19218   1.522   6.721   8.058  0.0721 -0.6777  0.8782
 5933SOL    HW119219   1.430   6.725   8.031 -0.2252  0.1868  1.9402
 5933SOL    HW219220   1.571   6.735   7.977 -0.7968  2.6371  0.7861
 5934SOL     OW19221   0.898   4.390   7.163 -0.4572  0.0223 -0.4852
 5934SOL    HW119222   0.919   4.354   7.077  0.2444 -1.1042  0.1491
 5934SOL    HW219223   0.979   4.432   7.193 -0.6394  0.2363 -0.2822
 5935SOL     OW19224   1.931   1.218   1.790 -0.6287  0.2978 -0.0299
 5935SOL    HW119225   1.938   1.136   1.741 -0.4539  1.3105 -1.7762
 5935SOL    HW219226   1.877   1.196   1.866 -1.1361 -1.2758 -0.7985
 5936SOL     OW19227   3.429   5.175   1.059  0.1559 -0.6799 -0.1766
 5936SOL    HW119228   3.360   5.121   1.021 -0.8192 -0.7309  1.5666
 5936SOL    HW219229   3.388   5.260   1.073  0.1469 -0.9400  1.6228
 5937SOL     OW19230   0.885   3.503   1.564 -0.4990  0.2993  0.3056
 5937SOL    HW119231   0.932   3.475   1.485  0.1468  1.3479  0.3104
 5937SOL    HW219232   0.804   3.541   1.531 -0.4204  0.3589  0.1807
 5938SOL     OW19233   4.782   6.298   7.271 -0.2561  0.0189  0.6143
 5938SOL    HW119234   4.830   6.376   7.244 -2.8466  1.9470  1.2060
 5938SOL    HW219235   4.695   6.308   7.232 -0.3792 -3.2177 -0.2666
 5939SOL     OW19236   2.042   4.307   1.945  0.0972  0.7646 -0.0958
 5939SOL    HW119237   1.976   4.241   1.964  1.2585 -0.9074 -1.5204
 5939SOL    HW219238   1.995   4.375   1.897 -0.7593  0.0334 -0.3168
 5940SOL     OW19239   6.450   0.816   8.132 -0.1052  0.4677  0.4514
 5940SOL    HW119240   6.422   0.837   8.043 -0.6178 -2.1091 -0.0812
 5940SOL    HW219241   6.458   0.720   8.133  0.0891  0.4274  3.1239
 5941SOL     OW19242   0.333   3.865   2.468  0.0518 -0.3053 -0.2729
 5941SOL    HW119243   0.350   3.934   2.403  0.1977  0.3013  0.4054
 5941SOL    HW219244   0.386   3.791   2.438  0.0920 -0.0436 -0.8652
 5942SOL     OW19245   1.505   1.992   1.760  0.2748  0.2639  0.1633
 5942SOL    HW119246   1.483   2.074   1.716 -0.4971 -0.4087 -0.7353
 5942SOL    HW219247   1.587   2.010   1.806  0.1675  1.4989 -0.1141
 5943SOL     OW19248   6.872   3.805   7.117  0.2453 -0.3519 -0.1509
 5943SOL    HW119249   6.919   3.795   7.034 -1.1395  0.0624 -1.0122
 5943SOL    HW219250   6.833   3.892   7.112 -2.1384 -1.3401 -0.3191
 5944SOL     OW19251   1.857   0.758   2.184 -0.4316 -0.0929  0.0071
 5944SOL    HW119252   1.859   0.823   2.254 -2.9180  0.5573 -0.4613
 5944SOL    HW219253   1.823   0.679   2.226  0.3590 -0.4198  0.0475
 5945SOL     OW19254   3.734   6.356   7.505 -0.1326 -0.3898  1.0939
 5945SOL    HW119255   3.729   6.413   7.428  1.3025  0.8425  1.8661
 5945SOL    HW219256   3.676   6.283   7.485 -0.0244  0.0595 -1.0267
 5946SOL     OW19257   7.183   0.550   5.788  0.0839  0.1690 -0.2292
 5946SOL    HW119258   7.205   0.479   5.848 -0.7678 -1.5909 -1.8785
 5946SOL    HW219259   7.176   0.507   5.703 -3.3972  1.6679 -0.8427
 5947SOL     OW19260   7.551   7.385   1.839  0.0782 -0.0822  0.0531
 5947SOL    HW119261   7.632   7.395   1.888  0.9313  0.2542 -1.3715
 5947SOL    HW219262   7.531   7.474   1.808 -0.4819 -0.2754 -0.1442
 5948SOL     OW19263   2.577   0.786   3.748  0.2684  0.6739  0.6271
 5948SOL    HW119264   2.613   0.747   3.668 -1.3472  2.3208 -0.9979
 5948SOL    HW219265   2.550   0.874   3.721 -1.4995  0.8242  2.6622
 5949SOL     OW19266   3.874   7.919   2.130 -0.3011 -0.3663 -0.2793
 5949SOL    HW119267   3.852   7.978   2.057 -0.2887 -1.3651 -1.1139
 5949SOL    HW219268   3.789   7.884   2.159 -0.4484  1.0205  1.0870
 5950SOL     OW19269   4.750   0.295   7.613  0.5681 -0.5001 -0.0523
 5950SOL    HW119270   4.702   0.350   7.675 -1.3443 -2.5665  0.4339
 5950SOL    HW219271   4.828   0.268   7.661  0.8507  0.6889  0.1791
 5951SOL     OW19272   5.649   3.154   2.985 -0.1388  0.3578  0.5788
 5951SOL    HW119273   5.678   3.175   2.896 -0.7250 -2.8397 -0.4806
 5951SOL    HW219274   5.587   3.224   3.007  0.3535  1.4756 -1.3079
 5952SOL     OW19275   2.055   0.213   2.348  0.3901 -0.1741 -0.3411
 5952SOL    HW119276   2.047   0.248   2.259  2.3331  1.1823 -0.0598
 5952SOL    HW219277   2.084   0.288   2.400  0.8525 -1.3210  1.1201
 5953SOL     OW19278   1.911   4.481   4.301  0.1370  0.2941 -0.1063
 5953SOL    HW119279   1.934   4.410   4.241 -1.1703  1.5534 -2.2208
 5953SOL    HW219280   1.818   4.469   4.318  0.2293  0.6622  0.7041
 5954SOL     OW19281   1.040   5.717   8.311  0.4961  0.4204  0.5289
 5954SOL    HW119282   1.002   5.636   8.343 -2.4379  0.8967 -1.2939
 5954SOL    HW219283   1.070   5.763   8.389  0.8715 -1.7647  1.7185
 5955SOL     OW19284   6.985   6.061   5.136 -0.0161  0.7513  0.0105
 5955SOL    HW119285   6.966   6.140   5.187  1.7963  2.1906 -1.3871
 5955SOL    HW219286   7.076   6.040   5.157 -0.2544 -0.5613 -0.1847
 5956SOL     OW19287   2.414   3.897   2.678  0.2107  0.0933  0.4359
 5956SOL    HW119288   2.484   3.832   2.680 -0.5318 -0.7093  1.2873
 5956SOL    HW219289   2.440   3.962   2.743  0.1500 -0.2404  0.8003
 5957SOL     OW19290   8.213   8.312   5.438 -0.0307 -0.1586 -0.2757
 5957SOL    HW119291   8.186   8.374   5.371 -0.2507 -0.2996 -0.3175
 5957SOL    HW219292   8.234   8.367   5.514  0.0063 -0.0168 -0.3883
 5958SOL     OW19293   4.598   4.706   7.843 -0.0728  0.5850 -0.0916
 5958SOL    HW119294   4.607   4.629   7.899 -0.9746  0.9563  0.5925
 5958SOL    HW219295   4.646   4.684   7.764  0.8260 -0.1473  0.6317
 5959SOL     OW19296   1.836   5.803   1.479 -0.2300 -0.1285  0.4333
 5959SOL    HW119297   1.787   5.850   1.412 -0.0851  1.6022  1.4768
 5959SOL    HW219298   1.925   5.835   1.471  0.4118 -1.9877 -0.3243
 5960SOL     OW19299   1.137   3.952   4.840  0.4211 -0.3146  0.0022
 5960SOL    HW119300   1.065   4.008   4.811  0.9908  0.7018  0.4974
 5960SOL    HW219301   1.110   3.863   4.817 -0.5876  0.1474 -0.6214
 5961SOL     OW19302   6.995   0.826   6.102 -0.2593 -0.4569 -0.0727
 5961SOL    HW119303   7.006   0.901   6.160 -0.9559 -0.3877 -0.0174
 5961SOL    HW219304   6.962   0.756   6.158 -0.2324 -0.6142 -0.2483
 5962SOL     OW19305   7.392   7.853   4.972 -0.1094  0.1184 -0.1521
 5962SOL    HW119306   7.479   7.853   5.013 -0.1621 -1.3128  0.0308
 5962SOL    HW219307   7.339   7.798   5.030 -0.7629 -0.1563 -0.9919
 5963SOL     OW19308   7.448   2.015   4.350 -0.1159 -0.1010 -0.0184
 5963SOL    HW119309   7.362   1.995   4.314  0.2026 -1.0792 -0.2879
 5963SOL    HW219310   7.493   1.930   4.351  0.9682  0.4553 -0.2228
 5964SOL     OW19311   3.064   6.548   5.830 -0.0898 -0.8468  0.1522
 5964SOL    HW119312   3.141   6.596   5.800 -1.0000 -0.6160 -1.9795
 5964SOL    HW219313   3.100   6.479   5.886  1.3556  1.2991  2.0354
 5965SOL     OW19314   2.726   4.763   2.670  0.0768  0.4647  0.7664
 5965SOL    HW119315   2.785   4.809   2.610  0.5055  0.8448  1.4525
 5965SOL    HW219316   2.734   4.812   2.752 -2.3759  1.4551  0.4829
 5966SOL     OW19317   6.957   4.068   0.724 -0.1007  0.5302 -0.0527
 5966SOL    HW119318   7.047   4.040   0.710 -0.3769 -0.6922  0.5494
 5966SOL    HW219319   6.905   3.989   0.709 -0.9248  0.7791  1.3710
 5967SOL     OW19320   2.435   1.833   1.736  0.2077 -0.4239 -0.3473
 5967SOL    HW119321   2.470   1.828   1.825 -2.2873  0.1076  0.7262
 5967SOL    HW219322   2.504   1.879   1.687  1.1014  0.4691  1.5982
 5968SOL     OW19323   5.591   4.579   4.171  0.2300  0.3515 -0.0566
 5968SOL    HW119324   5.646   4.521   4.223  0.2836  0.2899 -0.1797
 5968SOL    HW219325   5.531   4.519   4.125  0.2449  0.3968 -0.1364
 5969SOL     OW19326   6.170   0.969   1.215 -0.4277 -0.2561  0.0758
 5969SOL    HW119327   6.167   1.004   1.126 -0.9957 -0.5552 -0.0244
 5969SOL    HW219328   6.087   0.997   1.254  0.1586  0.5639  0.7804
 5970SOL     OW19329   2.043   8.135   1.292 -0.2095 -0.1715  0.1966
 5970SOL    HW119330   2.087   8.183   1.362 -2.6597 -2.2568  3.4273
 5970SOL    HW219331   1.972   8.193   1.264  0.5606  0.5198 -0.3904
 5971SOL     OW19332   6.856   1.515   6.770  0.0682 -0.1163  0.0902
 5971SOL    HW119333   6.858   1.535   6.864  0.1094  3.3722 -0.5214
 5971SOL    HW219334   6.764   1.521   6.746  0.3293  2.2302 -0.5753
 5972SOL     OW19335   4.443   7.899   7.219  0.0639  0.3344 -0.4486
 5972SOL    HW119336   4.535   7.911   7.195 -0.4347  0.8136 -2.2545
 5972SOL    HW219337   4.406   7.987   7.216 -0.6428  0.0366 -0.6007
 5973SOL     OW19338   4.564   4.982   4.317  0.0671 -0.0980  0.7623
 5973SOL    HW119339   4.536   4.957   4.405 -1.1349  0.7262  0.6359
 5973SOL    HW219340   4.485   5.017   4.275  0.7879  0.2234 -0.3883
 5974SOL     OW19341   7.278   3.864   1.904  1.0821 -1.0232  0.1578
 5974SOL    HW119342   7.339   3.872   1.977  2.5177  3.1517 -1.2402
 5974SOL    HW219343   7.333   3.870   1.826 -0.7901 -0.5212 -1.1877
 5975SOL     OW19344   7.551   1.514   5.655 -0.0798  0.2249  0.0361
 5975SOL    HW119345   7.507   1.430   5.667 -1.1289  0.8678  0.8730
 5975SOL    HW219346   7.507   1.553   5.580 -0.4250  0.5281  0.3881
 5976SOL     OW19347   2.997   1.280   2.446 -0.3573  0.4572 -0.2090
 5976SOL    HW119348   2.927   1.224   2.410 -0.0924  0.6249 -1.0143
 5976SOL    HW219349   3.076   1.226   2.439 -0.1721  0.7726 -0.6135
 5977SOL     OW19350   5.609   4.269   7.082  0.2843  0.2234  0.3686
 5977SOL    HW119351   5.589   4.235   7.169 -0.2329  1.3261  0.7000
 5977SOL    HW219352   5.553   4.346   7.073  2.1625  1.6302  0.0924
 5978SOL     OW19353   4.699   0.887   5.074 -0.2079  0.3037  0.1812
 5978SOL    HW119354   4.717   0.980   5.085  0.7470  0.3208 -1.3229
 5978SOL    HW219355   4.716   0.849   5.160 -0.5984  1.4993  0.8104
 5979SOL     OW19356   7.058   4.592   1.595 -0.1783 -0.0627  0.5670
 5979SOL    HW119357   7.066   4.599   1.500  2.5638  0.4818  0.7560
 5979SOL    HW219358   6.968   4.617   1.614 -0.0396  2.4889 -1.6688
 5980SOL     OW19359   2.035   5.305   6.203 -0.0482  0.1915  0.0703
 5980SOL    HW119360   2.074   5.224   6.171 -1.9302 -0.9819  0.5834
 5980SOL    HW219361   2.085   5.326   6.282 -1.0840 -1.9329  1.3874
 5981SOL     OW19362   4.556   3.689   2.574 -0.2736  0.1390  0.4823
 5981SOL    HW119363   4.510   3.705   2.492  0.1028  0.7475  0.3841
 5981SOL    HW219364   4.554   3.594   2.585  0.1698  0.0073 -0.5091
 5982SOL     OW19365   5.560   7.151   1.131  0.0110  0.4539 -0.1137
 5982SOL    HW119366   5.613   7.098   1.189  0.6016 -0.9561 -1.8550
 5982SOL    HW219367   5.561   7.104   1.047 -0.9827  2.2677 -1.2149
 5983SOL     OW19368   0.214   7.904   2.854 -0.3659 -1.1447 -0.4998
 5983SOL    HW119369   0.305   7.920   2.879 -0.0301 -1.1016 -1.6810
 5983SOL    HW219370   0.199   7.962   2.779 -1.6335 -0.5404  0.1940
 5984SOL     OW19371   2.254   6.517   5.685  0.6509  0.5302  0.4874
 5984SOL    HW119372   2.271   6.424   5.698 -0.2230  0.1525 -0.8681
 5984SOL    HW219373   2.204   6.521   5.604  2.0542  2.3232 -0.3575
 5985SOL     OW19374   4.717   3.464   4.504  0.0330  0.1239  0.0740
 5985SOL    HW119375   4.623   3.448   4.501  0.1585 -1.0866  1.7755
 5985SOL    HW219376   4.748   3.420   4.583  2.0740  0.3357 -0.5332
 5986SOL     OW19377   1.782   7.150   3.754  0.5614 -0.4167 -0.0910
 5986SOL    HW119378   1.830   7.075   3.719  2.2260  1.5021 -2.2518
 5986SOL    HW219379   1.849   7.217   3.769 -1.2547  2.2820 -2.8727
 5987SOL     OW19380   3.061   5.411   5.708 -0.3364 -0.1909  0.1477
 5987SOL    HW119381   2.977   5.366   5.702 -1.3822  1.5403  0.8467
 5987SOL    HW219382   3.111   5.360   5.771 -1.2842 -0.6761  0.5268
 5988SOL     OW19383   6.969   4.504   2.267  0.2009  0.4346  0.4375
 5988SOL    HW119384   7.030   4.565   2.308  1.2270 -1.7430  2.4126
 5988SOL    HW219385   7.010   4.481   2.184 -1.0653  3.6176 -1.2306
 5989SOL     OW19386   2.460   0.265   0.678  0.4065 -0.4052  0.6220
 5989SOL    HW119387   2.455   0.196   0.744  0.0236  0.1583  1.1890
 5989SOL    HW219388   2.496   0.341   0.724  2.7997 -0.7695 -0.4702
 5990SOL     OW19389   1.543   4.390   8.274 -0.0216  0.7890 -0.3091
 5990SOL    HW119390   1.541   4.475   8.231  1.3331  0.4000 -1.1769
 5990SOL    HW219391   1.453   4.377   8.305 -0.6450  1.7844 -1.6167
 5991SOL     OW19392   0.477   0.442   1.524  0.8729 -0.0321  0.0079
 5991SOL    HW119393   0.446   0.434   1.614  1.0370 -2.2498 -0.0751
 5991SOL    HW219394   0.555   0.386   1.521  0.5950 -0.3625 -1.6264
 5992SOL     OW19395   6.088   2.002   5.259 -0.5667 -0.2663  0.7123
 5992SOL    HW119396   6.070   2.001   5.165 -1.7274  1.2856  0.8712
 5992SOL    HW219397   6.178   2.033   5.267 -0.6116  0.0233  0.1261
 5993SOL     OW19398   5.137   0.876   1.311  0.0463 -0.0265 -0.0569
 5993SOL    HW119399   5.101   0.809   1.370 -1.6113  0.0328 -0.9380
 5993SOL    HW219400   5.104   0.851   1.225  0.6177  1.1136 -0.6168
 5994SOL     OW19401   4.206   3.296   6.910  0.0753 -0.1167 -0.0928
 5994SOL    HW119402   4.115   3.325   6.909  0.1172  0.1203  1.3179
 5994SOL    HW219403   4.255   3.371   6.944  0.5692 -0.8055  0.7508
 5995SOL     OW19404   7.213   7.807   2.249 -0.2028  0.2093  0.1947
 5995SOL    HW119405   7.131   7.856   2.247 -0.9341 -0.8561 -3.2282
 5995SOL    HW219406   7.280   7.872   2.271 -1.4964  2.0391 -1.0032
 5996SOL     OW19407   7.708   3.414   0.818 -0.2622 -0.5354 -0.5921
 5996SOL    HW119408   7.781   3.472   0.835 -2.1731  1.4317  1.5871
 5996SOL    HW219409   7.746   3.326   0.819  2.1776  0.4487 -0.5239
 5997SOL     OW19410   2.715   2.939   5.639  0.5724 -0.3379  0.0372
 5997SOL    HW119411   2.723   2.894   5.723 -0.2464 -0.2104  0.1889
 5997SOL    HW219412   2.651   3.009   5.655  0.4282 -0.2966 -0.6810
 5998SOL     OW19413   4.214   4.947   0.528 -0.3448 -0.1162  0.6074
 5998SOL    HW119414   4.258   4.894   0.461  1.3405 -1.2382  2.4807
 5998SOL    HW219415   4.121   4.928   0.516  0.0371 -1.5340 -0.4087
 5999SOL     OW19416   3.113   1.698   2.741  0.3885 -0.1088 -0.2025
 5999SOL    HW119417   3.202   1.731   2.743  1.8530 -3.4704 -1.9553
 5999SOL    HW219418   3.119   1.613   2.697 -3.3972 -1.4126  1.3187
 6000SOL     OW19419   6.075   3.194   3.909 -0.5001  0.4836  0.1642
 6000SOL    HW119420   6.111   3.210   3.822  0.7881 -0.8121  0.4233
 6000SOL    HW219421   6.086   3.100   3.923  0.3680  0.8137  2.1553
 6001SOL     OW19422   2.743   3.658   2.660 -0.1700 -0.3647 -0.3201
 6001SOL    HW119423   2.733   3.717   2.586  0.3297  0.1290 -0.0032
 6001SOL    HW219424   2.654   3.630   2.681 -0.2528 -1.0749 -1.5454
 6002SOL     OW19425   6.543   4.862   2.654  0.2503  0.2832 -0.0281
 6002SOL    HW119426   6.566   4.782   2.607  0.2701  0.5199 -0.4270
 6002SOL    HW219427   6.496   4.832   2.731  2.9682 -0.3363  1.5279
 6003SOL     OW19428   3.352   4.189   4.714  0.3621 -0.1702  0.0870
 6003SOL    HW119429   3.444   4.165   4.709 -0.1298 -2.8149  1.8244
 6003SOL    HW219430   3.312   4.123   4.770 -2.7956  0.3224 -1.3188
 6004SOL     OW19431   5.341   3.457   2.677  0.4476 -0.0092 -0.4907
 6004SOL    HW119432   5.345   3.542   2.632 -0.9262  0.7243  0.6675
 6004SOL    HW219433   5.385   3.396   2.618  0.1697  1.2302 -2.0493
 6005SOL     OW19434   6.869   7.535   2.448  0.0880  0.0572 -0.0856
 6005SOL    HW119435   6.840   7.445   2.458  2.5533 -0.6954  1.0449
 6005SOL    HW219436   6.872   7.550   2.354 -1.4390 -0.6113 -0.2672
 6006SOL     OW19437   7.196   1.656   4.383  0.5822 -0.1941  0.0436
 6006SOL    HW119438   7.253   1.643   4.459  1.0177  2.4893  0.2910
 6006SOL    HW219439   7.111   1.680   4.420  1.1126  2.3285 -0.2194
 6007SOL     OW19440   4.353   4.192   6.610  0.0757 -0.3455 -0.6901
 6007SOL    HW119441   4.294   4.210   6.683  0.1808 -0.3376 -0.6072
 6007SOL    HW219442   4.356   4.097   6.605  0.6773 -0.3642 -0.1856
 6008SOL     OW19443   3.396   2.722   0.527  0.0010 -0.0943 -0.2124
 6008SOL    HW119444   3.371   2.675   0.607  2.2701 -1.8198 -0.3974
 6008SOL    HW219445   3.413   2.653   0.463 -0.7300  1.2111 -1.8849
 6009SOL     OW19446   6.665   2.063   7.144  0.7888 -0.1046  0.6189
 6009SOL    HW119447   6.759   2.077   7.139  0.6278  0.7242 -0.1642
 6009SOL    HW219448   6.649   2.044   7.237  1.3971  2.2920  1.2765
 6010SOL     OW19449   8.161   4.928   2.579  0.0486  0.0949 -0.3448
 6010SOL    HW119450   8.069   4.914   2.601  0.2944 -0.2492  0.5200
 6010SOL    HW219451   8.195   4.841   2.562  0.3483  0.1584 -0.0819
 6011SOL     OW19452   0.191   3.299   5.136  0.5810  0.1428  0.0235
 6011SOL    HW119453   0.102   3.279   5.163  0.2572  0.3010 -0.8920
 6011SOL    HW219454   0.225   3.216   5.102 -0.6592  0.8861 -3.4918
 6012SOL     OW19455   5.276   4.970   5.024 -0.0263  0.0106  1.1760
 6012SOL    HW119456   5.369   4.969   5.048  0.6136 -0.2295 -1.0912
 6012SOL    HW219457   5.249   5.061   5.035  0.4562  0.0726  1.9128
 6013SOL     OW19458   4.734   2.692   3.663  0.3138 -0.4077 -0.0478
 6013SOL    HW119459   4.749   2.764   3.602 -0.2982 -1.3807 -1.3914
 6013SOL    HW219460   4.670   2.726   3.726 -3.1749 -0.8934 -2.9688
 6014SOL     OW19461   7.387   4.397   1.880 -0.5773 -0.3141  0.1422
 6014SOL    HW119462   7.360   4.307   1.860  0.2029 -0.6991  0.7774
 6014SOL    HW219463   7.473   4.388   1.920  0.5778  0.8910 -1.9074
 6015SOL     OW19464   4.515   8.038   0.232 -0.7448  0.8260  0.1110
 6015SOL    HW119465   4.513   7.945   0.212  0.4027  0.9871 -0.8693
 6015SOL    HW219466   4.578   8.045   0.304  0.1349  0.9758 -0.6642
 6016SOL     OW19467   6.313   0.238   4.089  0.1671 -0.2264 -0.0553
 6016SOL    HW119468   6.383   0.301   4.106 -0.4959  0.2241  1.0621
 6016SOL    HW219469   6.348   0.183   4.018  1.2279  0.6355 -0.2322
 6017SOL     OW19470   7.654   7.214   8.150  0.1488 -0.1542  0.0899
 6017SOL    HW119471   7.729   7.206   8.209  0.6304 -1.7884 -0.7065
 6017SOL    HW219472   7.640   7.126   8.117 -0.5971  0.5816 -1.6465
 6018SOL     OW19473   0.271   7.551   4.634  0.4581  0.0327 -0.3381
 6018SOL    HW119474   0.233   7.477   4.682  0.6480  0.5134  0.5700
 6018SOL    HW219475   0.198   7.586   4.584  0.1835 -0.3048 -0.1845
 6019SOL     OW19476   5.462   8.235   3.646  0.1591  0.1100 -0.0192
 6019SOL    HW119477   5.480   8.276   3.561 -0.4999 -2.3981 -1.4833
 6019SOL    HW219478   5.544   8.194   3.671  0.0466 -0.1039 -0.0021
 6020SOL     OW19479   4.286   8.317   3.570  0.2786 -0.3276 -0.1343
 6020SOL    HW119480   4.234   8.297   3.492  1.9778  0.6047 -1.5802
 6020SOL    HW219481   4.271   8.411   3.585 -0.7152 -0.6660  1.2468
 6021SOL     OW19482   1.299   0.241   0.713  0.3656 -0.2618 -0.2410
 6021SOL    HW119483   1.360   0.315   0.711 -0.0866  0.4260  3.5914
 6021SOL    HW219484   1.354   0.165   0.735  0.2252 -0.0824  0.7980
 6022SOL     OW19485   7.598   3.909   3.367  1.1901 -0.4848  0.1664
 6022SOL    HW119486   7.534   3.925   3.298  0.4897 -0.2315  0.8534
 6022SOL    HW219487   7.669   3.970   3.348  0.6011  0.2184  0.1569
 6023SOL     OW19488   6.196   2.042   2.454 -0.0683 -0.0172  0.1495
 6023SOL    HW119489   6.262   2.000   2.508  1.1627  1.2920 -0.2713
 6023SOL    HW219490   6.245   2.079   2.380 -1.0465  2.0876  0.4813
 6024SOL     OW19491   3.230   3.969   5.793 -0.3590 -0.0768 -0.0946
 6024SOL    HW119492   3.214   3.881   5.827  1.4967 -0.1750  0.6406
 6024SOL    HW219493   3.196   4.027   5.860 -1.3035 -0.2276 -0.4355
 6025SOL     OW19494   6.309   4.158   5.502 -0.1793  0.0559 -0.2373
 6025SOL    HW119495   6.373   4.090   5.523  0.1045  0.4695  0.2690
 6025SOL    HW219496   6.329   4.183   5.412  0.2332  0.0359 -0.1503
 6026SOL     OW19497   3.679   7.550   2.966 -0.4067  0.3703  0.0060
 6026SOL    HW119498   3.627   7.624   2.934 -0.2788  0.7988  0.7579
 6026SOL    HW219499   3.676   7.559   3.061  2.6685  1.5598  0.0925
 6027SOL     OW19500   3.376   3.615   1.129  0.4397  0.5717 -0.3136
 6027SOL    HW119501   3.368   3.679   1.199  0.1187  0.6266 -0.4002
 6027SOL    HW219502   3.451   3.561   1.154  1.8740  2.0724 -1.1113
 6028SOL     OW19503   1.535   1.879   4.512  0.1491 -0.1909 -0.1940
 6028SOL    HW119504   1.446   1.913   4.517 -1.1961 -3.4739  0.1621
 6028SOL    HW219505   1.580   1.919   4.587 -1.6063 -0.0642  0.8294
 6029SOL     OW19506   2.850   8.255   0.599 -0.4718  0.0573  0.1700
 6029SOL    HW119507   2.808   8.340   0.594 -2.4213 -0.9418 -1.5759
 6029SOL    HW219508   2.865   8.229   0.508  2.5873 -0.3645  0.6692
 6030SOL     OW19509   5.507   5.947   4.927  0.6195  0.3037  0.2474
 6030SOL    HW119510   5.501   5.854   4.908  0.0086  0.0145  1.7088
 6030SOL    HW219511   5.540   5.986   4.846 -0.2428 -1.0206 -0.7958
 6031SOL     OW19512   2.060   1.133   0.467  0.2690  1.1097 -0.4615
 6031SOL    HW119513   1.992   1.100   0.409 -0.4516  0.3981  0.7344
 6031SOL    HW219514   2.016   1.145   0.551  1.4763  1.2333  0.1779
 6032SOL     OW19515   6.393   0.116   4.436  0.1210  0.2301 -0.3889
 6032SOL    HW119516   6.422   0.196   4.481  1.5584 -0.5420  0.1050
 6032SOL    HW219517   6.470   0.087   4.387 -0.9489  0.1641 -2.0929
 6033SOL     OW19518   3.897   2.607   8.068  0.3217 -0.2781 -0.0904
 6033SOL    HW119519   3.948   2.664   8.125 -1.6522  0.8363  0.6751
 6033SOL    HW219520   3.919   2.518   8.097  0.2240  0.2261  1.6917
 6034SOL     OW19521   7.345   6.479   4.372  0.0292  0.1394 -0.6414
 6034SOL    HW119522   7.302   6.441   4.448 -1.8577  0.9250 -1.2630
 6034SOL    HW219523   7.420   6.422   4.355 -1.8441 -2.4535 -0.6695
 6035SOL     OW19524   3.268   2.051   4.677 -0.0665  0.4667  0.1545
 6035SOL    HW119525   3.306   1.963   4.683  1.0386  1.0265  2.6039
 6035SOL    HW219526   3.343   2.108   4.661 -0.6700  1.0650 -0.6127
 6036SOL     OW19527   2.540   7.758   0.603  0.4560  0.2244 -0.0943
 6036SOL    HW119528   2.521   7.824   0.536  1.1430  1.5725  0.9772
 6036SOL    HW219529   2.456   7.744   0.646  0.2471  0.1974 -0.5013
 6037SOL     OW19530   6.025   7.030   7.569  0.6268  0.0177  0.9067
 6037SOL    HW119531   5.959   7.096   7.590 -2.3181 -1.0581 -3.4209
 6037SOL    HW219532   6.102   7.081   7.543  0.6125  1.4268  3.3350
 6038SOL     OW19533   0.797   1.182   7.407 -0.2367  0.4603  0.2205
 6038SOL    HW119534   0.727   1.229   7.452  0.5393  1.3503  0.5270
 6038SOL    HW219535   0.804   1.099   7.454 -1.1799  0.3026  0.0949
 6039SOL     OW19536   0.466   4.004   4.129 -0.1230  0.4299  0.6516
 6039SOL    HW119537   0.438   3.918   4.159 -1.7814  0.1766 -1.3606
 6039SOL    HW219538   0.460   4.060   4.206  1.4098 -1.2612  2.1249
 6040SOL     OW19539   2.118   4.077   0.103 -0.5557 -0.1083  0.0676
 6040SOL    HW119540   2.081   4.154   0.147 -1.2068 -1.0015  1.1230
 6040SOL    HW219541   2.158   4.026   0.174 -2.1563 -1.8793 -0.2446
 6041SOL     OW19542   4.034   6.800   7.845  0.0777  0.0346 -0.4730
 6041SOL    HW119543   4.062   6.844   7.764 -1.0972 -1.4696 -1.7501
 6041SOL    HW219544   4.115   6.786   7.893  0.7280  1.6125 -1.0305
 6042SOL     OW19545   4.998   0.319   3.802  0.0829  0.1887 -0.0744
 6042SOL    HW119546   5.004   0.413   3.821 -2.5754  0.6041 -0.8153
 6042SOL    HW219547   4.970   0.280   3.885  0.6993  0.1127  0.1014
 6043SOL     OW19548   5.127   3.451   7.835  0.6707  0.2131  0.1449
 6043SOL    HW119549   5.045   3.411   7.864  1.0421 -1.0730 -0.5188
 6043SOL    HW219550   5.164   3.489   7.915 -0.1036 -0.0376  0.6342
 6044SOL     OW19551   4.576   0.640   4.947  0.0605  0.7133 -0.1181
 6044SOL    HW119552   4.659   0.594   4.941 -1.1491 -1.9552  1.7701
 6044SOL    HW219553   4.596   0.721   4.994  1.5211 -0.0734  0.6680
 6045SOL     OW19554   6.254   6.019   1.787  0.2311  0.6443 -0.5145
 6045SOL    HW119555   6.253   6.111   1.812 -1.4102  0.8197 -1.1195
 6045SOL    HW219556   6.276   6.020   1.694  1.2062  0.3451 -0.2941
 6046SOL     OW19557   3.570   5.352   2.304  0.0573  0.5608 -0.7264
 6046SOL    HW119558   3.649   5.391   2.267  0.4087  2.7074  1.8915
 6046SOL    HW219559   3.599   5.270   2.343  0.9930  1.2205  0.0135
 6047SOL     OW19560   1.392   0.112   3.943 -0.1882  0.0528  0.1533
 6047SOL    HW119561   1.391   0.201   3.908  0.0343 -0.1775 -0.4519
 6047SOL    HW219562   1.331   0.063   3.887  0.7442 -0.4951 -0.4017
 6048SOL     OW19563   7.791   0.636   4.547  0.1137  0.2635  0.1273
 6048SOL    HW119564   7.834   0.711   4.589  0.1511  0.2163  0.1732
 6048SOL    HW219565   7.810   0.562   4.605  0.6226  0.0929 -0.2495
 6049SOL     OW19566   8.030   1.997   0.871 -0.2849  0.2755  0.0691
 6049SOL    HW119567   8.036   2.019   0.965  0.7116  0.1996  0.0318
 6049SOL    HW219568   8.111   1.951   0.852 -0.8925 -0.5334 -0.6351
 6050SOL     OW19569   2.876   0.457   6.210  0.1463 -0.0855 -0.0117
 6050SOL    HW119570   2.909   0.502   6.132 -0.6506 -1.2504 -1.0373
 6050SOL    HW219571   2.948   0.399   6.235  0.5948  0.6418  0.4377
 6051SOL     OW19572   3.350   3.299   7.088 -0.6976 -0.1972 -0.1228
 6051SOL    HW119573   3.383   3.323   7.175 -1.1730 -1.0431  0.3006
 6051SOL    HW219574   3.428   3.275   7.039 -0.6301 -2.2919  0.9047
 6052SOL     OW19575   6.767   7.743   2.797  0.0267 -0.4367 -0.2960
 6052SOL    HW119576   6.722   7.711   2.875 -0.3571 -0.2292 -0.4328
 6052SOL    HW219577   6.759   7.672   2.733  0.6790 -0.7662 -0.0207
 6053SOL     OW19578   2.366   5.915   2.563  0.3389  0.6323 -0.1098
 6053SOL    HW119579   2.388   5.888   2.653 -0.0003  2.7801  0.6750
 6053SOL    HW219580   2.443   5.964   2.534  0.1795  0.5078 -0.7496
 6054SOL     OW19581   1.535   0.065   3.513 -0.0093 -0.4765 -0.1534
 6054SOL    HW119582   1.509  -0.002   3.451  0.4113 -0.8681  0.0908
 6054SOL    HW219583   1.600   0.023   3.570  0.5010  0.2206 -0.1937
 6055SOL     OW19584   1.684   4.986   5.683  0.0966 -0.2733  0.1572
 6055SOL    HW119585   1.673   4.991   5.588 -2.5344  0.9669  0.4317
 6055SOL    HW219586   1.755   5.048   5.702 -0.8726  1.2377 -0.8627
 6056SOL     OW19587   7.259   6.934   0.971 -0.6675 -0.3070  0.2021
 6056SOL    HW119588   7.190   6.984   0.927 -2.0961 -1.7808  0.6525
 6056SOL    HW219589   7.285   6.989   1.045 -2.7793 -0.4938  1.1671
 6057SOL     OW19590   0.786   0.159   8.222 -0.4389  0.5870 -0.2655
 6057SOL    HW119591   0.800   0.236   8.168  0.6838  0.7037  0.1675
 6057SOL    HW219592   0.753   0.193   8.306  0.1147  0.6170 -0.0531
 6058SOL     OW19593   0.267   3.394   7.892 -0.3628 -0.0466  0.6549
 6058SOL    HW119594   0.219   3.363   7.815 -0.2223 -1.1482  0.9866
 6058SOL    HW219595   0.288   3.314   7.940  3.6110  0.0992 -0.4920
 6059SOL     OW19596   2.417   3.002   7.782 -0.2795  0.5086  0.1273
 6059SOL    HW119597   2.512   2.998   7.766 -0.3052  0.5455 -0.0440
 6059SOL    HW219598   2.393   2.912   7.804 -0.1919  0.5133  0.2432
 6060SOL     OW19599   4.779   6.888   1.824 -0.1128  0.6847  0.0148
 6060SOL    HW119600   4.726   6.941   1.764  0.1593 -0.0132 -0.8645
 6060SOL    HW219601   4.715   6.845   1.881 -0.4214  0.8332 -0.2159
 6061SOL     OW19602   8.076   5.806   6.879 -0.1035  0.3294 -0.4112
 6061SOL    HW119603   7.998   5.756   6.855 -0.2200  0.0770  0.4441
 6061SOL    HW219604   8.146   5.769   6.825 -0.7888  1.3783 -2.0938
 6062SOL     OW19605   3.867   2.763   6.447 -0.5085 -0.2193 -0.3026
 6062SOL    HW119606   3.826   2.680   6.423 -1.0649  0.1267 -0.5852
 6062SOL    HW219607   3.956   2.740   6.472 -0.7889 -0.9545  0.0433
 6063SOL     OW19608   6.286   3.327   4.748  0.2560 -1.1722 -0.1300
 6063SOL    HW119609   6.258   3.410   4.788  1.0910 -1.7497  1.7805
 6063SOL    HW219610   6.354   3.353   4.686  0.5367 -0.4164  0.4777
 6064SOL     OW19611   3.537   4.760   7.713 -0.2092 -0.3860  0.0485
 6064SOL    HW119612   3.484   4.827   7.758  0.5460  1.0593 -1.1310
 6064SOL    HW219613   3.514   4.769   7.621  1.1622 -0.5847 -0.3297
 6065SOL     OW19614   3.449   5.079   3.414 -0.0092 -0.0735  0.1735
 6065SOL    HW119615   3.532   5.123   3.395 -0.4444  0.7681  0.1923
 6065SOL    HW219616   3.435   5.094   3.508  1.0243 -2.3182  0.7470
 6066SOL     OW19617   7.623   6.512   5.527 -0.2431 -0.2672 -0.2331
 6066SOL    HW119618   7.709   6.552   5.518  0.4391 -1.8405 -1.0731
 6066SOL    HW219619   7.611   6.501   5.622  0.5407 -0.1722 -0.1178
 6067SOL     OW19620   6.281   2.576   3.356  0.3986  0.1590  0.0253
 6067SOL    HW119621   6.341   2.650   3.342 -0.0602  0.1981 -2.1543
 6067SOL    HW219622   6.241   2.562   3.270 -1.4018 -1.0164  1.0028
 6068SOL     OW19623   4.008   4.651   7.423  0.0665 -0.3215 -0.1932
 6068SOL    HW119624   3.964   4.642   7.508 -0.9676 -0.1684 -0.6987
 6068SOL    HW219625   4.092   4.608   7.436  0.2997  0.4748  1.1811
 6069SOL     OW19626   4.634   7.107   3.472  0.6609  0.0420  0.0140
 6069SOL    HW119627   4.594   7.027   3.438 -0.1013  0.7816 -0.8957
 6069SOL    HW219628   4.728   7.087   3.477  0.4193 -1.1012  0.4050
 6070SOL     OW19629   7.386   1.162   7.205 -0.0236 -0.2648 -0.4155
 6070SOL    HW119630   7.430   1.109   7.271  1.0416 -0.6126 -1.3840
 6070SOL    HW219631   7.314   1.107   7.174 -0.1867 -0.3169  0.0530
 6071SOL     OW19632   7.471   3.836   2.445  0.0441 -0.2153  0.3023
 6071SOL    HW119633   7.559   3.802   2.430 -0.1868 -1.6392  1.8305
 6071SOL    HW219634   7.473   3.925   2.409  2.3595  0.1024  0.9991
 6072SOL     OW19635   1.053   8.337   1.453  0.5983 -0.3483  0.2357
 6072SOL    HW119636   1.082   8.427   1.468  2.6460 -0.7880 -0.7473
 6072SOL    HW219637   1.097   8.310   1.372 -0.6233 -1.9769  0.0465
 6073SOL     OW19638   5.970   3.234   7.436 -0.4706 -0.0904  0.1075
 6073SOL    HW119639   6.022   3.313   7.453 -0.2997 -0.5294  1.8799
 6073SOL    HW219640   6.000   3.172   7.502 -2.9677 -0.4991  0.9592
 6074SOL     OW19641   1.374   4.328   4.604 -0.3257  0.1247 -0.1069
 6074SOL    HW119642   1.363   4.399   4.668  0.0995 -0.5419  0.7243
 6074SOL    HW219643   1.393   4.251   4.657 -0.1181 -0.4769 -1.0385
 6075SOL     OW19644   1.935   3.574   2.392  0.4323 -0.5747  0.0174
 6075SOL    HW119645   1.869   3.616   2.448  0.8228  1.9172 -1.2760
 6075SOL    HW219646   1.884   3.530   2.324  0.0845  0.3685 -0.3344
 6076SOL     OW19647   5.592   7.950   2.570  0.3337 -0.1030 -0.0208
 6076SOL    HW119648   5.609   7.981   2.481 -0.2355 -1.0712 -0.4853
 6076SOL    HW219649   5.497   7.960   2.581  0.4197  0.1379  0.5346
 6077SOL     OW19650   0.831   6.060   2.538  0.2201 -0.6214 -0.5373
 6077SOL    HW119651   0.743   6.024   2.550  0.4048 -0.9785 -0.2251
 6077SOL    HW219652   0.817   6.144   2.494 -0.4452  0.2779  1.2725
 6078SOL     OW19653   0.091   8.365   1.811 -0.6330  0.3079  0.3602
 6078SOL    HW119654   0.135   8.282   1.793  0.7575  1.1785 -0.4545
 6078SOL    HW219655   0.162   8.427   1.829 -1.6023  1.4405  0.4512
 6079SOL     OW19656   7.247   3.754   6.622  0.2406 -0.2133 -0.1351
 6079SOL    HW119657   7.339   3.779   6.637  0.3694 -0.8366  0.1432
 6079SOL    HW219658   7.222   3.706   6.701  0.4927 -2.3288 -1.2743
 6080SOL     OW19659   7.247   8.154   1.053 -0.5584 -0.7269  0.0193
 6080SOL    HW119660   7.276   8.103   0.977  0.3225  0.7481 -0.6953
 6080SOL    HW219661   7.328   8.189   1.090 -1.1683  0.7562  0.0124
 6081SOL     OW19662   3.269   6.839   6.722  0.3031  0.1447  0.0046
 6081SOL    HW119663   3.256   6.924   6.680  1.1756  0.6351  0.6936
 6081SOL    HW219664   3.207   6.839   6.795 -1.0745 -0.6277 -1.1217
 6082SOL     OW19665   8.087   3.800   6.558 -0.5288  0.1696 -0.2595
 6082SOL    HW119666   8.086   3.793   6.462  0.7605 -2.9305 -0.1667
 6082SOL    HW219667   8.117   3.714   6.588  0.8396  1.5838  2.8800
 6083SOL     OW19668   5.419   7.708   0.750  0.2528 -0.0015 -0.2879
 6083SOL    HW119669   5.472   7.690   0.672  0.1994  0.4066 -0.4204
 6083SOL    HW219670   5.456   7.788   0.787  0.7486 -0.5927  0.5301
 6084SOL     OW19671   3.810   7.785   6.700 -0.1319  0.3163 -0.1646
 6084SOL    HW119672   3.720   7.760   6.680  0.2667 -0.6424 -0.8221
 6084SOL    HW219673   3.804   7.834   6.782 -1.3671  1.1692 -0.7374
 6085SOL     OW19674   6.914   0.621   0.855  0.6316  0.2630 -0.1681
 6085SOL    HW119675   6.895   0.573   0.775  1.7549 -1.5282  0.5606
 6085SOL    HW219676   6.951   0.554   0.914 -2.0514  1.0370  2.6051
 6086SOL     OW19677   8.222   0.485   5.732 -0.0600  0.3319  0.1363
 6086SOL    HW119678   8.128   0.470   5.717  0.0046  0.5474 -0.5168
 6086SOL    HW219679   8.229   0.580   5.745 -0.1421  0.1346  1.8088
 6087SOL     OW19680   0.598   7.009   1.148  0.0881 -0.0074 -0.0284
 6087SOL    HW119681   0.625   6.972   1.064  0.1809  1.1792 -0.5527
 6087SOL    HW219682   0.520   7.060   1.127 -1.9563 -2.4289  1.2485
 6088SOL     OW19683   1.261   6.010   2.916  0.3613 -0.3165 -0.3135
 6088SOL    HW119684   1.171   6.008   2.883  0.3276 -0.8150 -0.1982
 6088SOL    HW219685   1.263   5.943   2.984  0.5196  0.4730  0.4763
 6089SOL     OW19686   0.891   3.832   2.288  0.0647  0.1961 -0.7525
 6089SOL    HW119687   0.972   3.825   2.337  0.1946  1.4606 -0.7334
 6089SOL    HW219688   0.909   3.789   2.204  1.6634  2.5917 -1.7762
 6090SOL     OW19689   6.522   0.940   0.307  0.0104  0.5893 -0.0175
 6090SOL    HW119690   6.462   0.923   0.235 -0.8136  0.5066  0.6716
 6090SOL    HW219691   6.571   1.018   0.280  0.5359 -0.1072 -1.1564
 6091SOL     OW19692   0.060   2.316   4.796 -0.0214 -0.2735 -0.4384
 6091SOL    HW119693   0.003   2.325   4.720  0.5465 -1.5116 -1.0270
 6091SOL    HW219694   0.143   2.353   4.769 -0.1435  0.3229 -0.0232
 6092SOL     OW19695   6.741   4.418   2.163 -0.0692  0.5114  0.4154
 6092SOL    HW119696   6.790   4.355   2.110 -2.2681 -1.9041  0.9973
 6092SOL    HW219697   6.801   4.442   2.233  1.0089 -0.6127 -0.0780
 6093SOL     OW19698   3.038   6.089   7.260  0.6091 -0.4586  0.1485
 6093SOL    HW119699   3.123   6.072   7.219  0.4946  0.0769 -0.3088
 6093SOL    HW219700   2.997   6.156   7.206  0.1222 -0.3141  0.6840
 6094SOL     OW19701   7.092   4.902   0.719 -0.6172 -0.4311  0.0241
 6094SOL    HW119702   7.022   4.841   0.743  0.2356 -1.4772 -0.0997
 6094SOL    HW219703   7.157   4.848   0.675  0.8286  0.2980  1.1878
 6095SOL     OW19704   7.144   3.856   6.403 -0.0591  0.3757  0.1308
 6095SOL    HW119705   7.207   3.868   6.332 -0.1553  0.9133  0.1373
 6095SOL    HW219706   7.193   3.808   6.471  0.4577  1.1206  0.2920
 6096SOL     OW19707   8.047   6.111   4.119 -0.0720 -0.0691 -0.3175
 6096SOL    HW119708   8.010   6.148   4.038 -0.4216 -1.7366 -0.9627
 6096SOL    HW219709   8.012   6.022   4.123 -0.3447  0.0827  1.8859
 6097SOL     OW19710   3.924   6.201   3.282 -0.2226 -0.2778  0.8763
 6097SOL    HW119711   4.016   6.186   3.305  0.0896  0.7208  0.3470
 6097SOL    HW219712   3.895   6.118   3.244  1.2418  0.1372 -1.3708
 6098SOL     OW19713   2.880   5.185   2.142  0.4596  0.5805 -0.3299
 6098SOL    HW119714   2.805   5.234   2.176  0.7679  0.9487 -0.1665
 6098SOL    HW219715   2.854   5.157   2.055 -0.3151 -0.2979  0.1636
 6099SOL     OW19716   1.717   4.382   6.978  0.3704  0.3846 -0.5407
 6099SOL    HW119717   1.649   4.424   6.925 -1.7497 -1.6161  0.4435
 6099SOL    HW219718   1.798   4.399   6.930 -0.5761  3.8340 -1.1803
 6100SOL     OW19719   3.211   0.941   6.748  0.3685 -0.2095  0.1019
 6100SOL    HW119720   3.184   0.851   6.765  0.4259  0.0761  1.8340
 6100SOL    HW219721   3.306   0.939   6.752  0.4268 -0.2732 -1.0230
 6101SOL     OW19722   1.508   7.873   2.425 -0.3353  0.3698 -0.0182
 6101SOL    HW119723   1.418   7.904   2.427 -1.1216 -1.4582 -2.6603
 6101SOL    HW219724   1.502   7.778   2.422  1.7040  0.1880 -0.2306
 6102SOL     OW19725   7.401   0.571   2.177 -0.3652  0.2068  0.4813
 6102SOL    HW119726   7.459   0.507   2.219  0.5674  0.6083 -0.1454
 6102SOL    HW219727   7.330   0.584   2.240 -0.9764 -1.9578  0.3383
 6103SOL     OW19728   7.786   3.515   6.507 -0.4529  0.5864 -0.3675
 6103SOL    HW119729   7.802   3.422   6.522 -1.0258  0.6006  0.3690
 6103SOL    HW219730   7.803   3.557   6.591  4.3703  1.8632 -1.6637
 6104SOL     OW19731   2.892   3.033   4.592 -0.5632 -0.6942 -0.2191
 6104SOL    HW119732   2.897   2.937   4.584  0.4167 -0.6879  0.1134
 6104SOL    HW219733   2.965   3.065   4.539  2.0873 -0.3917  3.2062
 6105SOL     OW19734   1.976   7.052   5.506 -0.2504  0.1802  0.4775
 6105SOL    HW119735   1.940   7.000   5.578  1.3722 -1.1452  0.3738
 6105SOL    HW219736   2.043   6.997   5.468 -1.6000  0.4843 -2.6231
 6106SOL     OW19737   7.289   7.844   8.349  0.4717  0.5532  0.8348
 6106SOL    HW119738   7.276   7.821   8.441 -1.0133 -2.0582  0.0782
 6106SOL    HW219739   7.339   7.771   8.312 -1.0753  0.2797 -0.9002
 6107SOL     OW19740   3.137   1.065   5.474 -0.0203 -0.0265 -0.0531
 6107SOL    HW119741   3.163   0.985   5.519  2.6094  0.2428 -0.9271
 6107SOL    HW219742   3.136   1.041   5.381 -1.5386  0.4123 -0.1848
 6108SOL     OW19743   5.795   3.083   8.066  0.3735  0.1946  0.0582
 6108SOL    HW119744   5.722   3.117   8.118 -0.9973 -0.0417 -1.5983
 6108SOL    HW219745   5.777   3.113   7.977  1.4163 -1.2641 -0.6969
 6109SOL     OW19746   5.180   7.324   6.703 -0.4099 -0.0003 -0.2015
 6109SOL    HW119747   5.223   7.300   6.621  0.2762  0.2573  0.0803
 6109SOL    HW219748   5.212   7.261   6.767  0.4275  0.8717  0.2602
 6110SOL     OW19749   5.972   2.667   0.812  0.0958  0.5037  0.6102
 6110SOL    HW119750   5.968   2.757   0.845 -1.1163  0.2595  1.1883
 6110SOL    HW219751   6.053   2.664   0.761  1.9785  0.9614  3.3424
 6111SOL     OW19752   3.633   3.552   3.792  0.7360  0.0626 -0.2519
 6111SOL    HW119753   3.598   3.638   3.767  0.7783  0.3630  0.6665
 6111SOL    HW219754   3.725   3.568   3.810  0.7292 -0.1564 -0.0082
 6112SOL     OW19755   5.935   3.777   3.251  0.7256 -0.2564 -0.0283
 6112SOL    HW119756   5.885   3.853   3.223  1.2594  0.3373  0.6216
 6112SOL    HW219757   6.022   3.810   3.271  1.0889 -1.1059 -0.1288
 6113SOL     OW19758   0.421   7.706   5.461 -0.2573  0.1014 -0.1488
 6113SOL    HW119759   0.460   7.720   5.547 -0.8685 -0.4213  0.2226
 6113SOL    HW219760   0.336   7.667   5.479  0.4528 -2.0531 -1.0097
 6114SOL     OW19761   3.867   4.313   4.650  0.0540 -0.4141 -0.0128
 6114SOL    HW119762   3.790   4.266   4.684  0.9141 -1.4325  0.6000
 6114SOL    HW219763   3.842   4.338   4.561 -1.1629 -0.2849  0.3464
 6115SOL     OW19764   2.420   4.972   1.310 -0.5786 -0.2839  0.1252
 6115SOL    HW119765   2.505   4.970   1.353 -0.3109  1.2424 -0.2850
 6115SOL    HW219766   2.367   5.030   1.364 -0.9283 -0.1163 -0.3918
 6116SOL     OW19767   0.784   1.185   2.602  0.3251 -0.4316  0.3280
 6116SOL    HW119768   0.694   1.204   2.573  0.5769 -0.4494 -0.5002
 6116SOL    HW219769   0.779   1.097   2.640  0.1233 -0.7253 -0.3628
 6117SOL     OW19770   4.101   0.800   4.599 -0.1993 -0.2263  0.1654
 6117SOL    HW119771   4.079   0.755   4.680 -1.0671 -0.5157 -0.2187
 6117SOL    HW219772   4.080   0.737   4.530  0.1048  0.1812 -0.3083
 6118SOL     OW19773   8.318   0.044   1.240  0.4856  0.0732  0.4716
 6118SOL    HW119774   8.325   0.087   1.154 -1.1703 -0.0725  0.2425
 6118SOL    HW219775   8.237  -0.006   1.235  1.3859 -1.5612  1.4212
 6119SOL     OW19776   1.235   0.519   6.419  0.5504 -0.4575  0.1371
 6119SOL    HW119777   1.168   0.456   6.444  1.8068 -1.5239  0.9221
 6119SOL    HW219778   1.249   0.503   6.325  1.8899 -2.4053  0.6170
 6120SOL     OW19779   2.961   6.226   4.991  0.1460  0.3535 -0.3293
 6120SOL    HW119780   2.871   6.219   4.958  0.2159  0.7055 -0.5941
 6120SOL    HW219781   2.977   6.320   4.996  0.4766  0.2905 -0.2125
 6121SOL     OW19782   5.154   2.851   7.798 -0.1534 -0.1116  0.3554
 6121SOL    HW119783   5.133   2.758   7.792 -2.3428  0.3192  0.7041
 6121SOL    HW219784   5.175   2.864   7.891  1.7799 -0.5121  0.0313
 6122SOL     OW19785   4.569   0.919   3.559  0.1229  0.0151 -0.0704
 6122SOL    HW119786   4.632   0.982   3.595 -0.9001  1.5557 -0.8760
 6122SOL    HW219787   4.492   0.928   3.616  1.0999 -3.1009  1.9958
 6123SOL     OW19788   2.684   1.449   2.376  0.4317 -0.4302 -0.4252
 6123SOL    HW119789   2.745   1.400   2.321  0.1856  0.0056 -1.1013
 6123SOL    HW219790   2.652   1.385   2.439  0.8189 -0.9124 -0.7084
 6124SOL     OW19791   3.129   0.069   7.636  0.2411 -0.0785  0.5173
 6124SOL    HW119792   3.107  -0.023   7.649  0.2037 -0.3120 -1.0154
 6124SOL    HW219793   3.059   0.117   7.680  0.1958 -0.7692  1.2253
 6125SOL     OW19794   8.010   7.820   6.719 -0.7097 -0.0611 -0.4758
 6125SOL    HW119795   8.018   7.774   6.636 -0.9190  1.5630 -1.4362
 6125SOL    HW219796   8.091   7.870   6.727  0.4244 -2.0503  1.5374
 6126SOL     OW19797   7.127   1.130   0.546 -0.4853  0.1194  0.2061
 6126SOL    HW119798   7.138   1.128   0.641  2.4380  1.6685  0.0262
 6126SOL    HW219799   7.108   1.222   0.526 -1.0488 -0.1832 -0.7289
 6127SOL     OW19800   2.965   3.771   4.857 -0.0828 -0.5082  0.1524
 6127SOL    HW119801   2.897   3.753   4.792 -0.8048 -0.6651  0.9275
 6127SOL    HW219802   2.983   3.864   4.847 -1.6925 -0.0498  1.0899
 6128SOL     OW19803   7.959   3.669   3.672  0.2082  0.3618 -0.8225
 6128SOL    HW119804   7.891   3.699   3.612  0.7851  0.4878 -1.4308
 6128SOL    HW219805   8.039   3.670   3.619  0.9050  1.4067  0.2001
 6129SOL     OW19806   5.048   6.225   7.159 -0.3449 -0.0093 -0.6070
 6129SOL    HW119807   5.117   6.174   7.116 -0.8161 -0.8138 -0.4180
 6129SOL    HW219808   5.079   6.316   7.155  1.8146 -0.5597  1.4553
 6130SOL     OW19809   5.022   1.461   1.200  0.2248  0.1988 -0.2133
 6130SOL    HW119810   5.002   1.549   1.170 -0.2900 -0.8218 -3.2061
 6130SOL    HW219811   5.112   1.445   1.171  0.4591 -0.1289  0.6680
 6131SOL     OW19812   1.547   7.524   1.978  0.1233  0.2032  0.2578
 6131SOL    HW119813   1.600   7.571   2.043  1.0022 -0.2712 -0.0978
 6131SOL    HW219814   1.465   7.506   2.023  0.3158  0.8224  0.8788
 6132SOL     OW19815   0.637   3.761   2.414 -0.9999 -0.3896 -0.1021
 6132SOL    HW119816   0.719   3.781   2.368  0.2128 -2.6058  0.9564
 6132SOL    HW219817   0.621   3.838   2.468 -0.8849  1.0331 -1.9724
 6133SOL     OW19818   2.908   1.542   3.416 -0.5940  0.2479  0.2790
 6133SOL    HW119819   2.911   1.458   3.371  0.0302  0.0847  0.6136
 6133SOL    HW219820   2.863   1.600   3.356 -0.9819 -0.3130  0.0191
 6134SOL     OW19821   1.271   7.615   2.465  0.3028  0.3386 -0.0540
 6134SOL    HW119822   1.229   7.657   2.390 -0.7405 -3.1110 -1.6530
 6134SOL    HW219823   1.362   7.603   2.439 -0.3239 -1.9982 -1.5278
 6135SOL     OW19824   2.336   4.315   2.367 -0.5241 -0.2246 -0.8035
 6135SOL    HW119825   2.249   4.322   2.328 -1.6684  0.5213  1.6699
 6135SOL    HW219826   2.334   4.231   2.414 -1.4133  1.3926  2.3595
 6136SOL     OW19827   2.375   5.552   3.122 -0.2430 -0.2106 -0.3846
 6136SOL    HW119828   2.455   5.519   3.163 -0.3516 -2.3660 -1.7140
 6136SOL    HW219829   2.304   5.514   3.174 -0.3751 -2.6573 -2.1480
 6137SOL     OW19830   3.309   4.971   5.433  0.5572  0.2037  0.0247
 6137SOL    HW119831   3.266   4.962   5.518 -1.1632  0.9198 -0.7445
 6137SOL    HW219832   3.369   4.896   5.430 -1.2615 -1.3717  0.7738
 6138SOL     OW19833   4.558   1.527   0.224 -0.0958 -0.4672 -0.2150
 6138SOL    HW119834   4.493   1.512   0.156  1.6940 -0.5217 -2.0024
 6138SOL    HW219835   4.516   1.589   0.284 -1.5637 -0.0354 -1.6112
 6139SOL     OW19836   1.596   0.548   0.311 -0.0485 -0.2147 -0.2164
 6139SOL    HW119837   1.570   0.640   0.315  2.0307  0.3649  2.0861
 6139SOL    HW219838   1.684   0.549   0.273  0.1693 -1.2236  0.2302
 6140SOL     OW19839   6.345   8.340   1.208 -0.9829  0.0607  0.0145
 6140SOL    HW119840   6.335   8.268   1.145 -0.6035  0.7419 -0.8362
 6140SOL    HW219841   6.440   8.352   1.215 -0.9913 -0.3682  1.1550
 6141SOL     OW19842   4.071   7.826   2.286  0.0447 -0.4357  0.0145
 6141SOL    HW119843   4.074   7.731   2.296 -0.6291 -0.4517  0.1225
 6141SOL    HW219844   4.019   7.841   2.207  1.9255 -0.1967 -1.2180
 6142SOL     OW19845   3.054   7.544   2.961 -0.1640 -0.1645  0.3046
 6142SOL    HW119846   3.066   7.451   2.978  0.9277 -0.6233 -2.4258
 6142SOL    HW219847   2.959   7.555   2.954 -0.2538 -1.4040 -0.7707
 6143SOL     OW19848   2.632   1.379   7.305  0.4594  0.1302 -0.1801
 6143SOL    HW119849   2.674   1.295   7.286  0.6434 -0.0226  0.8705
 6143SOL    HW219850   2.570   1.360   7.375  0.6019  0.9039  0.1687
 6144SOL     OW19851   6.780   4.530   1.659 -0.4479  0.3599 -0.1934
 6144SOL    HW119852   6.710   4.465   1.665  0.1720 -0.2689  0.4819
 6144SOL    HW219853   6.811   4.540   1.749 -0.2660  1.2956 -0.3552
 6145SOL     OW19854   1.640   2.817   1.539  0.3660  0.1467  0.2553
 6145SOL    HW119855   1.565   2.841   1.485 -0.2204 -1.1700  0.4269
 6145SOL    HW219856   1.699   2.893   1.535 -1.0348  1.2626  0.2400
 6146SOL     OW19857   7.405   5.875   4.982 -0.6871  0.1049 -0.3334
 6146SOL    HW119858   7.404   5.780   4.979  0.3400  0.0909 -2.8963
 6146SOL    HW219859   7.497   5.898   4.989 -0.9380  0.9565  0.5221
 6147SOL     OW19860   1.359   5.276   6.671 -0.4622  0.0920  0.0705
 6147SOL    HW119861   1.365   5.369   6.691 -1.4227 -0.3023  2.5458
 6147SOL    HW219862   1.449   5.244   6.678 -0.2525  0.6748  0.0489
 6148SOL     OW19863   2.322   6.033   8.134  0.2883  0.3032  0.0331
 6148SOL    HW119864   2.264   6.063   8.064  0.7251  0.0842 -0.4313
 6148SOL    HW219865   2.280   6.062   8.215 -0.8763 -0.5224 -0.2443
 6149SOL     OW19866   8.040   7.345   6.511  0.0305 -0.9229  0.1019
 6149SOL    HW119867   7.986   7.279   6.555  0.1551 -1.7948 -0.9854
 6149SOL    HW219868   8.130   7.319   6.530  0.0791 -0.3097  0.7275
 6150SOL     OW19869   4.247   2.475   1.396  0.5005  0.3469  0.8426
 6150SOL    HW119870   4.288   2.561   1.386 -0.8214  0.7798 -1.8463
 6150SOL    HW219871   4.155   2.494   1.416  0.1015 -0.4083 -0.1987
 6151SOL     OW19872   5.160   0.242   0.171 -0.6409 -0.0817 -0.2638
 6151SOL    HW119873   5.154   0.297   0.093 -2.5345 -1.9851 -1.5950
 6151SOL    HW219874   5.221   0.172   0.148 -0.3824 -0.0748  0.3658
 6152SOL     OW19875   3.517   3.253   1.269 -0.2807 -0.0972 -0.1012
 6152SOL    HW119876   3.545   3.249   1.178  0.4241  0.4356  0.0793
 6152SOL    HW219877   3.498   3.346   1.285 -0.8258 -0.2508  0.1725
 6153SOL     OW19878   7.894   4.369   4.399 -0.4371  0.4528  0.0449
 6153SOL    HW119879   7.824   4.426   4.366  1.2718  2.1964 -0.7819
 6153SOL    HW219880   7.923   4.320   4.322 -1.9237 -1.6874  0.7585
 6154SOL     OW19881   0.526   0.772   6.941 -0.2320 -0.3502 -0.0390
 6154SOL    HW119882   0.565   0.765   6.853 -1.8993  0.0789 -0.8572
 6154SOL    HW219883   0.462   0.843   6.933  0.1234  0.2272  1.7630
 6155SOL     OW19884   3.121   4.391   0.874  0.0841 -1.1233 -0.2560
 6155SOL    HW119885   3.090   4.320   0.817 -2.9127 -2.7295  2.9575
 6155SOL    HW219886   3.209   4.364   0.900  0.2916 -1.9234 -1.6718
 6156SOL     OW19887   7.608   0.498   3.928  0.1441  0.4170  0.5137
 6156SOL    HW119888   7.637   0.417   3.970 -1.8527  0.1450  1.5205
 6156SOL    HW219889   7.649   0.568   3.979  1.4712  0.0775 -0.0439
 6157SOL     OW19890   6.568   2.256   2.468  0.0944  0.0712  0.0604
 6157SOL    HW119891   6.624   2.263   2.391  1.7051  0.2769  1.2005
 6157SOL    HW219892   6.629   2.260   2.542 -1.3487 -0.6739  1.3354
 6158SOL     OW19893   0.968   6.735   3.388  0.4990 -0.4380  0.5557
 6158SOL    HW119894   0.935   6.810   3.437 -0.1667  0.3462 -1.0334
 6158SOL    HW219895   1.009   6.772   3.311  1.7291 -1.6355  0.5778
 6159SOL     OW19896   1.543   5.024   5.337  0.6711  0.7594 -0.3890
 6159SOL    HW119897   1.467   5.013   5.279  0.3120  0.7265  0.0769
 6159SOL    HW219898   1.587   4.939   5.334  1.4295  1.1710 -1.6688
 6160SOL     OW19899   3.432   4.553   3.009 -0.6510  0.2826  0.0185
 6160SOL    HW119900   3.509   4.608   2.993 -0.8456  0.2738 -1.0159
 6160SOL    HW219901   3.423   4.500   2.930 -1.1646 -0.4018  0.5227
 6161SOL     OW19902   5.115   7.976   7.424 -0.1527 -0.0214  0.1186
 6161SOL    HW119903   5.210   7.981   7.433 -0.0881  0.4894 -0.7068
 6161SOL    HW219904   5.101   7.897   7.371 -0.1911 -0.1304  0.2924
 6162SOL     OW19905   2.264   0.889   2.137 -0.0405 -0.2832 -0.6496
 6162SOL    HW119906   2.277   0.960   2.075 -0.7777 -0.2431 -0.7653
 6162SOL    HW219907   2.289   0.810   2.089  3.8723  0.0850  0.4261
 6163SOL     OW19908   6.591   2.692   4.585 -0.0450  0.1047  0.3592
 6163SOL    HW119909   6.589   2.748   4.507 -2.4091  0.3668  0.5642
 6163SOL    HW219910   6.600   2.752   4.658  0.0136  0.0156  0.4262
 6164SOL     OW19911   4.881   5.660   4.862 -0.7510  0.3100 -0.0296
 6164SOL    HW119912   4.794   5.630   4.887 -0.8100  0.9083  0.5351
 6164SOL    HW219913   4.920   5.588   4.813 -0.7778 -0.7863  1.4984
 6165SOL     OW19914   5.577   0.822   5.612 -0.0338 -0.2928 -0.5446
 6165SOL    HW119915   5.547   0.912   5.622 -0.5610 -0.4148 -0.9952
 6165SOL    HW219916   5.621   0.821   5.527 -1.3188 -0.7907 -1.2348
 6166SOL     OW19917   3.113   1.040   2.693  0.0071 -0.0732  0.0268
 6166SOL    HW119918   3.018   1.041   2.682 -0.1993  2.1040  1.3292
 6166SOL    HW219919   3.146   1.100   2.625  0.5015 -0.9672 -0.5490
 6167SOL     OW19920   0.587   2.092   4.052 -0.6215 -0.0422  0.0445
 6167SOL    HW119921   0.558   2.120   3.965 -0.7851 -0.3151  0.0106
 6167SOL    HW219922   0.667   2.142   4.067 -0.0160 -0.7466 -0.6994
 6168SOL     OW19923   4.133   0.865   6.239  0.2366  0.4456  0.2904
 6168SOL    HW119924   4.181   0.830   6.314  0.0951 -0.2341  0.0659
 6168SOL    HW219925   4.190   0.847   6.164 -0.2259 -0.0665  0.0639
 6169SOL     OW19926   3.356   4.060   6.430 -0.2857 -0.0182  0.3428
 6169SOL    HW119927   3.274   4.014   6.413  0.3721 -0.8786 -0.6698
 6169SOL    HW219928   3.352   4.084   6.523 -2.2857  1.2486  0.0039
 6170SOL     OW19929   3.664   0.361   7.563  0.0004  0.0611 -0.2140
 6170SOL    HW119930   3.612   0.320   7.632  0.0191 -1.9326 -1.2953
 6170SOL    HW219931   3.753   0.364   7.598 -0.3171  0.8014  0.5460
 6171SOL     OW19932   5.083   4.441   5.175 -0.4709  0.5863 -0.1450
 6171SOL    HW119933   5.091   4.456   5.081 -2.7390  1.5322 -0.2632
 6171SOL    HW219934   5.168   4.466   5.211 -0.7569  4.2545 -1.5456
 6172SOL     OW19935   3.822   5.374   1.633  0.2821 -0.2346  0.5361
 6172SOL    HW119936   3.731   5.397   1.652 -0.1938  0.0757 -1.8402
 6172SOL    HW219937   3.850   5.323   1.709 -1.8101 -0.2213  1.3856
 6173SOL     OW19938   4.291   3.276   7.377  0.4078 -0.3821  0.9981
 6173SOL    HW119939   4.325   3.331   7.448  1.6498  0.6274 -0.3453
 6173SOL    HW219940   4.219   3.327   7.340  1.5616  0.3849 -0.2494
 6174SOL     OW19941   7.936   7.367   0.620 -0.5115 -0.2574  0.5568
 6174SOL    HW119942   7.966   7.451   0.653 -1.4430 -0.0994  1.0183
 6174SOL    HW219943   8.003   7.342   0.556 -0.8488  1.4309 -0.5315
 6175SOL     OW19944   6.179   3.337   5.547 -0.6616  0.4343 -0.8237
 6175SOL    HW119945   6.229   3.297   5.618 -0.4100  1.1007 -0.6171
 6175SOL    HW219946   6.120   3.398   5.591 -0.2739  1.0907 -1.2044
 6176SOL     OW19947   0.894   1.320   4.144  0.1189 -0.5811 -0.8403
 6176SOL    HW119948   0.983   1.356   4.140 -0.3727  1.1189  1.3412
 6176SOL    HW219949   0.877   1.288   4.055  3.1523 -1.6918 -1.1421
 6177SOL     OW19950   5.392   4.226   1.980  0.5452  0.1984  0.1907
 6177SOL    HW119951   5.377   4.164   2.052  0.5103 -0.7723 -0.6331
 6177SOL    HW219952   5.319   4.287   1.986 -0.7731 -1.2284 -0.3823
 6178SOL     OW19953   3.222   1.769   0.272  0.0830  0.3265  0.2508
 6178SOL    HW119954   3.151   1.707   0.289 -1.9448  3.1218  2.8320
 6178SOL    HW219955   3.302   1.717   0.286 -1.4373 -2.0291  0.8886
 6179SOL     OW19956   5.659   5.055   6.955  0.3958 -0.1207  0.5735
 6179SOL    HW119957   5.678   5.109   7.031 -0.5059  0.0771  0.6688
 6179SOL    HW219958   5.596   5.106   6.904 -0.7516 -1.2080  0.8437
 6180SOL     OW19959   1.072   1.632   3.141  0.0568  0.2561 -0.0620
 6180SOL    HW119960   1.116   1.596   3.218  1.5171 -1.3496 -1.5560
 6180SOL    HW219961   1.012   1.563   3.112  0.0356  0.5534 -0.7589
 6181SOL     OW19962   3.701   0.795   3.739 -0.0359 -0.2391 -0.4153
 6181SOL    HW119963   3.693   0.729   3.670 -0.1117  0.4576 -1.0820
 6181SOL    HW219964   3.621   0.786   3.791  0.3040 -1.1841 -0.0314
 6182SOL     OW19965   7.455   6.420   0.468  0.1439  0.5600  0.1228
 6182SOL    HW119966   7.532   6.405   0.522 -1.3804  1.2363  2.6566
 6182SOL    HW219967   7.460   6.513   0.444  0.9121  0.2169 -1.0879
 6183SOL     OW19968   6.882   2.882   3.139  0.5931  0.3994 -0.2060
 6183SOL    HW119969   6.896   2.950   3.073 -1.8914  1.1742 -0.0500
 6183SOL    HW219970   6.893   2.800   3.091  0.0184  0.9480 -1.3180
 6184SOL     OW19971   6.482   7.387   2.431  0.2244 -0.2837  0.2129
 6184SOL    HW119972   6.559   7.421   2.386 -1.0451  2.1105 -0.2800
 6184SOL    HW219973   6.446   7.322   2.370  0.0323  0.9701 -1.0519
 6185SOL     OW19974   4.475   5.334   0.504  0.4835 -0.3333 -0.1948
 6185SOL    HW119975   4.493   5.409   0.561  1.3126 -1.5837  1.2709
 6185SOL    HW219976   4.428   5.273   0.561 -3.3785  0.3865 -2.2673
 6186SOL     OW19977   7.546   4.180   7.816  0.4770  0.0273 -0.1106
 6186SOL    HW119978   7.539   4.085   7.817 -0.6797  0.0954 -0.6627
 6186SOL    HW219979   7.470   4.210   7.767  1.1863  1.2146 -0.5389
 6187SOL     OW19980   0.729   4.570   1.569 -0.4012  0.2906 -0.0948
 6187SOL    HW119981   0.661   4.529   1.623  0.4888 -0.7451  0.2738
 6187SOL    HW219982   0.731   4.519   1.489 -1.7085  1.8193 -1.1572
 6188SOL     OW19983   3.389   2.027   1.427 -0.1167  0.0621  0.0644
 6188SOL    HW119984   3.364   1.954   1.371 -2.3471  0.1880  0.8014
 6188SOL    HW219985   3.308   2.076   1.439  0.6069  0.7991  2.3055
 6189SOL     OW19986   6.668   0.837   4.263  0.1276  0.1011  0.0058
 6189SOL    HW119987   6.702   0.925   4.247 -1.9810  0.4185 -4.1340
 6189SOL    HW219988   6.733   0.779   4.222 -0.0049  0.0091 -0.0771
 6190SOL     OW19989   4.022   5.418   4.315 -0.0883  0.1403 -0.0644
 6190SOL    HW119990   4.044   5.508   4.337 -2.1047  0.6816 -0.1024
 6190SOL    HW219991   3.951   5.425   4.252  0.5574 -1.4850 -1.0361
 6191SOL     OW19992   6.823   6.056   8.325  0.3366 -0.0653 -0.3788
 6191SOL    HW119993   6.799   5.969   8.294 -1.4657  0.5929 -0.9427
 6191SOL    HW219994   6.789   6.116   8.258  1.3116  1.0949  0.1282
 6192SOL     OW19995   4.063   5.951   0.572  0.9064  0.2644  0.2225
 6192SOL    HW119996   4.097   5.992   0.493 -0.2103  2.2409  0.7010
 6192SOL    HW219997   4.125   5.976   0.641  2.1783 -1.8938 -0.0161
 6193SOL     OW19998   1.756   1.397   1.190  0.2230 -0.1295  0.4867
 6193SOL    HW119999   1.678   1.451   1.198 -1.1872 -1.7248 -1.4080
 6193SOL    HW220000   1.815   1.429   1.258 -1.1376  2.6662  0.4719
 6194SOL     OW20001   1.815   1.684   3.646 -0.1592  0.2517  0.0171
 6194SOL    HW120002   1.774   1.708   3.729 -1.8378  0.8829 -0.9571
 6194SOL    HW220003   1.851   1.597   3.662 -1.2724 -0.0319  1.1397
 6195SOL     OW20004   5.957   8.223   7.732  0.0097 -0.0282  0.2058
 6195SOL    HW120005   5.934   8.311   7.702  0.5928  0.1760  0.3309
 6195SOL    HW220006   5.990   8.237   7.821  1.2795 -0.1946 -0.2146
 6196SOL     OW20007   5.242   2.112   2.262  0.2618 -0.6812 -0.3306
 6196SOL    HW120008   5.247   2.168   2.185  1.9272  0.3557  0.4823
 6196SOL    HW220009   5.333   2.095   2.286 -0.2091 -2.1613  0.5835
 6197SOL     OW20010   2.608   7.504   5.155  0.3692 -0.0073 -0.2111
 6197SOL    HW120011   2.555   7.436   5.198  1.3189 -0.1427  0.7752
 6197SOL    HW220012   2.694   7.498   5.196  2.2485 -1.9296 -3.8807
 6198SOL     OW20013   6.769   1.277   8.101  0.2184 -0.1029  0.8150
 6198SOL    HW120014   6.721   1.199   8.073 -0.3096  0.2071  0.8568
 6198SOL    HW220015   6.807   1.312   8.020 -2.1871  1.3982  0.2621
 6199SOL     OW20016   2.717   6.892   2.275 -0.7919 -0.2225  0.3827
 6199SOL    HW120017   2.756   6.959   2.219 -0.1352 -1.3867 -0.6218
 6199SOL    HW220018   2.623   6.898   2.258 -0.5677 -0.8574 -1.2420
 6200SOL     OW20019   2.050   7.566   1.730  0.3317  0.1771  0.6523
 6200SOL    HW120020   1.957   7.557   1.708  0.6297  1.6506 -1.6177
 6200SOL    HW220021   2.089   7.482   1.708 -0.4813 -0.5237  1.8357
 6201SOL     OW20022   7.876   8.022   2.945  0.0522  0.2733 -0.0562
 6201SOL    HW120023   7.831   8.106   2.942  0.2049  0.3363 -1.5040
 6201SOL    HW220024   7.951   8.033   2.887 -1.9228 -1.9149 -3.3810
 6202SOL     OW20025   3.589   7.278   7.820 -0.3357  0.2352 -0.2595
 6202SOL    HW120026   3.519   7.254   7.759  0.1688 -0.5973 -0.5247
 6202SOL    HW220027   3.557   7.249   7.906 -1.0038  1.3199 -0.1338
 6203SOL     OW20028   3.644   6.611   1.345  0.2311 -0.1128  0.1656
 6203SOL    HW120029   3.586   6.624   1.270  1.4282  0.8969 -0.6252
 6203SOL    HW220030   3.676   6.698   1.366  2.2215 -0.7404 -0.0701
 6204SOL     OW20031   6.718   3.415   0.618  0.1184  0.1324 -0.5791
 6204SOL    HW120032   6.650   3.351   0.637 -0.1175  0.5526  0.0369
 6204SOL    HW220033   6.677   3.477   0.558  0.2336 -0.0972 -0.8947
 6205SOL     OW20034   5.208   4.575   2.100 -0.3079 -0.0258 -0.2478
 6205SOL    HW120035   5.266   4.618   2.037 -0.9971 -0.3165 -1.1089
 6205SOL    HW220036   5.265   4.550   2.172  0.4854  0.4257 -0.7002
 6206SOL     OW20037   3.224   7.947   1.365 -0.0641  0.1701 -0.7327
 6206SOL    HW120038   3.141   7.937   1.413 -0.9264  0.4466 -2.1231
 6206SOL    HW220039   3.204   7.916   1.277  1.2000  0.7002 -1.2195
 6207SOL     OW20040   2.689   5.513   7.452 -0.0805 -0.1445 -0.0587
 6207SOL    HW120041   2.717   5.581   7.513  1.8385 -1.8904  1.1352
 6207SOL    HW220042   2.661   5.441   7.508  0.9725 -1.5105 -1.2204
 6208SOL     OW20043   3.951   3.041   3.528  0.3622 -0.5630 -0.2029
 6208SOL    HW120044   3.991   3.038   3.441 -0.6558  0.4788 -0.7290
 6208SOL    HW220045   3.990   3.117   3.570  1.2987 -1.4105  0.5011
 6209SOL     OW20046   3.471   7.053   6.061 -0.0879  0.6918  0.0254
 6209SOL    HW120047   3.439   7.067   6.150  1.7903 -1.3746  1.1109
 6209SOL    HW220048   3.562   7.083   6.063  0.1229  0.1793 -1.0820
 6210SOL     OW20049   0.568   7.782   5.683  0.3253  0.2674  0.4992
 6210SOL    HW120050   0.650   7.795   5.730  0.0960 -1.6210  1.5437
 6210SOL    HW220051   0.513   7.855   5.709  1.0640  0.5754  1.2351
 6211SOL     OW20052   7.719   6.825   5.038 -0.3981 -0.3108 -0.1923
 6211SOL    HW120053   7.734   6.891   4.970  1.7610  0.3234  0.8421
 6211SOL    HW220054   7.709   6.743   4.990 -0.3210  0.3284 -1.3322
 6212SOL     OW20055   5.272   4.004   7.256  0.1469 -0.4964 -0.1433
 6212SOL    HW120056   5.226   3.922   7.272  0.8728 -1.2356 -1.6577
 6212SOL    HW220057   5.290   4.038   7.344  0.1257 -2.1183  0.5325
 6213SOL     OW20058   0.042   2.844   8.019 -0.3754 -0.0143 -0.2426
 6213SOL    HW120059   0.003   2.916   8.067 -0.7135 -0.2518 -0.1643
 6213SOL    HW220060   0.136   2.850   8.039 -0.3501  0.6288 -0.5370
 6214SOL     OW20061   6.337   5.973   5.978 -0.5319  0.1944 -0.0583
 6214SOL    HW120062   6.413   5.924   6.010  0.6108  2.1433  0.3560
 6214SOL    HW220063   6.330   5.950   5.886  0.4614 -0.1228 -0.0607
 6215SOL     OW20064   2.473   6.447   6.525  0.3338 -0.6030  0.2761
 6215SOL    HW120065   2.422   6.480   6.450  2.5138  2.2995 -0.1069
 6215SOL    HW220066   2.540   6.391   6.485  1.8089  1.3432 -0.1160
 6216SOL     OW20067   3.947   2.460   1.443 -0.1885 -0.1464  0.4904
 6216SOL    HW120068   3.918   2.445   1.353  3.7173  0.1583 -1.0338
 6216SOL    HW220069   3.957   2.372   1.480 -0.5851 -0.3288  0.1717
 6217SOL     OW20070   0.535   6.847   6.677  0.2716 -0.5004  0.1687
 6217SOL    HW120071   0.461   6.807   6.630 -0.2609  1.4586 -0.8060
 6217SOL    HW220072   0.581   6.897   6.609  0.9611  0.3996  1.2727
 6218SOL     OW20073   7.786   5.147   1.836  0.2972 -0.2350  0.1110
 6218SOL    HW120074   7.879   5.143   1.858  0.3456  1.1686  0.2273
 6218SOL    HW220075   7.762   5.239   1.847 -0.6080 -0.1646 -1.9805
 6219SOL     OW20076   3.021   1.284   4.210 -0.4269  0.4177  0.6530
 6219SOL    HW120077   3.070   1.251   4.285  1.1311 -0.7851 -0.8238
 6219SOL    HW220078   2.998   1.374   4.235  0.4046  0.1939  2.3927
 6220SOL     OW20079   6.799   3.433   5.283  0.2601 -0.1296 -0.1706
 6220SOL    HW120080   6.807   3.403   5.374 -0.5174 -1.2711 -0.4542
 6220SOL    HW220081   6.819   3.355   5.230 -1.3664 -0.0588 -0.9476
 6221SOL     OW20082   5.787   1.586   1.814  0.5982 -0.8520  0.5505
 6221SOL    HW120083   5.697   1.616   1.818  0.1588 -1.7484 -1.4215
 6221SOL    HW220084   5.812   1.571   1.905 -0.7210  0.8221  1.2310
 6222SOL     OW20085   4.842   0.654   1.680 -0.9364  0.1702  0.2059
 6222SOL    HW120086   4.783   0.585   1.648 -0.2372 -0.5418  0.4252
 6222SOL    HW220087   4.784   0.713   1.730 -1.6597  0.1382 -0.5772
 6223SOL     OW20088   0.421   2.226   5.541 -0.5103 -0.2752 -0.2979
 6223SOL    HW120089   0.438   2.298   5.601  1.2444 -1.0423  0.1910
 6223SOL    HW220090   0.377   2.160   5.593 -1.8252  0.2845 -0.6664
 6224SOL     OW20091   4.806   4.463   5.018 -0.2110 -0.0871  0.1701
 6224SOL    HW120092   4.728   4.427   4.976  1.2250  0.1748 -3.0242
 6224SOL    HW220093   4.822   4.545   4.970  2.0172 -0.1579  0.7180
 6225SOL     OW20094   6.599   7.961   1.191 -0.2222  0.3444  0.0847
 6225SOL    HW120095   6.541   7.957   1.267 -0.1878  0.6373  0.1304
 6225SOL    HW220096   6.540   7.956   1.116 -0.4624  2.0580  0.1169
 6226SOL     OW20097   5.009   5.530   1.432  0.0879  0.2271  0.0965
 6226SOL    HW120098   4.949   5.465   1.395 -0.1099 -0.8174  2.0886
 6226SOL    HW220099   5.095   5.488   1.429  0.0963  0.1949  0.5954
 6227SOL     OW20100   0.581   3.973   1.931  0.1672 -0.5785 -0.1879
 6227SOL    HW120101   0.601   3.965   2.024 -2.6309 -0.4073  0.5141
 6227SOL    HW220102   0.542   4.060   1.922  0.2662 -0.6510 -1.5068
 6228SOL     OW20103   7.901   8.023   5.864  0.6430 -0.1426 -0.2994
 6228SOL    HW120104   7.897   8.043   5.958 -1.3245 -1.5700 -0.0266
 6228SOL    HW220105   7.810   8.014   5.837  1.2093 -2.0433 -1.8117
 6229SOL     OW20106   1.284   1.170   3.794 -0.5479  0.0638  0.0400
 6229SOL    HW120107   1.195   1.163   3.760 -0.6941  0.6438  0.2676
 6229SOL    HW220108   1.272   1.187   3.888 -0.1771 -0.6499  0.2256
 6230SOL     OW20109   7.182   6.275   8.141 -0.3427 -0.4368 -0.3501
 6230SOL    HW120110   7.264   6.228   8.123  0.7818  0.7689  1.2516
 6230SOL    HW220111   7.184   6.290   8.236 -2.5377 -0.5294 -0.2462
 6231SOL     OW20112   4.597   0.710   1.407 -0.6644 -0.2873 -0.7909
 6231SOL    HW120113   4.517   0.659   1.424 -0.2316 -0.9747 -0.7896
 6231SOL    HW220114   4.565   0.799   1.393 -1.2592 -0.0389  1.5901
 6232SOL     OW20115   0.966   0.202   5.278 -0.1498  0.4817 -0.0660
 6232SOL    HW120116   0.949   0.177   5.187  0.0803  1.0335 -0.2645
 6232SOL    HW220117   1.010   0.287   5.272 -2.2925  1.7148  0.6584
 6233SOL     OW20118   6.947   0.217   4.537  0.1674  0.8378  0.1158
 6233SOL    HW120119   6.980   0.305   4.523 -0.4996  1.3962  1.7902
 6233SOL    HW220120   6.995   0.186   4.614  0.6513 -0.4215 -0.6544
 6234SOL     OW20121   4.946   5.093   6.765  0.1678  0.1393 -0.1998
 6234SOL    HW120122   4.917   5.148   6.838 -0.0184 -0.5424  0.2494
 6234SOL    HW220123   4.889   5.117   6.692  0.8229  1.3435 -0.3440
 6235SOL     OW20124   5.456   6.807   6.408 -0.3062  0.0540  0.6445
 6235SOL    HW120125   5.368   6.814   6.371  0.0934 -0.0836 -0.3431
 6235SOL    HW220126   5.480   6.896   6.431 -0.0409  0.3360 -0.6544
 6236SOL     OW20127   6.060   5.782   5.218  0.4682 -0.1674  0.4475
 6236SOL    HW120128   6.007   5.742   5.287 -0.6577  2.5625  1.3162
 6236SOL    HW220129   5.996   5.824   5.161  1.5591  1.0074  0.0339
 6237SOL     OW20130   0.587   3.998   1.221  0.5358 -0.5454 -0.2264
 6237SOL    HW120131   0.588   3.943   1.143 -1.6874  0.0838 -0.7562
 6237SOL    HW220132   0.547   3.943   1.288  0.4290 -0.3522 -0.1309
 6238SOL     OW20133   4.202   8.134   5.852 -0.0981 -0.0938 -0.3379
 6238SOL    HW120134   4.137   8.166   5.915 -0.6824  1.4226 -1.6448
 6238SOL    HW220135   4.206   8.039   5.868  0.3993  0.3270  2.4851
 6239SOL     OW20136   2.593   2.332   5.914  0.1809  0.2833  0.3383
 6239SOL    HW120137   2.540   2.256   5.890 -2.2681  1.6034  1.2785
 6239SOL    HW220138   2.539   2.408   5.890  0.5828  1.6952  3.4393
 6240SOL     OW20139   2.789   6.129   1.478 -0.4857 -0.2439 -0.3540
 6240SOL    HW120140   2.804   6.217   1.512 -0.4755 -0.3736 -0.0220
 6240SOL    HW220141   2.822   6.132   1.388 -0.1390 -0.0111 -0.2226
 6241SOL     OW20142   3.153   7.166   7.404  0.1206  0.6657  0.0989
 6241SOL    HW120143   3.125   7.123   7.485  1.3739  1.0526  0.7619
 6241SOL    HW220144   3.122   7.108   7.334 -3.2544  1.5823  0.6609
 6242SOL     OW20145   1.332   6.665   7.051  0.1616 -0.1985 -0.2509
 6242SOL    HW120146   1.391   6.740   7.040  0.2098 -0.2778 -0.5405
 6242SOL    HW220147   1.333   6.649   7.145  1.0278 -0.5320 -0.3031
 6243SOL     OW20148   7.747   3.037   6.268  0.4678 -0.1370  0.8856
 6243SOL    HW120149   7.838   3.022   6.291  0.7962  0.3075 -0.0441
 6243SOL    HW220150   7.751   3.083   6.184 -0.5885  0.8477  1.3543
 6244SOL     OW20151   6.395   2.185   1.591 -0.0865 -0.3013 -0.1604
 6244SOL    HW120152   6.350   2.244   1.651 -0.5281 -0.4272 -0.3654
 6244SOL    HW220153   6.403   2.103   1.640 -0.4920 -0.4195 -0.2928
 6245SOL     OW20154   6.065   0.281   0.869 -0.2114  0.7716 -0.0084
 6245SOL    HW120155   6.134   0.278   0.803 -0.0277  0.1246  0.2072
 6245SOL    HW220156   6.064   0.193   0.907 -1.8434  0.4507 -0.7204
 6246SOL     OW20157   1.999   1.447   0.491  0.7355  0.6553 -0.1056
 6246SOL    HW120158   2.058   1.376   0.468  1.2674  0.9657  0.2986
 6246SOL    HW220159   1.918   1.403   0.519  0.9384  0.2239 -0.1913
 6247SOL     OW20160   4.881   1.530   5.270  0.1868 -0.2095 -0.0464
 6247SOL    HW120161   4.836   1.597   5.219  0.4042  0.2810  0.3872
 6247SOL    HW220162   4.913   1.467   5.206  0.7528  0.5739 -0.5394
 6248SOL     OW20163   3.134   4.753   3.562 -0.1567 -0.1027  0.0747
 6248SOL    HW120164   3.089   4.782   3.641 -2.2333 -0.8292 -0.7594
 6248SOL    HW220165   3.227   4.763   3.582 -0.6569  2.1854  1.6323
 6249SOL     OW20166   3.871   5.667   4.352  0.3241  0.5762 -0.3045
 6249SOL    HW120167   3.810   5.739   4.367 -0.8536 -0.1853 -1.3239
 6249SOL    HW220168   3.919   5.659   4.435 -1.3908  0.7740  0.7407
 6250SOL     OW20169   0.422   6.507   6.087 -0.1138  0.0979 -0.0137
 6250SOL    HW120170   0.503   6.503   6.138 -0.4635 -2.0211  0.4782
 6250SOL    HW220171   0.356   6.466   6.144 -1.0987  0.0668 -1.1445
 6251SOL     OW20172   6.753   5.998   6.497  0.7802  0.1423  0.2099
 6251SOL    HW120173   6.717   5.910   6.490  0.6078  0.2383 -0.1428
 6251SOL    HW220174   6.806   5.996   6.577 -0.6811  0.2254  1.2309
 6252SOL     OW20175   4.614   2.824   5.771  0.4342 -0.2755  0.0119
 6252SOL    HW120176   4.665   2.867   5.702  0.9664  0.4534  0.8431
 6252SOL    HW220177   4.652   2.736   5.778 -0.0985 -0.6122 -1.1064
 6253SOL     OW20178   3.756   4.312   3.348 -0.0229  0.1959 -0.1696
 6253SOL    HW120179   3.666   4.333   3.325  0.4161  0.2164 -2.0431
 6253SOL    HW220180   3.800   4.300   3.264  1.2750 -1.7912  0.7102
 6254SOL     OW20181   2.448   7.568   2.144  0.1299 -0.4825  0.4362
 6254SOL    HW120182   2.421   7.514   2.070  0.1432 -1.4243  1.0962
 6254SOL    HW220183   2.427   7.657   2.118 -2.2606 -1.0229  0.3068
 6255SOL     OW20184   2.865   8.002   6.828  0.1258 -0.1842  0.4053
 6255SOL    HW120185   2.877   8.006   6.923  2.5878  0.6294  0.1302
 6255SOL    HW220186   2.893   8.088   6.797  0.2274 -0.7592 -1.1403
 6256SOL     OW20187   5.382   0.398   2.818  0.1589  0.3046 -0.3317
 6256SOL    HW120188   5.454   0.452   2.784  2.2606 -0.7905  2.0129
 6256SOL    HW220189   5.334   0.456   2.878  0.8708  0.3075  0.2554
 6257SOL     OW20190   6.985   3.021   7.214 -0.1123 -0.2948  0.1174
 6257SOL    HW120191   6.961   2.931   7.190 -0.1246  0.2259 -2.0094
 6257SOL    HW220192   6.959   3.074   7.139  0.1812  1.4731  1.1953
 6258SOL     OW20193   6.520   1.967   3.551  0.3821  0.1384  0.4022
 6258SOL    HW120194   6.516   1.904   3.479  0.9867  1.0478 -0.4531
 6258SOL    HW220195   6.612   1.995   3.554  0.2566  0.4965  1.1950
 6259SOL     OW20196   6.823   2.660   2.968 -0.0032 -0.0371  0.1680
 6259SOL    HW120197   6.822   2.577   2.920 -2.8963  0.8107 -1.4328
 6259SOL    HW220198   6.839   2.726   2.901  0.1235  0.8768  1.0826
 6260SOL     OW20199   1.172   4.110   1.060 -0.0244 -0.1163  0.6262
 6260SOL    HW120200   1.121   4.191   1.058 -0.6560 -0.5224  0.0150
 6260SOL    HW220201   1.229   4.116   0.983  1.7870  0.9055  1.9632
 6261SOL     OW20202   2.585   6.991   7.384  0.5032 -0.1096  0.4668
 6261SOL    HW120203   2.522   6.951   7.443  1.2144 -0.6348  0.8892
 6261SOL    HW220204   2.660   7.014   7.440  1.6066 -1.5121 -0.3516
 6262SOL     OW20205   1.707   0.424   8.207  0.0551 -0.2247  0.1514
 6262SOL    HW120206   1.790   0.379   8.195 -0.4186 -1.5465  1.4843
 6262SOL    HW220207   1.643   0.354   8.218 -1.0664  0.7690  0.2213
 6263SOL     OW20208   1.301   0.889   3.692 -0.5464 -0.4209 -0.8047
 6263SOL    HW120209   1.294   0.983   3.678 -1.3071 -0.5906 -1.6469
 6263SOL    HW220210   1.226   0.867   3.747 -0.7527 -0.6370 -1.1689
 6264SOL     OW20211   8.295   0.945   1.891  0.0409 -0.0681 -0.2690
 6264SOL    HW120212   8.336   0.887   1.827 -0.1654 -0.2561 -0.2348
 6264SOL    HW220213   8.209   0.965   1.853  0.6090  1.2793 -0.9055
 6265SOL     OW20214   3.802   6.929   8.230 -0.0920 -0.4039  0.0263
 6265SOL    HW120215   3.760   6.940   8.315 -0.1352 -0.3664 -0.0004
 6265SOL    HW220216   3.889   6.970   8.242 -0.7268  1.1743 -0.4600
 6266SOL     OW20217   0.998   1.110   6.892  0.4510  0.1046  0.6451
 6266SOL    HW120218   1.035   1.198   6.898  1.1382 -0.1292 -0.0067
 6266SOL    HW220219   0.975   1.088   6.982 -2.9629  2.2844  0.4746
 6267SOL     OW20220   1.366   3.394   0.240 -0.3335  0.1565  0.3999
 6267SOL    HW120221   1.367   3.433   0.153  0.6394 -0.5566  0.0771
 6267SOL    HW220222   1.293   3.438   0.285 -0.3035  1.1435 -0.4778
 6268SOL     OW20223   6.806   1.347   1.698 -0.3394 -0.1494  0.2155
 6268SOL    HW120224   6.877   1.352   1.763  0.0271 -0.2012 -0.1760
 6268SOL    HW220225   6.789   1.253   1.689 -0.2119 -0.1559  0.0446
 6269SOL     OW20226   8.107   1.956   4.973 -0.4513 -0.0999 -0.2478
 6269SOL    HW120227   8.041   1.999   5.027 -1.2443 -1.7364  0.1478
 6269SOL    HW220228   8.099   1.863   4.995  1.4475 -0.4339 -0.7913
 6270SOL     OW20229   5.351   1.027   1.539  0.3998  0.5131  0.0856
 6270SOL    HW120230   5.332   0.935   1.519  0.9469  0.4693 -0.2682
 6270SOL    HW220231   5.270   1.073   1.519  0.5974  0.3183 -1.2850
 6271SOL     OW20232   1.336   0.591   0.827  0.7994 -0.5645  0.2282
 6271SOL    HW120233   1.278   0.551   0.762  1.2693 -0.0938 -0.4987
 6271SOL    HW220234   1.416   0.613   0.778  0.3059  1.8876  0.3973
 6272SOL     OW20235   1.500   4.327   2.357 -0.0288 -0.0229 -0.6867
 6272SOL    HW120236   1.453   4.268   2.299  1.5302  0.2292 -2.2943
 6272SOL    HW220237   1.529   4.272   2.430  0.7822 -1.1320 -1.8004
 6273SOL     OW20238   0.178   1.167   1.457 -0.1959  0.7577  0.3384
 6273SOL    HW120239   0.105   1.187   1.398 -1.0840 -1.2706  0.6816
 6273SOL    HW220240   0.137   1.132   1.536  1.1431 -0.8430  0.3658
 6274SOL     OW20241   5.668   0.931   0.051  0.0082  0.9746  0.7218
 6274SOL    HW120242   5.675   0.841   0.085 -1.5383  0.1084 -1.0748
 6274SOL    HW220243   5.605   0.974   0.109 -1.4039 -0.0100 -0.0105
 6275SOL     OW20244   1.513   0.022   2.948 -0.2416 -0.1946 -0.5781
 6275SOL    HW120245   1.574  -0.052   2.952 -0.9284 -0.7609 -0.4241
 6275SOL    HW220246   1.442  -0.009   2.893 -1.2184 -0.1760  0.6181
 6276SOL     OW20247   4.602   0.881   5.988  0.4652 -0.1289  0.1185
 6276SOL    HW120248   4.599   0.969   5.950 -0.2537 -0.4537 -0.6013
 6276SOL    HW220249   4.691   0.850   5.968  0.3185 -0.0367 -0.7236
 6277SOL     OW20250   1.697   8.031   4.478  0.4923  0.0449  0.3529
 6277SOL    HW120251   1.726   8.119   4.454  1.4975 -0.4497 -0.3340
 6277SOL    HW220252   1.750   8.008   4.554 -0.1684  0.2471  0.8762
 6278SOL     OW20253   3.020   0.905   0.039  0.0764  0.2295  0.3494
 6278SOL    HW120254   2.953   0.865  -0.017  0.4705  3.3523 -2.6084
 6278SOL    HW220255   3.056   0.976  -0.013  3.9908  0.3127  2.8130
 6279SOL     OW20256   6.068   3.815   2.121 -1.0614 -0.0390  0.2559
 6279SOL    HW120257   6.062   3.742   2.059  1.5920 -0.3131  0.1833
 6279SOL    HW220258   6.052   3.893   2.068 -0.1850 -0.3709 -0.5332
 6280SOL     OW20259   1.419   0.220   1.617  0.4961 -0.1128 -0.4770
 6280SOL    HW120260   1.343   0.226   1.674  0.9573  0.3744  0.0984
 6280SOL    HW220261   1.463   0.140   1.645  0.5410 -0.0521 -0.3723
 6281SOL     OW20262   3.052   4.215   0.685  0.4429 -0.1143  0.6021
 6281SOL    HW120263   2.992   4.263   0.629  1.9030  1.2788  0.1528
 6281SOL    HW220264   3.003   4.137   0.712 -0.8499 -0.0171 -1.3047
 6282SOL     OW20265   1.395   3.338   5.526 -0.4584  0.0467  0.1733
 6282SOL    HW120266   1.392   3.243   5.517 -0.9239 -0.2929  3.1087
 6282SOL    HW220267   1.488   3.359   5.519 -0.3589 -0.5976 -0.5900
 6283SOL     OW20268   6.296   0.358   2.831  0.9027  0.2428  0.2741
 6283SOL    HW120269   6.219   0.373   2.776  0.7697 -2.1408 -0.2779
 6283SOL    HW220270   6.263   0.311   2.908  1.9532 -2.5023 -0.8236
 6284SOL     OW20271   1.630   5.372   6.640 -0.2629  0.1329 -0.8232
 6284SOL    HW120272   1.608   5.464   6.651  0.6818  0.2948 -0.1927
 6284SOL    HW220273   1.710   5.360   6.691 -1.2220 -1.3894  0.4332
 6285SOL     OW20274   4.002   1.776   2.375  0.1611  0.0639  0.4636
 6285SOL    HW120275   3.916   1.745   2.345  0.4976  0.1286 -0.6144
 6285SOL    HW220276   3.996   1.871   2.367  0.8101  0.0138 -1.0679
 6286SOL     OW20277   1.819   0.213   3.090  0.0144 -0.0346 -0.1258
 6286SOL    HW120278   1.870   0.138   3.058  0.0613 -0.2311  0.3945
 6286SOL    HW220279   1.754   0.174   3.148  0.2670  0.3558  0.4296
 6287SOL     OW20280   5.469   5.702   1.081 -0.1267 -0.8437  0.8450
 6287SOL    HW120281   5.463   5.693   1.176 -1.8889  0.8930  0.9802
 6287SOL    HW220282   5.385   5.741   1.056  0.8170 -0.0196 -1.2640
 6288SOL     OW20283   3.147   2.036   6.991  0.3238 -0.0116  0.5600
 6288SOL    HW120284   3.106   2.029   6.904  0.9702 -0.1861  0.2606
 6288SOL    HW220285   3.235   2.067   6.972  0.9649 -1.4957  1.0314
 6289SOL     OW20286   7.704   2.668   1.198  0.3185  0.1529 -0.0226
 6289SOL    HW120287   7.693   2.665   1.293 -0.7026 -1.1633 -0.1639
 6289SOL    HW220288   7.790   2.631   1.182  0.0540 -0.6144  0.3229
 6290SOL     OW20289   6.188   0.715   2.339  0.0715 -0.4745  0.2924
 6290SOL    HW120290   6.245   0.791   2.339  0.5543 -0.7492 -2.1844
 6290SOL    HW220291   6.104   0.747   2.309  0.5668 -1.0089 -1.8668
 6291SOL     OW20292   1.817   2.528   1.487  0.1756 -0.2046  0.2199
 6291SOL    HW120293   1.748   2.465   1.466 -0.3929  0.7385 -0.9112
 6291SOL    HW220294   1.891   2.475   1.516  0.5538 -1.6506 -2.9266
 6292SOL     OW20295   5.189   4.526   4.864 -0.2725  0.0782 -0.3085
 6292SOL    HW120296   5.232   4.563   4.787 -0.1881  1.0875  0.2142
 6292SOL    HW220297   5.167   4.601   4.918  0.6098 -0.6826  1.1563
 6293SOL     OW20298   2.946   0.717   5.201 -0.4003 -0.3044  0.0642
 6293SOL    HW120299   2.867   0.722   5.148 -0.1605  1.2065 -0.2024
 6293SOL    HW220300   2.994   0.642   5.165 -1.4226 -0.8686 -0.1603
 6294SOL     OW20301   4.820   1.616   7.625 -0.5705  0.9420  0.1769
 6294SOL    HW120302   4.859   1.682   7.682 -0.7314 -0.1663  1.6384
 6294SOL    HW220303   4.749   1.578   7.677 -0.1039 -0.7812 -0.3602
 6295SOL     OW20304   2.152   5.117   5.452  0.1736 -0.2883 -0.2409
 6295SOL    HW120305   2.205   5.108   5.373 -2.0535 -0.0615 -1.8501
 6295SOL    HW220306   2.110   5.202   5.442  1.8793  1.0315  2.5805
 6296SOL     OW20307   7.284   2.419   0.994  0.4905  0.0021 -0.3130
 6296SOL    HW120308   7.352   2.418   1.061  0.5797  0.0345 -0.4033
 6296SOL    HW220309   7.296   2.338   0.945 -0.9091 -1.0769  1.0456
 6297SOL     OW20310   7.442   0.375   4.848  0.2453 -0.5570  0.0276
 6297SOL    HW120311   7.457   0.295   4.797  2.3533  0.0271 -0.3249
 6297SOL    HW220312   7.424   0.442   4.783  4.2767  0.5039 -0.2520
 6298SOL     OW20313   1.360   3.096   0.223  0.1937 -0.1270 -0.2283
 6298SOL    HW120314   1.391   3.187   0.221 -0.6610  0.1820  0.0826
 6298SOL    HW220315   1.421   3.049   0.167  0.9591  0.5419  0.0217
 6299SOL     OW20316   4.964   4.326   7.254  0.2697 -0.2251  0.1721
 6299SOL    HW120317   4.892   4.362   7.201 -1.2691 -2.0400  0.9123
 6299SOL    HW220318   4.961   4.376   7.335 -1.1514 -1.1992  0.7692
 6300SOL     OW20319   0.388   0.407   7.177  0.8679  0.1075 -0.3900
 6300SOL    HW120320   0.473   0.393   7.218  1.7889  1.5998 -1.6351
 6300SOL    HW220321   0.325   0.404   7.249  1.6519 -3.1884  0.2935
 6301SOL     OW20322   5.525   1.945   4.258  0.1243  0.1491  0.4459
 6301SOL    HW120323   5.509   1.874   4.195  0.8875  1.1715 -0.9427
 6301SOL    HW220324   5.460   1.929   4.327 -1.0221 -0.7963 -0.7676
 6302SOL     OW20325   8.155   5.395   3.667 -0.1789 -0.1476 -0.3777
 6302SOL    HW120326   8.185   5.307   3.688 -0.8548 -0.2712  0.0836
 6302SOL    HW220327   8.083   5.411   3.728  0.4916  1.0530  0.1422
 6303SOL     OW20328   6.643   8.054   3.966  0.7195 -0.3078  0.2097
 6303SOL    HW120329   6.579   8.120   3.994  1.0576 -0.3750  1.2014
 6303SOL    HW220330   6.667   8.009   4.047  0.4336 -1.7129 -0.4520
 6304SOL     OW20331   1.783   7.856   1.267 -0.3769 -0.2227  0.2220
 6304SOL    HW120332   1.815   7.772   1.300 -2.6996 -1.2446  0.0869
 6304SOL    HW220333   1.772   7.842   1.173  1.6890  1.1429 -0.2913
 6305SOL     OW20334   7.315   6.677   6.740 -0.0116 -0.4396 -0.6598
 6305SOL    HW120335   7.332   6.667   6.834 -3.3634 -0.5797  0.0695
 6305SOL    HW220336   7.358   6.759   6.717  2.7934 -1.4883  0.3809
 6306SOL     OW20337   5.782   5.468   6.787 -0.0907 -0.2492 -0.2848
 6306SOL    HW120338   5.797   5.547   6.840 -0.7903 -0.7812  0.7482
 6306SOL    HW220339   5.729   5.411   6.844  1.2576 -1.8928 -0.5873
 6307SOL     OW20340   7.613   6.188   6.812  0.1132 -0.2336 -0.3708
 6307SOL    HW120341   7.627   6.257   6.747 -2.5245  0.0293 -0.7420
 6307SOL    HW220342   7.686   6.127   6.798  2.7007  2.4971  0.1255
 6308SOL     OW20343   3.820   5.298   8.254  0.5443 -0.0021  0.4184
 6308SOL    HW120344   3.890   5.362   8.259  1.1703 -0.7162  1.1297
 6308SOL    HW220345   3.855   5.221   8.299  0.2185 -1.2109 -1.2894
 6309SOL     OW20346   3.364   4.013   7.467  0.3347  0.5584  0.2931
 6309SOL    HW120347   3.351   4.107   7.474  0.4457  0.5037  1.5799
 6309SOL    HW220348   3.415   3.990   7.545 -1.0069 -0.7812  0.8494
 6310SOL     OW20349   6.267   2.020   7.435  0.5362 -0.3177 -0.1867
 6310SOL    HW120350   6.263   1.945   7.376 -1.9341  0.2414 -0.8359
 6310SOL    HW220351   6.343   2.002   7.492 -0.5428 -3.8147  0.3915
 6311SOL     OW20352   6.951   7.613   1.305  0.8670  0.2567  0.7550
 6311SOL    HW120353   6.893   7.653   1.240  0.2717 -1.7962 -0.0771
 6311SOL    HW220354   6.980   7.686   1.360 -0.0438  1.7976 -0.7062
 6312SOL     OW20355   7.074   4.199   5.803  1.1670 -0.7972 -0.2482
 6312SOL    HW120356   7.105   4.166   5.887  0.0261 -0.9113  0.1496
 6312SOL    HW220357   7.040   4.286   5.822  0.4406 -1.0217 -0.4878
 6313SOL     OW20358   2.305   3.391   6.387  0.8684  0.5689 -0.1476
 6313SOL    HW120359   2.349   3.461   6.437  0.4775 -0.3439  1.5728
 6313SOL    HW220360   2.371   3.321   6.383 -0.1262 -0.6156  2.0159
 6314SOL     OW20361   6.429   4.847   0.917  0.4052  0.3388  0.1007
 6314SOL    HW120362   6.483   4.894   0.853  1.3352  1.0309  1.3535
 6314SOL    HW220363   6.410   4.763   0.875  0.6598  0.9155 -1.2327
 6315SOL     OW20364   1.979   4.082   5.947  0.3253 -0.0347  0.9205
 6315SOL    HW120365   2.024   4.103   6.029 -1.9818  1.2116  1.9595
 6315SOL    HW220366   1.915   4.015   5.971 -0.6178  0.5927  0.2338
 6316SOL     OW20367   5.186   2.293   5.723 -0.2430  0.3774 -0.1182
 6316SOL    HW120368   5.268   2.243   5.727 -0.9903 -1.0158 -1.0478
 6316SOL    HW220369   5.191   2.353   5.797  2.4658  1.7300 -1.2652
 6317SOL     OW20370   5.971   1.004   1.789  0.1739 -0.2874 -0.5750
 6317SOL    HW120371   6.013   0.945   1.852  0.6478 -0.2305 -0.8370
 6317SOL    HW220372   6.042   1.033   1.732 -0.0964  0.3651 -0.5871
 6318SOL     OW20373   0.747   6.754   5.073  0.7232  0.3036  0.3258
 6318SOL    HW120374   0.794   6.780   4.994 -1.3960 -0.3468 -1.2332
 6318SOL    HW220375   0.677   6.818   5.083  0.6552  0.0898  1.4085
 6319SOL     OW20376   2.313   7.780   2.918  0.4975 -0.4273  0.2104
 6319SOL    HW120377   2.364   7.712   2.873 -0.5869 -0.5109 -0.9395
 6319SOL    HW220378   2.341   7.862   2.877  0.5798 -0.3457  0.4264
 6320SOL     OW20379   1.020   1.712   5.999  0.1420  0.5777  0.2716
 6320SOL    HW120380   1.024   1.643   6.065 -1.1362 -0.6117 -0.8175
 6320SOL    HW220381   0.926   1.730   5.988  0.2388  0.0870 -1.8045
 6321SOL     OW20382   0.580   6.217   4.148 -0.1129 -0.3040 -0.0022
 6321SOL    HW120383   0.641   6.145   4.132 -0.2368 -1.1677  2.7973
 6321SOL    HW220384   0.504   6.176   4.190 -1.7407  1.0490 -1.4251
 6322SOL     OW20385   3.305   1.077   1.527  0.3351 -0.6650 -0.1013
 6322SOL    HW120386   3.292   0.982   1.520 -0.2185 -0.4808 -2.5322
 6322SOL    HW220387   3.227   1.115   1.487 -0.3830  0.9260  2.5867
 6323SOL     OW20388   3.905   4.085   4.143  0.1256  0.3687 -0.0862
 6323SOL    HW120389   3.978   4.120   4.092  1.2024  1.5230  2.1363
 6323SOL    HW220390   3.947   4.035   4.213 -1.3058 -0.7880 -0.0109
 6324SOL     OW20391   0.123   0.828   3.233  0.0212  0.1770 -0.1426
 6324SOL    HW120392   0.105   0.737   3.209  0.4216  0.0135  0.1680
 6324SOL    HW220393   0.084   0.838   3.320 -1.1921  0.6928 -0.7184
 6325SOL     OW20394   7.167   6.788   8.339  0.9280  0.3949 -0.2316
 6325SOL    HW120395   7.155   6.838   8.419  0.9518 -1.0552  0.7054
 6325SOL    HW220396   7.091   6.730   8.335  0.7985  0.6115 -1.4087
 6326SOL     OW20397   4.294   1.777   0.303  0.3049 -0.4771 -0.1518
 6326SOL    HW120398   4.266   1.756   0.214 -0.3464  0.4409 -0.1778
 6326SOL    HW220399   4.214   1.809   0.346  0.6752 -0.6532  0.6808
 6327SOL     OW20400   1.367   0.359   0.081 -0.1273  0.1514  0.2948
 6327SOL    HW120401   1.429   0.338   0.150 -0.2667  2.8310  1.3811
 6327SOL    HW220402   1.281   0.339   0.118 -0.3577  3.3740  1.8218
 6328SOL     OW20403   2.468   7.969   0.938 -0.1859  0.1098  0.6600
 6328SOL    HW120404   2.391   7.911   0.944 -0.4620  0.5886  3.4597
 6328SOL    HW220405   2.432   8.057   0.950  0.5738  0.5909 -0.4393
 6329SOL     OW20406   6.988   6.920   5.059  0.1570  0.5319  0.1023
 6329SOL    HW120407   7.016   6.954   4.974 -2.1196  1.6729 -0.2722
 6329SOL    HW220408   7.038   6.839   5.070  1.1939  0.8364 -1.8747
 6330SOL     OW20409   6.536   3.433   3.229  0.0277 -0.1953 -0.4848
 6330SOL    HW120410   6.447   3.458   3.256  0.5508  0.2866  0.8980
 6330SOL    HW220411   6.547   3.475   3.143 -0.9027  0.1615 -0.4476
 6331SOL     OW20412   8.134   0.137   2.595 -0.0722 -0.1228  0.0117
 6331SOL    HW120413   8.059   0.093   2.555  0.4373 -0.3203 -0.7320
 6331SOL    HW220414   8.157   0.207   2.534  0.6916 -0.4056 -0.0393
 6332SOL     OW20415   2.109   5.106   7.911 -0.3965 -0.0921  0.5170
 6332SOL    HW120416   2.200   5.096   7.940 -0.5468  1.0566  1.4857
 6332SOL    HW220417   2.078   5.016   7.898  0.5918 -0.5384  1.0829
 6333SOL     OW20418   6.505   5.441   3.848 -0.5046 -0.1911 -0.1722
 6333SOL    HW120419   6.420   5.410   3.818 -0.9801  1.2414 -0.3831
 6333SOL    HW220420   6.484   5.510   3.912  0.4625  1.1281 -1.2221
 6334SOL     OW20421   6.765   6.030   5.391  0.2387 -0.1690  0.0827
 6334SOL    HW120422   6.690   6.087   5.412  0.1267 -0.3958  0.3046
 6334SOL    HW220423   6.832   6.090   5.358  0.0946  0.0833  0.2458
 6335SOL     OW20424   3.020   2.456   8.008  0.2311 -0.3880  0.1651
 6335SOL    HW120425   3.069   2.379   7.978  0.4032  0.0547 -0.7153
 6335SOL    HW220426   3.017   2.446   8.104  2.2853 -0.2934  0.2994
 6336SOL     OW20427   5.763   2.474   0.783  0.2283  0.4018  0.2270
 6336SOL    HW120428   5.830   2.534   0.818  0.3288  1.1945 -1.2254
 6336SOL    HW220429   5.757   2.498   0.691 -2.1880  0.4486  0.3405
 6337SOL     OW20430   0.420   8.085   1.541  0.3377 -0.4826  0.2964
 6337SOL    HW120431   0.477   8.149   1.584 -0.7711  0.7669 -0.0272
 6337SOL    HW220432   0.416   8.113   1.450 -0.3426 -0.8697  0.1969
 6338SOL     OW20433   1.183   0.687   0.092 -0.7616 -0.0203  0.6490
 6338SOL    HW120434   1.149   0.597   0.097  1.5856 -0.9169  2.5624
 6338SOL    HW220435   1.264   0.684   0.143  0.9716  2.4828 -1.7394
 6339SOL     OW20436   4.594   2.775   8.058  0.5320 -0.4715  0.1644
 6339SOL    HW120437   4.635   2.862   8.064  0.5988 -0.5717  1.3013
 6339SOL    HW220438   4.500   2.793   8.052  0.5097 -0.3300  0.8981
 6340SOL     OW20439   1.684   0.640   0.014  0.2104  0.8085 -0.1559
 6340SOL    HW120440   1.675   0.569  -0.049 -3.2577 -0.6400  1.7288
 6340SOL    HW220441   1.738   0.603   0.084  1.6430  1.4342 -0.8931
 6341SOL     OW20442   6.663   3.763   3.254  0.6956  0.5019 -0.1378
 6341SOL    HW120443   6.583   3.732   3.212  2.1439 -0.9347 -2.0205
 6341SOL    HW220444   6.644   3.761   3.347 -1.0551 -1.0209 -0.4835
 6342SOL     OW20445   5.285   5.454   5.468  0.5163 -0.4610 -0.3139
 6342SOL    HW120446   5.342   5.530   5.484 -0.4503  0.1063  0.5345
 6342SOL    HW220447   5.275   5.414   5.554 -0.1469 -0.7132 -0.5072
 6343SOL     OW20448   3.908   4.572   0.074 -0.2900  0.1494  0.1858
 6343SOL    HW120449   3.998   4.593   0.051 -0.6688  1.2228 -0.3619
 6343SOL    HW220450   3.885   4.635   0.142 -1.0090  0.6971 -0.5413
 6344SOL     OW20451   1.776   2.513   0.785  0.5923 -0.2274  0.0532
 6344SOL    HW120452   1.699   2.534   0.838  1.7328 -0.0404  1.7105
 6344SOL    HW220453   1.743   2.454   0.717 -0.9882 -0.2192  0.7623
 6345SOL     OW20454   2.749   5.213   1.889  0.0031  0.2682 -0.3959
 6345SOL    HW120455   2.705   5.128   1.895  1.4963 -0.4323  1.4435
 6345SOL    HW220456   2.768   5.223   1.795 -0.1632 -1.4328 -0.6514
 6346SOL     OW20457   2.282   1.295   0.407 -0.0843 -0.0199  0.0378
 6346SOL    HW120458   2.349   1.257   0.349  1.3777 -0.5298  1.9702
 6346SOL    HW220459   2.212   1.229   0.407  0.5900 -0.7582  0.0753
 6347SOL     OW20460   6.661   6.070   3.089 -0.5322  0.0510 -0.2966
 6347SOL    HW120461   6.614   5.986   3.084 -1.8645  0.7775 -0.5413
 6347SOL    HW220462   6.687   6.088   2.999 -1.9501  0.7977 -0.5909
 6348SOL     OW20463   4.129   0.121   4.730  0.4635 -0.2492 -0.1358
 6348SOL    HW120464   4.109   0.214   4.724  1.2836  0.0418  1.2779
 6348SOL    HW220465   4.082   0.081   4.656  0.9282  1.4115 -1.3872
 6349SOL     OW20466   0.218   1.398   7.522 -0.3290  0.6348  0.4983
 6349SOL    HW120467   0.190   1.485   7.552  1.0200  1.5774 -0.7601
 6349SOL    HW220468   0.181   1.391   7.434  1.3967  0.9422 -0.2917
 6350SOL     OW20469   6.271   7.813   5.539  0.0772 -0.2681 -0.1536
 6350SOL    HW120470   6.310   7.746   5.483 -1.8873 -0.3362 -1.5211
 6350SOL    HW220471   6.257   7.770   5.623  0.5195 -0.9964 -0.4483
 6351SOL     OW20472   1.340   7.254   0.904  0.0059  0.2085  0.2787
 6351SOL    HW120473   1.424   7.219   0.876 -0.5162  0.2591 -1.4262
 6351SOL    HW220474   1.328   7.219   0.993  2.3560  1.2056  1.0660
 6352SOL     OW20475   2.929   7.058   2.943 -0.1945  0.1754  0.1637
 6352SOL    HW120476   2.851   7.061   2.999 -0.7941  1.0348 -0.6822
 6352SOL    HW220477   2.922   6.974   2.898  0.6238 -0.8212  1.7788
 6353SOL     OW20478   2.693   2.387   6.165 -0.1252 -0.0903 -0.1813
 6353SOL    HW120479   2.692   2.352   6.076  0.6010 -2.2650  0.5842
 6353SOL    HW220480   2.607   2.427   6.177 -0.3539 -0.0709 -1.7288
 6354SOL     OW20481   2.707   2.173   2.597  0.3305  0.3047 -0.3076
 6354SOL    HW120482   2.654   2.252   2.610 -0.4461 -0.0036 -1.4155
 6354SOL    HW220483   2.794   2.206   2.574 -0.1132  0.8623 -1.2640
 6355SOL     OW20484   3.046   5.318   7.898  0.5082  0.4154 -0.1083
 6355SOL    HW120485   3.088   5.237   7.926  0.6061  0.3598 -0.4214
 6355SOL    HW220486   3.013   5.300   7.810  0.3308  0.6415 -0.0887
 6356SOL     OW20487   6.534   4.271   7.903 -0.1361  0.0836  0.0000
 6356SOL    HW120488   6.562   4.234   7.987  0.1511 -1.5149 -0.7477
 6356SOL    HW220489   6.592   4.229   7.839 -0.1775  1.4654 -0.9789
 6357SOL     OW20490   3.910   3.516   1.154  0.3496  0.1143  0.7964
 6357SOL    HW120491   3.978   3.461   1.115  0.1257  0.2798  0.1586
 6357SOL    HW220492   3.846   3.529   1.083 -0.4713 -0.2439  1.4509
 6358SOL     OW20493   4.497   6.416   0.332 -0.4399  0.1946 -0.6922
 6358SOL    HW120494   4.498   6.406   0.427  0.1142  0.0646 -0.7079
 6358SOL    HW220495   4.405   6.402   0.307 -0.3620 -1.1582 -0.3224
 6359SOL     OW20496   0.117   7.168   1.760 -0.6484  0.3337 -0.1554
 6359SOL    HW120497   0.194   7.118   1.785 -1.7812 -1.1663  0.4634
 6359SOL    HW220498   0.128   7.253   1.804 -0.2685 -0.5543  1.5463
 6360SOL     OW20499   2.057   4.457   6.665 -0.2645  0.1435  0.3559
 6360SOL    HW120500   2.133   4.408   6.695 -1.5412 -1.2263  1.5216
 6360SOL    HW220501   2.015   4.488   6.745 -0.0789  2.3279 -0.3143
 6361SOL     OW20502   1.065   5.787   1.397 -0.2960  0.4140  1.1834
 6361SOL    HW120503   0.988   5.835   1.429 -0.0576  1.6677 -0.0419
 6361SOL    HW220504   1.102   5.747   1.476 -1.3219  1.0561  2.0285
 6362SOL     OW20505   5.242   5.579   0.132 -0.0337  0.0138  0.2149
 6362SOL    HW120506   5.323   5.565   0.082 -0.6644 -2.1826 -0.3227
 6362SOL    HW220507   5.272   5.587   0.222  0.8024 -0.8833  0.0422
 6363SOL     OW20508   7.119   3.418   4.459  0.3748 -0.2459  0.4827
 6363SOL    HW120509   7.049   3.353   4.456  2.2894 -2.4496  0.9305
 6363SOL    HW220510   7.152   3.413   4.549  1.1392  0.7669  0.2786
 6364SOL     OW20511   8.368   0.698   1.047 -0.1662  0.4797  0.3753
 6364SOL    HW120512   8.349   0.611   1.081  0.4321  0.6937  1.3127
 6364SOL    HW220513   8.381   0.685   0.953 -2.6320 -0.0049  0.0381
 6365SOL     OW20514   6.319   1.868   4.894  0.2586 -0.4056 -0.2091
 6365SOL    HW120515   6.280   1.807   4.832 -0.3761 -1.9710  1.6427
 6365SOL    HW220516   6.245   1.921   4.925  0.4962  0.0639 -0.4348
 6366SOL     OW20517   1.025   3.666   8.088  0.0029  0.2855 -0.3878
 6366SOL    HW120518   1.036   3.578   8.052 -0.7002 -0.8370  1.9132
 6366SOL    HW220519   1.114   3.694   8.111  0.1677 -0.1188 -0.5325
 6367SOL     OW20520   7.207   1.928   4.247 -0.1098  0.1792  0.4836
 6367SOL    HW120521   7.207   1.833   4.253  2.1149  0.1510  0.6461
 6367SOL    HW220522   7.139   1.948   4.182  1.0843 -1.6891 -1.4713
 6368SOL     OW20523   1.611   5.233   7.409  0.6608 -0.4240  0.1579
 6368SOL    HW120524   1.695   5.187   7.405  1.0018  0.2434 -0.7067
 6368SOL    HW220525   1.632   5.319   7.443  0.4932  0.0681 -0.9170
 6369SOL     OW20526   7.006   7.471   6.014 -0.6037 -0.4396 -0.0847
 6369SOL    HW120527   6.999   7.550   5.961 -0.4407 -0.8284 -0.6961
 6369SOL    HW220528   6.915   7.440   6.023 -0.8606  0.7007  1.5428
 6370SOL     OW20529   0.496   5.063   7.260  0.2698 -0.6565  0.0528
 6370SOL    HW120530   0.575   5.039   7.309  0.4657 -0.2914 -0.0805
 6370SOL    HW220531   0.432   5.084   7.328  0.1789 -1.2777  0.1673
 6371SOL     OW20532   7.304   3.285   6.254  0.4284 -0.0093  0.0206
 6371SOL    HW120533   7.313   3.345   6.180  2.2095  0.1283  0.2942
 6371SOL    HW220534   7.306   3.341   6.331  1.8343 -0.3575  0.2661
 6372SOL     OW20535   8.020   1.458   7.037  0.1823  0.4929  0.1690
 6372SOL    HW120536   8.098   1.500   7.075 -0.1826  1.9677 -0.6458
 6372SOL    HW220537   8.045   1.437   6.948 -0.5668  1.7023 -0.3563
 6373SOL     OW20538   6.492   6.318   6.674  0.1602 -0.5715 -0.3323
 6373SOL    HW120539   6.463   6.234   6.639 -2.0229 -0.1927  0.4101
 6373SOL    HW220540   6.531   6.297   6.759  0.3924 -0.9013 -0.5188
 6374SOL     OW20541   4.288   7.880   5.909  0.2965  0.0686  0.2381
 6374SOL    HW120542   4.376   7.902   5.940  0.4926  0.4221 -0.5557
 6374SOL    HW220543   4.297   7.870   5.815 -1.0625  3.1527 -0.3603
 6375SOL     OW20544   0.937   3.317   5.319 -0.0977  0.2110 -0.5512
 6375SOL    HW120545   0.991   3.269   5.382  0.4325 -0.4656 -1.4948
 6375SOL    HW220546   0.847   3.304   5.350 -0.4258 -4.5322 -2.6011
 6376SOL     OW20547   0.597   7.472   7.751 -0.5089 -0.3805  0.3307
 6376SOL    HW120548   0.549   7.501   7.829 -0.7128 -1.6820  0.7146
 6376SOL    HW220549   0.578   7.539   7.685  1.3475  1.9166  1.9362
 6377SOL     OW20550   8.278   1.217   5.943  0.5451  0.2788 -0.1456
 6377SOL    HW120551   8.184   1.224   5.923  0.2081 -0.0537  1.2446
 6377SOL    HW220552   8.307   1.308   5.953 -0.2915  0.3581  2.1936
 6378SOL     OW20553   6.644   1.924   7.861 -0.5991 -0.0225 -0.5780
 6378SOL    HW120554   6.658   1.917   7.955 -1.9744 -0.7401 -0.4006
 6378SOL    HW220555   6.724   1.891   7.821 -0.7148 -1.4883  0.3445
 6379SOL     OW20556   1.302   7.202   1.828  0.1998  0.2937 -0.0966
 6379SOL    HW120557   1.341   7.166   1.748  2.9910 -0.2148  1.3759
 6379SOL    HW220558   1.362   7.273   1.853 -1.0570  0.9520  1.1389
 6380SOL     OW20559   7.059   6.191   6.332  0.1763  0.7955  0.2436
 6380SOL    HW120560   7.094   6.102   6.328  0.6675  0.9113  1.5828
 6380SOL    HW220561   7.120   6.238   6.387 -0.3780  1.8371 -0.0121
 6381SOL     OW20562   4.159   1.794   4.514 -0.0719 -0.0320  0.2897
 6381SOL    HW120563   4.078   1.811   4.562  0.0313  2.3184 -0.2652
 6381SOL    HW220564   4.197   1.881   4.500  1.3939 -0.8989 -1.4398
 6382SOL     OW20565   3.084   7.347   5.239 -0.1291  0.0246  0.1988
 6382SOL    HW120566   3.061   7.321   5.328 -1.3174  1.4197  0.3488
 6382SOL    HW220567   3.112   7.267   5.196 -1.1130 -0.9669  1.3567
 6383SOL     OW20568   2.573   1.776   1.078 -0.5584  0.3064  0.1063
 6383SOL    HW120569   2.592   1.718   1.004 -0.6517 -1.1753  1.1897
 6383SOL    HW220570   2.520   1.846   1.040 -1.4685 -0.9537 -1.0711
 6384SOL     OW20571   0.806   7.693   3.938 -0.0773  0.3396  0.0969
 6384SOL    HW120572   0.806   7.784   3.909 -1.0827  0.2779 -0.1137
 6384SOL    HW220573   0.823   7.642   3.859  1.5529  0.3721  0.3867
 6385SOL     OW20574   5.848   1.305   6.750 -0.0888  0.0220 -0.7045
 6385SOL    HW120575   5.909   1.265   6.812  1.5832  1.1760 -1.5126
 6385SOL    HW220576   5.867   1.261   6.667 -0.1059  0.6196 -1.0318
 6386SOL     OW20577   2.608   0.545   3.059 -0.3368 -0.5691 -0.4425
 6386SOL    HW120578   2.545   0.486   3.100 -0.1276  0.8879  2.1958
 6386SOL    HW220579   2.633   0.606   3.128  0.7857  1.5476 -2.5462
 6387SOL     OW20580   8.117   3.943   4.127 -0.2030 -0.2631 -0.3329
 6387SOL    HW120581   8.125   3.994   4.208 -0.5546 -0.7902  0.0387
 6387SOL    HW220582   8.027   3.909   4.130  0.1421 -1.2011 -0.3961
 6388SOL     OW20583   4.995   1.768   4.547  0.0618  0.2270  0.0313
 6388SOL    HW120584   4.937   1.697   4.520 -1.0164  1.3788 -0.7874
 6388SOL    HW220585   5.033   1.801   4.466  0.2847  0.7994  0.3614
 6389SOL     OW20586   4.814   3.657   4.280  0.3788  0.4960 -0.3884
 6389SOL    HW120587   4.748   3.590   4.300  1.4311 -0.2448  0.7749
 6389SOL    HW220588   4.763   3.736   4.265 -0.7927  0.0324  0.8310
 6390SOL     OW20589   3.542   0.516   2.588 -0.6541  0.2690 -0.2109
 6390SOL    HW120590   3.461   0.466   2.580  1.1928 -2.9528 -0.5610
 6390SOL    HW220591   3.584   0.506   2.503  1.5997 -1.1578  0.9630
 6391SOL     OW20592   6.543   8.027   6.122 -0.2718  0.0721  0.2947
 6391SOL    HW120593   6.593   8.013   6.042 -0.0393 -0.0145  0.4538
 6391SOL    HW220594   6.607   8.057   6.186 -0.9272  3.1154 -0.3273
 6392SOL     OW20595   0.632   4.203   6.705  0.0588 -0.4498 -0.1208
 6392SOL    HW120596   0.631   4.277   6.643  2.6284  0.9802  1.3941
 6392SOL    HW220597   0.638   4.126   6.649 -1.6284  0.4890 -1.7269
 6393SOL     OW20598   3.166   5.585   0.295 -0.1583 -0.4068 -0.0414
 6393SOL    HW120599   3.118   5.590   0.212  0.3536 -0.4480 -0.3434
 6393SOL    HW220600   3.201   5.673   0.308  2.0521 -1.0135 -1.2660
 6394SOL     OW20601   0.757   0.633   7.621  0.0585  0.1175  0.2313
 6394SOL    HW120602   0.680   0.659   7.672  1.3601  1.8582  1.4646
 6394SOL    HW220603   0.730   0.553   7.576 -2.2628  0.3406  1.0556
 6395SOL     OW20604   3.549   4.832   4.790 -0.3548  0.6608 -0.0524
 6395SOL    HW120605   3.524   4.809   4.879  0.3797  0.7152  0.1677
 6395SOL    HW220606   3.482   4.791   4.735 -1.3095  1.3349  0.5624
 6396SOL     OW20607   7.740   6.909   7.731 -0.2337  0.2647  0.1162
 6396SOL    HW120608   7.755   7.001   7.710  0.1527 -0.0900 -1.2005
 6396SOL    HW220609   7.822   6.880   7.773 -0.9986  0.9618  2.2272
 6397SOL     OW20610   5.686   5.828   0.939 -0.2460  0.3490  0.1313
 6397SOL    HW120611   5.610   5.803   0.992 -0.7322  1.5445  0.0250
 6397SOL    HW220612   5.747   5.866   1.003 -1.0626  2.3128 -0.1931
 6398SOL     OW20613   7.738   7.875   6.707  0.3427 -0.1195  0.3980
 6398SOL    HW120614   7.832   7.859   6.705  0.4686  0.5318 -1.6473
 6398SOL    HW220615   7.727   7.962   6.667 -1.1994 -0.8292 -0.8588
 6399SOL     OW20616   3.149   0.536   6.476 -0.1522  0.1892  0.2538
 6399SOL    HW120617   3.233   0.547   6.520 -0.9509 -0.4437  2.0595
 6399SOL    HW220618   3.096   0.610   6.506 -0.4526  0.2338 -0.3571
 6400SOL     OW20619   1.784   7.574   5.334 -0.0154  0.1663 -0.2398
 6400SOL    HW120620   1.773   7.666   5.358  1.3741  0.4111 -0.4658
 6400SOL    HW220621   1.877   7.556   5.351 -1.0303 -2.4913  4.2595
 6401SOL     OW20622   1.945   7.362   6.620 -0.3981 -0.3926  0.3129
 6401SOL    HW120623   1.911   7.449   6.642 -0.0436 -0.1984  0.1152
 6401SOL    HW220624   1.930   7.354   6.525 -0.2646 -0.4684  0.2976
 6402SOL     OW20625   7.016   2.243   1.574 -0.4710  0.4210 -0.0297
 6402SOL    HW120626   6.943   2.281   1.622 -0.3807  1.2196 -0.4964
 6402SOL    HW220627   7.056   2.181   1.635 -0.8205  0.8505  0.6442
 6403SOL     OW20628   2.547   6.002   3.578 -0.1492  0.0259 -0.3267
 6403SOL    HW120629   2.529   6.083   3.626 -1.9558  0.4846 -1.6678
 6403SOL    HW220630   2.556   5.935   3.646  1.4847  1.3064  0.8213
 6404SOL     OW20631   6.340   2.845   8.232 -0.4838 -0.6540  0.2704
 6404SOL    HW120632   6.283   2.909   8.275 -0.2043  0.4687 -0.9784
 6404SOL    HW220633   6.302   2.760   8.255 -1.5145 -0.0075  1.0470
 6405SOL     OW20634   7.949   7.068   2.616  0.0296 -0.4959 -0.3845
 6405SOL    HW120635   7.963   7.110   2.701 -2.2413  0.7874 -0.5514
 6405SOL    HW220636   7.943   6.974   2.636  1.6796 -0.4403  0.5133
 6406SOL     OW20637   2.070   0.312   6.263 -0.1935 -0.0036  0.7099
 6406SOL    HW120638   2.080   0.407   6.258  2.4141 -0.2092  0.4184
 6406SOL    HW220639   2.098   0.290   6.352  2.7190 -0.7123 -0.2603
 6407SOL     OW20640   6.327   8.169   5.326 -0.1805 -0.1388 -0.3199
 6407SOL    HW120641   6.293   8.096   5.274 -0.5590  0.1191 -0.4402
 6407SOL    HW220642   6.422   8.155   5.327 -0.0849  0.2601 -1.7149
 6408SOL     OW20643   2.400   2.298   4.692 -0.5603 -0.4594 -0.2325
 6408SOL    HW120644   2.375   2.390   4.686 -0.9553 -0.5980 -0.7710
 6408SOL    HW220645   2.397   2.278   4.785 -1.7611 -0.2802 -0.2229
 6409SOL     OW20646   6.812   1.826   4.887  0.4582 -0.5403  0.4258
 6409SOL    HW120647   6.808   1.743   4.839  0.9577 -1.6288  2.1439
 6409SOL    HW220648   6.723   1.838   4.921 -0.3955  1.1634 -2.0992
 6410SOL     OW20649   4.267   5.440   7.152  0.0606  0.1295 -0.0225
 6410SOL    HW120650   4.272   5.535   7.136 -1.2956  0.1456 -0.5131
 6410SOL    HW220651   4.173   5.423   7.162  0.1059 -1.4694 -1.9043
 6411SOL     OW20652   3.814   7.693   2.577 -0.4205 -0.2436  0.6293
 6411SOL    HW120653   3.889   7.691   2.636 -0.3040 -1.9832  0.4823
 6411SOL    HW220654   3.837   7.758   2.511 -0.6144  1.8556  2.5151
 6412SOL     OW20655   2.345   3.928   8.299  0.2659  0.4644  0.5847
 6412SOL    HW120656   2.263   3.961   8.262  0.6706  1.7751  0.8368
 6412SOL    HW220657   2.372   3.994   8.361  2.2292  0.7372 -0.4933
 6413SOL     OW20658   0.046   5.396   4.395  0.0910 -0.4115  0.4197
 6413SOL    HW120659   0.135   5.424   4.374  0.0364  0.4057  1.2211
 6413SOL    HW220660   0.058   5.328   4.462  0.1396 -0.8958 -0.0745
 6414SOL     OW20661   4.322   0.821   3.113  0.1012 -0.1367  0.2330
 6414SOL    HW120662   4.359   0.878   3.045  0.7188 -2.5728 -1.6009
 6414SOL    HW220663   4.389   0.819   3.181 -1.4293  4.1423  2.2758
 6415SOL     OW20664   0.855   2.744   4.190  0.5173  0.4911 -0.5259
 6415SOL    HW120665   0.769   2.711   4.214  1.3632 -1.7033 -0.2897
 6415SOL    HW220666   0.869   2.712   4.101  0.2468  2.6802 -1.4107
 6416SOL     OW20667   7.458   2.699   8.003  0.6358 -0.0297 -0.1029
 6416SOL    HW120668   7.432   2.742   8.084  0.8920 -0.1775  0.0571
 6416SOL    HW220669   7.464   2.606   8.025  0.1011 -0.1533 -0.4429
 6417SOL     OW20670   2.189   2.335   5.872 -0.3499 -0.1944 -0.4053
 6417SOL    HW120671   2.145   2.306   5.792 -0.4254  1.3921 -0.9725
 6417SOL    HW220672   2.119   2.354   5.934 -0.2803 -1.8547  0.2393
 6418SOL     OW20673   4.487   2.619   2.775 -0.2536 -0.4113 -0.2123
 6418SOL    HW120674   4.464   2.539   2.822  0.6388 -0.3730  0.3142
 6418SOL    HW220675   4.508   2.682   2.845  1.0362 -0.3387 -0.6315
 6419SOL     OW20676   1.867   7.149   6.801 -0.6145 -0.0709  0.1075
 6419SOL    HW120677   1.933   7.080   6.802 -1.6212 -1.0755 -0.2612
 6419SOL    HW220678   1.894   7.207   6.730 -1.2320 -1.6619 -1.5318
 6420SOL     OW20679   1.191   1.420   2.609 -0.0618 -0.2090  0.5373
 6420SOL    HW120680   1.242   1.346   2.639 -0.0238  0.0612  1.1496
 6420SOL    HW220681   1.253   1.493   2.606  0.3738 -0.5920 -1.9129
 6421SOL     OW20682   1.238   2.673   8.180  0.9754 -0.0816 -0.4711
 6421SOL    HW120683   1.311   2.734   8.176  0.6058  0.3713 -0.3686
 6421SOL    HW220684   1.251   2.624   8.261  1.9452 -0.9965 -1.1630
 6422SOL     OW20685   3.946   4.531   3.298 -0.5216 -0.3497 -0.0655
 6422SOL    HW120686   4.010   4.471   3.335 -0.6943 -0.2665  0.3806
 6422SOL    HW220687   3.902   4.569   3.374 -0.5660  0.1749 -0.3457
 6423SOL     OW20688   2.967   5.665   7.291  0.5821  0.1176 -0.2858
 6423SOL    HW120689   2.989   5.754   7.317  1.8932  0.8649 -3.4342
 6423SOL    HW220690   2.899   5.677   7.223  0.2740 -1.3233 -0.2524
 6424SOL     OW20691   0.226   2.848   0.961 -0.0779  0.1569 -0.0899
 6424SOL    HW120692   0.149   2.791   0.956 -0.3727  0.6721 -2.4140
 6424SOL    HW220693   0.299   2.789   0.980 -0.5769 -0.8367 -1.1371
 6425SOL     OW20694   1.469   2.926   4.925 -0.2869 -0.0298  0.2160
 6425SOL    HW120695   1.449   2.976   5.004 -1.4112 -0.6184  0.3226
 6425SOL    HW220696   1.453   2.988   4.853  1.1872  0.6511  0.4452
 6426SOL     OW20697   0.678   1.474   2.531 -0.1783 -0.1526  0.1126
 6426SOL    HW120698   0.747   1.497   2.593 -0.1431 -0.6963  0.2824
 6426SOL    HW220699   0.597   1.498   2.576 -0.1484 -0.4583  0.3285
 6427SOL     OW20700   0.412   5.133   8.011 -0.0330  0.1538 -0.0648
 6427SOL    HW120701   0.451   5.067   7.953 -1.5564 -0.0935 -0.8607
 6427SOL    HW220702   0.446   5.217   7.978 -0.2161 -0.0466 -0.7786
 6428SOL     OW20703   7.297   6.737   4.277 -0.3257  0.6375 -0.0802
 6428SOL    HW120704   7.317   6.643   4.271 -1.1860  0.5220 -1.5392
 6428SOL    HW220705   7.228   6.743   4.342 -1.2047  0.0736 -0.9294
 6429SOL     OW20706   3.011   7.780   5.012 -0.3013  0.0729  0.1186
 6429SOL    HW120707   2.962   7.711   4.968 -1.8346  2.4279 -2.1782
 6429SOL    HW220708   2.949   7.816   5.076  0.8556 -1.2666  2.1010
 6430SOL     OW20709   1.712   5.684   3.844 -0.1242  0.1603  0.2865
 6430SOL    HW120710   1.639   5.746   3.836 -1.2496 -1.2797 -1.4765
 6430SOL    HW220711   1.766   5.700   3.767 -1.1165 -1.7684 -0.9146
 6431SOL     OW20712   7.796   6.057   3.632 -0.1921  0.1256  0.7357
 6431SOL    HW120713   7.719   6.082   3.682  0.5221  1.6419  1.1349
 6431SOL    HW220714   7.801   6.120   3.561 -0.5850 -1.3583 -0.6671
 6432SOL     OW20715   1.831   4.987   4.470  0.2508 -0.2912 -0.0592
 6432SOL    HW120716   1.818   4.895   4.446  1.1548 -0.8002  1.2972
 6432SOL    HW220717   1.913   5.011   4.426  0.5438 -0.4425  0.4005
 6433SOL     OW20718   1.198   2.884   3.314 -0.8335  0.0218  0.2118
 6433SOL    HW120719   1.257   2.920   3.381 -0.8714  0.3494  0.0749
 6433SOL    HW220720   1.183   2.794   3.340 -1.0067  0.2050  0.7597
 6434SOL     OW20721   4.721   8.172   1.616 -0.2295  0.2747 -0.3165
 6434SOL    HW120722   4.782   8.101   1.637 -2.4985 -2.1917 -1.5627
 6434SOL    HW220723   4.723   8.179   1.521 -0.7432  1.2586 -0.2740
 6435SOL     OW20724   6.987   3.349   7.140  0.0503 -0.2005 -0.2493
 6435SOL    HW120725   6.995   3.444   7.151 -1.6423 -0.2022  1.4425
 6435SOL    HW220726   7.052   3.313   7.200  0.5065 -0.1279 -0.6931
 6436SOL     OW20727   0.308   1.173   1.881 -0.1519 -0.8893  0.5525
 6436SOL    HW120728   0.328   1.244   1.943 -0.3830 -2.2339  2.2292
 6436SOL    HW220729   0.342   1.094   1.923  1.0630 -1.6849 -1.7615
 6437SOL     OW20730   0.434   5.428   1.749 -0.6869  0.7298  0.1274
 6437SOL    HW120731   0.387   5.347   1.728  0.4046  0.3580 -0.9862
 6437SOL    HW220732   0.466   5.413   1.838  0.8986 -0.7955 -0.6404
 6438SOL     OW20733   2.565   4.185   7.423  0.0884 -0.4530 -0.4159
 6438SOL    HW120734   2.626   4.184   7.497  0.8286  0.1917 -1.0052
 6438SOL    HW220735   2.520   4.269   7.431 -1.3893 -1.2872  0.5193
 6439SOL     OW20736   0.866   1.263   0.566 -0.4501 -0.3938 -0.5643
 6439SOL    HW120737   0.917   1.201   0.619 -0.2813  0.0701 -0.1708
 6439SOL    HW220738   0.923   1.339   0.557 -0.8841 -0.0589 -0.5315
 6440SOL     OW20739   1.666   3.357   5.198  1.1841 -0.2257 -0.1802
 6440SOL    HW120740   1.576   3.362   5.230  0.3582  0.4223 -2.3689
 6440SOL    HW220741   1.709   3.293   5.254 -0.1412  0.7090  2.0241
 6441SOL     OW20742   5.981   1.269   3.548 -0.5464 -0.7502  0.4861
 6441SOL    HW120743   6.038   1.337   3.584 -1.7123 -0.4549  1.8518
 6441SOL    HW220744   5.919   1.250   3.618 -1.8724 -1.3506 -0.8023
 6442SOL     OW20745   0.907   7.466   5.526 -0.0278  0.0785 -0.7119
 6442SOL    HW120746   0.917   7.377   5.493 -1.2389 -0.2687 -0.2116
 6442SOL    HW220747   0.847   7.457   5.601  1.0190  1.1087  0.2927
 6443SOL     OW20748   7.120   5.023   1.798  0.0287 -0.4712  0.6290
 6443SOL    HW120749   7.154   4.942   1.761 -1.0869 -0.0817 -1.4418
 6443SOL    HW220750   7.185   5.051   1.862  0.9713 -2.4001  0.5538
 6444SOL     OW20751   2.306   5.422   6.928 -0.3263 -0.2638 -0.3403
 6444SOL    HW120752   2.277   5.349   6.983  1.7239  0.3274  1.6888
 6444SOL    HW220753   2.276   5.500   6.974  0.3897  0.2294 -0.6902
 6445SOL     OW20754   7.811   5.289   3.076 -0.1198  0.1211 -0.0424
 6445SOL    HW120755   7.829   5.383   3.083 -0.4546  0.0433  2.8002
 6445SOL    HW220756   7.716   5.282   3.087 -0.0881 -0.5708 -0.1890
 6446SOL     OW20757   1.060   6.267   7.907 -0.0894  0.1567 -0.3931
 6446SOL    HW120758   1.129   6.201   7.916 -1.4110 -1.2248 -0.0229
 6446SOL    HW220759   1.068   6.297   7.816 -0.8692 -2.2312 -1.3449
 6447SOL     OW20760   7.371   2.354   0.650 -0.2503 -0.5949  0.3409
 6447SOL    HW120761   7.303   2.301   0.691  0.1974 -0.6583  0.9980
 6447SOL    HW220762   7.326   2.434   0.623 -0.1045  0.4854  3.0467
 6448SOL     OW20763   3.479   8.083   6.366  0.1195  0.0816  0.1409
 6448SOL    HW120764   3.456   8.100   6.275 -0.4739  0.4657  0.3576
 6448SOL    HW220765   3.572   8.103   6.372 -0.0447  0.9648 -0.1632
 6449SOL     OW20766   5.101   7.955   0.702  0.1252  0.1128  0.3022
 6449SOL    HW120767   5.157   8.018   0.657 -0.6028  0.1255 -0.6335
 6449SOL    HW220768   5.123   7.870   0.662  0.6568 -0.1419  1.1143
 6450SOL     OW20769   2.099   6.837   6.053  0.2543 -0.0076 -0.9643
 6450SOL    HW120770   2.136   6.809   6.137  0.3595 -2.4780 -1.7577
 6450SOL    HW220771   2.008   6.859   6.073  0.1359 -1.0579 -0.2822
 6451SOL     OW20772   6.326   1.361   0.088  0.0283  0.3311  0.3492
 6451SOL    HW120773   6.298   1.284   0.137  0.3181  0.1935  0.3022
 6451SOL    HW220774   6.307   1.340  -0.003 -0.8368  0.7284  0.4254
 6452SOL     OW20775   0.874   7.693   0.796  0.0011 -0.5764 -0.8012
 6452SOL    HW120776   0.810   7.664   0.731 -0.6921 -1.8267  0.3779
 6452SOL    HW220777   0.838   7.662   0.879  1.1107  0.5405  0.1303
 6453SOL     OW20778   5.297   2.963   2.172 -0.5881 -0.0069  0.0620
 6453SOL    HW120779   5.352   2.927   2.242  0.6404  0.6019 -0.5568
 6453SOL    HW220780   5.336   2.929   2.091 -1.0990  0.4906 -0.4023
 6454SOL     OW20781   6.883   2.549   0.292 -0.0886 -0.9527 -0.6080
 6454SOL    HW120782   6.974   2.527   0.312 -0.0595 -2.1509 -1.9160
 6454SOL    HW220783   6.863   2.623   0.350  1.8789 -0.3131 -0.6723
 6455SOL     OW20784   1.444   6.168   6.593 -0.0557  0.0867 -0.4083
 6455SOL    HW120785   1.530   6.129   6.606  1.5102  2.4040 -2.6521
 6455SOL    HW220786   1.454   6.259   6.621 -1.5933  0.5607 -1.2462
 6456SOL     OW20787   6.010   2.285   4.496  0.0515  0.4391  0.3868
 6456SOL    HW120788   6.052   2.324   4.419  0.3988  1.1909  0.9353
 6456SOL    HW220789   5.978   2.360   4.546  1.0334  0.0621  1.6466
 6457SOL     OW20790   2.778   6.569   3.472  0.3356 -0.1749 -0.5362
 6457SOL    HW120791   2.830   6.552   3.551 -1.3998 -1.8982  0.3527
 6457SOL    HW220792   2.842   6.581   3.402  1.9494 -2.3519  0.4503
 6458SOL     OW20793   4.090   2.203   6.421  0.1062 -0.2111 -0.2210
 6458SOL    HW120794   4.111   2.236   6.508  1.1517  0.4146 -0.6886
 6458SOL    HW220795   4.008   2.156   6.432 -0.4202  0.9107  0.8647
 6459SOL     OW20796   3.558   5.776   0.832 -0.3451  0.7776 -0.0588
 6459SOL    HW120797   3.581   5.868   0.842  1.3997  0.3008  0.8123
 6459SOL    HW220798   3.598   5.733   0.908 -0.6064 -0.7944 -0.7634
 6460SOL     OW20799   1.655   4.479   2.128  0.6110  0.0453 -0.3100
 6460SOL    HW120800   1.663   4.412   2.060 -0.2977  0.0151 -0.3901
 6460SOL    HW220801   1.623   4.432   2.205  0.8121  0.2389 -0.1043
 6461SOL     OW20802   6.920   7.204   4.771  0.0447  0.2243 -0.1695
 6461SOL    HW120803   6.902   7.249   4.688  1.8042  0.6134 -0.3831
 6461SOL    HW220804   6.848   7.230   4.828 -0.6172  0.8313 -1.2438
 6462SOL     OW20805   3.601   1.377   5.531  0.6012  0.5806 -0.4057
 6462SOL    HW120806   3.554   1.445   5.482  0.4431  1.3570  0.7915
 6462SOL    HW220807   3.557   1.295   5.506 -0.9133  1.1969  0.0930
 6463SOL     OW20808   5.281   3.273   7.079  0.1650  0.1396 -0.5607
 6463SOL    HW120809   5.239   3.203   7.028  0.8372 -1.0940  0.5204
 6463SOL    HW220810   5.211   3.308   7.134 -0.2153  0.4260 -1.2239
 6464SOL     OW20811   3.560   0.575   8.271  0.3410  0.9216 -0.5337
 6464SOL    HW120812   3.569   0.605   8.361  1.5173  0.5996 -0.5283
 6464SOL    HW220813   3.466   0.565   8.258  0.1667  0.8124  0.7118
 6465SOL     OW20814   6.217   2.484   7.038 -0.3212 -0.0259  0.1578
 6465SOL    HW120815   6.156   2.422   7.077 -0.0863 -0.0187  0.5346
 6465SOL    HW220816   6.265   2.521   7.112  1.2497 -1.1892 -0.2347
 6466SOL     OW20817   4.894   5.375   5.550 -0.2730  0.3598 -0.1032
 6466SOL    HW120818   4.828   5.306   5.542 -0.2258  0.4448 -1.3760
 6466SOL    HW220819   4.917   5.397   5.460 -1.4047  3.0936  0.1531
 6467SOL     OW20820   2.614   7.337   2.156 -0.6456 -0.8790  0.8604
 6467SOL    HW120821   2.555   7.411   2.171  0.3206 -0.1761  1.2600
 6467SOL    HW220822   2.693   7.377   2.120 -0.7863 -1.9173 -0.7005
 6468SOL     OW20823   3.180   7.938   6.979 -0.5433 -0.0052 -0.5738
 6468SOL    HW120824   3.135   7.854   6.973 -1.4534  0.5050 -1.0644
 6468SOL    HW220825   3.137   7.982   7.053 -1.4621  0.8259 -1.5716
 6469SOL     OW20826   1.797   2.680   2.984 -0.5289 -0.2515  0.4084
 6469SOL    HW120827   1.739   2.738   2.934  1.1926 -0.7045 -2.3211
 6469SOL    HW220828   1.854   2.740   3.032 -1.4339  0.2180  0.9392
 6470SOL     OW20829   5.718   3.441   2.212  0.3243 -0.0127 -0.3298
 6470SOL    HW120830   5.648   3.429   2.148  1.6567 -0.7422 -1.6990
 6470SOL    HW220831   5.705   3.368   2.274  1.2107 -1.5540 -1.8817
 6471SOL     OW20832   5.362   3.538   5.398 -0.1064  0.1195  0.2908
 6471SOL    HW120833   5.409   3.457   5.380  0.8673  0.3792  1.5870
 6471SOL    HW220834   5.386   3.597   5.326  0.6089 -0.1496  0.3047
 6472SOL     OW20835   0.323   1.550   6.518  0.1166  0.3605 -0.4009
 6472SOL    HW120836   0.303   1.618   6.583 -1.2173 -2.2133  2.1316
 6472SOL    HW220837   0.238   1.514   6.493  0.8010 -1.0226 -0.8674
 6473SOL     OW20838   6.223   4.365   1.525 -0.4490  0.2093 -0.1461
 6473SOL    HW120839   6.267   4.292   1.568 -0.2353 -0.6325 -1.7278
 6473SOL    HW220840   6.243   4.441   1.580  0.6370 -0.6367  0.6714
 6474SOL     OW20841   6.931   6.938   5.710 -0.1664  0.0671 -0.0345
 6474SOL    HW120842   6.953   6.959   5.620  2.5892  1.1055  0.7724
 6474SOL    HW220843   6.862   6.871   5.703 -0.0377  0.1146 -2.8602
 6475SOL     OW20844   3.188   1.311   3.438 -0.3335 -0.1696 -0.2603
 6475SOL    HW120845   3.137   1.372   3.385 -1.0153  0.7492  1.4043
 6475SOL    HW220846   3.127   1.279   3.504  1.3151  1.4303  2.1712
 6476SOL     OW20847   4.312   7.932   8.369  0.1631  0.3144 -0.5310
 6476SOL    HW120848   4.315   7.926   8.274  2.0804  1.2340 -0.5656
 6476SOL    HW220849   4.401   7.956   8.395 -0.2740 -0.0612  1.5119
 6477SOL     OW20850   7.706   7.416   7.158 -0.4022  0.4530 -0.2736
 6477SOL    HW120851   7.704   7.480   7.229 -0.9940  0.3970 -0.2362
 6477SOL    HW220852   7.634   7.441   7.101  0.7394  1.1912 -1.4762
 6478SOL     OW20853   7.874   7.846   4.126  0.6959  0.6607  0.1880
 6478SOL    HW120854   7.867   7.934   4.090 -1.1665  0.6207  0.3391
 6478SOL    HW220855   7.964   7.839   4.157  1.2691  2.0079 -1.0824
 6479SOL     OW20856   4.900   2.617   2.998  0.6655  0.1983 -0.1553
 6479SOL    HW120857   4.945   2.544   3.040  0.3428  0.0771 -0.0160
 6479SOL    HW220858   4.894   2.592   2.905 -0.5401 -0.5270  0.0955
 6480SOL     OW20859   5.857   4.562   2.451  0.0157  0.0507 -0.2391
 6480SOL    HW120860   5.943   4.597   2.474 -0.5951  1.9153 -0.5583
 6480SOL    HW220861   5.795   4.626   2.487 -1.1506 -0.0749 -1.9172
 6481SOL     OW20862   5.841   5.385   4.545 -0.4307  0.0017  0.6020
 6481SOL    HW120863   5.798   5.300   4.538 -3.0538  1.1946  1.1599
 6481SOL    HW220864   5.870   5.404   4.455  1.5080 -2.0253  0.7037
 6482SOL     OW20865   8.038   1.728   4.381 -0.1860  0.2389 -0.4307
 6482SOL    HW120866   7.967   1.752   4.441 -0.3410 -0.7836 -0.1772
 6482SOL    HW220867   8.055   1.807   4.331 -1.3939  0.5593 -0.3762
 6483SOL     OW20868   7.935   5.924   6.302  0.1902  0.1671  0.2772
 6483SOL    HW120869   7.853   5.943   6.346  0.7287  0.9978  0.9506
 6483SOL    HW220870   7.954   6.002   6.251 -0.4292 -0.7805 -1.4928
 6484SOL     OW20871   0.457   2.071   0.150  0.4356 -0.0199 -0.0176
 6484SOL    HW120872   0.454   2.066   0.245  1.2368  2.1076  0.1788
 6484SOL    HW220873   0.447   1.980   0.121  2.0970 -1.0004  2.1365
 6485SOL     OW20874   7.081   6.984   4.228  0.3244  0.3313 -0.1233
 6485SOL    HW120875   7.115   7.008   4.314  1.5980 -0.8024 -0.2654
 6485SOL    HW220876   6.999   6.938   4.247  1.4990 -1.5783  0.6911
 6486SOL     OW20877   7.072   7.136   0.999 -0.2337 -0.4320 -0.3038
 6486SOL    HW120878   6.978   7.128   0.984 -0.3005 -1.3312  0.4937
 6486SOL    HW220879   7.088   7.089   1.081  1.0492 -1.1289 -0.9109
 6487SOL     OW20880   7.307   1.363   0.570 -0.2144 -0.0698 -0.2041
 6487SOL    HW120881   7.239   1.343   0.635 -0.8675 -0.6084 -1.0221
 6487SOL    HW220882   7.343   1.447   0.597 -2.1109  0.8841 -0.4476
 6488SOL     OW20883   1.682   1.162   3.983  0.0765  0.1628 -0.2196
 6488SOL    HW120884   1.725   1.134   4.064 -0.8114  2.7717  1.2754
 6488SOL    HW220885   1.751   1.208   3.934  0.4412 -0.8347 -0.6716
 6489SOL     OW20886   6.471   0.309   7.392 -0.7645 -0.1491  0.5703
 6489SOL    HW120887   6.499   0.222   7.423 -0.3288 -0.2491 -0.0682
 6489SOL    HW220888   6.498   0.310   7.300 -1.9579  0.1647  0.2158
 6490SOL     OW20889   1.564   5.363   4.485  0.3439 -0.2092  0.3149
 6490SOL    HW120890   1.512   5.319   4.553  0.9722  0.1350  1.0325
 6490SOL    HW220891   1.648   5.317   4.487  0.7483  0.5360  0.5466
 6491SOL     OW20892   6.757   0.408   7.402  0.0628 -0.0355 -1.1254
 6491SOL    HW120893   6.780   0.484   7.457  2.2208 -0.6714 -1.0547
 6491SOL    HW220894   6.690   0.362   7.452 -1.7394  2.0834 -1.4376
 6492SOL     OW20895   7.280   5.927   1.091 -0.2031 -0.0087  0.3586
 6492SOL    HW120896   7.310   5.947   1.180 -0.5033  0.9639  0.2512
 6492SOL    HW220897   7.279   6.011   1.046 -0.8631 -0.3652 -0.3220
 6493SOL     OW20898   4.657   4.659   6.068 -0.2723  0.1562  0.1412
 6493SOL    HW120899   4.747   4.630   6.050 -0.2261  0.2582  0.2126
 6493SOL    HW220900   4.605   4.579   6.057 -0.7498  0.8058 -3.9314
 6494SOL     OW20901   2.251   4.909   2.586 -0.2020 -0.2138 -0.4250
 6494SOL    HW120902   2.230   4.886   2.676 -2.7481  2.0268 -0.2995
 6494SOL    HW220903   2.296   4.993   2.592 -2.4931  1.1592 -1.2219
 6495SOL     OW20904   1.595   2.250   6.391  0.3580  0.1380  0.0384
 6495SOL    HW120905   1.648   2.322   6.427  1.1069  0.7503 -2.1776
 6495SOL    HW220906   1.645   2.218   6.317 -1.6451 -0.3341 -1.1739
 6496SOL     OW20907   3.793   2.978   0.876 -0.8224  0.4525  0.2497
 6496SOL    HW120908   3.735   2.953   0.948  0.2846  0.1405  1.0602
 6496SOL    HW220909   3.743   2.958   0.797 -1.3775 -0.8853  0.9042
 6497SOL     OW20910   4.289   4.706   3.468  0.4436  0.7981 -0.0243
 6497SOL    HW120911   4.262   4.711   3.560  1.5694 -1.5994  0.5094
 6497SOL    HW220912   4.384   4.716   3.469  0.7510 -1.3664 -0.5995
 6498SOL     OW20913   2.719   3.749   1.141 -0.3906 -0.5516 -0.0614
 6498SOL    HW120914   2.788   3.722   1.080 -0.4592 -1.5478  0.2864
 6498SOL    HW220915   2.761   3.812   1.199 -0.7629  1.8786 -2.2079
 6499SOL     OW20916   6.306   2.807   4.439  0.1985  0.2783  0.1148
 6499SOL    HW120917   6.377   2.758   4.399 -0.8107 -2.0873  0.9964
 6499SOL    HW220918   6.348   2.864   4.503  1.4235  0.4207 -0.7967
 6500SOL     OW20919   0.118   5.481   5.757  0.2778 -0.3839  0.7069
 6500SOL    HW120920   0.167   5.553   5.796  1.3005  0.3257 -1.6890
 6500SOL    HW220921   0.046   5.465   5.818  1.7786  0.5347  2.8590
 6501SOL     OW20922   0.190   8.164   7.419  0.6315  0.3144  0.3670
 6501SOL    HW120923   0.159   8.175   7.509  0.1503  0.6277  0.1653
 6501SOL    HW220924   0.285   8.165   7.426  0.6115 -0.8113  1.0112
 6502SOL     OW20925   3.425   7.174   7.656 -0.3974  0.3932  0.1367
 6502SOL    HW120926   3.402   7.087   7.688  1.6092 -0.0243  0.5534
 6502SOL    HW220927   3.393   7.175   7.566 -0.9233 -0.5846  0.2971
 6503SOL     OW20928   4.381   6.493   5.527 -0.1792  0.0539 -0.1153
 6503SOL    HW120929   4.360   6.520   5.617  0.5713  2.0126 -0.4926
 6503SOL    HW220930   4.462   6.442   5.537  0.0723  0.5196  0.2905
 6504SOL     OW20931   7.234   1.112   2.195  0.5413  0.1949  0.2196
 6504SOL    HW120932   7.219   1.194   2.242 -0.8170 -0.7768  1.5861
 6504SOL    HW220933   7.215   1.132   2.103  0.4791  1.4470  0.4940
 6505SOL     OW20934   6.336   3.031   3.863  0.3932 -0.2697 -0.6270
 6505SOL    HW120935   6.301   3.118   3.842  1.3195  0.0084 -1.0666
 6505SOL    HW220936   6.259   2.980   3.889 -0.4221  0.1661 -2.0693
 6506SOL     OW20937   2.451   1.643   6.678  0.2643  0.4428  0.4143
 6506SOL    HW120938   2.521   1.577   6.676 -0.5283 -0.4065  0.4087
 6506SOL    HW220939   2.375   1.599   6.642 -0.2191  1.4524  0.1655
 6507SOL     OW20940   1.321   2.242   8.227 -0.6211  0.9185  0.3946
 6507SOL    HW120941   1.272   2.202   8.299 -0.2983 -0.2166 -0.0039
 6507SOL    HW220942   1.413   2.229   8.251 -0.5107  0.4632 -0.2517
 6508SOL     OW20943   3.555   7.707   6.651 -0.1823 -0.4186  0.5513
 6508SOL    HW120944   3.529   7.661   6.730 -0.4673  2.5481  2.3329
 6508SOL    HW220945   3.487   7.688   6.587 -0.9870 -1.3141  1.6601
 6509SOL     OW20946   7.140   0.017   6.485  0.2478 -0.1553 -0.1692
 6509SOL    HW120947   7.191  -0.039   6.544 -2.5486 -2.0071  0.6709
 6509SOL    HW220948   7.205   0.053   6.424  2.9522  0.1242  2.6364
 6510SOL     OW20949   1.026   4.369   6.273  0.5797 -0.2642  0.1190
 6510SOL    HW120950   1.041   4.282   6.237  1.0903  0.6243 -1.9578
 6510SOL    HW220951   1.030   4.428   6.198 -0.5118  1.4940  1.3453
 6511SOL     OW20952   6.477   7.073   5.125 -0.1430 -0.9753  0.0697
 6511SOL    HW120953   6.557   7.125   5.136  0.0756 -1.1207 -0.7520
 6511SOL    HW220954   6.469   7.024   5.207 -0.6630  0.7457  1.0934
 6512SOL     OW20955   0.037   2.140   3.961  0.1435 -0.2285  0.2677
 6512SOL    HW120956  -0.031   2.174   3.903  1.6129  1.6625 -0.4928
 6512SOL    HW220957   0.111   2.123   3.903  0.4520 -1.9488  1.1083
 6513SOL     OW20958   1.128   7.192   1.547  0.0262 -0.4710  0.5980
 6513SOL    HW120959   1.216   7.210   1.581  0.1487  0.1602 -0.0144
 6513SOL    HW220960   1.071   7.254   1.592  0.3216  0.9861 -0.9121
 6514SOL     OW20961   0.597   2.639   1.985  0.0008 -0.4331  0.6816
 6514SOL    HW120962   0.588   2.733   1.997  0.1259 -0.5059  1.3714
 6514SOL    HW220963   0.512   2.603   2.008  0.3065 -0.5930  1.5987
 6515SOL     OW20964   3.096   8.257   3.297  0.0227  0.4120 -0.1671
 6515SOL    HW120965   3.019   8.225   3.250 -0.6114  0.4742  0.8023
 6515SOL    HW220966   3.151   8.296   3.229 -0.0226 -1.0947 -1.1087
 6516SOL     OW20967   7.535   4.197   0.465  0.6342 -0.2672  0.4370
 6516SOL    HW120968   7.610   4.148   0.432  1.1559  0.8044 -0.0044
 6516SOL    HW220969   7.502   4.246   0.390 -1.6843 -2.0772  0.1277
 6517SOL     OW20970   4.336   6.888   6.417  0.2349  0.0108 -0.1073
 6517SOL    HW120971   4.258   6.918   6.371  0.0412 -0.1129  0.1365
 6517SOL    HW220972   4.324   6.921   6.507  0.4000 -0.1192 -0.0373
 6518SOL     OW20973   3.966   0.587   8.101  0.0162 -0.2063 -0.3097
 6518SOL    HW120974   3.995   0.552   8.186  1.9491  1.4814 -0.1932
 6518SOL    HW220975   4.045   0.586   8.047 -0.8369  0.1650 -1.5912
 6519SOL     OW20976   7.539   2.384   6.628  0.2591  0.1648  0.5563
 6519SOL    HW120977   7.446   2.392   6.606 -0.3117 -1.1819  2.2342
 6519SOL    HW220978   7.554   2.290   6.637  2.4740  0.1367 -2.1572
 6520SOL     OW20979   6.359   4.183   4.054  0.3892 -0.4475  0.0921
 6520SOL    HW120980   6.405   4.149   4.131 -1.2255 -0.3094  1.1917
 6520SOL    HW220981   6.278   4.131   4.050 -0.3115  0.6412 -0.5331
 6521SOL     OW20982   3.451   4.544   0.166 -0.3175  0.4711 -0.2762
 6521SOL    HW120983   3.515   4.585   0.108 -1.7053  1.6124 -1.0955
 6521SOL    HW220984   3.396   4.492   0.107 -1.0923  0.7885  0.1491
 6522SOL     OW20985   7.176   7.621   1.090 -0.1635  0.1218 -0.0760
 6522SOL    HW120986   7.142   7.614   1.179  0.4553  0.1297  0.1606
 6522SOL    HW220987   7.114   7.571   1.037 -0.0579 -0.6061  0.4794
 6523SOL     OW20988   0.701   3.569   6.951 -0.4848 -0.5691 -0.1687
 6523SOL    HW120989   0.647   3.556   7.029  1.7319  1.1355  1.7635
 6523SOL    HW220990   0.737   3.482   6.933 -0.8862 -0.9461  0.7887
 6524SOL     OW20991   4.026   0.290   2.075 -0.1310  0.4913 -0.0245
 6524SOL    HW120992   3.941   0.307   2.035  0.8031  2.1923 -1.3908
 6524SOL    HW220993   4.049   0.202   2.044 -1.4797 -0.1256  0.6102
 6525SOL     OW20994   2.879   1.579   0.718 -0.0268  0.0052  0.1835
 6525SOL    HW120995   2.804   1.626   0.755 -0.2568 -0.4363  0.2741
 6525SOL    HW220996   2.876   1.599   0.625  0.2925  0.7559  0.3287
 6526SOL     OW20997   8.060   6.203   7.813  0.1179  0.8268 -0.2449
 6526SOL    HW120998   7.997   6.131   7.802  1.9262 -0.8025 -0.3613
 6526SOL    HW220999   8.074   6.207   7.908  0.0458  1.0070 -0.2425
 6527SOL     OW21000   8.044   5.623   3.445 -0.1330 -0.1952  0.2184
 6527SOL    HW121001   8.016   5.713   3.423 -0.9785 -0.1072  1.5654
 6527SOL    HW221002   8.139   5.624   3.432  0.0265  1.2186  1.2502
 6528SOL     OW21003   0.434   1.219   4.457  0.2355  0.3827 -0.0411
 6528SOL    HW121004   0.466   1.152   4.396 -0.2190 -0.2983  0.4612
 6528SOL    HW221005   0.500   1.289   4.452  2.2215 -1.2787  1.4682
 6529SOL     OW21006   0.486   1.131   7.405 -0.1527  0.0373 -0.2425
 6529SOL    HW121007   0.465   1.184   7.329 -0.3697  1.3713  0.7169
 6529SOL    HW221008   0.472   1.189   7.480  0.9533 -0.9361  0.7693
 6530SOL     OW21009   0.113   4.634   4.159 -0.3498  0.2692  0.4271
 6530SOL    HW121010   0.096   4.670   4.246 -0.7771  0.8813  0.0939
 6530SOL    HW221011   0.045   4.671   4.103  1.9640  2.7705 -0.9451
 6531SOL     OW21012   3.913   5.688   8.323 -0.1338 -0.4967 -0.0879
 6531SOL    HW121013   3.957   5.611   8.287  1.6058  0.5062 -0.2143
 6531SOL    HW221014   3.899   5.666   8.415  1.1169 -0.6760  0.0866
 6532SOL     OW21015   6.870   5.382   5.299  0.0789 -0.7341  0.0620
 6532SOL    HW121016   6.832   5.321   5.362 -0.8002 -0.1209  0.1566
 6532SOL    HW221017   6.794   5.419   5.253  0.6337 -0.2536 -0.4925
 6533SOL     OW21018   0.620   1.532   1.976 -0.4520  0.3363 -0.3387
 6533SOL    HW121019   0.688   1.480   1.932 -1.3798  0.2496 -1.7599
 6533SOL    HW221020   0.649   1.538   2.067  2.4201  1.8999 -1.2440
 6534SOL     OW21021   2.396   5.020   7.839  0.3751 -0.9494  0.1001
 6534SOL    HW121022   2.483   5.009   7.802 -0.5631 -1.1720 -2.1488
 6534SOL    HW221023   2.336   4.993   7.770 -1.6086  2.8177  0.0971
 6535SOL     OW21024   8.269   7.439   3.104  0.0919  0.1966  0.1979
 6535SOL    HW121025   8.358   7.447   3.138  0.5171  0.6776 -0.9772
 6535SOL    HW221026   8.273   7.364   3.045 -0.4800 -0.2438  0.7037
 6536SOL     OW21027   2.692   5.059   1.028 -0.5957  0.6877  1.1372
 6536SOL    HW121028   2.705   5.152   1.040  0.5717  0.8883 -1.1878
 6536SOL    HW221029   2.717   5.020   1.112  2.1500  2.2025  1.1401
 6537SOL     OW21030   7.290   4.410   1.553  0.1453 -0.0601 -0.0704
 6537SOL    HW121031   7.274   4.316   1.562  0.4032 -0.0914  0.0709
 6537SOL    HW221032   7.209   4.451   1.583  0.3852 -0.2128  0.8148
 6538SOL     OW21033   4.118   4.260   2.029  0.0152 -0.4593  0.0768
 6538SOL    HW121034   4.103   4.332   1.967  0.9895 -0.2861  0.0352
 6538SOL    HW221035   4.053   4.194   2.004  0.4972 -0.4637 -1.2401
 6539SOL     OW21036   5.667   1.621   2.314 -0.2220 -0.0911  0.3698
 6539SOL    HW121037   5.627   1.666   2.389  0.2124 -0.9012  1.1149
 6539SOL    HW221038   5.677   1.530   2.344 -0.1914 -0.4660 -0.7438
 6540SOL     OW21039   1.823   7.892   5.010  0.4422  0.0934  0.0800
 6540SOL    HW121040   1.826   7.953   5.083 -2.1303  0.4634 -0.0289
 6540SOL    HW221041   1.803   7.808   5.050  1.0664 -0.1166 -0.0375
 6541SOL     OW21042   0.382   4.154   4.337  0.2814  0.1307  0.4617
 6541SOL    HW121043   0.387   4.093   4.410  1.9259  2.0442  2.0636
 6541SOL    HW221044   0.311   4.214   4.360 -0.8047 -0.6419 -0.7277
 6542SOL     OW21045   0.339   5.904   3.935  0.1381 -0.6524  0.1270
 6542SOL    HW121046   0.300   5.940   4.015 -1.6769  1.8707 -1.7384
 6542SOL    HW221047   0.264   5.874   3.883  0.7215  2.0529 -2.5290
 6543SOL     OW21048   0.180   6.347   6.426  0.1253 -0.1564  0.6187
 6543SOL    HW121049   0.260   6.376   6.468  1.6258 -2.9361 -0.0803
 6543SOL    HW221050   0.208   6.304   6.346 -2.4339  2.4379 -1.9458
 6544SOL     OW21051   4.327   2.498   0.783 -0.0097  0.0534  0.0511
 6544SOL    HW121052   4.309   2.495   0.878 -0.8250  2.5071  0.0455
 6544SOL    HW221053   4.418   2.527   0.777 -0.0401  0.1500  0.0651
 6545SOL     OW21054   5.250   1.643   2.487 -0.0114 -0.2221  0.0264
 6545SOL    HW121055   5.315   1.637   2.557  2.2144 -1.7662 -2.0453
 6545SOL    HW221056   5.194   1.566   2.499  0.1474 -0.2979  0.2858
 6546SOL     OW21057   3.630   8.089   1.229  0.0776 -0.0144 -0.1626
 6546SOL    HW121058   3.691   8.156   1.199  2.7549 -2.2389 -0.0556
 6546SOL    HW221059   3.549   8.137   1.249  0.9469  2.7372 -2.6334
 6547SOL     OW21060   3.467   6.889   5.826  0.2385 -0.4524  0.4799
 6547SOL    HW121061   3.477   6.931   5.912  0.2179  0.6654 -0.0513
 6547SOL    HW221062   3.557   6.883   5.792  0.4625 -2.5263  1.3050
 6548SOL     OW21063   0.128   3.139   0.520 -0.1251 -0.3340 -0.4722
 6548SOL    HW121064   0.153   3.197   0.592 -0.7761 -1.5819  0.8099
 6548SOL    HW221065   0.210   3.120   0.475  0.2147  0.8967 -0.4070
 6549SOL     OW21066   4.158   6.396   5.148 -0.5299  0.3301 -0.0380
 6549SOL    HW121067   4.187   6.309   5.175  0.0333  0.8584  1.1276
 6549SOL    HW221068   4.082   6.380   5.092  0.2674 -0.9493 -0.8098
 6550SOL     OW21069   4.564   3.831   6.498 -0.2889  0.5867 -0.0895
 6550SOL    HW121070   4.656   3.841   6.473 -0.3783  0.8967 -0.2982
 6550SOL    HW221071   4.561   3.855   6.590 -0.4252  2.0990 -0.4693
 6551SOL     OW21072   4.150   0.293   5.709 -0.3393  0.5022 -0.3260
 6551SOL    HW121073   4.159   0.351   5.633 -0.5397  0.7980 -0.1237
 6551SOL    HW221074   4.121   0.350   5.780 -0.4884  0.1632 -0.1111
 6552SOL     OW21075   7.096   1.913   1.335 -0.1963 -0.4597  0.4718
 6552SOL    HW121076   7.023   1.915   1.273  0.9299 -1.0533 -0.9236
 6552SOL    HW221077   7.149   1.989   1.311 -0.7669  0.4763  2.0417
 6553SOL     OW21078   7.593   4.652   2.080 -0.0334  0.5880 -0.0033
 6553SOL    HW121079   7.498   4.658   2.070 -0.2103 -0.7162  0.6712
 6553SOL    HW221080   7.619   4.739   2.110 -1.1633  0.6489  0.8775
 6554SOL     OW21081   0.153   4.700   2.220 -0.4388  0.6847  0.4514
 6554SOL    HW121082   0.175   4.707   2.127 -0.7038  1.5886  0.4540
 6554SOL    HW221083   0.234   4.671   2.262 -0.7684 -1.4393 -0.2721
 6555SOL     OW21084   3.864   1.594   2.114  0.2555  0.1035  0.5741
 6555SOL    HW121085   3.897   1.519   2.165 -0.1301  1.0317  2.2831
 6555SOL    HW221086   3.929   1.663   2.129 -0.5547  0.8087  0.9243
 6556SOL     OW21087   5.674   7.783   6.582  0.7143  0.0239  0.3311
 6556SOL    HW121088   5.717   7.700   6.564  0.1412 -0.2068 -0.0037
 6556SOL    HW221089   5.674   7.829   6.498 -0.7228 -0.4740  0.0326
 6557SOL     OW21090   8.260   0.698   1.421  0.0936 -0.1766  0.4151
 6557SOL    HW121091   8.198   0.771   1.425  0.6792  0.3491  0.0596
 6557SOL    HW221092   8.216   0.631   1.369 -0.1008  0.2666  0.0108
 6558SOL     OW21093   0.655   3.501   0.179  0.0665 -0.2242 -1.1576
 6558SOL    HW121094   0.680   3.591   0.159 -0.5572  0.3497  0.5197
 6558SOL    HW221095   0.562   3.506   0.200  0.1230 -1.1935 -0.6221
 6559SOL     OW21096   3.267   1.661   6.429  0.2039  0.2407  0.5766
 6559SOL    HW121097   3.254   1.713   6.508  0.0762  2.1121 -0.6228
 6559SOL    HW221098   3.361   1.642   6.428  0.1596 -0.0346  1.3083
 6560SOL     OW21099   4.898   2.744   2.671 -0.2359  0.3745  0.6385
 6560SOL    HW121100   4.894   2.811   2.739  0.1631  0.5186  0.5212
 6560SOL    HW221101   4.989   2.715   2.671 -0.2175  0.4269  0.1155
 6561SOL     OW21102   6.895   4.936   4.219 -0.4863  0.2436  0.5678
 6561SOL    HW121103   6.805   4.938   4.186  0.1185 -1.2224 -1.3854
 6561SOL    HW221104   6.930   5.022   4.196 -0.9853  0.3201  0.0511
 6562SOL     OW21105   4.333   4.036   0.330 -0.3585  0.5929 -0.6125
 6562SOL    HW121106   4.269   4.056   0.398  0.3224  2.3485 -0.4245
 6562SOL    HW221107   4.282   4.031   0.249 -0.9632  0.1051 -0.2066
 6563SOL     OW21108   7.377   3.691   7.261 -0.2386 -0.1065  0.3018
 6563SOL    HW121109   7.444   3.735   7.208  0.5080 -0.7929  0.6560
 6563SOL    HW221110   7.398   3.715   7.351 -2.7670  2.8207  0.2601
 6564SOL     OW21111   8.094   7.978   3.227  0.8672  0.0517 -0.7368
 6564SOL    HW121112   8.097   7.956   3.320  0.8641  0.5111 -0.6280
 6564SOL    HW221113   8.086   7.893   3.183 -0.0936 -0.1031 -0.2738
 6565SOL     OW21114   7.645   3.329   5.294  0.1440 -0.2051 -0.1833
 6565SOL    HW121115   7.687   3.257   5.341 -0.8953 -0.9851 -0.4054
 6565SOL    HW221116   7.581   3.365   5.356  0.7239  0.6099 -0.0390
 6566SOL     OW21117   8.260   1.436   8.233 -0.1112  0.0755  0.3055
 6566SOL    HW121118   8.189   1.449   8.297  1.4077 -1.4283  2.4529
 6566SOL    HW221119   8.217   1.395   8.158 -1.7226  0.3375  1.0426
 6567SOL     OW21120   0.868   0.394   7.029 -0.1387 -0.1534  0.1171
 6567SOL    HW121121   0.897   0.305   7.012 -0.5047 -0.3077  0.3066
 6567SOL    HW221122   0.817   0.389   7.109  0.3975  0.3427  0.4987
 6568SOL     OW21123   4.701   2.376   1.644 -0.1946 -0.6315  0.8736
 6568SOL    HW121124   4.618   2.422   1.655 -1.4682 -2.9916  1.8004
 6568SOL    HW221125   4.684   2.312   1.575  1.7803  0.7241 -1.0013
 6569SOL     OW21126   4.368   2.510   2.439 -0.6290 -0.0652 -0.3793
 6569SOL    HW121127   4.454   2.503   2.481 -0.0953 -0.1326 -1.4667
 6569SOL    HW221128   4.357   2.603   2.421 -0.0955 -0.2211 -1.6158
 6570SOL     OW21129   2.728   0.655   2.180 -0.7046 -0.5688  0.9619
 6570SOL    HW121130   2.818   0.624   2.192  0.3928  1.5401 -0.8836
 6570SOL    HW221131   2.710   0.707   2.258  0.1835  0.0133  0.7974
 6571SOL     OW21132   0.838   7.913   3.699  0.3620  0.1858 -0.1699
 6571SOL    HW121133   0.804   7.989   3.652 -1.1262  0.0295  0.5952
 6571SOL    HW221134   0.930   7.934   3.716  1.1260  0.0415 -3.5200
 6572SOL     OW21135   1.043   1.575   1.489 -0.1146 -0.0335 -0.4227
 6572SOL    HW121136   0.975   1.584   1.422  0.1950  0.6449 -0.6551
 6572SOL    HW221137   1.120   1.616   1.450  0.5677 -1.2256 -0.3502
 6573SOL     OW21138   2.720   2.390   7.876 -0.0892 -0.0894  0.2976
 6573SOL    HW121139   2.731   2.345   7.793  0.3274 -0.5944  0.6196
 6573SOL    HW221140   2.808   2.393   7.913 -0.3558 -0.3295  0.9588
 6574SOL     OW21141   6.119   2.301   4.850  0.0634 -0.1314 -0.1884
 6574SOL    HW121142   6.024   2.311   4.857  0.2616  1.5055  0.8640
 6574SOL    HW221143   6.152   2.391   4.856  1.6481 -0.5856 -1.4005
 6575SOL     OW21144   6.104   4.039   4.031  0.1095  0.5299  0.6107
 6575SOL    HW121145   6.139   3.950   4.042  0.3883  0.6319  0.5456
 6575SOL    HW221146   6.062   4.059   4.114  0.4115  0.4987  0.7691
 6576SOL     OW21147   6.359   3.270   5.054  0.4208 -0.6563 -0.2726
 6576SOL    HW121148   6.388   3.277   4.963 -1.9822  3.1768 -0.9935
 6576SOL    HW221149   6.278   3.219   5.050  0.6544 -1.0382 -0.1690
 6577SOL     OW21150   4.003   3.928   6.948 -0.0688 -0.5548  0.2633
 6577SOL    HW121151   3.950   3.878   6.885  0.1847 -0.1309 -0.2949
 6577SOL    HW221152   3.960   3.912   7.032 -1.0530 -0.2777 -0.1654
 6578SOL     OW21153   5.947   5.180   3.558 -0.7774 -0.0025 -0.4562
 6578SOL    HW121154   5.878   5.237   3.593 -1.7283 -0.6503 -1.2454
 6578SOL    HW221155   5.988   5.233   3.490 -1.0132  0.0947 -0.5238
 6579SOL     OW21156   2.246   2.858   0.850  0.0205 -0.4074  0.5438
 6579SOL    HW121157   2.195   2.909   0.912 -1.1287  0.1095 -0.7862
 6579SOL    HW221158   2.204   2.873   0.765  1.7190 -0.8492 -0.4266
 6580SOL     OW21159   7.947   7.595   2.877  0.2135 -0.3667  0.0905
 6580SOL    HW121160   7.876   7.549   2.920  0.1803  0.7696  1.3051
 6580SOL    HW221161   7.904   7.656   2.817  0.2576 -1.8747 -1.5681
 6581SOL     OW21162   4.985   0.635   7.440 -0.4236  0.2051 -0.0591
 6581SOL    HW121163   5.069   0.672   7.412  0.1577 -0.1984  1.0697
 6581SOL    HW221164   4.952   0.697   7.505 -1.1132  0.4679 -0.6478
 6582SOL     OW21165   2.636   1.215   4.948  0.3970 -0.1417  0.0000
 6582SOL    HW121166   2.602   1.295   4.908 -0.1114 -0.1588  0.3811
 6582SOL    HW221167   2.577   1.146   4.919  0.6798 -0.3401 -0.1127
 6583SOL     OW21168   1.812   5.269   5.513  0.2555  0.3888  0.1688
 6583SOL    HW121169   1.840   5.192   5.464 -0.2372  0.1444  0.2697
 6583SOL    HW221170   1.889   5.326   5.513  0.6610 -0.1483  0.1927
 6584SOL     OW21171   1.837   3.413   3.518 -0.0247 -0.4357 -0.0270
 6584SOL    HW121172   1.797   3.499   3.506  0.4659 -0.0596  0.9507
 6584SOL    HW221173   1.780   3.368   3.580  0.4827 -0.2807  0.5631
 6585SOL     OW21174   5.546   6.834   7.095  0.0346 -0.5242  0.0014
 6585SOL    HW121175   5.482   6.899   7.123  0.1953 -0.4063  0.0982
 6585SOL    HW221176   5.535   6.761   7.156 -0.7538 -0.9591 -0.6490
 6586SOL     OW21177   1.321   0.085   5.810  0.0785 -0.0504 -0.0295
 6586SOL    HW121178   1.391   0.136   5.771 -0.3028  0.0898 -0.5413
 6586SOL    HW221179   1.329  -0.002   5.770 -1.0537  0.4250 -1.3650
 6587SOL     OW21180   1.738   2.817   6.902  0.1662 -0.1002 -0.5513
 6587SOL    HW121181   1.717   2.787   6.991 -1.8017 -1.0612 -1.2756
 6587SOL    HW221182   1.687   2.760   6.845 -0.5731  2.0518 -2.1902
 6588SOL     OW21183   6.867   6.953   1.225 -0.3348  0.1719 -0.2146
 6588SOL    HW121184   6.822   6.889   1.280  2.6092 -2.5560 -0.7042
 6588SOL    HW221185   6.858   6.918   1.136  0.2226  1.1796 -0.6778
 6589SOL     OW21186   5.084   2.977   2.571 -0.1396  0.2748 -0.5439
 6589SOL    HW121187   5.092   2.904   2.510 -1.6197 -1.7785  1.5297
 6589SOL    HW221188   5.127   2.946   2.651 -1.3268  1.4014  0.5960
 6590SOL     OW21189   8.095   2.118   3.316 -0.6351  0.5483  0.3437
 6590SOL    HW121190   8.071   2.187   3.255 -2.5460 -1.2250 -1.0480
 6590SOL    HW221191   8.056   2.145   3.399 -0.6209  1.5352  0.0367
 6591SOL     OW21192   1.354   6.933   6.018 -0.1991  0.0332 -0.4174
 6591SOL    HW121193   1.394   6.995   6.080  0.4106  0.2228 -0.9879
 6591SOL    HW221194   1.319   6.863   6.074 -0.5542  0.6948  0.2062
 6592SOL     OW21195   0.708   4.975   8.152 -0.0133 -0.2727  0.3994
 6592SOL    HW121196   0.676   4.885   8.151 -1.6954  0.2894  0.8389
 6592SOL    HW221197   0.693   5.007   8.063  2.3926 -0.9719 -0.3420
 6593SOL     OW21198   1.951   6.450   3.114  0.2308 -0.0368 -0.2803
 6593SOL    HW121199   2.032   6.500   3.127  0.2657 -0.4081  1.0313
 6593SOL    HW221200   1.881   6.513   3.131  0.2467  0.1069 -0.7350
 6594SOL     OW21201   3.238   6.034   5.796 -0.1455  0.3543 -1.2938
 6594SOL    HW121202   3.160   5.990   5.761  0.6790 -0.4117 -2.2067
 6594SOL    HW221203   3.269   5.976   5.865  1.6098 -1.1678 -3.2637
 6595SOL     OW21204   3.848   2.942   4.721 -0.0863  0.5992 -0.8384
 6595SOL    HW121205   3.855   2.896   4.637  1.7797  0.8222 -0.8472
 6595SOL    HW221206   3.899   2.889   4.782 -2.5754 -0.3322  0.5649
 6596SOL     OW21207   3.475   4.823   6.635 -0.0259  0.1693 -0.8153
 6596SOL    HW121208   3.452   4.731   6.650 -1.3021  0.5440 -0.3660
 6596SOL    HW221209   3.565   4.830   6.668 -0.1093 -0.7887 -0.3454
 6597SOL     OW21210   0.052   2.066   5.536 -0.1114 -0.3415  0.5223
 6597SOL    HW121211   0.012   2.112   5.463 -0.5114 -1.3542  0.0765
 6597SOL    HW221212  -0.020   2.018   5.577  0.3350 -0.8143  0.7723
 6598SOL     OW21213   5.203   1.245   0.013 -0.4560 -0.2761  0.3661
 6598SOL    HW121214   5.222   1.300   0.090 -3.0672 -0.9645  1.6255
 6598SOL    HW221215   5.153   1.302  -0.045 -0.5197 -0.4581  0.2438
 6599SOL     OW21216   2.238   7.787   2.230 -0.3826  0.4518  0.2520
 6599SOL    HW121217   2.181   7.842   2.176  0.2612  0.6331 -0.2567
 6599SOL    HW221218   2.189   7.706   2.243 -0.4189  0.2765 -0.8884
 6600SOL     OW21219   4.397   5.117   6.157 -0.0760  0.1223 -0.2797
 6600SOL    HW121220   4.392   5.049   6.090  1.7694 -0.0534 -0.3029
 6600SOL    HW221221   4.398   5.068   6.240  2.6552 -0.0623 -0.3359
 6601SOL     OW21222   7.628   1.896   0.594 -0.5740  0.1995  0.2628
 6601SOL    HW121223   7.683   1.853   0.660 -0.5487  0.4456  0.4037
 6601SOL    HW221224   7.689   1.952   0.546 -0.5627 -0.0939 -0.0746
 6602SOL     OW21225   7.563   3.278   7.332 -0.1313  0.1599 -0.0361
 6602SOL    HW121226   7.482   3.329   7.333  0.8472  1.8083 -0.4235
 6602SOL    HW221227   7.576   3.257   7.239 -0.3605 -0.5606  0.0852
 6603SOL     OW21228   1.746   7.219   4.423  0.0918 -0.2299  0.5007
 6603SOL    HW121229   1.826   7.183   4.383 -0.7943 -0.9992 -0.6326
 6603SOL    HW221230   1.748   7.187   4.513  0.0152 -2.0518 -0.1072
 6604SOL     OW21231   5.912   1.126   0.944 -0.2484 -0.6333  0.3897
 6604SOL    HW121232   5.817   1.114   0.954 -0.1901 -1.1345  0.3736
 6604SOL    HW221233   5.933   1.081   0.863 -0.0629 -0.1281  0.1500
 6605SOL     OW21234   6.406   3.814   0.068  0.4616 -0.7726  0.1801
 6605SOL    HW121235   6.493   3.852   0.052  0.0607 -0.1335 -0.5236
 6605SOL    HW221236   6.373   3.790  -0.019 -0.1529 -0.8225  0.4202
 6606SOL     OW21237   7.206   3.378   3.254  0.6034  0.0566 -0.0787
 6606SOL    HW121238   7.155   3.424   3.186  2.4104  0.5724 -1.1447
 6606SOL    HW221239   7.177   3.287   3.247 -3.8163  0.9067  2.7605
 6607SOL     OW21240   0.525   8.153   6.123 -0.0258  0.4084 -0.3965
 6607SOL    HW121241   0.558   8.066   6.100 -2.7601 -1.2660  1.4840
 6607SOL    HW221242   0.501   8.193   6.039  0.7476 -0.8718 -1.2520
 6608SOL     OW21243   4.950   6.836   6.743 -0.4465 -0.6382  0.3329
 6608SOL    HW121244   4.895   6.758   6.752 -2.0953  0.5397  1.0063
 6608SOL    HW221245   4.967   6.863   6.833 -2.5796  1.5164  0.1931
 6609SOL     OW21246   5.402   6.455   8.238 -0.1119 -0.2056  0.2479
 6609SOL    HW121247   5.414   6.370   8.197  0.4726 -0.2561  0.5061
 6609SOL    HW221248   5.312   6.455   8.270 -0.4417 -0.3193 -0.6675
 6610SOL     OW21249   6.317   5.146   3.156  0.1850  0.3448  0.1623
 6610SOL    HW121250   6.391   5.090   3.132 -0.6696 -0.1332 -1.4887
 6610SOL    HW221251   6.294   5.117   3.244 -0.1478 -1.8736 -0.5811
 6611SOL     OW21252   3.047   4.322   4.194  0.2355 -0.0978  0.1806
 6611SOL    HW121253   3.038   4.238   4.237  1.5105 -0.3263  0.0557
 6611SOL    HW221254   3.060   4.385   4.265 -2.4860  0.3227  0.3999
 6612SOL     OW21255   5.873   4.144   6.603  0.2017  0.2238 -0.1076
 6612SOL    HW121256   5.950   4.199   6.613  0.3025  0.0751 -0.0636
 6612SOL    HW221257   5.903   4.056   6.625  0.4221 -0.1214 -1.6294
 6613SOL     OW21258   4.385   8.198   7.815  0.1290  0.4659  0.0342
 6613SOL    HW121259   4.322   8.164   7.880 -1.8178  1.3764 -1.2756
 6613SOL    HW221260   4.409   8.122   7.763 -0.7791  0.2967 -0.1503
 6614SOL     OW21261   0.299   3.979   2.191 -0.2950 -0.0175  0.5379
 6614SOL    HW121262   0.248   4.046   2.236 -1.9377 -0.6967 -0.2390
 6614SOL    HW221263   0.362   4.028   2.138 -0.4320  0.8588  1.1674
 6615SOL     OW21264   6.832   8.100   0.065 -0.0498 -0.4111  0.3158
 6615SOL    HW121265   6.921   8.111   0.098 -0.1508  0.4521  0.3121
 6615SOL    HW221266   6.837   8.022   0.009  0.8523 -0.0010 -0.1977
 6616SOL     OW21267   5.886   8.063   3.061 -0.1364  0.0065 -0.3775
 6616SOL    HW121268   5.864   8.075   2.968  1.2706 -0.2479 -0.7714
 6616SOL    HW221269   5.804   8.035   3.102 -0.3081 -1.9676 -1.9453
 6617SOL     OW21270   3.044   5.878   7.449 -0.2553 -0.9457 -0.2096
 6617SOL    HW121271   3.069   5.939   7.379 -0.4833 -0.8647 -0.2246
 6617SOL    HW221272   3.118   5.878   7.509 -0.1817 -0.7830 -0.2998
 6618SOL     OW21273   1.993   7.585   8.138  0.3231 -0.0438 -0.2511
 6618SOL    HW121274   1.959   7.497   8.155 -0.3637  0.1241 -0.7417
 6618SOL    HW221275   2.019   7.584   8.046 -1.0541  0.6943 -0.6822
 6619SOL     OW21276   0.916   4.079   7.090  0.2461  0.9221  0.2234
 6619SOL    HW121277   0.972   4.155   7.104  0.0888  1.3091 -1.0900
 6619SOL    HW221278   0.970   4.019   7.039 -0.4226  1.1996 -0.8487
 6620SOL     OW21279   1.095   7.735   6.116  0.3854 -0.0241  0.1622
 6620SOL    HW121280   1.044   7.677   6.060 -1.3320  1.2588  0.3206
 6620SOL    HW221281   1.101   7.817   6.065 -1.5211  1.2966  1.9322
 6621SOL     OW21282   0.709   3.238   6.543  0.6314  0.9411  0.1494
 6621SOL    HW121283   0.635   3.233   6.482  0.7307  1.3992 -0.0126
 6621SOL    HW221284   0.668   3.234   6.630  0.2512  2.8243  0.0944
 6622SOL     OW21285   4.448   6.211   2.255  0.4171 -0.0985 -0.9251
 6622SOL    HW121286   4.480   6.188   2.343 -1.1967  0.8296 -0.0342
 6622SOL    HW221287   4.464   6.306   2.248 -0.2725  0.0008 -1.2499
 6623SOL     OW21288   6.314   2.642   5.919  0.3494  0.3132  0.2654
 6623SOL    HW121289   6.316   2.547   5.912  0.6828  0.2074  1.5858
 6623SOL    HW221290   6.393   2.671   5.875 -0.3206  0.0774 -1.1541
 6624SOL     OW21291   1.521   2.466   7.498  0.2223 -1.0153  0.2902
 6624SOL    HW121292   1.494   2.374   7.504  0.7940 -1.1080  2.0697
 6624SOL    HW221293   1.485   2.496   7.415 -0.2035 -2.7746 -0.2046
 6625SOL     OW21294   3.288   5.736   1.453 -0.1201 -0.3711  0.1374
 6625SOL    HW121295   3.239   5.790   1.516 -0.3657 -0.8333  0.3449
 6625SOL    HW221296   3.251   5.759   1.368  0.1617  0.2000  0.1635
 6626SOL     OW21297   5.923   4.173   6.966  0.1546  0.2165  0.2609
 6626SOL    HW121298   6.002   4.203   7.012 -0.0258  0.9443  0.1083
 6626SOL    HW221299   5.898   4.247   6.911 -0.3012 -0.2278 -0.1346
 6627SOL     OW21300   0.250   5.232   6.388  0.3692  0.1399  0.5781
 6627SOL    HW121301   0.272   5.324   6.374 -0.0494  0.0694 -0.7135
 6627SOL    HW221302   0.235   5.224   6.482 -1.4208  1.8080  0.4718
 6628SOL     OW21303   5.293   0.283   2.317 -0.2802 -0.1071 -0.0001
 6628SOL    HW121304   5.364   0.290   2.381 -1.7466 -0.4264  1.7318
 6628SOL    HW221305   5.320   0.339   2.245  2.2980 -1.1622  0.0341
 6629SOL     OW21306   2.228   5.504   2.118 -0.2933 -0.7123 -0.7642
 6629SOL    HW121307   2.292   5.549   2.174  0.2277  0.1141 -1.9809
 6629SOL    HW221308   2.245   5.411   2.134 -0.8917 -0.5352  1.2369
 6630SOL     OW21309   7.531   7.018   0.158  0.7059 -0.0729 -0.4092
 6630SOL    HW121310   7.619   7.008   0.194  0.9516  0.2599 -0.9234
 6630SOL    HW221311   7.485   7.073   0.222  1.3641  1.1415 -0.9536
 6631SOL     OW21312   7.349   3.994   3.224 -0.5181  0.1603  0.4861
 6631SOL    HW121313   7.299   4.073   3.242 -0.9861 -0.0667  0.1907
 6631SOL    HW221314   7.367   3.997   3.130  0.2028  0.3384  0.6196
 6632SOL     OW21315   2.754   1.184   2.053  0.2824  0.3313 -0.6707
 6632SOL    HW121316   2.825   1.229   2.007  0.9617 -1.9600 -2.0235
 6632SOL    HW221317   2.674   1.227   2.022  0.9450  2.0567 -0.1557
 6633SOL     OW21318   4.144   5.342   2.821  0.1486  0.1849  0.0676
 6633SOL    HW121319   4.066   5.377   2.865  0.7455  0.4714  0.9136
 6633SOL    HW221320   4.110   5.270   2.767 -0.4392 -1.0637  2.0125
 6634SOL     OW21321   2.163   3.494   3.035 -0.1605  0.5174 -0.8180
 6634SOL    HW121322   2.166   3.551   3.112 -1.6766  0.1231 -0.4408
 6634SOL    HW221323   2.114   3.417   3.063 -1.1737  0.5672 -2.2909
 6635SOL     OW21324   8.044   4.579   0.492  0.4271 -0.2189  0.2441
 6635SOL    HW121325   8.106   4.593   0.564 -0.1204 -0.5236  0.7800
 6635SOL    HW221326   8.062   4.651   0.431 -1.2741  2.0183  2.1997
 6636SOL     OW21327   6.130   6.282   0.508  0.2682 -0.1347  0.4910
 6636SOL    HW121328   6.052   6.296   0.454 -0.4402  2.0479  1.9365
 6636SOL    HW221329   6.116   6.197   0.550 -1.1813  0.0593  0.4433
 6637SOL     OW21330   1.907   5.367   1.931  0.7367  0.3674 -0.1774
 6637SOL    HW121331   1.956   5.430   1.984 -0.4851  1.2043 -0.0042
 6637SOL    HW221332   1.840   5.333   1.991 -0.4550  1.0808 -1.0903
 6638SOL     OW21333   1.980   2.401   6.744 -0.4975  0.2570 -0.0666
 6638SOL    HW121334   1.915   2.460   6.781 -1.6145 -0.8157 -0.2561
 6638SOL    HW221335   2.015   2.449   6.669  0.2410  1.5633  1.0639
 6639SOL     OW21336   0.226   4.244   3.850 -0.5619 -0.2775 -0.3945
 6639SOL    HW121337   0.319   4.238   3.871 -0.9207  1.1078  1.9503
 6639SOL    HW221338   0.222   4.235   3.755  2.0350  0.4378 -0.6375
 6640SOL     OW21339   2.533   3.680   7.586 -0.2423 -0.1888 -0.5916
 6640SOL    HW121340   2.607   3.663   7.644  0.1766 -0.1156 -1.1005
 6640SOL    HW221341   2.565   3.659   7.499 -0.6584  0.3322 -0.8801
 6641SOL     OW21342   3.847   0.541   0.698  0.1467  0.0309  0.7724
 6641SOL    HW121343   3.840   0.482   0.773 -1.8355  0.6636  1.1494
 6641SOL    HW221344   3.840   0.484   0.621 -0.6216 -0.3446  1.1178
 6642SOL     OW21345   1.126   4.366   3.507  0.4389  0.2976  0.1004
 6642SOL    HW121346   1.215   4.398   3.495  0.6032  0.0126  0.5475
 6642SOL    HW221347   1.115   4.299   3.439  0.9509 -0.4458  0.7318
 6643SOL     OW21348   0.990   1.676   1.067 -0.3590  0.1904 -0.2664
 6643SOL    HW121349   1.053   1.723   1.012  0.0313 -0.4187 -0.3493
 6643SOL    HW221350   1.026   1.588   1.074 -0.4111  0.2566  0.9671
 6644SOL     OW21351   6.126   4.216   2.392  0.7460 -0.0966 -0.1576
 6644SOL    HW121352   6.081   4.160   2.455  2.6061 -1.1490  0.3260
 6644SOL    HW221353   6.169   4.155   2.332  1.5331  0.8499 -0.5806
 6645SOL     OW21354   1.064   4.796   5.500 -0.7565  0.3584  0.4686
 6645SOL    HW121355   1.100   4.778   5.587  0.4283  0.4290  0.0223
 6645SOL    HW221356   0.970   4.781   5.508 -0.5787 -0.2163  1.6061
 6646SOL     OW21357   2.154   6.141   8.329  0.6393 -0.0129  0.5083
 6646SOL    HW121358   2.155   6.109   8.419  1.4716 -0.5172  0.3342
 6646SOL    HW221359   2.082   6.094   8.287 -0.2375  0.7706  1.0799
 6647SOL     OW21360   8.280   2.687   2.524 -0.1550  0.2796  0.5477
 6647SOL    HW121361   8.208   2.651   2.577  0.3686 -1.0724  0.3746
 6647SOL    HW221362   8.351   2.624   2.535  0.6768  1.0930 -0.0760
 6648SOL     OW21363   6.576   6.957   0.299 -0.2864  0.0275  0.2972
 6648SOL    HW121364   6.529   6.932   0.379  0.6806  0.7887  1.1247
 6648SOL    HW221365   6.537   7.040   0.274  1.2978  1.2228  1.6114
 6649SOL     OW21366   1.773   8.077   7.420 -0.0877  0.2279  0.1999
 6649SOL    HW121367   1.862   8.040   7.413 -0.7014 -1.2788 -0.1292
 6649SOL    HW221368   1.786   8.172   7.418  1.4467  0.0355 -0.8639
 6650SOL     OW21369   7.638   3.211   5.012 -0.2473  0.0836  0.8538
 6650SOL    HW121370   7.709   3.274   5.023 -1.6823  2.3681 -1.7913
 6650SOL    HW221371   7.569   3.243   5.070  0.3248 -1.3612  2.4040
 6651SOL     OW21372   8.216   1.301   3.194  0.3616  0.0907 -0.2756
 6651SOL    HW121373   8.175   1.361   3.257 -0.8947  0.0179 -0.9856
 6651SOL    HW221374   8.151   1.291   3.125  0.1524 -2.7908  0.2273
 6652SOL     OW21375   6.078   3.776   5.950  0.0129 -0.0608  0.6702
 6652SOL    HW121376   6.018   3.741   5.883  1.8178  0.3182 -1.2713
 6652SOL    HW221377   6.154   3.718   5.946  1.4273  1.7272  0.1565
 6653SOL     OW21378   4.526   2.829   2.937 -0.2997 -0.4676  0.4891
 6653SOL    HW121379   4.619   2.852   2.939 -1.1654  4.1315 -0.4046
 6653SOL    HW221380   4.495   2.844   3.026 -0.5568  0.4448  0.2649
 6654SOL     OW21381   3.520   3.711   0.687  0.3340  0.2379  0.4538
 6654SOL    HW121382   3.553   3.742   0.603 -3.1998  1.2841 -0.7337
 6654SOL    HW221383   3.481   3.626   0.668 -0.6605  0.5669  0.9615
 6655SOL     OW21384   0.506   2.546   7.097  0.2814  0.2491  0.2394
 6655SOL    HW121385   0.434   2.484   7.084 -1.2243  2.2011 -1.4413
 6655SOL    HW221386   0.581   2.504   7.055 -0.1922 -1.1951  0.7499
 6656SOL     OW21387   4.509   5.966   1.607 -0.0185 -0.5771 -0.1400
 6656SOL    HW121388   4.593   5.948   1.564  0.4984  0.0072  0.5937
 6656SOL    HW221389   4.444   5.957   1.537  0.5339 -2.0757 -0.4920
 6657SOL     OW21390   3.078   4.515   3.090  0.6573  0.1741 -0.0148
 6657SOL    HW121391   3.122   4.479   3.167  0.6259  2.1510  0.9949
 6657SOL    HW221392   3.142   4.574   3.052 -0.0427  0.7376 -0.3256
 6658SOL     OW21393   3.681   0.645   3.156 -0.2327 -0.1093 -0.4985
 6658SOL    HW121394   3.688   0.708   3.083 -0.8431  0.1049 -0.3758
 6658SOL    HW221395   3.600   0.597   3.138 -0.3798 -0.0612  0.0309
 6659SOL     OW21396   4.826   2.778   6.711 -0.3481  0.2389 -0.2339
 6659SOL    HW121397   4.800   2.694   6.750  0.9420  0.0719  0.3319
 6659SOL    HW221398   4.790   2.844   6.770  0.5355  0.0133  0.5795
 6660SOL     OW21399   8.304   4.917   5.156 -0.2019 -0.3603 -0.2815
 6660SOL    HW121400   8.284   5.005   5.188 -0.3753 -0.6647  0.4716
 6660SOL    HW221401   8.368   4.882   5.218  0.1163 -0.6534 -0.7587
 6661SOL     OW21402   3.682   6.603   4.240 -0.1702 -0.0611 -0.0545
 6661SOL    HW121403   3.660   6.623   4.331 -0.4524  1.4474 -0.4369
 6661SOL    HW221404   3.679   6.507   4.236 -0.2077 -0.1530  1.5013
 6662SOL     OW21405   7.396   5.056   3.346  0.0065  0.1438 -0.4435
 6662SOL    HW121406   7.361   4.974   3.381  0.4498 -0.7315 -1.9708
 6662SOL    HW221407   7.339   5.077   3.272  0.0158  1.1140 -0.1825
 6663SOL     OW21408   6.086   2.154   4.144 -0.0257  0.4015  0.4992
 6663SOL    HW121409   6.042   2.221   4.092 -0.1476  0.7997  1.1169
 6663SOL    HW221410   6.116   2.090   4.079 -2.4252 -0.4328  0.1118
 6664SOL     OW21411   4.041   7.847   3.834  0.4924  0.4949 -0.6482
 6664SOL    HW121412   3.946   7.854   3.836  0.4788  0.6946  2.9874
 6664SOL    HW221413   4.058   7.782   3.765 -2.3551 -0.7387 -0.3150
 6665SOL     OW21414   2.959   3.565   1.256 -0.5697 -0.2204 -0.2063
 6665SOL    HW121415   2.885   3.550   1.314  0.4566 -2.5510  0.6272
 6665SOL    HW221416   2.943   3.509   1.181 -0.4339  0.5086 -0.7910
 6666SOL     OW21417   1.446   0.056   6.270  0.3469  0.3981 -0.1153
 6666SOL    HW121418   1.498   0.100   6.202  0.9907 -0.8974 -0.4997
 6666SOL    HW221419   1.506   0.046   6.343 -0.3137  1.6840  0.6215
 6667SOL     OW21420   8.339   4.758   7.482 -0.0947 -0.3042  0.1034
 6667SOL    HW121421   8.248   4.786   7.481  0.0711  0.2675  0.4729
 6667SOL    HW221422   8.341   4.680   7.426 -0.4506  0.7799 -1.4992
 6668SOL     OW21423   6.408   7.643   1.529 -0.1330 -0.2603 -0.5996
 6668SOL    HW121424   6.340   7.710   1.543  0.0044 -0.2239 -0.1055
 6668SOL    HW221425   6.488   7.682   1.564 -0.2428 -1.0629  0.5853
 6669SOL     OW21426   3.122   3.799   1.137  0.4403  0.3061  0.7878
 6669SOL    HW121427   3.201   3.823   1.186 -0.8504  0.7966  2.7389
 6669SOL    HW221428   3.106   3.708   1.162  2.2737 -1.0356 -2.3677
 6670SOL     OW21429   0.347   3.771   7.297  0.6415  0.1896 -0.4074
 6670SOL    HW121430   0.387   3.803   7.216  1.5471 -0.2218 -0.1269
 6670SOL    HW221431   0.290   3.700   7.269 -0.5825  1.3056 -0.9086
 6671SOL     OW21432   0.022   4.317   3.569  0.6477 -0.3020 -0.2570
 6671SOL    HW121433   0.107   4.361   3.568 -0.0545  1.1225  0.0243
 6671SOL    HW221434  -0.033   4.372   3.514 -0.3571 -0.6261  0.4109
 6672SOL     OW21435   1.709   1.828   0.256  0.0119  0.1578 -0.6393
 6672SOL    HW121436   1.642   1.765   0.231 -0.9699  1.6652 -1.9946
 6672SOL    HW221437   1.787   1.775   0.275 -0.4655 -1.3817 -2.7134
 6673SOL     OW21438   8.237   0.237   6.615 -0.7370 -0.1559  0.5205
 6673SOL    HW121439   8.157   0.288   6.629 -0.9593 -0.0297 -1.0930
 6673SOL    HW221440   8.298   0.299   6.575 -0.2450 -0.5852  0.5956
 6674SOL     OW21441   1.384   0.519   5.808  0.1038  0.2590 -0.0789
 6674SOL    HW121442   1.290   0.531   5.795  0.3334  0.1339 -2.1049
 6674SOL    HW221443   1.422   0.604   5.786  0.4420  0.5596  1.5143
 6675SOL     OW21444   0.179   5.970   2.386 -0.2439 -0.2602  0.0459
 6675SOL    HW121445   0.094   5.936   2.359 -0.2772 -0.4661  0.4036
 6675SOL    HW221446   0.207   6.026   2.313 -0.9747  0.3147  0.1937
 6676SOL     OW21447   2.187   2.977   7.954 -0.2865  0.0653  0.4300
 6676SOL    HW121448   2.143   2.986   7.869 -1.7949  0.2450  1.1933
 6676SOL    HW221449   2.271   2.936   7.933 -0.3045  0.7966 -1.2260
 6677SOL     OW21450   3.635   1.861   1.707 -0.5214 -0.6078 -0.1358
 6677SOL    HW121451   3.701   1.809   1.754 -0.8070 -0.7208  0.1383
 6677SOL    HW221452   3.631   1.820   1.620  0.6455  0.1365 -0.5747
 6678SOL     OW21453   5.821   7.999   7.514  0.1988 -0.1557  0.3283
 6678SOL    HW121454   5.883   8.015   7.443  1.6902  0.2828  1.6632
 6678SOL    HW221455   5.774   8.082   7.525 -1.0196 -0.6260 -0.9905
 6679SOL     OW21456   5.507   4.157   6.048  0.1149 -0.3059  0.5104
 6679SOL    HW121457   5.590   4.133   6.090  0.7526 -0.9312 -1.0644
 6679SOL    HW221458   5.451   4.080   6.061  1.4882 -2.0254 -2.7562
 6680SOL     OW21459   5.587   1.896   7.185  0.0173 -0.3501 -0.2122
 6680SOL    HW121460   5.572   1.917   7.093 -0.6457  0.3472  0.0472
 6680SOL    HW221461   5.557   1.973   7.233  0.8990 -0.4645  0.5646
 6681SOL     OW21462   7.888   6.232   7.163 -0.7573  0.5503  0.5077
 6681SOL    HW121463   7.895   6.299   7.095 -2.1775 -0.3003 -0.5257
 6681SOL    HW221464   7.979   6.218   7.191 -0.1896  1.2949 -0.8369
 6682SOL     OW21465   6.103   8.325   5.954  0.0687  0.0169 -0.1897
 6682SOL    HW121466   6.130   8.394   6.014  0.1104  0.6137 -0.8762
 6682SOL    HW221467   6.042   8.368   5.894  0.3323 -0.4659 -0.8168
 6683SOL     OW21468   2.418   6.835   8.002  0.6420 -0.3295  0.4112
 6683SOL    HW121469   2.472   6.776   7.948  0.1347 -2.1676  1.8039
 6683SOL    HW221470   2.336   6.843   7.954  0.4986 -1.2751  0.4749
 6684SOL     OW21471   5.850   5.064   6.198 -0.3299 -0.6818  0.1943
 6684SOL    HW121472   5.877   5.096   6.111 -1.7981 -0.5117 -0.2242
 6684SOL    HW221473   5.832   4.971   6.184  3.4492 -1.7532  1.3013
 6685SOL     OW21474   5.268   1.459   1.437  0.2963  0.3453 -0.2145
 6685SOL    HW121475   5.250   1.535   1.380  1.0532  0.4280 -0.3584
 6685SOL    HW221476   5.293   1.390   1.376  0.1854  0.1531 -0.0399
 6686SOL     OW21477   2.332   4.593   6.388 -0.1809  0.0228  0.4355
 6686SOL    HW121478   2.308   4.502   6.406  0.4038 -0.3904 -0.8031
 6686SOL    HW221479   2.368   4.625   6.471 -1.2303 -0.5819  1.1373
 6687SOL     OW21480   7.155   5.709   0.971 -0.3304  0.2364 -0.1478
 6687SOL    HW121481   7.191   5.796   0.990 -0.0919  0.1748 -0.3230
 6687SOL    HW221482   7.121   5.717   0.881 -1.9828  0.7033  0.4745
 6688SOL     OW21483   4.225   6.016   0.339 -0.6371  0.1121 -0.6162
 6688SOL    HW121484   4.250   6.105   0.362 -1.0387 -0.0176  0.3851
 6688SOL    HW221485   4.299   5.962   0.366 -0.6895  0.0648 -0.5670
 6689SOL     OW21486   5.950   1.369   0.354  0.1413 -0.2505 -0.9404
 6689SOL    HW121487   5.935   1.398   0.264  0.2325  1.5928 -0.4161
 6689SOL    HW221488   5.917   1.442   0.407 -2.1481 -2.2821  0.6107
 6690SOL     OW21489   6.572   0.851   2.633 -0.6559  0.1727  0.0307
 6690SOL    HW121490   6.662   0.819   2.628 -0.4339  0.8443 -0.5545
 6690SOL    HW221491   6.521   0.786   2.586 -0.1406  0.8818 -1.5779
 6691SOL     OW21492   5.920   6.584   6.263 -0.2062  0.1748  0.3203
 6691SOL    HW121493   5.828   6.591   6.286  0.3148  2.2732  1.9815
 6691SOL    HW221494   5.967   6.600   6.344  1.6565  1.3951 -0.9235
 6692SOL     OW21495   0.765   5.665   3.473 -0.1585  0.3673 -0.2108
 6692SOL    HW121496   0.817   5.730   3.424 -0.5900  0.2000 -0.9045
 6692SOL    HW221497   0.676   5.678   3.442 -0.4800  0.4024  0.7082
 6693SOL     OW21498   3.572   7.607   8.221  0.2108  0.3148  0.1059
 6693SOL    HW121499   3.665   7.588   8.208 -0.2551 -0.5996 -2.7236
 6693SOL    HW221500   3.533   7.523   8.245 -0.2180  0.0758 -1.3172
 6694SOL     OW21501   8.310   4.585   3.040  0.8183 -0.2804  0.5941
 6694SOL    HW121502   8.227   4.571   3.087  0.4995  1.3829  0.5821
 6694SOL    HW221503   8.289   4.566   2.949  0.3161  0.5272  0.5284
 6695SOL     OW21504   2.905   6.725   1.561 -0.0813 -0.0980  0.2503
 6695SOL    HW121505   2.963   6.677   1.502 -0.5716 -0.1978 -0.1511
 6695SOL    HW221506   2.834   6.663   1.581  0.4750 -0.3571  1.5751
 6696SOL     OW21507   5.537   0.783   1.580 -0.1121  0.0720 -0.0779
 6696SOL    HW121508   5.612   0.724   1.571 -0.2042  0.0665 -0.9601
 6696SOL    HW221509   5.565   0.848   1.643  0.0550 -0.8127  0.7892
 6697SOL     OW21510   8.367   5.843   3.130 -0.4780 -0.0439  0.1752
 6697SOL    HW121511   8.278   5.809   3.139 -0.9730  1.4311  1.2000
 6697SOL    HW221512   8.412   5.815   3.210 -0.4272  0.3740  0.2927
 6698SOL     OW21513   0.058   2.954   1.358  0.4373 -0.0311  0.2404
 6698SOL    HW121514   0.102   3.031   1.395  1.4898 -0.0925 -0.8113
 6698SOL    HW221515   0.025   2.907   1.435 -3.2492  3.0893  0.8653
 6699SOL     OW21516   3.001   3.331   3.193  0.4840 -0.3119  0.4712
 6699SOL    HW121517   2.949   3.260   3.156  2.4909 -1.1678 -0.9169
 6699SOL    HW221518   2.982   3.407   3.137  1.0024 -0.7381 -0.3127
 6700SOL     OW21519   1.606   3.626   8.322 -0.0808 -0.3729 -0.1423
 6700SOL    HW121520   1.602   3.659   8.232 -1.8065  0.8119  0.3024
 6700SOL    HW221521   1.656   3.692   8.370  0.2913 -0.6804 -0.1042
 6701SOL     OW21522   5.611   0.832   2.109 -0.3806 -0.5176  0.2011
 6701SOL    HW121523   5.564   0.763   2.063 -1.0976 -1.3501  2.1188
 6701SOL    HW221524   5.686   0.851   2.052 -3.1121  1.2124 -3.2544
 6702SOL     OW21525   8.364   5.250   2.909  0.1676 -0.3049  0.3730
 6702SOL    HW121526   8.440   5.221   2.858  0.3127 -1.9253  1.4298
 6702SOL    HW221527   8.289   5.212   2.863 -0.0418  1.2190 -0.6179
 6703SOL     OW21528   2.018   7.296   8.197 -0.1943  1.0727  0.0862
 6703SOL    HW121529   2.104   7.317   8.232  0.2828 -0.8563  0.1630
 6703SOL    HW221530   2.035   7.263   8.108 -0.5810 -1.1507  0.7596
 6704SOL     OW21531   1.109   5.304   3.668 -0.2340  0.0868  0.2166
 6704SOL    HW121532   1.048   5.377   3.661 -1.4196 -0.6599  1.9892
 6704SOL    HW221533   1.121   5.273   3.578 -0.3686  1.8955 -0.4514
 6705SOL     OW21534   1.801   0.637   3.373  0.0863 -0.1872  0.0881
 6705SOL    HW121535   1.770   0.725   3.396  0.4006  0.0664 -0.4373
 6705SOL    HW221536   1.834   0.646   3.284  0.5804 -0.7254  0.2087
 6706SOL     OW21537   3.861   1.358   0.432  0.5069  0.0004  0.1436
 6706SOL    HW121538   3.847   1.396   0.519  1.0185  0.4008  0.0608
 6706SOL    HW221539   3.947   1.393   0.405 -0.0717  0.6528 -0.9230
 6707SOL     OW21540   7.902   4.615   8.133 -0.2100  0.0241  0.2830
 6707SOL    HW121541   7.972   4.650   8.187  1.7749 -2.3075 -0.6068
 6707SOL    HW221542   7.878   4.532   8.174  0.2700 -1.0525 -1.4806
 6708SOL     OW21543   0.994   6.267   2.866  0.5139 -0.3580 -0.1948
 6708SOL    HW121544   0.960   6.263   2.956 -0.8921 -0.0074 -0.6755
 6708SOL    HW221545   0.989   6.177   2.835 -0.9026 -0.1814 -0.5536
 6709SOL     OW21546   3.815   3.328   7.726  0.1121  0.0028  0.0610
 6709SOL    HW121547   3.776   3.246   7.757 -0.9690  0.3967 -0.2087
 6709SOL    HW221548   3.908   3.318   7.744 -0.1231 -0.9025  0.8964
 6710SOL     OW21549   7.069   4.258   7.057  0.3629  0.1522 -0.0842
 6710SOL    HW121550   7.073   4.200   7.133 -0.0256  0.7037  0.3643
 6710SOL    HW221551   7.016   4.332   7.086 -0.4274  0.0211 -1.1290
 6711SOL     OW21552   1.620   0.164   6.098  0.3537  0.2860  0.7068
 6711SOL    HW121553   1.683   0.131   6.033  0.2751  0.3990  0.5730
 6711SOL    HW221554   1.607   0.256   6.073  1.1507  0.6368  1.5242
 6712SOL     OW21555   1.379   0.634   1.881  0.3247  0.1475  0.1571
 6712SOL    HW121556   1.423   0.696   1.822 -0.5192  0.0179 -0.6342
 6712SOL    HW221557   1.433   0.555   1.876  0.0499  0.0019 -0.7844
 6713SOL     OW21558   0.055   0.514   7.208 -0.0588  0.1483  0.1773
 6713SOL    HW121559   0.032   0.455   7.136  1.2938  0.7330 -0.7719
 6713SOL    HW221560  -0.010   0.494   7.276 -1.4377 -0.3614 -1.2087
 6714SOL     OW21561   1.531   6.662   4.777  0.2450 -0.7542 -0.1553
 6714SOL    HW121562   1.472   6.633   4.707  0.6492 -1.3790 -0.2542
 6714SOL    HW221563   1.575   6.739   4.741 -0.3169 -0.4421 -0.1804
 6715SOL     OW21564   1.139   8.358   4.053  0.4676  0.0361  0.1570
 6715SOL    HW121565   1.107   8.318   3.972  0.1742 -0.0716  0.3259
 6715SOL    HW221566   1.124   8.292   4.121  1.5058 -0.2136  0.1588
 6716SOL     OW21567   2.181   3.821   1.659 -0.2276 -0.5375  0.3430
 6716SOL    HW121568   2.267   3.784   1.678  0.6927  1.4150  0.1932
 6716SOL    HW221569   2.199   3.908   1.624 -2.2896  0.1975  0.9450
 6717SOL     OW21570   3.589   4.181   1.049 -0.4141 -0.3803  0.0568
 6717SOL    HW121571   3.521   4.151   0.988 -1.3625 -1.4687  1.5852
 6717SOL    HW221572   3.564   4.271   1.070 -0.6966 -0.3665 -0.3254
 6718SOL     OW21573   7.856   4.200   0.091  0.4522  0.3628  0.2819
 6718SOL    HW121574   7.861   4.206   0.187 -0.5659  0.2982  0.3477
 6718SOL    HW221575   7.901   4.119   0.069  0.4249  0.2249  0.7296
 6719SOL     OW21576   0.379   2.355   4.073  0.4859  0.0549  0.3278
 6719SOL    HW121577   0.332   2.342   3.991  1.3603  0.2062 -0.2116
 6719SOL    HW221578   0.328   2.422   4.119 -0.4053 -0.5456  0.2345
 6720SOL     OW21579   3.861   8.116   3.767 -0.8041 -0.1289  0.9138
 6720SOL    HW121580   3.920   8.185   3.735 -0.1316 -0.2184  1.9289
 6720SOL    HW221581   3.854   8.055   3.694 -0.2467  0.2738  0.5160
 6721SOL     OW21582   4.229   4.404   6.120 -0.4114 -0.9233  0.3864
 6721SOL    HW121583   4.200   4.374   6.034  2.8892 -1.8201 -0.5887
 6721SOL    HW221584   4.198   4.336   6.180 -2.2283 -0.6089 -0.1447
 6722SOL     OW21585   1.910   2.525   1.148  0.0998  0.0978 -0.3860
 6722SOL    HW121586   1.948   2.558   1.067  1.3309  1.2277  0.6193
 6722SOL    HW221587   1.832   2.579   1.162 -0.0623 -0.0374 -0.7485
 6723SOL     OW21588   3.793   3.324   1.592 -0.2515 -0.7048  0.4016
 6723SOL    HW121589   3.887   3.322   1.609 -0.4216 -1.8617  1.3274
 6723SOL    HW221590   3.783   3.385   1.519  0.9741  1.1542  1.7027
 6724SOL     OW21591   7.267   8.322   0.796  0.0236  0.5622  0.3292
 6724SOL    HW121592   7.180   8.283   0.809  1.2964 -2.2863  1.2994
 6724SOL    HW221593   7.326   8.265   0.846  2.6664  1.3813 -1.6007
 6725SOL     OW21594   4.189   0.025   6.104 -0.7580  0.2937 -0.4255
 6725SOL    HW121595   4.175   0.079   6.182 -0.0378  1.7492 -1.2557
 6725SOL    HW221596   4.277   0.049   6.074 -0.8145 -0.6345 -1.3998
 6726SOL     OW21597   3.922   7.558   8.359 -0.4794 -0.0460  0.0900
 6726SOL    HW121598   3.998   7.589   8.311  0.0996 -0.4577  0.7266
 6726SOL    HW221599   3.918   7.614   8.437 -1.3375  0.5384 -0.3492
 6727SOL     OW21600   7.733   0.940   3.958 -0.3114 -0.3176 -0.0147
 6727SOL    HW121601   7.722   1.033   3.938 -0.3606 -0.0038  1.3491
 6727SOL    HW221602   7.813   0.937   4.011 -0.3194 -1.0513 -0.0380
 6728SOL     OW21603   7.933   0.078   6.384 -0.0537 -0.1127  0.1823
 6728SOL    HW121604   7.851   0.083   6.335 -0.5657 -0.6432  0.9691
 6728SOL    HW221605   7.948   0.167   6.415 -0.9647 -0.2383  1.0322
 6729SOL     OW21606   8.012   0.028   5.734 -0.3453  0.3798  0.2535
 6729SOL    HW121607   7.988   0.020   5.827 -0.6599  4.5649  0.6897
 6729SOL    HW221608   7.929   0.031   5.688 -0.2313  0.4889  0.0579
 6730SOL     OW21609   7.509   6.132   2.520  0.1853  0.4421  0.5186
 6730SOL    HW121610   7.427   6.097   2.555  1.0050 -1.4952  0.6389
 6730SOL    HW221611   7.541   6.064   2.461  0.3860  2.3386 -1.6778
 6731SOL     OW21612   7.883   2.702   6.283  0.3609  0.3255  0.3773
 6731SOL    HW121613   7.876   2.785   6.237  0.6389 -0.0068 -0.2738
 6731SOL    HW221614   7.871   2.636   6.216  1.3290 -0.1704  0.6734
 6732SOL     OW21615   5.497   7.436   5.789  0.1437  0.2909 -0.0030
 6732SOL    HW121616   5.416   7.462   5.745 -0.0576 -1.2917 -0.6255
 6732SOL    HW221617   5.555   7.409   5.718  0.7812  0.2286  0.5343
 6733SOL     OW21618   1.017   6.008   2.776 -0.0422 -0.8908 -0.0444
 6733SOL    HW121619   0.947   5.982   2.836 -1.2049  2.7743  0.4782
 6733SOL    HW221620   0.975   6.007   2.690 -0.5362  0.3785  0.1510
 6734SOL     OW21621   0.911   7.232   5.370  0.2672 -0.2342  0.5841
 6734SOL    HW121622   0.962   7.244   5.290 -0.9847 -0.0353 -0.2130
 6734SOL    HW221623   0.820   7.238   5.342 -0.2110 -0.4428  1.9870
 6735SOL     OW21624   5.789   2.681   6.088 -0.1809 -0.5340 -0.0403
 6735SOL    HW121625   5.800   2.774   6.069 -1.7415 -0.1692  0.6615
 6735SOL    HW221626   5.756   2.644   6.006 -0.2991 -0.3116 -0.0945
 6736SOL     OW21627   4.461   0.693   5.415  0.6178 -0.0344 -0.2119
 6736SOL    HW121628   4.555   0.708   5.403  0.8710  0.6245  2.2463
 6736SOL    HW221629   4.437   0.638   5.340  3.0670 -0.6773 -0.6211
 6737SOL     OW21630   6.192   6.094   6.656 -0.2769  0.0014 -0.4440
 6737SOL    HW121631   6.155   6.032   6.718 -0.2562 -0.4449 -0.8774
 6737SOL    HW221632   6.284   6.068   6.647  0.3273  1.4278  1.0395
 6738SOL     OW21633   5.918   2.354   7.215 -0.0655  0.4379 -0.0106
 6738SOL    HW121634   5.935   2.443   7.244 -0.3521  0.3581  0.4177
 6738SOL    HW221635   5.996   2.305   7.241 -0.4664  0.2952  0.9533
 6739SOL     OW21636   1.322   5.538   3.269  0.5423  0.2254  0.0229
 6739SOL    HW121637   1.247   5.586   3.305 -2.2544 -2.9499 -1.0566
 6739SOL    HW221638   1.352   5.483   3.342  1.1505  0.6859  0.1295
 6740SOL     OW21639   2.428   7.792   3.947 -0.6549  0.0755 -0.1903
 6740SOL    HW121640   2.500   7.770   3.886 -0.5686  1.2796 -0.5525
 6740SOL    HW221641   2.447   7.881   3.975 -1.8776  0.3166 -0.0779
 6741SOL     OW21642   2.613   7.628   4.911 -0.5748 -0.3866  0.0533
 6741SOL    HW121643   2.631   7.578   4.991  0.4174  0.5704  0.4570
 6741SOL    HW221644   2.693   7.620   4.860 -1.6331 -2.0150 -1.4597
 6742SOL     OW21645   6.973   0.059   7.750 -0.1704  0.1259  0.3393
 6742SOL    HW121646   7.041   0.068   7.683  1.1311  0.1959  1.6082
 6742SOL    HW221647   7.012   0.099   7.828 -2.9393  3.2489  0.3250
 6743SOL     OW21648   6.165   6.672   6.161 -0.5020 -0.2640  0.6118
 6743SOL    HW121649   6.084   6.624   6.179 -0.9846  0.6735  1.0162
 6743SOL    HW221650   6.234   6.618   6.199 -0.9270 -1.1108  0.2008
 6744SOL     OW21651   6.841   3.874   0.419  0.1738 -0.0751 -0.3177
 6744SOL    HW121652   6.880   3.815   0.355 -1.6407 -1.2842 -0.3745
 6744SOL    HW221653   6.823   3.954   0.370  0.2541 -0.4148 -0.9065
 6745SOL     OW21654   5.540   5.761   6.284 -1.0931  0.2886  0.5827
 6745SOL    HW121655   5.613   5.794   6.337 -0.0724 -1.0680  0.0685
 6745SOL    HW221656   5.516   5.834   6.228  1.1332  0.2187 -0.5566
 6746SOL     OW21657   5.250   6.656   6.082  0.3508 -0.6078 -0.0747
 6746SOL    HW121658   5.324   6.598   6.099 -0.2048 -1.4258 -0.4061
 6746SOL    HW221659   5.193   6.646   6.158  0.7903  0.3902  0.4118
 6747SOL     OW21660   3.353   1.592   3.245  0.1422  0.0558 -0.5218
 6747SOL    HW121661   3.259   1.592   3.229 -0.0321 -1.8192  0.1827
 6747SOL    HW221662   3.374   1.500   3.263  1.8963  0.5988  0.4826
 6748SOL     OW21663   4.477   2.878   3.246  0.0802 -0.4959  0.3337
 6748SOL    HW121664   4.571   2.884   3.261 -0.0016 -2.1135  1.7955
 6748SOL    HW221665   4.438   2.904   3.329 -0.6963 -1.4820  0.2924
 6749SOL     OW21666   4.682   8.001   8.200 -0.0020 -0.1229  0.3382
 6749SOL    HW121667   4.660   8.079   8.149  0.5426 -1.0125 -1.3278
 6749SOL    HW221668   4.735   8.033   8.272  1.1874  0.9521 -0.9572
 6750SOL     OW21669   1.416   5.654   4.103 -0.0204  0.4273  0.4841
 6750SOL    HW121670   1.441   5.574   4.058 -2.1695 -0.2211  0.3223
 6750SOL    HW221671   1.454   5.646   4.190 -0.4172 -0.8949  0.5513
 6751SOL     OW21672   5.507   7.258   7.743  0.3001  0.2407 -0.6772
 6751SOL    HW121673   5.520   7.350   7.719  0.6907  0.2251 -0.5310
 6751SOL    HW221674   5.471   7.261   7.831 -0.3994  0.2726 -0.9550
 6752SOL     OW21675   5.843   4.757   2.780 -0.2787  0.0491 -0.1954
 6752SOL    HW121676   5.792   4.751   2.700 -1.0961  1.0825  0.2220
 6752SOL    HW221677   5.861   4.850   2.791 -0.0912 -0.0834  0.7592
 6753SOL     OW21678   0.559   7.857   1.485  0.2632 -0.0078 -0.0181
 6753SOL    HW121679   0.630   7.921   1.476 -0.8587  1.3489  0.3374
 6753SOL    HW221680   0.487   7.907   1.525 -1.5977 -0.7552 -2.1820
 6754SOL     OW21681   5.994   4.901   4.050  0.0004  0.2000 -0.7737
 6754SOL    HW121682   6.026   4.821   4.009 -1.2831 -0.7139 -0.0749
 6754SOL    HW221683   5.900   4.886   4.063 -0.0093  1.2294  0.6672
 6755SOL     OW21684   7.825   6.605   2.291  0.4713 -0.3225 -0.0538
 6755SOL    HW121685   7.910   6.591   2.249  1.1239 -1.6759  1.6191
 6755SOL    HW221686   7.818   6.536   2.357 -1.4004  0.4866  0.6838
 6756SOL     OW21687   6.863   6.229   8.101 -0.0429 -0.3907  0.2906
 6756SOL    HW121688   6.952   6.251   8.128  0.5811 -2.7137  0.3484
 6756SOL    HW221689   6.866   6.228   8.005  0.0016 -0.5186  0.2934
 6757SOL     OW21690   2.942   7.385   5.992 -0.4792  0.1029  0.1021
 6757SOL    HW121691   2.999   7.388   6.070 -1.4374  1.5906  0.7998
 6757SOL    HW221692   2.996   7.424   5.923 -0.1722  0.2707  0.4270
 6758SOL     OW21693   1.379   0.817   6.207  0.3771  0.5192 -0.4529
 6758SOL    HW121694   1.370   0.724   6.186 -0.9126  0.8447 -1.4721
 6758SOL    HW221695   1.299   0.838   6.255 -0.2184  1.4909 -1.8003
 6759SOL     OW21696   2.237   1.597   1.872  0.6450 -0.3073 -0.6090
 6759SOL    HW121697   2.327   1.564   1.876  0.6886 -0.1143  0.0899
 6759SOL    HW221698   2.224   1.641   1.956 -0.5999 -1.6561 -0.0408
 6760SOL     OW21699   8.207   4.996   4.808  0.5371  0.1796 -0.2360
 6760SOL    HW121700   8.277   4.931   4.797  0.8605  0.8302 -2.8383
 6760SOL    HW221701   8.253   5.079   4.823  0.2389  0.3019  0.0203
 6761SOL     OW21702   2.927   1.616   5.650 -0.1447  0.1193  0.2035
 6761SOL    HW121703   2.898   1.526   5.669 -0.2705 -0.2869 -1.6795
 6761SOL    HW221704   3.011   1.624   5.694  0.4516 -1.3737 -0.5825
 6762SOL     OW21705   3.567   6.590   6.585  0.6550 -0.1158  0.0311
 6762SOL    HW121706   3.492   6.532   6.577  0.6507 -0.1181  0.0863
 6762SOL    HW221707   3.624   6.566   6.512  0.4087  0.1729 -0.2591
 6763SOL     OW21708   3.516   2.427   2.293 -0.0672  0.3076 -0.2370
 6763SOL    HW121709   3.425   2.429   2.324  0.1655  0.7314  0.4570
 6763SOL    HW221710   3.558   2.360   2.347  0.3136  0.9686  0.3114
 6764SOL     OW21711   5.257   2.157   0.478  0.1709  0.3163  0.0244
 6764SOL    HW121712   5.242   2.111   0.395  0.5440  1.8551 -0.9376
 6764SOL    HW221713   5.347   2.137   0.501 -0.1709 -0.7717  0.5278
 6765SOL     OW21714   0.008   1.045   4.457  0.2451  0.3566 -0.3846
 6765SOL    HW121715   0.101   1.038   4.480  0.5377  0.9518 -1.3147
 6765SOL    HW221716  -0.022   1.124   4.503 -0.0431 -0.3372  0.6436
 6766SOL     OW21717   2.588   1.675   0.543  0.2783 -0.1773  0.0173
 6766SOL    HW121718   2.654   1.625   0.494  0.2467  0.0618 -0.2734
 6766SOL    HW221719   2.578   1.756   0.493  1.6177  0.9162  1.4261
 6767SOL     OW21720   5.581   7.816   7.244 -0.0528  0.6073 -0.2049
 6767SOL    HW121721   5.557   7.890   7.188  0.2306 -0.3330 -1.6294
 6767SOL    HW221722   5.524   7.745   7.215  0.8341 -0.1958 -0.0372
 6768SOL     OW21723   1.119   5.898   0.602 -0.3728 -0.4218 -0.3094
 6768SOL    HW121724   1.121   5.992   0.582 -0.8109 -0.0492  1.2596
 6768SOL    HW221725   1.034   5.869   0.569 -1.0664  0.1739  0.8436
 6769SOL     OW21726   4.458   5.967   5.509  0.1436  0.0073  0.0547
 6769SOL    HW121727   4.420   5.999   5.590 -0.3218 -1.3422  0.3979
 6769SOL    HW221728   4.432   6.031   5.443 -1.9184 -0.3453  0.4627
 6770SOL     OW21729   6.448   7.261   6.753 -0.1617 -0.9537  0.4494
 6770SOL    HW121730   6.408   7.330   6.700 -1.3438 -1.2155  0.9703
 6770SOL    HW221731   6.525   7.234   6.703 -0.6220 -0.4254 -0.5773
 6771SOL     OW21732   3.084   2.536   7.146  0.1532  0.0779 -0.1071
 6771SOL    HW121733   3.114   2.525   7.236  0.4098 -0.0947 -0.2131
 6771SOL    HW221734   3.147   2.596   7.107  1.9222 -2.2431 -1.0738
 6772SOL     OW21735   1.365   7.806   5.280 -0.4493 -0.3595 -0.2906
 6772SOL    HW121736   1.415   7.776   5.204 -0.0294 -0.0184 -0.1517
 6772SOL    HW221737   1.283   7.757   5.275 -0.2073 -0.7395 -0.6626
 6773SOL     OW21738   5.640   4.361   5.344  0.1846  0.5809 -0.4051
 6773SOL    HW121739   5.592   4.345   5.263 -1.3614 -0.6925  0.6992
 6773SOL    HW221740   5.579   4.337   5.414  1.3675  1.8754  1.1720
 6774SOL     OW21741   8.225   0.501   6.802 -0.1843 -0.4258 -0.1175
 6774SOL    HW121742   8.301   0.479   6.748 -1.2735  0.9388 -2.3312
 6774SOL    HW221743   8.151   0.502   6.741 -1.4084  1.6595  1.2539
 6775SOL     OW21744   5.083   8.157   4.988  0.0545  0.1458  0.3735
 6775SOL    HW121745   5.021   8.131   5.056  0.2749 -1.1811  0.1153
 6775SOL    HW221746   5.125   8.074   4.963  0.8341  0.7974 -0.5178
 6776SOL     OW21747   2.820   3.641   6.215  0.3389  0.0895  0.5597
 6776SOL    HW121748   2.871   3.704   6.266  2.4098 -0.0038 -1.2511
 6776SOL    HW221749   2.844   3.658   6.124 -1.6689 -1.0782 -0.2507
 6777SOL     OW21750   4.766   0.619   1.233  0.4146 -0.2766  0.7208
 6777SOL    HW121751   4.788   0.712   1.238 -0.9834  0.2660 -1.6900
 6777SOL    HW221752   4.696   0.607   1.296  0.2579  0.4222  0.6878
 6778SOL     OW21753   6.845   6.318   6.461 -0.0477 -0.3934 -0.3536
 6778SOL    HW121754   6.907   6.260   6.416 -0.0422 -1.0304  0.4397
 6778SOL    HW221755   6.888   6.337   6.545 -0.4699  0.0112 -0.2257
 6779SOL     OW21756   4.025   1.131   6.545  0.0488  0.2363 -0.3164
 6779SOL    HW121757   4.075   1.165   6.619  0.7083  0.4121 -0.8327
 6779SOL    HW221758   4.022   1.036   6.559 -0.6968  0.3730  0.4590
 6780SOL     OW21759   2.676   6.374   0.460 -0.4404  0.3534 -0.3764
 6780SOL    HW121760   2.755   6.356   0.410 -0.9869 -0.0221 -1.1253
 6780SOL    HW221761   2.633   6.289   0.470 -0.8002  0.5648 -0.0502
 6781SOL     OW21762   1.323   7.702   8.369 -0.0317  0.5412 -0.3972
 6781SOL    HW121763   1.310   7.660   8.454 -0.2556  1.0586 -0.1693
 6781SOL    HW221764   1.304   7.634   8.304 -2.3036  0.8053 -0.0636
 6782SOL     OW21765   0.548   2.391   5.125 -0.3231  0.5113 -0.2034
 6782SOL    HW121766   0.591   2.476   5.110  1.5131 -0.4014 -0.3394
 6782SOL    HW221767   0.493   2.406   5.202 -0.7648  2.0636 -0.7748
 6783SOL     OW21768   3.370   4.113   1.534 -0.5048  0.2879 -0.2200
 6783SOL    HW121769   3.453   4.066   1.525 -0.0593  0.7049  1.3529
 6783SOL    HW221770   3.378   4.187   1.473  0.9718  1.2183  1.0283
 6784SOL     OW21771   8.009   7.742   3.109 -0.7368  0.1897  0.4091
 6784SOL    HW121772   7.929   7.795   3.120 -0.8113  0.1380  0.1236
 6784SOL    HW221773   7.990   7.686   3.035 -0.3306  0.3671  0.1676
 6785SOL     OW21774   1.390   6.304   6.029  0.2369 -0.5371 -0.3274
 6785SOL    HW121775   1.405   6.380   5.973  0.2725 -1.1520 -1.1739
 6785SOL    HW221776   1.470   6.295   6.080  0.5420 -0.4630 -0.7847
 6786SOL     OW21777   6.659   4.113   5.734  0.6737 -0.0574  0.0328
 6786SOL    HW121778   6.631   4.161   5.812 -0.5827  2.8832 -2.0514
 6786SOL    HW221779   6.604   4.035   5.733 -0.7525  0.8750  1.0408
 6787SOL     OW21780   3.260   5.214   1.613  0.2184 -0.7635  0.1847
 6787SOL    HW121781   3.281   5.202   1.521 -1.7375  1.5588 -0.6817
 6787SOL    HW221782   3.191   5.280   1.613  0.1141 -0.7296  3.3294
 6788SOL     OW21783   3.457   6.105   0.612  0.1060 -0.0238  0.3849
 6788SOL    HW121784   3.388   6.161   0.577 -0.8785 -1.1304  0.4987
 6788SOL    HW221785   3.470   6.038   0.546 -0.4955 -1.0829  1.2973
 6789SOL     OW21786   5.768   3.771   4.101  0.3175 -0.8432 -0.0728
 6789SOL    HW121787   5.737   3.859   4.078  1.4555 -0.4280 -0.0921
 6789SOL    HW221788   5.840   3.786   4.162  0.3712 -1.7772  0.1084
 6790SOL     OW21789   3.362   7.893   3.771  0.1859 -0.4726  0.0842
 6790SOL    HW121790   3.430   7.954   3.801  0.6626 -0.9197 -0.0719
 6790SOL    HW221791   3.405   7.807   3.771 -0.0669 -0.6171 -0.9737
 6791SOL     OW21792   3.725   6.662   3.984 -0.6700 -0.8195  0.6813
 6791SOL    HW121793   3.635   6.640   3.960 -0.6316 -1.8861  1.3938
 6791SOL    HW221794   3.724   6.664   4.080 -0.0988 -0.0828  0.6790
 6792SOL     OW21795   0.454   3.421   6.620 -0.5561  0.1276 -0.2680
 6792SOL    HW121796   0.392   3.348   6.616 -1.3520  0.8394 -1.3527
 6792SOL    HW221797   0.519   3.393   6.685 -1.7276 -0.8567  0.5450
 6793SOL     OW21798   1.383   6.997   4.497 -0.0106  0.5533  0.3270
 6793SOL    HW121799   1.350   7.081   4.464  0.1195  0.4904  0.0344
 6793SOL    HW221800   1.310   6.961   4.548  0.4899  1.6102  1.8598
 6794SOL     OW21801   7.029   1.483   3.925  0.5121 -0.1028  0.2407
 6794SOL    HW121802   6.985   1.398   3.924  0.9885 -0.3637  0.6437
 6794SOL    HW221803   6.989   1.533   3.854 -1.1193  0.0213  1.1979
 6795SOL     OW21804   7.356   5.543   3.806 -0.3622 -0.1099  0.4526
 6795SOL    HW121805   7.363   5.601   3.882 -1.4563  0.1593  0.3696
 6795SOL    HW221806   7.352   5.455   3.844 -0.2979 -0.0148  0.6820
 6796SOL     OW21807   7.807   6.969   7.118  0.0570 -0.4536 -0.4440
 6796SOL    HW121808   7.842   7.050   7.080 -1.0858 -0.4946 -1.6897
 6796SOL    HW221809   7.850   6.961   7.203  1.4356  0.5791 -1.0123
 6797SOL     OW21810   3.078   2.021   0.218 -0.1704 -0.0960  0.1013
 6797SOL    HW121811   3.119   1.938   0.245 -0.7566 -0.5016 -0.2315
 6797SOL    HW221812   3.145   2.064   0.165 -0.4024 -1.0722 -1.0210
 6798SOL     OW21813   1.205   7.780   7.902 -0.0070 -0.5474  0.1395
 6798SOL    HW121814   1.164   7.846   7.845 -0.0680  0.2027  1.0299
 6798SOL    HW221815   1.298   7.802   7.900 -0.0288 -0.4326  0.4460
 6799SOL     OW21816   3.289   2.321   5.182  0.6322  0.4470  0.1869
 6799SOL    HW121817   3.287   2.237   5.228  0.5230 -0.1748 -0.9328
 6799SOL    HW221818   3.341   2.305   5.104  0.2985  1.3299 -0.2301
 6800SOL     OW21819   0.931   8.338   2.136  0.4546 -0.1404 -0.8095
 6800SOL    HW121820   1.010   8.294   2.105 -0.0312 -1.9397  0.3235
 6800SOL    HW221821   0.860   8.278   2.112 -0.3322  0.4178  0.0573
 6801SOL     OW21822   3.399   5.708   5.606 -0.0664 -0.1669 -0.5389
 6801SOL    HW121823   3.418   5.768   5.678  0.7466  0.6392 -1.4053
 6801SOL    HW221824   3.310   5.730   5.579 -0.5833 -0.8407  0.5465
 6802SOL     OW21825   0.266   7.067   6.325 -0.7729 -0.5749  0.4279
 6802SOL    HW121826   0.327   6.997   6.347  2.3128  1.4665 -0.9279
 6802SOL    HW221827   0.275   7.130   6.396 -2.4285 -0.8085  0.9012
 6803SOL     OW21828   1.541   3.761   1.556 -0.5152  0.0098 -0.0523
 6803SOL    HW121829   1.549   3.724   1.643 -2.9083  0.1743  0.2924
 6803SOL    HW221830   1.454   3.735   1.526  1.2612 -2.6824 -3.7009
 6804SOL     OW21831   8.095   1.099   6.583  0.0369 -0.4697  0.3319
 6804SOL    HW121832   7.999   1.100   6.575 -0.2013  0.5397  2.4195
 6804SOL    HW221833   8.127   1.105   6.494 -1.8126 -2.4394 -0.5602
 6805SOL     OW21834   1.145   2.947   6.233  0.5176 -0.0845 -0.1866
 6805SOL    HW121835   1.159   2.887   6.160 -1.1775 -0.5265 -0.1878
 6805SOL    HW221836   1.110   2.892   6.303  1.1634  0.5132  0.6274
 6806SOL     OW21837   7.247   7.204   0.801  0.5125  0.4448 -0.2010
 6806SOL    HW121838   7.317   7.240   0.855  0.8149 -0.5919  0.1004
 6806SOL    HW221839   7.175   7.189   0.862  0.7971 -0.5709 -0.1008
 6807SOL     OW21840   5.394   7.661   7.075  0.4035 -0.0963 -0.3803
 6807SOL    HW121841   5.345   7.731   7.031  0.5197  1.3762  1.6724
 6807SOL    HW221842   5.465   7.639   7.014  0.5228  1.7786 -0.9807
 6808SOL     OW21843   0.470   7.738   8.171 -0.2856 -0.0774  0.0173
 6808SOL    HW121844   0.396   7.728   8.111  0.1237 -0.4404 -0.4355
 6808SOL    HW221845   0.540   7.687   8.131  0.3504  0.6276  0.2030
 6809SOL     OW21846   2.736   1.882   2.786  0.3061 -0.5666  0.2143
 6809SOL    HW121847   2.657   1.830   2.772 -0.3132  0.1928  0.7405
 6809SOL    HW221848   2.740   1.894   2.881 -0.0085  0.9553  0.0730
 6810SOL     OW21849   1.668   2.031   7.678  0.3992 -0.3363  0.0755
 6810SOL    HW121850   1.653   1.937   7.690 -2.0098 -0.1859 -1.0443
 6810SOL    HW221851   1.745   2.036   7.621  0.5437 -1.6327  0.1222
 6811SOL     OW21852   1.268   6.100   7.931 -0.4383 -0.1000 -0.5718
 6811SOL    HW121853   1.359   6.085   7.906  0.0349 -0.6565  1.3417
 6811SOL    HW221854   1.227   6.014   7.930 -0.8396  0.0877 -0.9833
 6812SOL     OW21855   7.274   3.381   5.773  0.4613  0.2617  0.5999
 6812SOL    HW121856   7.252   3.367   5.681 -0.4458  1.0135  0.6903
 6812SOL    HW221857   7.190   3.390   5.817  0.8717 -0.5297  1.5916
 6813SOL     OW21858   1.613   1.600   5.272  0.1971 -0.1453  0.5811
 6813SOL    HW121859   1.627   1.580   5.180  3.6954 -1.6242  1.2797
 6813SOL    HW221860   1.605   1.515   5.315  0.6583  0.4142  1.8548
 6814SOL     OW21861   2.150   2.414   8.152 -0.1378  0.1273  0.3503
 6814SOL    HW121862   2.142   2.506   8.176 -0.4283  0.0762  0.4550
 6814SOL    HW221863   2.209   2.377   8.217 -0.1021  0.2155  0.3681
 6815SOL     OW21864   6.233   4.621   6.990  0.0832 -0.5876  0.1041
 6815SOL    HW121865   6.143   4.653   6.983  0.3010  0.0790  0.2916
 6815SOL    HW221866   6.280   4.691   7.033  0.2974 -1.7229  1.8129
 6816SOL     OW21867   5.899   4.450   2.163  0.7755 -1.0907  0.3176
 6816SOL    HW121868   5.885   4.510   2.237  1.5488 -0.3762 -0.0979
 6816SOL    HW221869   5.863   4.367   2.193  0.1836 -0.5629  1.1245
 6817SOL     OW21870   1.821   1.634   2.498  0.0158  0.4584  0.4429
 6817SOL    HW121871   1.758   1.658   2.430  1.9717  0.0628 -1.6141
 6817SOL    HW221872   1.861   1.718   2.524  1.7985  0.3273 -1.5930
 6818SOL     OW21873   7.651   3.787   7.246  0.0401  0.0670 -0.6911
 6818SOL    HW121874   7.692   3.868   7.277  0.4633  0.1232 -1.3714
 6818SOL    HW221875   7.696   3.717   7.295  1.3319  0.0933 -1.7980
 6819SOL     OW21876   6.970   2.596   6.906  0.2588 -0.0252  0.3118
 6819SOL    HW121877   7.038   2.532   6.927 -0.1533 -0.0598  1.5959
 6819SOL    HW221878   6.950   2.579   6.814  0.0624 -1.8426  0.6540
 6820SOL     OW21879   8.350   0.095   4.289 -0.0902 -0.3695 -0.1638
 6820SOL    HW121880   8.329   0.140   4.207 -0.6341 -1.0724 -0.4197
 6820SOL    HW221881   8.305   0.145   4.356  0.7631  0.5085 -0.2146
 6821SOL     OW21882   1.765   4.737   5.004  0.2116  0.0164  0.0662
 6821SOL    HW121883   1.712   4.796   4.951  1.3044 -1.5184 -2.9052
 6821SOL    HW221884   1.845   4.724   4.954  0.6286 -2.8547  1.2907
 6822SOL     OW21885   8.168   1.233   0.782  0.0441 -0.6101  0.6560
 6822SOL    HW121886   8.208   1.319   0.789  0.2279 -0.7209  1.0102
 6822SOL    HW221887   8.082   1.243   0.823 -1.1539  0.1399 -1.8441
 6823SOL     OW21888   7.838   6.135   5.830  0.2140 -0.1845  0.3446
 6823SOL    HW121889   7.751   6.099   5.817  0.9261 -2.1414  0.6944
 6823SOL    HW221890   7.867   6.159   5.743  0.0586 -1.3557 -0.0482
 6824SOL     OW21891   0.282   1.590   0.062 -0.3812  0.2628  0.0384
 6824SOL    HW121892   0.263   1.504   0.101  0.0509  0.4309  0.6435
 6824SOL    HW221893   0.236   1.590  -0.021  2.3221 -1.9082 -1.6283
 6825SOL     OW21894   5.976   7.038   3.551  0.7131 -0.2444 -0.2061
 6825SOL    HW121895   5.980   7.011   3.642  1.7281  0.2013 -0.1008
 6825SOL    HW221896   6.067   7.055   3.527  0.3719  0.5039 -1.0309
 6826SOL     OW21897   7.555   7.522   6.926  0.5191 -0.4802 -0.1574
 6826SOL    HW121898   7.639   7.533   6.882  1.2466  1.2926  1.5170
 6826SOL    HW221899   7.492   7.569   6.872  0.7257 -1.1523 -1.0016
 6827SOL     OW21900   5.735   7.111   6.326 -0.1602  0.1812  0.0666
 6827SOL    HW121901   5.814   7.060   6.311  0.2697  0.8196  0.1559
 6827SOL    HW221902   5.739   7.182   6.261 -0.2919  0.6357  0.5471
 6828SOL     OW21903   2.282   1.547   6.328  0.0524  0.1683 -0.5562
 6828SOL    HW121904   2.319   1.624   6.285  1.5078 -0.1454  0.0819
 6828SOL    HW221905   2.336   1.474   6.299  0.9591 -0.0796  1.6075
 6829SOL     OW21906   5.594   7.435   1.363 -0.5493  0.4049  0.2666
 6829SOL    HW121907   5.563   7.366   1.421 -0.6743 -0.7322 -1.1001
 6829SOL    HW221908   5.675   7.466   1.403 -0.4037 -0.6542  0.8162
 6830SOL     OW21909   6.792   1.804   3.667  0.0334  0.7414  0.3275
 6830SOL    HW121910   6.784   1.885   3.616  2.3176  0.9305  0.1586
 6830SOL    HW221911   6.882   1.775   3.651  0.2205 -0.2141  2.7635
 6831SOL     OW21912   4.693   1.023   7.653 -0.4134  0.1281 -0.1641
 6831SOL    HW121913   4.665   1.033   7.743 -0.6638 -0.5488 -0.1598
 6831SOL    HW221914   4.623   1.062   7.601 -0.9999 -0.8362 -0.1202
 6832SOL     OW21915   5.530   1.644   3.259 -0.2453  0.2767  0.1233
 6832SOL    HW121916   5.527   1.550   3.273 -0.4219  0.2870  0.1598
 6832SOL    HW221917   5.623   1.667   3.266  0.0033 -0.1326 -1.3884
 6833SOL     OW21918   5.786   8.315   1.473  0.3640 -0.1260  0.3077
 6833SOL    HW121919   5.797   8.410   1.472  1.2366 -0.2246  0.0107
 6833SOL    HW221920   5.867   8.281   1.435 -0.2702 -0.9657 -0.3152
 6834SOL     OW21921   5.670   7.419   2.435  0.4100  0.3193  0.3858
 6834SOL    HW121922   5.597   7.358   2.423  0.3307  0.6282 -0.7942
 6834SOL    HW221923   5.741   7.364   2.469  0.2386 -0.3728 -0.3384
 6835SOL     OW21924   3.808   0.852   4.297 -0.5297  0.0844  0.4965
 6835SOL    HW121925   3.728   0.813   4.262  0.2377 -0.8975 -0.2147
 6835SOL    HW221926   3.791   0.861   4.391 -0.9177 -1.5904  0.6273
 6836SOL     OW21927   4.995   1.975   3.700  0.5212  0.4907 -0.2465
 6836SOL    HW121928   5.068   1.964   3.760  1.2527 -1.7912 -1.4254
 6836SOL    HW221929   4.940   1.898   3.714 -0.8565  1.3958 -0.4722
 6837SOL     OW21930   0.925   2.829   5.448  0.0035  0.1404  0.1458
 6837SOL    HW121931   1.016   2.858   5.458  0.2252 -0.6063  0.3540
 6837SOL    HW221932   0.875   2.888   5.505  0.3334  0.6375 -0.0706
 6838SOL     OW21933   6.429   3.210   8.098  0.2312 -0.1332  0.0763
 6838SOL    HW121934   6.471   3.156   8.032 -3.5238 -0.8701 -1.9971
 6838SOL    HW221935   6.432   3.299   8.062 -0.7498 -0.3426 -0.5597
 6839SOL     OW21936   7.829   3.592   6.767 -0.0812 -0.3946 -0.3151
 6839SOL    HW121937   7.762   3.652   6.800 -1.0086 -0.4776 -1.9348
 6839SOL    HW221938   7.912   3.627   6.801 -0.6838  1.2797 -0.4783
 6840SOL     OW21939   5.390   8.095   6.387 -0.3432  0.2860  0.3459
 6840SOL    HW121940   5.323   8.027   6.381  0.1180 -0.1273 -0.3884
 6840SOL    HW221941   5.472   8.047   6.399  0.4234  0.4189 -3.0555
 6841SOL     OW21942   2.871   5.880   1.430  0.4249  0.1015  0.1021
 6841SOL    HW121943   2.905   5.832   1.505  0.3561 -0.7018 -0.3761
 6841SOL    HW221944   2.851   5.967   1.465  1.2909  0.0350  0.7893
 6842SOL     OW21945   5.493   4.200   1.338 -0.3824  0.2197 -0.1380
 6842SOL    HW121946   5.552   4.275   1.341  0.5819 -0.4092 -1.8693
 6842SOL    HW221947   5.532   4.137   1.399 -1.2887  1.1311  1.4511
 6843SOL     OW21948   2.246   5.839   3.568  0.2194  0.2167 -0.1831
 6843SOL    HW121949   2.283   5.908   3.513  0.8124 -0.8476 -1.1539
 6843SOL    HW221950   2.295   5.760   3.544 -1.0667 -0.7389  0.2133
 6844SOL     OW21951   2.290   1.627   2.660 -0.5940  0.4206 -0.5770
 6844SOL    HW121952   2.256   1.558   2.603  0.2769 -0.3269 -0.2052
 6844SOL    HW221953   2.229   1.628   2.734 -1.1198  0.6762 -1.0008
 6845SOL     OW21954   3.086   3.081   4.393 -0.4109 -0.3166  0.0311
 6845SOL    HW121955   3.148   3.130   4.340 -0.1306 -1.0356 -0.3102
 6845SOL    HW221956   3.003   3.087   4.345 -0.0773 -1.2729 -0.7036
 6846SOL     OW21957   7.879   4.905   3.087 -0.4153 -0.2833 -0.3957
 6846SOL    HW121958   7.792   4.942   3.071 -0.9866 -0.6173  1.5915
 6846SOL    HW221959   7.872   4.865   3.174  2.5795  2.4051  1.3082
 6847SOL     OW21960   6.702   8.274   1.985 -0.4616  0.2699  0.1271
 6847SOL    HW121961   6.624   8.233   2.022 -0.3990  0.6862  0.7433
 6847SOL    HW221962   6.697   8.365   2.013  0.8017  0.0618  1.1612
 6848SOL     OW21963   2.827   7.346   7.054 -0.1012  0.2663  0.8254
 6848SOL    HW121964   2.756   7.328   7.115 -0.6279 -0.5009  0.0130
 6848SOL    HW221965   2.880   7.413   7.097 -1.3335  0.8820  1.4361
 6849SOL     OW21966   2.684   3.234   4.124  0.0606  0.5307 -0.0250
 6849SOL    HW121967   2.634   3.198   4.051 -1.4174  0.1219  1.1419
 6849SOL    HW221968   2.629   3.303   4.159 -0.2548 -0.6573  1.9756
 6850SOL     OW21969   2.401   2.924   2.162 -0.1809 -0.5673  0.2081
 6850SOL    HW121970   2.467   2.992   2.150 -0.0906 -0.9774 -1.9309
 6850SOL    HW221971   2.426   2.855   2.100 -0.5361 -2.3716  1.9668
 6851SOL     OW21972   4.803   4.004   6.155  0.4284 -0.6196  0.0443
 6851SOL    HW121973   4.715   4.032   6.178 -0.0266 -2.1912  0.3834
 6851SOL    HW221974   4.853   4.085   6.146 -1.2377  0.3585 -0.9726
 6852SOL     OW21975   5.217   2.753   6.438 -0.0118 -0.0294  0.2264
 6852SOL    HW121976   5.291   2.741   6.378 -0.1919  0.0056 -0.0012
 6852SOL    HW221977   5.257   2.789   6.517  0.0290  1.3954 -0.4086
 6853SOL     OW21978   8.015   0.713   2.819 -0.1264 -0.3255  0.4706
 6853SOL    HW121979   8.077   0.708   2.891  1.0032  2.1532 -0.2144
 6853SOL    HW221980   8.055   0.661   2.749 -0.0966 -0.8188  0.8466
 6854SOL     OW21981   4.995   0.946   4.562  0.8117 -0.3007  0.2899
 6854SOL    HW121982   5.078   0.904   4.540  1.0990  0.0626  0.6653
 6854SOL    HW221983   4.941   0.874   4.597  0.7028 -0.6792 -0.6301
 6855SOL     OW21984   1.881   6.461   4.543  0.2128  0.2239  0.1368
 6855SOL    HW121985   1.969   6.474   4.580 -0.1719  1.7187  0.6245
 6855SOL    HW221986   1.825   6.519   4.596 -0.5897  1.3764 -1.8859
 6856SOL     OW21987   7.500   2.087   5.856  0.4591 -0.3607 -0.3139
 6856SOL    HW121988   7.581   2.126   5.889  1.8889 -1.8957 -1.7809
 6856SOL    HW221989   7.432   2.151   5.877  1.3639 -0.5235  4.2103
 6857SOL     OW21990   1.925   2.902   1.272 -0.0694  0.0267  0.4469
 6857SOL    HW121991   1.840   2.945   1.274  1.0480  2.4307  0.2925
 6857SOL    HW221992   1.930   2.853   1.354 -0.2510  2.7793  2.2378
 6858SOL     OW21993   0.307   3.299   7.234 -0.7730  0.2486 -0.9363
 6858SOL    HW121994   0.331   3.386   7.201  0.1226  0.2074 -0.4098
 6858SOL    HW221995   0.219   3.311   7.271 -0.5930  0.9720 -0.7234
 6859SOL     OW21996   0.045   6.744   7.340  0.4354  0.3338 -0.0914
 6859SOL    HW121997   0.117   6.792   7.298  0.7993  0.9318  1.1597
 6859SOL    HW221998   0.086   6.701   7.415 -0.5905  1.1482  0.9824
 6860SOL     OW21999   6.938   3.440   1.040 -0.4569 -0.6444 -0.2655
 6860SOL    HW122000   6.939   3.381   1.115 -1.0762  0.8860  0.9875
 6860SOL    HW222001   6.968   3.524   1.074  1.4965 -0.4174 -2.2350
 6861SOL     OW22002   3.341   1.076   3.806  0.2736 -0.4967 -0.1795
 6861SOL    HW122003   3.265   1.113   3.850 -0.1024 -0.4309 -0.8656
 6861SOL    HW222004   3.372   1.146   3.749 -0.8851 -1.4105 -2.0486
 6862SOL     OW22005   0.705   0.541   3.476  0.2982 -0.2523  0.1285
 6862SOL    HW122006   0.665   0.559   3.560 -0.4050 -0.4830 -0.1471
 6862SOL    HW222007   0.797   0.567   3.486  0.2414 -0.3668  0.9868
 6863SOL     OW22008   5.847   0.215   1.906  0.1431 -0.4587 -0.1721
 6863SOL    HW122009   5.818   0.303   1.932 -2.2940 -1.7103  1.8411
 6863SOL    HW222010   5.919   0.196   1.966  1.2482  0.4307 -1.1754
 6864SOL     OW22011   3.109   3.922   6.410  0.1986 -0.7949 -1.0853
 6864SOL    HW122012   3.077   3.833   6.421  0.2949 -1.0331 -2.4832
 6864SOL    HW222013   3.047   3.962   6.349 -0.6852  0.5845  0.6320
 6865SOL     OW22014   6.644   1.237   2.296  0.1496 -0.5344  0.1725
 6865SOL    HW122015   6.595   1.237   2.214  1.7065  0.5300 -0.8057
 6865SOL    HW222016   6.577   1.237   2.364 -1.2073  0.7938 -1.0961
 6866SOL     OW22017   4.708   2.174   5.465 -0.9736  0.7620  0.9381
 6866SOL    HW122018   4.684   2.266   5.479 -2.9662  0.2481  1.1294
 6866SOL    HW222019   4.727   2.142   5.553 -1.3373  0.7242  1.0053
 6867SOL     OW22020   2.291   5.160   1.137 -0.1022 -0.4812  0.4151
 6867SOL    HW122021   2.298   5.127   1.048  2.0685  0.1852  0.2967
 6867SOL    HW222022   2.350   5.105   1.188 -1.4133 -0.9344  1.4965
 6868SOL     OW22023   3.435   5.337   3.008  0.1993  0.6466 -0.4597
 6868SOL    HW122024   3.411   5.249   3.035  1.4341  0.0729 -1.1371
 6868SOL    HW222025   3.403   5.394   3.078 -1.1984 -0.2502 -0.3365
 6869SOL     OW22026   2.370   3.602   7.279 -0.9961  0.1738  0.3577
 6869SOL    HW122027   2.384   3.618   7.186  0.0114 -3.4982 -0.2791
 6869SOL    HW222028   2.457   3.579   7.312 -1.3927  1.1358  2.1952
 6870SOL     OW22029   3.519   1.331   0.199  0.2435  0.4537  0.1071
 6870SOL    HW122030   3.474   1.376   0.127  0.9881  1.1023  0.0402
 6870SOL    HW222031   3.457   1.336   0.272 -0.2308  0.4040 -0.2805
 6871SOL     OW22032   3.928   1.718   8.135  0.4920  0.2016  0.1146
 6871SOL    HW122033   3.884   1.639   8.107 -1.1963  0.7375  1.1227
 6871SOL    HW222034   4.021   1.695   8.137  0.3414 -0.8850 -2.3126
 6872SOL     OW22035   6.938   0.636   6.330  0.2855 -0.3341  0.1572
 6872SOL    HW122036   6.872   0.576   6.364  2.3383 -2.2766  0.9991
 6872SOL    HW222037   7.016   0.617   6.382  1.1500  2.9115  0.2578
 6873SOL     OW22038   0.187   2.580   7.601 -0.2937  0.4719  0.2673
 6873SOL    HW122039   0.279   2.576   7.576 -0.4541  0.1723 -0.2632
 6873SOL    HW222040   0.190   2.591   7.697  0.2882  0.5213  0.2511
 6874SOL     OW22041   7.694   1.573   6.565  0.8464  0.1220  0.3419
 6874SOL    HW122042   7.683   1.583   6.659 -0.3667 -0.3976  0.2789
 6874SOL    HW222043   7.768   1.514   6.555  0.2091 -0.8135  1.0169
 6875SOL     OW22044   0.651   1.390   1.171 -0.5952 -0.0597 -0.5721
 6875SOL    HW122045   0.695   1.351   1.247 -1.1018  0.1890 -0.1413
 6875SOL    HW222046   0.562   1.408   1.202 -0.1540  2.1966 -0.4872
 6876SOL     OW22047   1.812   3.347   2.678 -0.2234 -0.0414  0.1832
 6876SOL    HW122048   1.883   3.411   2.685 -0.2974  0.2606 -1.3156
 6876SOL    HW222049   1.732   3.400   2.672 -0.4081 -0.3172  0.1815
 6877SOL     OW22050   2.665   3.919   2.988  0.0152  0.0511 -0.1365
 6877SOL    HW122051   2.703   3.981   3.050 -1.5847  0.0894  0.8781
 6877SOL    HW222052   2.625   3.973   2.920 -3.2681  0.3922  1.8447
 6878SOL     OW22053   5.583   7.070   6.767  0.5663 -0.0142  0.7128
 6878SOL    HW122054   5.664   7.026   6.740  0.3144 -0.6243  0.9449
 6878SOL    HW222055   5.609   7.124   6.842  0.4926 -1.2810  1.6881
 6879SOL     OW22056   7.884   4.957   3.512 -0.0229  0.3544  0.2952
 6879SOL    HW122057   7.866   4.914   3.428  0.8223  1.4803 -0.5017
 6879SOL    HW222058   7.887   4.886   3.576  2.0214 -0.9015 -1.0729
 6880SOL     OW22059   3.279   1.343   0.664  0.3328  0.3307 -0.1230
 6880SOL    HW122060   3.335   1.315   0.736  0.1200 -2.3087 -0.9038
 6880SOL    HW222061   3.198   1.293   0.674 -1.2405  2.7188 -0.0707
 6881SOL     OW22062   6.153   0.621   3.616 -0.0224 -0.7879 -0.2764
 6881SOL    HW122063   6.085   0.569   3.657 -3.4380  1.9822 -1.9401
 6881SOL    HW222064   6.139   0.609   3.522 -0.3442  2.1902 -0.7210
 6882SOL     OW22065   1.633   7.008   6.903 -0.2911  0.0412  0.2748
 6882SOL    HW122066   1.585   7.015   6.821 -0.4371  0.5607  0.3990
 6882SOL    HW222067   1.721   7.040   6.883 -0.3174  0.1378  0.3149
 6883SOL     OW22068   6.570   8.050   6.905 -0.3001  0.1508 -0.2726
 6883SOL    HW122069   6.539   8.110   6.973  0.0911  0.7037 -0.5767
 6883SOL    HW222070   6.604   7.975   6.953  0.5028  0.7838  0.1728
 6884SOL     OW22071   6.503   2.616   2.326  0.2092  0.7703 -0.3269
 6884SOL    HW122072   6.585   2.661   2.349 -0.0072  1.0292 -0.0629
 6884SOL    HW222073   6.532   2.535   2.284  0.6079  0.1959  1.0086
 6885SOL     OW22074   2.755   3.627   2.278 -0.6528  0.5122  0.2991
 6885SOL    HW122075   2.686   3.577   2.321 -0.7063 -1.9226 -2.3462
 6885SOL    HW222076   2.718   3.654   2.194  1.0316  0.5855 -0.4744
 6886SOL     OW22077   3.993   5.125   3.399 -0.1682  0.8039 -0.3784
 6886SOL    HW122078   3.961   5.103   3.486  0.8793  1.3836  0.1838
 6886SOL    HW222079   4.060   5.060   3.380 -0.5763  0.5188 -0.8772
 6887SOL     OW22080   6.294   7.478   4.442  0.7118 -0.2751 -0.1152
 6887SOL    HW122081   6.364   7.542   4.430  1.6019 -1.3394 -0.7926
 6887SOL    HW222082   6.336   7.394   4.426 -0.5464 -0.9943  0.2782
 6888SOL     OW22083   6.895   6.796   1.005 -0.6246 -0.1126  0.0504
 6888SOL    HW122084   6.825   6.779   0.943 -0.6737 -1.6270  0.4784
 6888SOL    HW222085   6.972   6.753   0.968 -0.2403  0.4201  0.2164
 6889SOL     OW22086   3.123   7.815   7.695 -0.5889 -0.1163 -0.2830
 6889SOL    HW122087   3.120   7.871   7.772 -0.8930  0.4519 -0.6997
 6889SOL    HW222088   3.051   7.752   7.709 -0.3059 -0.3498  0.1404
 6890SOL     OW22089   8.085   4.846   7.481  0.4267  0.3211  0.5664
 6890SOL    HW122090   7.998   4.808   7.471  1.2175 -1.4498 -0.2005
 6890SOL    HW222091   8.081   4.930   7.435 -1.2045  0.8790  1.6684
 6891SOL     OW22092   2.040   6.167   6.095  0.7111 -0.3384  0.3423
 6891SOL    HW122093   1.977   6.147   6.025  1.2526 -0.3366 -0.1546
 6891SOL    HW222094   2.063   6.082   6.131  0.2377 -0.3207  0.6955
 6892SOL     OW22095   6.974   2.481   7.581 -0.1747 -0.2721 -0.6637
 6892SOL    HW122096   6.964   2.465   7.675  0.0549  0.6447 -0.4718
 6892SOL    HW222097   7.045   2.423   7.554  0.5603  0.2969 -0.0184
 6893SOL     OW22098   2.843   4.810   6.574 -0.3297  0.1550 -0.1552
 6893SOL    HW122099   2.882   4.872   6.635  0.0417  0.4209 -0.6560
 6893SOL    HW222100   2.807   4.865   6.504  0.4167 -0.2186 -0.8411
 6894SOL     OW22101   5.082   3.082   3.878 -0.7405  0.3106 -0.4924
 6894SOL    HW122102   5.081   2.987   3.870  0.6711  0.2426 -0.1411
 6894SOL    HW222103   5.126   3.099   3.962 -0.7185  1.2647 -0.6818
 6895SOL     OW22104   3.116   2.471   0.368  0.2476 -0.6026 -0.1051
 6895SOL    HW122105   3.207   2.464   0.397  0.4766 -2.3052 -1.1222
 6895SOL    HW222106   3.073   2.394   0.406 -0.7523  0.1347  0.2892
 6896SOL     OW22107   5.347   4.180   7.919  0.3016 -0.2173 -0.2289
 6896SOL    HW122108   5.426   4.195   7.867 -0.2194 -0.2363 -1.0444
 6896SOL    HW222109   5.346   4.085   7.934  1.2596 -0.0423  1.1551
 6897SOL     OW22110   1.086   7.825   0.697 -0.4787  0.2761  0.0907
 6897SOL    HW122111   1.010   7.782   0.736  0.0381 -0.0013  0.7947
 6897SOL    HW222112   1.059   7.843   0.607 -1.4563  0.3668  0.3911
 6898SOL     OW22113   2.937   6.673   6.485 -0.3608 -0.3341  0.8087
 6898SOL    HW122114   2.944   6.595   6.431 -1.4479  0.4865 -0.6153
 6898SOL    HW222115   2.906   6.642   6.570  1.6753 -1.6928  1.1181
 6899SOL     OW22116   2.566   8.258   4.235 -0.3132 -0.1542 -0.2872
 6899SOL    HW122117   2.552   8.323   4.166  0.6628 -1.2009 -1.5233
 6899SOL    HW222118   2.480   8.218   4.248 -0.2064 -1.1515 -2.2008
 6900SOL     OW22119   1.898   7.042   4.703 -0.2336 -0.6340  0.0060
 6900SOL    HW122120   1.990   7.021   4.714 -0.2060 -0.0683  0.9897
 6900SOL    HW222121   1.853   6.958   4.710  0.1941 -0.9042 -0.4102
 6901SOL     OW22122   2.144   5.423   3.290  0.0888 -0.2036  0.6119
 6901SOL    HW122123   2.196   5.468   3.356  1.0092 -0.7996  0.3032
 6901SOL    HW222124   2.065   5.395   3.336 -0.1272  0.9837  1.0048
 6902SOL     OW22125   3.466   6.195   3.542 -0.2369  0.7672 -0.4160
 6902SOL    HW122126   3.475   6.174   3.635 -0.7656 -0.7313 -0.6779
 6902SOL    HW222127   3.395   6.138   3.511 -0.0124  1.1817 -1.7555
 6903SOL     OW22128   4.942   5.469   1.108  0.2462 -0.6462  0.0738
 6903SOL    HW122129   4.887   5.503   1.179  1.1927  2.8508 -0.6856
 6903SOL    HW222130   5.020   5.436   1.153 -1.1442 -3.0543  0.9216
 6904SOL     OW22131   4.192   6.291   5.467 -0.4208 -0.0363 -0.0519
 6904SOL    HW122132   4.105   6.324   5.490 -0.4050 -1.5921  2.7939
 6904SOL    HW222133   4.252   6.362   5.488 -0.7905  0.0399  0.7639
 6905SOL     OW22134   0.966   7.626   6.346 -0.4365  0.2313 -0.3079
 6905SOL    HW122135   0.887   7.681   6.340  0.0218  0.7683 -2.6580
 6905SOL    HW222136   1.019   7.654   6.272  0.8409 -1.8602 -0.2438
 6906SOL     OW22137   7.710   1.607   5.856 -0.1360  0.0262  0.2434
 6906SOL    HW122138   7.688   1.594   5.764 -1.1675 -0.1378  0.4927
 6906SOL    HW222139   7.633   1.652   5.892 -0.2229 -0.9089  1.2585
 6907SOL     OW22140   3.574   6.212   2.766 -0.3380 -0.1253 -0.4603
 6907SOL    HW122141   3.480   6.199   2.754 -0.3028 -1.6904  0.5902
 6907SOL    HW222142   3.588   6.305   2.748 -2.2964  0.4183  0.5263
 6908SOL     OW22143   0.579   6.135   1.850 -0.0083  0.2478  0.3034
 6908SOL    HW122144   0.520   6.125   1.775  1.6480 -0.3443 -0.9696
 6908SOL    HW222145   0.625   6.217   1.834 -0.6873  0.9064  1.4948
 6909SOL     OW22146   1.671   2.763   7.942 -0.4679  0.1414 -0.0772
 6909SOL    HW122147   1.695   2.821   7.870  0.6477  0.7110  0.7306
 6909SOL    HW222148   1.701   2.808   8.021 -0.0045 -1.3051  0.6163
 6910SOL     OW22149   0.723   2.948   7.406  0.1758 -0.6143  0.2740
 6910SOL    HW122150   0.679   3.002   7.472  1.8110  1.7118 -0.4160
 6910SOL    HW222151   0.688   2.979   7.323  0.6414 -1.1040 -0.1066
 6911SOL     OW22152   4.055   7.573   5.734 -0.1560  0.4647  0.6283
 6911SOL    HW122153   4.129   7.625   5.701  0.0629 -0.2145  0.0069
 6911SOL    HW222154   3.997   7.563   5.659  0.2936 -1.0192  0.4467
 6912SOL     OW22155   3.482   1.141   2.638  0.5177 -0.1848  0.3279
 6912SOL    HW122156   3.466   1.123   2.731  0.0908  2.1265  0.7653
 6912SOL    HW222157   3.396   1.133   2.597  0.7955 -1.7768 -0.0428
 6913SOL     OW22158   5.320   1.075   5.412 -0.1149 -0.6644 -0.1409
 6913SOL    HW122159   5.260   1.064   5.486  0.8446 -0.4285  0.6901
 6913SOL    HW222160   5.315   1.168   5.391  0.2801 -0.5590  0.2169
 6914SOL     OW22161   6.803   6.031   1.218 -0.3025 -0.1534  0.3289
 6914SOL    HW122162   6.892   6.034   1.252 -0.3338 -0.3902  0.4332
 6914SOL    HW222163   6.805   5.961   1.153 -0.4396 -0.2312  0.4086
 6915SOL     OW22164   4.097   3.884   7.695  0.3538  0.2803  0.0294
 6915SOL    HW122165   4.187   3.898   7.727  0.6521 -0.3921 -0.5041
 6915SOL    HW222166   4.086   3.789   7.695  0.7362  0.1525 -2.8339
 6916SOL     OW22167   3.831   0.747   0.008  0.6892 -0.0723 -0.3613
 6916SOL    HW122168   3.872   0.769   0.092  1.9828 -0.3538 -0.8869
 6916SOL    HW222169   3.853   0.655  -0.005 -1.2736 -0.6195 -0.0563
 6917SOL     OW22170   7.252   1.900   3.893 -0.6499  0.1836  0.2913
 6917SOL    HW122171   7.171   1.943   3.864 -1.3686 -0.3907  1.3805
 6917SOL    HW222172   7.226   1.810   3.910 -0.1307  0.3338  2.0685
 6918SOL     OW22173   4.706   3.908   4.220  0.2725  0.0173 -0.1735
 6918SOL    HW122174   4.672   3.935   4.135 -0.6242 -1.0417 -0.1747
 6918SOL    HW222175   4.720   3.990   4.268 -1.2493  0.5440 -0.5759
 6919SOL     OW22176   0.020   1.235   0.533 -0.0236 -0.1372  0.2295
 6919SOL    HW122177  -0.047   1.186   0.579 -0.6945 -0.5499 -1.1416
 6919SOL    HW222178  -0.021   1.262   0.451  1.1382  0.5332 -0.1647
 6920SOL     OW22179   6.138   5.333   5.659  0.1475 -0.4319  0.5731
 6920SOL    HW122180   6.063   5.380   5.696  0.4188  1.2962 -0.8650
 6920SOL    HW222181   6.111   5.313   5.569  1.3765  0.2132  0.0364
 6921SOL     OW22182   2.780   3.628   4.373 -0.4199 -1.1635  0.5504
 6921SOL    HW122183   2.696   3.619   4.328  0.3629  0.4168 -1.3477
 6921SOL    HW222184   2.783   3.554   4.434 -3.7380 -0.5658  1.6401
 6922SOL     OW22185   6.090   3.995   3.752  0.1628  0.0333 -0.0165
 6922SOL    HW122186   6.119   4.037   3.833  3.3547 -0.1331 -0.9314
 6922SOL    HW222187   6.036   4.061   3.709  0.5393  1.1010  1.0982
 6923SOL     OW22188   0.710   1.906   4.194  0.2886  0.3956  0.0266
 6923SOL    HW122189   0.651   1.962   4.144  0.4320  2.3447  1.8981
 6923SOL    HW222190   0.719   1.950   4.279  3.7391 -0.2415  0.1381
 6924SOL     OW22191   1.453   7.302   0.339  0.4708 -0.0531  0.1927
 6924SOL    HW122192   1.522   7.345   0.390  2.1379 -3.2895  1.0024
 6924SOL    HW222193   1.500   7.263   0.265 -0.5457 -1.8328  0.4245
 6925SOL     OW22194   6.936   4.517   2.662  0.2471  0.5151  0.0784
 6925SOL    HW122195   6.919   4.570   2.740 -0.1937 -0.3319  0.5714
 6925SOL    HW222196   6.849   4.489   2.634  0.4061  0.7914 -0.7114
 6926SOL     OW22197   8.346   6.610   4.622  0.6422 -0.4759  0.2233
 6926SOL    HW122198   8.371   6.697   4.589 -0.4263  0.0465  0.7382
 6926SOL    HW222199   8.250   6.614   4.629  0.5761 -1.7330  0.1702
 6927SOL     OW22200   3.712   5.612   5.651 -0.0548  0.0829  0.0710
 6927SOL    HW122201   3.759   5.687   5.687  0.7191 -0.2766 -0.1541
 6927SOL    HW222202   3.777   5.541   5.653 -0.4676 -0.3229 -0.6319
 6928SOL     OW22203   6.926   6.053   5.716  0.1236 -0.4645  0.3722
 6928SOL    HW122204   7.016   6.041   5.745  0.0540 -1.8518  0.0516
 6928SOL    HW222205   6.899   5.968   5.681 -1.0604  0.1271 -0.2486
 6929SOL     OW22206   6.541   4.652   3.146 -0.3886  0.2594 -0.4598
 6929SOL    HW122207   6.599   4.579   3.124  0.3241  0.8612 -0.6291
 6929SOL    HW222208   6.592   4.706   3.207 -1.2154  0.1925  0.3097
 6930SOL     OW22209   4.965   4.617   7.683 -0.1322  0.3206  0.1260
 6930SOL    HW122210   4.917   4.670   7.746 -0.8504  1.6026 -1.4078
 6930SOL    HW222211   5.052   4.656   7.679  0.2138 -0.3393  0.9669
 6931SOL     OW22212   8.145   2.551   6.246 -0.3076 -0.0459 -0.0424
 6931SOL    HW122213   8.110   2.629   6.291 -1.4276  0.2891 -1.4142
 6931SOL    HW222214   8.122   2.478   6.303  0.8876  0.6149  1.3404
 6932SOL     OW22215   0.783   2.604   2.893 -0.0772  0.4927  0.2367
 6932SOL    HW122216   0.723   2.634   2.825 -0.0690 -0.1508 -0.0651
 6932SOL    HW222217   0.864   2.652   2.876 -0.4219  1.1598  0.4777
 6933SOL     OW22218   6.838   2.497   5.270  0.1959  0.3887  0.1403
 6933SOL    HW122219   6.847   2.404   5.288 -1.6026  0.3616  1.1904
 6933SOL    HW222220   6.849   2.539   5.355 -1.3729  0.9010  0.1273
 6934SOL     OW22221   6.215   3.491   5.167  0.0475 -0.2397  0.6213
 6934SOL    HW122222   6.270   3.416   5.145  2.2842  1.9985 -2.0718
 6934SOL    HW222223   6.249   3.523   5.251  0.1153 -1.2235  0.9834
 6935SOL     OW22224   3.480   5.029   0.572  0.5869 -0.5141  0.0976
 6935SOL    HW122225   3.426   4.956   0.540  1.5450 -0.4334 -1.8462
 6935SOL    HW222226   3.425   5.106   0.559  0.5849 -0.5978 -0.4290
 6936SOL     OW22227   6.063   3.126   3.171 -0.0618 -0.3008 -0.2542
 6936SOL    HW122228   6.102   3.040   3.188  0.0741 -0.3230 -0.6477
 6936SOL    HW222229   6.056   3.167   3.257  0.6256 -0.3872 -0.1471
 6937SOL     OW22230   1.245   5.485   1.419 -0.0147  0.3089  0.2368
 6937SOL    HW122231   1.273   5.536   1.343 -0.4832 -1.3038 -1.0782
 6937SOL    HW222232   1.257   5.544   1.494  2.0090  1.3835 -0.8684
 6938SOL     OW22233   3.274   0.589   1.097  0.0013 -0.3846 -0.1956
 6938SOL    HW122234   3.254   0.508   1.144 -0.3310  0.1916  0.6895
 6938SOL    HW222235   3.248   0.659   1.157  1.2886  0.3883 -0.4816
 6939SOL     OW22236   1.625   7.620   2.902  0.4926  0.3553  0.9024
 6939SOL    HW122237   1.640   7.525   2.893  0.4366  0.5364 -2.1338
 6939SOL    HW222238   1.695   7.650   2.960  2.5030 -1.1145 -0.6330
 6940SOL     OW22239   1.030   1.870   4.265  0.0203 -0.1988 -0.6683
 6940SOL    HW122240   1.053   1.947   4.213  2.1345 -0.3363 -0.0485
 6940SOL    HW222241   1.015   1.800   4.201  0.2356  0.2006 -1.1611
 6941SOL     OW22242   8.164   3.001   7.107  0.2859  0.5010 -0.3456
 6941SOL    HW122243   8.091   3.023   7.049  1.1988  2.8346 -0.7078
 6941SOL    HW222244   8.127   3.008   7.195 -0.3175  0.0509 -0.5556
 6942SOL     OW22245   5.662   1.001   3.306  0.1345 -0.2012 -0.2613
 6942SOL    HW122246   5.667   0.907   3.327 -0.0386  0.2213  1.9463
 6942SOL    HW222247   5.647   1.004   3.212  0.3270 -2.3914 -0.4093
 6943SOL     OW22248   4.545   4.782   3.496  0.7959  0.3989  0.3258
 6943SOL    HW122249   4.627   4.822   3.468 -1.0572  2.7363 -2.3207
 6943SOL    HW222250   4.500   4.850   3.546 -0.4255 -0.0272 -0.1470
 6944SOL     OW22251   8.353   3.984   3.988  0.8094 -0.0334  0.2030
 6944SOL    HW122252   8.276   3.952   4.035  0.1036  0.8875 -0.2897
 6944SOL    HW222253   8.402   3.905   3.965 -1.2588 -0.8785 -1.6508
 6945SOL     OW22254   4.795   7.002   0.265 -0.5233  0.2689 -0.4263
 6945SOL    HW122255   4.727   7.030   0.325 -1.6242  0.3142 -1.6584
 6945SOL    HW222256   4.769   6.915   0.237 -0.1742  0.3467 -1.0291
 6946SOL     OW22257   5.099   3.084   0.646  0.0777 -0.2726 -0.2185
 6946SOL    HW122258   5.055   3.031   0.713  0.0464  0.4589  0.3496
 6946SOL    HW222259   5.083   3.175   0.672  1.8879  0.0324 -0.0084
 6947SOL     OW22260   5.229   3.250   8.104  0.2600 -0.6055  0.5339
 6947SOL    HW122261   5.167   3.179   8.089 -0.2371 -0.0715 -0.0436
 6947SOL    HW222262   5.304   3.228   8.049 -0.5776  0.1324 -0.9727
 6948SOL     OW22263   1.453   3.497   1.201  0.0401 -0.2736 -0.5928
 6948SOL    HW122264   1.481   3.587   1.182  0.5760 -0.3677 -0.2729
 6948SOL    HW222265   1.535   3.448   1.211 -0.1408 -0.1698  2.2774
 6949SOL     OW22266   2.581   0.342   8.004  0.0109  0.0857  0.6756
 6949SOL    HW122267   2.574   0.289   8.083  1.2574  0.4016  1.0140
 6949SOL    HW222268   2.556   0.430   8.032 -1.1759 -0.1213  0.3192
 6950SOL     OW22269   4.409   6.943   5.531  0.0305 -0.9295  0.1436
 6950SOL    HW122270   4.463   7.020   5.513 -2.0883  0.5583 -0.2148
 6950SOL    HW222271   4.467   6.869   5.513  2.6239  0.5028  1.9333
 6951SOL     OW22272   6.702   6.687   0.854  0.4509 -0.1286  0.2819
 6951SOL    HW122273   6.757   6.610   0.839  1.5619  0.7749 -0.3873
 6951SOL    HW222274   6.622   6.651   0.895 -0.7913 -2.1948 -3.4290
 6952SOL     OW22275   3.437   4.936   5.824 -0.4462 -0.0214  0.1236
 6952SOL    HW122276   3.435   4.999   5.895 -0.7236 -0.8113  0.8351
 6952SOL    HW222277   3.501   4.971   5.762 -3.1883  2.8764 -1.3518
 6953SOL     OW22278   7.389   7.229   5.450  0.0842  0.0179 -0.1523
 6953SOL    HW122279   7.379   7.169   5.524 -0.5325  0.1719 -0.1066
 6953SOL    HW222280   7.366   7.176   5.373  3.2750 -0.9592 -0.5985
 6954SOL     OW22281   6.952   5.755   5.184  0.0615  0.2435  0.7100
 6954SOL    HW122282   6.982   5.840   5.151  0.1699 -0.0487  0.0245
 6954SOL    HW222283   6.858   5.767   5.197 -0.4085 -0.1981 -1.7015
 6955SOL     OW22284   4.140   2.985   4.122 -0.2842 -0.1513 -0.2507
 6955SOL    HW122285   4.062   2.955   4.169 -0.8555  1.1828 -0.3099
 6955SOL    HW222286   4.154   2.920   4.053 -0.9100 -0.7834  0.2074
 6956SOL     OW22287   5.595   2.471   6.552 -0.2499 -0.4585 -0.1943
 6956SOL    HW122288   5.599   2.396   6.611 -0.6876 -0.1276  0.2743
 6956SOL    HW222289   5.678   2.470   6.505 -0.2478 -1.2304 -0.1950
 6957SOL     OW22290   7.168   4.938   4.004  0.1860 -0.0009 -0.1829
 6957SOL    HW122291   7.197   4.910   3.917  0.0415 -0.3883 -0.1069
 6957SOL    HW222292   7.248   4.950   4.054  0.3454  1.4416 -0.7302
 6958SOL     OW22293   0.045   7.033   2.469 -0.1528 -0.0188 -0.1477
 6958SOL    HW122294   0.069   7.068   2.384  0.6419  0.4756  0.2647
 6958SOL    HW222295  -0.045   7.064   2.484 -0.4222 -0.3966 -0.9367
 6959SOL     OW22296   8.069   2.894   4.646  0.1936 -0.1060 -0.1078
 6959SOL    HW122297   8.043   2.863   4.559 -0.3229 -0.8458  0.2917
 6959SOL    HW222298   8.159   2.864   4.656  0.4685  0.5271 -0.6292
 6960SOL     OW22299   4.809   3.094   3.711  0.3376  0.2764  0.2891
 6960SOL    HW122300   4.879   3.078   3.773  1.3099 -0.5179 -0.9649
 6960SOL    HW222301   4.786   3.186   3.724  1.4491  0.4834  0.8762
 6961SOL     OW22302   6.280   8.021   4.120  0.0344 -0.0323 -0.6485
 6961SOL    HW122303   6.203   7.970   4.145  1.6392 -2.0666  0.4744
 6961SOL    HW222304   6.280   8.018   4.025 -1.4785  0.3510 -0.6839
 6962SOL     OW22305   3.300   3.166   4.928  0.3009 -0.1721 -0.1807
 6962SOL    HW122306   3.315   3.088   4.982  0.2000 -0.5674 -0.7248
 6962SOL    HW222307   3.349   3.149   4.847 -1.7007 -0.7608 -1.3284
 6963SOL     OW22308   1.910   1.521   6.694  0.2999 -0.1806 -0.0891
 6963SOL    HW122309   1.826   1.556   6.725 -0.4813  0.2868 -2.5364
 6963SOL    HW222310   1.886   1.448   6.637  1.6254 -0.6785 -0.0438
 6964SOL     OW22311   5.512   1.291   0.010 -0.2567 -0.0591 -0.6689
 6964SOL    HW122312   5.544   1.305   0.100 -0.1657 -0.5297 -0.6262
 6964SOL    HW222313   5.432   1.241   0.021 -2.7490  3.5638 -0.5697
 6965SOL     OW22314   6.833   6.735   1.793  0.2319 -0.0274 -0.1650
 6965SOL    HW122315   6.913   6.683   1.790 -0.7875 -1.6936  0.0946
 6965SOL    HW222316   6.785   6.701   1.869 -0.0530  1.9946  0.6108
 6966SOL     OW22317   1.250   0.929   6.615 -0.6624  0.2684 -0.4270
 6966SOL    HW122318   1.312   0.857   6.611 -1.2005 -0.2260 -0.0846
 6966SOL    HW222319   1.198   0.911   6.693 -1.8319  0.1684 -1.2020
 6967SOL     OW22320   0.393   8.263   1.282 -0.3426 -0.2479 -0.1577
 6967SOL    HW122321   0.328   8.311   1.334  0.1481  0.6837 -0.3778
 6967SOL    HW222322   0.472   8.317   1.287  0.7553 -1.8748  0.9757
 6968SOL     OW22323   6.433   1.753   6.106  0.0074  0.1969  0.4568
 6968SOL    HW122324   6.400   1.803   6.031 -1.2253 -0.3898  0.5764
 6968SOL    HW222325   6.526   1.744   6.089 -0.1882  0.3773 -0.8455
 6969SOL     OW22326   6.381   2.188   0.661 -0.1292  0.0296 -0.3483
 6969SOL    HW122327   6.303   2.243   0.667  0.1728  0.4029  0.2214
 6969SOL    HW222328   6.365   2.116   0.723 -0.5161 -0.5247 -1.0787
 6970SOL     OW22329   8.231   1.018   2.590 -0.2352  0.1384 -0.0174
 6970SOL    HW122330   8.172   0.974   2.528  1.0040  1.0536 -1.9013
 6970SOL    HW222331   8.233   1.109   2.561 -0.5127  0.8704  2.1028
 6971SOL     OW22332   7.302   7.274   2.039 -0.1757  0.2167  0.5682
 6971SOL    HW122333   7.239   7.336   2.003  0.3405 -0.0287 -0.8509
 6971SOL    HW222334   7.382   7.291   1.989 -0.1388 -1.8382 -0.1505
 6972SOL     OW22335   7.236   5.381   1.944 -0.2010  0.2106 -0.3898
 6972SOL    HW122336   7.319   5.428   1.941 -0.1986  0.4426  1.7260
 6972SOL    HW222337   7.260   5.289   1.955 -0.2218  0.1474 -0.8657
 6973SOL     OW22338   2.766   2.862   7.517 -0.0456  0.0369 -0.5572
 6973SOL    HW122339   2.818   2.841   7.440  0.0437  2.0326 -1.1001
 6973SOL    HW222340   2.678   2.832   7.496  0.3463 -1.1204 -0.6412
 6974SOL     OW22341   1.325   5.770   3.681 -0.2469 -0.1833  0.2894
 6974SOL    HW122342   1.361   5.801   3.598 -0.5080  1.6969  0.8351
 6974SOL    HW222343   1.358   5.831   3.746 -0.2762 -1.4618  1.5588
 6975SOL     OW22344   2.227   6.396   0.079 -0.4748  0.6001 -0.2844
 6975SOL    HW122345   2.185   6.317   0.045 -2.6418  1.3176  0.5564
 6975SOL    HW222346   2.280   6.428   0.006  0.1398 -1.3808 -0.7599
 6976SOL     OW22347   0.271   1.300   8.162  0.5159 -0.3307  0.2072
 6976SOL    HW122348   0.210   1.235   8.197 -1.7452  0.2779 -2.2869
 6976SOL    HW222349   0.229   1.384   8.177  1.3639  0.2289 -0.4113
 6977SOL     OW22350   1.446   5.106   8.124  0.0973  0.0418 -0.6520
 6977SOL    HW122351   1.506   5.082   8.195  0.5793  1.2009 -0.6516
 6977SOL    HW222352   1.370   5.143   8.169  0.1833  0.3071 -0.7284
 6978SOL     OW22353   3.731   6.500   5.151 -0.3488 -0.2617  0.7825
 6978SOL    HW122354   3.680   6.424   5.179  0.1244 -0.2902  1.5688
 6978SOL    HW222355   3.816   6.464   5.128 -0.3044 -0.0430  0.6011
 6979SOL     OW22356   2.613   2.374   1.084 -0.0562 -0.1055  0.6464
 6979SOL    HW122357   2.570   2.443   1.134 -1.1709  0.3514 -0.8544
 6979SOL    HW222358   2.554   2.358   1.010  2.5178  0.9005 -1.8253
 6980SOL     OW22359   0.992   5.805   6.468 -0.0599 -0.1464 -0.2147
 6980SOL    HW122360   1.016   5.851   6.387  2.3872 -1.7029 -0.4715
 6980SOL    HW222361   1.030   5.718   6.458 -1.5178 -1.0784  1.7651
 6981SOL     OW22362   7.602   2.605   7.262 -0.1264 -0.1196  0.2091
 6981SOL    HW122363   7.541   2.571   7.196 -0.4218  0.5723  0.1179
 6981SOL    HW222364   7.647   2.527   7.295 -2.7350 -0.9927  2.0140
 6982SOL     OW22365   2.998   0.233   7.804 -0.1116  0.2238  0.2078
 6982SOL    HW122366   2.936   0.300   7.833  0.7684  1.3349 -0.3883
 6982SOL    HW222367   3.084   0.273   7.817  0.6304 -1.8811  2.5343
 6983SOL     OW22368   5.622   6.800   5.842  0.3732 -0.4091  0.0410
 6983SOL    HW122369   5.540   6.849   5.851  0.2458 -0.4707 -0.7339
 6983SOL    HW222370   5.672   6.822   5.921 -0.6449 -0.8600  0.8281
 6984SOL     OW22371   6.224   7.345   5.626  0.3491 -0.3358  0.0617
 6984SOL    HW122372   6.162   7.279   5.594 -1.9022  2.6963 -2.3172
 6984SOL    HW222373   6.197   7.360   5.717 -0.0936 -1.5804  0.1576
 6985SOL     OW22374   4.174   7.431   2.065  0.1727  0.3337  0.1873
 6985SOL    HW122375   4.179   7.338   2.087  0.1311 -0.3549 -2.4560
 6985SOL    HW222376   4.265   7.456   2.046  0.0225  0.5233 -0.2818
 6986SOL     OW22377   6.548   2.049   5.683 -0.6347 -0.0370  0.3539
 6986SOL    HW122378   6.480   2.034   5.617 -1.7367  1.3939  1.1101
 6986SOL    HW222379   6.612   1.979   5.667 -1.1595 -0.1027 -1.8194
 6987SOL     OW22380   7.780   0.669   2.120  0.0146 -0.1641 -0.4307
 6987SOL    HW122381   7.694   0.702   2.093  0.8804  1.6552 -1.0834
 6987SOL    HW222382   7.807   0.612   2.048 -0.1703  0.1377 -0.7422
 6988SOL     OW22383   8.165   3.904   3.340  0.2378 -0.1927 -0.3208
 6988SOL    HW122384   8.139   3.919   3.431  0.0483 -2.7988  0.1540
 6988SOL    HW222385   8.083   3.884   3.295  0.4311  0.2530 -0.8824
 6989SOL     OW22386   1.765   4.812   0.564 -0.5885 -0.0434 -0.1270
 6989SOL    HW122387   1.688   4.830   0.511 -0.8385  1.5224  0.7101
 6989SOL    HW222388   1.730   4.780   0.647 -0.5046  2.1693  0.8517
 6990SOL     OW22389   4.635   0.690   3.034  0.0064  0.9359  0.4389
 6990SOL    HW122390   4.678   0.763   3.078  1.8329  0.0650  0.1830
 6990SOL    HW222391   4.669   0.612   3.078 -2.1513  0.1973  0.9274
 6991SOL     OW22392   5.670   3.498   1.531  0.6287 -0.2181 -0.3045
 6991SOL    HW122393   5.604   3.491   1.599 -0.3440  0.6517 -1.1293
 6991SOL    HW222394   5.652   3.582   1.488  0.9030 -0.9674 -1.9571
 6992SOL     OW22395   0.104   4.187   4.733  0.0066  0.2715 -0.3429
 6992SOL    HW122396   0.111   4.094   4.714 -1.7643  0.0945 -0.3170
 6992SOL    HW222397   0.134   4.230   4.653  1.1216 -0.2980 -0.2474
 6993SOL     OW22398   7.432   1.284   5.757  0.1833  0.2435  0.1614
 6993SOL    HW122399   7.508   1.229   5.776 -0.1316 -0.1713  0.2357
 6993SOL    HW222400   7.403   1.316   5.843 -1.4278 -1.8805  0.5050
 6994SOL     OW22401   4.760   1.458   0.733  0.1993 -0.2473 -0.0467
 6994SOL    HW122402   4.689   1.489   0.677 -0.9971 -0.3008  1.3727
 6994SOL    HW222403   4.806   1.538   0.760 -1.4398  0.1989  1.7153
 6995SOL     OW22404   4.493   5.371   4.853  0.3373 -0.0029  0.0985
 6995SOL    HW122405   4.418   5.408   4.806  0.0274  0.2980  0.8262
 6995SOL    HW222406   4.460   5.349   4.939  0.7057 -1.3307 -0.0766
 6996SOL     OW22407   5.762   7.356   4.861 -0.0395 -0.4757 -0.2202
 6996SOL    HW122408   5.854   7.329   4.853  0.2168  0.3616 -0.1577
 6996SOL    HW222409   5.742   7.344   4.954 -0.0173 -0.7238 -0.2458
 6997SOL     OW22410   4.105   6.128   2.507 -0.5421 -0.5366  0.3797
 6997SOL    HW122411   4.050   6.101   2.581 -0.8489  1.5864  0.9750
 6997SOL    HW222412   4.117   6.222   2.519  0.5774 -0.3992 -1.5194
 6998SOL     OW22413   7.805   6.216   4.805  0.6528 -0.1200 -0.2520
 6998SOL    HW122414   7.762   6.274   4.868  1.5869 -0.0268  0.3045
 6998SOL    HW222415   7.779   6.128   4.832 -0.9843  0.0116 -1.2560
 6999SOL     OW22416   0.617   3.232   6.792 -0.5867 -0.0185 -0.2315
 6999SOL    HW122417   0.549   3.189   6.844 -0.0318  0.6323  1.0943
 6999SOL    HW222418   0.685   3.255   6.856  1.1049 -1.0458 -1.5838
 7000SOL     OW22419   2.877   8.367   0.331 -0.3903  0.2686 -0.0321
 7000SOL    HW122420   2.968   8.360   0.302 -0.2348 -1.6681  0.7686
 7000SOL    HW222421   2.861   8.461   0.341  1.7360  0.6098  0.4862
 7001SOL     OW22422   2.235   4.362   6.859  0.3034  0.4604 -0.0465
 7001SOL    HW122423   2.251   4.323   6.944  0.7172  2.1329  0.6771
 7001SOL    HW222424   2.323   4.373   6.821  0.0943 -0.7469 -0.9283
 7002SOL     OW22425   3.335   3.390   4.467  0.0720 -0.1688 -0.2976
 7002SOL    HW122426   3.418   3.414   4.427  0.5557  0.8491  1.2357
 7002SOL    HW222427   3.321   3.299   4.441  0.8301  0.1314 -1.9105
 7003SOL     OW22428   2.345   4.720   2.241  0.1523 -0.2514 -0.0328
 7003SOL    HW122429   2.349   4.706   2.336  0.1842 -1.1833 -0.1619
 7003SOL    HW222430   2.432   4.696   2.210 -0.1702 -0.9572 -0.4138
 7004SOL     OW22431   4.102   6.005   6.746  0.1778  0.3322  0.7706
 7004SOL    HW122432   4.123   6.068   6.677  3.6962 -0.5836  0.7841
 7004SOL    HW222433   4.007   6.012   6.757 -0.4294  1.2795 -3.3351
 7005SOL     OW22434   1.840   5.133   1.348  0.0139 -0.4343  0.2164
 7005SOL    HW122435   1.867   5.223   1.361 -1.1998 -0.1727  1.1347
 7005SOL    HW222436   1.894   5.082   1.410  0.5929 -0.3342 -0.1985
 7006SOL     OW22437   6.082   3.075   4.323  0.5664  0.6779 -0.2121
 7006SOL    HW122438   6.001   3.024   4.329  0.9770  0.1477  1.0762
 7006SOL    HW222439   6.151   3.010   4.322  1.0132  1.1521 -0.7491
 7007SOL     OW22440   4.956   2.428   5.679  0.1979  0.3627 -0.1697
 7007SOL    HW122441   5.034   2.372   5.675 -0.3169 -0.4233  0.3163
 7007SOL    HW222442   4.988   2.516   5.663  1.1932  0.0511  0.0493
 7008SOL     OW22443   4.539   1.245   1.763 -0.4595 -0.1872 -0.1985
 7008SOL    HW122444   4.600   1.178   1.732 -1.0825 -0.0920 -1.7457
 7008SOL    HW222445   4.494   1.206   1.837  0.7052 -0.6615  0.2735
 7009SOL     OW22446   7.377   4.069   1.458 -0.2276  0.1761  0.4917
 7009SOL    HW122447   7.333   4.097   1.538 -0.2634  2.2873 -0.2020
 7009SOL    HW222448   7.466   4.104   1.466 -0.2483  0.4627 -0.3925
 7010SOL     OW22449   3.570   6.442   2.342  0.1101  0.1947  0.4303
 7010SOL    HW122450   3.541   6.518   2.393  0.0816 -0.6298  1.6983
 7010SOL    HW222451   3.548   6.367   2.397  0.0004 -0.7544 -0.8550
 7011SOL     OW22452   3.887   7.427   2.501 -0.1464  0.5546  0.7725
 7011SOL    HW122453   3.851   7.514   2.518 -2.4724 -0.4624  1.3833
 7011SOL    HW222454   3.877   7.381   2.584 -0.7944 -0.9046 -0.0929
 7012SOL     OW22455   3.329   7.574   1.225  0.5550 -0.2351 -0.5302
 7012SOL    HW122456   3.318   7.668   1.215  0.1721 -0.3787 -1.5962
 7012SOL    HW222457   3.394   7.550   1.159 -0.0900 -0.8560 -0.9554
 7013SOL     OW22458   7.365   3.869   0.225 -0.1843 -0.2834 -0.4601
 7013SOL    HW122459   7.316   3.787   0.232 -0.7023  0.0426 -0.2248
 7013SOL    HW222460   7.299   3.938   0.236  0.5123  0.1630  1.4850
 7014SOL     OW22461   7.297   5.422   2.493  0.1836  0.2479 -0.9438
 7014SOL    HW122462   7.201   5.429   2.489 -0.0023 -0.7054  0.7125
 7014SOL    HW222463   7.321   5.381   2.410 -1.1240 -1.5833 -0.4924
 7015SOL     OW22464   1.994   2.626   6.941 -0.0178  0.0235  0.3301
 7015SOL    HW122465   2.081   2.636   6.980  0.9393 -0.5898 -1.5527
 7015SOL    HW222466   1.992   2.690   6.870 -0.6156 -0.8708 -0.4677
 7016SOL     OW22467   2.184   1.547   6.900 -0.3035  0.0540  0.6206
 7016SOL    HW122468   2.122   1.620   6.908 -1.1597 -0.6252  0.2163
 7016SOL    HW222469   2.212   1.549   6.809 -1.9185 -1.3635  0.0316
 7017SOL     OW22470   4.579   6.674   0.474 -0.0521  0.0630  0.4636
 7017SOL    HW122471   4.588   6.594   0.526 -1.1502  0.0215  0.6188
 7017SOL    HW222472   4.484   6.683   0.461 -0.0578  1.9371  1.4089
 7018SOL     OW22473   0.718   7.536   0.228  0.1262  0.2220 -0.0774
 7018SOL    HW122474   0.650   7.581   0.279  0.0061 -0.3698  0.2884
 7018SOL    HW222475   0.718   7.446   0.261 -1.4740 -0.8055 -2.5343
 7019SOL     OW22476   6.569   7.322   4.631 -0.2771  0.1130 -0.0457
 7019SOL    HW122477   6.602   7.410   4.645  0.6656  0.0158 -1.4360
 7019SOL    HW222478   6.482   7.321   4.672 -0.1025  1.5284  0.3826
 7020SOL     OW22479   4.716   5.679   6.699 -0.3736 -0.0637 -0.6249
 7020SOL    HW122480   4.639   5.625   6.681 -0.8513  0.9474 -1.7858
 7020SOL    HW222481   4.790   5.625   6.671 -0.7789 -0.4352 -1.0038
 7021SOL     OW22482   7.474   5.594   0.360 -0.3464 -0.1092  0.4181
 7021SOL    HW122483   7.407   5.661   0.372  0.8828  0.9756  1.4098
 7021SOL    HW222484   7.552   5.642   0.334  0.1006 -1.3511 -0.6649
 7022SOL     OW22485   0.198   7.898   5.113 -0.3698 -0.1685 -0.9941
 7022SOL    HW122486   0.118   7.848   5.132 -2.2108  2.1302 -2.1128
 7022SOL    HW222487   0.216   7.946   5.193 -1.5867  1.1082 -1.4400
 7023SOL     OW22488   0.188   1.417   1.057  0.2092  0.2464  0.4129
 7023SOL    HW122489   0.117   1.465   1.015 -0.9748 -0.6522  1.2887
 7023SOL    HW222490   0.190   1.333   1.012  0.3680  0.0753  0.7357
 7024SOL     OW22491   7.515   3.508   5.996 -0.2017 -0.6151  0.4235
 7024SOL    HW122492   7.565   3.558   5.931 -3.1705  2.9969  0.5808
 7024SOL    HW222493   7.542   3.417   5.982  3.6169  0.6275 -1.7916
 7025SOL     OW22494   3.745   4.774   4.369  0.6991 -0.0480  0.1930
 7025SOL    HW122495   3.659   4.753   4.405  0.5535 -0.4987 -0.4102
 7025SOL    HW222496   3.799   4.697   4.388  1.2421  0.5923  1.3897
 7026SOL     OW22497   3.650   3.585   5.929  0.1698  0.4933  0.3128
 7026SOL    HW122498   3.586   3.548   5.867 -1.4391 -0.0956  2.2115
 7026SOL    HW222499   3.608   3.664   5.962 -0.0118 -0.3606  2.2277
 7027SOL     OW22500   6.775   3.775   2.381 -0.0176 -0.0957 -0.1550
 7027SOL    HW122501   6.795   3.847   2.440  1.3252  1.0223 -1.8573
 7027SOL    HW222502   6.689   3.796   2.344 -1.6098 -1.5803  2.3766
 7028SOL     OW22503   4.265   1.216   2.302 -0.2641 -0.1181 -0.5863
 7028SOL    HW122504   4.213   1.194   2.224 -0.4773 -0.2574 -0.4042
 7028SOL    HW222505   4.245   1.146   2.364  2.0253 -1.6311 -1.3797
 7029SOL     OW22506   7.422   7.495   5.501 -0.1677  0.4854  0.4998
 7029SOL    HW122507   7.437   7.459   5.588 -0.0443  2.0211  1.1477
 7029SOL    HW222508   7.363   7.432   5.458  0.0361 -0.4532  1.5569
 7030SOL     OW22509   4.259   0.628   7.639 -0.2976  0.6051 -0.3492
 7030SOL    HW122510   4.352   0.635   7.664 -0.2342 -0.7877 -0.1069
 7030SOL    HW222511   4.228   0.719   7.637  0.7884  1.0283  0.6573
 7031SOL     OW22512   4.312   1.709   0.770 -0.0979  0.1474  0.5000
 7031SOL    HW122513   4.361   1.679   0.846  1.1669  1.5802  0.2911
 7031SOL    HW222514   4.319   1.804   0.772 -1.2007  0.2981 -0.6663
 7032SOL     OW22515   5.981   5.327   0.048  0.0980  0.5347  0.5536
 7032SOL    HW122516   5.980   5.420   0.070  1.1542  1.3236 -2.2934
 7032SOL    HW222517   5.903   5.314  -0.005 -0.8297 -0.6090  2.1140
 7033SOL     OW22518   3.519   6.621   7.997 -0.0810 -0.3982  0.0236
 7033SOL    HW122519   3.598   6.670   7.977  0.5070 -1.2864  0.1308
 7033SOL    HW222520   3.519   6.610   8.092  0.0156 -0.9632 -0.0358
 7034SOL     OW22521   3.618   2.693   2.160  0.3211  0.6121 -0.1376
 7034SOL    HW122522   3.570   2.620   2.200  1.2905 -0.0284 -0.1205
 7034SOL    HW222523   3.589   2.693   2.069  1.9211 -1.2257 -0.7134
 7035SOL     OW22524   0.893   3.702   3.949 -0.1975  0.0293  0.3795
 7035SOL    HW122525   0.807   3.720   3.912 -0.1252  0.0917  0.2417
 7035SOL    HW222526   0.940   3.658   3.879 -0.0873  0.0748  0.4249
 7036SOL     OW22527   0.915   0.991   6.670  0.6898  0.0977 -0.0000
 7036SOL    HW122528   0.964   1.025   6.744  1.4187 -0.2697 -0.2925
 7036SOL    HW222529   0.980   0.942   6.619 -0.1560 -1.1422  0.0495
 7037SOL     OW22530   3.078   0.322   3.395  0.0925 -0.3359  0.2269
 7037SOL    HW122531   3.088   0.239   3.442 -0.9633 -0.7770 -0.3002
 7037SOL    HW222532   2.985   0.329   3.377 -0.0673  1.6574  1.4761
 7038SOL     OW22533   5.909   8.289   0.397 -0.4631 -0.1571 -0.9035
 7038SOL    HW122534   5.924   8.271   0.489  2.3534  2.3251 -0.7239
 7038SOL    HW222535   5.820   8.324   0.393 -1.6730 -2.8224  0.3420
 7039SOL     OW22536   4.743   6.162   7.609 -0.4054 -0.0045  0.3469
 7039SOL    HW122537   4.690   6.160   7.530 -0.0085  0.1095  0.0763
 7039SOL    HW222538   4.773   6.253   7.616 -0.8898  0.1184  0.9325
 7040SOL     OW22539   3.103   4.102   4.018 -0.5089 -0.1360  0.5278
 7040SOL    HW122540   3.088   4.034   4.084  0.5149  0.3427  1.2907
 7040SOL    HW222541   3.091   4.184   4.065  0.1266  0.2077  0.1065
 7041SOL     OW22542   7.080   0.871   3.662 -0.0008  0.0423 -0.5512
 7041SOL    HW122543   7.040   0.855   3.748 -2.1653  1.8867 -1.1211
 7041SOL    HW222544   7.015   0.923   3.615  1.1130 -0.9213 -3.3418
 7042SOL     OW22545   2.536   6.000   5.102 -0.1596 -0.0922  0.1692
 7042SOL    HW122546   2.475   6.071   5.085 -0.5764 -0.6203 -0.6553
 7042SOL    HW222547   2.487   5.938   5.157 -0.2823 -0.3807 -0.2555
 7043SOL     OW22548   2.364   1.076   1.458 -0.0246  0.0615  0.1154
 7043SOL    HW122549   2.449   1.100   1.494  0.5928  1.3882 -2.0490
 7043SOL    HW222550   2.307   1.150   1.477 -0.2228 -0.0738  0.0558
 7044SOL     OW22551   6.429   5.171   8.080 -0.0208  0.4592  0.5509
 7044SOL    HW122552   6.352   5.143   8.130 -0.1335 -1.7392 -0.7182
 7044SOL    HW222553   6.393   5.202   7.996  0.4235 -0.1840  0.1138
 7045SOL     OW22554   5.974   3.460   2.947 -0.4481 -0.3851 -0.2799
 7045SOL    HW122555   6.016   3.434   2.865 -0.5645  0.7463 -0.7098
 7045SOL    HW222556   6.045   3.499   2.999 -0.7106  0.4232 -0.5205
 7046SOL     OW22557   4.646   4.261   0.817  0.0426 -0.0616  0.0435
 7046SOL    HW122558   4.579   4.233   0.879 -0.9194  2.3958  0.2407
 7046SOL    HW222559   4.672   4.181   0.771 -2.9000 -1.1539  0.0857
 7047SOL     OW22560   4.421   4.248   8.196  0.3968  0.4618  0.3871
 7047SOL    HW122561   4.507   4.248   8.238 -0.2989 -1.2283  1.9277
 7047SOL    HW222562   4.412   4.337   8.161  3.2283  0.3538 -0.8911
 7048SOL     OW22563   6.039   1.852   6.353 -1.4614 -0.0067  0.1907
 7048SOL    HW122564   6.016   1.850   6.445 -1.3061  2.0779  0.3240
 7048SOL    HW222565   5.985   1.784   6.313 -1.3981 -1.0642  1.8148
 7049SOL     OW22566   4.044   3.307   0.174  0.2544  0.5922 -0.6050
 7049SOL    HW122567   3.963   3.261   0.151  1.9680 -3.4823  0.5401
 7049SOL    HW222568   4.105   3.287   0.103  1.2973  0.3433  0.3194
 7050SOL     OW22569   2.422   1.503   2.270 -0.0946  0.2151  0.2151
 7050SOL    HW122570   2.399   1.595   2.280  1.5362  0.7745 -0.7804
 7050SOL    HW222571   2.500   1.492   2.325  0.0335 -0.4211 -0.0878
 7051SOL     OW22572   2.511   5.408   4.108  0.0571  0.4090  0.3257
 7051SOL    HW122573   2.439   5.355   4.141  1.2326 -0.9784  0.7801
 7051SOL    HW222574   2.555   5.441   4.186  0.5676  0.3007  0.0922
 7052SOL     OW22575   4.868   5.541   5.965  0.2013 -0.2982  0.0033
 7052SOL    HW122576   4.777   5.568   5.950 -0.2618 -2.0564 -0.5644
 7052SOL    HW222577   4.905   5.611   6.020 -1.6821  0.1142  0.8281
 7053SOL     OW22578   5.967   0.864   7.870 -0.0657  0.4095 -0.6057
 7053SOL    HW122579   5.882   0.905   7.852 -2.1690 -3.5560 -0.8970
 7053SOL    HW222580   6.012   0.865   7.786 -1.8327 -1.3309 -1.6623
 7054SOL     OW22581   2.217   0.421   1.162  0.7255 -0.5887 -0.3213
 7054SOL    HW122582   2.189   0.428   1.071 -2.7219  1.8699  0.7237
 7054SOL    HW222583   2.184   0.337   1.192 -1.4388  0.1279 -0.4941
 7055SOL     OW22584   3.658   2.324   3.909 -0.2125  0.4046 -0.6543
 7055SOL    HW122585   3.744   2.347   3.943  0.1673  1.3982 -2.1845
 7055SOL    HW222586   3.676   2.266   3.835 -0.8739  0.4273 -0.8401
 7056SOL     OW22587   7.502   5.399   4.540  0.0512 -0.4778  0.4064
 7056SOL    HW122588   7.456   5.427   4.619  0.7840  0.2450  0.5882
 7056SOL    HW222589   7.542   5.315   4.564 -1.0250 -1.0381  0.2936
 7057SOL     OW22590   1.377   8.259   1.092 -0.0068 -0.1484 -0.0630
 7057SOL    HW122591   1.348   8.193   1.029 -1.2206  1.1108 -0.8995
 7057SOL    HW222592   1.430   8.211   1.156  0.9047 -1.5568 -1.7868
 7058SOL     OW22593   4.981   7.861   0.001 -0.1131 -0.1154 -0.5904
 7058SOL    HW122594   5.043   7.882  -0.069 -1.3970 -1.0815 -2.0865
 7058SOL    HW222595   4.930   7.942   0.012  0.4637  0.2213 -0.3604
 7059SOL     OW22596   4.062   4.119   4.775 -0.0836 -0.3676 -0.6529
 7059SOL    HW122597   4.002   4.045   4.785 -0.7118  0.2358  0.2511
 7059SOL    HW222598   4.012   4.183   4.724 -1.5847  1.4839  2.8165
 7060SOL     OW22599   4.868   1.364   0.416 -0.0971  0.9585 -0.2569
 7060SOL    HW122600   4.773   1.357   0.429  0.1144  0.0695  1.0500
 7060SOL    HW222601   4.885   1.314   0.336 -0.5653 -0.1452  0.3152
 7061SOL     OW22602   1.470   3.363   6.471  0.3639  0.1052 -0.1544
 7061SOL    HW122603   1.374   3.357   6.466  0.3472 -0.9015  0.9339
 7061SOL    HW222604   1.501   3.283   6.428  0.8361  1.4276 -2.4842
 7062SOL     OW22605   2.139   6.999   4.617 -0.0986  0.0042  0.2879
 7062SOL    HW122606   2.146   6.916   4.570  1.5603 -0.1732  0.8059
 7062SOL    HW222607   2.226   7.014   4.653 -1.3076 -0.0220  3.5849
 7063SOL     OW22608   2.869   0.490   7.626  0.2634 -0.4989 -0.4592
 7063SOL    HW122609   2.841   0.466   7.715 -0.4646  1.8304 -0.0020
 7063SOL    HW222610   2.962   0.510   7.635  0.1707 -0.1726 -0.1759
 7064SOL     OW22611   4.649   1.967   2.489 -0.2721 -0.5278  0.1625
 7064SOL    HW122612   4.597   1.887   2.486  1.0303 -1.3966 -0.1192
 7064SOL    HW222613   4.721   1.947   2.548  0.3443  0.2767 -0.2924
 7065SOL     OW22614   7.976   5.608   6.506  0.1336 -0.1506 -0.4105
 7065SOL    HW122615   8.004   5.528   6.461  0.5017 -0.2576 -0.0023
 7065SOL    HW222616   8.041   5.673   6.480  0.0216 -0.0675 -0.4821
 7066SOL     OW22617   0.620   3.128   4.141 -0.3988 -0.3553  0.5048
 7066SOL    HW122618   0.670   3.201   4.106 -0.4811  0.6779  2.4257
 7066SOL    HW222619   0.659   3.110   4.226 -1.2831 -1.6239  0.6760
 7067SOL     OW22620   4.259   0.158   0.565  1.0146  0.2174  0.5159
 7067SOL    HW122621   4.347   0.161   0.526  1.4753 -0.6830  1.4368
 7067SOL    HW222622   4.262   0.224   0.634  1.0807 -0.0422  0.7626
 7068SOL     OW22623   1.710   5.875   4.745  0.6044  0.2028  0.7254
 7068SOL    HW122624   1.766   5.806   4.782  0.7644  0.2709  0.6133
 7068SOL    HW222625   1.622   5.852   4.773  0.3919 -1.1293 -0.8887
 7069SOL     OW22626   0.651   7.256   2.979  0.8353 -0.1612 -0.5034
 7069SOL    HW122627   0.644   7.336   3.031  1.4373 -0.2396 -0.2892
 7069SOL    HW222628   0.576   7.203   3.005  0.4037  0.3538 -0.6849
 7070SOL     OW22629   4.426   2.719   0.420 -0.4272 -0.1308 -0.1914
 7070SOL    HW122630   4.501   2.662   0.401 -0.7708 -1.1113  1.1968
 7070SOL    HW222631   4.353   2.658   0.435 -0.9905  0.7070  0.5755
 7071SOL     OW22632   3.386   8.205   1.314 -0.1447 -0.0686 -0.2128
 7071SOL    HW122633   3.352   8.282   1.269 -0.1208  1.3540  2.0570
 7071SOL    HW222634   3.324   8.135   1.293 -0.1246  0.5036 -2.3834
 7072SOL     OW22635   0.530   3.530   7.170  0.0179  0.7101  0.1229
 7072SOL    HW122636   0.581   3.455   7.199  0.2454  0.8662  0.1277
 7072SOL    HW222637   0.528   3.588   7.246 -0.7469  0.4000  0.3497
 7073SOL     OW22638   2.817   5.979   2.519 -0.2757  0.1513 -0.0774
 7073SOL    HW122639   2.763   5.962   2.442  0.8018  0.0695 -0.8364
 7073SOL    HW222640   2.764   5.949   2.593 -0.9212 -0.6932 -0.8648
 7074SOL     OW22641   4.339   2.195   5.717 -0.0438 -0.2245 -0.2862
 7074SOL    HW122642   4.269   2.153   5.667 -1.5561  0.4087  1.1965
 7074SOL    HW222643   4.309   2.192   5.808  1.2940  1.1644  0.2502
 7075SOL     OW22644   2.119   4.136   4.695 -0.1129 -0.7670  0.2828
 7075SOL    HW122645   2.197   4.119   4.748  0.8159 -0.2257 -0.8656
 7075SOL    HW222646   2.046   4.111   4.751  0.8926 -1.5075  1.3071
 7076SOL     OW22647   3.862   1.836   7.762  0.2073  0.0875  0.0668
 7076SOL    HW122648   3.778   1.792   7.772  0.1192  0.2108 -0.1140
 7076SOL    HW222649   3.852   1.919   7.809  0.0290  0.3580 -0.4377
 7077SOL     OW22650   4.424   6.365   6.167 -0.6135  1.2465  0.8719
 7077SOL    HW122651   4.466   6.290   6.209 -0.7571  0.6811  0.0286
 7077SOL    HW222652   4.388   6.416   6.239 -0.3243  0.6198  1.4687
 7078SOL     OW22653   7.294   1.523   2.946 -0.0732 -0.2885  0.1287
 7078SOL    HW122654   7.258   1.441   2.912 -0.4046  0.7455 -2.1786
 7078SOL    HW222655   7.387   1.505   2.960 -0.2211 -1.1599  0.0397
 7079SOL     OW22656   0.305   6.788   6.511  0.3448 -0.7417 -0.3147
 7079SOL    HW122657   0.359   6.768   6.435  0.0824 -0.0844 -0.6867
 7079SOL    HW222658   0.229   6.731   6.503 -0.1172 -0.0453 -1.0466
 7080SOL     OW22659   4.203   3.845   8.023  0.1316  0.2906 -0.2767
 7080SOL    HW122660   4.232   3.905   7.954 -1.0804  2.9034  1.3174
 7080SOL    HW222661   4.236   3.884   8.104 -1.5118 -0.6773  0.9278
 7081SOL     OW22662   4.882   0.870   5.854 -0.3033 -0.0394  0.9432
 7081SOL    HW122663   4.937   0.925   5.910 -0.3158  2.8320 -1.6073
 7081SOL    HW222664   4.942   0.807   5.815  0.3519  0.2365  1.4905
 7082SOL     OW22665   0.668   6.062   0.310  0.3036 -0.2365  0.3698
 7082SOL    HW122666   0.710   6.019   0.384  0.6897  1.1018  0.9623
 7082SOL    HW222667   0.648   6.150   0.342 -1.6448 -0.3691 -0.3706
 7083SOL     OW22668   4.226   0.207   3.683  0.2041 -0.1880  0.6003
 7083SOL    HW122669   4.161   0.269   3.650  1.7191  0.8227 -0.6105
 7083SOL    HW222670   4.303   0.261   3.702  0.3583 -1.1752  3.1464
 7084SOL     OW22671   1.414   0.742   7.031  0.2266  0.3382  0.6274
 7084SOL    HW122672   1.364   0.824   7.033 -0.0712  0.2944 -1.9063
 7084SOL    HW222673   1.436   0.730   6.938 -0.9791 -3.1951  0.6827
 7085SOL     OW22674   0.638   1.993   3.092  0.0263  0.2620 -0.4874
 7085SOL    HW122675   0.718   1.957   3.129 -1.0188 -0.8148  0.8111
 7085SOL    HW222676   0.660   2.083   3.069  0.9867  0.7200  1.9718
 7086SOL     OW22677   2.995   4.256   4.961  0.1108  0.1688  0.0656
 7086SOL    HW122678   2.948   4.323   5.010 -1.0071 -0.4628 -0.1143
 7086SOL    HW222679   2.968   4.268   4.871 -2.2816 -2.1938  0.3487
 7087SOL     OW22680   1.051   3.019   2.301 -0.2443  0.1649  0.0682
 7087SOL    HW122681   1.146   3.024   2.318 -0.0372 -0.0504 -0.9700
 7087SOL    HW222682   1.011   3.046   2.384  0.7226  0.1179  0.5745
 7088SOL     OW22683   3.319   3.844   3.500  0.3831 -0.5764 -0.0915
 7088SOL    HW122684   3.349   3.928   3.465 -0.1741  0.5326  1.9155
 7088SOL    HW222685   3.262   3.808   3.431  0.1869  0.9645 -0.7705
 7089SOL     OW22686   6.317   3.636   7.085  0.1601  0.0695  0.0977
 7089SOL    HW122687   6.388   3.700   7.085 -0.5933  0.9358  0.8312
 7089SOL    HW222688   6.335   3.580   7.160 -0.0657  0.4569  0.4458
 7090SOL     OW22689   6.346   4.596   5.584 -0.0344 -0.0459 -0.4565
 7090SOL    HW122690   6.277   4.552   5.535 -0.3059  1.2547 -1.3171
 7090SOL    HW222691   6.308   4.613   5.670  0.6063 -2.7716  0.4671
 7091SOL     OW22692   1.438   1.557   3.540 -0.8199  0.3193  0.6839
 7091SOL    HW122693   1.463   1.510   3.620 -1.9366 -0.6594  0.4896
 7091SOL    HW222694   1.519   1.600   3.512 -0.0779 -0.3923  1.6182
 7092SOL     OW22695   2.478   6.260   2.474 -0.7199 -0.0811 -0.1735
 7092SOL    HW122696   2.531   6.280   2.551 -0.0919 -0.8003 -0.4092
 7092SOL    HW222697   2.439   6.344   2.449  2.1390  0.9863 -1.3856
 7093SOL     OW22698   3.182   1.541   1.613  0.0667 -0.1994  0.0506
 7093SOL    HW122699   3.150   1.625   1.643  0.3060 -0.0986  0.0276
 7093SOL    HW222700   3.230   1.560   1.532  2.6610  0.1063  1.5416
 7094SOL     OW22701   8.056   2.998   5.145 -0.5040  0.2180 -0.3840
 7094SOL    HW122702   8.056   3.018   5.238  1.5180  0.0871 -0.3068
 7094SOL    HW222703   8.148   2.984   5.124 -1.1050 -1.7789 -1.9765
 7095SOL     OW22704   4.568   7.148   0.071 -0.3102 -0.0043  0.1972
 7095SOL    HW122705   4.521   7.105   0.142  0.9864  0.4045  1.3481
 7095SOL    HW222706   4.628   7.082   0.037  0.3921  0.3414  0.7458
 7096SOL     OW22707   1.712   4.944   4.774 -0.3213 -0.4103 -0.1831
 7096SOL    HW122708   1.736   4.959   4.682  0.6520 -1.4035 -0.1108
 7096SOL    HW222709   1.631   4.993   4.786 -1.0332 -1.1067 -1.8685
 7097SOL     OW22710   2.279   0.462   4.955  0.0188 -0.5570 -0.3802
 7097SOL    HW122711   2.288   0.554   4.981  1.0818 -0.8319  0.2710
 7097SOL    HW222712   2.252   0.466   4.864 -1.1996  0.4106 -0.0142
 7098SOL     OW22713   4.921   1.494   1.808  0.2822 -0.5214 -0.3832
 7098SOL    HW122714   4.852   1.465   1.868 -0.9496 -0.1451 -1.5485
 7098SOL    HW222715   4.971   1.558   1.858 -0.6997 -0.2209  0.2512
 7099SOL     OW22716   4.036   6.659   0.801 -0.0149  0.1018 -0.2453
 7099SOL    HW122717   3.950   6.694   0.780  0.2252  1.1945  0.5116
 7099SOL    HW222718   4.097   6.730   0.779  0.4554  0.3310  1.6498
 7100SOL     OW22719   4.546   0.397   4.266 -0.0652  0.7231 -0.1632
 7100SOL    HW122720   4.457   0.364   4.259  0.0490  0.3693  0.0118
 7100SOL    HW222721   4.555   0.459   4.194  0.1083 -0.5724 -1.2968
 7101SOL     OW22722   5.388   3.871   3.640 -0.1971  0.4060  0.7996
 7101SOL    HW122723   5.299   3.837   3.632  0.3846 -0.7981 -1.4151
 7101SOL    HW222724   5.422   3.829   3.719 -0.7223 -1.3490  0.1460
 7102SOL     OW22725   7.562   5.057   4.904 -0.3808 -0.0063 -0.1565
 7102SOL    HW122726   7.615   4.981   4.928 -0.7362  0.1477  1.1768
 7102SOL    HW222727   7.475   5.038   4.938 -0.6543  0.6885 -0.4433
 7103SOL     OW22728   2.395   2.148   5.856 -0.4067 -0.0825  0.1202
 7103SOL    HW122729   2.372   2.069   5.906  0.9875 -0.1908  0.6625
 7103SOL    HW222730   2.328   2.212   5.880 -2.5193 -1.5270 -1.5737
 7104SOL     OW22731   5.081   2.464   4.001 -0.6076  0.1624 -0.0160
 7104SOL    HW122732   5.014   2.502   3.944 -0.2934  0.9919  0.1486
 7104SOL    HW222733   5.125   2.399   3.947 -1.3851 -0.2175 -0.2028
 7105SOL     OW22734   0.655   0.036   1.950 -0.6315 -0.2805 -0.5599
 7105SOL    HW122735   0.610   0.094   2.011  1.6631  0.1870  0.8121
 7105SOL    HW222736   0.685  -0.037   2.005  0.0870 -0.6615 -1.4444
 7106SOL     OW22737   6.729   8.203   7.692 -0.2317  0.5642 -0.1523
 7106SOL    HW122738   6.661   8.138   7.677  0.5089 -0.1710 -0.4579
 7106SOL    HW222739   6.682   8.286   7.702 -1.2863 -0.1874  1.5071
 7107SOL     OW22740   5.364   1.581   7.624 -0.0505  0.2338  0.4368
 7107SOL    HW122741   5.324   1.501   7.658  1.9059 -0.1108  2.1128
 7107SOL    HW222742   5.451   1.584   7.665  1.3846  1.3050 -2.3903
 7108SOL     OW22743   7.377   6.743   7.024 -0.1572 -0.3745  0.0236
 7108SOL    HW122744   7.368   6.838   7.025 -2.3083 -0.4436 -2.5597
 7108SOL    HW222745   7.297   6.710   7.065  0.9071 -1.1324  1.6023
 7109SOL     OW22746   3.633   5.509   2.927  0.0819  0.4843  0.3120
 7109SOL    HW122747   3.576   5.439   2.960 -0.1214 -0.3993 -1.7385
 7109SOL    HW222748   3.595   5.534   2.843  0.9926  2.0586  0.3238
 7110SOL     OW22749   2.060   6.274   3.635  0.5033  0.1774  0.0288
 7110SOL    HW122750   1.988   6.311   3.584 -1.6293  0.0408  2.7368
 7110SOL    HW222751   2.071   6.186   3.600 -1.1499 -0.0445 -0.0270
 7111SOL     OW22752   3.520   8.293   1.989 -0.1225 -0.4446  0.0626
 7111SOL    HW122753   3.538   8.349   1.914 -0.9040  1.8876  1.5232
 7111SOL    HW222754   3.432   8.259   1.973 -0.9758  1.3891  0.6528
 7112SOL     OW22755   5.376   6.465   6.480  0.4241  0.0083 -0.9126
 7112SOL    HW122756   5.404   6.550   6.514  0.7362 -0.7158  0.7595
 7112SOL    HW222757   5.284   6.458   6.508  0.8107 -0.7819  0.2277
 7113SOL     OW22758   2.992   0.074   6.697 -0.6285 -0.7835 -0.1924
 7113SOL    HW122759   2.921   0.066   6.761  0.4085  0.6292  1.2052
 7113SOL    HW222760   3.006   0.168   6.689  1.1605 -1.0342 -0.3465
 7114SOL     OW22761   7.731   7.483   2.092 -0.4271 -0.5823  1.2019
 7114SOL    HW122762   7.657   7.543   2.080 -1.4409 -1.7942  1.2404
 7114SOL    HW222763   7.776   7.517   2.170 -1.0447  0.0532  1.2982
 7115SOL     OW22764   8.250   5.949   7.417 -0.1751  0.3755  0.6222
 7115SOL    HW122765   8.291   5.992   7.343  0.6156 -1.0981  0.1647
 7115SOL    HW222766   8.156   5.967   7.407 -0.1384 -0.2547 -1.0426
 7116SOL     OW22767   6.935   5.109   2.489  0.6248 -0.2772  0.3234
 7116SOL    HW122768   6.998   5.100   2.417  0.1192 -3.6648  0.1583
 7116SOL    HW222769   6.953   5.196   2.525  2.6485  0.4948 -2.2351
 7117SOL     OW22770   3.906   4.587   0.974  0.1589  0.0291 -0.0954
 7117SOL    HW122771   3.986   4.599   0.922  0.7798 -0.3186  0.7595
 7117SOL    HW222772   3.877   4.498   0.952  0.3232 -0.0527  0.0154
 7118SOL     OW22773   2.367   2.527   2.837  0.0186  0.3130 -0.3757
 7118SOL    HW122774   2.278   2.553   2.813  0.0577  0.8493  0.0460
 7118SOL    HW222775   2.411   2.610   2.857  0.6666  0.0677 -0.7585
 7119SOL     OW22776   0.545   6.902   0.672 -0.1253 -0.2344 -0.1821
 7119SOL    HW122777   0.635   6.924   0.648 -0.2364 -0.1581 -0.5515
 7119SOL    HW222778   0.523   6.963   0.742  1.1291 -2.2469  2.0866
 7120SOL     OW22779   5.623   3.589   4.660  0.1328  0.0092  0.0833
 7120SOL    HW122780   5.599   3.504   4.622 -1.0359  0.3742 -0.0238
 7120SOL    HW222781   5.687   3.625   4.599 -0.3126 -0.2442 -0.5406
 7121SOL     OW22782   5.915   7.600   5.694  0.1539  0.7302 -0.5893
 7121SOL    HW122783   5.847   7.650   5.650  1.0958  1.5605 -1.1571
 7121SOL    HW222784   5.984   7.590   5.628  1.2943  1.3730  0.4458
 7122SOL     OW22785   7.971   3.243   7.687  0.3344 -0.3816 -0.2283
 7122SOL    HW122786   7.952   3.154   7.659  3.8019 -1.6011  0.7394
 7122SOL    HW222787   7.970   3.239   7.783 -0.3881  0.8816 -0.1590
 7123SOL     OW22788   0.508   5.756   1.990 -0.0646 -0.2407  0.0918
 7123SOL    HW122789   0.498   5.666   1.957  2.6843 -1.2627  1.7264
 7123SOL    HW222790   0.533   5.807   1.913  2.1130 -1.7108 -0.2786
 7124SOL     OW22791   2.976   4.531   3.529  0.5473 -0.0346  0.2838
 7124SOL    HW122792   3.027   4.608   3.504  0.3345 -0.0243 -0.1259
 7124SOL    HW222793   2.997   4.517   3.622  1.5217 -0.2087  0.0469
 7125SOL     OW22794   6.360   1.111   8.081 -0.0531 -0.4836  0.2770
 7125SOL    HW122795   6.294   1.079   8.143  0.3532  1.3965  1.7857
 7125SOL    HW222796   6.432   1.048   8.088  0.6807  0.5094  3.0608
 7126SOL     OW22797   3.714   0.101   3.653  0.0679  0.9101  0.2998
 7126SOL    HW122798   3.770   0.076   3.580 -1.4881  2.4959 -1.5693
 7126SOL    HW222799   3.697   0.020   3.700  1.9946  0.0211 -0.4444
 7127SOL     OW22800   7.017   2.270   6.651 -0.1808  0.4897 -0.6284
 7127SOL    HW122801   7.016   2.177   6.631 -0.3564  0.2919  0.2649
 7127SOL    HW222802   6.950   2.281   6.718  0.7266  1.0374  0.2209
 7128SOL     OW22803   4.504   8.244   5.603 -0.1352 -0.3772 -0.1728
 7128SOL    HW122804   4.485   8.209   5.516  0.3441  0.3108 -0.5631
 7128SOL    HW222805   4.435   8.308   5.619 -1.3353 -1.8189  0.7719
 7129SOL     OW22806   7.788   7.920   1.599  0.3043 -0.3333  0.0362
 7129SOL    HW122807   7.806   7.834   1.637 -2.8821 -2.1176 -2.0039
 7129SOL    HW222808   7.746   7.969   1.669 -0.5060 -1.5552  0.4365
 7130SOL     OW22809   7.284   0.447   4.248 -0.0218 -0.1416 -0.0320
 7130SOL    HW122810   7.363   0.416   4.291  0.1351 -0.2428 -0.3898
 7130SOL    HW222811   7.313   0.517   4.190 -0.4871  1.2556  1.3678
 7131SOL     OW22812   5.506   7.052   6.477 -0.1107  0.6192 -0.3104
 7131SOL    HW122813   5.577   7.079   6.420 -0.2869  0.3463 -0.6685
 7131SOL    HW222814   5.534   7.077   6.565 -0.7481  3.0022 -0.7128
 7132SOL     OW22815   3.810   5.388   2.685  0.0068 -0.2548  0.6439
 7132SOL    HW122816   3.880   5.410   2.624  0.5182  0.5613  1.4845
 7132SOL    HW222817   3.849   5.402   2.772 -1.1197 -0.0139  1.1337
 7133SOL     OW22818   1.584   0.847   7.956 -0.2602 -0.0565  0.1636
 7133SOL    HW122819   1.570   0.753   7.966  0.0177 -0.0454  0.6931
 7133SOL    HW222820   1.637   0.855   7.877 -1.0409 -0.2757 -0.3900
 7134SOL     OW22821   5.466   1.456   7.923 -0.2713 -0.0650  0.4260
 7134SOL    HW122822   5.530   1.524   7.906  1.0954 -0.9278  1.9321
 7134SOL    HW222823   5.499   1.409   7.999 -2.2918 -1.0484  0.7733
 7135SOL     OW22824   3.469   5.849   5.850 -0.1220  0.2920  0.2770
 7135SOL    HW122825   3.521   5.925   5.876 -0.6170  0.6004  0.3805
 7135SOL    HW222826   3.474   5.790   5.925  0.8024 -0.0736 -0.0580
 7136SOL     OW22827   1.196   5.542   0.590 -0.2987 -0.2983 -0.4402
 7136SOL    HW122828   1.254   5.487   0.538  0.7259  1.2129 -0.9738
 7136SOL    HW222829   1.247   5.622   0.606 -1.2517  0.0031  1.3758
 7137SOL     OW22830   4.228   2.010   0.803 -0.1456  0.3013 -1.0986
 7137SOL    HW122831   4.214   2.104   0.790 -3.0459  0.1998  0.4239
 7137SOL    HW222832   4.203   1.995   0.895  0.6839 -1.9139 -1.1684
 7138SOL     OW22833   4.531   7.017   0.765  0.0302  0.2374 -0.6452
 7138SOL    HW122834   4.471   7.069   0.819 -0.5089  0.0005 -1.0129
 7138SOL    HW222835   4.477   6.984   0.694  0.6627  0.2501 -1.1394
 7139SOL     OW22836   1.815   5.053   7.286  0.2543  0.6066 -0.3678
 7139SOL    HW122837   1.886   5.109   7.254  1.9646 -0.8320  0.7266
 7139SOL    HW222838   1.757   5.043   7.211  1.0989  1.9529 -1.2568
 7140SOL     OW22839   3.416   7.353   6.536 -0.3126 -0.1276 -0.3484
 7140SOL    HW122840   3.398   7.313   6.621  1.5280  1.3796  0.8476
 7140SOL    HW222841   3.350   7.422   6.528 -1.0983 -0.8924 -0.6324
 7141SOL     OW22842   5.296   1.764   0.835 -0.3466 -0.3910  0.2484
 7141SOL    HW122843   5.327   1.852   0.859 -1.3114  0.0187  0.0325
 7141SOL    HW222844   5.290   1.717   0.918 -0.9878  0.1381  0.5087
 7142SOL     OW22845   1.991   5.314   2.558 -0.5015 -0.6125  0.7122
 7142SOL    HW122846   2.019   5.402   2.533 -1.3147 -0.9648 -1.7321
 7142SOL    HW222847   2.042   5.256   2.501 -1.0674 -1.6444  1.2345
 7143SOL     OW22848   3.939   1.852   3.851 -0.7552 -0.6918  0.2648
 7143SOL    HW122849   4.002   1.924   3.851 -1.2743 -0.2214  0.9382
 7143SOL    HW222850   3.890   1.864   3.933 -2.2348 -0.5975 -0.6007
 7144SOL     OW22851   4.359   8.237   1.861 -0.0314  0.2702 -0.2000
 7144SOL    HW122852   4.306   8.159   1.872  0.7315 -0.4454 -1.3682
 7144SOL    HW222853   4.426   8.231   1.929 -1.5416  1.3137  1.4507
 7145SOL     OW22854   7.216   2.230   0.051  0.3040 -0.2338  0.2491
 7145SOL    HW122855   7.230   2.324   0.059  0.8365 -0.4269  1.8669
 7145SOL    HW222856   7.302   2.192   0.068 -0.2538 -1.0778  1.2440
 7146SOL     OW22857   0.688   2.125   7.906 -0.2844 -0.0089  0.1171
 7146SOL    HW122858   0.734   2.189   7.960  1.0956 -0.5727 -0.3287
 7146SOL    HW222859   0.665   2.054   7.966  1.0054 -0.5118  0.0563
 7147SOL     OW22860   7.406   1.177   3.383  0.0608 -0.0806 -0.4245
 7147SOL    HW122861   7.363   1.136   3.459  1.7777  0.0754  0.6885
 7147SOL    HW222862   7.439   1.103   3.332 -2.0353 -0.2327 -1.6662
 7148SOL     OW22863   3.183   7.466   5.813 -0.1205 -0.4149 -0.0238
 7148SOL    HW122864   3.150   7.539   5.761  0.3240 -0.2628 -0.0970
 7148SOL    HW222865   3.252   7.504   5.866 -1.0305 -0.4210  1.2026
 7149SOL     OW22866   6.159   4.926   0.697 -0.6024  0.2024  0.0448
 7149SOL    HW122867   6.174   4.880   0.780 -0.5636  0.0304 -0.0578
 7149SOL    HW222868   6.227   4.994   0.695 -0.1913 -0.2096 -0.1515
 7150SOL     OW22869   0.126   3.788   2.885  0.4611  0.3605  0.2450
 7150SOL    HW122870   0.095   3.878   2.897  0.6055  0.6000 -1.0443
 7150SOL    HW222871   0.133   3.753   2.974 -1.0543  1.1258  0.6999
 7151SOL     OW22872   7.160   2.065   4.652 -0.0148  0.5423 -0.7514
 7151SOL    HW122873   7.254   2.049   4.658 -0.0897  0.1614 -0.5450
 7151SOL    HW222874   7.125   2.036   4.736 -0.3312  0.5734 -0.8697
 7152SOL     OW22875   6.720   6.892   1.613  0.5782 -0.0929 -0.5028
 7152SOL    HW122876   6.772   6.838   1.673 -0.6490  0.2493  0.9238
 7152SOL    HW222877   6.731   6.850   1.528  2.4749 -0.5187 -0.0916
 7153SOL     OW22878   4.406   4.318   7.819 -0.3489  0.3121 -0.4094
 7153SOL    HW122879   4.395   4.223   7.820 -0.0908  0.2731 -1.2059
 7153SOL    HW222880   4.322   4.352   7.851 -0.0167 -0.2053  1.0622
 7154SOL     OW22881   1.934   7.340   3.889 -0.9463 -0.0763  0.0207
 7154SOL    HW122882   2.012   7.390   3.863  0.3562 -2.2216 -0.3811
 7154SOL    HW222883   1.878   7.405   3.931 -0.1004  2.0829 -1.9733
 7155SOL     OW22884   4.074   0.708   1.821  0.0510  0.0374  0.4635
 7155SOL    HW122885   4.057   0.714   1.915  0.6409 -0.9754  0.6451
 7155SOL    HW222886   4.097   0.617   1.806 -1.6015 -0.2151 -0.9367
 7156SOL     OW22887   7.763   8.057   6.320 -0.3046  0.0235  0.3347
 7156SOL    HW122888   7.837   8.002   6.348  0.1049  0.8554  0.9235
 7156SOL    HW222889   7.796   8.105   6.244 -0.3699  0.1173  0.3661
 7157SOL     OW22890   0.659   7.972   6.592  0.1814 -0.4042 -0.6028
 7157SOL    HW122891   0.686   8.056   6.555 -0.5400 -0.2175 -0.6999
 7157SOL    HW222892   0.590   7.940   6.534  0.6101 -1.1803 -0.7040
 7158SOL     OW22893   1.484   3.771   3.041 -0.4854 -0.0950 -0.2156
 7158SOL    HW122894   1.571   3.745   3.072 -0.0987 -0.2652 -1.4163
 7158SOL    HW222895   1.470   3.858   3.079  1.0622  0.8112 -1.6020
 7159SOL     OW22896   3.951   4.415   7.201  0.2454  0.3526 -0.0391
 7159SOL    HW122897   3.890   4.384   7.134  0.5996  0.6276 -0.4989
 7159SOL    HW222898   3.901   4.414   7.282  0.2129 -1.2797 -0.0622
 7160SOL     OW22899   2.890   5.557   3.891 -0.2382  0.0554 -0.6241
 7160SOL    HW122900   2.867   5.558   3.798 -0.6146 -0.2710 -0.5344
 7160SOL    HW222901   2.964   5.617   3.898 -1.4384  1.6189 -0.8133
 7161SOL     OW22902   8.367   1.118   6.331 -0.5765 -0.1567 -0.5993
 7161SOL    HW122903   8.354   1.207   6.298 -0.6492 -0.4672 -1.4037
 7161SOL    HW222904   8.326   1.061   6.267  0.6676 -0.8623 -0.8027
 7162SOL     OW22905   1.374   2.271   5.070  0.3493  0.4796 -0.1661
 7162SOL    HW122906   1.439   2.275   5.000  1.3552 -2.1136  0.5096
 7162SOL    HW222907   1.417   2.312   5.145  1.2883 -1.2533  0.2866
 7163SOL     OW22908   0.159   6.709   1.603  0.0937 -0.1211  0.0008
 7163SOL    HW122909   0.077   6.666   1.628  1.6178 -1.2532  3.9593
 7163SOL    HW222910   0.133   6.796   1.575 -2.5210 -0.7048  0.3416
 7164SOL     OW22911   6.304   8.053   0.003  0.7954 -0.0036 -0.2867
 7164SOL    HW122912   6.212   8.043  -0.019  0.6043  0.6705  0.1772
 7164SOL    HW222913   6.305   8.069   0.098  1.3314  0.6394 -0.3868
 7165SOL     OW22914   0.530   7.695   7.601  0.0964  0.3495 -0.1894
 7165SOL    HW122915   0.453   7.748   7.624 -1.3690 -1.5126 -0.5255
 7165SOL    HW222916   0.588   7.756   7.554 -1.9429  1.4262 -1.4771
 7166SOL     OW22917   0.492   3.264   0.812  0.1381  0.1599 -0.4650
 7166SOL    HW122918   0.443   3.199   0.761 -0.2731 -0.1762  0.3447
 7166SOL    HW222919   0.434   3.286   0.885  0.6177  0.8246 -0.2717
 7167SOL     OW22920   3.979   5.544   1.467 -0.1678 -0.3756 -0.1035
 7167SOL    HW122921   4.056   5.542   1.523  0.5403 -2.2096 -1.0748
 7167SOL    HW222922   3.924   5.472   1.498 -0.2581 -0.7473 -1.0753
 7168SOL     OW22923   5.828   1.371   6.048 -0.0165 -0.1567  0.5159
 7168SOL    HW122924   5.772   1.443   6.019  1.4226  0.2437 -1.5476
 7168SOL    HW222925   5.903   1.374   5.988 -0.0147 -3.5480  0.1496
 7169SOL     OW22926   1.522   5.460   3.717 -0.1967  0.3862  0.1625
 7169SOL    HW122927   1.598   5.490   3.766  0.0767  0.6017 -0.3876
 7169SOL    HW222928   1.473   5.540   3.698 -0.4798  0.2656  0.3775
 7170SOL     OW22929   3.427   0.088   5.807  0.2326  0.2452 -0.1903
 7170SOL    HW122930   3.415   0.182   5.821  0.4788  0.2544 -0.0329
 7170SOL    HW222931   3.397   0.048   5.889 -0.2683  0.1557 -0.4131
 7171SOL     OW22932   1.539   7.351   4.293  0.7383  0.6377 -0.3671
 7171SOL    HW122933   1.520   7.301   4.213  0.1537 -0.4807  0.4394
 7171SOL    HW222934   1.619   7.312   4.327  0.0627 -0.0750  0.4804
 7172SOL     OW22935   5.078   8.329   5.266  0.4732  0.1218  0.5402
 7172SOL    HW122936   5.028   8.399   5.224 -0.1828 -1.2411 -1.0580
 7172SOL    HW222937   5.047   8.328   5.357  0.9003  2.2151  0.7485
 7173SOL     OW22938   1.251   1.932   0.419 -0.2178  1.0595  0.6165
 7173SOL    HW122939   1.337   1.973   0.418  0.0935  0.5102  2.2606
 7173SOL    HW222940   1.192   2.001   0.450 -0.1854  1.1084  0.5694
 7174SOL     OW22941   2.380   0.427   3.954  0.0310  0.5045  0.8542
 7174SOL    HW122942   2.396   0.496   4.018 -0.3582  0.5789  0.8717
 7174SOL    HW222943   2.426   0.456   3.875  1.6741 -0.2316  1.4891
 7175SOL     OW22944   7.416   8.282   4.580  0.1446 -0.2208 -0.2308
 7175SOL    HW122945   7.473   8.213   4.545 -0.2603 -0.3774 -0.5988
 7175SOL    HW222946   7.328   8.243   4.580 -0.1827  0.4664 -0.9755
 7176SOL     OW22947   5.915   3.229   2.287  0.3814 -0.2257 -0.0576
 7176SOL    HW122948   5.911   3.166   2.215  1.3377 -0.9117  0.4649
 7176SOL    HW222949   5.909   3.314   2.244 -0.3633 -0.6458 -0.8291
 7177SOL     OW22950   0.039   7.380   7.854  0.0896 -0.3062 -0.2260
 7177SOL    HW122951   0.018   7.351   7.765 -0.5952  0.1117 -0.2097
 7177SOL    HW222952   0.134   7.389   7.854  0.3464 -2.6346 -0.1735
 7178SOL     OW22953   4.216   3.767   4.780  0.4524  0.0064  0.4537
 7178SOL    HW122954   4.308   3.796   4.780  1.2632 -2.3566  1.1839
 7178SOL    HW222955   4.201   3.737   4.690  1.1280 -1.6346  0.8615
 7179SOL     OW22956   5.565   3.871   5.952 -0.1652 -0.0106 -0.0107
 7179SOL    HW122957   5.568   3.809   5.880 -1.3511 -2.2322  1.7550
 7179SOL    HW222958   5.637   3.844   6.009  1.7658  2.6688 -0.9385
 7180SOL     OW22959   6.841   3.094   5.766 -0.0563  0.5331  0.2431
 7180SOL    HW122960   6.934   3.083   5.786 -0.4035  1.1820  2.5093
 7180SOL    HW222961   6.804   3.133   5.845 -2.1074  1.1255 -0.9315
 7181SOL     OW22962   5.457   2.509   4.546  0.4658 -0.1539 -0.1749
 7181SOL    HW122963   5.538   2.545   4.510  1.9507 -1.3496  1.7452
 7181SOL    HW222964   5.481   2.423   4.579 -1.2216  0.0272  1.7499
 7182SOL     OW22965   2.972   6.966   5.907  0.0356 -0.3785 -0.1913
 7182SOL    HW122966   3.018   6.889   5.939 -0.6321 -0.8097 -0.2491
 7182SOL    HW222967   2.958   7.020   5.985 -0.4392 -0.8162  0.0290
 7183SOL     OW22968   3.125   7.265   4.313 -0.4652 -0.0781  0.3798
 7183SOL    HW122969   3.195   7.292   4.373  1.3701 -1.0864 -1.1743
 7183SOL    HW222970   3.107   7.175   4.337 -2.3507  0.5964  1.7122
 7184SOL     OW22971   4.727   5.150   5.532 -0.2555  0.1582  0.4481
 7184SOL    HW122972   4.787   5.112   5.596  0.4654  1.2368  0.4424
 7184SOL    HW222973   4.723   5.087   5.461  0.7408 -0.0077  0.5313
 7185SOL     OW22974   6.232   3.934   4.805 -0.1410 -0.0013  0.4209
 7185SOL    HW122975   6.285   3.956   4.882  1.2285 -2.1315  0.1784
 7185SOL    HW222976   6.143   3.956   4.830  0.5529  1.5407  1.7346
 7186SOL     OW22977   8.262   5.242   0.949 -0.2176 -0.4051  0.3551
 7186SOL    HW122978   8.278   5.170   1.010  1.0666 -1.3291 -0.9677
 7186SOL    HW222979   8.261   5.199   0.863 -3.2533  0.6360 -0.2524
 7187SOL     OW22980   6.385   6.816   6.550 -0.1976  0.5327 -0.8435
 7187SOL    HW122981   6.456   6.863   6.595 -2.2160  1.3149  1.8254
 7187SOL    HW222982   6.424   6.734   6.522  1.7504  0.8824  0.6407
 7188SOL     OW22983   5.776   4.804   2.156 -0.2114 -0.0620 -0.0504
 7188SOL    HW122984   5.723   4.726   2.138 -1.7953  1.3304 -1.9178
 7188SOL    HW222985   5.858   4.788   2.109 -0.8060 -0.3372 -1.0412
 7189SOL     OW22986   7.956   1.161   1.931 -0.3609 -0.3385 -0.3712
 7189SOL    HW122987   7.868   1.190   1.954  0.0316  0.1183  0.6270
 7189SOL    HW222988   8.010   1.239   1.943  0.4508 -1.0453  0.7374
 7190SOL     OW22989   2.269   0.336   7.460 -0.2046 -0.5283 -0.1492
 7190SOL    HW122990   2.255   0.244   7.481 -1.3352 -0.2977  0.1909
 7190SOL    HW222991   2.195   0.382   7.501  0.3129  0.5284 -0.3413
 7191SOL     OW22992   0.917   0.963   5.731  0.4719  0.5621 -0.6189
 7191SOL    HW122993   0.950   0.901   5.795 -1.5937  0.8606  0.8320
 7191SOL    HW222994   0.839   0.921   5.694 -0.8849  2.1450  0.2862
 7192SOL     OW22995   7.638   2.967   6.807  0.1041  0.1031  0.7803
 7192SOL    HW122996   7.546   2.951   6.787  0.5123 -2.8648  0.8517
 7192SOL    HW222997   7.657   3.051   6.766 -2.2062 -0.0027 -0.6824
 7193SOL     OW22998   4.481   0.124   6.792  0.4375 -0.0931  0.4516
 7193SOL    HW122999   4.485   0.177   6.712 -1.2678  0.6814  0.8360
 7193SOL    HW223000   4.516   0.181   6.860  1.0719 -0.4387  0.4235
 7194SOL     OW23001   6.419   3.662   7.687 -0.9383  0.0553  0.0037
 7194SOL    HW123002   6.395   3.704   7.769 -0.5628  2.9452 -1.2335
 7194SOL    HW223003   6.511   3.687   7.673 -1.3948  0.8982 -1.9225
 7195SOL     OW23004   6.495   5.445   5.544 -0.2016  0.0276  0.0234
 7195SOL    HW123005   6.457   5.366   5.582 -0.2052  0.3850  0.7768
 7195SOL    HW223006   6.589   5.435   5.558  0.0343 -0.8655 -1.8552
 7196SOL     OW23007   6.875   4.642   5.149 -0.2275 -0.7843 -0.3491
 7196SOL    HW123008   6.804   4.706   5.138  0.3999  0.7734  3.0510
 7196SOL    HW223009   6.844   4.585   5.219  1.0824 -1.2998 -0.1728
 7197SOL     OW23010   3.467   3.708   6.748  0.0690 -0.4087  0.0252
 7197SOL    HW123011   3.529   3.701   6.820  0.5856  1.1453 -0.2308
 7197SOL    HW223012   3.477   3.626   6.700  1.3380 -0.5373  0.4669
 7198SOL     OW23013   2.916   1.890   5.851  0.4543 -0.1895 -0.1972
 7198SOL    HW123014   2.967   1.823   5.897  1.6124  0.5696 -0.3153
 7198SOL    HW223015   2.834   1.847   5.827 -0.2783 -0.5892  2.7021
 7199SOL     OW23016   8.311   7.759   2.650  0.1701 -0.0434  0.3051
 7199SOL    HW123017   8.357   7.722   2.725 -1.4101  0.0349  1.3793
 7199SOL    HW223018   8.345   7.848   2.643  1.0452 -0.3669  0.2894
 7200SOL     OW23019   1.662   6.509   8.158  0.4796 -0.6224  0.2443
 7200SOL    HW123020   1.726   6.505   8.087 -0.0389  0.4568 -0.3134
 7200SOL    HW223021   1.594   6.567   8.125 -1.1608 -2.2847  0.5443
 7201SOL     OW23022   8.021   0.383   3.504  0.2480  0.0832 -0.0602
 7201SOL    HW123023   7.993   0.469   3.535  1.2990  0.9727 -1.4555
 7201SOL    HW223024   7.974   0.321   3.559  0.4074  1.5473  1.8036
 7202SOL     OW23025   6.336   6.305   4.480 -0.0849  0.4003 -0.3447
 7202SOL    HW123026   6.424   6.338   4.496  1.2877 -0.4855 -4.6486
 7202SOL    HW223027   6.347   6.210   4.473 -0.5574  0.4773 -3.9761
 7203SOL     OW23028   3.860   5.083   5.500  0.4943  0.2669  0.6671
 7203SOL    HW123029   3.887   5.147   5.566 -0.4451  2.8226 -1.2514
 7203SOL    HW223030   3.895   5.117   5.417 -1.6552 -0.6196 -0.7162
 7204SOL     OW23031   0.722   3.476   1.230 -0.8413  0.1499  0.3843
 7204SOL    HW123032   0.734   3.515   1.143 -1.4248 -0.0823  0.1942
 7204SOL    HW223033   0.811   3.463   1.262 -0.6202  0.4500 -0.0832
 7205SOL     OW23034   0.276   5.688   5.923 -0.3289 -0.2641  0.5446
 7205SOL    HW123035   0.207   5.751   5.903 -0.2158 -0.6495 -1.2147
 7205SOL    HW223036   0.358   5.737   5.910 -0.2505 -0.4964  0.1573
 7206SOL     OW23037   1.129   1.038   1.449 -0.1868  0.0928 -0.5202
 7206SOL    HW123038   1.082   0.957   1.473  0.6122 -0.1956  0.0993
 7206SOL    HW223039   1.153   1.078   1.532 -0.3144  0.8267 -0.8282
 7207SOL     OW23040   0.577   0.753   6.449 -0.3468  0.0160 -0.2962
 7207SOL    HW123041   0.621   0.764   6.533 -2.0483 -0.7725  0.7237
 7207SOL    HW223042   0.547   0.841   6.426  0.4849  0.3079 -0.3053
 7208SOL     OW23043   7.841   1.895   1.943  0.6007 -0.5858 -0.3045
 7208SOL    HW123044   7.805   1.964   1.886 -1.7077 -0.4686  1.1568
 7208SOL    HW223045   7.837   1.816   1.889 -0.0160 -0.1794 -0.8793
 7209SOL     OW23046   7.313   2.089   6.867  0.5934  0.1322 -0.0219
 7209SOL    HW123047   7.323   2.058   6.777 -1.1151 -0.7945  0.0635
 7209SOL    HW223048   7.398   2.073   6.908  0.8056 -1.2318 -0.9514
 7210SOL     OW23049   5.461   5.804   0.148  0.5671 -0.2896 -0.2115
 7210SOL    HW123050   5.397   5.841   0.209 -0.2952 -0.7739 -0.7991
 7210SOL    HW223051   5.444   5.849   0.066  3.2415  2.0516  0.3745
 7211SOL     OW23052   7.198   5.043   2.628 -0.1417 -0.3473  0.3392
 7211SOL    HW123053   7.260   5.091   2.573  0.3689 -1.3745 -0.0141
 7211SOL    HW223054   7.136   5.005   2.567 -1.5142  1.1483  0.7345
 7212SOL     OW23055   0.558   3.978   0.511  0.0155 -0.3668  0.6190
 7212SOL    HW123056   0.478   4.031   0.503 -0.2749 -1.0803 -3.8556
 7212SOL    HW223057   0.526   3.891   0.536 -0.6871 -0.5870 -0.9115
 7213SOL     OW23058   2.744   6.185   7.652 -0.1190 -0.1764 -0.3843
 7213SOL    HW123059   2.665   6.171   7.599 -1.6654 -1.5184  2.0881
 7213SOL    HW223060   2.758   6.280   7.649 -1.8602  0.1019 -0.8725
 7214SOL     OW23061   6.810   6.676   5.115 -0.0191 -0.0663 -0.4755
 7214SOL    HW123062   6.848   6.644   5.033  0.1537 -0.6689 -0.1658
 7214SOL    HW223063   6.756   6.750   5.089 -1.8349 -1.6515 -1.4831
 7215SOL     OW23064   4.522   2.292   1.014 -0.0234  0.1370 -0.6075
 7215SOL    HW123065   4.589   2.224   1.001  2.8814  2.3560  1.4830
 7215SOL    HW223066   4.449   2.246   1.055  1.4976 -1.8666  0.0257
 7216SOL     OW23067   3.714   0.935   5.461  0.2631  0.5964  0.3820
 7216SOL    HW123068   3.780   1.003   5.468  0.6325  0.3135 -0.2171
 7216SOL    HW223069   3.674   0.930   5.548  0.0800  1.7192  0.3677
 7217SOL     OW23070   5.519   3.542   1.828 -0.3390 -0.3966 -0.4795
 7217SOL    HW123071   5.445   3.484   1.844 -0.8124  0.3026 -0.0978
 7217SOL    HW223072   5.481   3.629   1.825 -0.2640 -0.3180 -5.0002
 7218SOL     OW23073   5.606   6.138   0.749 -0.2140 -0.2279 -0.0251
 7218SOL    HW123074   5.629   6.174   0.835  0.1973  0.5146 -0.4389
 7218SOL    HW223075   5.626   6.044   0.757  1.5709  0.1199  0.1229
 7219SOL     OW23076   5.662   1.061   4.055  0.2166 -0.3117  0.2833
 7219SOL    HW123077   5.605   1.023   4.122  0.4188  1.1734  1.3554
 7219SOL    HW223078   5.624   1.147   4.037  0.2569 -0.6176 -1.4347
 7220SOL     OW23079   6.132   5.119   7.289  0.9395 -0.0390 -0.1679
 7220SOL    HW123080   6.086   5.203   7.292 -1.0540 -1.0168 -0.9568
 7220SOL    HW223081   6.203   5.128   7.352 -0.4948  1.5032  1.3472
 7221SOL     OW23082   3.840   2.212   7.055  0.1487  0.1683  0.6321
 7221SOL    HW123083   3.838   2.173   7.142  1.7805 -0.3952  0.4499
 7221SOL    HW223084   3.774   2.163   7.006  0.5046 -0.7696  1.0618
 7222SOL     OW23085   1.904   4.689   0.840  0.3711 -0.0642  0.1752
 7222SOL    HW123086   1.835   4.739   0.884  0.3604  0.6053 -0.5805
 7222SOL    HW223087   1.984   4.738   0.857  0.8208 -1.2242  1.6659
 7223SOL     OW23088   4.521   6.970   6.754 -0.1741  0.8752  0.2534
 7223SOL    HW123089   4.471   7.039   6.710 -0.3042  0.3466 -0.4495
 7223SOL    HW223090   4.611   6.982   6.722  0.0176  1.3816  0.9643
 7224SOL     OW23091   6.598   3.700   2.771  0.1882 -0.3198 -0.4425
 7224SOL    HW123092   6.686   3.686   2.737  0.1243 -2.1062  0.0178
 7224SOL    HW223093   6.542   3.707   2.694  0.7596  1.3160 -0.7490
 7225SOL     OW23094   8.189   4.764   1.195  0.3766  0.2615  0.3389
 7225SOL    HW123095   8.094   4.748   1.190  0.3391  0.6061 -0.1250
 7225SOL    HW223096   8.223   4.689   1.244 -0.1154  0.0422  0.3533
 7226SOL     OW23097   1.310   2.603   4.443 -0.6722 -0.5849  0.4757
 7226SOL    HW123098   1.218   2.623   4.430 -0.3745  0.2706 -0.4469
 7226SOL    HW223099   1.346   2.681   4.485  0.3127  0.5632 -2.3139
 7227SOL     OW23100   3.425   6.660   3.267 -0.1999 -0.0742  0.4611
 7227SOL    HW123101   3.466   6.730   3.319 -1.5201  0.7186  0.4941
 7227SOL    HW223102   3.332   6.666   3.290 -0.5300 -0.9261 -0.6102
 7228SOL     OW23103   8.243   3.913   7.916 -0.0239  0.0364  0.4381
 7228SOL    HW123104   8.334   3.894   7.938  0.8317  0.1026 -2.5328
 7228SOL    HW223105   8.240   4.008   7.905 -0.1238 -0.0594 -0.5175
 7229SOL     OW23106   5.076   2.063   4.401  0.4568  0.4516  0.4669
 7229SOL    HW123107   5.041   2.104   4.481  0.9035 -1.8705  1.9333
 7229SOL    HW223108   5.056   2.126   4.332 -0.6522  2.2092  2.2681
 7230SOL     OW23109   7.893   2.505   1.082 -0.0977  0.0184 -0.1900
 7230SOL    HW123110   7.869   2.465   0.999 -0.0796  0.8673 -0.6144
 7230SOL    HW223111   7.972   2.556   1.062  0.2266 -0.2132  0.4732
 7231SOL     OW23112   3.416   3.220   3.509 -0.4394 -0.2098  0.1404
 7231SOL    HW123113   3.386   3.310   3.520  0.7740  0.2348 -0.0424
 7231SOL    HW223114   3.420   3.208   3.414 -1.2099 -0.6813  0.1596
 7232SOL     OW23115   6.016   0.200   2.118 -0.5400  0.5787  0.0614
 7232SOL    HW123116   5.985   0.240   2.200  1.6735  1.0206  0.7503
 7232SOL    HW223117   6.018   0.106   2.137 -0.0567  0.6768  0.5281
 7233SOL     OW23118   3.294   7.438   8.069  0.1103 -0.3394  0.7141
 7233SOL    HW123119   3.320   7.348   8.047 -2.9515 -1.1753  0.1502
 7233SOL    HW223120   3.260   7.474   7.987 -1.2683  0.3497  1.5526
 7234SOL     OW23121   3.327   0.855   3.101  0.6198  0.2097 -0.2514
 7234SOL    HW123122   3.391   0.905   3.154  2.7690 -1.6795 -0.9062
 7234SOL    HW223123   3.242   0.893   3.125  1.8798  2.3763  1.2255
 7235SOL     OW23124   3.021   4.370   5.815 -0.3563 -0.2837 -0.2033
 7235SOL    HW123125   3.069   4.427   5.875  0.8081 -2.6452  1.2303
 7235SOL    HW223126   2.967   4.315   5.872 -1.1344 -0.9174 -1.5072
 7236SOL     OW23127   7.436   7.996   5.334  0.2904  0.0230  0.3011
 7236SOL    HW123128   7.445   7.915   5.283 -0.4606  0.5531 -0.7142
 7236SOL    HW223129   7.516   8.046   5.314 -0.4406  0.6604 -1.2033
 7237SOL     OW23130   4.658   6.123   0.715  0.5460  0.1877  0.2722
 7237SOL    HW123131   4.686   6.212   0.737 -0.3452  0.2408  1.2415
 7237SOL    HW223132   4.574   6.135   0.671  0.7984 -0.1322 -0.3012
 7238SOL     OW23133   2.256   3.860   6.245 -0.0917 -0.3653  0.0957
 7238SOL    HW123134   2.316   3.787   6.234  0.4485  0.4086 -2.9145
 7238SOL    HW223135   2.284   3.925   6.180 -2.2576  1.3478  0.7415
 7239SOL     OW23136   3.218   5.029   4.639 -0.3579 -0.7881 -0.1825
 7239SOL    HW123137   3.251   5.118   4.651  0.4190 -0.7006 -2.4089
 7239SOL    HW223138   3.134   5.027   4.684  0.2480  0.6417  1.0674
 7240SOL     OW23139   4.530   0.423   6.118 -0.1505  0.1271  0.4359
 7240SOL    HW123140   4.477   0.461   6.188 -0.7196 -0.3024  0.2472
 7240SOL    HW223141   4.482   0.445   6.038  0.4214  0.4900  0.1892
 7241SOL     OW23142   3.816   7.674   0.207 -0.2961 -0.1144  0.2722
 7241SOL    HW123143   3.734   7.648   0.249 -0.2985 -1.2806 -0.4033
 7241SOL    HW223144   3.790   7.742   0.145 -0.5210  0.5378  1.0621
 7242SOL     OW23145   4.621   6.047   8.024 -0.4238  0.2405  0.0220
 7242SOL    HW123146   4.631   6.119   7.962  1.1417 -0.1009 -0.1519
 7242SOL    HW223147   4.705   6.001   8.022 -0.7130 -0.4216  1.5885
 7243SOL     OW23148   7.768   8.322   7.088  0.6104  0.3984 -0.0620
 7243SOL    HW123149   7.810   8.369   7.016  0.3149 -0.3200 -0.7144
 7243SOL    HW223150   7.761   8.232   7.057 -1.8225  0.5592 -0.2132
 7244SOL     OW23151   0.952   3.414   2.070 -0.2553  0.0245 -0.0863
 7244SOL    HW123152   1.010   3.433   2.144 -0.9568  0.5210  0.3536
 7244SOL    HW223153   0.867   3.448   2.097 -0.6397 -0.2321 -0.9286
 7245SOL     OW23154   3.581   3.008   7.644 -0.2640 -0.2115  0.5975
 7245SOL    HW123155   3.569   3.102   7.631  0.5782 -0.2472 -0.5766
 7245SOL    HW223156   3.547   2.992   7.732 -3.3517  0.6134 -0.3239
 7246SOL     OW23157   1.675   7.176   1.719  0.2391  0.0884  0.6027
 7246SOL    HW123158   1.710   7.123   1.791  0.5491  0.1435  0.4926
 7246SOL    HW223159   1.676   7.266   1.753 -0.1924  0.0389  0.7527
 7247SOL     OW23160   7.603   5.089   1.495 -0.5038  0.5206 -0.0631
 7247SOL    HW123161   7.637   5.020   1.553 -1.7910 -1.4669 -1.5486
 7247SOL    HW223162   7.667   5.160   1.503  0.5909 -0.6040  1.9785
 7248SOL     OW23163   4.514   1.207   7.793  0.1468  0.0515  0.2489
 7248SOL    HW123164   4.443   1.205   7.729  1.0203 -0.3228 -0.7254
 7248SOL    HW223165   4.473   1.179   7.875 -0.6874 -0.8481 -0.4495
 7249SOL     OW23166   4.743   6.504   8.186 -0.7196  0.2788  0.1744
 7249SOL    HW123167   4.664   6.547   8.154 -0.7716 -0.2585 -0.4411
 7249SOL    HW223168   4.772   6.450   8.113 -1.0389 -1.2758  1.1463
 7250SOL     OW23169   2.923   5.346   4.875 -0.1005  0.1606 -0.3406
 7250SOL    HW123170   2.978   5.401   4.929 -0.7779 -0.7829  1.4037
 7250SOL    HW223171   2.939   5.257   4.907 -0.5188 -0.4293 -1.7042
 7251SOL     OW23172   0.197   0.528   5.110 -0.0488 -0.1043 -0.6098
 7251SOL    HW123173   0.194   0.584   5.033 -0.4577  1.5525  0.5576
 7251SOL    HW223174   0.111   0.485   5.112  0.7663 -1.9855 -2.2979
 7252SOL     OW23175   2.158   2.559   0.214 -0.3519  0.3439  0.1850
 7252SOL    HW123176   2.100   2.508   0.157 -0.2802 -0.1928  0.5823
 7252SOL    HW223177   2.155   2.647   0.178 -1.1320  0.2424 -0.0218
 7253SOL     OW23178   6.544   7.708   4.120  0.4080  0.4078 -0.0620
 7253SOL    HW123179   6.620   7.654   4.097  0.5301  0.6472 -0.2346
 7253SOL    HW223180   6.582   7.788   4.157  0.2017 -0.5815  2.4624
 7254SOL     OW23181   1.254   2.964   1.658 -0.1241 -0.1514  0.4195
 7254SOL    HW123182   1.336   2.924   1.687 -0.4192 -0.0593  1.4176
 7254SOL    HW223183   1.275   3.004   1.573  0.6720 -0.7392  0.3346
 7255SOL     OW23184   4.925   7.269   5.548  0.2562 -0.0523  0.1089
 7255SOL    HW123185   4.897   7.234   5.632  2.5867 -1.2454  0.4629
 7255SOL    HW223186   4.961   7.193   5.501  0.5908  0.9121 -1.2562
 7256SOL     OW23187   1.604   0.018   1.679  0.3469 -0.2856  0.0905
 7256SOL    HW123188   1.542  -0.043   1.719  1.5997 -0.5737  1.6941
 7256SOL    HW223189   1.665  -0.037   1.631 -0.5005 -0.0085 -1.3887
 7257SOL     OW23190   7.322   3.489   2.581 -0.2695 -0.2257  0.5696
 7257SOL    HW123191   7.350   3.399   2.596  0.4631  0.0690  0.9883
 7257SOL    HW223192   7.403   3.537   2.564 -0.6414  0.3833  0.4905
 7258SOL     OW23193   3.300   5.288   6.372 -0.2359  0.3582 -0.6651
 7258SOL    HW123194   3.270   5.210   6.325  0.9542 -2.1589  2.3318
 7258SOL    HW223195   3.220   5.328   6.404 -0.8498 -1.2133 -0.1009
 7259SOL     OW23196   5.485   5.937   6.101  0.9302  0.5869  0.4778
 7259SOL    HW123197   5.454   6.011   6.153  2.7500 -0.2017  2.8426
 7259SOL    HW223198   5.527   5.976   6.024 -0.0330  1.8615  0.5745
 7260SOL     OW23199   7.055   6.427   5.752  0.3016 -0.1537  0.1238
 7260SOL    HW123200   7.114   6.489   5.794 -0.5359  0.0336  1.0660
 7260SOL    HW223201   7.083   6.341   5.784  1.4229 -0.2799 -1.1346
 7261SOL     OW23202   3.184   6.341   2.554  0.3541  0.0324  0.4266
 7261SOL    HW123203   3.184   6.336   2.649 -0.1619 -2.1035  0.3635
 7261SOL    HW223204   3.116   6.280   2.526  0.2968  0.8322 -1.3078
 7262SOL     OW23205   8.002   6.479   7.621 -0.0312  0.1175  0.1683
 7262SOL    HW123206   7.954   6.431   7.689 -0.4759  0.3529  0.0246
 7262SOL    HW223207   7.934   6.504   7.558  0.1497  1.2212  0.4049
 7263SOL     OW23208   0.872   1.621   1.299 -0.1815  0.1493 -0.5904
 7263SOL    HW123209   0.908   1.635   1.211  2.3230 -0.0785  0.3196
 7263SOL    HW223210   0.847   1.529   1.300  0.4183 -0.0261 -0.8728
 7264SOL     OW23211   2.391   3.527   0.839  0.1551  0.1169 -0.5909
 7264SOL    HW123212   2.345   3.545   0.922  1.8008 -1.0554  0.6417
 7264SOL    HW223213   2.401   3.432   0.838  0.5499  0.1573 -1.9424
 7265SOL     OW23214   6.126   8.143   3.111  0.0154 -0.0580  0.0606
 7265SOL    HW123215   6.033   8.132   3.090  0.0778 -0.4598 -0.0063
 7265SOL    HW223216   6.164   8.184   3.033 -0.1907  0.5377  0.2623
 7266SOL     OW23217   4.498   4.666   1.010  0.9349 -0.0879  0.0805
 7266SOL    HW123218   4.460   4.624   1.087  1.8387 -0.1605  0.5008
 7266SOL    HW223219   4.462   4.754   1.010 -1.3694 -0.9418 -1.0740
 7267SOL     OW23220   6.857   8.023   1.940  0.0145  0.3231  0.2665
 7267SOL    HW123221   6.952   8.027   1.943  0.0265  1.6754 -0.7647
 7267SOL    HW223222   6.829   8.114   1.937 -1.3870 -0.0227  1.7239
 7268SOL     OW23223   4.111   8.153   1.139 -0.2121  0.0094 -0.4952
 7268SOL    HW123224   4.155   8.175   1.221  1.2612 -0.4041 -1.1392
 7268SOL    HW223225   4.071   8.068   1.154  0.5591 -0.3408 -0.3696
 7269SOL     OW23226   2.240   6.358   4.263 -0.5834 -0.0313 -0.0297
 7269SOL    HW123227   2.282   6.321   4.186  0.6498  0.3916  0.4208
 7269SOL    HW223228   2.243   6.453   4.249  1.0072  0.1410  1.1824
 7270SOL     OW23229   8.289   1.804   2.848 -0.1293 -0.3128  0.2169
 7270SOL    HW123230   8.372   1.814   2.803 -0.9275 -0.4975 -1.3583
 7270SOL    HW223231   8.293   1.867   2.920  1.2984 -0.2243  0.0855
 7271SOL     OW23232   0.424   1.610   5.484  0.0143  0.2763 -0.4548
 7271SOL    HW123233   0.483   1.536   5.501 -1.3131 -0.8032 -0.4289
 7271SOL    HW223234   0.459   1.650   5.405  1.2934  0.2051  0.0471
 7272SOL     OW23235   1.940   2.757   1.496 -0.5833 -0.2460  0.0509
 7272SOL    HW123236   1.875   2.688   1.505 -1.2145  0.0975 -1.5725
 7272SOL    HW223237   2.023   2.711   1.484 -0.7468 -0.6903  0.5900
 7273SOL     OW23238   7.268   5.680   6.444  0.3024  0.6027  0.8628
 7273SOL    HW123239   7.280   5.735   6.522  0.8496  0.7901  0.6502
 7273SOL    HW223240   7.325   5.719   6.378  1.3542 -0.6952  0.9553
 7274SOL     OW23241   6.098   6.320   6.977 -0.4464 -0.2338 -0.3252
 7274SOL    HW123242   6.170   6.383   6.975  0.7156 -1.2469  3.3588
 7274SOL    HW223243   6.061   6.324   6.888  1.0117  3.8600 -0.9750
 7275SOL     OW23244   6.671   2.281   2.744  0.1236  0.2444 -0.2949
 7275SOL    HW123245   6.614   2.358   2.752  0.8433  0.9503 -1.5642
 7275SOL    HW223246   6.621   2.210   2.783 -1.0170  1.1394 -0.0639
 7276SOL     OW23247   1.623   1.448   4.203 -0.1246  0.0120  0.5479
 7276SOL    HW123248   1.603   1.523   4.259 -0.3904 -0.5038  1.1535
 7276SOL    HW223249   1.627   1.485   4.115  0.1528  0.8125  0.8797
 7277SOL     OW23250   0.220   0.180   2.684  0.5122 -0.0374  0.2784
 7277SOL    HW123251   0.268   0.213   2.760  0.9992 -0.2287  0.0584
 7277SOL    HW223252   0.272   0.208   2.609 -0.5254  1.0814 -0.0506
 7278SOL     OW23253   6.013   0.690   4.425 -0.4356 -0.2028  0.3194
 7278SOL    HW123254   6.026   0.785   4.426 -2.5286  0.2460 -2.4508
 7278SOL    HW223255   5.931   0.676   4.473 -0.5248 -0.5052  0.0845
 7279SOL     OW23256   4.350   3.167   4.067 -0.2910 -0.4230 -0.2417
 7279SOL    HW123257   4.405   3.090   4.057 -0.0878 -0.4588  1.0498
 7279SOL    HW223258   4.282   3.141   4.129  0.0714  0.5576  0.6071
 7280SOL     OW23259   3.183   4.810   3.997 -0.2044  0.1868  0.3254
 7280SOL    HW123260   3.200   4.789   4.089  2.1541  0.7827  0.0925
 7280SOL    HW223261   3.231   4.892   3.982 -2.2770  1.2836 -0.9269
 7281SOL     OW23262   1.930   5.008   1.621  0.3010  0.2401 -0.3659
 7281SOL    HW123263   1.859   4.999   1.684  1.0298 -0.2937  0.4067
 7281SOL    HW223264   1.974   5.090   1.645  0.1765  0.3793 -0.6077
 7282SOL     OW23265   2.090   2.925   3.986 -0.7821 -0.2156  0.4647
 7282SOL    HW123266   2.089   3.014   3.950  0.8690  0.0492  0.9969
 7282SOL    HW223267   2.007   2.918   4.033  0.5781  2.5418  3.7944
 7283SOL     OW23268   3.512   6.191   7.410 -0.6487 -0.1884 -0.7659
 7283SOL    HW123269   3.509   6.183   7.315 -0.3103  1.5093 -0.9439
 7283SOL    HW223270   3.461   6.116   7.441  0.1020 -1.3708 -2.2256
 7284SOL     OW23271   7.029   2.072   7.787 -0.3318 -0.0492 -0.0974
 7284SOL    HW123272   7.026   1.984   7.751  0.4253 -0.6162  1.1320
 7284SOL    HW223273   7.093   2.118   7.733 -0.0673 -0.5256 -0.1956
 7285SOL     OW23274   4.675   3.020   0.025 -0.0596  0.0745  1.0840
 7285SOL    HW123275   4.763   3.054   0.008 -0.7756  1.5911  0.2615
 7285SOL    HW223276   4.685   2.925   0.017  1.3894  0.2474  0.4404
 7286SOL     OW23277   5.346   2.321   6.027 -0.2982  0.6233 -0.2210
 7286SOL    HW123278   5.265   2.312   6.078 -0.5026  1.7210 -0.3423
 7286SOL    HW223279   5.337   2.404   5.982 -0.2615 -0.4470 -2.3238
 7287SOL     OW23280   7.449   0.302   2.772  0.3806  0.3070  0.7586
 7287SOL    HW123281   7.432   0.302   2.866 -0.1304 -0.9282  0.6857
 7287SOL    HW223282   7.372   0.260   2.734  1.2387 -0.5368 -0.0824
 7288SOL     OW23283   1.919   7.438   4.316 -0.4561 -0.4518 -0.3818
 7288SOL    HW123284   1.893   7.346   4.329  1.1306 -0.9649 -0.5710
 7288SOL    HW223285   2.015   7.435   4.315 -0.2965  1.4650  1.5269
 7289SOL     OW23286   1.419   1.851   8.055  0.4509  0.2126  0.0524
 7289SOL    HW123287   1.467   1.825   8.133 -0.2561 -0.3390  0.3148
 7289SOL    HW223288   1.480   1.906   8.006  1.8045 -1.5534 -0.2906
 7290SOL     OW23289   3.281   4.517   3.933  0.8509 -0.2604  0.7280
 7290SOL    HW123290   3.307   4.475   4.015  1.1257  0.1321  0.8432
 7290SOL    HW223291   3.274   4.610   3.955 -2.1609 -0.4660  1.1175
 7291SOL     OW23292   4.253   7.062   2.574  0.0847  0.0413 -0.9860
 7291SOL    HW123293   4.203   6.996   2.622  0.1634  0.1660 -0.7356
 7291SOL    HW223294   4.188   7.102   2.515 -0.2549  0.6362 -0.2192
 7292SOL     OW23295   0.484   2.553   3.272  0.3969 -0.1588 -0.5882
 7292SOL    HW123296   0.453   2.567   3.361 -0.1165 -1.3781 -0.5640
 7292SOL    HW223297   0.534   2.633   3.252  0.8920 -0.0515  0.9328
 7293SOL     OW23298   4.680   0.608   7.212 -0.0719  0.7424  0.3998
 7293SOL    HW123299   4.725   0.545   7.268  0.3469 -0.7993 -1.5606
 7293SOL    HW223300   4.591   0.574   7.203 -0.4802  1.6014  1.0040
 7294SOL     OW23301   4.448   7.701   1.618  0.3342  0.7749 -0.3644
 7294SOL    HW123302   4.521   7.763   1.617 -0.3092  1.5740 -2.0878
 7294SOL    HW223303   4.460   7.649   1.538  0.7171 -1.1983  0.9121
 7295SOL     OW23304   1.369   2.927   3.499  0.3552  0.2586  0.0052
 7295SOL    HW123305   1.437   2.875   3.541  1.1501  1.1925 -0.1175
 7295SOL    HW223306   1.373   3.012   3.541  0.7131  1.0069 -1.4598
 7296SOL     OW23307   6.333   2.278   6.513 -0.2721  0.2637  0.7867
 7296SOL    HW123308   6.403   2.263   6.576  0.3411 -0.8816 -0.1331
 7296SOL    HW223309   6.271   2.208   6.529 -0.2060  0.0806  0.2514
 7297SOL     OW23310   7.771   2.523   4.611  0.8100 -0.7248 -0.1264
 7297SOL    HW123311   7.735   2.435   4.598 -1.4380  0.2283 -0.8053
 7297SOL    HW223312   7.695   2.578   4.627  2.2949  0.8516  2.1195
 7298SOL     OW23313   5.808   3.541   3.349  0.9076 -0.3669 -0.2207
 7298SOL    HW123314   5.874   3.610   3.353  2.1491 -1.5318 -0.0802
 7298SOL    HW223315   5.841   3.479   3.284 -0.2091 -0.8219 -0.3807
 7299SOL     OW23316   0.016   2.294   3.700 -0.0951  0.0172 -0.0317
 7299SOL    HW123317  -0.068   2.257   3.730 -0.6492 -0.0482 -1.5389
 7299SOL    HW223318  -0.004   2.331   3.614  1.4471 -0.0461 -0.4468
 7300SOL     OW23319   4.995   2.825   5.924  0.6178  0.1391 -0.0390
 7300SOL    HW123320   5.057   2.806   5.995 -0.5357 -1.0019  0.7093
 7300SOL    HW223321   4.921   2.767   5.941 -0.3684  0.9763 -1.3048
 7301SOL     OW23322   7.689   1.413   4.379 -0.0656  0.5028  0.5353
 7301SOL    HW123323   7.697   1.483   4.315  1.2223  0.0834  0.2068
 7301SOL    HW223324   7.660   1.337   4.327  2.0433 -0.1286  0.1962
 7302SOL     OW23325   6.845   2.264   4.383  0.7949 -0.1424 -0.3719
 7302SOL    HW123326   6.914   2.209   4.419  1.3831  1.1737  0.5752
 7302SOL    HW223327   6.871   2.353   4.404  0.4281  0.6247 -2.8292
 7303SOL     OW23328   5.339   1.758   2.837  0.6285  0.1702 -0.0244
 7303SOL    HW123329   5.359   1.786   2.926  0.7815  0.1415 -0.0493
 7303SOL    HW223330   5.419   1.714   2.807 -0.0121 -1.4287  0.4663
 7304SOL     OW23331   1.321   7.458   3.379  0.0135 -0.0268  0.1058
 7304SOL    HW123332   1.235   7.497   3.391 -0.4631 -1.0713  0.1815
 7304SOL    HW223333   1.353   7.441   3.468 -0.0117 -0.2791  0.0689
 7305SOL     OW23334   1.283   1.719   1.405 -0.0716 -0.2954 -0.1032
 7305SOL    HW123335   1.292   1.720   1.310  0.4264 -0.2691 -0.0542
 7305SOL    HW223336   1.251   1.807   1.427  1.0442  0.1252 -0.1255
 7306SOL     OW23337   3.062   7.724   6.078  0.2113 -0.1319 -0.0978
 7306SOL    HW123338   3.000   7.688   6.141 -0.1842 -2.3195 -1.6347
 7306SOL    HW223339   3.148   7.697   6.111 -0.0162 -1.6137 -0.6489
 7307SOL     OW23340   1.639   0.124   2.043  0.4457  0.3403  0.0440
 7307SOL    HW123341   1.701   0.054   2.024  0.2792  0.0928  0.3981
 7307SOL    HW223342   1.654   0.189   1.975 -0.1999 -0.5643 -1.0076
 7308SOL     OW23343   7.408   2.270   4.514  0.3461 -0.0032  0.2653
 7308SOL    HW123344   7.444   2.186   4.485  2.3655  0.7272  0.4619
 7308SOL    HW223345   7.435   2.277   4.606 -1.0611  0.2308  0.6778
 7309SOL     OW23346   5.075   1.191   6.661 -0.1129 -0.2741  0.3124
 7309SOL    HW123347   5.070   1.258   6.730 -0.4503  0.7055 -0.6205
 7309SOL    HW223348   5.152   1.139   6.682 -0.2156  0.0126  1.4204
 7310SOL     OW23349   4.209   4.096   6.873  0.0055  0.1216  0.3241
 7310SOL    HW123350   4.139   4.030   6.878  0.6951 -0.8004 -1.2361
 7310SOL    HW223351   4.246   4.099   6.961 -2.6037  1.3792  1.4718
 7311SOL     OW23352   7.858   3.402   5.863 -0.2946  0.1804 -0.0907
 7311SOL    HW123353   7.778   3.407   5.810 -1.6913 -0.3912  1.8247
 7311SOL    HW223354   7.881   3.494   5.880  1.0488  0.4299 -2.7959
 7312SOL     OW23355   2.794   1.001   4.772  0.3951  0.5670 -0.2238
 7312SOL    HW123356   2.768   1.077   4.719  0.2262  0.8489  0.2590
 7312SOL    HW223357   2.735   0.931   4.744 -0.8344  1.1658  0.7718
 7313SOL     OW23358   2.027   2.870   5.239 -0.0851 -0.1048  0.7719
 7313SOL    HW123359   2.037   2.945   5.181 -2.5586  0.0807  0.4786
 7313SOL    HW223360   2.007   2.797   5.180 -2.1634 -0.0085  1.2633
 7314SOL     OW23361   0.135   4.143   1.898 -0.1119  0.8779  0.2836
 7314SOL    HW123362   0.208   4.135   1.837  0.9304 -0.7957  1.6529
 7314SOL    HW223363   0.101   4.054   1.907 -1.3438  1.3778  0.8546
 7315SOL     OW23364   4.432   4.500   1.603  0.1157 -0.8002 -0.6098
 7315SOL    HW123365   4.436   4.447   1.524  0.0394  0.2510 -1.3411
 7315SOL    HW223366   4.394   4.443   1.669 -1.9957 -1.0117 -1.9230
 7316SOL     OW23367   2.400   5.189   4.488 -0.0581  0.0587  0.2506
 7316SOL    HW123368   2.367   5.123   4.549  0.9861  0.2974  1.1079
 7316SOL    HW223369   2.428   5.261   4.544  0.5596  0.4497 -0.5470
 7317SOL     OW23370   3.182   4.108   7.154  0.0535 -0.0045  0.2242
 7317SOL    HW123371   3.239   4.060   7.214 -1.5139 -0.4884  1.3919
 7317SOL    HW223372   3.226   4.193   7.142  0.8545 -0.2336  1.3257
 7318SOL     OW23373   2.860   4.021   2.370  0.1447 -0.2430 -0.1619
 7318SOL    HW123374   2.870   4.074   2.449 -1.9139 -0.1740  0.1282
 7318SOL    HW223375   2.878   4.081   2.298 -0.0104  0.2764  0.2272
 7319SOL     OW23376   8.171   4.055   6.116  0.4634  0.2676 -0.0337
 7319SOL    HW123377   8.181   4.078   6.023 -1.5049 -0.3595 -0.4503
 7319SOL    HW223378   8.189   4.136   6.163  3.1947  0.2077 -0.7950
 7320SOL     OW23379   1.634   4.670   1.484  0.7244 -0.1959  0.0009
 7320SOL    HW123380   1.574   4.612   1.437  0.3443 -0.0671  0.3206
 7320SOL    HW223381   1.590   4.689   1.566  2.0143 -1.5706  1.0577
 7321SOL     OW23382   7.621   1.606   2.509  0.0571  0.1895 -0.1543
 7321SOL    HW123383   7.612   1.536   2.573 -0.8086  1.6932  1.4740
 7321SOL    HW223384   7.538   1.604   2.460 -0.2008  0.4111  0.2670
 7322SOL     OW23385   0.678   4.023   4.764 -0.2207  0.4385 -0.5564
 7322SOL    HW123386   0.721   3.947   4.804 -0.6446  0.1979 -0.5556
 7322SOL    HW223387   0.623   4.059   4.833 -1.1183 -0.1014 -0.9708
 7323SOL     OW23388   1.782   5.199   7.040  0.0033  0.2214  0.7806
 7323SOL    HW123389   1.859   5.213   7.095  0.4223 -0.1783  0.2974
 7323SOL    HW223390   1.802   5.120   6.989 -0.6229  0.2538  0.4708
 7324SOL     OW23391   0.171   5.018   3.908 -0.1032 -0.0943 -0.5174
 7324SOL    HW123392   0.244   4.993   3.966  0.0211  3.5660  1.2195
 7324SOL    HW223393   0.211   5.024   3.821  1.9312  2.2488  0.4491
 7325SOL     OW23394   2.315   6.196   7.301  0.5284 -0.1365  0.2871
 7325SOL    HW123395   2.363   6.258   7.355  0.7248 -0.0059 -0.0389
 7325SOL    HW223396   2.284   6.247   7.226  0.9216 -0.4843 -0.1207
 7326SOL     OW23397   4.968   3.160   4.998  0.3293  0.3921 -0.3691
 7326SOL    HW123398   5.024   3.132   4.927  1.2865 -0.6249  0.7506
 7326SOL    HW223399   5.018   3.229   5.043  1.5112 -1.6397  1.6268
 7327SOL     OW23400   0.040   6.702   6.216  0.2182 -0.1890 -0.1055
 7327SOL    HW123401   0.067   6.682   6.306 -0.7634  1.2599  0.5553
 7327SOL    HW223402  -0.051   6.674   6.211 -0.5769  2.0763  0.2500
 7328SOL     OW23403   0.438   3.952   3.745  0.5222  0.3715 -0.5347
 7328SOL    HW123404   0.415   3.862   3.722 -0.7149  0.5154  0.0216
 7328SOL    HW223405   0.354   3.993   3.764  1.2294  0.3980  3.6590
 7329SOL     OW23406   7.401   6.051   8.252  0.3039  0.4628 -0.8271
 7329SOL    HW123407   7.326   6.031   8.308 -1.2506 -0.1087 -2.9712
 7329SOL    HW223408   7.436   6.133   8.286 -1.1493  0.6175  0.3811
 7330SOL     OW23409   5.789   4.509   2.888 -0.2322 -0.4262 -0.2707
 7330SOL    HW123410   5.727   4.454   2.841  0.3386  0.2133 -1.8161
 7330SOL    HW223411   5.794   4.589   2.836  0.9212  0.0433  0.5280
 7331SOL     OW23412   5.211   3.486   3.144 -0.6360 -0.0561  0.2185
 7331SOL    HW123413   5.207   3.555   3.078 -2.5370 -0.6479 -0.3447
 7331SOL    HW223414   5.214   3.533   3.227  1.2926  0.6943 -0.2096
 7332SOL     OW23415   3.477   4.462   3.279 -0.4150 -0.0199  0.4334
 7332SOL    HW123416   3.400   4.405   3.284 -0.3160 -0.0870  1.3787
 7332SOL    HW223417   3.485   4.484   3.186 -0.6272 -1.3050  0.0993
 7333SOL     OW23418   7.887   3.671   5.844 -0.2427 -0.3913  0.0077
 7333SOL    HW123419   7.950   3.743   5.847  1.3905 -1.6516 -1.8433
 7333SOL    HW223420   7.831   3.691   5.768  0.5271 -1.2732 -0.8146
 7334SOL     OW23421   2.000   3.047   0.135 -0.0886 -0.8694  0.2128
 7334SOL    HW123422   1.988   3.118   0.198  2.5062 -0.8291  0.7546
 7334SOL    HW223423   2.078   3.071   0.086  0.7553 -3.2371  0.2566
 7335SOL     OW23424   4.278   6.868   5.838  0.3736 -0.2281  0.0875
 7335SOL    HW123425   4.300   6.953   5.877  0.6114  0.3314 -1.2037
 7335SOL    HW223426   4.346   6.854   5.771 -0.0066 -1.1495 -0.1228
 7336SOL     OW23427   0.021   3.240   4.825 -0.1163 -0.8658  0.3680
 7336SOL    HW123428   0.010   3.311   4.888  0.5771  0.0580 -0.5051
 7336SOL    HW223429   0.001   3.160   4.874  0.0887 -0.1501  1.6555
 7337SOL     OW23430   2.469   3.606   1.250 -0.0201  0.0471 -0.2293
 7337SOL    HW123431   2.542   3.663   1.274  1.2683 -1.3233 -0.7441
 7337SOL    HW223432   2.401   3.665   1.219  0.6860  1.3949  0.7139
 7338SOL     OW23433   3.703   4.556   2.550  0.3000 -0.2139  0.0311
 7338SOL    HW123434   3.743   4.631   2.594 -1.7198  1.1012 -0.2960
 7338SOL    HW223435   3.768   4.530   2.485  1.5514  0.4467  0.9629
 7339SOL     OW23436   7.112   2.257   7.501  0.0787  0.3708 -0.4227
 7339SOL    HW123437   7.144   2.329   7.447  0.0750  1.0467  0.4502
 7339SOL    HW223438   7.183   2.241   7.563  0.1127 -0.4460 -0.6582
 7340SOL     OW23439   4.301   4.600   1.329  0.2427 -0.1427  0.7587
 7340SOL    HW123440   4.386   4.560   1.347  0.3722  0.1867  0.8757
 7340SOL    HW223441   4.239   4.527   1.335  0.3486 -0.1640  1.9713
 7341SOL     OW23442   0.243   4.417   2.545  0.2489 -0.4136 -0.6840
 7341SOL    HW123443   0.293   4.474   2.603  1.2748 -0.9240 -1.0367
 7341SOL    HW223444   0.159   4.461   2.534 -0.1234 -0.4835  1.4569
 7342SOL     OW23445   7.127   2.611   6.411  0.2047  0.0781  0.3844
 7342SOL    HW123446   7.075   2.666   6.354 -0.5265  1.3184  2.1635
 7342SOL    HW223447   7.217   2.641   6.398  0.2016 -0.4103 -0.8877
 7343SOL     OW23448   8.327   4.532   7.326  0.3916  0.0908  0.1488
 7343SOL    HW123449   8.389   4.459   7.322  1.0044  0.4098  2.5286
 7343SOL    HW223450   8.271   4.520   7.249  1.1812 -2.2394 -0.1354
 7344SOL     OW23451   3.499   0.327   1.381 -0.0453 -0.0050  0.3244
 7344SOL    HW123452   3.538   0.402   1.426 -0.1278  0.2723 -0.0628
 7344SOL    HW223453   3.565   0.258   1.390  0.3572  0.3325  0.0449
 7345SOL     OW23454   7.902   1.039   4.975 -0.1255 -0.2080 -0.5395
 7345SOL    HW123455   7.944   1.023   4.890  0.6603 -1.6571  0.0727
 7345SOL    HW223456   7.908   1.133   4.988  1.9623 -0.2214 -1.0229
 7346SOL     OW23457   6.813   6.321   1.084 -0.8935  0.0674 -0.0417
 7346SOL    HW123458   6.903   6.352   1.096  0.1223 -1.5887 -2.5061
 7346SOL    HW223459   6.805   6.246   1.143 -0.2586 -0.4133 -0.5448
 7347SOL     OW23460   6.617   2.997   5.274 -0.0565 -0.1577  0.4809
 7347SOL    HW123461   6.704   3.012   5.239 -0.1556  1.0813  0.7056
 7347SOL    HW223462   6.597   3.077   5.323 -1.5825 -0.1442 -0.1208
 7348SOL     OW23463   7.262   0.302   2.046 -0.4463  0.3105 -0.2040
 7348SOL    HW123464   7.339   0.268   2.092  0.8242  2.2518 -0.7909
 7348SOL    HW223465   7.193   0.238   2.064  1.3152 -1.5391  0.2711
 7349SOL     OW23466   1.427   0.073   4.645  0.1725 -0.3337 -0.2697
 7349SOL    HW123467   1.446   0.134   4.574 -0.8372 -0.8643 -1.0307
 7349SOL    HW223468   1.480   0.103   4.718  0.9867  0.4279 -1.1495
 7350SOL     OW23469   7.808   3.793   4.870  0.2084 -0.8373 -0.3100
 7350SOL    HW123470   7.811   3.888   4.878  0.8910 -0.8324 -0.5637
 7350SOL    HW223471   7.863   3.761   4.942 -0.4878 -1.0597  0.1270
 7351SOL     OW23472   3.631   2.167   4.151 -0.2518 -0.3039  0.1704
 7351SOL    HW123473   3.650   2.172   4.058  0.4982 -2.2372  0.1845
 7351SOL    HW223474   3.557   2.106   4.158 -0.6244  0.2035  0.8064
 7352SOL     OW23475   2.677   6.372   8.331  0.4272 -0.1501 -0.0454
 7352SOL    HW123476   2.692   6.315   8.256  0.0471 -0.8616  0.4124
 7352SOL    HW223477   2.621   6.321   8.390 -0.3900  0.8924  0.1251
 7353SOL     OW23478   5.504   4.552   4.578  0.3592 -0.1699 -0.0549
 7353SOL    HW123479   5.569   4.571   4.510 -1.0984  1.0515 -1.1820
 7353SOL    HW223480   5.440   4.622   4.569 -1.1409 -1.3608  0.9841
 7354SOL     OW23481   2.229   3.982   7.606 -0.1969  0.0969 -0.0675
 7354SOL    HW123482   2.153   4.008   7.555 -0.1389 -0.5637 -0.5029
 7354SOL    HW223483   2.225   4.035   7.685  0.1858  1.7772 -1.1393
 7355SOL     OW23484   6.532   3.890   5.662 -0.2844 -0.4450 -0.6218
 7355SOL    HW123485   6.439   3.888   5.686  0.0685  0.2589  0.9173
 7355SOL    HW223486   6.533   3.869   5.569 -1.9604 -0.7808 -0.5978
 7356SOL     OW23487   8.123   0.426   0.192 -0.4353 -0.5822 -0.6112
 7356SOL    HW123488   8.036   0.437   0.154 -1.0261  0.5925  0.9508
 7356SOL    HW223489   8.128   0.495   0.259  0.2861 -2.8384  1.8263
 7357SOL     OW23490   5.678   3.532   1.018  0.4880  0.3475 -0.4843
 7357SOL    HW123491   5.608   3.494   1.071  1.2653 -2.8019 -1.4987
 7357SOL    HW223492   5.633   3.579   0.948 -0.5943 -0.3796 -0.2902
 7358SOL     OW23493   5.229   1.745   6.009 -0.3110 -0.0038  0.3697
 7358SOL    HW123494   5.158   1.690   6.044  0.6879  0.7084  3.8205
 7358SOL    HW223495   5.184   1.821   5.972 -1.4431  0.0225  1.6994
 7359SOL     OW23496   1.628   6.461   7.053  0.0515 -0.0303 -0.4002
 7359SOL    HW123497   1.622   6.524   7.126 -1.3175 -0.7868  0.1861
 7359SOL    HW223498   1.721   6.458   7.032  0.4353  0.5402  1.0419
 7360SOL     OW23499   7.416   5.065   7.300  0.2470 -0.1381 -0.4133
 7360SOL    HW123500   7.406   5.143   7.245 -0.3082 -0.7348 -1.2014
 7360SOL    HW223501   7.382   5.091   7.385 -0.2464  0.3882 -0.7579
 7361SOL     OW23502   3.628   1.483   7.252  0.4160  0.2554 -0.6985
 7361SOL    HW123503   3.716   1.518   7.263  0.4107  0.9725 -2.5112
 7361SOL    HW223504   3.572   1.541   7.304  0.9345  0.1274  0.0128
 7362SOL     OW23505   3.481   2.029   0.703  0.2483 -0.3070 -0.0868
 7362SOL    HW123506   3.443   1.990   0.624  1.8829 -1.6553 -0.2889
 7362SOL    HW223507   3.433   2.110   0.716 -1.6310 -1.1890 -1.1221
 7363SOL     OW23508   1.413   3.641   2.793  0.4272  0.0340  0.3548
 7363SOL    HW123509   1.437   3.703   2.862  0.7538  0.7096 -0.3577
 7363SOL    HW223510   1.493   3.629   2.742 -0.2007  0.7294 -0.8278
 7364SOL     OW23511   0.603   7.919   6.855 -0.2050  0.1190  0.2457
 7364SOL    HW123512   0.622   7.944   6.765  0.3317  0.6790  0.5015
 7364SOL    HW223513   0.615   8.000   6.905  1.0935 -0.5296  1.0456
 7365SOL     OW23514   6.572   0.985   1.454  0.0202 -0.6554 -0.1265
 7365SOL    HW123515   6.542   1.064   1.409  1.1445  0.2289  0.6367
 7365SOL    HW223516   6.652   0.960   1.408 -0.3786 -1.4162 -0.4217
 7366SOL     OW23517   1.928   6.939   1.679  0.4560 -0.3335 -0.3197
 7366SOL    HW123518   1.950   7.032   1.689  0.0332 -0.2023 -0.5788
 7366SOL    HW223519   1.945   6.901   1.766 -1.9906  0.5362  0.6058
 7367SOL     OW23520   3.957   1.117   5.513 -0.4815 -0.6074  0.6206
 7367SOL    HW123521   3.942   1.179   5.584 -0.2426 -1.1326  1.1370
 7367SOL    HW223522   4.043   1.079   5.531 -0.2718 -0.4970 -0.1379
 7368SOL     OW23523   2.762   7.852   1.674 -0.3559  0.8168 -0.2433
 7368SOL    HW123524   2.731   7.788   1.738  0.9617 -1.0381 -1.3694
 7368SOL    HW223525   2.829   7.902   1.721  1.6271 -1.4561 -0.4488
 7369SOL     OW23526   5.143   3.221   3.026 -0.1654  0.9848 -0.4758
 7369SOL    HW123527   5.173   3.299   3.075 -1.6242  0.7285  0.9039
 7369SOL    HW223528   5.164   3.241   2.935  1.6067  1.9884  0.0908
 7370SOL     OW23529   6.083   1.996   1.523  0.0593  0.0963  0.4408
 7370SOL    HW123530   6.170   1.963   1.547 -0.2503 -1.7192 -0.7147
 7370SOL    HW223531   6.061   2.057   1.593  2.0981  0.3178  0.9635
 7371SOL     OW23532   3.667   8.028   0.762 -0.1282 -0.3266 -0.3095
 7371SOL    HW123533   3.576   8.039   0.789 -1.0756 -0.7576 -2.9780
 7371SOL    HW223534   3.676   8.086   0.687  2.9868  2.5620  2.0433
 7372SOL     OW23535   2.821   1.288   5.755 -0.2400  0.0963 -0.4663
 7372SOL    HW123536   2.752   1.292   5.689 -1.4250 -0.8508  0.6552
 7372SOL    HW223537   2.798   1.356   5.819 -0.8085 -0.9562  0.4934
 7373SOL     OW23538   5.583   0.113   0.609  0.3141 -0.0867 -0.0029
 7373SOL    HW123539   5.633   0.052   0.663  1.5239  0.0486 -0.9109
 7373SOL    HW223540   5.602   0.086   0.519 -0.6560  0.4599 -0.3902
 7374SOL     OW23541   7.612   5.205   0.039  0.1484 -0.5381 -0.0670
 7374SOL    HW123542   7.639   5.141  -0.027  2.1337  0.1896 -0.0444
 7374SOL    HW223543   7.625   5.161   0.123  0.7364 -0.3852 -0.0754
 7375SOL     OW23544   4.255   6.003   0.741 -0.1255 -0.0198  0.5646
 7375SOL    HW123545   4.283   5.937   0.804  1.3352  0.2438  0.2248
 7375SOL    HW223546   4.244   6.083   0.793 -0.5797 -0.1965  0.7488
 7376SOL     OW23547   7.180   2.917   4.381  0.1529  0.4025  0.3448
 7376SOL    HW123548   7.174   2.985   4.448 -0.8419  0.0011  0.6778
 7376SOL    HW223549   7.092   2.882   4.374  0.9588 -1.9567  1.3304
 7377SOL     OW23550   5.589   4.088   4.645 -0.0967 -0.2406 -0.3171
 7377SOL    HW123551   5.511   4.120   4.599 -0.7186 -1.1306  0.0883
 7377SOL    HW223552   5.617   4.013   4.593 -0.2276 -0.6555  0.2036
 7378SOL     OW23553   7.563   0.102   3.407  0.0110  0.1249  0.2234
 7378SOL    HW123554   7.608   0.148   3.336 -1.9590 -0.7340 -1.6711
 7378SOL    HW223555   7.531   0.172   3.464  1.5826  0.8310  0.3053
 7379SOL     OW23556   6.110   5.161   0.203 -0.0320 -0.0165  0.4338
 7379SOL    HW123557   6.061   5.218   0.144 -0.1862  0.8229  1.3534
 7379SOL    HW223558   6.168   5.220   0.251  0.2857 -0.7183  0.9320
 7380SOL     OW23559   5.600   1.898   6.001  1.3208  0.0579 -0.0427
 7380SOL    HW123560   5.604   1.959   5.926  0.4446 -0.9875 -0.9742
 7380SOL    HW223561   5.662   1.935   6.064  3.9314 -0.2587 -2.2049
 7381SOL     OW23562   5.710   6.653   1.138  0.9257 -0.4425  0.5187
 7381SOL    HW123563   5.690   6.617   1.052 -0.2080 -1.1987  1.0741
 7381SOL    HW223564   5.641   6.717   1.155  2.0659  0.9189  0.1954
 7382SOL     OW23565   4.337   5.007   5.162 -0.6795 -0.3038 -0.0133
 7382SOL    HW123566   4.368   4.932   5.110  1.0347  0.4279 -0.1348
 7382SOL    HW223567   4.285   4.968   5.232 -0.4747 -1.5481 -0.5197
 7383SOL     OW23568   6.458   1.936   7.643  0.5261  0.2098  0.3900
 7383SOL    HW123569   6.381   1.903   7.690  0.3126 -0.0966 -0.1625
 7383SOL    HW223570   6.528   1.937   7.708  0.0028  0.6992  0.9565
 7384SOL     OW23571   4.499   6.021   0.951 -0.1975  0.2580 -0.4866
 7384SOL    HW123572   4.540   6.024   0.865 -0.0998  1.4672 -0.4199
 7384SOL    HW223573   4.488   6.113   0.975 -2.4369 -0.0075 -0.2637
 7385SOL     OW23574   2.206   0.093   0.637 -0.0227 -0.3137  0.1737
 7385SOL    HW123575   2.286   0.146   0.636  0.1488 -0.5682 -0.2620
 7385SOL    HW223576   2.190   0.075   0.730  0.8386 -0.8577  0.2367
 7386SOL     OW23577   2.926   6.397   6.922  0.1081  0.1354 -0.2110
 7386SOL    HW123578   2.947   6.319   6.870  1.6207  0.6278 -0.4098
 7386SOL    HW223579   2.899   6.462   6.858 -1.1268 -0.1873 -0.0476
 7387SOL     OW23580   8.331   3.485   7.983 -0.6406 -0.0256 -0.1225
 7387SOL    HW123581   8.325   3.398   8.024 -0.4659 -0.7362 -1.5246
 7387SOL    HW223582   8.240   3.513   7.972 -0.6819  0.3226  1.0217
 7388SOL     OW23583   5.902   0.804   3.431  0.4593  0.3753  0.2258
 7388SOL    HW123584   5.921   0.711   3.420 -0.7514  0.0608  0.6011
 7388SOL    HW223585   5.940   0.846   3.354  0.1212 -0.5709 -0.4670
 7389SOL     OW23586   4.758   1.815   8.244 -0.3094  0.7173 -0.2402
 7389SOL    HW123587   4.834   1.782   8.292  0.6140  0.1714 -2.0000
 7389SOL    HW223588   4.790   1.890   8.195 -1.0075  0.7464 -0.6724
 7390SOL     OW23589   0.927   2.751   1.937  0.3801  0.0164 -0.5288
 7390SOL    HW123590   0.896   2.716   2.021  0.3359  1.1174 -0.0629
 7390SOL    HW223591   1.017   2.779   1.955  0.6481 -0.4807 -1.0757
 7391SOL     OW23592   1.448   1.674   0.245 -0.0504  0.3487 -0.0291
 7391SOL    HW123593   1.385   1.617   0.288  1.2585 -0.3888  0.9625
 7391SOL    HW223594   1.503   1.616   0.192  1.6020  0.5649  1.3609
 7392SOL     OW23595   0.863   5.565   4.330 -0.2653 -0.6470 -0.3380
 7392SOL    HW123596   0.955   5.567   4.355 -0.8501 -0.3003  2.0688
 7392SOL    HW223597   0.838   5.657   4.325 -0.8300 -0.7331  0.6025
 7393SOL     OW23598   2.928   1.933   1.174 -0.4181 -0.0003  0.1386
 7393SOL    HW123599   2.867   1.988   1.124 -2.0992 -1.1820  0.7784
 7393SOL    HW223600   2.961   1.870   1.111 -1.0924 -0.3339  0.1144
 7394SOL     OW23601   6.631   4.196   7.304 -0.3157 -0.8875 -1.1855
 7394SOL    HW123602   6.587   4.165   7.383  0.7556 -0.0278 -0.2143
 7394SOL    HW223603   6.580   4.273   7.278  0.4634  0.0204 -0.1460
 7395SOL     OW23604   4.208   6.084   8.177  0.1007 -0.0104 -0.6761
 7395SOL    HW123605   4.130   6.037   8.207 -0.7258  2.2217  0.9953
 7395SOL    HW223606   4.174   6.166   8.142  1.5974  0.2092 -1.6675
 7396SOL     OW23607   0.893   4.072   8.279 -0.0888  0.2884 -0.4259
 7396SOL    HW123608   0.882   3.977   8.268  2.8422 -0.3743  1.4676
 7396SOL    HW223609   0.912   4.103   8.190  0.6509 -1.2041 -0.8363
 7397SOL     OW23610   7.772   5.470   6.977 -0.0529 -0.2527 -0.2857
 7397SOL    HW123611   7.707   5.437   6.915 -1.4704  2.1177 -0.2120
 7397SOL    HW223612   7.778   5.564   6.957  1.7850 -0.0106  1.1330
 7398SOL     OW23613   2.700   2.601   0.257  0.0655  0.1958  0.2517
 7398SOL    HW123614   2.701   2.627   0.350 -1.2735  2.0053 -0.1763
 7398SOL    HW223615   2.637   2.530   0.253  0.6803 -0.4003  0.8238
 7399SOL     OW23616   7.389   4.327   1.128  0.2466  0.3425 -0.1689
 7399SOL    HW123617   7.307   4.319   1.177 -0.9201 -1.0857 -2.2189
 7399SOL    HW223618   7.456   4.338   1.196 -1.2888 -1.3429  1.7636
 7400SOL     OW23619   5.393   2.437   6.333  0.2438 -0.4265  0.0721
 7400SOL    HW123620   5.447   2.478   6.401  0.0251  0.5666 -0.3328
 7400SOL    HW223621   5.303   2.453   6.362  0.1353 -1.9808  0.6907
 7401SOL     OW23622   3.974   7.127   0.842  0.3602 -0.1450 -0.7236
 7401SOL    HW123623   3.884   7.157   0.847  0.4667  0.0059  0.8428
 7401SOL    HW223624   4.027   7.207   0.848  0.6324 -0.1684 -2.2374
 7402SOL     OW23625   3.950   5.540   3.978 -0.7521 -0.0494  0.4998
 7402SOL    HW123626   4.045   5.550   3.985 -0.8671 -0.3446  3.5008
 7402SOL    HW223627   3.915   5.625   4.004 -1.3242 -0.2764  0.4903
 7403SOL     OW23628   0.555   1.198   4.109  0.1398 -0.5642 -0.6753
 7403SOL    HW123629   0.599   1.130   4.160 -0.9357 -0.2023  0.7652
 7403SOL    HW223630   0.485   1.229   4.165 -1.2777 -0.3452 -2.4934
 7404SOL     OW23631   3.723   0.212   6.959  0.5008  0.6125  0.4696
 7404SOL    HW123632   3.799   0.179   6.911 -0.0929 -0.8510  0.4960
 7404SOL    HW223633   3.699   0.292   6.913  1.7236  0.8211  0.1416
 7405SOL     OW23634   0.590   0.536   1.156  0.0757 -0.2554 -0.1699
 7405SOL    HW123635   0.648   0.496   1.222  0.7252  1.0349  0.0655
 7405SOL    HW223636   0.510   0.558   1.204 -0.4790 -1.6376 -0.4002
 7406SOL     OW23637   4.460   4.071   4.667 -0.2770  0.4069 -0.2388
 7406SOL    HW123638   4.502   3.998   4.712 -1.4925 -1.5221 -2.0352
 7406SOL    HW223639   4.455   4.043   4.575 -2.7546  1.7779 -0.6181
 7407SOL     OW23640   8.255   4.452   4.295  0.5117  0.0146 -0.0295
 7407SOL    HW123641   8.181   4.505   4.264 -2.1201 -2.0333  2.1905
 7407SOL    HW223642   8.313   4.514   4.339 -0.7457  1.4932 -0.3787
 7408SOL     OW23643   0.094   2.023   2.949  0.5169 -0.0824  0.2656
 7408SOL    HW123644   0.166   2.001   2.889  1.0156  0.7409  0.5546
 7408SOL    HW223645   0.068   2.111   2.924  0.1840 -0.0395  0.7443
 7409SOL     OW23646   1.799   7.583   1.345  0.2044  0.1032 -0.2478
 7409SOL    HW123647   1.887   7.579   1.382  1.4209  0.0058 -2.8962
 7409SOL    HW223648   1.804   7.529   1.266 -1.6968  1.6027 -1.4856
 7410SOL     OW23649   0.092   0.066   7.442 -0.8252  0.4525 -0.6969
 7410SOL    HW123650   0.002   0.078   7.412 -1.1080  0.6794  0.1942
 7410SOL    HW223651   0.121  -0.015   7.400 -0.4637  1.7925 -3.2031
 7411SOL     OW23652   6.316   3.579   8.300 -0.0757 -0.3054  0.6315
 7411SOL    HW123653   6.292   3.533   8.381  0.8241  0.0719  1.1276
 7411SOL    HW223654   6.232   3.605   8.262 -0.6873 -2.8473  0.0010
 7412SOL     OW23655   7.642   6.844   4.061 -0.0452 -0.3255  0.1830
 7412SOL    HW123656   7.709   6.871   3.999 -1.2123 -1.1331 -1.5096
 7412SOL    HW223657   7.562   6.836   4.008 -1.1339 -0.8753  1.8296
 7413SOL     OW23658   4.565   2.293   3.943 -0.6184  0.2030  0.0408
 7413SOL    HW123659   4.660   2.293   3.928 -0.5583  1.6948  0.1884
 7413SOL    HW223660   4.535   2.208   3.912  0.5896  0.2137 -1.2483
 7414SOL     OW23661   4.854   2.451   2.780 -0.0119  0.4905 -0.2105
 7414SOL    HW123662   4.801   2.432   2.703 -0.6841 -1.3825  0.6764
 7414SOL    HW223663   4.852   2.371   2.831  1.8800  1.1139  0.9232
 7415SOL     OW23664   6.595   4.858   4.000 -0.4757  0.3825 -0.4133
 7415SOL    HW123665   6.522   4.833   3.944 -0.7676  1.3470 -0.4904
 7415SOL    HW223666   6.605   4.953   3.986 -0.5980  0.6611  1.1964
 7416SOL     OW23667   1.852   1.558   6.995  0.5581 -0.0655  0.0933
 7416SOL    HW123668   1.881   1.646   6.969  0.3586 -0.3858 -1.3052
 7416SOL    HW223669   1.932   1.512   7.020  0.8229  0.1310 -0.3794
 7417SOL     OW23670   7.389   7.419   7.578  0.2842  0.5992 -0.2648
 7417SOL    HW123671   7.344   7.468   7.647 -1.1075 -1.1195  0.1499
 7417SOL    HW223672   7.481   7.422   7.602  0.1463  2.3081  0.1496
 7418SOL     OW23673   7.491   7.836   6.048  0.3298 -0.0673  0.5265
 7418SOL    HW123674   7.509   7.843   6.141  1.0833  0.4798  0.3522
 7418SOL    HW223675   7.425   7.903   6.031 -0.3820 -0.6912  0.7998
 7419SOL     OW23676   5.788   3.448   5.476  0.4122 -0.0009 -0.8249
 7419SOL    HW123677   5.755   3.358   5.474 -0.2947  0.1390  1.4942
 7419SOL    HW223678   5.857   3.447   5.542 -0.0582  1.2792 -0.2761
 7420SOL     OW23679   1.478   6.438   2.947  0.2556  0.0636 -0.2654
 7420SOL    HW123680   1.396   6.486   2.935  0.2545  0.1652  0.1433
 7420SOL    HW223681   1.509   6.464   3.033  1.2903  0.8785 -0.8674
 7421SOL     OW23682   5.222   6.724   0.226  0.1890  0.0447  0.7713
 7421SOL    HW123683   5.245   6.673   0.303  0.0220 -0.1498  0.6922
 7421SOL    HW223684   5.141   6.685   0.194  1.2190 -1.1063 -0.5850
 7422SOL     OW23685   7.335   3.795   5.104  0.4242  0.1090  0.0676
 7422SOL    HW123686   7.367   3.733   5.170 -0.5688 -1.2583 -0.6910
 7422SOL    HW223687   7.406   3.802   5.041 -0.2335 -1.9960 -0.9893
 7423SOL     OW23688   3.984   7.569   6.690 -0.1178  0.7022 -0.7273
 7423SOL    HW123689   3.911   7.630   6.689 -1.4211 -0.8023 -1.1723
 7423SOL    HW223690   3.972   7.518   6.770  0.9556  1.0000 -0.3552
 7424SOL     OW23691   3.603   0.039   6.348  0.0827  0.4196  0.6123
 7424SOL    HW123692   3.510   0.063   6.348  0.1745  0.8276 -0.2335
 7424SOL    HW223693   3.646   0.111   6.303  0.6251 -0.4177 -0.2516
 7425SOL     OW23694   3.101   2.306   3.003 -0.1566  0.1337  0.1261
 7425SOL    HW123695   3.140   2.243   3.064 -0.9984 -1.0080 -0.4577
 7425SOL    HW223696   3.013   2.322   3.038 -0.3246  0.1485 -0.2882
 7426SOL     OW23697   7.908   6.092   2.554 -0.0167  0.5688  0.0724
 7426SOL    HW123698   7.842   6.031   2.586  1.5411 -1.3392 -0.1627
 7426SOL    HW223699   7.920   6.068   2.461 -0.3232  2.1423 -0.3995
 7427SOL     OW23700   2.105   3.461   1.898  0.3403  0.1032  0.1855
 7427SOL    HW123701   2.200   3.461   1.887  0.5908  0.4753  1.9597
 7427SOL    HW223702   2.076   3.542   1.855  0.7011 -0.3934 -1.0409
 7428SOL     OW23703   5.302   7.176   0.085 -0.3573  0.3564  0.7081
 7428SOL    HW123704   5.339   7.141   0.166 -0.0801  2.0990  1.3937
 7428SOL    HW223705   5.208   7.179   0.101 -0.5656 -1.4809  0.0311
 7429SOL     OW23706   6.829   3.191   1.662 -0.1032  0.4714  0.1694
 7429SOL    HW123707   6.812   3.285   1.668  0.2305  0.4517  1.8159
 7429SOL    HW223708   6.916   3.185   1.624  0.6250  0.9144  1.6816
 7430SOL     OW23709   5.499   6.135   6.775 -0.1605 -0.2374 -0.2686
 7430SOL    HW123710   5.452   6.082   6.710 -0.3861  0.3708 -0.6025
 7430SOL    HW223711   5.591   6.123   6.752 -0.2277 -0.2188 -0.5542
 7431SOL     OW23712   5.491   5.129   3.293 -0.4917  0.5377  0.4455
 7431SOL    HW123713   5.539   5.161   3.217 -0.7625  1.4804  0.6510
 7431SOL    HW223714   5.466   5.040   3.271 -1.2100  1.0391 -0.8976
 7432SOL     OW23715   3.030   2.425   1.800 -0.2547  0.0987  0.2889
 7432SOL    HW123716   3.061   2.504   1.757 -3.1989  0.8895 -0.6084
 7432SOL    HW223717   3.041   2.356   1.734  1.5236 -0.1230  0.7721
 7433SOL     OW23718   0.978   4.081   7.407 -0.7026 -0.4296  0.1760
 7433SOL    HW123719   0.915   4.025   7.452 -1.4591 -1.7100 -2.2569
 7433SOL    HW223720   0.924   4.135   7.348  0.3602 -0.6487 -1.0441
 7434SOL     OW23721   3.194   4.034   2.653  0.4557 -0.3564 -0.3987
 7434SOL    HW123722   3.287   4.024   2.673  0.1738 -2.0093  0.2115
 7434SOL    HW223723   3.178   3.973   2.581 -0.5494 -1.6571  0.8619
 7435SOL     OW23724   0.875   2.542   5.975  0.1548 -0.0425 -0.8833
 7435SOL    HW123725   0.938   2.576   6.039  1.0598  1.6478 -2.5757
 7435SOL    HW223726   0.863   2.614   5.913 -2.4562 -0.8087 -1.3623
 7436SOL     OW23727   4.518   2.975   0.430 -0.9482  0.5634 -0.3593
 7436SOL    HW123728   4.495   3.022   0.509  1.3400 -0.3540  0.9616
 7436SOL    HW223729   4.487   2.886   0.444 -0.7334  0.4505 -0.5704
 7437SOL     OW23730   4.337   1.865   6.672 -0.2095  0.0146 -0.0632
 7437SOL    HW123731   4.314   1.932   6.736 -1.9465  0.2256 -0.8564
 7437SOL    HW223732   4.306   1.899   6.588 -1.5232 -1.8989 -0.4424
 7438SOL     OW23733   7.422   5.625   0.983  0.4669 -0.0567 -0.0722
 7438SOL    HW123734   7.455   5.690   1.045  0.8489  0.1723 -0.5055
 7438SOL    HW223735   7.336   5.658   0.956 -0.0020 -0.5022  0.8365
 7439SOL     OW23736   2.553   7.686   1.259  0.0701  0.4368 -0.1203
 7439SOL    HW123737   2.497   7.608   1.264 -0.2261  0.6669  0.2216
 7439SOL    HW223738   2.585   7.698   1.349  0.8143  0.2076 -0.3440
 7440SOL     OW23739   4.077   7.299   5.287  0.2842 -0.5670 -0.1476
 7440SOL    HW123740   4.039   7.233   5.229  0.8834 -0.7404 -0.3482
 7440SOL    HW223741   4.086   7.377   5.232 -0.3924 -0.3262  0.0806
 7441SOL     OW23742   4.804   8.320   4.899 -0.0038 -0.5149 -0.2905
 7441SOL    HW123743   4.878   8.263   4.917  0.0261 -0.4795 -0.3012
 7441SOL    HW223744   4.839   8.386   4.838  0.2370  0.1236  0.5276
 7442SOL     OW23745   1.743   0.444   2.977  0.1075  0.4274  0.3539
 7442SOL    HW123746   1.804   0.500   2.928  1.7407 -0.8694  0.8354
 7442SOL    HW223747   1.790   0.362   2.989 -1.3482 -0.2524  1.6861
 7443SOL     OW23748   2.286   7.405   0.938  0.4922 -0.3600  0.3631
 7443SOL    HW123749   2.212   7.353   0.906  0.8773  0.3523 -1.8999
 7443SOL    HW223750   2.262   7.427   1.028 -1.9674 -0.3418 -0.2090
 7444SOL     OW23751   8.299   8.083   5.309  0.1054  0.1997  0.1458
 7444SOL    HW123752   8.207   8.063   5.292 -0.1318 -0.0953  1.5998
 7444SOL    HW223753   8.297   8.164   5.360  0.6783  0.3815 -0.1121
 7445SOL     OW23754   6.439   3.374   2.124 -0.1085  0.7348 -0.4318
 7445SOL    HW123755   6.528   3.363   2.090  0.2060 -0.9734  0.8304
 7445SOL    HW223756   6.426   3.469   2.127  2.1265  1.0735  0.4690
 7446SOL     OW23757   2.169   1.840   1.618  0.1650  0.0052 -0.4387
 7446SOL    HW123758   2.256   1.862   1.653  0.3861 -0.3538 -0.7511
 7446SOL    HW223759   2.112   1.838   1.695  0.4307  0.2586 -0.2330
 7447SOL     OW23760   7.505   6.223   4.260 -0.2635  0.2114  0.1776
 7447SOL    HW123761   7.569   6.176   4.313  0.0375  0.4029 -0.0126
 7447SOL    HW223762   7.442   6.156   4.234  0.0290 -0.0403  0.1081
 7448SOL     OW23763   1.852   0.431   6.441 -0.4860 -0.0902 -0.6015
 7448SOL    HW123764   1.855   0.508   6.498 -0.3896 -1.2839  1.1093
 7448SOL    HW223765   1.915   0.448   6.372 -2.5812  2.6249 -2.0356
 7449SOL     OW23766   7.878   2.039   5.105  0.8903 -0.3044  0.0553
 7449SOL    HW123767   7.807   1.990   5.064 -0.0126  0.8930  0.1298
 7449SOL    HW223768   7.844   2.064   5.190  0.3239  2.5178 -0.9013
 7450SOL     OW23769   8.260   7.461   7.288 -0.4989 -0.1550  0.4125
 7450SOL    HW123770   8.286   7.537   7.236 -0.7768  0.2178  0.8200
 7450SOL    HW223771   8.242   7.495   7.375 -1.1277 -0.5996  0.4692
 7451SOL     OW23772   6.009   2.114   1.768 -0.1980 -0.2438 -0.0108
 7451SOL    HW123773   6.065   2.180   1.807  0.1212  0.0130 -0.8683
 7451SOL    HW223774   5.930   2.113   1.822 -0.0196  0.5113  0.2702
 7452SOL     OW23775   2.028   3.498   5.077 -0.2751 -0.1514  0.3593
 7452SOL    HW123776   2.072   3.475   5.159  0.5127 -2.1884 -0.5692
 7452SOL    HW223777   2.089   3.473   5.009 -0.5124  2.3985 -0.9020
 7453SOL     OW23778   3.462   2.764   4.177 -0.5690 -0.3803  0.5072
 7453SOL    HW123779   3.545   2.723   4.154 -1.5750 -1.9023 -0.6199
 7453SOL    HW223780   3.464   2.772   4.272  0.0019 -2.4372  0.7160
 7454SOL     OW23781   4.576   0.990   4.499 -0.3082  0.4097  0.1109
 7454SOL    HW123782   4.603   1.081   4.509 -2.4133  1.0763  0.0566
 7454SOL    HW223783   4.481   0.990   4.512 -0.3595 -1.8026  0.2564
 7455SOL     OW23784   4.681   2.058   5.707  0.2484  0.3451 -0.1083
 7455SOL    HW123785   4.651   2.099   5.788 -0.6158  0.4999 -0.4974
 7455SOL    HW223786   4.633   1.976   5.701  0.9566 -0.0855 -0.0333
 7456SOL     OW23787   2.771   6.348   3.041  0.2845  0.4280 -0.1213
 7456SOL    HW123788   2.801   6.260   3.020 -0.0610  0.3571 -0.3294
 7456SOL    HW223789   2.806   6.403   2.971 -0.9135  0.1828 -0.9470
 7457SOL     OW23790   0.292   5.133   2.937  0.1321  0.3155  0.6211
 7457SOL    HW123791   0.265   5.221   2.964  1.5779  1.1610 -0.4875
 7457SOL    HW223792   0.304   5.141   2.842  0.3703 -1.0697  0.5214
 7458SOL     OW23793   0.267   3.043   5.111  0.0484  0.6063  0.7277
 7458SOL    HW123794   0.251   3.001   5.195 -1.2677  0.0538  0.2287
 7458SOL    HW223795   0.354   3.010   5.084  0.7821  1.3149  2.1436
 7459SOL     OW23796   1.619   6.039   2.707 -0.1795 -0.2373 -0.2195
 7459SOL    HW123797   1.566   6.109   2.745  2.5310  2.6899 -1.4016
 7459SOL    HW223798   1.617   6.055   2.613  0.5827 -1.7282 -0.5187
 7460SOL     OW23799   6.228   4.623   1.146 -0.0191  0.0787 -0.0727
 7460SOL    HW123800   6.173   4.545   1.154  1.0126 -0.8558 -1.4895
 7460SOL    HW223801   6.211   4.655   1.057  0.8860  0.4253 -0.1266
 7461SOL     OW23802   1.478   5.935   5.591 -0.3767 -0.0771  0.0494
 7461SOL    HW123803   1.475   6.002   5.660 -0.4013 -1.4620  1.4633
 7461SOL    HW223804   1.543   5.968   5.529 -1.3904  1.8983 -0.0350
 7462SOL     OW23805   5.995   6.808   0.376 -0.1123  0.1924  0.3296
 7462SOL    HW123806   6.038   6.739   0.426 -1.4617  0.3646  1.7624
 7462SOL    HW223807   6.067   6.865   0.349  0.7550 -0.4844  1.1379
 7463SOL     OW23808   1.789   3.614   0.567  0.3123 -0.0311  0.0991
 7463SOL    HW123809   1.736   3.690   0.589  0.2820 -0.6890  2.6515
 7463SOL    HW223810   1.759   3.588   0.480 -0.4773  2.1453 -0.3415
 7464SOL     OW23811   7.823   3.282   8.136  0.3694 -0.2160 -0.0349
 7464SOL    HW123812   7.853   3.257   8.223  3.2356  0.8508 -0.6015
 7464SOL    HW223813   7.783   3.369   8.148  0.3822 -0.2527  0.2757
 7465SOL     OW23814   6.714   4.707   8.218  0.1845  0.0159  0.2281
 7465SOL    HW123815   6.782   4.698   8.285  0.9171 -0.0650 -0.5114
 7465SOL    HW223816   6.656   4.776   8.252  0.0642 -0.6117  1.3264
 7466SOL     OW23817   0.881   1.350   1.316 -0.0894  0.4086  0.0946
 7466SOL    HW123818   0.966   1.364   1.357  0.7283  0.3181 -1.4867
 7466SOL    HW223819   0.861   1.258   1.333 -0.5476  0.7499  1.6100
 7467SOL     OW23820   7.039   4.749   2.009 -0.2193  0.2312 -0.6860
 7467SOL    HW123821   7.102   4.801   2.058 -0.8183 -0.6608  1.1124
 7467SOL    HW223822   7.093   4.694   1.952  0.6010 -0.0058  0.2982
 7468SOL     OW23823   4.602   2.678   3.929 -0.1682  0.1829 -0.2924
 7468SOL    HW123824   4.550   2.758   3.936 -0.9941 -0.2215 -1.6531
 7468SOL    HW223825   4.632   2.662   4.019 -2.3233  0.4533  0.5210
 7469SOL     OW23826   1.403   6.298   4.382 -0.2384  0.1208 -0.4198
 7469SOL    HW123827   1.404   6.235   4.454 -0.3912  0.3010 -0.2579
 7469SOL    HW223828   1.432   6.248   4.306 -0.2365 -0.1124 -0.2671
 7470SOL     OW23829   0.328   1.831   6.222 -0.5280 -0.2259  0.4514
 7470SOL    HW123830   0.283   1.895   6.278 -0.0977  0.0341  0.5055
 7470SOL    HW223831   0.398   1.796   6.278  0.0964  0.2558 -0.0157
 7471SOL     OW23832   6.934   1.607   1.292 -0.2009 -0.1676  0.3943
 7471SOL    HW123833   6.870   1.549   1.250 -0.5704  0.2986  0.3050
 7471SOL    HW223834   7.018   1.580   1.256 -0.6828  1.7533 -2.5673
 7472SOL     OW23835   0.322   3.596   4.383  0.1474  0.5368 -0.1129
 7472SOL    HW123836   0.262   3.656   4.339 -0.5642 -0.9139 -1.2083
 7472SOL    HW223837   0.270   3.516   4.396  1.3072 -0.1291  0.5650
 7473SOL     OW23838   0.650   6.135   6.682  0.2142  0.0048 -0.2649
 7473SOL    HW123839   0.694   6.190   6.747  0.3288  0.4712 -0.7234
 7473SOL    HW223840   0.685   6.165   6.598 -0.0739 -0.4566 -0.5548
 7474SOL     OW23841   5.309   3.905   5.726  0.3171  0.4160 -0.3617
 7474SOL    HW123842   5.335   3.816   5.705 -0.8196  0.5510 -2.6788
 7474SOL    HW223843   5.227   3.919   5.677 -0.5682  2.1123  1.4400
 7475SOL     OW23844   0.355   6.086   4.247 -0.5342 -0.3641 -0.0181
 7475SOL    HW123845   0.314   6.148   4.307 -0.1674  1.5911 -1.6960
 7475SOL    HW223846   0.285   6.061   4.187 -0.0318  0.5741 -1.0089
 7476SOL     OW23847   7.475   0.578   7.020 -0.4684  1.0642  0.0369
 7476SOL    HW123848   7.473   0.612   6.930  1.4923  0.2718 -0.3674
 7476SOL    HW223849   7.544   0.628   7.063  0.6492 -0.5347  0.1961
 7477SOL     OW23850   6.783   4.711   1.211 -0.1011 -0.1077 -0.2994
 7477SOL    HW123851   6.872   4.740   1.233  0.1360 -0.6950 -0.4843
 7477SOL    HW223852   6.755   4.661   1.287 -0.9880  1.5997  0.5659
 7478SOL     OW23853   1.369   5.553   5.051 -0.2382 -0.3206  0.2232
 7478SOL    HW123854   1.407   5.571   5.137 -0.2291 -3.7578  1.0872
 7478SOL    HW223855   1.279   5.585   5.058 -0.2659 -0.6172  1.5468
 7479SOL     OW23856   0.952   6.279   7.130  0.0753 -0.3349 -0.1333
 7479SOL    HW123857   1.009   6.321   7.065  1.5248 -0.4108  1.0371
 7479SOL    HW223858   0.895   6.349   7.161  0.7005  0.1588 -0.0854
 7480SOL     OW23859   7.351   0.599   5.108  0.2500 -0.4036 -0.0890
 7480SOL    HW123860   7.419   0.550   5.062  1.1714 -0.2601  1.0713
 7480SOL    HW223861   7.302   0.532   5.155 -1.6314 -0.7371 -2.3161
 7481SOL     OW23862   0.935   0.532   8.288 -0.3734  0.1445  0.0116
 7481SOL    HW123863   0.921   0.475   8.363 -2.9885 -0.8183 -1.0850
 7481SOL    HW223864   1.011   0.495   8.243 -0.5375 -1.0089  0.6464
 7482SOL     OW23865   4.507   3.744   7.852  0.2689  1.2187 -0.1227
 7482SOL    HW123866   4.556   3.790   7.784  0.7225  0.7540 -0.1228
 7482SOL    HW223867   4.432   3.799   7.870 -0.5126  0.7724 -1.8484
 7483SOL     OW23868   6.788   0.050   4.040  0.2528  0.0627 -0.0956
 7483SOL    HW123869   6.791   0.134   4.086 -4.2878  1.4177 -1.7396
 7483SOL    HW223870   6.773  -0.015   4.109  1.5837  0.8308  0.9776
 7484SOL     OW23871   5.744   7.814   0.008  0.0679  0.1357 -0.3498
 7484SOL    HW123872   5.716   7.722   0.011 -0.6542  0.3530 -0.1153
 7484SOL    HW223873   5.837   7.810  -0.012 -0.0909 -0.6300 -0.9988
 7485SOL     OW23874   6.143   2.957   5.568  0.6009  0.0999  0.4473
 7485SOL    HW123875   6.227   3.002   5.568 -0.5881  2.4262  0.2705
 7485SOL    HW223876   6.112   2.964   5.477 -0.5830  0.8588  0.8954
 7486SOL     OW23877   4.072   7.136   0.205 -0.0990 -0.2939 -0.1238
 7486SOL    HW123878   4.094   7.168   0.292 -0.7022  1.1015 -0.4571
 7486SOL    HW223879   3.989   7.178   0.184 -0.6471 -1.6671 -0.8370
 7487SOL     OW23880   4.611   0.573   4.073 -0.2162 -0.1086 -0.8395
 7487SOL    HW123881   4.519   0.589   4.051 -0.7509 -0.1759  1.1511
 7487SOL    HW223882   4.641   0.654   4.114 -0.2806 -1.0498  1.1556
 7488SOL     OW23883   4.952   7.792   6.900  0.0030 -0.8076  0.6758
 7488SOL    HW123884   4.984   7.880   6.880  2.3791 -1.9224 -0.9082
 7488SOL    HW223885   4.927   7.757   6.815  0.4644 -2.1476  1.0728
 7489SOL     OW23886   2.032   6.242   5.272  0.4267  0.0687  0.0506
 7489SOL    HW123887   2.080   6.241   5.190  0.0704 -0.7675 -0.1489
 7489SOL    HW223888   2.098   6.220   5.339  0.7849  1.0535  0.0438
 7490SOL     OW23889   7.647   4.952   7.294  0.0718  0.9765  0.1157
 7490SOL    HW123890   7.691   5.017   7.240 -1.2838  1.0402 -0.9684
 7490SOL    HW223891   7.555   4.981   7.295 -0.2493 -0.0221  0.9791
 7491SOL     OW23892   1.071   3.095   6.664 -0.4732  0.1067  0.2226
 7491SOL    HW123893   1.159   3.083   6.628 -0.0003 -0.6515  1.5506
 7491SOL    HW223894   1.051   3.187   6.649  1.2624  0.7192  1.3718
 7492SOL     OW23895   4.531   0.789   7.498 -0.1127 -0.2524  0.2130
 7492SOL    HW123896   4.508   0.696   7.500 -1.2761  0.0099  1.9983
 7492SOL    HW223897   4.543   0.812   7.590  1.3567  1.1071 -0.2814
 7493SOL     OW23898   7.050   0.256   3.749 -0.5194  0.3685 -0.0742
 7493SOL    HW123899   7.133   0.233   3.790  0.1640  1.4065 -0.8165
 7493SOL    HW223900   7.057   0.222   3.660 -1.6028 -1.0327  0.3352
 7494SOL     OW23901   6.684   2.224   6.209  0.3402  0.1496 -0.3854
 7494SOL    HW123902   6.620   2.294   6.221 -0.0895 -0.1501 -0.8713
 7494SOL    HW223903   6.638   2.145   6.239  1.0093  0.1375  0.6875
 7495SOL     OW23904   2.643   4.702   0.738  0.0562  0.2677  0.2386
 7495SOL    HW123905   2.559   4.707   0.784  0.1397  1.5424  0.2862
 7495SOL    HW223906   2.709   4.714   0.806  0.2021  1.3452 -0.0712
 7496SOL     OW23907   8.279   6.096   0.831  0.1901 -0.3834 -0.0113
 7496SOL    HW123908   8.352   6.114   0.890 -0.6705 -3.0888  2.0913
 7496SOL    HW223909   8.220   6.171   0.841  0.3635 -0.4805  2.1889
 7497SOL     OW23910   3.063   5.876   2.256  0.5850  0.0961 -0.4724
 7497SOL    HW123911   3.050   5.949   2.195 -0.5196  0.0599 -0.3013
 7497SOL    HW223912   3.154   5.849   2.242  0.2560 -0.1302 -2.3463
 7498SOL     OW23913   0.142   2.489   0.306  0.3103  0.3668  0.3411
 7498SOL    HW123914   0.212   2.485   0.240  1.0698  0.7923  1.1037
 7498SOL    HW223915   0.094   2.407   0.295  1.4525 -0.3306  0.3651
 7499SOL     OW23916   6.426   6.478   7.564 -0.0575 -0.5076  0.2226
 7499SOL    HW123917   6.504   6.510   7.611 -0.0346  0.0955 -0.2119
 7499SOL    HW223918   6.402   6.398   7.610  1.4008 -1.2449 -0.2526
 7500SOL     OW23919   8.264   1.128   7.933 -0.1028  0.0697 -0.2847
 7500SOL    HW123920   8.355   1.156   7.924 -0.6531  1.6881 -1.2293
 7500SOL    HW223921   8.239   1.100   7.845 -0.7183  0.2866 -0.1845
 7501SOL     OW23922   5.584   3.016   2.709  0.0231 -0.1684 -0.3803
 7501SOL    HW123923   5.535   3.017   2.791  0.1710  0.3142 -0.2915
 7501SOL    HW223924   5.562   2.933   2.668 -2.5578  0.8807 -1.3458
 7502SOL     OW23925   2.748   7.793   7.101 -0.2550 -0.5274 -1.4652
 7502SOL    HW123926   2.804   7.780   7.178  1.7480 -1.0546 -2.9374
 7502SOL    HW223927   2.733   7.888   7.098  1.0812 -0.3010 -1.3570
 7503SOL     OW23928   5.824   1.566   0.512 -0.3583  0.0893 -0.2627
 7503SOL    HW123929   5.806   1.587   0.420 -2.0193  1.6256  0.3674
 7503SOL    HW223930   5.833   1.651   0.555  1.2949 -0.6082  0.8779
 7504SOL     OW23931   4.414   3.613   7.284 -0.1106 -0.2657 -0.4344
 7504SOL    HW123932   4.348   3.667   7.240  0.8105 -0.1210 -1.7019
 7504SOL    HW223933   4.397   3.626   7.378  0.7786  3.2407 -0.6021
 7505SOL     OW23934   0.047   1.629   4.674  0.7268  0.2058  0.0176
 7505SOL    HW123935   0.117   1.695   4.675  0.5234  0.4711  2.1338
 7505SOL    HW223936   0.093   1.546   4.663  1.0687  0.5849 -1.6936
 7506SOL     OW23937   6.365   2.176   6.018 -0.3060 -0.1236  0.5010
 7506SOL    HW123938   6.326   2.232   5.950 -2.1381 -0.9880  0.7979
 7506SOL    HW223939   6.341   2.219   6.100  1.4371  0.6125  0.6699
 7507SOL     OW23940   5.303   0.780   2.519 -0.1642  0.1987  0.2633
 7507SOL    HW123941   5.297   0.735   2.603 -0.9780  1.1401  0.7287
 7507SOL    HW223942   5.382   0.834   2.526 -0.7962  1.0799  0.8512
 7508SOL     OW23943   1.514   5.397   3.122  0.1305  0.2728 -0.7712
 7508SOL    HW123944   1.444   5.456   3.151  0.4052  0.1220  0.2435
 7508SOL    HW223945   1.576   5.454   3.077  0.7677  0.9439  0.8547
 7509SOL     OW23946   6.573   1.492   8.178 -0.2137 -0.6053  0.4997
 7509SOL    HW123947   6.603   1.529   8.261  3.2272 -0.0620 -0.8279
 7509SOL    HW223948   6.645   1.436   8.149 -1.0192 -0.3222 -2.3857
 7510SOL     OW23949   7.792   0.228   3.961  0.1263 -0.7930 -0.6983
 7510SOL    HW123950   7.760   0.234   3.871  0.3486  2.0652 -0.6755
 7510SOL    HW223951   7.713   0.211   4.013 -0.2079 -1.1172 -1.2928
 7511SOL     OW23952   8.254   0.331   2.467 -0.2151 -0.9241  0.2994
 7511SOL    HW123953   8.296   0.359   2.549 -3.8426 -0.8764  2.3398
 7511SOL    HW223954   8.246   0.412   2.416  0.2572 -0.5567  0.7902
 7512SOL     OW23955   4.789   5.941   4.901  0.9643 -0.3222  0.3493
 7512SOL    HW123956   4.814   5.857   4.862 -0.1709 -1.0526  1.1121
 7512SOL    HW223957   4.777   5.921   4.994 -3.1888 -0.3681 -0.0070
 7513SOL     OW23958   7.252   6.263   7.373 -0.5892  0.2630 -0.0019
 7513SOL    HW123959   7.172   6.219   7.404 -0.3808 -0.2070 -0.1128
 7513SOL    HW223960   7.249   6.350   7.413 -0.7534 -0.0352  0.6484
 7514SOL     OW23961   2.454   6.996   2.276 -0.4462  0.0462 -0.3089
 7514SOL    HW123962   2.480   7.082   2.309 -0.6643  0.2198 -0.5857
 7514SOL    HW223963   2.444   6.942   2.355 -1.4275  0.5877 -0.0492
 7515SOL     OW23964   2.538   0.099   3.698 -0.5123  0.1108  0.0258
 7515SOL    HW123965   2.460   0.152   3.717 -0.6040 -0.3813  1.1215
 7515SOL    HW223966   2.559   0.119   3.607 -1.1061  1.2944  0.1303
 7516SOL     OW23967   0.501   3.636   3.607 -0.6686 -0.1632  0.2169
 7516SOL    HW123968   0.538   3.567   3.553  2.3957  1.0667  0.5556
 7516SOL    HW223969   0.485   3.709   3.547  1.8486  0.8679  0.6682
 7517SOL     OW23970   3.586   3.080   3.908 -0.3007 -0.0989  0.4174
 7517SOL    HW123971   3.622   2.993   3.888  2.1503  0.8186  0.5462
 7517SOL    HW223972   3.583   3.125   3.824  0.8151  0.5201  0.7011
 7518SOL     OW23973   1.328   5.562   0.160 -0.1336 -0.5737 -0.0023
 7518SOL    HW123974   1.359   5.515   0.237 -0.6119  0.4986  0.8807
 7518SOL    HW223975   1.303   5.648   0.193 -0.3944 -0.1004 -1.3555
 7519SOL     OW23976   4.030   5.392   7.856 -0.0703  0.3736  0.2055
 7519SOL    HW123977   3.962   5.335   7.892 -0.6967  1.0584  0.1255
 7519SOL    HW223978   4.005   5.403   7.764  0.4873  0.1409  0.0252
 7520SOL     OW23979   4.767   4.713   7.240 -0.7478  0.0089  0.5507
 7520SOL    HW123980   4.718   4.754   7.312 -0.1839 -2.0418  2.1792
 7520SOL    HW223981   4.750   4.620   7.249 -0.4786 -0.3490 -1.9052
 7521SOL     OW23982   4.119   1.392   7.954 -0.1625 -0.1733  0.0345
 7521SOL    HW123983   4.173   1.471   7.950 -2.4239  1.4979  0.0498
 7521SOL    HW223984   4.082   1.385   7.866 -2.0097  0.4054  0.7014
 7522SOL     OW23985   4.568   5.221   6.935 -0.2395  0.2943 -0.0450
 7522SOL    HW123986   4.663   5.230   6.929 -0.1040 -0.3079  0.9076
 7522SOL    HW223987   4.552   5.128   6.923 -0.5750  0.1851  1.1416
 7523SOL     OW23988   6.135   5.044   3.819 -0.1546 -0.2294  0.5611
 7523SOL    HW123989   6.057   5.029   3.766 -0.5761 -1.1912  1.4355
 7523SOL    HW223990   6.185   5.108   3.768 -0.9420 -0.4757 -0.5818
 7524SOL     OW23991   2.182   0.091   5.519 -0.5984  0.5492  0.2115
 7524SOL    HW123992   2.236   0.070   5.595 -0.4123  0.9880  0.2046
 7524SOL    HW223993   2.228   0.164   5.476  0.6255 -1.2430 -1.6975
 7525SOL     OW23994   0.194   4.184   0.962 -0.6322 -0.5158 -0.2375
 7525SOL    HW123995   0.196   4.232   0.879  1.1839  0.7477  0.4543
 7525SOL    HW223996   0.133   4.233   1.017  0.6399  0.6338  0.2117
 7526SOL     OW23997   5.975   2.989   4.799  0.1579 -0.1059  0.0059
 7526SOL    HW123998   5.960   2.895   4.810 -0.1321  0.0433  1.0459
 7526SOL    HW223999   5.892   3.029   4.826  0.4487  0.4651  0.0611
 7527SOL     OW24000   3.678   7.580   0.676  0.1814 -0.4896 -0.0187
 7527SOL    HW124001   3.717   7.497   0.651 -2.1371 -2.0391  1.1725
 7527SOL    HW224002   3.721   7.603   0.759  1.0187 -0.3207 -0.4867
 7528SOL     OW24003   6.989   6.000   1.986 -0.0235  1.1961  0.1589
 7528SOL    HW124004   7.054   6.068   2.002  0.6120  0.5453  0.3846
 7528SOL    HW224005   6.945   6.027   1.905 -0.2898  2.2523  0.6330
 7529SOL     OW24006   7.562   2.210   7.436 -0.1268  0.2720 -0.2928
 7529SOL    HW124007   7.596   2.295   7.464  4.0137 -0.9524 -0.9947
 7529SOL    HW224008   7.565   2.156   7.515 -1.3307  0.2978 -0.1993
 7530SOL     OW24009   3.879   3.609   1.411  0.3637  0.1510  0.6435
 7530SOL    HW124010   3.805   3.669   1.399 -0.1233 -0.7920 -1.4422
 7530SOL    HW224011   3.892   3.569   1.325  2.3315 -0.8502  1.3465
 7531SOL     OW24012   7.294   4.066   4.304  0.1551  0.8498  0.0318
 7531SOL    HW124013   7.356   4.014   4.253  1.9996  2.2600  0.7394
 7531SOL    HW224014   7.276   4.012   4.382  2.1247  1.2543  0.8138
 7532SOL     OW24015   4.836   1.584   5.885 -0.5051  0.0004  0.7968
 7532SOL    HW124016   4.764   1.647   5.885 -0.0167  0.6045 -0.4249
 7532SOL    HW224017   4.860   1.576   5.792  0.8751 -0.3216  1.1607
 7533SOL     OW24018   5.173   4.560   7.268  0.2752 -0.2540  0.4301
 7533SOL    HW124019   5.215   4.480   7.237  0.7860  0.1496  0.0491
 7533SOL    HW224020   5.190   4.562   7.362  0.0522 -0.7123  0.4795
 7534SOL     OW24021   2.843   6.500   4.705 -0.0176 -0.4649 -0.5516
 7534SOL    HW124022   2.895   6.498   4.786  0.1113 -0.7826 -0.6409
 7534SOL    HW224023   2.756   6.473   4.732  0.3581 -1.9437 -0.7564
 7535SOL     OW24024   5.003   7.209   2.696  0.5646  0.9725 -0.3330
 7535SOL    HW124025   4.912   7.222   2.669  0.9346  1.3146 -1.4453
 7535SOL    HW224026   5.054   7.264   2.637  1.5390  0.4161 -0.0273
 7536SOL     OW24027   7.899   2.280   4.944  0.4640  0.1137  0.1108
 7536SOL    HW124028   7.905   2.207   5.006  0.4676  0.9488  1.1069
 7536SOL    HW224029   7.811   2.316   4.958  0.2267 -0.0714 -0.8194
 7537SOL     OW24030   2.961   8.201   7.728 -1.1867  0.5379 -0.2128
 7537SOL    HW124031   2.928   8.139   7.663 -0.7672 -0.3282  0.3752
 7537SOL    HW224032   2.886   8.257   7.748 -1.4920  0.4149 -0.9775
 7538SOL     OW24033   6.188   3.579   3.111  0.2893  0.0568  0.7730
 7538SOL    HW124034   6.204   3.544   3.198  1.9750 -1.8378 -0.2058
 7538SOL    HW224035   6.257   3.645   3.099  1.0873 -0.8260  0.3314
 7539SOL     OW24036   2.472   3.284   3.460 -0.1799 -0.2292 -0.3746
 7539SOL    HW124037   2.479   3.377   3.437 -0.9069  0.0768  0.5539
 7539SOL    HW224038   2.540   3.241   3.409 -0.1237  0.7534 -1.1586
 7540SOL     OW24039   2.783   6.525   4.031 -0.2621 -0.4674  0.1900
 7540SOL    HW124040   2.862   6.476   4.056 -1.0684 -1.2209  1.3637
 7540SOL    HW224041   2.795   6.611   4.071 -2.0753 -1.9891  4.6819
 7541SOL     OW24042   2.353   8.310   1.297 -0.1895  0.6512 -1.0214
 7541SOL    HW124043   2.327   8.387   1.248 -0.5852  0.3421 -1.3059
 7541SOL    HW224044   2.316   8.323   1.384 -0.4776  0.6636 -1.1453
 7542SOL     OW24045   5.192   6.887   6.314 -0.2377  0.1660 -0.0651
 7542SOL    HW124046   5.116   6.882   6.256  0.5925  0.0567 -1.1595
 7542SOL    HW224047   5.156   6.921   6.396 -1.5992 -0.5820 -0.3202
 7543SOL     OW24048   5.482   0.962   2.605 -0.1535  0.0297 -0.2880
 7543SOL    HW124049   5.484   0.974   2.510  0.9759  0.0199 -0.2817
 7543SOL    HW224050   5.553   1.017   2.637  0.4841 -1.1313  0.3909
 7544SOL     OW24051   1.696   1.111   7.034  0.1098 -0.2595  0.3354
 7544SOL    HW124052   1.683   1.025   6.993 -1.9859 -0.2982  0.9809
 7544SOL    HW224053   1.718   1.169   6.961 -0.3761 -0.9660 -0.3915
 7545SOL     OW24054   8.080   3.313   1.714 -0.0521 -0.5271 -0.5053
 7545SOL    HW124055   8.086   3.335   1.620  1.3190  0.3101 -0.2567
 7545SOL    HW224056   8.104   3.221   1.719 -0.7696 -0.7503 -1.0409
 7546SOL     OW24057   1.270   7.112   1.104  0.5455  0.2531 -0.4967
 7546SOL    HW124058   1.192   7.057   1.115 -0.3973  1.4820 -0.9112
 7546SOL    HW224059   1.280   7.157   1.188  0.2735  0.7664 -0.7347
 7547SOL     OW24060   3.162   1.374   0.223 -0.4953  0.2575  0.3892
 7547SOL    HW124061   3.202   1.406   0.303 -0.0309  0.4879  0.0682
 7547SOL    HW224062   3.223   1.399   0.153 -0.9971  0.2594 -0.0619
 7548SOL     OW24063   7.446   0.510   0.892  0.3079 -0.2306 -0.2183
 7548SOL    HW124064   7.537   0.497   0.866  0.2348 -1.0384 -0.0885
 7548SOL    HW224065   7.408   0.422   0.892 -0.8244  0.2166 -1.5856
 7549SOL     OW24066   5.309   7.009   6.755  0.0333 -0.7326  0.1779
 7549SOL    HW124067   5.270   7.022   6.841  2.0800 -1.9510  1.3665
 7549SOL    HW224068   5.402   7.026   6.768  0.5433 -1.8967 -1.5689
 7550SOL     OW24069   5.740   1.946   5.587 -0.2236  0.0345  0.2348
 7550SOL    HW124070   5.767   1.988   5.505 -1.7586  0.0334 -0.3045
 7550SOL    HW224071   5.756   1.853   5.573  0.6163  0.1403  0.4023
 7551SOL     OW24072   1.454   2.556   1.315  0.0918  0.6570  0.1228
 7551SOL    HW124073   1.372   2.565   1.267  1.2394 -0.6318 -2.2681
 7551SOL    HW224074   1.522   2.576   1.250  1.7508 -1.1328  1.1995
 7552SOL     OW24075   1.094   6.926   1.165 -0.0880  0.3033  0.0659
 7552SOL    HW124076   1.131   6.888   1.245 -0.9486 -1.8634 -0.5094
 7552SOL    HW224077   1.027   6.987   1.197  2.2387  2.5491  1.0432
 7553SOL     OW24078   3.720   2.582   5.780 -0.6085  0.1741 -0.2219
 7553SOL    HW124079   3.705   2.670   5.813 -1.7034  0.6467 -1.8217
 7553SOL    HW224080   3.651   2.529   5.819  1.0425 -0.4265  2.0905
 7554SOL     OW24081   2.265   2.056   5.148  0.0849  0.6862 -0.1278
 7554SOL    HW124082   2.285   1.964   5.164  0.3756  0.2853 -2.4086
 7554SOL    HW224083   2.270   2.097   5.234  1.3571 -1.1641  0.7535
 7555SOL     OW24084   1.004   0.372   4.414 -0.3310  0.2503 -0.1992
 7555SOL    HW124085   0.981   0.458   4.379  0.6097  0.6696  0.1783
 7555SOL    HW224086   1.097   0.379   4.437 -0.1320 -0.9846 -0.5117
 7556SOL     OW24087   0.035   3.646   4.352  0.1729  0.5045  0.3085
 7556SOL    HW124088  -0.033   3.694   4.400 -2.3807 -2.4189 -0.0671
 7556SOL    HW224089  -0.005   3.627   4.267  1.5521 -1.1167 -0.0205
 7557SOL     OW24090   2.781   7.451   6.416  0.1717 -0.3733  0.1054
 7557SOL    HW124091   2.733   7.378   6.379 -2.7594  0.4193  2.0179
 7557SOL    HW224092   2.813   7.419   6.500 -1.4099  0.5601  1.1027
 7558SOL     OW24093   6.368   1.276   7.191 -0.2611 -0.3620  0.1829
 7558SOL    HW124094   6.462   1.292   7.199 -0.2700  0.1096 -0.5754
 7558SOL    HW224095   6.361   1.214   7.119 -0.5377 -0.3254  0.1794
 7559SOL     OW24096   7.344   0.210   8.085  0.2787  0.1031 -0.3951
 7559SOL    HW124097   7.352   0.289   8.139 -1.0562  2.2064 -3.0214
 7559SOL    HW224098   7.295   0.149   8.140 -1.7691  2.4173  0.5688
 7560SOL     OW24099   7.464   2.032   6.423  0.3939 -0.1928  0.6033
 7560SOL    HW124100   7.525   1.961   6.440 -0.3415 -0.9098  0.2908
 7560SOL    HW224101   7.416   2.006   6.344  0.1711  0.6853  0.4265
 7561SOL     OW24102   6.360   7.514   1.863  0.1324 -0.3694  0.4786
 7561SOL    HW124103   6.323   7.454   1.799  0.6763 -0.2250  0.0197
 7561SOL    HW224104   6.363   7.464   1.945 -2.6291  0.1286  0.9867
 7562SOL     OW24105   0.396   0.139   3.218  0.2896  0.3615  0.2869
 7562SOL    HW124106   0.383   0.228   3.186 -0.8140 -1.0710 -3.7320
 7562SOL    HW224107   0.481   0.113   3.183 -0.4235 -0.9021 -0.5673
 7563SOL     OW24108   0.637   0.284   0.610  0.4061 -0.1756 -0.1482
 7563SOL    HW124109   0.728   0.271   0.581  0.0104 -0.2861 -1.3952
 7563SOL    HW224110   0.637   0.369   0.653  0.9848  0.0805 -0.6472
 7564SOL     OW24111   6.063   0.198   7.069 -0.1737 -0.2409  0.0010
 7564SOL    HW124112   6.071   0.293   7.061 -1.1688 -0.1879 -0.5583
 7564SOL    HW224113   6.099   0.178   7.155  0.8194  0.5402 -0.2133
 7565SOL     OW24114   4.635   2.251   2.045 -0.1993 -0.0466  0.0589
 7565SOL    HW124115   4.567   2.243   1.977  1.5313  0.5558 -1.8680
 7565SOL    HW224116   4.643   2.345   2.059  0.3811 -0.1019  0.0998
 7566SOL     OW24117   6.457   0.239   3.535  0.0565  0.2174  0.1902
 7566SOL    HW124118   6.410   0.267   3.613 -1.6315 -0.7411 -0.4362
 7566SOL    HW224119   6.410   0.280   3.462  0.4777 -0.3845 -0.4345
 7567SOL     OW24120   0.694   4.965   1.612  0.0590  0.6713  0.9140
 7567SOL    HW124121   0.617   4.910   1.596  0.9076 -0.3022 -0.0179
 7567SOL    HW224122   0.737   4.970   1.527  1.0859  1.1145  1.4439
 7568SOL     OW24123   7.641   2.694   5.747 -0.0832 -0.0025 -0.3772
 7568SOL    HW124124   7.736   2.687   5.758 -0.0950  1.6922  1.3804
 7568SOL    HW224125   7.613   2.605   5.723  2.0851 -0.1660 -2.6395
 7569SOL     OW24126   6.088   0.575   0.770  0.4320  0.8161  0.0824
 7569SOL    HW124127   6.168   0.629   0.765  0.8130  0.1873 -2.2440
 7569SOL    HW224128   6.121   0.486   0.777 -0.0634  0.5984 -0.3161
 7570SOL     OW24129   7.888   3.515   3.294  0.3152  0.3240  0.4092
 7570SOL    HW124130   7.864   3.461   3.369  0.1241  1.2923  1.0598
 7570SOL    HW224131   7.979   3.490   3.274 -0.6263 -2.3420 -1.1795
 7571SOL     OW24132   6.501   2.660   7.001 -0.1507 -0.2404  0.4833
 7571SOL    HW124133   6.437   2.678   7.070 -2.1961  0.4514 -1.4929
 7571SOL    HW224134   6.521   2.567   7.010 -0.6133 -0.2337  1.7869
 7572SOL     OW24135   5.165   7.895   4.905  1.0237 -0.2423 -1.1560
 7572SOL    HW124136   5.148   7.812   4.951  0.7122  0.0094 -0.8132
 7572SOL    HW224137   5.242   7.876   4.851  1.7630 -0.3895 -0.1074
 7573SOL     OW24138   0.858   0.178   6.764 -0.6059 -0.0890 -0.1297
 7573SOL    HW124139   0.770   0.198   6.794 -0.4225 -2.7323  2.6372
 7573SOL    HW224140   0.848   0.096   6.715  0.3229 -0.4782  0.3176
 7574SOL     OW24141   4.854   5.667   4.150 -0.5765 -0.9667  0.1122
 7574SOL    HW124142   4.851   5.622   4.234 -0.6943  0.1042  0.7048
 7574SOL    HW224143   4.807   5.749   4.165  2.0837  0.7059 -0.0768
 7575SOL     OW24144   2.576   7.215   3.943  0.2977 -0.2513 -0.3293
 7575SOL    HW124145   2.630   7.245   4.016 -0.7850  0.4498  0.2104
 7575SOL    HW224146   2.487   7.212   3.979 -0.3494  0.6657 -1.7645
 7576SOL     OW24147   0.094   3.604   6.585 -0.2573  0.7441 -0.1002
 7576SOL    HW124148   0.064   3.670   6.523  0.0657  0.5408 -0.4804
 7576SOL    HW224149   0.111   3.527   6.531  0.4476  0.6974  0.1794
 7577SOL     OW24150   6.405   3.068   6.420  0.4470  0.0346  0.0025
 7577SOL    HW124151   6.415   3.141   6.359  0.1842  1.9227  2.0568
 7577SOL    HW224152   6.493   3.054   6.455  0.2245  0.5275  0.7964
 7578SOL     OW24153   5.305   4.372   6.929 -0.4924 -0.6800 -0.5108
 7578SOL    HW124154   5.266   4.339   7.010 -1.4140 -0.9567 -1.0503
 7578SOL    HW224155   5.388   4.411   6.956 -0.4184 -1.4621  0.4558
 7579SOL     OW24156   5.279   7.390   7.107 -0.9802 -0.8107 -0.7070
 7579SOL    HW124157   5.259   7.472   7.153  1.4218 -1.4266  1.6764
 7579SOL    HW224158   5.345   7.414   7.042  0.7554 -0.9713  0.9123
 7580SOL     OW24159   0.567   2.976   5.723 -0.0553  0.3165  0.4554
 7580SOL    HW124160   0.548   2.896   5.773  0.8222  0.8829  1.7316
 7580SOL    HW224161   0.542   3.047   5.782 -2.6915  1.0699 -1.3668
 7581SOL     OW24162   7.850   7.597   2.317 -0.0882 -0.3157  0.6270
 7581SOL    HW124163   7.908   7.641   2.379 -0.6640  0.1766  0.8250
 7581SOL    HW224164   7.762   7.622   2.345 -0.4072 -1.1652  0.4133
 7582SOL     OW24165   1.282   7.520   0.223  0.2471 -0.4453 -0.3647
 7582SOL    HW124166   1.329   7.437   0.218 -1.4636 -1.7430  2.5704
 7582SOL    HW224167   1.286   7.545   0.316 -3.5449  0.0700 -0.2027
 7583SOL     OW24168   2.490   4.971   0.278  0.6998  0.5252  0.0446
 7583SOL    HW124169   2.471   4.890   0.323 -1.4731  1.4276  0.8812
 7583SOL    HW224170   2.438   5.037   0.323  1.1204  2.0947 -1.6199
 7584SOL     OW24171   1.292   0.950   7.866 -0.1209  0.5182  0.1337
 7584SOL    HW124172   1.338   1.028   7.835 -0.4474  0.4837 -0.4521
 7584SOL    HW224173   1.356   0.879   7.857 -0.3744  0.4044 -1.0185
 7585SOL     OW24174   1.259   6.311   3.220  0.4948  0.0723 -0.3238
 7585SOL    HW124175   1.332   6.358   3.260  0.8121 -0.8597  0.2194
 7585SOL    HW224176   1.182   6.364   3.240  0.8624  0.4293  0.1586
 7586SOL     OW24177   0.685   7.262   4.261  1.1497 -0.3297 -0.2277
 7586SOL    HW124178   0.769   7.286   4.223  1.7127 -2.5118 -0.4563
 7586SOL    HW224179   0.696   7.276   4.355  1.5363  0.0304 -0.3248
 7587SOL     OW24180   1.634   8.252   4.907  0.1245  0.2030  0.3190
 7587SOL    HW124181   1.710   8.265   4.963  1.4982 -0.7396 -1.2616
 7587SOL    HW224182   1.660   8.288   4.822 -1.7836  1.2922  0.1411
 7588SOL     OW24183   8.022   6.712   4.970  0.1604  0.1669  0.7919
 7588SOL    HW124184   7.962   6.767   5.019 -0.3057 -1.3296  1.9690
 7588SOL    HW224185   8.109   6.741   4.995 -0.0805  0.4990  1.2402
 7589SOL     OW24186   4.934   0.156   7.781 -0.4774 -0.3566  0.8452
 7589SOL    HW124187   4.949   0.198   7.865 -1.2171  0.6016  0.5221
 7589SOL    HW224188   5.020   0.152   7.740 -0.2084 -0.2717  1.3912
 7590SOL     OW24189   3.881   2.659   7.303 -0.5885  0.0240  0.0956
 7590SOL    HW124190   3.804   2.699   7.263  0.8965  0.4168 -2.5883
 7590SOL    HW224191   3.874   2.566   7.282 -0.2727  0.0920 -0.3449
 7591SOL     OW24192   3.972   3.417   6.733 -0.2738  0.0128 -0.2695
 7591SOL    HW124193   3.970   3.339   6.678  0.3831 -0.8958  0.9479
 7591SOL    HW224194   4.008   3.485   6.677 -0.3991 -0.6764 -1.2051
 7592SOL     OW24195   2.058   1.652   3.081 -0.1206  0.3627 -0.2549
 7592SOL    HW124196   1.966   1.636   3.102  0.1386  0.3471  0.9254
 7592SOL    HW224197   2.078   1.589   3.012 -0.6017 -0.6515  0.5070
 7593SOL     OW24198   3.701   6.265   4.477  0.4400  0.4406 -0.1492
 7593SOL    HW124199   3.634   6.200   4.499  3.3133 -2.0957  2.0052
 7593SOL    HW224200   3.693   6.331   4.546  0.0788  0.2365  0.0094
 7594SOL     OW24201   6.040   0.027   1.615  0.4701 -0.0722 -0.5147
 7594SOL    HW124202   6.079  -0.030   1.549  0.3059  0.0738 -0.7395
 7594SOL    HW224203   5.988  -0.032   1.670 -1.3576  0.0977 -1.9563
 7595SOL     OW24204   6.643   2.750   7.274 -0.3548  0.5518 -0.5539
 7595SOL    HW124205   6.636   2.841   7.302  0.0121  0.9128 -1.5733
 7595SOL    HW224206   6.721   2.749   7.218 -0.0778 -0.4907 -0.1599
 7596SOL     OW24207   6.770   3.456   6.225  0.8223  0.0195 -0.0358
 7596SOL    HW124208   6.725   3.537   6.251  1.8667  0.4737  0.4436
 7596SOL    HW224209   6.746   3.393   6.293  0.0459 -0.0766 -0.3817
 7597SOL     OW24210   1.210   1.968   7.118 -0.1894  0.7019 -0.1293
 7597SOL    HW124211   1.251   1.961   7.032  0.2565  2.7482 -0.1444
 7597SOL    HW224212   1.248   1.896   7.169  1.9470  1.3061 -0.7426
 7598SOL     OW24213   1.814   3.664   4.164 -0.1605  0.0580  0.2475
 7598SOL    HW124214   1.882   3.597   4.167 -1.9006 -1.8922 -1.0144
 7598SOL    HW224215   1.735   3.620   4.193 -1.5601  1.2805 -1.4753
 7599SOL     OW24216   7.750   5.529   4.921  0.2941  0.0010 -0.5011
 7599SOL    HW124217   7.822   5.484   4.965 -0.0372  1.3794  1.6267
 7599SOL    HW224218   7.676   5.469   4.931  0.1154  0.4438  1.3567
 7600SOL     OW24219   1.406   5.353   3.465  1.0829 -0.1506 -0.7998
 7600SOL    HW124220   1.393   5.265   3.429  0.3044 -0.4192  0.0957
 7600SOL    HW224221   1.414   5.340   3.559  0.2117  0.8064 -0.5770
 7601SOL     OW24222   2.136   7.823   8.015  0.0903 -0.7053  0.4555
 7601SOL    HW124223   2.197   7.753   8.038  3.8635  1.2865 -2.2592
 7601SOL    HW224224   2.138   7.826   7.920 -3.6107  0.2459  0.2685
 7602SOL     OW24225   2.649   3.901   2.498 -0.0686 -0.0058  0.6658
 7602SOL    HW124226   2.599   3.875   2.421 -0.7736  2.9473  0.0128
 7602SOL    HW224227   2.732   3.935   2.463  0.8875 -1.3960  1.4759
 7603SOL     OW24228   4.238   5.284   2.527  0.0037 -0.0265  0.1915
 7603SOL    HW124229   4.164   5.252   2.577 -0.3886  1.1017  0.3603
 7603SOL    HW224230   4.303   5.213   2.531 -0.7613 -0.7092  0.6813
 7604SOL     OW24231   1.892   5.942   2.688  0.5031 -0.3382  0.2376
 7604SOL    HW124232   1.801   5.947   2.717  0.7132 -1.6077  1.1710
 7604SOL    HW224233   1.927   6.030   2.702 -0.4075  0.0007  0.4349
 7605SOL     OW24234   7.125   1.019   7.164  0.2118  0.3501  0.3271
 7605SOL    HW124235   7.034   1.035   7.141  0.2022 -1.0856 -0.7541
 7605SOL    HW224236   7.124   1.002   7.258 -0.1752  3.2963  0.9540
 7606SOL     OW24237   6.690   0.724   5.612  0.0239  0.0035 -0.5690
 7606SOL    HW124238   6.772   0.722   5.663  0.1878 -1.9769 -0.8049
 7606SOL    HW224239   6.666   0.632   5.604 -2.5404  0.5737 -0.0661
 7607SOL     OW24240   7.773   7.304   5.359  0.0528  0.1904 -0.1195
 7607SOL    HW124241   7.782   7.261   5.274 -1.7057  0.8238 -0.6682
 7607SOL    HW224242   7.799   7.236   5.423  0.7242 -0.5095 -1.0971
 7608SOL     OW24243   0.268   2.093   6.355 -0.0247 -0.3978  0.5529
 7608SOL    HW124244   0.326   2.104   6.430  1.0966  2.2379 -0.5685
 7608SOL    HW224245   0.181   2.118   6.387 -0.2609 -2.5069  1.7389
 7609SOL     OW24246   5.717   4.728   7.903 -0.0873  0.6650 -0.1347
 7609SOL    HW124247   5.794   4.782   7.884 -0.7142  1.4667 -0.4673
 7609SOL    HW224248   5.678   4.711   7.818  0.8381 -1.5134 -0.1954
 7610SOL     OW24249   7.055   1.897   2.793  0.8181 -0.1994  0.1422
 7610SOL    HW124250   7.017   1.830   2.849  2.7097 -1.7256 -0.2977
 7610SOL    HW224251   7.012   1.886   2.708  0.8975 -0.6680  0.1600
 7611SOL     OW24252   1.337   4.635   3.191 -0.1076  0.3288  0.1748
 7611SOL    HW124253   1.389   4.650   3.270 -1.2267  1.1351  0.7994
 7611SOL    HW224254   1.383   4.566   3.144  1.7918  1.3398  0.4366
 7612SOL     OW24255   3.523   1.128   4.557 -0.5567 -0.5565 -0.0226
 7612SOL    HW124256   3.489   1.060   4.615 -0.5876 -2.0261 -1.6806
 7612SOL    HW224257   3.495   1.101   4.470 -0.1629  1.3648 -0.7921
 7613SOL     OW24258   5.736   5.956   7.122 -0.3404 -0.1270 -1.0144
 7613SOL    HW124259   5.776   6.010   7.191 -0.9394 -1.1382  0.1581
 7613SOL    HW224260   5.645   5.984   7.119 -0.4754 -0.5436 -0.9172
 7614SOL     OW24261   0.149   2.873   3.569 -0.8257  0.4185 -0.1530
 7614SOL    HW124262   0.061   2.889   3.604 -0.4308  0.5257  0.8399
 7614SOL    HW224263   0.161   2.778   3.579 -1.1753  0.2665 -1.1476
 7615SOL     OW24264   4.685   6.295   8.358 -0.0361  0.4743 -0.2152
 7615SOL    HW124265   4.601   6.273   8.319  0.3271 -0.4746 -0.4893
 7615SOL    HW224266   4.739   6.324   8.284  0.2799 -0.1691 -0.2387
 7616SOL     OW24267   1.187   7.811   0.999 -0.0563  0.1451  0.1307
 7616SOL    HW124268   1.136   7.752   1.053  2.6013 -0.8809  1.7066
 7616SOL    HW224269   1.231   7.755   0.936 -2.8537  1.2861 -3.1409
 7617SOL     OW24270   8.351   3.668   4.640  0.2942 -0.5968  0.2831
 7617SOL    HW124271   8.285   3.634   4.701  0.3568  1.1753  1.4280
 7617SOL    HW224272   8.361   3.599   4.575 -1.5118 -1.5908  0.9700
 7618SOL     OW24273   0.540   8.127   5.255 -0.5714  0.1621  0.1590
 7618SOL    HW124274   0.489   8.208   5.257 -2.8138 -1.1926  1.1356
 7618SOL    HW224275   0.538   8.100   5.163 -1.0041  0.4913  0.0672
 7619SOL     OW24276   6.621   3.009   0.863  0.7956 -0.1145  0.3845
 7619SOL    HW124277   6.546   3.007   0.804 -0.2632 -1.5610  1.7094
 7619SOL    HW224278   6.631   3.101   0.887 -1.3641 -0.0367  1.1524
 7620SOL     OW24279   1.889   6.024   3.188 -0.6735 -0.0046 -0.2471
 7620SOL    HW124280   1.884   5.931   3.211  1.2184  0.0988  0.7437
 7620SOL    HW224281   1.852   6.029   3.099 -0.2993 -1.7881 -0.5322
 7621SOL     OW24282   3.798   5.981   7.292 -0.1714 -0.1540 -0.1837
 7621SOL    HW124283   3.714   5.936   7.284 -0.2614 -0.1040  0.4437
 7621SOL    HW224284   3.803   6.037   7.214 -1.9635  1.9267  1.0942
 7622SOL     OW24285   7.206   2.187   7.152  0.3774 -0.6037  0.1155
 7622SOL    HW124286   7.201   2.277   7.184  1.6341 -0.1715 -0.8375
 7622SOL    HW224287   7.124   2.174   7.104 -0.0945 -0.2003  0.8000
 7623SOL     OW24288   6.529   6.073   5.629 -0.8618 -0.2257 -0.5597
 7623SOL    HW124289   6.486   6.114   5.704  0.0331  1.6193 -0.9935
 7623SOL    HW224290   6.570   6.146   5.582 -0.0367 -1.5278 -1.9502
 7624SOL     OW24291   5.440   2.719   2.574  0.0073  0.2379  0.2581
 7624SOL    HW124292   5.402   2.691   2.657 -1.9536 -0.2382 -0.7259
 7624SOL    HW224293   5.523   2.671   2.568  0.0746  0.1187  1.8206
 7625SOL     OW24294   1.043   6.336   3.559  0.2737  0.3476  0.1287
 7625SOL    HW124295   1.102   6.271   3.520  1.0886  1.0982  0.0649
 7625SOL    HW224296   0.993   6.287   3.624  0.0368 -0.5850 -0.7209
 7626SOL     OW24297   0.989   3.716   2.063 -0.4396 -0.1577  0.0179
 7626SOL    HW124298   1.048   3.654   2.105 -0.2588 -1.0648 -1.5074
 7626SOL    HW224299   0.962   3.673   1.981 -1.1530  1.3263 -0.5779
 7627SOL     OW24300   2.051   7.309   7.635  0.0500 -0.2231  0.0439
 7627SOL    HW124301   2.011   7.358   7.564  0.2240 -0.1014  0.0299
 7627SOL    HW224302   2.013   7.221   7.628  0.4941 -0.3709 -0.5508
 7628SOL     OW24303   7.772   7.830   0.999 -0.2115  0.1572  0.1401
 7628SOL    HW124304   7.848   7.887   0.987 -0.1928  0.3494  1.1349
 7628SOL    HW224305   7.807   7.752   1.040 -0.6203  0.4487  1.0632
 7629SOL     OW24306   0.120   2.616   1.328 -0.1010  0.2285  0.0056
 7629SOL    HW124307   0.171   2.550   1.374  0.5074  0.6437 -0.0489
 7629SOL    HW224308   0.132   2.696   1.379  1.0729  0.8438 -1.1412
 7630SOL     OW24309   4.164   7.192   8.321  0.7360  0.4204  0.0820
 7630SOL    HW124310   4.088   7.249   8.306  1.7668  1.4485 -1.5686
 7630SOL    HW224311   4.182   7.199   8.415 -0.0877  1.6300  0.1666
 7631SOL     OW24312   2.424   0.910   5.792 -0.9869 -0.1368 -0.1147
 7631SOL    HW124313   2.350   0.863   5.830 -1.8228 -0.7472 -2.3505
 7631SOL    HW224314   2.464   0.847   5.732 -0.7226  1.2701 -1.4666
 7632SOL     OW24315   7.597   1.224   0.097 -0.4317 -0.0792  0.2918
 7632SOL    HW124316   7.615   1.130   0.091  0.5889  0.0579  0.8659
 7632SOL    HW224317   7.544   1.233   0.176  0.8372 -0.0239  1.1723
 7633SOL     OW24318   1.129   6.285   7.634  0.1321  0.7685  0.1953
 7633SOL    HW124319   1.040   6.288   7.599  0.3428  0.4100 -0.3802
 7633SOL    HW224320   1.175   6.225   7.577 -0.2030 -2.0713  2.6643
 7634SOL     OW24321   3.852   6.156   0.165  0.3456 -0.0107  0.6573
 7634SOL    HW124322   3.798   6.228   0.133 -1.2004 -1.8145 -1.0357
 7634SOL    HW224323   3.942   6.189   0.159 -0.3357  1.9488  0.5034
 7635SOL     OW24324   2.764   2.352   2.209 -0.3950  0.0572 -0.6679
 7635SOL    HW124325   2.730   2.361   2.120  0.8663 -0.5606 -1.2369
 7635SOL    HW224326   2.751   2.260   2.232  1.2258 -0.2949 -1.0645
 7636SOL     OW24327   1.736   7.753   1.006  0.6075 -0.2841 -0.1594
 7636SOL    HW124328   1.805   7.704   0.961  0.0463 -0.5170 -0.7995
 7636SOL    HW224329   1.720   7.829   0.949  1.0853  0.3607  0.5440
 7637SOL     OW24330   0.550   0.483   2.532 -0.4160  0.1723  0.3148
 7637SOL    HW124331   0.459   0.456   2.516 -0.0195 -0.8670 -0.2882
 7637SOL    HW224332   0.602   0.420   2.482  0.5939  1.5975 -0.4811
 7638SOL     OW24333   5.043   6.308   6.329  0.1348  0.2951  0.0936
 7638SOL    HW124334   5.000   6.273   6.251 -0.9168 -0.6181  1.0542
 7638SOL    HW224335   5.049   6.402   6.312  1.7105 -0.0997 -1.9103
 7639SOL     OW24336   3.634   6.903   4.227  0.5790  0.9144  0.3837
 7639SOL    HW124337   3.569   6.864   4.169  0.6685 -0.2371  1.0381
 7639SOL    HW224338   3.673   6.829   4.274  1.8758  1.6387  0.5140
 7640SOL     OW24339   2.602   5.880   5.801 -0.2589  0.8310  0.1644
 7640SOL    HW124340   2.686   5.848   5.836  0.0657  1.5398  0.0422
 7640SOL    HW224341   2.573   5.945   5.865 -0.3939  1.0542 -0.1215
 7641SOL     OW24342   7.676   5.651   3.515 -0.0552  0.1021 -0.2467
 7641SOL    HW124343   7.716   5.568   3.541  1.1556  0.6500 -0.2837
 7641SOL    HW224344   7.750   5.711   3.505 -0.8388  0.9610 -1.0657
 7642SOL     OW24345   1.287   0.372   2.175 -0.4090  0.1922  0.4986
 7642SOL    HW124346   1.227   0.445   2.162  0.8282  0.9428 -1.4018
 7642SOL    HW224347   1.231   0.296   2.188 -1.7460  1.0583 -0.0515
 7643SOL     OW24348   7.735   1.900   3.245  0.4845  0.5427 -0.6838
 7643SOL    HW124349   7.644   1.875   3.227  0.5467 -0.5395  0.4411
 7643SOL    HW224350   7.727   1.973   3.306  0.3616  1.7906 -2.1189
 7644SOL     OW24351   4.172   2.236   0.703 -0.7251 -0.2812  0.2991
 7644SOL    HW124352   4.212   2.322   0.718 -1.1398  0.8077 -3.7245
 7644SOL    HW224353   4.079   2.255   0.690 -1.1621 -1.6594  1.1747
 7645SOL     OW24354   3.014   6.999   7.220 -0.2623  0.3333 -0.2176
 7645SOL    HW124355   3.029   7.084   7.179 -0.2285  0.4432  0.0215
 7645SOL    HW224356   2.972   6.946   7.151  1.4599 -0.0877 -0.9895
 7646SOL     OW24357   0.854   7.077   3.037  0.1519  0.8129 -0.6280
 7646SOL    HW124358   0.817   7.016   3.102  0.3939  0.0929 -1.1618
 7646SOL    HW224359   0.786   7.144   3.027 -0.7947 -0.2075 -1.1943
 7647SOL     OW24360   6.765   3.964   1.555 -0.1111 -0.3377 -0.1907
 7647SOL    HW124361   6.767   3.969   1.651  0.9340 -0.3080 -0.2034
 7647SOL    HW224362   6.725   4.047   1.528  0.4364  0.0635  0.1963
 7648SOL     OW24363   1.646   2.792   2.337  0.3216 -0.3894  0.4994
 7648SOL    HW124364   1.679   2.732   2.270  1.2872 -0.8758  1.3837
 7648SOL    HW224365   1.704   2.869   2.330  1.1394 -0.8957  1.4886
 7649SOL     OW24366   3.104   7.367   6.200 -0.2560  0.2153  0.3820
 7649SOL    HW124367   3.196   7.385   6.183 -0.3469  1.3791  1.0471
 7649SOL    HW224368   3.076   7.435   6.261 -1.6998  0.2201 -0.2250
 7650SOL     OW24369   7.229   7.409   2.531 -0.1420  0.1915  0.5216
 7650SOL    HW124370   7.270   7.396   2.445 -2.0538  3.1590 -0.9784
 7650SOL    HW224371   7.296   7.455   2.582  0.1036  0.7598 -0.2902
 7651SOL     OW24372   7.685   5.730   7.335  0.2502  0.2407 -0.4507
 7651SOL    HW124373   7.743   5.756   7.263 -0.0631  0.3623 -0.6629
 7651SOL    HW224374   7.723   5.648   7.368  1.4781  1.1431  0.4855
 7652SOL     OW24375   8.022   1.634   4.709 -0.2425  0.5134  0.3708
 7652SOL    HW124376   8.050   1.649   4.799  0.9337 -0.9034  0.2754
 7652SOL    HW224377   8.006   1.721   4.674 -4.4249  1.0882  2.9984
 7653SOL     OW24378   4.332   6.641   7.084 -0.3379  0.2277  0.1288
 7653SOL    HW124379   4.330   6.701   7.159 -1.1386  1.4898 -0.8434
 7653SOL    HW224380   4.281   6.565   7.113  0.6169  0.0262  1.3582
 7654SOL     OW24381   7.357   2.468   0.102  0.0115  0.8055 -0.0508
 7654SOL    HW124382   7.440   2.472   0.054  0.6237  1.2115  0.9947
 7654SOL    HW224383   7.359   2.546   0.158  0.0454 -0.4388  1.7389
 7655SOL     OW24384   1.481   6.207   7.001 -0.8418 -0.4471 -0.2045
 7655SOL    HW124385   1.541   6.281   6.994 -0.4787 -0.8025 -0.8591
 7655SOL    HW224386   1.404   6.234   6.950  0.1572 -1.3688 -2.3333
 7656SOL     OW24387   4.247   2.140   6.715 -0.6759 -0.5333 -0.2416
 7656SOL    HW124388   4.221   2.229   6.741  1.5241 -0.8366  3.6851
 7656SOL    HW224389   4.194   2.083   6.770 -0.2716 -1.5961 -0.9323
 7657SOL     OW24390   2.915   8.190   1.558  0.2572 -0.2063  0.4838
 7657SOL    HW124391   2.972   8.217   1.630 -0.4527 -0.1731  1.0472
 7657SOL    HW224392   2.827   8.214   1.588  0.0114  0.3257 -0.6333
 7658SOL     OW24393   3.998   3.488   2.348  0.0015  0.3187 -0.1668
 7658SOL    HW124394   4.039   3.562   2.392 -2.2088  0.5188  1.7604
 7658SOL    HW224395   3.906   3.513   2.340 -0.8550 -2.2427  0.7012
 7659SOL     OW24396   7.450   4.095   2.357 -0.5743  0.3526  0.0884
 7659SOL    HW124397   7.532   4.125   2.397 -0.1343 -0.9215  0.2029
 7659SOL    HW224398   7.424   4.166   2.298  0.9037  0.5611 -0.3497
 7660SOL     OW24399   1.059   7.022   7.511  0.0524  0.2308  0.0026
 7660SOL    HW124400   1.093   6.937   7.539 -0.5298  0.6967  2.3068
 7660SOL    HW224401   1.085   7.029   7.419  1.4419 -1.7633  0.1817
 7661SOL     OW24402   2.828   3.646   3.482  0.3673 -0.0989 -0.8761
 7661SOL    HW124403   2.864   3.730   3.508  0.6038 -0.1421 -1.0559
 7661SOL    HW224404   2.775   3.665   3.405  0.0219 -0.0386 -0.6245
 7662SOL     OW24405   1.954   3.531   6.263 -0.4575  0.3825  0.1319
 7662SOL    HW124406   1.962   3.462   6.329  0.0916  0.1612 -0.1582
 7662SOL    HW224407   2.002   3.497   6.187 -0.5972  0.8779 -0.1799
 7663SOL     OW24408   3.019   3.608   7.401  0.0473  0.7979 -0.4441
 7663SOL    HW124409   3.075   3.531   7.408 -0.4924  0.3656 -0.7248
 7663SOL    HW224410   3.075   3.682   7.422  0.3382  0.2395  0.7953
 7664SOL     OW24411   4.659   7.999   2.654 -0.1590  0.1321  0.2525
 7664SOL    HW124412   4.633   7.951   2.575  0.7957 -1.7137  0.9994
 7664SOL    HW224413   4.755   8.001   2.650 -0.1116  0.2348  1.2517
 7665SOL     OW24414   2.116   2.344   0.671 -0.6479  0.2508 -0.4957
 7665SOL    HW124415   2.064   2.285   0.726  0.6949 -0.6483 -0.1326
 7665SOL    HW224416   2.054   2.380   0.608 -1.7378 -0.6039  0.0605
 7666SOL     OW24417   7.227   4.235   3.249  0.3566 -0.5398 -0.3122
 7666SOL    HW124418   7.154   4.285   3.212 -0.3070 -2.3363 -1.5754
 7666SOL    HW224419   7.305   4.278   3.216 -0.0838  1.1512  0.6977
 7667SOL     OW24420   0.198   3.532   4.974  0.5242  0.6337 -0.2530
 7667SOL    HW124421   0.113   3.568   4.998  1.1234  0.8025  1.8341
 7667SOL    HW224422   0.198   3.443   5.011  0.8765  0.2455 -1.1513
 7668SOL     OW24423   0.027   6.158   6.691  0.2898  0.1180 -0.3142
 7668SOL    HW124424  -0.037   6.086   6.691  1.2118 -0.7294  0.5008
 7668SOL    HW224425   0.053   6.167   6.782 -0.0224  1.7126 -0.3607
 7669SOL     OW24426   2.573   5.188   6.169  0.3285  0.0734 -0.2945
 7669SOL    HW124427   2.561   5.132   6.091 -0.2977 -1.3061  0.7422
 7669SOL    HW224428   2.584   5.126   6.241  1.5001  1.3220  0.6509
 7670SOL     OW24429   7.702   2.038   4.718  0.0162  0.0937  0.0569
 7670SOL    HW124430   7.712   2.084   4.802 -1.2483 -0.8728  0.7618
 7670SOL    HW224431   7.627   1.980   4.731 -0.5938  0.3485 -1.9399
 7671SOL     OW24432   4.115   2.910   2.450  0.0955 -0.0800  0.0172
 7671SOL    HW124433   4.150   2.892   2.362 -1.7899 -0.5258 -0.6837
 7671SOL    HW224434   4.146   2.837   2.503  2.5582  0.9829  0.1595
 7672SOL     OW24435   2.953   8.193   2.838  0.2393  0.2427  0.1788
 7672SOL    HW124436   2.932   8.120   2.896  2.6526  0.0984  0.9652
 7672SOL    HW224437   2.988   8.152   2.759  0.8716  0.5241  0.3075
 7673SOL     OW24438   4.830   0.428   5.224  0.2459 -0.2591 -0.1008
 7673SOL    HW124439   4.921   0.452   5.242  0.2186  1.2245 -1.7169
 7673SOL    HW224440   4.813   0.462   5.136 -1.7642 -0.8667  0.0034
 7674SOL     OW24441   1.449   5.855   8.106 -0.0595 -0.0910  0.2754
 7674SOL    HW124442   1.474   5.808   8.185 -0.6113 -1.0392 -0.0917
 7674SOL    HW224443   1.440   5.786   8.040 -0.4240  0.5931 -0.4009
 7675SOL     OW24444   2.892   5.744   5.385 -0.7048  0.0895  0.4095
 7675SOL    HW124445   2.829   5.672   5.373  0.3601 -0.5793 -1.8610
 7675SOL    HW224446   2.869   5.806   5.316 -0.0005  0.6785  0.6994
 7676SOL     OW24447   3.286   2.541   4.513  0.1918 -0.2320 -0.0432
 7676SOL    HW124448   3.263   2.476   4.447  1.7981 -1.0788  0.1701
 7676SOL    HW224449   3.308   2.620   4.463 -2.7963  0.5870 -0.2612
 7677SOL     OW24450   0.243   3.548   3.590  0.1013 -0.6772  0.0938
 7677SOL    HW124451   0.328   3.573   3.625  0.6858 -1.0220 -1.0293
 7677SOL    HW224452   0.180   3.581   3.654  1.0528 -0.0556  0.7372
 7678SOL     OW24453   6.282   4.693   3.189 -0.0264  0.5382  0.2531
 7678SOL    HW124454   6.371   4.680   3.157 -0.3780  0.6927 -0.8382
 7678SOL    HW224455   6.289   4.681   3.284  0.7045 -1.8061 -0.0326
 7679SOL     OW24456   2.662   2.031   4.844 -0.2942 -0.0269  0.1533
 7679SOL    HW124457   2.670   2.117   4.885  1.1173 -0.4371  0.8012
 7679SOL    HW224458   2.624   1.975   4.911  2.2105 -0.7480  1.0918
 7680SOL     OW24459   5.832   4.339   1.673  0.3725 -0.4602 -0.6418
 7680SOL    HW124460   5.786   4.291   1.743 -1.2657 -0.1604 -1.4797
 7680SOL    HW224461   5.860   4.420   1.715 -3.6424  1.3554 -1.0502
 7681SOL     OW24462   0.117   1.461   4.317  0.0694  0.7364 -0.4854
 7681SOL    HW124463   0.187   1.502   4.367  0.9133 -1.4913  0.3007
 7681SOL    HW224464   0.101   1.521   4.244  1.0757  2.4735  0.6537
 7682SOL     OW24465   0.998   2.710   4.444 -0.9932 -0.5648  0.4743
 7682SOL    HW124466   0.972   2.726   4.354  1.0018 -0.8347 -0.2094
 7682SOL    HW224467   0.974   2.618   4.460 -0.0327 -0.9790 -0.3271
 7683SOL     OW24468   2.050   7.775   2.920 -0.2731  0.5150  0.4313
 7683SOL    HW124469   2.143   7.762   2.903 -0.1046  1.7284  0.3697
 7683SOL    HW224470   2.041   7.762   3.015  0.3827  2.6109  0.8245
 7684SOL     OW24471   0.114   7.630   6.867 -0.2817 -0.1539  0.1567
 7684SOL    HW124472   0.149   7.543   6.889 -0.9021 -0.5845 -0.5141
 7684SOL    HW224473   0.192   7.682   6.846  0.0955 -0.5477  0.5619
 7685SOL     OW24474   0.535   1.808   0.649 -0.2219  0.2302 -0.1625
 7685SOL    HW124475   0.479   1.878   0.682 -0.1669  0.5846 -0.8042
 7685SOL    HW224476   0.619   1.822   0.693 -0.4215  0.1298  0.2545
 7686SOL     OW24477   5.684   2.031   8.011  0.3383  0.5442  0.0946
 7686SOL    HW124478   5.748   1.969   8.047 -0.2697  0.8633  1.8571
 7686SOL    HW224479   5.706   2.115   8.052 -0.5152  0.8948 -0.1435
 7687SOL     OW24480   3.668   2.078   0.980 -0.5664  0.6056 -0.0139
 7687SOL    HW124481   3.587   2.038   1.012  1.1241 -1.5409  2.0054
 7687SOL    HW224482   3.674   2.051   0.889 -1.9715  0.5425 -0.1008
 7688SOL     OW24483   6.400   3.716   7.385 -0.3792 -0.0190 -0.1176
 7688SOL    HW124484   6.370   3.635   7.344 -3.0745  0.0238  1.5332
 7688SOL    HW224485   6.449   3.689   7.462 -2.3392 -0.1921  1.1441
 7689SOL     OW24486   1.759   5.461   4.919 -0.6101  0.6468  0.4386
 7689SOL    HW124487   1.676   5.418   4.936 -0.1575 -0.2588  0.4461
 7689SOL    HW224488   1.805   5.402   4.859 -0.6496  1.9508 -0.9562
 7690SOL     OW24489   7.834   8.309   1.455 -0.3139 -0.1311  0.6534
 7690SOL    HW124490   7.757   8.362   1.432  0.5134  1.0814  0.5690
 7690SOL    HW224491   7.885   8.366   1.512  1.4481 -0.1897 -0.7896
 7691SOL     OW24492   1.685   6.719   4.117  0.2501  0.2623  0.3601
 7691SOL    HW124493   1.595   6.700   4.141  0.5797 -1.9875  0.0096
 7691SOL    HW224494   1.734   6.641   4.144  2.0493  1.3055  0.2709
 7692SOL     OW24495   3.395   5.495   4.973  0.2753  0.1170 -0.3263
 7692SOL    HW124496   3.480   5.481   5.015 -0.2189  1.3672  1.1932
 7692SOL    HW224497   3.331   5.473   5.041 -0.6791 -1.3876 -1.6270
 7693SOL     OW24498   0.870   2.188   1.665  0.1989 -0.7716  0.1386
 7693SOL    HW124499   0.951   2.138   1.654  1.1957  0.8214 -0.0879
 7693SOL    HW224500   0.825   2.177   1.581 -0.3587 -2.4972  0.6124
 7694SOL     OW24501   7.821   5.432   4.590  0.1548 -0.0897 -0.3070
 7694SOL    HW124502   7.784   5.413   4.504  1.8499 -0.2036 -1.0491
 7694SOL    HW224503   7.771   5.377   4.651 -1.0971  0.0331 -1.1973
 7695SOL     OW24504   2.989   2.274   3.584 -0.3093 -0.3117 -0.3230
 7695SOL    HW124505   2.927   2.204   3.608 -0.2418 -0.6919 -1.2032
 7695SOL    HW224506   3.071   2.249   3.626 -0.2686 -0.8022 -0.6900
 7696SOL     OW24507   7.870   8.223   3.626 -0.0381  0.3212  0.2055
 7696SOL    HW124508   7.860   8.128   3.615  1.1098  0.2688 -0.4468
 7696SOL    HW224509   7.867   8.236   3.721 -2.3665 -0.0889  0.2713
 7697SOL     OW24510   6.844   6.944   0.229  0.4734 -1.0407  0.0378
 7697SOL    HW124511   6.754   6.949   0.263  0.2395 -0.2061 -0.6628
 7697SOL    HW224512   6.880   7.031   0.245 -0.1756 -0.0327 -3.1871
 7698SOL     OW24513   5.929   7.556   3.261 -0.1691 -0.1104 -0.4784
 7698SOL    HW124514   5.881   7.638   3.259 -0.5899 -0.2765  1.4445
 7698SOL    HW224515   5.871   7.494   3.305  1.2318 -0.6728  0.6839
 7699SOL     OW24516   6.754   4.362   5.999  0.1515 -0.2087  0.2698
 7699SOL    HW124517   6.695   4.411   5.942  2.3875  0.8492 -1.3276
 7699SOL    HW224518   6.710   4.279   6.014 -1.4705  0.3119 -1.2910
 7700SOL     OW24519   4.630   0.189   2.012  0.1026  0.5428 -0.7521
 7700SOL    HW124520   4.718   0.167   2.043 -0.3074  0.9154  0.8031
 7700SOL    HW224521   4.620   0.141   1.930  1.3663 -0.3214 -0.4296
 7701SOL     OW24522   4.123   6.357   8.088  0.5407 -0.2714  0.0548
 7701SOL    HW124523   4.048   6.409   8.058  0.8050 -0.3498 -0.7579
 7701SOL    HW224524   4.198   6.395   8.043  1.4031  1.3982  2.6847
 7702SOL     OW24525   8.039   1.052   4.326 -0.0097  0.0110 -0.3895
 7702SOL    HW124526   8.082   0.994   4.388 -1.1921 -0.8476 -0.3213
 7702SOL    HW224527   7.987   1.111   4.380 -0.1133  0.0309 -0.5091
 7703SOL     OW24528   4.948   1.578   6.797  0.6265 -0.1523  0.0536
 7703SOL    HW124529   4.998   1.659   6.804 -0.0647  0.1971  1.1199
 7703SOL    HW224530   4.881   1.585   6.864 -0.5048 -0.8610 -0.9515
 7704SOL     OW24531   6.980   4.413   8.188  0.0039 -0.4617 -0.2714
 7704SOL    HW124532   7.047   4.439   8.125 -0.4467  0.6538 -0.3252
 7704SOL    HW224533   6.909   4.378   8.136 -1.2493  2.3555 -0.6625
 7705SOL     OW24534   2.631   5.671   0.368  0.3973  0.1146  0.6338
 7705SOL    HW124535   2.711   5.695   0.321 -0.3924  0.6026 -0.5038
 7705SOL    HW224536   2.569   5.647   0.299 -1.0903  1.7358  1.3475
 7706SOL     OW24537   3.218   5.856   1.208 -0.4167  0.1587 -0.0361
 7706SOL    HW124538   3.192   5.948   1.220  0.3530  0.4637 -0.6081
 7706SOL    HW224539   3.136   5.809   1.195 -0.8177  0.7729  0.2318
 7707SOL     OW24540   3.284   2.671   6.767 -0.1190  0.1947  0.4337
 7707SOL    HW124541   3.232   2.593   6.748  0.6849 -0.6341  1.4957
 7707SOL    HW224542   3.292   2.672   6.862 -0.3183  1.7319  0.4515
 7708SOL     OW24543   6.033   2.323   8.168 -0.0078  0.3255 -0.0453
 7708SOL    HW124544   6.122   2.304   8.136  0.1720  1.4344 -0.2392
 7708SOL    HW224545   6.027   2.418   8.166  0.0445  0.5244  3.2849
 7709SOL     OW24546   8.175   7.505   0.305  0.2614  0.3390 -0.1614
 7709SOL    HW124547   8.166   7.450   0.383 -0.0274  1.6861  0.7848
 7709SOL    HW224548   8.154   7.593   0.335 -1.1522  0.7071 -2.0490
 7710SOL     OW24549   3.469   5.000   4.512 -0.3272 -0.1296 -0.0027
 7710SOL    HW124550   3.379   5.004   4.545 -0.1259  0.7029  0.4898
 7710SOL    HW224551   3.523   5.014   4.590  0.1674  1.5213 -0.5909
 7711SOL     OW24552   5.969   2.919   0.559 -0.5955  0.0974 -0.0138
 7711SOL    HW124553   5.932   3.007   0.550 -2.9875 -1.0705 -2.8626
 7711SOL    HW224554   5.956   2.898   0.652 -1.8099  1.9808  0.3110
 7712SOL     OW24555   0.680   0.255   1.539 -0.0650 -0.2275 -0.3308
 7712SOL    HW124556   0.642   0.175   1.502 -0.8219 -0.2404  0.4620
 7712SOL    HW224557   0.712   0.229   1.625 -0.1198  0.2759 -0.1579
 7713SOL     OW24558   1.585   0.411   6.364 -0.3152 -0.2857 -0.4244
 7713SOL    HW124559   1.666   0.394   6.412 -1.3945 -3.3098  0.5580
 7713SOL    HW224560   1.609   0.400   6.272  0.8807  1.3784 -0.3456
 7714SOL     OW24561   0.908   1.239   5.614  0.0666  0.2457 -0.5597
 7714SOL    HW124562   0.930   1.154   5.652 -1.5375 -0.5431 -1.3307
 7714SOL    HW224563   0.856   1.283   5.682 -1.3325 -0.4723 -1.1291
 7715SOL     OW24564   2.096   8.119   2.442  0.0872 -0.2417  0.3847
 7715SOL    HW124565   2.115   8.116   2.348  0.1989  0.0143  0.3996
 7715SOL    HW224566   2.087   8.212   2.462 -1.4035 -0.3597  0.3411
 7716SOL     OW24567   5.623   2.282   6.762 -0.1367 -0.2788  0.2499
 7716SOL    HW124568   5.584   2.226   6.829  1.1912 -0.7106  0.7088
 7716SOL    HW224569   5.713   2.296   6.792  0.3723 -0.1394 -1.2321
 7717SOL     OW24570   0.713   1.144   8.299  0.0183  0.4471  0.4969
 7717SOL    HW124571   0.766   1.201   8.243 -1.9075  1.2888 -0.5521
 7717SOL    HW224572   0.766   1.133   8.377  2.6454 -0.4240 -1.2542
 7718SOL     OW24573   3.815   0.076   4.729 -0.4160 -0.0627  0.5280
 7718SOL    HW124574   3.862   0.054   4.648 -0.0412  0.0033  0.7222
 7718SOL    HW224575   3.742   0.130   4.700  0.0389  0.4332  0.2827
 7719SOL     OW24576   1.308   8.183   3.569 -0.1674 -0.0851 -0.1223
 7719SOL    HW124577   1.229   8.131   3.554 -0.0026 -0.1229 -0.9273
 7719SOL    HW224578   1.363   8.165   3.492 -0.2714  1.5606 -0.6125
 7720SOL     OW24579   5.591   1.314   7.337  0.4164  0.3044 -0.1621
 7720SOL    HW124580   5.676   1.344   7.305 -0.2386  1.3415 -1.0146
 7720SOL    HW224581   5.611   1.236   7.389  1.9251  0.7912  0.0381
 7721SOL     OW24582   0.770   8.010   1.514 -0.0254  1.0646  0.0453
 7721SOL    HW124583   0.806   8.098   1.519  2.2748  0.1594  0.4467
 7721SOL    HW224584   0.836   7.959   1.468  0.8445 -1.4128  3.6356
 7722SOL     OW24585   5.754   1.309   4.287  0.6593 -0.7861 -0.5606
 7722SOL    HW124586   5.783   1.400   4.289 -0.7567 -0.3079  0.0128
 7722SOL    HW224587   5.831   1.258   4.311  1.8018  0.1495 -2.0991
 7723SOL     OW24588   2.714   7.332   3.258  0.6769  0.0022  0.1649
 7723SOL    HW124589   2.716   7.247   3.214  2.0576 -0.1449  0.4732
 7723SOL    HW224590   2.733   7.312   3.350 -2.6630  0.2289  1.0487
 7724SOL     OW24591   6.948   5.550   7.914 -0.8455  0.4797 -0.3772
 7724SOL    HW124592   6.906   5.604   7.848  0.1067  1.1117 -0.4926
 7724SOL    HW224593   7.033   5.527   7.877 -0.9547 -0.5348 -0.0415
 7725SOL     OW24594   6.090   3.498   3.931  0.1403  0.1398  0.6598
 7725SOL    HW124595   6.004   3.458   3.918  0.4188 -0.1974 -0.2165
 7725SOL    HW224596   6.076   3.590   3.912 -0.1955  0.2322  1.3100
 7726SOL     OW24597   8.314   7.170   8.343  0.2512  0.6138  0.4276
 7726SOL    HW124598   8.356   7.180   8.257  0.6701  1.0767  0.6863
 7726SOL    HW224599   8.328   7.078   8.365  0.0299  0.4581 -0.0547
 7727SOL     OW24600   2.660   3.147   0.021 -0.0115 -0.6201 -0.0318
 7727SOL    HW124601   2.574   3.112  -0.003  0.2021 -1.1286 -0.0753
 7727SOL    HW224602   2.700   3.077   0.073  0.7102 -0.7367 -0.7256
 7728SOL     OW24603   5.023   1.485   0.882 -0.6114 -0.2036  0.4820
 7728SOL    HW124604   4.990   1.575   0.888  0.8836  0.3683  0.4921
 7728SOL    HW224605   5.078   1.485   0.804  2.2015 -0.1319  2.3474
 7729SOL     OW24606   2.247   3.176   3.315  0.0200 -0.3601 -0.3225
 7729SOL    HW124607   2.195   3.255   3.303  0.2404 -0.2993 -0.9464
 7729SOL    HW224608   2.322   3.203   3.367  0.9512  0.2409 -1.8951
 7730SOL     OW24609   7.805   5.485   7.462  0.0323 -0.0019 -1.0704
 7730SOL    HW124610   7.762   5.457   7.381 -1.9876  0.0136 -0.0650
 7730SOL    HW224611   7.813   5.405   7.514  1.3275 -0.0151 -1.2663
 7731SOL     OW24612   5.802   4.066   0.483 -0.2480  0.1267  0.0624
 7731SOL    HW124613   5.800   3.971   0.499  1.5699  0.0208 -0.1025
 7731SOL    HW224614   5.895   4.086   0.473 -0.4778  2.1790  1.5268
 7732SOL     OW24615   7.261   0.029   5.197 -0.0951  0.3084  0.1093
 7732SOL    HW124616   7.219   0.018   5.283 -2.9463  0.0901 -1.2160
 7732SOL    HW224617   7.198   0.080   5.146 -0.0955 -2.3869 -2.8993
 7733SOL     OW24618   4.734   6.909   3.719  0.4385 -0.3006 -0.0168
 7733SOL    HW124619   4.642   6.933   3.732  0.7710  1.2381 -0.2954
 7733SOL    HW224620   4.783   6.984   3.754  1.6537 -1.9149  1.9325
 7734SOL     OW24621   2.504   7.269   4.643  0.7094  0.0437 -0.3833
 7734SOL    HW124622   2.551   7.284   4.561 -0.3032 -1.3470 -1.2858
 7734SOL    HW224623   2.491   7.174   4.646 -1.2874  0.2756  0.1934
 7735SOL     OW24624   6.957   0.870   0.772 -0.3059  0.0093  0.7243
 7735SOL    HW124625   7.040   0.896   0.813 -0.0041 -0.1685  0.2244
 7735SOL    HW224626   6.934   0.788   0.815 -0.2126  0.0478  0.8481
 7736SOL     OW24627   6.640   2.012   7.414  0.3052  0.1188  0.0366
 7736SOL    HW124628   6.701   2.086   7.421  1.3066 -0.6519 -0.3643
 7736SOL    HW224629   6.575   2.029   7.482  2.1566 -0.1232  1.9757
 7737SOL     OW24630   4.672   3.370   1.179 -0.4425 -0.3891  1.0562
 7737SOL    HW124631   4.642   3.304   1.241  1.6979 -3.4367 -0.8861
 7737SOL    HW224632   4.751   3.407   1.218 -1.7047  1.2613  2.1972
 7738SOL     OW24633   1.640   7.903   3.695 -0.3542  0.5333 -0.5508
 7738SOL    HW124634   1.729   7.883   3.667 -0.3611  0.8982 -0.8447
 7738SOL    HW224635   1.615   7.829   3.750  1.1882  1.7485  1.9760
 7739SOL     OW24636   2.488   6.604   5.555 -0.0604 -0.1712 -0.7390
 7739SOL    HW124637   2.552   6.671   5.578  0.6477 -0.6201 -1.3428
 7739SOL    HW224638   2.407   6.632   5.597  1.0893 -0.8786  2.1155
 7740SOL     OW24639   5.031   6.969   7.714  1.0370 -0.4405  0.0725
 7740SOL    HW124640   5.040   7.064   7.724  1.2604 -0.4102 -0.4343
 7740SOL    HW224641   5.019   6.955   7.620 -0.2478 -0.8086  0.2733
 7741SOL     OW24642   2.707   4.195   3.845 -0.7624 -0.1091  0.1753
 7741SOL    HW124643   2.714   4.214   3.938 -0.9222  0.6218  0.0378
 7741SOL    HW224644   2.646   4.121   3.840  0.8659 -1.5700  0.8043
 7742SOL     OW24645   5.126   3.160   1.217  0.2226  0.3399 -0.1791
 7742SOL    HW124646   5.203   3.134   1.267 -0.2017  0.7585  0.7130
 7742SOL    HW224647   5.125   3.256   1.223 -1.7379  0.2500  1.9694
 7743SOL     OW24648   2.965   5.579   4.342 -0.4131  0.2252  0.5560
 7743SOL    HW124649   3.044   5.525   4.352 -0.7570 -0.5871 -0.7879
 7743SOL    HW224650   2.992   5.650   4.285 -0.4709  0.3589  0.6949
 7744SOL     OW24651   0.802   0.128   1.035 -0.3262 -0.5945  0.2667
 7744SOL    HW124652   0.714   0.160   1.020  0.6220  3.0526  1.4546
 7744SOL    HW224653   0.827   0.086   0.953 -2.6193 -0.3928 -0.6070
 7745SOL     OW24654   0.007   2.004   4.187  0.5148 -0.6089  0.3365
 7745SOL    HW124655   0.027   2.061   4.112  0.9168  1.4984  1.9520
 7745SOL    HW224656   0.081   1.944   4.192  0.5797 -0.6416 -0.8240
 7746SOL     OW24657   6.351   5.704   6.900  0.2458 -0.5276  0.1331
 7746SOL    HW124658   6.336   5.726   6.992 -0.5505 -2.1343  0.4100
 7746SOL    HW224659   6.267   5.723   6.857  0.1592 -1.1567  0.0202
 7747SOL     OW24660   8.223   1.971   8.133 -0.0215  0.1128  0.3133
 7747SOL    HW124661   8.271   2.001   8.210 -0.7734 -1.1456  1.3210
 7747SOL    HW224662   8.166   2.045   8.110  3.0281  2.1219 -1.6282
 7748SOL     OW24663   7.131   7.414   1.336 -0.2705 -0.1041 -0.2806
 7748SOL    HW124664   7.061   7.479   1.326  0.1097  0.2816 -0.4694
 7748SOL    HW224665   7.113   7.349   1.268  0.7804  1.1248 -1.8000
 7749SOL     OW24666   5.385   1.936   6.198 -0.4146  0.0112 -0.0062
 7749SOL    HW124667   5.400   2.024   6.231  2.0744 -0.7375  1.0566
 7749SOL    HW224668   5.437   1.931   6.118  0.3529 -0.7993  0.5264
 7750SOL     OW24669   2.097   0.335   3.629 -0.0279  0.7281  0.5382
 7750SOL    HW124670   2.042   0.409   3.604 -0.6368  1.0277  2.5689
 7750SOL    HW224671   2.098   0.338   3.724  2.7225  0.1259  0.5994
 7751SOL     OW24672   1.095   0.098   0.554 -0.3647 -0.0160  0.1587
 7751SOL    HW124673   1.144   0.163   0.603  0.9854 -1.6001  0.9890
 7751SOL    HW224674   1.116   0.015   0.596 -1.9044 -1.0298 -0.9656
 7752SOL     OW24675   1.991   3.748   5.229 -0.3425  0.2540  0.1920
 7752SOL    HW124676   2.041   3.710   5.301  0.9445  1.7656  0.1398
 7752SOL    HW224677   1.977   3.676   5.168  0.6365 -0.4922  0.8300
 7753SOL     OW24678   5.159   2.546   7.787  0.4645 -0.1356  0.2836
 7753SOL    HW124679   5.173   2.508   7.700 -1.1609  0.9331 -0.4979
 7753SOL    HW224680   5.071   2.518   7.812  0.0828  1.2922  0.6363
 7754SOL     OW24681   0.161   0.210   3.967  0.4933  0.1837  0.0661
 7754SOL    HW124682   0.223   0.205   4.039  1.3924  0.2348 -0.6839
 7754SOL    HW224683   0.081   0.244   4.006  1.1575  0.8049  0.9137
 7755SOL     OW24684   1.161   2.526   0.028 -0.4450  0.1376  0.0363
 7755SOL    HW124685   1.156   2.471   0.106  0.0838 -1.2849 -0.8778
 7755SOL    HW224686   1.165   2.463  -0.045 -0.2317  1.4089 -1.0909
 7756SOL     OW24687   8.079   7.848   1.177 -0.7398 -0.4656  0.1014
 7756SOL    HW124688   8.142   7.837   1.248 -0.5429 -0.2265 -0.0366
 7756SOL    HW224689   8.111   7.792   1.107 -0.0769  0.4772 -0.3715
 7757SOL     OW24690   5.437   5.445   8.109  0.4357  0.4845 -0.0609
 7757SOL    HW124691   5.470   5.393   8.037 -0.8254 -1.5395  0.7447
 7757SOL    HW224692   5.490   5.420   8.184 -0.8219 -0.4375  0.5525
 7758SOL     OW24693   3.354   4.327   5.343  0.0689 -0.2477 -0.1784
 7758SOL    HW124694   3.291   4.348   5.413 -0.9089 -0.8498 -0.8554
 7758SOL    HW224695   3.439   4.328   5.387 -0.4333  0.2580  0.8353
 7759SOL     OW24696   1.093   4.964   7.729 -0.5107  0.2303  0.1843
 7759SOL    HW124697   1.081   4.891   7.789 -1.0276  0.3286  0.2093
 7759SOL    HW224698   1.178   5.001   7.752 -0.5308  0.0261  0.5920
 7760SOL     OW24699   7.344   7.656   5.244 -0.2601 -0.1104 -0.5209
 7760SOL    HW124700   7.316   7.564   5.242 -0.4125 -0.0749 -0.0838
 7760SOL    HW224701   7.410   7.658   5.313  1.1244 -0.2782 -1.7912
 7761SOL     OW24702   1.923   0.445   6.987 -0.0467  0.4721 -0.8175
 7761SOL    HW124703   1.842   0.496   6.981  0.2709  0.8999 -1.6906
 7761SOL    HW224704   1.971   0.484   7.060  0.1597  1.4043 -1.4273
 7762SOL     OW24705   1.597   6.801   3.358 -0.2965 -0.0516  0.1128
 7762SOL    HW124706   1.553   6.747   3.424  0.3268 -0.0074  0.5773
 7762SOL    HW224707   1.531   6.864   3.330 -0.6802 -0.3057  0.4303
 7763SOL     OW24708   0.948   7.083   1.370  0.3772 -0.0167 -0.1534
 7763SOL    HW124709   1.016   7.095   1.436 -0.8851 -0.5902  1.3190
 7763SOL    HW224710   0.947   7.165   1.321  1.4364  0.3803  0.4671
 7764SOL     OW24711   0.936   6.730   4.580  0.0742 -0.6275 -0.0646
 7764SOL    HW124712   0.886   6.732   4.498  0.1006 -0.2039 -0.0733
 7764SOL    HW224713   0.942   6.637   4.602 -0.7220 -0.6800 -0.0546
 7765SOL     OW24714   6.741   1.087   4.226  0.0044  0.0264 -0.2275
 7765SOL    HW124715   6.649   1.106   4.207  0.1575  0.9615 -0.0777
 7765SOL    HW224716   6.782   1.079   4.140 -0.2502 -0.5993 -0.2958
 7766SOL     OW24717   4.899   2.803   5.420 -0.4127 -1.0710  0.1968
 7766SOL    HW124718   4.850   2.856   5.483  1.1529  2.1186 -1.0254
 7766SOL    HW224719   4.849   2.811   5.339  0.1235 -1.0562 -0.1304
 7767SOL     OW24720   2.440   1.138   4.235 -0.1696 -0.0591  0.6789
 7767SOL    HW124721   2.431   1.216   4.290 -0.1475  0.4874 -0.0870
 7767SOL    HW224722   2.534   1.119   4.234 -0.2554 -0.6091  1.5516
 7768SOL     OW24723   6.179   0.920   5.007 -0.1718 -0.2251 -0.9681
 7768SOL    HW124724   6.251   0.961   5.056  0.9785 -2.2322 -0.8763
 7768SOL    HW224725   6.100   0.958   5.044  0.7476 -0.1358  1.0197
 7769SOL     OW24726   6.931   7.147   6.712  0.0783  0.2909 -0.2781
 7769SOL    HW124727   6.945   7.053   6.698 -0.4557  0.0814  0.5385
 7769SOL    HW224728   7.001   7.189   6.662 -0.4452 -0.4813 -1.7319
 7770SOL     OW24729   4.452   3.637   5.464 -0.1727  0.1430  1.1297
 7770SOL    HW124730   4.544   3.630   5.488 -0.0934 -1.4170  0.5495
 7770SOL    HW224731   4.450   3.701   5.394  0.4665  0.2520  1.2055
 7771SOL     OW24732   8.148   4.472   0.818  0.2180  0.1696 -0.1065
 7771SOL    HW124733   8.057   4.441   0.822  0.2170  0.0856 -0.7025
 7771SOL    HW224734   8.200   4.393   0.803  0.3695  0.2488 -0.0045
 7772SOL     OW24735   0.779   7.878   8.217 -0.4325 -0.5768  0.1907
 7772SOL    HW124736   0.860   7.898   8.171 -0.2058 -0.4388  0.6406
 7772SOL    HW224737   0.713   7.935   8.177  0.0580  0.5770  0.9717
 7773SOL     OW24738   1.364   6.849   3.823 -0.7000 -0.0423 -0.4385
 7773SOL    HW124739   1.273   6.819   3.818 -0.2860 -1.3254 -0.7939
 7773SOL    HW224740   1.370   6.892   3.909 -1.4122 -0.7784 -0.0021
 7774SOL     OW24741   6.369   1.238   7.471  0.5331  0.6757 -0.7001
 7774SOL    HW124742   6.319   1.257   7.392 -0.3489  0.2844 -0.2521
 7774SOL    HW224743   6.421   1.161   7.447 -1.5565 -1.0142 -0.2036
 7775SOL     OW24744   0.296   7.849   1.853 -0.0660  0.1346 -0.3721
 7775SOL    HW124745   0.373   7.800   1.823 -0.5720 -1.3214  0.6067
 7775SOL    HW224746   0.221   7.798   1.823 -0.5961 -0.4935  1.8673
 7776SOL     OW24747   0.289   3.710   6.760 -0.1245  0.1347 -0.4043
 7776SOL    HW124748   0.373   3.667   6.746  0.3147  1.0274 -0.5286
 7776SOL    HW224749   0.231   3.669   6.696 -0.1564 -1.4531  0.5791
 7777SOL     OW24750   0.655   4.821   4.255 -0.2152  0.2874 -0.0402
 7777SOL    HW124751   0.635   4.911   4.230  0.3557  0.0650 -1.3907
 7777SOL    HW224752   0.750   4.815   4.246 -0.2996 -0.5809 -0.4147
 7778SOL     OW24753   7.499   7.834   8.114  0.2911 -0.0279  0.0657
 7778SOL    HW124754   7.419   7.837   8.062 -0.5645 -0.7249  1.2936
 7778SOL    HW224755   7.488   7.758   8.171  0.9963  0.9208  1.5300
 7779SOL     OW24756   0.910   0.636   1.106  0.4029 -0.1102 -0.0589
 7779SOL    HW124757   0.845   0.592   1.160  0.5073  1.0399  1.0486
 7779SOL    HW224758   0.933   0.572   1.038 -0.6565 -1.1199  0.5140
 7780SOL     OW24759   1.021   7.964   8.093 -0.6519  0.1022 -0.3385
 7780SOL    HW124760   1.073   8.014   8.156  0.7242 -1.9543  0.2847
 7780SOL    HW224761   1.086   7.916   8.042 -1.8781 -2.7686  0.6207
 7781SOL     OW24762   5.986   2.401   5.818 -0.4281 -0.2200  0.1062
 7781SOL    HW124763   5.937   2.326   5.786 -2.3691  0.5862  1.0485
 7781SOL    HW224764   5.967   2.405   5.912 -1.6200  2.2696 -0.1550
 7782SOL     OW24765   4.100   4.552   4.182 -0.0490  0.4430 -0.0024
 7782SOL    HW124766   4.164   4.623   4.172 -0.3745  0.7820  0.3044
 7782SOL    HW224767   4.154   4.473   4.188  0.3315  0.6953 -0.0177
 7783SOL     OW24768   3.847   8.351   4.003 -0.2642  0.2379 -0.3618
 7783SOL    HW124769   3.895   8.347   3.920 -0.9071 -0.0539 -0.7262
 7783SOL    HW224770   3.848   8.262   4.036  1.8492  0.7142  1.0441
 7784SOL     OW24771   4.666   2.509   2.046  0.0235  0.0670  0.2786
 7784SOL    HW124772   4.640   2.533   1.957  0.6149 -0.9870 -0.2092
 7784SOL    HW224773   4.715   2.585   2.078 -0.5854  0.6371 -0.1211
 7785SOL     OW24774   7.140   7.407   7.099  0.4049  0.2283  0.0485
 7785SOL    HW124775   7.182   7.357   7.030  2.1981 -1.8815  2.4698
 7785SOL    HW224776   7.213   7.444   7.150 -0.7481  0.1073  1.8926
 7786SOL     OW24777   3.783   2.301   1.244  0.4659 -0.1449  0.7608
 7786SOL    HW124778   3.713   2.341   1.193  0.5419  0.6275  1.2539
 7786SOL    HW224779   3.737   2.257   1.316  0.2727 -2.1062 -0.4908
 7787SOL     OW24780   2.357   4.097   0.886  0.2985  0.5961  0.1185
 7787SOL    HW124781   2.361   4.193   0.891  1.5234  0.5490  0.4062
 7787SOL    HW224782   2.420   4.067   0.952 -0.4937 -0.4242  0.4338
 7788SOL     OW24783   5.715   2.347   5.110  0.1477 -0.0361 -0.2450
 7788SOL    HW124784   5.659   2.270   5.119 -2.0038  1.2132 -2.0147
 7788SOL    HW224785   5.677   2.412   5.168  1.3729  0.0319  0.5115
 7789SOL     OW24786   5.083   2.580   2.006 -0.1340 -0.0969 -0.6875
 7789SOL    HW124787   5.110   2.669   1.986  0.1258 -0.4329 -1.9029
 7789SOL    HW224788   5.082   2.535   1.921 -0.9976 -1.0498 -0.1960
 7790SOL     OW24789   3.342   7.636   6.485  0.0879 -0.0327  0.6167
 7790SOL    HW124790   3.402   7.638   6.410  0.1303 -0.6435  0.6338
 7790SOL    HW224791   3.264   7.684   6.454 -0.3351 -1.2123 -0.2111
 7791SOL     OW24792   4.299   2.473   1.042  0.1610  0.4538 -0.2956
 7791SOL    HW124793   4.353   2.535   1.091  1.9918 -0.3492 -1.1970
 7791SOL    HW224794   4.311   2.390   1.087 -0.5462  0.3240 -0.3456
 7792SOL     OW24795   4.808   1.345   7.101  0.2515  0.6622 -0.2195
 7792SOL    HW124796   4.814   1.379   7.190 -1.3179 -0.8623  0.5037
 7792SOL    HW224797   4.821   1.251   7.109 -1.1114  0.3247 -1.4032
 7793SOL     OW24798   3.981   6.623   7.002  0.2420  0.3046  0.0733
 7793SOL    HW124799   3.893   6.611   7.037  0.7904 -0.1571  1.3874
 7793SOL    HW224800   3.970   6.679   6.925 -1.2987 -0.5453 -0.3626
 7794SOL     OW24801   6.465   5.702   3.300  0.2244 -0.2735 -0.7321
 7794SOL    HW124802   6.448   5.612   3.275 -0.5184 -0.2605 -0.3177
 7794SOL    HW224803   6.522   5.696   3.377 -0.4977 -0.4243 -0.1970
 7795SOL     OW24804   7.050   5.194   1.102  0.1620  0.4148  0.1676
 7795SOL    HW124805   7.059   5.156   1.014  2.1087  0.1633  0.4253
 7795SOL    HW224806   7.071   5.287   1.090 -2.1185  0.9658 -0.0256
 7796SOL     OW24807   6.204   4.484   2.373 -0.3226 -0.7157 -0.2801
 7796SOL    HW124808   6.204   4.390   2.356  0.7957 -0.3768 -2.4248
 7796SOL    HW224809   6.129   4.518   2.323  0.0562 -0.3190 -0.5932
 7797SOL     OW24810   2.707   0.568   5.611  0.1381  0.6574 -0.6183
 7797SOL    HW124811   2.773   0.530   5.553  2.4032  2.1923  0.8238
 7797SOL    HW224812   2.726   0.532   5.697  1.0545  3.3157  0.3944
 7798SOL     OW24813   2.950   3.147   0.390 -0.1841 -0.1737  0.3196
 7798SOL    HW124814   3.025   3.095   0.419 -0.1369 -0.1736  0.1990
 7798SOL    HW224815   2.944   3.218   0.455 -0.7462 -0.7803  0.9438
 7799SOL     OW24816   2.603   5.043   2.579  0.0166 -0.1642  0.4021
 7799SOL    HW124817   2.628   5.052   2.671 -0.9017  0.2354  0.6280
 7799SOL    HW224818   2.684   5.019   2.534  0.8160  1.1225  1.0882
 7800SOL     OW24819   7.334   4.753   1.418  0.2315 -0.3305  0.1815
 7800SOL    HW124820   7.302   4.843   1.411  0.2979 -0.4106 -1.3191
 7800SOL    HW224821   7.320   4.730   1.510 -2.0750  0.3637  0.0540
 7801SOL     OW24822   7.424   4.255   6.564  0.1762  0.5712 -0.0007
 7801SOL    HW124823   7.408   4.188   6.498  0.1144  0.3231  0.2643
 7801SOL    HW224824   7.519   4.255   6.576  0.2390  0.9905 -0.4775
 7802SOL     OW24825   5.231   2.904   0.436  0.0906 -0.3315 -0.3071
 7802SOL    HW124826   5.172   2.975   0.463  0.1287 -0.4794  0.1690
 7802SOL    HW224827   5.264   2.932   0.350  0.7899  0.6429  0.2630
 7803SOL     OW24828   0.359   1.518   7.110  0.2891  0.4120 -0.2608
 7803SOL    HW124829   0.300   1.561   7.173 -0.4603  1.3270 -1.5476
 7803SOL    HW224830   0.431   1.580   7.099  0.8935 -0.1608  0.3725
 7804SOL     OW24831   0.018   6.971   6.017 -0.5544 -0.5124 -0.3551
 7804SOL    HW124832   0.077   7.042   6.043  0.3544 -1.4787  0.3160
 7804SOL    HW224833   0.056   6.938   5.936 -0.6018 -0.6552 -0.3183
 7805SOL     OW24834   0.777   3.641   0.569  0.5844  0.4597  0.3770
 7805SOL    HW124835   0.685   3.664   0.551  1.3757  3.8816  0.0981
 7805SOL    HW224836   0.776   3.546   0.577 -2.7535  0.2288 -1.0037
 7806SOL     OW24837   0.739   4.089   4.377 -0.4186  0.2230 -0.1520
 7806SOL    HW124838   0.649   4.064   4.400  0.4528 -1.7317  1.4957
 7806SOL    HW224839   0.762   4.030   4.304 -0.3438  0.4478 -0.3110
 7807SOL     OW24840   1.776   4.550   8.029  0.2150 -0.1475  0.1795
 7807SOL    HW124841   1.731   4.610   8.089  1.0045  1.2805 -0.6184
 7807SOL    HW224842   1.831   4.496   8.086 -0.3371  0.0236  0.8896
 7808SOL     OW24843   3.660   1.158   0.658 -0.1212  0.0498 -0.2715
 7808SOL    HW124844   3.626   1.073   0.630 -0.8680  0.3484 -0.2873
 7808SOL    HW224845   3.625   1.170   0.746  0.6232 -0.0049  0.0390
 7809SOL     OW24846   2.393   6.600   4.832 -0.3998 -0.0544  0.0495
 7809SOL    HW124847   2.392   6.534   4.901 -1.4503  1.0186  1.1220
 7809SOL    HW224848   2.361   6.680   4.875 -2.1734  0.3993 -1.9231
 7810SOL     OW24849   2.400   3.539   5.760 -0.1664 -0.1526 -0.3700
 7810SOL    HW124850   2.346   3.615   5.784 -0.7714 -0.3215 -1.1534
 7810SOL    HW224851   2.424   3.500   5.844  1.5188  1.8106  0.1562
 7811SOL     OW24852   1.551   6.360   7.325 -0.2760 -0.0307 -0.0771
 7811SOL    HW124853   1.539   6.345   7.231  0.9476  0.9559 -0.4281
 7811SOL    HW224854   1.622   6.301   7.350 -1.3587 -1.1314  0.5160
 7812SOL     OW24855   3.761   7.296   7.000  0.1746 -0.3645  0.3219
 7812SOL    HW124856   3.772   7.228   7.066  0.3503 -2.2684 -1.5682
 7812SOL    HW224857   3.823   7.272   6.930 -0.9609  0.7693 -1.1433
 7813SOL     OW24858   7.834   8.364   2.748  0.3113 -0.4504  0.0968
 7813SOL    HW124859   7.874   8.349   2.833  0.5582  0.0699  0.0777
 7813SOL    HW224860   7.741   8.352   2.763  0.3601 -0.4294  0.4241
 7814SOL     OW24861   3.645   2.103   2.108  0.2011 -0.0897  0.1743
 7814SOL    HW124862   3.552   2.081   2.111  0.1993 -0.0173  2.0428
 7814SOL    HW224863   3.689   2.022   2.084 -0.4377  0.4129 -3.1392
 7815SOL     OW24864   3.507   5.315   4.392  0.5176 -0.0363 -0.1567
 7815SOL    HW124865   3.460   5.310   4.475 -1.2423  0.3755 -1.0812
 7815SOL    HW224866   3.589   5.360   4.413  0.9168 -1.4774  1.6468
 7816SOL     OW24867   2.586   6.193   6.679 -0.0428  0.2205  0.2322
 7816SOL    HW124868   2.654   6.216   6.617  1.5549 -1.6054  1.2020
 7816SOL    HW224869   2.515   6.157   6.626 -1.7320  4.8741 -1.1132
 7817SOL     OW24870   0.025   4.389   1.094 -0.0141 -0.1398 -0.2630
 7817SOL    HW124871   0.025   4.401   1.189 -0.2071 -0.4330 -0.2239
 7817SOL    HW224872   0.010   4.477   1.058 -3.1193 -0.4095  0.0462
 7818SOL     OW24873   6.768   2.050   3.541 -0.0767  0.3271  0.1318
 7818SOL    HW124874   6.830   2.045   3.468 -0.6478  1.9580 -0.5368
 7818SOL    HW224875   6.778   2.140   3.574 -0.4001 -0.1399  1.5519
 7819SOL     OW24876   8.206   3.050   5.495  1.0830 -0.3217  0.2009
 7819SOL    HW124877   8.299   3.037   5.478  1.2772  2.5460 -1.5496
 7819SOL    HW224878   8.164   2.975   5.453  2.4812 -0.3925 -1.1852
 7820SOL     OW24879   7.641   6.182   1.448  0.1694 -0.2696 -0.1412
 7820SOL    HW124880   7.644   6.231   1.530 -1.3875 -2.0970  1.1287
 7820SOL    HW224881   7.731   6.151   1.435  0.6683  0.9621  0.2702
 7821SOL     OW24882   1.130   3.217   7.464  0.3562  0.5699 -1.0373
 7821SOL    HW124883   1.150   3.310   7.476 -1.3082  0.9234 -0.7771
 7821SOL    HW224884   1.092   3.212   7.376  1.7708 -0.1184 -1.6286
 7822SOL     OW24885   1.122   0.809   6.810 -0.2529  0.1111  0.1247
 7822SOL    HW124886   1.175   0.746   6.859 -1.4820 -0.0408  1.3279
 7822SOL    HW224887   1.063   0.846   6.876 -0.9609  1.0016 -0.9760
 7823SOL     OW24888   6.913   1.259   0.949 -0.1480 -0.6929 -0.1580
 7823SOL    HW124889   6.827   1.300   0.936 -0.5717 -1.8024 -1.1442
 7823SOL    HW224890   6.912   1.230   1.040 -0.4967  0.0212  0.0700
 7824SOL     OW24891   0.196   3.757   1.111  0.2132  0.9384 -0.2474
 7824SOL    HW124892   0.103   3.772   1.126  0.2171  2.1471 -1.2551
 7824SOL    HW224893   0.215   3.805   1.030  1.7750  0.9934  0.1236
 7825SOL     OW24894   7.432   0.295   0.584 -0.7190 -0.6037  0.6327
 7825SOL    HW124895   7.381   0.223   0.547 -0.7922 -0.1769 -0.1305
 7825SOL    HW224896   7.431   0.362   0.516 -0.4484  0.0249  1.2318
 7826SOL     OW24897   3.530   5.384   3.446 -0.2937 -0.9021 -0.0337
 7826SOL    HW124898   3.461   5.388   3.380 -1.1913  2.3619  0.8988
 7826SOL    HW224899   3.484   5.400   3.529  1.1730 -2.1562  1.0865
 7827SOL     OW24900   2.971   2.621   0.172  0.5208 -0.3227  0.6627
 7827SOL    HW124901   2.995   2.585   0.257  0.3974  0.5535  1.0880
 7827SOL    HW224902   2.876   2.629   0.175  0.6085  0.8053  0.9174
 7828SOL     OW24903   5.636   1.547   4.107  0.2016  0.0059 -0.0353
 7828SOL    HW124904   5.659   1.612   4.041  1.0429 -0.9392 -0.7014
 7828SOL    HW224905   5.693   1.566   4.181 -1.3149  1.5946  0.8156
 7829SOL     OW24906   1.101   1.266   0.047 -0.5140  0.1353  0.1769
 7829SOL    HW124907   1.091   1.269  -0.048  0.6750  0.1640  0.0299
 7829SOL    HW224908   1.015   1.288   0.081 -0.6894  1.2556 -0.9012
 7830SOL     OW24909   0.746   0.325   3.254 -0.1667 -0.1218 -0.4090
 7830SOL    HW124910   0.839   0.346   3.263  0.4142 -0.1179 -4.4709
 7830SOL    HW224911   0.702   0.410   3.258  0.4483  0.2879 -1.7851
 7831SOL     OW24912   6.962   0.165   6.858 -0.3444 -0.2584  0.6384
 7831SOL    HW124913   7.052   0.138   6.838  0.3567  1.4225  1.3532
 7831SOL    HW224914   6.944   0.236   6.796 -0.0679  1.4088  2.3757
 7832SOL     OW24915   6.201   1.805   1.060 -0.5791  0.3316  0.5318
 7832SOL    HW124916   6.290   1.770   1.050 -0.9759 -0.2177 -1.3296
 7832SOL    HW224917   6.170   1.768   1.143  0.0240 -1.5427 -0.0318
 7833SOL     OW24918   3.135   7.061   6.199  0.6992 -0.2662 -0.0891
 7833SOL    HW124919   3.206   7.051   6.263  0.7421 -0.1490 -0.1168
 7833SOL    HW224920   3.122   7.156   6.193  2.2141 -0.1135 -1.8862
 7834SOL     OW24921   4.605   5.600   5.994  0.1668 -0.2166 -0.1896
 7834SOL    HW124922   4.606   5.508   6.018 -0.5529 -0.3451 -0.6187
 7834SOL    HW224923   4.514   5.627   6.005  0.4758  0.5974  0.4850
 7835SOL     OW24924   7.256   3.084   5.604 -0.0515  0.0989 -0.2042
 7835SOL    HW124925   7.211   3.106   5.685  0.1687 -0.7051  0.1518
 7835SOL    HW224926   7.316   3.013   5.628 -0.2486 -0.4098 -1.1400
 7836SOL     OW24927   4.511   1.185   5.584 -0.1487 -0.4578  0.1739
 7836SOL    HW124928   4.545   1.202   5.672 -0.7112 -0.1139  0.3342
 7836SOL    HW224929   4.428   1.232   5.581 -0.8526 -1.6455 -0.0331
 7837SOL     OW24930   5.665   8.335   4.616  0.3679 -0.0403 -0.6471
 7837SOL    HW124931   5.672   8.430   4.626  0.8522  0.0445 -1.6703
 7837SOL    HW224932   5.598   8.309   4.679  0.5937  0.9115  0.0039
 7838SOL     OW24933   5.924   0.969   5.081  0.3408 -0.2264 -0.6818
 7838SOL    HW124934   5.940   0.878   5.107  1.2094 -0.3315 -1.5072
 7838SOL    HW224935   5.930   1.019   5.162  1.7527 -0.6967 -0.4601
 7839SOL     OW24936   2.036   0.355   3.891  0.0010 -0.2174 -0.1092
 7839SOL    HW124937   1.989   0.431   3.924 -1.9098  0.1551 -3.2429
 7839SOL    HW224938   1.985   0.280   3.922 -0.2108 -0.0278  0.0020
 7840SOL     OW24939   5.070   4.081   3.396  0.4008 -0.1861 -0.2092
 7840SOL    HW124940   5.100   4.041   3.478 -1.9375 -2.1205 -0.1840
 7840SOL    HW224941   5.142   4.068   3.335  1.1036 -1.2068  0.7935
 7841SOL     OW24942   5.088   5.476   4.103 -0.1142 -0.3457  1.0097
 7841SOL    HW124943   5.064   5.389   4.136  0.1224 -0.1854  1.6157
 7841SOL    HW224944   5.010   5.529   4.117 -0.6274 -0.6913 -0.3031
 7842SOL     OW24945   3.439   7.401   5.217 -0.1478  0.1934  0.0663
 7842SOL    HW124946   3.349   7.429   5.201  0.2547  0.8467 -1.1800
 7842SOL    HW224947   3.473   7.380   5.130  0.8198 -0.3226  0.5546
 7843SOL     OW24948   4.277   4.008   8.228 -0.1153 -0.4636 -0.1181
 7843SOL    HW124949   4.279   4.015   8.324  3.2561 -1.5311  0.0172
 7843SOL    HW224950   4.338   4.075   8.198 -0.3368 -0.8537 -1.4772
 7844SOL     OW24951   0.817   5.050   6.443  0.2310 -0.0078 -0.3310
 7844SOL    HW124952   0.883   5.117   6.426  1.0133 -1.0153 -1.4876
 7844SOL    HW224953   0.737   5.098   6.461  1.1679  1.2484  0.6398
 7845SOL     OW24954   2.839   0.306   6.977  0.8437 -0.3013  0.2009
 7845SOL    HW124955   2.749   0.329   6.955  1.4219 -0.5159 -2.8897
 7845SOL    HW224956   2.857   0.353   7.058 -1.1267  2.1493 -0.6533
 7846SOL     OW24957   2.081   7.556   2.234 -0.0741 -0.8018 -0.2204
 7846SOL    HW124958   2.093   7.461   2.243  0.0383 -0.7811 -0.1336
 7846SOL    HW224959   2.002   7.575   2.284 -0.3439 -0.9120 -0.6059
 7847SOL     OW24960   3.682   3.899   8.028  0.3391 -0.2406  0.2154
 7847SOL    HW124961   3.620   3.826   8.040 -2.6104  2.1187  0.5803
 7847SOL    HW224962   3.766   3.864   8.056 -0.7862 -3.6521 -0.1692
 7848SOL     OW24963   0.600   8.242   1.692 -0.2024 -0.3648 -0.1042
 7848SOL    HW124964   0.671   8.266   1.633  0.5910 -1.7150  0.2755
 7848SOL    HW224965   0.630   8.268   1.779  0.7168 -2.6268  0.3345
 7849SOL     OW24966   3.458   5.722   3.231 -0.3166  0.4932 -0.3668
 7849SOL    HW124967   3.552   5.725   3.216  0.0886  0.8563  1.8608
 7849SOL    HW224968   3.422   5.787   3.170  0.7882 -0.0182 -1.6112
 7850SOL     OW24969   1.898   6.130   0.888 -0.7197 -0.2381  0.4374
 7850SOL    HW124970   1.854   6.048   0.866  0.0995 -0.8029  0.8813
 7850SOL    HW224971   1.948   6.152   0.810 -0.5037 -0.4499  0.5161
 7851SOL     OW24972   6.209   0.960   1.625  0.1211  0.3461  0.2973
 7851SOL    HW124973   6.139   0.905   1.591  0.5531  0.3434 -0.6452
 7851SOL    HW224974   6.287   0.903   1.622  0.2947  0.5580  0.6942
 7852SOL     OW24975   5.410   2.235   7.732  0.2540  0.4164  0.1830
 7852SOL    HW124976   5.467   2.303   7.766  2.2356 -1.5188  0.9371
 7852SOL    HW224977   5.467   2.159   7.720 -1.0793 -0.2001 -3.8882
 7853SOL     OW24978   5.419   2.992   3.331  0.3629 -0.1085  0.1376
 7853SOL    HW124979   5.361   2.995   3.255 -0.2398 -1.1102  0.5458
 7853SOL    HW224980   5.486   3.058   3.312 -0.8578  1.0418 -0.3737
 7854SOL     OW24981   4.307   3.172   0.961 -0.0513 -0.8757 -0.2995
 7854SOL    HW124982   4.301   3.135   1.049 -0.2128 -0.4756 -0.1411
 7854SOL    HW224983   4.222   3.151   0.921 -0.7131  0.5318  0.2746
 7855SOL     OW24984   2.695   6.134   5.298 -0.0183  0.4427  0.2922
 7855SOL    HW124985   2.613   6.107   5.256 -0.9033  1.7671  1.1172
 7855SOL    HW224986   2.669   6.167   5.384  1.3254  1.3115  0.3993
 7856SOL     OW24987   2.122   7.558   6.432 -0.4580  0.2515 -0.7047
 7856SOL    HW124988   2.121   7.653   6.442  1.9314  0.5191 -2.3409
 7856SOL    HW224989   2.147   7.525   6.519  1.6198  1.3279 -0.8459
 7857SOL     OW24990   3.739   7.278   0.769 -0.3331 -0.0625  0.3362
 7857SOL    HW124991   3.692   7.225   0.705 -0.8450  0.4993  0.2413
 7857SOL    HW224992   3.671   7.324   0.817  0.0379 -0.5966  1.4030
 7858SOL     OW24993   4.670   6.375   5.289 -0.6285 -0.6840 -0.1579
 7858SOL    HW124994   4.602   6.439   5.268 -1.4209 -1.2768  0.5221
 7858SOL    HW224995   4.639   6.334   5.370  1.9983  1.0887  1.9046
 7859SOL     OW24996   6.164   4.317   7.018 -0.3175  0.1141  0.2366
 7859SOL    HW124997   6.220   4.245   6.989 -0.1621  0.5701 -0.6119
 7859SOL    HW224998   6.225   4.391   7.031 -0.3990 -0.0218  1.5778
 7860SOL     OW24999   0.697   3.932   3.375  0.3178 -0.2719 -0.3596
 7860SOL    HW125000   0.758   3.864   3.403  0.5330  0.1785  0.3113
 7860SOL    HW225001   0.752   4.007   3.352  0.0679 -0.1906 -0.7005
 7861SOL     OW25002   0.919   7.327   4.152 -0.3163 -0.2670 -0.5668
 7861SOL    HW125003   0.923   7.282   4.067  0.5405 -1.3018 -0.0012
 7861SOL    HW225004   1.006   7.365   4.163 -0.5038  0.0766 -0.2614
 7862SOL     OW25005   1.925   3.828   2.779  0.5711  0.3558 -0.3176
 7862SOL    HW125006   1.877   3.908   2.803 -0.1245  0.4095 -1.7436
 7862SOL    HW225007   1.938   3.782   2.861  0.0780  1.4556  0.4033
 7863SOL     OW25008   1.330   7.106   7.815  0.5470  0.2508  0.2736
 7863SOL    HW125009   1.286   7.046   7.876  2.0744 -1.1642  0.0742
 7863SOL    HW225010   1.372   7.171   7.872 -0.1298  0.4402  0.5683
 7864SOL     OW25011   2.879   0.753   2.416  0.2269  0.4493 -0.0890
 7864SOL    HW125012   2.895   0.842   2.446  2.0507 -0.3073  1.3914
 7864SOL    HW225013   2.958   0.705   2.442 -0.6195 -1.5488 -1.0346
 7865SOL     OW25014   5.904   7.363   3.648 -0.0324 -0.3829  0.3740
 7865SOL    HW125015   5.890   7.269   3.658 -3.0050  0.0870  1.7992
 7865SOL    HW225016   5.882   7.382   3.557  0.3169 -1.0102  0.1542
 7866SOL     OW25017   3.608   4.151   6.735  0.1834  0.1277  0.1949
 7866SOL    HW125018   3.543   4.082   6.724 -0.1357  0.6524 -1.6133
 7866SOL    HW225019   3.591   4.211   6.662  0.7503  1.8792  1.4378
 7867SOL     OW25020   5.756   2.068   0.640 -0.5654 -0.5614 -0.1168
 7867SOL    HW125021   5.732   2.119   0.717 -2.0599  1.1848 -1.6360
 7867SOL    HW225022   5.848   2.090   0.624 -0.7219  0.3453  0.2065
 7868SOL     OW25023   5.372   3.040   1.282 -0.7021  0.0130  0.0852
 7868SOL    HW125024   5.396   2.994   1.362 -1.8696  0.3856  0.6756
 7868SOL    HW225025   5.413   3.126   1.291 -0.1001 -0.2475 -0.1353
 7869SOL     OW25026   7.668   7.307   2.389 -0.2837 -0.4236  0.3912
 7869SOL    HW125027   7.741   7.338   2.443 -1.2476 -0.3955  1.7032
 7869SOL    HW225028   7.641   7.384   2.339  0.8918 -0.5560 -0.4993
 7870SOL     OW25029   0.640   7.655   4.749 -0.3738  0.2970 -0.2125
 7870SOL    HW125030   0.592   7.576   4.772 -1.4665  0.5990 -1.3344
 7870SOL    HW225031   0.573   7.724   4.747  0.0994  0.7400 -1.7427
 7871SOL     OW25032   5.332   5.988   5.707  0.0922 -0.1575 -0.2622
 7871SOL    HW125033   5.303   5.898   5.722  1.1766 -0.4912 -0.0649
 7871SOL    HW225034   5.421   5.990   5.743 -0.8247  1.6983  2.1623
 7872SOL     OW25035   0.969   7.905   6.615 -0.3524 -0.1916  0.3787
 7872SOL    HW125036   0.952   7.987   6.567 -0.2455 -0.5682 -0.3135
 7872SOL    HW225037   0.896   7.898   6.676  0.1329  0.9067  1.1203
 7873SOL     OW25038   2.990   6.195   6.238 -0.1420  0.5261  0.1351
 7873SOL    HW125039   3.082   6.209   6.213 -0.2223  0.1778 -0.3805
 7873SOL    HW225040   2.992   6.119   6.296 -0.0937  0.5610  0.1790
 7874SOL     OW25041   4.051   5.597   4.570 -0.2332  0.4933  0.2593
 7874SOL    HW125042   4.087   5.534   4.632 -0.3485  1.5463  1.4258
 7874SOL    HW225043   4.127   5.647   4.539 -0.3552  0.9278  0.6600
 7875SOL     OW25044   0.022   6.372   1.791  0.4923 -0.2097  0.1201
 7875SOL    HW125045   0.113   6.362   1.766  0.5541 -0.3793  0.4056
 7875SOL    HW225046   0.020   6.349   1.884  0.7308  2.7260  0.9720
 7876SOL     OW25047   2.058   3.320   8.361  0.3751  0.0345 -0.1827
 7876SOL    HW125048   1.969   3.334   8.394  0.8903  0.3356  1.1483
 7876SOL    HW225049   2.046   3.277   8.277 -1.0417  0.4694 -0.2258
 7877SOL     OW25050   4.738   3.574   6.026  0.5392 -0.1321  0.2269
 7877SOL    HW125051   4.647   3.588   6.002  0.2269 -0.7984  0.9872
 7877SOL    HW225052   4.785   3.649   5.988  0.2246 -1.4008 -3.0757
 7878SOL     OW25053   2.809   5.505   3.615  0.7691  0.5071  0.2538
 7878SOL    HW125054   2.847   5.574   3.561 -0.0257  1.3855  0.7841
 7878SOL    HW225055   2.789   5.435   3.553  0.4890  1.2321 -0.5030
 7879SOL     OW25056   1.955   1.996   6.514 -0.4604  0.0060  0.1871
 7879SOL    HW125057   1.958   1.982   6.609  0.1894  0.3729  0.2249
 7879SOL    HW225058   1.892   2.067   6.503 -1.5960 -0.9513  0.2191
 7880SOL     OW25059   0.146   3.409   4.448  0.2366  0.0778  0.3102
 7880SOL    HW125060   0.072   3.469   4.447 -0.3573 -0.6340  0.0911
 7880SOL    HW225061   0.111   3.328   4.485  0.9576 -0.2032  0.3980
 7881SOL     OW25062   1.180   3.489   5.318 -0.0784  0.3809  0.1985
 7881SOL    HW125063   1.169   3.529   5.404 -0.9436 -1.2071  0.8665
 7881SOL    HW225064   1.116   3.418   5.315  0.2878  0.0548 -1.5552
 7882SOL     OW25065   1.249   6.573   2.944  0.7315  0.5904 -0.1575
 7882SOL    HW125066   1.239   6.662   2.910  1.1549  1.0830  0.9441
 7882SOL    HW225067   1.240   6.584   3.039  1.4109 -0.4557  0.0338
 7883SOL     OW25068   4.496   2.780   0.732 -0.3087 -0.6632  0.1385
 7883SOL    HW125069   4.532   2.798   0.819 -2.6404 -1.7783  1.4549
 7883SOL    HW225070   4.438   2.853   0.714 -0.6138 -0.9371 -0.0062
 7884SOL     OW25071   4.399   1.965   3.627  0.4533  0.2014 -0.4125
 7884SOL    HW125072   4.389   1.982   3.721 -1.5444  0.2256 -0.5971
 7884SOL    HW225073   4.490   1.990   3.608  0.9577  0.0146  1.5349
 7885SOL     OW25074   0.220   4.282   4.972  0.5273  0.3866 -0.4281
 7885SOL    HW125075   0.211   4.223   4.897 -1.2325 -0.0651  0.0886
 7885SOL    HW225076   0.139   4.333   4.972  0.9162  1.0334  0.6257
 7886SOL     OW25077   6.926   1.750   6.172 -0.2550  0.5386 -0.3083
 7886SOL    HW125078   6.911   1.808   6.098  0.0972  0.5635 -0.3596
 7886SOL    HW225079   6.901   1.663   6.139 -0.2459  0.5729 -0.4065
 7887SOL     OW25080   8.365   6.756   2.543 -0.0877 -0.0306  0.2195
 7887SOL    HW125081   8.357   6.846   2.511 -0.9296  0.0565  0.6415
 7887SOL    HW225082   8.333   6.702   2.471  0.7255 -0.0256 -0.1602
 7888SOL     OW25083   1.177   3.618   2.665 -0.0694  0.4334  0.0733
 7888SOL    HW125084   1.259   3.647   2.705  0.9426 -0.9491 -0.9276
 7888SOL    HW225085   1.178   3.523   2.673 -1.1634  0.3310 -0.7612
 7889SOL     OW25086   5.127   2.196   1.989 -0.1550 -0.4864  0.4190
 7889SOL    HW125087   5.201   2.252   2.012  0.1459 -0.8474  0.3467
 7889SOL    HW225088   5.049   2.245   2.016  0.1483 -0.5165  1.3893
 7890SOL     OW25089   7.236   0.821   8.037 -0.0722 -0.4217 -0.6402
 7890SOL    HW125090   7.278   0.894   8.082 -0.3358 -2.0268  2.5479
 7890SOL    HW225091   7.278   0.817   7.952  2.5461  1.1896  0.4529
 7891SOL     OW25092   0.978   4.632   3.425 -0.0465  0.0028  0.0129
 7891SOL    HW125093   0.978   4.691   3.500  1.1375  0.4041 -0.2858
 7891SOL    HW225094   1.040   4.563   3.449 -0.5752 -0.5218 -0.1042
 7892SOL     OW25095   3.455   7.987   4.460 -0.7923 -0.2469 -0.0173
 7892SOL    HW125096   3.427   7.896   4.474  0.6470 -0.8747 -0.9334
 7892SOL    HW225097   3.525   7.980   4.395 -0.9856  1.5831 -0.4613
 7893SOL     OW25098   3.024   4.204   3.175 -0.2695  0.2250  0.4282
 7893SOL    HW125099   2.954   4.191   3.111  0.5028 -1.5060 -0.1232
 7893SOL    HW225100   3.102   4.223   3.122  0.6691 -2.4952  0.6664
 7894SOL     OW25101   4.759   3.044   2.274  0.2561 -0.1988 -0.4359
 7894SOL    HW125102   4.731   3.028   2.364  1.6898 -0.4508 -0.0005
 7894SOL    HW225103   4.847   3.007   2.270  0.1725 -0.2850 -1.9824
 7895SOL     OW25104   2.370   5.899   7.293  0.0345  0.1773  0.1520
 7895SOL    HW125105   2.344   5.980   7.250  1.0038  0.1026 -0.5968
 7895SOL    HW225106   2.302   5.885   7.359 -0.9898  0.7823 -0.7260
 7896SOL     OW25107   2.993   8.273   1.304  0.1635  0.2484 -0.0511
 7896SOL    HW125108   2.915   8.245   1.255 -0.4526 -0.7945  1.4499
 7896SOL    HW225109   2.972   8.254   1.396  1.3719  1.9074  0.6247
 7897SOL     OW25110   2.656   4.288   0.187  0.1422 -0.3904  0.4655
 7897SOL    HW125111   2.644   4.297   0.282 -1.0912 -0.8368  0.3635
 7897SOL    HW225112   2.705   4.366   0.162  0.6992 -0.3861  1.5054
 7898SOL     OW25113   5.408   6.482   6.993 -0.3133  0.5700  0.1413
 7898SOL    HW125114   5.371   6.423   6.927  0.6438  0.1140 -0.0061
 7898SOL    HW225115   5.475   6.532   6.947  1.0035 -0.3927  0.9362
 7899SOL     OW25116   6.968   7.027   2.672  0.3814 -0.1935 -0.3070
 7899SOL    HW125117   7.034   7.089   2.701  0.4771  0.6350 -2.1414
 7899SOL    HW225118   6.912   7.077   2.613 -0.3076 -1.5332 -0.8431
 7900SOL     OW25119   4.293   4.733   7.931  0.4460 -0.2745 -0.1878
 7900SOL    HW125120   4.383   4.720   7.961  0.4980 -0.4782 -0.4333
 7900SOL    HW225121   4.271   4.821   7.960  0.4762 -0.4874  0.5061
 7901SOL     OW25122   7.129   7.581   8.049  0.0897 -0.2787 -0.0866
 7901SOL    HW125123   7.097   7.492   8.059  0.6950 -0.5746 -0.6788
 7901SOL    HW225124   7.056   7.637   8.076 -0.0474 -0.9586  0.9859
 7902SOL     OW25125   6.091   4.383   1.217 -0.1194  0.2425 -0.0549
 7902SOL    HW125126   6.137   4.300   1.231 -0.1734  0.3713  0.8967
 7902SOL    HW225127   6.100   4.430   1.300 -2.6997 -0.0838  0.4662
 7903SOL     OW25128   3.373   0.960   1.944  0.1800 -0.0344 -0.0718
 7903SOL    HW125129   3.323   1.039   1.963 -0.9147  0.2643 -3.4951
 7903SOL    HW225130   3.449   0.991   1.895 -0.8372 -1.0775 -2.4568
 7904SOL     OW25131   1.935   6.498   5.121  0.2918  0.2540 -0.2240
 7904SOL    HW125132   2.009   6.541   5.163 -1.0445  1.2338  1.2206
 7904SOL    HW225133   1.889   6.568   5.075 -0.2939 -0.1583 -0.2786
 7905SOL     OW25134   4.071   5.731   3.279  0.0652  0.0720 -0.3287
 7905SOL    HW125135   4.065   5.768   3.191 -0.1363  0.5925 -0.0995
 7905SOL    HW225136   4.100   5.641   3.266  0.0415  0.1527 -0.9269
 7906SOL     OW25137   3.155   4.124   5.286  0.5583 -0.1834  0.7429
 7906SOL    HW125138   3.132   4.076   5.366 -2.7994  3.2101  2.1104
 7906SOL    HW225139   3.227   4.181   5.312 -0.3070  0.6731  1.3501
 7907SOL     OW25140   5.861   7.581   0.301 -0.1182  0.5287 -0.4923
 7907SOL    HW125141   5.937   7.637   0.312 -1.0143  1.3827  1.9654
 7907SOL    HW225142   5.831   7.563   0.390 -0.6418 -2.8401 -1.2225
 7908SOL     OW25143   1.785   0.871   7.753 -0.5640  0.8249  0.0036
 7908SOL    HW125144   1.848   0.917   7.808  0.7669  0.0455 -0.8276
 7908SOL    HW225145   1.758   0.936   7.688  0.7654  0.6805 -0.7265
 7909SOL     OW25146   0.699   5.345   2.313  0.2556 -0.3583  0.6730
 7909SOL    HW125147   0.707   5.356   2.408 -1.3574 -0.3231  0.8323
 7909SOL    HW225148   0.612   5.378   2.292  0.3714 -0.8803 -0.7483
 7910SOL     OW25149   1.729   2.730   7.160 -0.1733  0.0549 -0.2918
 7910SOL    HW125150   1.809   2.775   7.187  0.2156  1.4709 -3.3905
 7910SOL    HW225151   1.748   2.637   7.174  1.3898  0.4590  0.5316
 7911SOL     OW25152   7.216   6.120   5.498  0.4510 -0.4080  0.2710
 7911SOL    HW125153   7.144   6.181   5.485  0.1090 -0.6116  1.1611
 7911SOL    HW225154   7.207   6.090   5.588  0.4355 -1.9996 -0.2315
 7912SOL     OW25155   2.406   2.710   2.583 -0.4407 -0.2258 -0.3808
 7912SOL    HW125156   2.342   2.647   2.615 -1.5458  1.2728  0.4608
 7912SOL    HW225157   2.457   2.733   2.661 -0.6752  0.6434 -0.4842
 7913SOL     OW25158   3.071   3.812   3.237 -0.4283  0.6978  0.0546
 7913SOL    HW125159   3.037   3.892   3.277  0.4863  0.1452  2.0841
 7913SOL    HW225160   3.150   3.839   3.190 -0.9979  1.2124 -0.6228
 7914SOL     OW25161   7.886   7.688   7.874  0.3200  0.2284  0.0194
 7914SOL    HW125162   7.820   7.632   7.916  0.3918  2.2831  3.1765
 7914SOL    HW225163   7.968   7.639   7.882  0.0259 -0.1610  0.7043
 7915SOL     OW25164   7.056   1.750   3.240 -0.2827 -0.4952 -0.4199
 7915SOL    HW125165   7.138   1.800   3.238 -1.2097  1.1384  0.3238
 7915SOL    HW225166   7.083   1.662   3.264  1.1977  0.2260  0.7713
 7916SOL     OW25167   2.322   5.254   4.210  0.3688 -0.3540 -0.3251
 7916SOL    HW125168   2.342   5.243   4.303 -1.4083 -2.6091 -0.1193
 7916SOL    HW225169   2.228   5.273   4.207  0.4831  0.1501 -1.6474
 7917SOL     OW25170   7.996   4.022   7.559  0.3544 -0.7583  0.0314
 7917SOL    HW125171   7.930   4.040   7.626  0.0789 -0.4290 -0.3287
 7917SOL    HW225172   8.030   4.107   7.534 -0.1229 -0.8026 -0.8274
 7918SOL     OW25173   7.342   3.354   7.536  0.0767  0.1527  0.2057
 7918SOL    HW125174   7.276   3.423   7.530 -1.3538 -1.1018  0.8188
 7918SOL    HW225175   7.400   3.381   7.607 -0.0916  1.0207  0.0151
 7919SOL     OW25176   0.513   7.858   3.098 -0.2800 -0.0037  0.1656
 7919SOL    HW125177   0.471   7.799   3.161  0.2573  0.0993  0.6289
 7919SOL    HW225178   0.470   7.942   3.112 -0.3593 -0.0486  0.1963
 7920SOL     OW25179   3.814   6.641   7.710 -0.1366  0.4014  0.2825
 7920SOL    HW125180   3.864   6.560   7.700 -1.4369 -0.2505 -1.3730
 7920SOL    HW225181   3.846   6.679   7.792  1.4223 -1.1172  0.4304
 7921SOL     OW25182   6.760   6.545   6.844 -0.1348  0.4487  0.4884
 7921SOL    HW125183   6.684   6.504   6.885 -0.2659  0.8397  0.6385
 7921SOL    HW225184   6.774   6.495   6.764 -0.2300  0.0472  0.7244
 7922SOL     OW25185   3.238   0.025   0.583 -1.1002  0.0369  1.0004
 7922SOL    HW125186   3.189   0.096   0.625 -2.1844 -0.0292 -0.0937
 7922SOL    HW225187   3.188   0.005   0.504 -0.3514 -1.3878  0.8597
 7923SOL     OW25188   7.578   5.010   3.928  0.7406  0.5046 -0.2545
 7923SOL    HW125189   7.649   5.073   3.923  0.4734  0.8141 -0.1854
 7923SOL    HW225190   7.620   4.925   3.919  0.9847  0.7434 -1.4064
 7924SOL     OW25191   7.296   1.468   4.597 -0.3528  0.2524  0.2175
 7924SOL    HW125192   7.303   1.377   4.627 -0.8581 -0.0480 -0.5434
 7924SOL    HW225193   7.202   1.484   4.592 -0.2694  0.6110 -0.2683
 7925SOL     OW25194   6.394   4.104   6.956 -0.4234 -0.1894 -0.0019
 7925SOL    HW125195   6.476   4.114   7.005  0.8238 -0.5746 -1.9358
 7925SOL    HW225196   6.363   4.017   6.979  0.1562 -0.3724  0.0963
 7926SOL     OW25197   3.846   0.265   5.391  0.1936  0.0601  0.3479
 7926SOL    HW125198   3.803   0.181   5.378 -2.5203  1.3031  0.7038
 7926SOL    HW225199   3.839   0.310   5.307 -0.0037  0.6319  0.6632
 7927SOL     OW25200   2.613   2.319   1.952  0.0385  0.4137 -0.0929
 7927SOL    HW125201   2.530   2.354   1.919 -1.0690  0.6877  2.6702
 7927SOL    HW225202   2.642   2.257   1.885 -0.8472  2.4523 -2.5087
 7928SOL     OW25203   7.364   5.766   5.898  0.2050  0.2153  0.4119
 7928SOL    HW125204   7.459   5.778   5.890  0.0025  1.5263 -0.2200
 7928SOL    HW225205   7.332   5.767   5.808 -0.5414  1.0005  0.6754
 7929SOL     OW25206   7.002   8.326   1.417 -0.5464 -0.4806 -0.0005
 7929SOL    HW125207   7.078   8.355   1.467 -0.3309 -0.6896 -0.2033
 7929SOL    HW225208   6.938   8.396   1.427  0.9288  1.4787 -2.7386
 7930SOL     OW25209   7.537   2.672   4.623 -0.4904 -0.3849 -0.6973
 7930SOL    HW125210   7.462   2.682   4.564 -0.3675  1.3969 -0.6000
 7930SOL    HW225211   7.591   2.749   4.607 -0.1430 -0.1600  1.3127
 7931SOL     OW25212   6.706   1.032   0.824  0.1263  0.3670 -0.0110
 7931SOL    HW125213   6.781   0.976   0.804 -0.9127 -0.6773 -1.1310
 7931SOL    HW225214   6.744   1.115   0.851  1.6742  0.0129 -1.0218
 7932SOL     OW25215   0.849   7.815   2.505 -0.1699 -0.3776 -0.2543
 7932SOL    HW125216   0.811   7.816   2.417 -0.0906  0.9511 -0.2863
 7932SOL    HW225217   0.894   7.899   2.513  0.0438 -0.5886  0.9722
 7933SOL     OW25218   2.498   1.009   5.527 -0.0434  0.1953  0.2203
 7933SOL    HW125219   2.424   1.003   5.589 -0.5775  1.6076 -0.2369
 7933SOL    HW225220   2.543   0.926   5.536 -0.4028  0.1598  2.1545
 7934SOL     OW25221   3.723   7.131   6.060  0.5818 -0.2332 -0.1269
 7934SOL    HW125222   3.808   7.154   6.024  1.4586  2.2755  3.1216
 7934SOL    HW225223   3.743   7.075   6.136 -0.9334 -2.1829 -1.0672
 7935SOL     OW25224   1.690   0.225   3.797 -0.2128 -0.4081  0.2008
 7935SOL    HW125225   1.717   0.316   3.780  1.4872 -0.8652  0.2730
 7935SOL    HW225226   1.642   0.230   3.880  0.2942  0.3586  0.4627
 7936SOL     OW25227   5.458   2.197   5.557 -0.6699  0.0380  0.3137
 7936SOL    HW125228   5.445   2.104   5.575 -2.8302  0.3836  0.8423
 7936SOL    HW225229   5.547   2.215   5.589  0.4938 -2.1680 -1.4060
 7937SOL     OW25230   3.151   7.591   2.693  0.8419 -0.3385  0.4812
 7937SOL    HW125231   3.198   7.675   2.698  2.6196 -1.2201 -0.6415
 7937SOL    HW225232   3.115   7.579   2.781 -0.6541  2.2266  0.3221
 7938SOL     OW25233   7.878   7.040   1.874  0.4147 -0.6039 -0.5521
 7938SOL    HW125234   7.863   6.964   1.930 -0.9862  0.2626  0.2985
 7938SOL    HW225235   7.881   7.115   1.934  0.5746  0.1595 -1.4759
 7939SOL     OW25236   8.121   0.740   4.273 -0.0232  0.3695  0.0358
 7939SOL    HW125237   8.123   0.798   4.197 -1.8909  0.8170  0.2750
 7939SOL    HW225238   8.157   0.793   4.344  2.5642 -0.3365 -0.6327
 7940SOL     OW25239   2.061   2.469   4.219 -0.0668 -0.1637  0.2839
 7940SOL    HW125240   1.972   2.490   4.192  0.6987  2.0696 -0.7528
 7940SOL    HW225241   2.117   2.509   4.152  1.7269 -1.1746  1.1011
 7941SOL     OW25242   3.845   6.473   7.239 -0.4792  0.2315 -0.4614
 7941SOL    HW125243   3.793   6.414   7.186 -0.0403  0.1244 -0.7801
 7941SOL    HW225244   3.873   6.420   7.314 -0.1621  0.0555 -0.7007
 7942SOL     OW25245   5.200   1.313   5.942 -0.0932 -0.3926  0.2657
 7942SOL    HW125246   5.169   1.366   6.016  0.7447  0.7012 -0.1482
 7942SOL    HW225247   5.126   1.313   5.881  0.3868  1.6189 -0.4070
 7943SOL     OW25248   6.320   7.043   0.848 -0.0250 -0.1551 -0.3507
 7943SOL    HW125249   6.395   6.994   0.883  0.4124  0.5408 -0.2849
 7943SOL    HW225250   6.286   7.090   0.924  1.5936  2.2285 -0.9779
 7944SOL     OW25251   4.763   3.938   1.424  0.6021  0.2396 -0.2341
 7944SOL    HW125252   4.782   3.964   1.334 -1.3853  1.2074 -0.4274
 7944SOL    HW225253   4.673   3.968   1.439  0.9074  0.1610  2.0943
 7945SOL     OW25254   7.139   2.896   6.585  0.0410  0.0377  0.0335
 7945SOL    HW125255   7.207   2.942   6.536  0.3661 -1.2064 -0.7263
 7945SOL    HW225256   7.187   2.838   6.645 -0.3568  0.8184  1.1339
 7946SOL     OW25257   1.746   6.745   0.898 -0.1740 -0.1324 -0.2321
 7946SOL    HW125258   1.807   6.688   0.852  0.1088  0.5755 -0.7544
 7946SOL    HW225259   1.765   6.731   0.991  0.8019  0.0867 -0.3864
 7947SOL     OW25260   6.249   2.672   5.270  0.5420  0.2995  0.4586
 7947SOL    HW125261   6.283   2.733   5.204  0.9127 -0.4969 -0.0984
 7947SOL    HW225262   6.155   2.694   5.276  0.2984 -0.2383 -1.0298
 7948SOL     OW25263   7.566   5.036   5.898 -0.2473 -0.3685 -0.1993
 7948SOL    HW125264   7.652   5.078   5.899 -0.1031 -0.6681  0.2755
 7948SOL    HW225265   7.535   5.042   5.989  0.1108 -1.9448  0.0662
 7949SOL     OW25266   1.089   4.433   4.499 -0.0642 -0.4046  0.3576
 7949SOL    HW125267   1.127   4.510   4.541 -0.4224 -0.4156  0.7083
 7949SOL    HW225268   1.163   4.373   4.485  0.0426 -0.4338  1.0461
 7950SOL     OW25269   0.509   6.715   2.171  0.2666 -0.2245  0.0310
 7950SOL    HW125270   0.601   6.696   2.189  0.2024  1.4502  2.6724
 7950SOL    HW225271   0.461   6.659   2.232 -0.3206  0.7427  0.4784
 7951SOL     OW25272   3.203   1.902   6.589 -0.7993 -0.1058  0.1731
 7951SOL    HW125273   3.294   1.929   6.581 -1.2104  1.3035 -0.0109
 7951SOL    HW225274   3.180   1.870   6.502 -0.2063 -1.4398  0.4829
 7952SOL     OW25275   8.229   5.100   3.353 -0.1032 -0.0334 -0.5098
 7952SOL    HW125276   8.141   5.135   3.367  0.0983  0.2006  0.2175
 7952SOL    HW225277   8.216   5.021   3.300 -0.7612 -0.0687 -0.2988
 7953SOL     OW25278   2.954   3.307   2.400  0.2006  0.5237  0.1362
 7953SOL    HW125279   2.859   3.297   2.404  0.2780 -1.0945 -0.9831
 7953SOL    HW225280   2.968   3.397   2.370 -0.9319  1.0506  1.1264
 7954SOL     OW25281   4.889   4.733   8.105 -0.2903 -0.1123  0.2610
 7954SOL    HW125282   4.924   4.646   8.126  1.1881  0.2290 -0.6595
 7954SOL    HW225283   4.963   4.781   8.070 -1.6600  0.7163 -1.6541
 7955SOL     OW25284   2.612   0.379   2.405  0.0640 -0.9983 -0.3201
 7955SOL    HW125285   2.640   0.363   2.315  0.3426 -1.9956 -0.0605
 7955SOL    HW225286   2.677   0.441   2.439  0.8185 -1.7681 -0.3434
 7956SOL     OW25287   1.153   3.608   0.316  0.0895 -0.4252  0.0761
 7956SOL    HW125288   1.081   3.654   0.358  0.9620  1.5825 -0.5058
 7956SOL    HW225289   1.117   3.580   0.232  0.3182  1.9450 -0.9099
 7957SOL     OW25290   4.404   7.631   7.119  0.0912  0.2526 -0.0136
 7957SOL    HW125291   4.429   7.706   7.173 -0.9101 -0.0843  0.9668
 7957SOL    HW225292   4.342   7.667   7.056 -0.0873  0.3224  0.2007
 7958SOL     OW25293   2.124   5.770   0.603  0.0832  0.1528  0.0981
 7958SOL    HW125294   2.129   5.799   0.694  0.9250 -0.9515  0.4306
 7958SOL    HW225295   2.197   5.709   0.593 -0.5165 -0.4190 -1.0710
 7959SOL     OW25296   2.777   0.551   2.856 -0.2748 -0.3941 -0.1009
 7959SOL    HW125297   2.838   0.488   2.893 -0.4430 -1.8226 -2.0906
 7959SOL    HW225298   2.696   0.540   2.907 -0.8955 -3.1707 -1.4894
 7960SOL     OW25299   2.773   1.480   4.590  0.5715  0.2915  0.5511
 7960SOL    HW125300   2.760   1.574   4.578  0.8845  0.6548  2.7266
 7960SOL    HW225301   2.866   1.471   4.613  0.3897 -0.4633  1.0184
 7961SOL     OW25302   4.234   3.930   3.427 -0.6499  0.3471 -0.3791
 7961SOL    HW125303   4.170   3.872   3.468 -0.7970  0.1041 -0.9406
 7961SOL    HW225304   4.319   3.898   3.459 -0.5444 -1.5762 -2.2789
 7962SOL     OW25305   2.061   1.347   8.059  0.3122  0.1476 -0.7232
 7962SOL    HW125306   2.155   1.328   8.053  0.1959 -0.5247 -0.4145
 7962SOL    HW225307   2.037   1.373   7.970  0.7498  0.1276 -0.8515
 7963SOL     OW25308   6.580   5.686   1.124  0.3593  0.7131  0.0898
 7963SOL    HW125309   6.581   5.781   1.110  0.1856  0.7969  0.6329
 7963SOL    HW225310   6.659   5.654   1.080  0.2250  1.0604 -0.4185
 7964SOL     OW25311   3.604   4.182   7.970  0.3130 -0.1092 -0.2675
 7964SOL    HW125312   3.634   4.093   7.987 -2.3591 -1.4019 -1.6453
 7964SOL    HW225313   3.608   4.191   7.875  0.2250  1.1556 -0.1729
 7965SOL     OW25314   4.273   1.185   0.967  0.7232  0.4930  0.2000
 7965SOL    HW125315   4.274   1.267   1.016 -0.4161  2.2317 -2.4318
 7965SOL    HW225316   4.341   1.197   0.900 -0.6343  0.0753 -1.3176
 7966SOL     OW25317   6.821   8.000   4.923  0.0004  0.6514  0.6668
 7966SOL    HW125318   6.906   7.967   4.892 -0.1880  1.5923 -0.9831
 7966SOL    HW225319   6.843   8.080   4.970  0.0845  0.4868  0.9114
 7967SOL     OW25320   1.171   8.137   4.266 -0.3831  0.1412 -0.4533
 7967SOL    HW125321   1.225   8.090   4.203 -0.5292 -0.9518  0.2011
 7967SOL    HW225322   1.233   8.180   4.324 -0.2471  0.8551 -1.1166
 7968SOL     OW25323   3.426   4.787   2.679 -0.5483 -0.0891  0.1952
 7968SOL    HW125324   3.332   4.769   2.690 -0.6788  0.7124  0.4560
 7968SOL    HW225325   3.448   4.846   2.751  0.1580 -0.2621  0.1271
 7969SOL     OW25326   0.137   1.139   0.281 -0.2384 -0.5545  0.2274
 7969SOL    HW125327   0.175   1.057   0.248  1.2393 -0.5409  1.7245
 7969SOL    HW225328   0.115   1.120   0.372 -1.9814  0.0864 -0.0225
 7970SOL     OW25329   6.511   0.085   3.886 -0.0066 -0.3245  0.0021
 7970SOL    HW125330   6.539   0.171   3.855  0.2787  0.1193  1.4046
 7970SOL    HW225331   6.569   0.066   3.960 -0.6477 -1.3265  0.2688
 7971SOL     OW25332   0.495   4.862   6.142  0.0447 -0.2313  0.3449
 7971SOL    HW125333   0.558   4.933   6.132 -0.5707  0.4957  1.3884
 7971SOL    HW225334   0.414   4.897   6.105  0.4761 -1.5984 -2.1220
 7972SOL     OW25335   4.089   4.192   5.952 -0.6171  0.0792 -0.0562
 7972SOL    HW125336   4.020   4.257   5.943  0.4636  1.0136 -2.6133
 7972SOL    HW225337   4.049   4.110   5.922 -0.8110  0.5071 -1.0120
 7973SOL     OW25338   4.379   0.532   5.900  0.4140  0.2024  0.2553
 7973SOL    HW125339   4.292   0.520   5.861  1.3226 -0.0262 -1.7912
 7973SOL    HW225340   4.367   0.607   5.959 -1.3360 -0.2950  0.6103
 7974SOL     OW25341   4.404   3.956   5.558  0.4799  0.2075  0.2419
 7974SOL    HW125342   4.385   4.044   5.593 -0.4192  0.1173  0.0164
 7974SOL    HW225343   4.339   3.944   5.489  0.0975 -0.9306  0.7701
 7975SOL     OW25344   2.205   8.256   7.422  0.6161 -0.1570 -0.7257
 7975SOL    HW125345   2.143   8.318   7.383 -0.2448 -0.3595  0.2858
 7975SOL    HW225346   2.290   8.296   7.407  0.0196  1.8267  0.8200
 7976SOL     OW25347   7.999   8.336   2.975  0.4538  0.2080 -0.0907
 7976SOL    HW125348   8.019   8.320   3.067  5.2403 -0.7945 -1.0318
 7976SOL    HW225349   8.022   8.428   2.961  1.1336 -0.0233 -0.5307
 7977SOL     OW25350   1.088   6.867   6.326 -0.0347  0.0888 -0.0298
 7977SOL    HW125351   1.113   6.960   6.330  2.1890 -0.4873  1.7786
 7977SOL    HW225352   1.024   6.857   6.397  0.6385  0.0391  0.5861
 7978SOL     OW25353   3.669   7.333   5.749  0.6045  0.4869  0.1221
 7978SOL    HW125354   3.700   7.243   5.738 -0.4009  0.0641  0.6286
 7978SOL    HW225355   3.725   7.369   5.819 -0.0585 -0.2846  1.0760
 7979SOL     OW25356   6.187   0.669   4.016 -0.6012  0.2249  0.2555
 7979SOL    HW125357   6.166   0.758   3.985 -0.6228 -0.1390 -0.8124
 7979SOL    HW225358   6.187   0.616   3.937  0.0635 -0.6162  0.8075
 7980SOL     OW25359   0.646   2.658   5.015  0.5178 -0.8478  0.3010
 7980SOL    HW125360   0.602   2.689   5.094 -0.5415  0.2935 -0.7007
 7980SOL    HW225361   0.737   2.643   5.043  0.3213  0.1274  1.5840
 7981SOL     OW25362   6.839   0.811   7.303 -0.2954  0.0598  0.3833
 7981SOL    HW125363   6.778   0.871   7.258 -0.6227  0.9528  1.9571
 7981SOL    HW225364   6.791   0.782   7.380  1.1428  0.5000  1.4714
 7982SOL     OW25365   4.289   4.177   5.697 -0.1593 -0.4420  0.3647
 7982SOL    HW125366   4.331   4.251   5.741  0.5296 -0.3418 -0.4298
 7982SOL    HW225367   4.219   4.149   5.757 -0.8885  1.2941  0.3840
 7983SOL     OW25368   3.767   7.127   2.209 -0.0566 -0.3789 -0.7150
 7983SOL    HW125369   3.676   7.135   2.237 -0.1337  0.1790 -1.1083
 7983SOL    HW225370   3.782   7.033   2.202 -0.4369 -0.4889 -0.1236
 7984SOL     OW25371   7.473   3.232   5.921  0.5119 -0.2284  0.7333
 7984SOL    HW125372   7.540   3.191   5.867 -0.2505 -0.8094  0.1903
 7984SOL    HW225373   7.414   3.273   5.858 -0.9319 -1.7521  1.0060
 7985SOL     OW25374   3.229   1.502   5.458 -0.0222  0.1492  0.1806
 7985SOL    HW125375   3.249   1.459   5.541 -1.2423 -2.7812 -0.8977
 7985SOL    HW225376   3.314   1.520   5.419  0.5546  0.2424  1.4271
 7986SOL     OW25377   8.038   2.679   3.478 -0.3210  0.0538 -0.1274
 7986SOL    HW125378   7.977   2.668   3.551 -1.7292 -2.3900 -1.5633
 7986SOL    HW225379   8.006   2.757   3.431 -1.1120 -0.0374  0.2580
 7987SOL     OW25380   4.144   0.446   2.290  0.4236 -0.4016  0.6577
 7987SOL    HW125381   4.205   0.504   2.245 -1.4047  0.6276 -0.6090
 7987SOL    HW225382   4.096   0.403   2.220 -1.1964 -0.2016  1.5984
 7988SOL     OW25383   5.292   0.189   5.703  0.0124 -0.6071  0.1245
 7988SOL    HW125384   5.326   0.135   5.632 -0.0716 -2.5337  1.4715
 7988SOL    HW225385   5.201   0.161   5.712  0.6374 -2.0970  2.4556
 7989SOL     OW25386   1.541   7.841   2.728  0.2356  0.5738 -0.0624
 7989SOL    HW125387   1.519   7.793   2.648  0.2870  0.3192  0.0763
 7989SOL    HW225388   1.594   7.780   2.779  0.9263  1.0296 -0.2094
 7990SOL     OW25389   1.717   8.308   2.441  0.3832 -0.3392  0.1462
 7990SOL    HW125390   1.804   8.282   2.409 -0.0248 -2.0356  0.3303
 7990SOL    HW225391   1.682   8.229   2.482 -1.2023  0.3491  0.1877
 7991SOL     OW25392   5.386   4.037   6.481 -0.5718  0.0910 -0.4931
 7991SOL    HW125393   5.346   4.124   6.476 -1.0667  0.2805  3.3170
 7991SOL    HW225394   5.480   4.054   6.475 -0.6421  1.0030  0.5301
 7992SOL     OW25395   2.126   1.903   0.869 -0.1765 -0.1226  0.9169
 7992SOL    HW125396   2.036   1.888   0.839 -0.0641  0.7233  0.1076
 7992SOL    HW225397   2.157   1.817   0.896 -1.3250 -0.3795  1.4851
 7993SOL     OW25398   0.581   2.875   4.050  0.2008  0.2987  0.7936
 7993SOL    HW125399   0.518   2.901   3.983  1.4869  0.9483 -0.2112
 7993SOL    HW225400   0.618   2.958   4.081  1.4873 -0.1075  0.4129
 7994SOL     OW25401   4.581   3.839   6.811  0.0924  0.0778  0.0707
 7994SOL    HW125402   4.578   3.799   6.898 -1.2741  1.2911  0.6125
 7994SOL    HW225403   4.630   3.920   6.823 -1.2547  0.9213  0.0248
 7995SOL     OW25404   8.060   7.188   8.120 -0.3734  0.2959 -0.0726
 7995SOL    HW125405   7.998   7.116   8.108 -1.0277  0.5045  1.6856
 7995SOL    HW225406   8.143   7.145   8.138 -0.9521 -0.1045  1.9266
 7996SOL     OW25407   3.823   4.295   5.671 -0.5618  0.1993 -0.1598
 7996SOL    HW125408   3.913   4.283   5.640 -0.1696  0.1089  0.9748
 7996SOL    HW225409   3.832   4.351   5.748 -1.2851 -1.2510  1.0270
 7997SOL     OW25410   0.680   1.672   4.605 -0.0209 -0.5733  0.4448
 7997SOL    HW125411   0.686   1.692   4.699  2.1444  0.5665  0.1520
 7997SOL    HW225412   0.769   1.686   4.573 -1.0579  0.8146 -2.1100
 7998SOL     OW25413   4.213   1.283   0.617 -0.1555  0.0745 -0.1155
 7998SOL    HW125414   4.294   1.241   0.589  1.5103  3.2807 -0.5970
 7998SOL    HW225415   4.233   1.377   0.616 -3.6467  0.9754  0.5438
 7999SOL     OW25416   0.799   7.946   0.775  0.2685 -0.1384  0.0338
 7999SOL    HW125417   0.704   7.935   0.783  0.4895 -1.3678  1.3957
 7999SOL    HW225418   0.835   7.861   0.800  1.7925  0.8479  1.3502
 8000SOL     OW25419   3.991   1.721   6.874 -0.2508  0.1198  0.1918
 8000SOL    HW125420   3.900   1.701   6.895  0.2777 -0.8986  1.6402
 8000SOL    HW225421   4.021   1.646   6.822 -1.0103  1.7742 -2.9222
 8001SOL     OW25422   5.184   0.987   0.167 -0.3707  0.1907  0.3555
 8001SOL    HW125423   5.149   1.064   0.122  0.3001  1.3613  1.7459
 8001SOL    HW225424   5.274   1.011   0.189 -0.1224 -1.0287  0.7604
 8002SOL     OW25425   6.941   3.103   2.229  0.1604  0.4273  0.5057
 8002SOL    HW125426   7.012   3.164   2.213 -0.8663  1.7327  0.7187
 8002SOL    HW225427   6.890   3.102   2.148 -0.9794  1.4717  1.1769
 8003SOL     OW25428   8.018   2.314   6.338  0.3938  0.1644 -0.2173
 8003SOL    HW125429   7.964   2.348   6.267  0.9088  1.1338 -0.1564
 8003SOL    HW225430   8.028   2.221   6.318 -0.7653  0.1017 -0.5628
 8004SOL     OW25431   1.426   2.776   7.849 -0.0840 -0.4864 -0.3889
 8004SOL    HW125432   1.508   2.749   7.889 -0.3838 -0.4032  0.3050
 8004SOL    HW225433   1.392   2.697   7.808  0.0049 -0.6890 -0.0759
 8005SOL     OW25434   4.029   7.707   4.773 -0.2867 -0.4765 -0.2283
 8005SOL    HW125435   4.032   7.698   4.677 -0.5295 -0.4448 -0.2397
 8005SOL    HW225436   3.965   7.777   4.788  1.2133  0.9448 -0.1253
 8006SOL     OW25437   4.192   8.087   0.885 -0.4967  0.1064 -0.0001
 8006SOL    HW125438   4.159   8.158   0.830  1.5709  0.9245 -0.2993
 8006SOL    HW225439   4.192   8.123   0.973  0.2176  0.3798 -0.1024
 8007SOL     OW25440   1.144   3.722   3.395  0.0718 -0.5453 -0.0274
 8007SOL    HW125441   1.224   3.767   3.424 -0.0477 -0.2527 -0.1541
 8007SOL    HW225442   1.168   3.683   3.311  0.4900 -1.5884  0.5501
 8008SOL     OW25443   6.110   7.891   7.467  0.0938  0.1726  0.2765
 8008SOL    HW125444   6.140   7.814   7.515  1.7453  0.5743 -0.0484
 8008SOL    HW225445   6.033   7.860   7.417  2.2520 -2.0617 -1.9765
 8009SOL     OW25446   0.774   6.565   6.428 -0.2544  0.2538 -0.2502
 8009SOL    HW125447   0.742   6.494   6.372  1.4144 -1.4082  0.8188
 8009SOL    HW225448   0.744   6.645   6.383 -0.7364 -1.0451 -2.4070
 8010SOL     OW25449   3.410   3.251   5.785  0.3760  0.6262 -0.0102
 8010SOL    HW125450   3.470   3.184   5.817 -0.6466 -1.4613 -2.1320
 8010SOL    HW225451   3.461   3.297   5.718  0.9250  1.7045  1.1196
 8011SOL     OW25452   2.135   3.176   3.834  0.3164 -0.9972 -1.0414
 8011SOL    HW125453   2.221   3.219   3.831  1.6592 -3.5155 -2.0516
 8011SOL    HW225454   2.073   3.247   3.845  2.5879  0.8636  1.0048
 8012SOL     OW25455   6.370   3.109   0.150 -0.3542  0.3034  0.3260
 8012SOL    HW125456   6.324   3.131   0.069  0.2608  0.0130 -0.1165
 8012SOL    HW225457   6.324   3.157   0.219 -0.7882  0.6749 -0.2193
 8013SOL     OW25458   7.637   4.112   0.721 -0.0570  0.2178 -1.1220
 8013SOL    HW125459   7.630   4.178   0.653  1.9889  0.9032 -0.7533
 8013SOL    HW225460   7.612   4.157   0.802  0.4340  0.2841 -1.0031
 8014SOL     OW25461   2.258   7.671   5.896 -0.2539 -0.1756 -0.3818
 8014SOL    HW125462   2.237   7.642   5.985 -0.8228  0.2254 -0.3767
 8014SOL    HW225463   2.323   7.609   5.865  0.6064  0.1713  0.6370
 8015SOL     OW25464   0.277   4.507   8.234  0.2033  0.1505  0.2470
 8015SOL    HW125465   0.306   4.590   8.197 -0.9382  0.1579 -0.7059
 8015SOL    HW225466   0.227   4.531   8.312 -0.2653  0.3824 -0.1198
 8016SOL     OW25467   7.071   7.655   1.662 -0.3283  0.1440 -0.2144
 8016SOL    HW125468   7.074   7.562   1.684 -1.4980  0.3480  0.9232
 8016SOL    HW225469   7.026   7.696   1.736 -1.1076  1.4161 -1.3486
 8017SOL     OW25470   7.412   4.545   6.259 -0.4585  0.5097  0.3821
 8017SOL    HW125471   7.351   4.543   6.333  0.4659 -0.1436  1.1534
 8017SOL    HW225472   7.358   4.567   6.183 -1.5352  0.5536  1.1472
 8018SOL     OW25473   5.093   1.582   4.923  0.1544 -0.1406  0.2599
 8018SOL    HW125474   5.035   1.651   4.893 -2.0145 -2.2136 -0.6126
 8018SOL    HW225475   5.136   1.550   4.843  0.3421 -0.4953  0.4981
 8019SOL     OW25476   6.794   2.289   0.865 -0.3772  0.2201 -0.3619
 8019SOL    HW125477   6.700   2.308   0.864 -0.3546  0.3827  0.1901
 8019SOL    HW225478   6.833   2.367   0.904 -0.2988 -0.9730  2.1372
 8020SOL     OW25479   6.956   5.342   1.638  0.5325 -0.1252  0.7077
 8020SOL    HW125480   7.051   5.351   1.637  0.4447  0.9773  0.5143
 8020SOL    HW225481   6.936   5.288   1.561  0.8841  1.1956 -0.3569
 8021SOL     OW25482   5.325   0.014   5.488 -0.8384 -0.0155  0.3762
 8021SOL    HW125483   5.356  -0.008   5.400  1.1677  0.7400  0.8302
 8021SOL    HW225484   5.234   0.039   5.476 -0.8631 -0.7957 -1.3374
 8022SOL     OW25485   7.332   3.837   6.209  0.0762  0.3966 -0.4345
 8022SOL    HW125486   7.377   3.756   6.233  0.2915  0.5925 -0.1675
 8022SOL    HW225487   7.358   3.854   6.118 -0.8505 -0.4223 -0.8697
 8023SOL     OW25488   0.539   0.859   5.429 -0.0600  0.5515 -0.2255
 8023SOL    HW125489   0.581   0.871   5.343 -0.2315 -0.7115 -0.5072
 8023SOL    HW225490   0.448   0.886   5.415  0.1498  1.3276 -0.1554
 8024SOL     OW25491   0.030   3.793   6.419  0.5626  0.1426  0.3793
 8024SOL    HW125492  -0.059   3.779   6.387  0.9076  0.9708 -1.0118
 8024SOL    HW225493   0.075   3.838   6.348  1.9279  0.3126  1.3026
 8025SOL     OW25494   5.783   5.548   5.592 -0.0900 -0.3535  0.4643
 8025SOL    HW125495   5.747   5.533   5.505 -0.1626  0.2311  0.3913
 8025SOL    HW225496   5.850   5.616   5.579 -0.3333 -0.0247  0.9139
 8026SOL     OW25497   6.134   4.027   7.787 -0.0434  0.3607  0.0217
 8026SOL    HW125498   6.070   3.959   7.766 -0.5579  0.0373  2.3873
 8026SOL    HW225499   6.193   4.028   7.712 -0.8189 -1.7334 -0.6956
 8027SOL     OW25500   2.425   8.242   0.046 -0.8786 -0.6147  0.5350
 8027SOL    HW125501   2.421   8.324   0.096 -0.3057  0.1179 -0.5883
 8027SOL    HW225502   2.513   8.209   0.061 -0.7019 -0.3893  0.0264
 8028SOL     OW25503   4.996   3.755   5.652  0.3991 -0.5637 -0.5211
 8028SOL    HW125504   4.948   3.832   5.682  4.2015  0.7781  2.8442
 8028SOL    HW225505   5.033   3.781   5.568  0.0539  0.5655 -0.3377
 8029SOL     OW25506   4.341   0.580   1.385  0.3180  0.4603 -0.1311
 8029SOL    HW125507   4.310   0.533   1.308  2.7579 -0.1001 -0.8691
 8029SOL    HW225508   4.329   0.518   1.457 -0.7370  0.4840 -0.2713
 8030SOL     OW25509   2.200   7.009   7.056 -0.2465 -0.8839 -0.2312
 8030SOL    HW125510   2.207   6.965   7.141  2.4636 -0.4357 -0.1127
 8030SOL    HW225511   2.121   7.063   7.063 -0.6833 -1.6779  1.5902
 8031SOL     OW25512   6.793   1.046   1.939 -0.3365  0.2260  0.5658
 8031SOL    HW125513   6.818   0.954   1.926  2.1651  0.6171  1.9826
 8031SOL    HW225514   6.800   1.085   1.852  1.1122 -0.4095  0.3669
 8032SOL     OW25515   8.108   6.354   8.064  0.3466 -0.2950 -0.7200
 8032SOL    HW125516   8.154   6.411   8.126  1.7113 -0.8657 -1.1531
 8032SOL    HW225517   8.092   6.274   8.114 -1.3930  0.3405 -0.1733
 8033SOL     OW25518   7.685   3.860   5.202 -0.1958 -0.0899 -0.3060
 8033SOL    HW125519   7.641   3.828   5.123  0.4998 -1.1372 -0.2911
 8033SOL    HW225520   7.778   3.848   5.184 -0.0659 -2.4203  1.4479
 8034SOL     OW25521   3.763   5.664   3.089 -0.0438 -0.1124  0.0327
 8034SOL    HW125522   3.760   5.619   3.174 -1.7646 -0.5510 -0.2128
 8034SOL    HW225523   3.723   5.603   3.028  2.3088 -0.3230 -1.4134
 8035SOL     OW25524   0.151   6.874   2.103  0.5924 -0.3568 -0.0934
 8035SOL    HW125525   0.067   6.872   2.056  1.0254  0.7721 -0.9835
 8035SOL    HW225526   0.143   6.949   2.162  0.0591 -1.7654  1.6887
 8036SOL     OW25527   0.753   7.868   1.745  0.0209 -0.0118 -0.1430
 8036SOL    HW125528   0.730   7.902   1.658 -1.0064  0.9898  0.4885
 8036SOL    HW225529   0.847   7.880   1.752  0.1475 -0.2973 -1.1913
 8037SOL     OW25530   0.454   5.168   3.494 -0.0961  0.1796 -0.2641
 8037SOL    HW125531   0.414   5.102   3.550 -0.6754  1.8753  1.4200
 8037SOL    HW225532   0.388   5.188   3.428 -0.4995  0.1422  0.1262
 8038SOL     OW25533   5.797   7.875   6.089 -0.2628 -0.1050 -0.3348
 8038SOL    HW125534   5.767   7.945   6.031 -2.1411  1.4725  2.2882
 8038SOL    HW225535   5.874   7.911   6.132  0.3319 -0.7317 -0.8621
 8039SOL     OW25536   4.899   1.077   6.225  0.5727  0.0653 -0.0231
 8039SOL    HW125537   4.947   1.142   6.276  1.7791 -0.8119  0.0033
 8039SOL    HW225538   4.814   1.117   6.210  1.2293  1.5945  0.1090
 8040SOL     OW25539   5.721   8.271   7.007 -0.2257  0.0540  0.3248
 8040SOL    HW125540   5.735   8.261   6.913  0.8896 -1.8099  0.6328
 8040SOL    HW225541   5.745   8.361   7.026  0.8944  0.0571 -0.9684
 8041SOL     OW25542   1.539   4.910   1.349  0.0167 -0.4937  0.3143
 8041SOL    HW125543   1.596   4.835   1.365 -0.0238 -0.3242  1.3546
 8041SOL    HW225544   1.491   4.888   1.270  1.9069 -0.3992 -0.9235
 8042SOL     OW25545   1.982   1.765   4.470 -0.2773 -0.3908  0.0013
 8042SOL    HW125546   1.994   1.671   4.487 -0.4960 -0.4855 -0.3690
 8042SOL    HW225547   2.011   1.807   4.551 -0.1840 -0.7782  0.1740
 8043SOL     OW25548   6.523   6.697   0.178  0.1042  0.3932  0.5926
 8043SOL    HW125549   6.549   6.784   0.210  3.1906 -0.3152  0.2908
 8043SOL    HW225550   6.532   6.640   0.254 -1.3434  0.1852  0.6356
 8044SOL     OW25551   2.385   0.215   4.354 -0.3134  0.5809  0.3222
 8044SOL    HW125552   2.458   0.210   4.292  0.3158 -0.2880  1.1031
 8044SOL    HW225553   2.313   0.250   4.303  0.5167  1.0136 -0.5945
 8045SOL     OW25554   6.756   7.459   6.661  0.0578  0.1476 -0.5382
 8045SOL    HW125555   6.771   7.454   6.755 -0.1153 -0.1889 -0.5289
 8045SOL    HW225556   6.833   7.419   6.622 -1.3596 -2.9425 -0.4651
 8046SOL     OW25557   8.056   4.263   2.386  0.5025 -0.5900  0.3280
 8046SOL    HW125558   7.981   4.296   2.337  2.2033 -0.1659 -2.1375
 8046SOL    HW225559   8.060   4.170   2.363  0.6420 -0.6557  0.6142
 8047SOL     OW25560   1.282   6.129   7.468 -0.1391 -0.5238  0.2409
 8047SOL    HW125561   1.362   6.076   7.475 -0.2977 -0.7037  0.7418
 8047SOL    HW225562   1.269   6.141   7.374 -0.1520 -1.4487  0.1191
 8048SOL     OW25563   5.495   0.046   6.149  0.0519  0.1562  0.0836
 8048SOL    HW125564   5.407   0.022   6.177  0.0222  0.5584  0.3426
 8048SOL    HW225565   5.515   0.125   6.200  0.7506 -0.2097  0.3846
 8049SOL     OW25566   6.088   7.827   5.323 -0.1515 -0.0101  0.4561
 8049SOL    HW125567   6.151   7.887   5.283 -1.3476  0.7750 -0.3322
 8049SOL    HW225568   6.124   7.807   5.409  0.6177  1.3177  0.4617
 8050SOL     OW25569   4.245   0.799   6.482 -0.2721  0.1004  0.1021
 8050SOL    HW125570   4.159   0.792   6.523 -0.4614 -1.2159 -0.4864
 8050SOL    HW225571   4.307   0.780   6.553 -0.3757  2.0591  0.7832
 8051SOL     OW25572   2.447   5.898   6.913  0.0097  0.2173  0.2009
 8051SOL    HW125573   2.505   5.860   6.979 -0.4673  0.4885  0.7846
 8051SOL    HW225574   2.469   5.852   6.832 -0.1716 -0.9051  0.7762
 8052SOL     OW25575   2.451   5.016   3.368 -0.5870 -0.1671 -0.1177
 8052SOL    HW125576   2.477   4.943   3.424 -1.7493 -0.0486  0.5871
 8052SOL    HW225577   2.379   5.058   3.414 -1.2065  0.2708 -1.4320
 8053SOL     OW25578   2.378   8.063   4.322  0.6834 -0.2519  0.0770
 8053SOL    HW125579   2.403   7.994   4.260  1.9744 -0.5679  0.9193
 8053SOL    HW225580   2.285   8.046   4.340  0.0402  0.3480 -2.3667
 8054SOL     OW25581   3.597   1.853   3.513  0.0965  0.1155  0.1442
 8054SOL    HW125582   3.514   1.805   3.511  0.0808  0.1324  0.3849
 8054SOL    HW225583   3.664   1.786   3.507  0.0611  0.1447 -0.7867
 8055SOL     OW25584   3.881   6.646   8.311 -0.1116  0.3052  0.1677
 8055SOL    HW125585   3.881   6.644   8.407 -0.8927  1.6176  0.2152
 8055SOL    HW225586   3.845   6.732   8.288  0.8468  0.3482 -1.3076
 8056SOL     OW25587   4.669   8.026   6.292  0.3664  0.0095 -0.0190
 8056SOL    HW125588   4.691   7.937   6.263  3.5098  0.4730  0.6093
 8056SOL    HW225589   4.739   8.081   6.258 -0.3359  1.9286  1.4294
 8057SOL     OW25590   7.242   0.003   2.718  0.4241 -0.2904  0.1397
 8057SOL    HW125591   7.252  -0.018   2.811  2.0433 -0.2191  0.0196
 8057SOL    HW225592   7.204  -0.076   2.680 -1.1150  0.0125  0.9895
 8058SOL     OW25593   7.149   3.671   4.978  0.1920 -0.0957 -0.1272
 8058SOL    HW125594   7.227   3.708   5.019  0.2747  1.9516 -1.9167
 8058SOL    HW225595   7.090   3.652   5.052  2.4025 -1.9480  1.2784
 8059SOL     OW25596   1.075   7.096   1.915 -0.4027 -0.2769 -0.1620
 8059SOL    HW125597   1.151   7.137   1.873 -1.2095  0.1464 -1.2441
 8059SOL    HW225598   1.105   7.007   1.934 -0.3623 -0.9441 -2.8733
 8060SOL     OW25599   3.369   4.756   3.328 -0.0382 -0.2087 -0.2142
 8060SOL    HW125600   3.400   4.671   3.296 -0.4070 -0.4242 -0.0019
 8060SOL    HW225601   3.364   4.746   3.423 -0.5947 -0.1259 -0.2291
 8061SOL     OW25602   2.443   5.695   6.342  0.0642  0.3232 -0.0946
 8061SOL    HW125603   2.351   5.672   6.348  0.1422 -0.0757 -0.4141
 8061SOL    HW225604   2.477   5.644   6.269  0.5240  0.5187 -0.0273
 8062SOL     OW25605   4.673   6.743   0.197  0.4844 -0.2910 -0.3980
 8062SOL    HW125606   4.674   6.653   0.167 -0.7604  0.0532 -1.5174
 8062SOL    HW225607   4.651   6.737   0.290 -1.0999 -1.0734 -0.7975
 8063SOL     OW25608   5.625   3.950   7.148 -0.1295  0.2932 -0.4647
 8063SOL    HW125609   5.587   4.004   7.218 -0.6812 -1.4423  0.6505
 8063SOL    HW225610   5.550   3.904   7.110  0.4172 -0.4719 -0.6544
 8064SOL     OW25611   2.285   7.205   5.687  0.8227  0.0405  0.1873
 8064SOL    HW125612   2.233   7.276   5.650 -0.0468 -1.9242 -2.7148
 8064SOL    HW225613   2.244   7.187   5.771  0.0831  1.9022  0.2804
 8065SOL     OW25614   1.887   5.857   8.325  0.4569 -0.6467  0.1023
 8065SOL    HW125615   1.801   5.885   8.356  1.3825  2.1041  0.4409
 8065SOL    HW225616   1.930   5.823   8.403  0.4505  0.0819  0.4321
 8066SOL     OW25617   6.029   0.296   1.506 -0.0801  0.5616  0.4110
 8066SOL    HW125618   6.096   0.247   1.459  0.7769  0.3238  1.8314
 8066SOL    HW225619   5.973   0.228   1.545 -0.7337  0.7573 -0.1584
 8067SOL     OW25620   1.515   8.062   6.755  0.1512  0.1952 -0.1547
 8067SOL    HW125621   1.511   7.968   6.774 -3.7351  0.3035  0.3533
 8067SOL    HW225622   1.424   8.091   6.760  0.9650  3.6472 -2.2661
 8068SOL     OW25623   1.920   7.223   4.937 -0.3202  0.3928 -0.3278
 8068SOL    HW125624   1.932   7.214   4.842 -1.4852  3.1269 -0.8188
 8068SOL    HW225625   1.835   7.182   4.954  0.0893 -0.4936 -0.3639
 8069SOL     OW25626   6.007   1.518   6.940  0.0281  0.1340 -0.0363
 8069SOL    HW125627   5.992   1.442   6.996  1.0739  0.2063  0.3527
 8069SOL    HW225628   5.922   1.563   6.938 -0.3674 -0.5696  0.4248
 8070SOL     OW25629   2.485   4.090   5.660  0.4057 -0.1231 -0.0756
 8070SOL    HW125630   2.437   4.135   5.729 -1.0922 -0.6516 -0.7263
 8070SOL    HW225631   2.573   4.129   5.662  0.2765  0.1318  1.8418
 8071SOL     OW25632   7.646   5.079   0.295 -0.0570  0.1070 -0.5806
 8071SOL    HW125633   7.650   5.157   0.351  1.0214  0.4996 -1.1615
 8071SOL    HW225634   7.587   5.019   0.340 -0.2402  0.9343  0.3039
 8072SOL     OW25635   3.752   4.928   7.881 -0.0315 -0.4615  0.4322
 8072SOL    HW125636   3.764   4.903   7.973  2.9799 -1.1931 -0.0493
 8072SOL    HW225637   3.706   4.853   7.842  0.1345 -0.8847  1.0219
 8073SOL     OW25638   3.882   0.390   3.901  0.1111  0.1657 -0.0398
 8073SOL    HW125639   3.851   0.363   3.815 -0.2653 -0.6566  0.3450
 8073SOL    HW225640   3.802   0.404   3.952  0.3455 -0.2991  0.4566
 8074SOL     OW25641   1.563   4.451   3.675  0.3195  0.2012  0.0379
 8074SOL    HW125642   1.523   4.407   3.750 -0.9215 -1.7410 -1.6611
 8074SOL    HW225643   1.614   4.522   3.714 -0.9053 -0.2162  2.6446
 8075SOL     OW25644   3.726   0.259   3.345 -0.1891 -0.1586  0.2302
 8075SOL    HW125645   3.637   0.294   3.359  0.2390  0.9981  0.1725
 8075SOL    HW225646   3.743   0.274   3.252  0.5436  0.8013  0.5073
 8076SOL     OW25647   0.135   6.518   6.708  0.0017  0.0748 -0.6565
 8076SOL    HW125648   0.216   6.544   6.663  0.9484 -1.0342  0.3398
 8076SOL    HW225649   0.145   6.424   6.722 -2.1978 -0.4321 -1.9363
 8077SOL     OW25650   7.996   2.497   4.132 -0.0986  0.3341  0.0340
 8077SOL    HW125651   7.915   2.545   4.112  0.8059  1.3648 -1.2981
 8077SOL    HW225652   7.991   2.418   4.077  1.0818  1.8026 -2.3228
 8078SOL     OW25653   8.368   2.540   7.886 -0.0336  0.0816  0.1098
 8078SOL    HW125654   8.305   2.600   7.926  1.2522  1.2150  0.5173
 8078SOL    HW225655   8.440   2.536   7.949  0.3756 -1.1003 -0.3986
 8079SOL     OW25656   6.971   8.161   4.524 -0.4529  0.6193  0.0808
 8079SOL    HW125657   6.945   8.213   4.599  0.3482  0.4897  0.4617
 8079SOL    HW225658   6.914   8.084   4.527 -2.6277  2.0753 -1.2985
 8080SOL     OW25659   5.124   3.055   6.290  0.1873  0.0734  0.5586
 8080SOL    HW125660   5.109   3.050   6.384 -1.1990 -2.0609  0.2891
 8080SOL    HW225661   5.037   3.051   6.251  0.7914 -0.0437 -0.8454
 8081SOL     OW25662   0.192   5.635   1.703  0.0562  0.2010 -0.5511
 8081SOL    HW125663   0.285   5.611   1.705  0.1130  0.4000  0.9699
 8081SOL    HW225664   0.155   5.585   1.631  1.6075  1.1616 -2.0790
 8082SOL     OW25665   2.274   5.160   7.059  0.2266  0.3358  0.1874
 8082SOL    HW125666   2.362   5.128   7.077 -0.6633 -1.1946  2.1019
 8082SOL    HW225667   2.221   5.081   7.046 -1.2496  1.1260  1.0307
 8083SOL     OW25668   0.707   2.184   6.315 -0.1429 -0.3466 -0.4231
 8083SOL    HW125669   0.734   2.227   6.235  1.0371 -0.2444  0.0175
 8083SOL    HW225670   0.787   2.146   6.351 -0.9426 -1.9172 -0.1928
 8084SOL     OW25671   8.313   0.512   4.237 -0.1224  0.6652  0.0749
 8084SOL    HW125672   8.232   0.558   4.260 -1.3319 -1.0647 -0.5063
 8084SOL    HW225673   8.303   0.492   4.143  0.4882 -0.5001  0.2403
 8085SOL     OW25674   7.171   0.552   7.829  0.7854 -0.3406 -0.4251
 8085SOL    HW125675   7.266   0.562   7.827  0.5548  2.5489 -1.7626
 8085SOL    HW225676   7.137   0.631   7.786 -2.2777 -0.4429  1.4593
 8086SOL     OW25677   5.425   4.367   4.020  0.0184 -0.2281 -0.3307
 8086SOL    HW125678   5.386   4.387   3.935  0.7117 -2.1898 -1.1831
 8086SOL    HW225679   5.359   4.316   4.066  1.0192 -2.5427 -1.3112
 8087SOL     OW25680   7.541   5.244   3.109  0.6727 -0.1833 -0.1193
 8087SOL    HW125681   7.500   5.314   3.160  0.3695 -1.0293  0.8357
 8087SOL    HW225682   7.468   5.199   3.066  0.9625  0.8114 -1.7114
 8088SOL     OW25683   7.310   5.966   7.151 -0.6034 -0.0853  0.0529
 8088SOL    HW125684   7.331   6.059   7.151 -0.8844 -0.0119  0.8445
 8088SOL    HW225685   7.335   5.936   7.239 -2.0159 -0.3883  0.3843
 8089SOL     OW25686   6.233   6.968   6.786 -0.3945 -0.3783  0.4089
 8089SOL    HW125687   6.281   6.911   6.726 -2.1032 -0.2961 -1.1030
 8089SOL    HW225688   6.142   6.961   6.758 -1.2177 -0.0357  2.7866
 8090SOL     OW25689   7.579   5.502   6.598 -0.4435 -0.2758 -0.0153
 8090SOL    HW125690   7.519   5.497   6.524  1.5284 -0.6018 -1.6789
 8090SOL    HW225691   7.656   5.453   6.569  0.8855  0.6565  1.7711
 8091SOL     OW25692   3.300   6.910   4.606  0.0123 -0.0089 -0.0306
 8091SOL    HW125693   3.300   6.821   4.641  3.1112 -0.1318 -0.1247
 8091SOL    HW225694   3.251   6.961   4.670 -0.9371 -1.5766  0.5412
 8092SOL     OW25695   0.995   3.905   3.763 -0.3720 -0.0565  0.3169
 8092SOL    HW125696   0.962   3.819   3.788 -0.3528 -0.3603 -0.6922
 8092SOL    HW225697   0.928   3.966   3.796  0.3365 -0.3050  2.3846
 8093SOL     OW25698   1.031   3.800   5.912 -0.0648 -0.2778 -0.2459
 8093SOL    HW125699   1.011   3.721   5.862 -1.8565 -1.8480  2.6879
 8093SOL    HW225700   1.022   3.871   5.849 -1.9628 -2.1271 -2.2300
 8094SOL     OW25701   7.515   7.139   4.809  0.0837 -0.1070 -0.2798
 8094SOL    HW125702   7.461   7.115   4.734  1.7874 -1.4966 -1.1211
 8094SOL    HW225703   7.599   7.097   4.793  1.6311  2.3773  0.7351
 8095SOL     OW25704   4.367   5.406   3.857 -0.5089  0.0037  0.4262
 8095SOL    HW125705   4.358   5.495   3.822  1.5259  0.3856  0.7673
 8095SOL    HW225706   4.413   5.357   3.788  1.5153  0.1804  1.5753
 8096SOL     OW25707   1.555   4.199   6.198  0.4838  0.2183  0.8883
 8096SOL    HW125708   1.521   4.203   6.109  2.0284  1.5403  0.3132
 8096SOL    HW225709   1.517   4.119   6.235 -1.1860  0.3104 -0.5121
 8097SOL     OW25710   3.377   8.199   5.725  0.3141  0.2845 -0.0753
 8097SOL    HW125711   3.394   8.293   5.720 -1.3415  0.5919 -0.1779
 8097SOL    HW225712   3.425   8.162   5.650  0.1688  1.1606 -0.6112
 8098SOL     OW25713   2.174   3.491   4.817  0.0935  0.0538 -0.1062
 8098SOL    HW125714   2.122   3.417   4.787 -0.6721  0.2597  0.6592
 8098SOL    HW225715   2.178   3.550   4.741 -1.0998  0.1916 -0.0839
 8099SOL     OW25716   4.555   5.522   1.131  0.1042  0.2458 -0.0924
 8099SOL    HW125717   4.557   5.609   1.090  0.9411  0.7995  1.0560
 8099SOL    HW225718   4.541   5.461   1.059  0.7195  1.2423 -1.0839
 8100SOL     OW25719   6.405   0.387   5.989  0.2185 -0.2938 -0.0335
 8100SOL    HW125720   6.493   0.407   5.957  0.7065 -0.0020  1.4115
 8100SOL    HW225721   6.350   0.457   5.955  0.9350  0.6500  0.7076
 8101SOL     OW25722   5.024   1.515   0.055 -0.0340  0.2312  0.0898
 8101SOL    HW125723   4.940   1.558   0.070 -0.0146 -0.0738  1.2017
 8101SOL    HW225724   5.018   1.479  -0.033 -0.2082  2.1145 -0.7121
 8102SOL     OW25725   0.037   1.711   5.991 -0.5405 -0.3131  0.4551
 8102SOL    HW125726   0.131   1.726   5.989 -0.8189  1.5186 -1.2169
 8102SOL    HW225727   0.007   1.757   6.069 -0.2385  0.4836  0.1135
 8103SOL     OW25728   4.568   6.592   1.352  0.3087 -0.5884  0.3317
 8103SOL    HW125729   4.574   6.523   1.286  1.7248 -0.7234  0.5589
 8103SOL    HW225730   4.500   6.651   1.320  1.0774 -0.5635 -1.3389
 8104SOL     OW25731   0.270   8.287   3.899  0.1498 -0.0119  0.6178
 8104SOL    HW125732   0.224   8.366   3.927  0.7309  0.1965  1.0004
 8104SOL    HW225733   0.301   8.247   3.981  3.3974  1.5116  0.2907
 8105SOL     OW25734   1.484   5.626   1.158  0.2942  0.0081 -0.2581
 8105SOL    HW125735   1.442   5.636   1.073  2.1015 -0.2458 -1.2470
 8105SOL    HW225736   1.578   5.626   1.138  0.7673 -0.1033  1.7391
 8106SOL     OW25737   7.556   0.363   2.302  0.0738 -0.5973 -0.4979
 8106SOL    HW125738   7.507   0.293   2.345  0.7315 -0.4606  0.4924
 8106SOL    HW225739   7.589   0.322   2.221  0.0394 -1.2818 -0.1739
 8107SOL     OW25740   3.272   4.192   2.998  0.3759 -0.3013  0.1175
 8107SOL    HW125741   3.257   4.268   2.941  0.4030  0.0219  0.5321
 8107SOL    HW225742   3.285   4.119   2.938 -0.1033 -0.0636 -0.2805
 8108SOL     OW25743   1.156   0.825   7.351 -0.7329  0.3700 -0.0371
 8108SOL    HW125744   1.104   0.778   7.416  0.9088 -0.5110  0.6921
 8108SOL    HW225745   1.157   0.768   7.274  1.6623 -1.1352  1.0118
 8109SOL     OW25746   0.724   2.187   1.421 -0.2174  0.1330  0.2170
 8109SOL    HW125747   0.641   2.139   1.419  0.0563 -0.4711  1.8689
 8109SOL    HW225748   0.749   2.195   1.329 -2.3441  0.7644 -0.3776
 8110SOL     OW25749   2.801   5.405   7.203  0.2770  0.1957 -0.1281
 8110SOL    HW125750   2.820   5.493   7.170  1.9934 -0.5830 -1.3831
 8110SOL    HW225751   2.765   5.419   7.290  0.2783  2.1461 -0.3961
 8111SOL     OW25752   7.392   5.308   0.163 -0.0841  0.0002 -0.2214
 8111SOL    HW125753   7.454   5.305   0.236 -0.7415  0.4659  0.3657
 8111SOL    HW225754   7.441   5.273   0.089 -0.0496 -2.5122  0.8900
 8112SOL     OW25755   6.440   8.036   2.808  0.8191 -0.2437  0.0743
 8112SOL    HW125756   6.532   8.031   2.782  1.1998 -0.6466  1.4202
 8112SOL    HW225757   6.442   8.054   2.902 -0.4576 -1.6576  0.4158
 8113SOL     OW25758   5.773   7.538   0.032  0.5903  0.1307  0.5819
 8113SOL    HW125759   5.864   7.512   0.018  0.9957  0.4274  2.4248
 8113SOL    HW225760   5.771   7.575   0.120 -1.3050  0.2439  0.5487
 8114SOL     OW25761   3.725   2.829   5.917  0.1647  0.2650  0.2963
 8114SOL    HW125762   3.818   2.842   5.934  0.2508  0.1572 -0.0753
 8114SOL    HW225763   3.685   2.824   6.004  0.4093  0.9595  0.4559
 8115SOL     OW25764   1.187   8.332   5.099 -0.5517  0.3046 -0.1181
 8115SOL    HW125765   1.270   8.286   5.087 -1.6340 -1.2893 -2.1445
 8115SOL    HW225766   1.148   8.292   5.176  0.8598  1.6212  1.3335
 8116SOL     OW25767   3.017   6.791   3.175 -0.2472  0.1009 -0.2928
 8116SOL    HW125768   2.933   6.815   3.214 -0.8072 -1.5526 -0.4001
 8116SOL    HW225769   2.994   6.756   3.088  0.4051 -1.3822  0.0956
 8117SOL     OW25770   3.806   7.586   8.088 -0.1811  0.4731  0.0193
 8117SOL    HW125771   3.866   7.566   8.016 -0.7885  0.9628 -0.6428
 8117SOL    HW225772   3.855   7.565   8.167  0.5429  0.0302 -0.5363
 8118SOL     OW25773   1.247   4.637   7.625 -0.3279 -0.0922  0.1291
 8118SOL    HW125774   1.293   4.573   7.570  0.0468 -0.7246  1.1615
 8118SOL    HW225775   1.214   4.702   7.563  4.3478  2.0122 -0.5032
 8119SOL     OW25776   7.673   3.077   3.412  0.1518 -0.0901 -0.7204
 8119SOL    HW125777   7.598   3.135   3.399  0.6967  0.9534  0.5366
 8119SOL    HW225778   7.635   2.992   3.433 -0.8406  1.0239  2.7573
 8120SOL     OW25779   2.025   0.381   7.836 -0.4848  0.0075 -0.0928
 8120SOL    HW125780   2.082   0.325   7.782 -1.2071 -0.0334 -0.8357
 8120SOL    HW225781   1.959   0.414   7.774 -0.7251  0.7889  0.5670
 8121SOL     OW25782   6.491   4.892   6.475 -0.1776 -0.4665  0.0141
 8121SOL    HW125783   6.395   4.900   6.472 -0.1094  0.1976 -0.5853
 8121SOL    HW225784   6.506   4.797   6.473 -0.8095 -0.5680 -0.5601
 8122SOL     OW25785   0.818   6.982   5.446  0.0730  0.0569  0.0422
 8122SOL    HW125786   0.731   6.993   5.408  0.0451 -0.7057 -0.1312
 8122SOL    HW225787   0.857   7.070   5.442 -0.5325  0.3218 -0.2494
 8123SOL     OW25788   1.473   5.891   7.712  0.3365 -0.1102 -0.4542
 8123SOL    HW125789   1.382   5.862   7.701  0.7148 -1.2808 -0.5911
 8123SOL    HW225790   1.504   5.905   7.623  0.3263  0.2000 -0.4104
 8124SOL     OW25791   3.879   1.455   0.697 -0.8989 -0.2797  0.2424
 8124SOL    HW125792   3.916   1.389   0.755  0.1095 -0.2907 -0.3975
 8124SOL    HW225793   3.952   1.513   0.677 -0.8444 -1.0407 -2.0958
 8125SOL     OW25794   6.507   1.145   5.248 -0.1748 -0.3469  0.2891
 8125SOL    HW125795   6.569   1.161   5.319 -0.5596 -1.1248  0.8128
 8125SOL    HW225796   6.491   1.051   5.251 -0.0138 -0.4280 -0.9878
 8126SOL     OW25797   5.106   6.525   5.833  0.9351  0.2080 -0.7092
 8126SOL    HW125798   5.122   6.556   5.922 -0.7816 -0.6682 -0.0358
 8126SOL    HW225799   5.031   6.466   5.842  0.4665  0.4089 -2.8060
 8127SOL     OW25800   7.999   7.257   6.822 -0.2163  0.1052 -0.3615
 8127SOL    HW125801   7.978   7.252   6.916 -1.9521  3.0371 -0.4672
 8127SOL    HW225802   8.063   7.188   6.809  2.1838  1.2342  3.5773
 8128SOL     OW25803   0.146   5.958   4.143 -0.4175 -0.5085  0.0898
 8128SOL    HW125804   0.089   5.900   4.195  0.3488  0.0793  1.6513
 8128SOL    HW225805   0.085   6.008   4.088 -1.3034 -0.8484  0.7279
 8129SOL     OW25806   2.002   6.645   7.327 -0.4873 -0.4728 -0.0515
 8129SOL    HW125807   1.923   6.616   7.281 -0.0459 -0.1912 -1.0090
 8129SOL    HW225808   2.074   6.612   7.273  0.1204 -2.3423  1.7770
 8130SOL     OW25809   1.611   5.830   1.699 -0.2153 -0.0577 -0.0331
 8130SOL    HW125810   1.617   5.904   1.639 -5.3356 -1.5723 -3.0020
 8130SOL    HW225811   1.557   5.862   1.771 -2.1847 -0.6632 -1.1743
 8131SOL     OW25812   2.505   3.909   7.378 -0.3767 -0.1859 -0.0923
 8131SOL    HW125813   2.519   3.891   7.285  0.2682  1.3998 -0.3294
 8131SOL    HW225814   2.542   3.996   7.392  0.8820 -0.9781  1.9861
 8132SOL     OW25815   0.621   0.109   3.089 -0.4734 -0.3322 -0.3207
 8132SOL    HW125816   0.646   0.192   3.132 -0.8810 -0.6134  0.4931
 8132SOL    HW225817   0.697   0.053   3.099 -0.7558 -0.5767  0.5328
 8133SOL     OW25818   3.136   0.374   7.075 -0.1578  0.8189  0.2667
 8133SOL    HW125819   3.137   0.384   6.980  0.2058  2.0553  0.3813
 8133SOL    HW225820   3.149   0.280   7.090  1.0587  0.7816 -0.8798
 8134SOL     OW25821   2.349   2.761   7.867 -0.1842  0.2511  0.4068
 8134SOL    HW125822   2.271   2.707   7.856 -0.3843  0.6771 -0.2933
 8134SOL    HW225823   2.421   2.698   7.873 -0.8403 -0.4074  4.5314
 8135SOL     OW25824   5.554   2.719   2.110  0.3821  0.9088  0.1670
 8135SOL    HW125825   5.504   2.640   2.087  0.8932  1.2014 -2.2165
 8135SOL    HW225826   5.525   2.740   2.199 -2.0036 -0.2380 -0.2402
 8136SOL     OW25827   2.610   5.851   3.819 -0.0905 -0.5456 -0.1343
 8136SOL    HW125828   2.583   5.796   3.893 -0.3356  0.4506  0.5344
 8136SOL    HW225829   2.702   5.869   3.834  0.1865 -1.3784 -0.7593
 8137SOL     OW25830   6.236   1.122   3.635 -0.2233 -0.6196  0.5605
 8137SOL    HW125831   6.249   1.177   3.712 -1.3375 -1.2243  1.2009
 8137SOL    HW225832   6.141   1.112   3.628 -0.1286 -0.8762 -0.6858
 8138SOL     OW25833   8.035   7.100   2.229 -0.4790 -0.0449 -0.4373
 8138SOL    HW125834   8.047   7.020   2.178  0.4483 -0.3040  0.1673
 8138SOL    HW225835   7.948   7.132   2.202 -0.1701 -0.3492 -1.9006
 8139SOL     OW25836   0.394   8.269   6.678 -0.2760  0.0323  0.0470
 8139SOL    HW125837   0.327   8.310   6.733 -0.9826 -0.2140 -0.6096
 8139SOL    HW225838   0.400   8.180   6.711  0.9514  0.5160  1.1952
 8140SOL     OW25839   1.219   7.957   5.823 -0.1372  0.1759  0.5598
 8140SOL    HW125840   1.290   7.908   5.781  1.1518  0.9720  1.7132
 8140SOL    HW225841   1.145   7.949   5.763  0.5281 -1.7502 -0.0703
 8141SOL     OW25842   4.945   7.797   5.464 -0.3921  0.6652  0.4456
 8141SOL    HW125843   4.938   7.883   5.505  1.2804  0.7293  0.6696
 8141SOL    HW225844   5.022   7.757   5.504  0.9656  0.4826 -2.0840
 8142SOL     OW25845   5.736   2.049   6.186  0.1630  0.0522  0.2050
 8142SOL    HW125846   5.709   2.136   6.214 -0.7755 -0.6193  1.4629
 8142SOL    HW225847   5.831   2.049   6.196  0.2953  1.2620 -0.8289
 8143SOL     OW25848   6.099   6.459   5.124  0.0147 -0.5497  0.1334
 8143SOL    HW125849   6.098   6.512   5.044  2.1970  0.2070  0.5122
 8143SOL    HW225850   6.077   6.521   5.194  0.9814 -0.4856  0.4015
 8144SOL     OW25851   0.713   0.385   8.071 -0.7229 -0.2011 -0.1899
 8144SOL    HW125852   0.723   0.439   7.993 -2.0380  1.2455  0.5977
 8144SOL    HW225853   0.731   0.444   8.144  1.2810 -1.7204  0.6464
 8145SOL     OW25854   2.512   3.963   7.699  0.3765 -0.0298  0.0441
 8145SOL    HW125855   2.508   4.049   7.740 -1.7739 -0.4211  0.7493
 8145SOL    HW225856   2.587   3.920   7.741 -0.3820  0.4210  1.9525
 8146SOL     OW25857   4.546   0.532   1.845  0.2441  0.3799 -0.7408
 8146SOL    HW125858   4.472   0.473   1.859 -0.7674  2.1304  2.3363
 8146SOL    HW225859   4.540   0.556   1.753 -1.3679 -1.5856 -1.2338
 8147SOL     OW25860   6.360   4.157   6.143 -0.3373  0.4404 -0.3154
 8147SOL    HW125861   6.300   4.194   6.208  0.2569 -0.9201  1.0673
 8147SOL    HW225862   6.310   4.089   6.099  0.1494 -0.7457  0.8893
 8148SOL     OW25863   0.921   0.952   5.338 -0.1429 -0.0893  0.6964
 8148SOL    HW125864   1.014   0.944   5.360 -0.3285  1.8605  2.4350
 8148SOL    HW225865   0.878   0.888   5.395  0.0470 -0.5741  0.3112
 8149SOL     OW25866   7.817   5.258   7.600 -0.2082  0.2009  0.5258
 8149SOL    HW125867   7.910   5.255   7.580 -0.4095  0.8801 -0.5638
 8149SOL    HW225868   7.786   5.169   7.584  0.0574  0.2157 -0.0743
 8150SOL     OW25869   3.370   6.635   3.893 -0.3055  0.3014  1.1901
 8150SOL    HW125870   3.421   6.674   3.822 -1.3045  0.6492  0.6487
 8150SOL    HW225871   3.417   6.555   3.915 -1.3851 -1.2656 -1.7175
 8151SOL     OW25872   4.526   6.748   1.840 -0.7422 -0.0849 -0.0755
 8151SOL    HW125873   4.575   6.713   1.765 -0.7723 -2.0290  0.7610
 8151SOL    HW225874   4.440   6.706   1.834 -1.5503  1.4979 -0.1942
 8152SOL     OW25875   0.638   1.153   5.684 -0.1038 -0.7860 -0.1214
 8152SOL    HW125876   0.601   1.143   5.772  0.4214 -1.2290  0.0539
 8152SOL    HW225877   0.601   1.081   5.634 -1.1668  0.0285 -0.5356
 8153SOL     OW25878   1.251   1.195   4.056 -0.2971  0.1762 -0.4457
 8153SOL    HW125879   1.219   1.276   4.097  0.3573  0.1625  0.1000
 8153SOL    HW225880   1.333   1.176   4.101 -1.2268 -1.6667  0.5452
 8154SOL     OW25881   6.240   4.827   8.058 -0.1082  0.4050  0.2099
 8154SOL    HW125882   6.330   4.858   8.050  0.4112 -0.8187  0.9446
 8154SOL    HW225883   6.248   4.742   8.102 -1.6124  0.2096  0.1590
 8155SOL     OW25884   1.928   0.481   2.651 -0.0535  1.3203 -0.2289
 8155SOL    HW125885   1.856   0.445   2.599 -0.4129 -0.4736  1.3895
 8155SOL    HW225886   2.007   0.457   2.603 -0.4056  0.3877 -0.3582
 8156SOL     OW25887   7.861   6.761   6.200 -0.0140  0.1813 -0.4058
 8156SOL    HW125888   7.794   6.694   6.214  0.2413 -0.0130 -0.1090
 8156SOL    HW225889   7.900   6.774   6.286  0.5678  0.0483 -0.6470
 8157SOL     OW25890   0.925   1.892   0.260 -0.4181  0.4781 -0.1109
 8157SOL    HW125891   0.905   1.985   0.252 -0.2888  0.6457  1.2906
 8157SOL    HW225892   0.997   1.877   0.198  0.3297  1.5654  0.4659
 8158SOL     OW25893   0.568   7.795   3.722  0.1657 -0.4062 -0.0192
 8158SOL    HW125894   0.566   7.728   3.791 -0.9933  0.3555  0.7241
 8158SOL    HW225895   0.660   7.821   3.716  0.2262 -0.2193  1.5026
 8159SOL     OW25896   0.252   5.432   4.133 -0.3202 -0.0942 -0.5355
 8159SOL    HW125897   0.181   5.481   4.093 -1.9124 -1.6061  0.2955
 8159SOL    HW225898   0.261   5.470   4.221 -0.6981 -0.4341 -0.3435
 8160SOL     OW25899   1.143   6.337   2.162 -0.2282 -0.0624 -0.1752
 8160SOL    HW125900   1.117   6.351   2.071  0.3170 -0.1026 -0.3348
 8160SOL    HW225901   1.067   6.293   2.202 -1.8119  2.8188  0.2316
 8161SOL     OW25902   5.136   1.875   1.707 -0.1446 -0.1642 -0.3349
 8161SOL    HW125903   5.200   1.809   1.734 -0.7239 -0.3328  0.6789
 8161SOL    HW225904   5.055   1.827   1.696 -0.4525  0.2980 -0.1178
 8162SOL     OW25905   6.918   2.916   0.836 -0.0586 -0.1300 -0.0134
 8162SOL    HW125906   6.823   2.914   0.830 -0.1172 -0.1773  0.8017
 8162SOL    HW225907   6.938   2.864   0.914  0.6250 -0.0318 -0.1173
 8163SOL     OW25908   6.578   3.768   1.447 -0.6573  0.2695  0.4266
 8163SOL    HW125909   6.565   3.732   1.535  0.8066 -3.5714 -0.7382
 8163SOL    HW225910   6.648   3.833   1.458  1.0785 -1.7124  1.8682
 8164SOL     OW25911   5.820   0.129   6.096 -0.0012 -0.0038 -0.0832
 8164SOL    HW125912   5.769   0.081   6.161  0.7360  2.0248  2.1819
 8164SOL    HW225913   5.756   0.160   6.033 -0.6578 -2.6141 -0.7994
 8165SOL     OW25914   5.356   3.838   7.055  0.1981 -0.3300 -0.2768
 8165SOL    HW125915   5.272   3.811   7.016 -0.5468  0.7744  0.4823
 8165SOL    HW225916   5.330   3.885   7.135  1.4272  1.8694 -1.0935
 8166SOL     OW25917   0.357   5.798   1.390 -0.5063 -0.2424  0.0244
 8166SOL    HW125918   0.287   5.735   1.372  0.6638 -1.1840 -1.4933
 8166SOL    HW225919   0.437   5.745   1.389  0.4887  1.2114 -0.9791
 8167SOL     OW25920   0.716   5.439   4.949 -0.2092  0.2262 -0.1567
 8167SOL    HW125921   0.803   5.415   4.980  0.1618  0.4683 -0.9860
 8167SOL    HW225922   0.660   5.364   4.973  0.7426 -1.1132 -1.9198
 8168SOL     OW25923   6.113   6.962   7.138  0.1312  0.0075 -0.2256
 8168SOL    HW125924   6.087   7.053   7.124  1.4857  0.5378  0.5201
 8168SOL    HW225925   6.200   6.967   7.177  0.5386 -1.6322 -0.8052
 8169SOL     OW25926   5.767   7.282   3.876  0.4475  0.2146  0.6758
 8169SOL    HW125927   5.859   7.272   3.901  0.4945  0.5570  0.6475
 8169SOL    HW225928   5.739   7.362   3.921  0.4944  0.7624 -0.2490
 8170SOL     OW25929   1.677   6.010   7.001 -0.0267  0.2080  0.3631
 8170SOL    HW125930   1.612   6.078   7.020 -3.4781 -2.6726 -0.0665
 8170SOL    HW225931   1.691   6.016   6.906 -0.8833 -0.0803  0.2080
 8171SOL     OW25932   3.702   0.743   7.172  0.4103  0.5997  0.1109
 8171SOL    HW125933   3.779   0.716   7.221  1.0401  1.2111 -0.5029
 8171SOL    HW225934   3.691   0.836   7.192  0.1664  0.6505 -0.2293
 8172SOL     OW25935   3.534   6.250   6.452 -0.2098 -0.9562  0.1085
 8172SOL    HW125936   3.629   6.243   6.467 -0.1172 -2.3585 -0.9421
 8172SOL    HW225937   3.526   6.311   6.378 -0.2927  0.9406  1.6255
 8173SOL     OW25938   6.705   5.519   6.198  0.4348  0.5301  0.0824
 8173SOL    HW125939   6.706   5.490   6.290  1.1040  2.2026  0.6429
 8173SOL    HW225940   6.744   5.445   6.150  0.6096 -0.1521  1.2185
 8174SOL     OW25941   0.850   2.641   7.013  0.4851 -0.8392  0.0083
 8174SOL    HW125942   0.915   2.658   7.081  0.6336  0.0981 -0.3598
 8174SOL    HW225943   0.887   2.681   6.934 -0.6627 -0.0202 -0.1365
 8175SOL     OW25944   1.655   4.027   1.241  0.5082  0.2335 -0.0175
 8175SOL    HW125945   1.610   3.948   1.212 -0.0278  0.9391 -1.2128
 8175SOL    HW225946   1.709   4.052   1.166  0.7476  0.9316  0.3812
 8176SOL     OW25947   2.042   3.453   1.428  0.5549  0.2199  0.2507
 8176SOL    HW125948   2.125   3.436   1.382  0.7162 -0.5826  0.8149
 8176SOL    HW225949   2.044   3.547   1.445 -1.0182  1.3070 -4.2200
 8177SOL     OW25950   3.534   2.410   1.119  0.0851  0.6327 -0.3677
 8177SOL    HW125951   3.451   2.362   1.116 -0.1436  0.8607  1.3616
 8177SOL    HW225952   3.510   2.498   1.149  1.0145  0.5028  0.8187
 8178SOL     OW25953   8.357   7.848   4.321 -0.2864 -0.4833  0.1746
 8178SOL    HW125954   8.431   7.822   4.375 -0.4561  0.9462  1.1817
 8178SOL    HW225955   8.392   7.855   4.233  0.2177 -2.0094  0.2349
 8179SOL     OW25956   6.305   5.449   4.181  0.4591  0.0243 -0.3016
 8179SOL    HW125957   6.259   5.526   4.147  0.8891 -0.2269 -1.5309
 8179SOL    HW225958   6.379   5.484   4.229  0.3288  0.3935 -0.3681
 8180SOL     OW25959   0.829   1.019   0.196  0.3495  0.0077 -0.1311
 8180SOL    HW125960   0.837   1.112   0.215 -0.5632  0.3573 -1.3102
 8180SOL    HW225961   0.919   0.987   0.189  0.6856  1.0978 -1.0280
 8181SOL     OW25962   1.711   5.227   3.883 -0.1346  0.5242  0.3832
 8181SOL    HW125963   1.744   5.177   3.808 -2.5696 -0.2575 -0.2727
 8181SOL    HW225964   1.617   5.236   3.866 -0.4066  2.1456  2.3416
 8182SOL     OW25965   6.501   5.779   6.573 -0.1828  0.3394 -0.0354
 8182SOL    HW125966   6.463   5.867   6.566 -1.3492 -0.1968 -0.5887
 8182SOL    HW225967   6.478   5.736   6.491 -0.8725 -0.9721  0.8084
 8183SOL     OW25968   0.746   8.118   8.046  0.1116  0.2920 -0.4495
 8183SOL    HW125969   0.833   8.127   8.085  0.2389 -1.6314 -0.1947
 8183SOL    HW225970   0.762   8.080   7.960 -0.4115  1.3109 -1.0242
 8184SOL     OW25971   3.588   4.570   3.513  0.3203  0.0518  0.7101
 8184SOL    HW125972   3.549   4.528   3.436  1.9984  0.8286 -0.6286
 8184SOL    HW225973   3.650   4.505   3.547  1.0895  0.4731  0.1402
 8185SOL     OW25974   8.296   3.476   2.937 -0.6003  0.2002  1.1314
 8185SOL    HW125975   8.376   3.425   2.954  0.2463  0.5969 -1.2410
 8185SOL    HW225976   8.315   3.563   2.970  0.0901  0.3659  0.3250
 8186SOL     OW25977   7.741   6.462   6.845  0.0220  0.2200 -0.0711
 8186SOL    HW125978   7.713   6.370   6.852 -0.3353  0.3650  0.5361
 8186SOL    HW225979   7.661   6.509   6.819 -0.4839  0.7134  2.1933
 8187SOL     OW25980   5.830   1.332   7.556  0.1877  0.0273 -0.3202
 8187SOL    HW125981   5.926   1.338   7.562  0.3816 -1.1190 -1.7694
 8187SOL    HW225982   5.814   1.251   7.507 -1.5270  0.3570 -0.3580
 8188SOL     OW25983   5.273   1.730   1.321 -0.5857 -0.0189 -0.2590
 8188SOL    HW125984   5.183   1.756   1.342 -0.5213 -0.9623  1.3555
 8188SOL    HW225985   5.328   1.792   1.369 -0.3032  1.1644 -1.9980
 8189SOL     OW25986   4.585   6.339   5.944  0.0320 -0.1202  0.1076
 8189SOL    HW125987   4.582   6.430   5.916 -0.5318  0.5597  2.1487
 8189SOL    HW225988   4.517   6.332   6.012  0.2803 -1.9746  0.2412
 8190SOL     OW25989   8.322   0.351   7.015 -0.3744 -0.4995 -0.4754
 8190SOL    HW125990   8.269   0.272   7.001 -0.6733 -0.3119 -0.4069
 8190SOL    HW225991   8.298   0.409   6.943 -0.5196 -0.2765 -0.2477
 8191SOL     OW25992   5.078   4.158   8.328 -0.6840 -0.1230  0.7402
 8191SOL    HW125993   4.986   4.160   8.303 -1.2107 -4.0523  1.7550
 8191SOL    HW225994   5.107   4.069   8.308  2.6228  0.6635  1.4245
 8192SOL     OW25995   0.168   4.775   0.667  0.2609  0.6406 -0.0215
 8192SOL    HW125996   0.163   4.845   0.732 -1.3698 -0.3496  0.9960
 8192SOL    HW225997   0.076   4.755   0.646  0.7325  0.3671 -2.0299
 8193SOL     OW25998   0.946   2.941   3.297 -0.3100  0.0347  0.0429
 8193SOL    HW125999   1.040   2.923   3.290 -0.6300 -1.5845 -0.6852
 8193SOL    HW226000   0.934   2.976   3.385  0.8719 -0.5449  0.4509
 8194SOL     OW26001   7.840   0.943   6.259 -0.2837 -0.3636  0.4156
 8194SOL    HW126002   7.780   0.916   6.189  0.2113 -0.3641 -0.0116
 8194SOL    HW226003   7.888   1.018   6.222  1.7762 -1.9063 -0.2045
 8195SOL     OW26004   0.032   7.291   5.034  0.2975 -0.6866  0.0089
 8195SOL    HW126005  -0.032   7.329   4.975 -1.2800 -3.2335 -0.0775
 8195SOL    HW226006   0.046   7.358   5.101 -1.4539  0.4642 -0.7106
 8196SOL     OW26007   6.634   1.304   4.748  0.1656  0.6446  0.0048
 8196SOL    HW126008   6.618   1.304   4.842  0.1060  0.8742 -0.0051
 8196SOL    HW226009   6.552   1.334   4.709  0.4931  1.4548 -0.0682
 8197SOL     OW26010   5.133   4.493   6.589  0.1480  0.1332  0.2834
 8197SOL    HW126011   5.040   4.514   6.583 -0.1560 -1.0086  0.5810
 8197SOL    HW226012   5.174   4.542   6.518 -0.6994  0.5570  0.0767
 8198SOL     OW26013   0.191   1.574   2.840  0.2022 -0.1576  0.2722
 8198SOL    HW126014   0.192   1.607   2.750  1.4950 -2.0815 -0.4812
 8198SOL    HW226015   0.102   1.541   2.853  0.4165 -1.2758 -0.8908
 8199SOL     OW26016   0.204   7.100   3.818  0.8055 -0.1152  0.4151
 8199SOL    HW126017   0.245   7.171   3.866  0.9959 -0.2383  0.4357
 8199SOL    HW226018   0.132   7.141   3.770  1.3039  0.2049 -0.0700
 8200SOL     OW26019   2.099   8.211   7.045 -0.1505 -0.0980 -0.0004
 8200SOL    HW126020   2.035   8.252   6.987  0.6306  0.9230 -0.1594
 8200SOL    HW226021   2.072   8.239   7.133  0.4455  0.8789 -0.1156
 8201SOL     OW26022   8.280   5.741   1.405  0.0029 -0.1808 -0.0420
 8201SOL    HW126023   8.253   5.671   1.465  0.2413 -0.5094 -0.3149
 8201SOL    HW226024   8.364   5.711   1.370 -0.8909 -0.7717 -1.7795
 8202SOL     OW26025   7.106   2.791   0.077  0.4279  0.6198 -0.1045
 8202SOL    HW126026   7.013   2.798   0.097  0.3925  1.0899 -0.4345
 8202SOL    HW226027   7.118   2.700   0.051 -0.1219  0.7820 -0.9678
 8203SOL     OW26028   7.210   2.326   4.757  0.1390  0.1375  0.2207
 8203SOL    HW126029   7.302   2.341   4.781  0.3967  0.8330 -1.0932
 8203SOL    HW226030   7.211   2.242   4.711  0.2608  0.4972 -0.4494
 8204SOL     OW26031   3.560   4.463   7.251  0.3918  0.4149 -0.2638
 8204SOL    HW126032   3.612   4.460   7.170  1.0415 -1.5158  0.1846
 8204SOL    HW226033   3.509   4.383   7.250 -0.4107  0.8925  0.7349
 8205SOL     OW26034   6.831   4.143   0.337  0.3310  0.5120  0.4608
 8205SOL    HW126035   6.908   4.174   0.385  1.0300  0.1863 -0.4216
 8205SOL    HW226036   6.821   4.205   0.265  0.9535 -0.5187 -0.5533
 8206SOL     OW26037   0.193   7.139   7.020  0.3201 -0.0750  0.2895
 8206SOL    HW126038   0.104   7.162   6.992  0.1715 -0.0612  0.7647
 8206SOL    HW226039   0.233   7.100   6.942  0.5124  1.5931 -0.4966
 8207SOL     OW26040   4.777   1.813   0.314 -0.2113 -0.0528  0.0955
 8207SOL    HW126041   4.689   1.837   0.341 -0.4492 -0.2279 -0.5104
 8207SOL    HW226042   4.809   1.756   0.384 -1.4869 -1.9634 -0.7745
 8208SOL     OW26043   3.497   4.773   5.452  0.4818  0.5144 -0.1000
 8208SOL    HW126044   3.523   4.741   5.539  2.0811  0.9336 -0.3874
 8208SOL    HW226045   3.533   4.708   5.392 -0.8796  0.0683 -0.4521
 8209SOL     OW26046   5.271   1.516   2.985 -0.7025 -0.4173 -0.0770
 8209SOL    HW126047   5.267   1.604   2.946 -1.2783  0.1292  1.1507
 8209SOL    HW226048   5.265   1.457   2.910 -0.6093  0.5863 -0.9101
 8210SOL     OW26049   0.895   2.075   3.629  0.5388 -0.1583 -0.0986
 8210SOL    HW126050   0.946   2.124   3.565 -1.0507  0.1691 -1.1587
 8210SOL    HW226051   0.859   2.001   3.580 -0.1315 -0.3013  0.5923
 8211SOL     OW26052   8.349   6.767   6.980  0.0389  0.0060  0.5780
 8211SOL    HW126053   8.403   6.806   7.048 -0.8557 -0.9139  1.8751
 8211SOL    HW226054   8.262   6.760   7.020 -0.4284 -0.8615 -0.5412
 8212SOL     OW26055   3.223   5.000   0.971 -0.4094 -0.0240  0.3573
 8212SOL    HW126056   3.183   5.001   0.884  0.8174 -0.1467 -0.2297
 8212SOL    HW226057   3.151   4.978   1.030 -1.6040  1.5413 -0.4321
 8213SOL     OW26058   7.545   3.790   4.929 -0.7476  0.6325  0.4676
 8213SOL    HW126059   7.481   3.824   4.867 -1.4689 -0.8478  0.3743
 8213SOL    HW226060   7.626   3.783   4.878 -1.1630  0.0647 -0.1197
 8214SOL     OW26061   7.941   0.323   5.573  0.0004  0.4296  0.0747
 8214SOL    HW126062   7.846   0.322   5.559  0.1291  1.4988 -1.0637
 8214SOL    HW226063   7.956   0.255   5.639 -1.4808 -0.1833 -0.1717
 8215SOL     OW26064   6.652   4.060   7.059 -0.5668  0.1103  0.2652
 8215SOL    HW126065   6.705   4.118   7.005  1.4525 -2.2912 -0.4985
 8215SOL    HW226066   6.679   4.081   7.149  1.5762 -0.8625 -0.0923
 8216SOL     OW26067   7.827   2.746   7.125 -0.1431 -0.1333  0.1179
 8216SOL    HW126068   7.825   2.840   7.139 -1.0447  0.3692 -2.7227
 8216SOL    HW226069   7.752   2.712   7.175  0.0018  0.6991  0.9033
 8217SOL     OW26070   1.303   3.811   8.113 -0.5182 -0.1346 -0.6378
 8217SOL    HW126071   1.372   3.772   8.061  0.1371 -0.1551  0.2120
 8217SOL    HW226072   1.288   3.897   8.073  0.1944 -0.0196 -0.6734
 8218SOL     OW26073   4.065   4.048   1.021  0.6117 -0.6301  0.5311
 8218SOL    HW126074   4.040   3.960   1.050  0.7203 -1.1991 -1.0229
 8218SOL    HW226075   3.991   4.078   0.969  1.2984 -0.5329 -0.4110
 8219SOL     OW26076   0.639   5.470   4.196 -0.4826 -0.6323 -0.0078
 8219SOL    HW126077   0.601   5.556   4.177 -1.4228 -1.0983 -0.3168
 8219SOL    HW226078   0.711   5.488   4.257  1.2166  0.6871 -2.2477
 8220SOL     OW26079   8.138   0.834   6.560  0.4947 -0.4329  0.4068
 8220SOL    HW126080   8.173   0.834   6.471  2.9440  0.0538  1.2874
 8220SOL    HW226081   8.125   0.926   6.581  1.8020 -0.4026  1.1884
 8221SOL     OW26082   0.514   0.040   5.588  0.4175 -0.5923 -0.7690
 8221SOL    HW126083   0.547   0.123   5.555  0.9352 -0.8405 -0.8898
 8221SOL    HW226084   0.558  -0.026   5.535  0.5492 -0.9653 -0.2063
 8222SOL     OW26085   0.792   5.286   1.314 -0.4889  0.7733 -0.3674
 8222SOL    HW126086   0.806   5.224   1.386 -0.4512  1.0766 -0.1106
 8222SOL    HW226087   0.859   5.352   1.327  0.4977  0.0438 -1.5694
 8223SOL     OW26088   1.503   5.173   2.395 -0.2923 -0.7107  0.2144
 8223SOL    HW126089   1.593   5.158   2.425  0.1499 -0.5909 -1.0198
 8223SOL    HW226090   1.493   5.116   2.319 -0.7965  0.2965 -0.4892
 8224SOL     OW26091   7.403   6.580   1.836 -0.1048 -0.5666 -0.1292
 8224SOL    HW126092   7.397   6.515   1.766  0.7167 -2.2430  1.2745
 8224SOL    HW226093   7.492   6.615   1.828 -0.0821 -0.6115 -0.0819
 8225SOL     OW26094   6.862   5.392   2.335  1.1591 -0.3583  0.2019
 8225SOL    HW126095   6.838   5.482   2.357  1.9147 -0.6599  2.5108
 8225SOL    HW226096   6.785   5.357   2.290 -0.0118  0.7642  1.2615
 8226SOL     OW26097   1.599   0.994   7.287 -0.4966  0.7362  0.1152
 8226SOL    HW126098   1.651   1.039   7.220  0.6576  0.0948  0.5548
 8226SOL    HW226099   1.508   1.006   7.258 -0.0045 -1.9260 -3.1697
 8227SOL     OW26100   8.124   0.902   2.378 -0.1265  0.3870  0.4107
 8227SOL    HW126101   8.087   0.938   2.297 -0.9938  0.5284  0.8542
 8227SOL    HW226102   8.058   0.840   2.409  0.2619  0.2248  0.9326
 8228SOL     OW26103   0.360   6.445   0.830  0.1445  0.1233  0.0078
 8228SOL    HW126104   0.446   6.461   0.792 -0.5502  0.4841 -1.4836
 8228SOL    HW226105   0.326   6.532   0.851 -0.4845  0.1122 -0.8933
 8229SOL     OW26106   1.754   1.423   6.126  0.4877 -0.0397  0.2410
 8229SOL    HW126107   1.834   1.391   6.168  0.0958 -0.8548  0.3871
 8229SOL    HW226108   1.743   1.366   6.050  0.1926  0.2452  0.0713
 8230SOL     OW26109   8.152   7.283   0.853  0.3438 -0.1748  0.1609
 8230SOL    HW126110   8.075   7.267   0.906  1.2207 -1.3850  1.1381
 8230SOL    HW226111   8.170   7.198   0.810  0.8027  0.2372 -0.4872
 8231SOL     OW26112   8.352   0.339   6.268 -0.0646  0.1381 -0.6704
 8231SOL    HW126113   8.393   0.310   6.186 -0.5924  0.2460 -0.9735
 8231SOL    HW226114   8.405   0.298   6.337 -0.6110 -1.3096 -1.0794
 8232SOL     OW26115   7.581   3.021   6.487  0.2089 -0.2727  0.2447
 8232SOL    HW126116   7.627   2.939   6.505  0.2375 -0.8469 -2.0602
 8232SOL    HW226117   7.629   3.060   6.414 -0.7439  1.0135  0.2735
 8233SOL     OW26118   4.228   0.699   0.407  0.7366  0.2776 -0.4781
 8233SOL    HW126119   4.166   0.648   0.355  1.1062  0.8426 -1.5107
 8233SOL    HW226120   4.186   0.711   0.491 -1.7590  2.8622 -1.9159
 8234SOL     OW26121   7.586   4.001   0.123  0.5956  0.2411 -0.2103
 8234SOL    HW126122   7.504   3.955   0.140  0.1950 -0.1020 -2.7039
 8234SOL    HW226123   7.560   4.079   0.073  1.6123  1.2798  0.8321
 8235SOL     OW26124   5.817   4.017   3.180 -0.2819 -0.1827  0.1362
 8235SOL    HW126125   5.843   4.050   3.094 -0.7601  1.2495  0.5095
 8235SOL    HW226126   5.748   3.954   3.162  0.1502 -0.4613 -0.5709
 8236SOL     OW26127   1.500   0.929   3.102  0.1213 -0.9535 -0.1964
 8236SOL    HW126128   1.562   0.969   3.042 -1.4840  0.3726 -1.0321
 8236SOL    HW226129   1.483   0.842   3.065  0.7800 -0.9777 -0.4473
 8237SOL     OW26130   6.596   4.742   5.915 -0.3377  0.0969  0.5797
 8237SOL    HW126131   6.508   4.725   5.949 -0.3047 -0.9045  0.1881
 8237SOL    HW226132   6.631   4.655   5.893  0.0187  0.6339 -1.0791
 8238SOL     OW26133   0.201   7.799   8.035 -0.1847  0.6383  0.2172
 8238SOL    HW126134   0.117   7.831   8.002 -0.5066 -0.1556  0.2477
 8238SOL    HW226135   0.259   7.800   7.958 -0.5171  0.2109 -0.0423
 8239SOL     OW26136   6.815   3.378   7.818 -0.5383 -0.0456  0.0876
 8239SOL    HW126137   6.817   3.357   7.911 -1.6665 -0.6452 -0.0067
 8239SOL    HW226138   6.810   3.293   7.774  3.0418  0.0020 -0.7114
 8240SOL     OW26139   1.352   6.328   5.399 -0.2924  0.2361 -0.1541
 8240SOL    HW126140   1.350   6.324   5.494 -1.0062 -0.7761 -0.1911
 8240SOL    HW226141   1.415   6.397   5.379  0.5936 -0.1879  1.0456
 8241SOL     OW26142   5.338   6.267   0.512 -0.1605  0.2189  0.3549
 8241SOL    HW126143   5.310   6.184   0.552 -0.6278  0.5264  0.6824
 8241SOL    HW226144   5.349   6.246   0.419  0.8752 -0.4898  0.6185
 8242SOL     OW26145   2.367   2.382   1.855  0.0228 -0.3091 -0.2057
 8242SOL    HW126146   2.279   2.368   1.821  0.0008  0.1821 -0.3496
 8242SOL    HW226147   2.405   2.449   1.799 -1.3943  3.5788  3.0137
 8243SOL     OW26148   3.986   5.746   6.160 -0.4861  0.3699  0.4176
 8243SOL    HW126149   4.077   5.775   6.163 -0.1059 -0.7424  0.0566
 8243SOL    HW226150   3.987   5.657   6.196 -0.9129 -0.8483 -2.3390
 8244SOL     OW26151   8.292   3.363   6.423  0.4002 -0.0411  0.1417
 8244SOL    HW126152   8.376   3.403   6.398  0.4422  0.9536  1.7174
 8244SOL    HW226153   8.309   3.322   6.508 -0.3714 -1.0561 -0.1724
 8245SOL     OW26154   3.589   5.587   6.696 -0.3016 -0.3690  0.0761
 8245SOL    HW126155   3.600   5.556   6.606  1.7045 -0.0627  0.1687
 8245SOL    HW226156   3.677   5.614   6.723 -0.9867  0.1917  1.9013
 8246SOL     OW26157   8.257   7.428   4.832 -0.7711  0.7889 -0.1222
 8246SOL    HW126158   8.241   7.497   4.897  0.1847  0.5866  0.3527
 8246SOL    HW226159   8.241   7.471   4.748 -0.2029  1.6036  0.1645
 8247SOL     OW26160   2.631   2.806   5.445 -0.0906  0.1168  0.2789
 8247SOL    HW126161   2.654   2.850   5.526  0.2939 -0.3544  0.4262
 8247SOL    HW226162   2.536   2.821   5.436 -0.4426 -1.0990  1.6009
 8248SOL     OW26163   2.148   6.927   5.308  1.0788  0.6639  0.2859
 8248SOL    HW126164   2.155   6.964   5.220  3.2604 -1.9689 -0.8342
 8248SOL    HW226165   2.076   6.865   5.303  2.6640 -1.2286 -0.4964
 8249SOL     OW26166   1.793   2.280   7.794 -0.4074 -0.1529 -0.1697
 8249SOL    HW126167   1.887   2.268   7.780 -0.3227 -0.5735  0.7041
 8249SOL    HW226168   1.752   2.209   7.745 -0.1873 -0.8062  0.5734
 8250SOL     OW26169   6.211   5.611   1.594 -0.0719  0.6311 -0.1225
 8250SOL    HW126170   6.181   5.700   1.578 -0.2335  0.6624  0.3177
 8250SOL    HW226171   6.131   5.558   1.592 -0.0356  0.5666  0.0593
 8251SOL     OW26172   4.537   0.816   2.812 -0.5237 -0.0507  0.2903
 8251SOL    HW126173   4.548   0.810   2.907  0.0314  1.0393  0.3198
 8251SOL    HW226174   4.582   0.739   2.777 -1.2709 -0.7934  0.9280
 8252SOL     OW26175   8.288   1.298   1.273 -0.4065 -0.0399 -0.0005
 8252SOL    HW126176   8.309   1.242   1.198 -1.9208  0.1957 -0.6385
 8252SOL    HW226177   8.229   1.365   1.237 -1.5545 -0.2005  1.4791
 8253SOL     OW26178   4.896   4.442   7.483  0.1648  0.1776  0.4703
 8253SOL    HW126179   4.821   4.419   7.538  1.4072 -1.2480  1.6662
 8253SOL    HW226180   4.941   4.511   7.532  0.6731 -0.3282  0.7331
 8254SOL     OW26181   4.575   1.666   3.484  0.2534  0.1784 -0.4082
 8254SOL    HW126182   4.561   1.602   3.414 -0.6380 -0.5670  0.4305
 8254SOL    HW226183   4.629   1.734   3.443  0.4200 -0.6278 -1.5898
 8255SOL     OW26184   5.316   7.662   5.336  0.4120  0.3763 -0.2985
 8255SOL    HW126185   5.251   7.733   5.332  0.5439  0.4274 -2.5612
 8255SOL    HW226186   5.298   7.609   5.259  0.2767 -2.1579  1.3697
 8256SOL     OW26187   4.523   3.880   0.480 -0.0164 -0.2223  0.0904
 8256SOL    HW126188   4.546   3.843   0.395 -1.8561 -2.1671  0.3524
 8256SOL    HW226189   4.464   3.952   0.460  0.4401  0.0508 -0.2998
 8257SOL     OW26190   5.602   7.422   6.523 -0.7511  0.3079  0.5997
 8257SOL    HW126191   5.644   7.372   6.593 -0.7249  2.4076  2.1824
 8257SOL    HW226192   5.536   7.476   6.568 -0.8628  1.5898 -0.9968
 8258SOL     OW26193   1.520   2.493   0.615 -0.0541 -0.3555  0.0668
 8258SOL    HW126194   1.460   2.512   0.687  0.7041  0.1875  0.5685
 8258SOL    HW226195   1.493   2.554   0.546  0.5559  0.6335  0.6645
 8259SOL     OW26196   7.826   8.064   0.647 -0.3282  0.1107 -0.1972
 8259SOL    HW126197   7.855   8.120   0.575  2.2817  0.7152  1.2021
 8259SOL    HW226198   7.780   8.124   0.707  0.3663  0.3055  0.1563
 8260SOL     OW26199   5.204   0.425   6.011  0.3589 -0.6264 -0.6325
 8260SOL    HW126200   5.213   0.355   6.075  0.7196 -1.5891 -1.6865
 8260SOL    HW226201   5.155   0.385   5.939 -1.8382  1.0175 -0.1311
 8261SOL     OW26202   8.152   3.507   5.493  0.2706  0.3783 -0.3072
 8261SOL    HW126203   8.245   3.511   5.468  0.3110  1.6037 -0.0186
 8261SOL    HW226204   8.148   3.438   5.559  1.2698  1.3524  0.8196
 8262SOL     OW26205   7.092   3.675   5.646  0.1440 -0.4016 -0.7165
 8262SOL    HW126206   7.029   3.745   5.663  1.7874  1.1701 -0.7536
 8262SOL    HW226207   7.113   3.683   5.553  3.7700  2.2860  0.0703
 8263SOL     OW26208   0.370   1.817   2.125  0.2213  0.6028  0.0763
 8263SOL    HW126209   0.456   1.808   2.084  0.3769 -0.2328  0.5833
 8263SOL    HW226210   0.368   1.907   2.157  0.8040  0.6979 -0.1526
 8264SOL     OW26211   3.666   2.526   7.944 -0.1970  0.5104 -0.3415
 8264SOL    HW126212   3.749   2.541   7.989 -0.0164 -0.9249 -0.1715
 8264SOL    HW226213   3.691   2.496   7.857 -0.5130 -0.6763 -0.0392
 8265SOL     OW26214   6.282   3.271   2.590  0.0032 -0.5217  0.1465
 8265SOL    HW126215   6.265   3.258   2.497  0.5253 -0.8650  0.0969
 8265SOL    HW226216   6.318   3.187   2.620  1.8054  0.2387  0.1986
 8266SOL     OW26217   7.407   4.049   1.016 -0.1461  0.0974 -0.2833
 8266SOL    HW126218   7.343   4.014   1.078 -1.1845  0.9325 -0.8506
 8266SOL    HW226219   7.412   4.142   1.037  2.6339 -0.2810  1.2529
 8267SOL     OW26220   0.869   1.704   0.678 -0.3549  0.0864  0.6910
 8267SOL    HW126221   0.851   1.794   0.709  0.8738  0.8243 -0.6417
 8267SOL    HW226222   0.820   1.697   0.596  0.9725  0.1963 -0.1369
 8268SOL     OW26223   5.085   3.609   5.214  0.1374 -0.2983 -0.1502
 8268SOL    HW126224   5.092   3.675   5.283  1.5475 -1.9777  1.4292
 8268SOL    HW226225   4.991   3.589   5.209 -0.1270  0.7606  0.3956
 8269SOL     OW26226   1.327   4.354   7.799  0.4675  0.5575  0.2437
 8269SOL    HW126227   1.398   4.403   7.840 -0.1093  0.0933  1.8983
 8269SOL    HW226228   1.274   4.421   7.755  2.5245  0.7737 -2.0600
 8270SOL     OW26229   6.362   1.934   5.870  0.6883  0.3944  0.6235
 8270SOL    HW126230   6.378   1.994   5.943 -0.2188  1.3480  0.0735
 8270SOL    HW226231   6.439   1.944   5.814  0.5646  1.0224  0.5590
 8271SOL     OW26232   0.925   6.761   6.917  0.7884  0.6398 -0.3228
 8271SOL    HW126233   0.855   6.719   6.867  1.4970 -0.5161 -0.3666
 8271SOL    HW226234   0.935   6.847   6.875  0.2756  0.3184 -1.1358
 8272SOL     OW26235   1.193   7.377   4.326 -0.1920  0.0693 -0.4401
 8272SOL    HW126236   1.119   7.416   4.372  0.8884  0.3838  1.1209
 8272SOL    HW226237   1.180   7.282   4.337 -1.0369  0.0667 -1.3267
 8273SOL     OW26238   7.224   5.622   3.347 -0.0142  0.2110 -0.6032
 8273SOL    HW126239   7.131   5.610   3.366 -0.8842  4.3270 -1.1844
 8273SOL    HW226240   7.261   5.654   3.429  0.9334 -1.3773 -0.3827
 8274SOL     OW26241   0.163   3.467   0.289  0.5457 -0.3016  0.0668
 8274SOL    HW126242   0.235   3.424   0.243  0.0017  0.7645 -1.9341
 8274SOL    HW226243   0.198   3.490   0.375  1.6872 -2.2404  0.1683
 8275SOL     OW26244   1.179   0.847   8.080 -0.6533  0.9201 -0.8658
 8275SOL    HW126245   1.120   0.781   8.043 -0.5499  0.6969 -0.6339
 8275SOL    HW226246   1.218   0.889   8.004 -0.3806  0.4093 -1.0154
 8276SOL     OW26247   1.156   3.392   2.464 -0.0174  0.6533 -0.8365
 8276SOL    HW126248   1.152   3.318   2.525  1.9454  1.3169  0.1689
 8276SOL    HW226249   1.067   3.428   2.465 -0.6473 -0.8192 -0.2675
 8277SOL     OW26250   2.389   3.139   1.574 -0.1420  0.6697  0.0911
 8277SOL    HW126251   2.319   3.073   1.571 -0.1272  0.6836 -0.7344
 8277SOL    HW226252   2.355   3.212   1.523  1.1219  0.0225 -1.7955
 8278SOL     OW26253   3.377   0.756   1.410  0.0457 -0.3678 -0.1297
 8278SOL    HW126254   3.352   0.757   1.502 -0.4539  3.1576 -0.1703
 8278SOL    HW226255   3.473   0.759   1.411  0.0318 -0.0447  0.2687
 8279SOL     OW26256   2.192   1.848   1.358 -0.2074  0.6131 -0.2486
 8279SOL    HW126257   2.176   1.861   1.451 -2.7798  2.1209 -0.8034
 8279SOL    HW226258   2.107   1.863   1.316  0.2236 -2.5846 -2.6683
 8280SOL     OW26259   0.286   5.396   7.087  0.1359  0.4180 -0.1704
 8280SOL    HW126260   0.223   5.327   7.105  0.0896  0.6773  0.6987
 8280SOL    HW226261   0.371   5.350   7.083  0.1919  0.3893  1.0740
 8281SOL     OW26262   3.537   2.234   3.401  0.2139 -0.4185  0.0121
 8281SOL    HW126263   3.625   2.230   3.364  0.2992  1.1763 -0.0493
 8281SOL    HW226264   3.479   2.234   3.325  0.2035 -0.6716  0.0203
 8282SOL     OW26265   2.180   5.753   8.230 -0.2142  0.6786 -0.3520
 8282SOL    HW126266   2.155   5.668   8.265  1.3686  0.1766 -0.3481
 8282SOL    HW226267   2.097   5.797   8.213 -1.0591 -0.1333  1.3882
 8283SOL     OW26268   0.551   4.420   0.039  0.1032  0.1601 -0.1488
 8283SOL    HW126269   0.466   4.378   0.048  0.1456 -0.2724 -1.5354
 8283SOL    HW226270   0.561   4.434  -0.055  0.1902  3.1351  0.2063
 8284SOL     OW26271   3.256   3.834   6.164  0.4507 -0.0758  0.7684
 8284SOL    HW126272   3.272   3.740   6.174  1.1371 -0.0100  0.3390
 8284SOL    HW226273   3.198   3.856   6.237 -1.8243 -1.3210 -0.5658
 8285SOL     OW26274   8.008   2.396   7.228 -0.5615  0.0206  0.7025
 8285SOL    HW126275   7.979   2.358   7.311 -1.5357  0.0187  0.3721
 8285SOL    HW226276   7.971   2.339   7.161  1.8164 -1.1388  0.2411
 8286SOL     OW26277   6.697   7.986   2.680  0.1359  0.1845 -0.1247
 8286SOL    HW126278   6.742   7.908   2.712  1.1039 -0.0618 -2.0079
 8286SOL    HW226279   6.754   8.022   2.613 -0.7545  1.9863  0.0132
 8287SOL     OW26280   0.598   4.552   2.469 -0.4844 -0.1348  0.5002
 8287SOL    HW126281   0.630   4.464   2.446 -0.7088 -0.1312  0.1622
 8287SOL    HW226282   0.678   4.603   2.482 -0.3421 -0.1358 -0.3030
 8288SOL     OW26283   3.856   1.364   6.564 -0.3440  0.3844  0.0922
 8288SOL    HW126284   3.911   1.295   6.527 -0.5658  0.6967 -0.8539
 8288SOL    HW226285   3.847   1.340   6.656 -0.1172 -0.6483 -0.1354
 8289SOL     OW26286   7.312   8.091   7.170 -0.3136  0.6819  0.2177
 8289SOL    HW126287   7.219   8.096   7.192 -1.2304  1.3060 -3.2425
 8289SOL    HW226288   7.353   8.048   7.246 -3.8664 -2.5948  0.5539
 8290SOL     OW26289   4.842   5.561   7.036  0.3919  0.7385 -0.0333
 8290SOL    HW126290   4.762   5.512   7.017  0.2028  2.0087 -3.0792
 8290SOL    HW226291   4.859   5.543   7.128 -0.5495 -3.6556 -0.4801
 8291SOL     OW26292   4.546   7.705   6.035  0.7600  0.2436 -0.1114
 8291SOL    HW126293   4.570   7.768   5.967  0.3001  0.3162 -0.2135
 8291SOL    HW226294   4.507   7.759   6.105 -0.9746 -0.0345 -0.8058
 8292SOL     OW26295   2.624   0.435   3.737 -0.3994  0.3936 -0.4471
 8292SOL    HW126296   2.672   0.363   3.696 -1.9980 -0.3017 -1.2089
 8292SOL    HW226297   2.677   0.513   3.719  0.3020 -0.2901 -1.5004
 8293SOL     OW26298   6.864   6.326   2.929  0.4344 -0.0495  0.6706
 8293SOL    HW126299   6.915   6.330   2.848  1.5613  0.1689  1.3617
 8293SOL    HW226300   6.774   6.345   2.903  0.9308  0.9260 -0.3987
 8294SOL     OW26301   1.558   7.967   0.593  0.2309 -0.0901  0.1091
 8294SOL    HW126302   1.570   8.022   0.515 -1.0243 -0.7530 -0.5928
 8294SOL    HW226303   1.565   7.878   0.561  1.5498 -0.3743  1.1167
 8295SOL     OW26304   0.484   7.516   1.651 -0.1318  0.0857 -0.4284
 8295SOL    HW126305   0.428   7.466   1.711  0.5950 -0.9962 -0.6230
 8295SOL    HW226306   0.500   7.599   1.696 -1.2714  0.1119 -0.0462
 8296SOL     OW26307   2.874   5.957   3.922  0.4046  0.0302 -0.2633
 8296SOL    HW126308   2.924   5.898   3.865  0.4713 -0.8435  0.6716
 8296SOL    HW226309   2.903   6.045   3.897  0.7131 -0.3513 -1.3028
 8297SOL     OW26310   5.951   0.733   5.224  0.0878 -0.3586  0.5175
 8297SOL    HW126311   6.042   0.762   5.233  1.6612 -3.3299 -2.9731
 8297SOL    HW226312   5.947   0.650   5.271 -0.3755 -0.8873 -0.4182
 8298SOL     OW26313   4.776   3.822   5.367 -0.4391  0.3052  0.1853
 8298SOL    HW126314   4.794   3.761   5.438  0.0844 -0.1420 -0.3365
 8298SOL    HW226315   4.681   3.815   5.353 -0.2505 -1.0905 -0.5102
 8299SOL     OW26316   4.232   5.052   7.184  0.4888  0.1649 -0.0393
 8299SOL    HW126317   4.138   5.034   7.179 -0.1736  2.7206  1.2892
 8299SOL    HW226318   4.243   5.094   7.270  2.9760 -0.6169  0.1001
 8300SOL     OW26319   1.846   4.950   4.043  0.3055 -0.1989  0.7671
 8300SOL    HW126320   1.859   5.036   4.084 -0.6397  0.4516 -0.2427
 8300SOL    HW226321   1.886   4.958   3.957 -1.0154 -0.2887  0.1254
 8301SOL     OW26322   6.311   5.558   6.618  0.1320 -0.3380  0.3461
 8301SOL    HW126323   6.280   5.505   6.691 -0.0880 -0.0458  0.4668
 8301SOL    HW226324   6.373   5.619   6.658 -0.1642 -0.0214  0.3334
 8302SOL     OW26325   3.242   8.059   2.427  0.1597  0.1520  0.2954
 8302SOL    HW126326   3.208   8.135   2.476 -0.3349  0.6170 -0.7321
 8302SOL    HW226327   3.240   7.987   2.490 -0.9865  0.6036  0.8095
 8303SOL     OW26328   7.738   4.612   2.899 -0.2127 -0.3085 -0.0628
 8303SOL    HW126329   7.734   4.703   2.870  1.6413 -1.2692 -4.0342
 8303SOL    HW226330   7.687   4.564   2.834  1.3959 -2.4000  0.1003
 8304SOL     OW26331   5.446   0.169   2.040 -0.1054  0.0517  0.0898
 8304SOL    HW126332   5.362   0.199   2.008 -0.3666  0.1152  0.8125
 8304SOL    HW226333   5.509   0.234   2.009 -0.2569 -0.2145 -0.7959
 8305SOL     OW26334   4.258   2.518   3.316  0.5538 -0.7494  0.3007
 8305SOL    HW126335   4.220   2.554   3.236  0.8932 -0.0606  0.4393
 8305SOL    HW226336   4.186   2.514   3.378  0.4703 -0.4699  0.2236
 8306SOL     OW26337   6.156   7.630   1.089 -0.2775  0.0965 -0.1848
 8306SOL    HW126338   6.224   7.629   1.021 -1.1786  0.1902 -1.1245
 8306SOL    HW226339   6.074   7.636   1.040 -1.0438 -1.1699  0.8658
 8307SOL     OW26340   6.427   7.192   1.945  0.6934  0.1751 -0.6158
 8307SOL    HW126341   6.515   7.159   1.927  0.5674  0.0547 -1.0144
 8307SOL    HW226342   6.369   7.138   1.891  0.1732 -0.9775  1.0266
 8308SOL     OW26343   8.091   3.194   5.939 -0.2435 -0.3098  0.3194
 8308SOL    HW126344   8.060   3.103   5.939 -0.0936 -0.4484  3.2153
 8308SOL    HW226345   8.182   3.188   5.911 -0.4433 -0.9363 -0.2307
 8309SOL     OW26346   1.665   6.097   1.558 -0.2853  0.0308 -0.0920
 8309SOL    HW126347   1.746   6.109   1.609 -0.5144  0.7758  0.1098
 8309SOL    HW226348   1.595   6.127   1.617 -0.6811 -0.3378 -0.3725
 8310SOL     OW26349   6.941   0.908   2.623 -0.0492  0.0279  0.4094
 8310SOL    HW126350   6.928   0.959   2.543  0.6920  1.6233  1.2566
 8310SOL    HW226351   6.910   0.820   2.601  0.1683  0.4177 -1.6215
 8311SOL     OW26352   0.891   0.139   7.444 -0.2069 -0.7231  0.0032
 8311SOL    HW126353   0.906   0.120   7.537  2.1091  1.8029  0.2616
 8311SOL    HW226354   0.955   0.085   7.398  1.3646  0.8584  0.2285
 8312SOL     OW26355   5.468   4.094   2.545  0.3016 -0.8400  0.3983
 8312SOL    HW126356   5.509   4.012   2.571 -0.4787 -0.8134  1.8332
 8312SOL    HW226357   5.502   4.112   2.457  2.5086 -1.3565  1.0807
 8313SOL     OW26358   4.113   8.318   3.359  0.5967 -0.5446 -0.3670
 8313SOL    HW126359   4.026   8.354   3.378  0.4946 -1.1497  0.3117
 8313SOL    HW226360   4.140   8.364   3.279  0.3501  0.8356  0.3186
 8314SOL     OW26361   0.459   1.745   4.246 -0.5684  0.1196 -0.4924
 8314SOL    HW126362   0.429   1.836   4.241 -1.9458 -0.3230 -0.7235
 8314SOL    HW226363   0.385   1.697   4.283 -0.5544 -1.1887 -2.0339
 8315SOL     OW26364   6.978   7.932   2.288 -0.0689  0.2471  0.1746
 8315SOL    HW126365   6.948   8.013   2.247  0.5738  0.3582 -0.0843
 8315SOL    HW226366   6.973   7.950   2.382  0.2162  0.6451  0.1191
 8316SOL     OW26367   3.602   7.078   6.770 -0.4817 -0.5469 -0.4546
 8316SOL    HW126368   3.652   7.129   6.706  1.5010 -1.2533  0.4564
 8316SOL    HW226369   3.601   6.989   6.734  1.7101 -1.2234  0.9877
 8317SOL     OW26370   1.484   1.875   5.028  0.1432  0.1387  0.2208
 8317SOL    HW126371   1.535   1.803   4.991 -0.9991 -0.5858  0.0167
 8317SOL    HW226372   1.458   1.927   4.952  1.1553  0.9287  0.3855
 8318SOL     OW26373   6.011   5.686   5.558 -0.0873  0.8548  0.1836
 8318SOL    HW126374   6.093   5.639   5.574 -0.6908 -0.3884 -0.2863
 8318SOL    HW226375   6.038   5.777   5.549  1.7849  0.1344 -3.5230
 8319SOL     OW26376   6.712   1.728   7.440  0.5162  0.0777 -0.4830
 8319SOL    HW126377   6.682   1.819   7.442  0.2267 -0.0196 -0.2464
 8319SOL    HW226378   6.687   1.693   7.526  1.1138 -0.0671 -0.3650
 8320SOL     OW26379   1.995   2.975   5.476 -0.4276  0.0634  0.3534
 8320SOL    HW126380   2.044   2.912   5.529  2.2821 -0.0544 -2.0627
 8320SOL    HW226381   2.000   2.941   5.387 -2.1387  1.8218 -0.4901
 8321SOL     OW26382   8.302   8.167   4.189 -0.1457  0.1122 -0.2971
 8321SOL    HW126383   8.340   8.194   4.272  0.2155 -0.7647 -0.1644
 8321SOL    HW226384   8.346   8.085   4.168  1.8213  1.6680 -2.7436
 8322SOL     OW26385   8.284   5.548   3.278  0.1610  0.1121  0.0236
 8322SOL    HW126386   8.211   5.500   3.239  0.7957 -2.1645  1.4694
 8322SOL    HW226387   8.360   5.522   3.226  0.4951 -0.4113  0.7565
 8323SOL     OW26388   0.774   7.009   7.615  0.2137  0.2520  0.0075
 8323SOL    HW126389   0.860   7.016   7.575 -0.2379 -0.6850 -1.2296
 8323SOL    HW226390   0.749   7.099   7.636  0.7283  0.7461 -1.3504
 8324SOL     OW26391   6.101   1.270   0.586  0.2692 -0.0202  0.0798
 8324SOL    HW126392   6.024   1.301   0.538 -0.2473  0.1349  0.9801
 8324SOL    HW226393   6.164   1.247   0.518  1.2326  4.1754 -0.7519
 8325SOL     OW26394   3.344   4.445   5.812 -0.0058  0.4511 -1.1063
 8325SOL    HW126395   3.310   4.534   5.805  1.0443  0.9316 -0.3685
 8325SOL    HW226396   3.282   4.400   5.870 -0.9878  0.4471 -2.1323
 8326SOL     OW26397   6.398   4.333   0.372  0.0195 -0.0846 -0.3205
 8326SOL    HW126398   6.467   4.272   0.398  1.3028  1.3757 -0.2030
 8326SOL    HW226399   6.355   4.290   0.298 -0.7862 -2.2717  1.3065
 8327SOL     OW26400   5.368   2.312   4.223  0.0097  0.3824 -0.3233
 8327SOL    HW126401   5.313   2.390   4.230 -2.3380 -1.1783 -0.5256
 8327SOL    HW226402   5.357   2.267   4.306  1.0596  0.0609 -0.3475
 8328SOL     OW26403   2.725   3.417   0.642 -0.3888  0.0200  0.3741
 8328SOL    HW126404   2.732   3.389   0.733 -1.0141 -0.3514  0.3136
 8328SOL    HW226405   2.652   3.478   0.641 -0.5874 -0.2178  0.0713
 8329SOL     OW26406   3.017   4.746   2.395 -0.2136  0.3985 -0.1309
 8329SOL    HW126407   2.997   4.661   2.435  0.6753 -0.2434 -0.9797
 8329SOL    HW226408   3.111   4.758   2.410 -0.4129  1.4484  0.3441
 8330SOL     OW26409   3.849   5.848   5.715  0.4569  0.2974 -0.2421
 8330SOL    HW126410   3.819   5.902   5.788 -2.1585 -0.8120 -0.3991
 8330SOL    HW226411   3.874   5.911   5.647 -0.5340  1.3284  0.3178
 8331SOL     OW26412   5.166   7.867   6.420 -0.0288 -0.4012  0.2707
 8331SOL    HW126413   5.133   7.779   6.437 -0.5571 -0.0124  1.3394
 8331SOL    HW226414   5.088   7.917   6.394  0.3958 -0.4229 -1.1289
 8332SOL     OW26415   3.757   2.259   6.246 -0.1657  0.1947 -0.1451
 8332SOL    HW126416   3.714   2.211   6.317 -0.3715  1.1552  0.3963
 8332SOL    HW226417   3.688   2.273   6.181 -0.7751  1.9039  0.8075
 8333SOL     OW26418   6.666   7.853   3.309 -0.1625 -0.1876  0.0992
 8333SOL    HW126419   6.613   7.914   3.360 -0.4830  1.1194 -1.6854
 8333SOL    HW226420   6.606   7.781   3.287 -0.2185 -0.3951  0.9152
 8334SOL     OW26421   3.003   3.270   0.142  0.0512  0.1890 -0.3713
 8334SOL    HW126422   3.078   3.215   0.121 -0.0726 -0.1929  0.1860
 8334SOL    HW226423   2.958   3.225   0.213  0.5100  1.4824  0.7973
 8335SOL     OW26424   4.376   0.332   1.940 -0.4258  0.1935  0.0609
 8335SOL    HW126425   4.465   0.301   1.956 -0.1824  1.9423  2.7880
 8335SOL    HW226426   4.324   0.291   2.008 -0.7168  2.8480  1.5769
 8336SOL     OW26427   1.479   4.360   5.227 -0.5871  0.1112  0.6591
 8336SOL    HW126428   1.414   4.430   5.232 -0.6141  0.0174  2.0596
 8336SOL    HW226429   1.456   4.300   5.298 -0.7786 -1.5324 -0.7447
 8337SOL     OW26430   1.080   4.056   4.031  1.0717 -0.0407 -0.0763
 8337SOL    HW126431   0.990   4.028   4.049  0.7188  0.1930 -1.3958
 8337SOL    HW226432   1.091   4.136   4.083  0.4409  0.0479 -0.0739
 8338SOL     OW26433   1.612   4.068   3.688 -0.2592  0.2524 -0.2672
 8338SOL    HW126434   1.665   4.145   3.666 -1.4467  1.3994  0.7714
 8338SOL    HW226435   1.619   4.012   3.611  0.0616  1.7067 -1.3350
 8339SOL     OW26436   6.610   6.117   7.778  0.1385 -0.2900  0.1907
 8339SOL    HW126437   6.585   6.161   7.697 -0.3246 -0.0750  0.4475
 8339SOL    HW226438   6.527   6.095   7.820  0.3341  1.1847  1.4664
 8340SOL     OW26439   5.010   1.728   2.825 -0.0481 -0.0959  0.3912
 8340SOL    HW126440   4.974   1.697   2.908 -0.0613 -0.2197  0.3395
 8340SOL    HW226441   5.086   1.780   2.850 -0.0324 -0.1604  0.4791
 8341SOL     OW26442   3.820   1.552   2.483 -0.0107  0.3056  0.2574
 8341SOL    HW126443   3.910   1.523   2.498 -0.0008  0.9446  1.6236
 8341SOL    HW226444   3.769   1.471   2.477  0.6190 -0.0570 -0.2818
 8342SOL     OW26445   1.935   5.707   6.404 -0.3068 -0.0031  0.6035
 8342SOL    HW126446   1.903   5.693   6.493  2.5172  0.8447  1.8501
 8342SOL    HW226447   1.903   5.795   6.381  0.7549  0.6932  1.6834
 8343SOL     OW26448   2.840   1.883   7.368  0.1514  0.0689 -0.4624
 8343SOL    HW126449   2.804   1.972   7.369 -0.7141 -0.2602 -0.9202
 8343SOL    HW226450   2.881   1.875   7.281  0.9215  0.2733 -0.1286
 8344SOL     OW26451   1.066   3.738   7.712  0.2052 -0.1947  0.4331
 8344SOL    HW126452   0.982   3.714   7.750 -0.3176  0.5608 -0.2195
 8344SOL    HW226453   1.091   3.818   7.757  1.3292 -1.2242  1.7051
 8345SOL     OW26454   7.611   0.228   6.486 -0.0874 -0.6665 -0.3462
 8345SOL    HW126455   7.665   0.193   6.557 -0.6655  1.9344  1.4935
 8345SOL    HW226456   7.592   0.318   6.511 -2.4344 -0.3976 -2.6073
 8346SOL     OW26457   4.078   7.936   0.147  0.2566 -0.3192  0.1695
 8346SOL    HW126458   4.081   8.029   0.123  2.2872  0.1592  1.9333
 8346SOL    HW226459   4.147   7.896   0.094  0.7814 -0.3758  0.8695
 8347SOL     OW26460   1.191   5.807   7.015 -0.5178 -0.2671  0.7402
 8347SOL    HW126461   1.149   5.791   6.931  1.8134 -2.7670 -0.0897
 8347SOL    HW226462   1.223   5.898   7.010 -3.0994  0.6936  0.2870
 8348SOL     OW26463   5.009   6.770   5.695  0.5187 -0.1371  0.3345
 8348SOL    HW126464   5.058   6.708   5.749  0.8269 -0.1498  0.0470
 8348SOL    HW226465   4.921   6.734   5.690  0.7108 -0.5849  0.1243
 8349SOL     OW26466   6.831   2.413   5.597 -0.2959 -0.3018  0.3298
 8349SOL    HW126467   6.794   2.498   5.619 -1.2690 -0.6396  0.0682
 8349SOL    HW226468   6.819   2.361   5.677 -2.0509 -0.9441 -0.3109
 8350SOL     OW26469   1.975   5.584   0.909 -0.5928  0.0753 -0.3444
 8350SOL    HW126470   2.041   5.643   0.874  0.6232 -0.0188  1.6148
 8350SOL    HW226471   2.024   5.509   0.941 -1.5416  0.2095  1.5860
 8351SOL     OW26472   7.299   7.040   5.256 -0.5782 -0.0411  0.0469
 8351SOL    HW126473   7.390   7.042   5.228 -0.6860  0.5679 -0.2881
 8351SOL    HW226474   7.249   7.063   5.178 -1.1233 -1.6763 -0.1186
 8352SOL     OW26475   1.790   1.228   6.798 -0.2586  0.8007 -0.2067
 8352SOL    HW126476   1.724   1.189   6.741  1.1321 -0.3381 -1.1469
 8352SOL    HW226477   1.872   1.218   6.749  0.8981  0.4454  1.6871
 8353SOL     OW26478   7.708   0.845   5.303  0.1860  0.4033 -0.0382
 8353SOL    HW126479   7.677   0.757   5.325  1.4725 -0.2542 -0.6976
 8353SOL    HW226480   7.677   0.859   5.213 -0.3283  0.7773  0.1970
 8354SOL     OW26481   4.136   6.962   7.660 -0.1862  0.2794  0.3645
 8354SOL    HW126482   4.201   6.996   7.598 -0.4957  2.9180  1.3670
 8354SOL    HW226483   4.151   7.012   7.740 -0.5028 -2.3003  2.1466
 8355SOL     OW26484   8.152   2.538   4.938 -0.0019 -0.2961  0.3279
 8355SOL    HW126485   8.061   2.564   4.922  0.3990  0.0476 -1.7734
 8355SOL    HW226486   8.147   2.444   4.959 -0.7586 -0.6711 -1.3412
 8356SOL     OW26487   3.196   0.540   7.277  0.4376 -0.1580 -0.2578
 8356SOL    HW126488   3.186   0.472   7.210 -0.8345  1.3666 -1.7176
 8356SOL    HW226489   3.251   0.606   7.235  1.3208 -0.0779  0.9857
 8357SOL     OW26490   3.864   2.938   2.527 -0.3034  0.4418  0.6026
 8357SOL    HW126491   3.802   2.964   2.459  0.4188  0.3929 -0.1016
 8357SOL    HW226492   3.948   2.933   2.481 -0.1223 -1.5576  1.0419
 8358SOL     OW26493   0.243   4.149   2.794  0.2463  0.7131  0.4332
 8358SOL    HW126494   0.183   4.200   2.849 -2.2457 -1.5986  0.0643
 8358SOL    HW226495   0.318   4.207   2.780 -1.7889  3.7238  1.1014
 8359SOL     OW26496   4.059   5.816   0.243  0.1039  0.1361  0.1265
 8359SOL    HW126497   4.098   5.789   0.159 -1.7120  0.9192 -1.0187
 8359SOL    HW226498   4.113   5.889   0.272  0.9452 -0.3476 -0.1662
 8360SOL     OW26499   1.404   5.221   4.662 -0.1746  0.1090 -0.8981
 8360SOL    HW126500   1.327   5.243   4.715 -0.8008  1.8353 -2.3954
 8360SOL    HW226501   1.370   5.161   4.595  0.3146 -0.9676 -0.2069
 8361SOL     OW26502   6.186   5.824   3.873 -0.1258 -0.0161  0.2832
 8361SOL    HW126503   6.214   5.911   3.900 -3.9862  1.3485  0.5050
 8361SOL    HW226504   6.257   5.793   3.816  2.7948  1.8831  2.5644
 8362SOL     OW26505   6.657   0.899   6.477  0.2619 -0.6233 -0.7603
 8362SOL    HW126506   6.627   0.883   6.566  0.4535  1.7600 -0.1978
 8362SOL    HW226507   6.605   0.973   6.447 -1.1205 -2.4772 -3.3907
 8363SOL     OW26508   1.277   7.296   6.471  0.1974 -0.3163  0.6449
 8363SOL    HW126509   1.260   7.390   6.464 -1.4132 -0.6921 -1.4665
 8363SOL    HW226510   1.369   7.286   6.444  0.4972  0.6764  1.2721
 8364SOL     OW26511   2.216   4.488   7.953 -0.2719 -0.2966  0.2855
 8364SOL    HW126512   2.244   4.538   7.876  0.1484 -2.5454 -1.1163
 8364SOL    HW226513   2.295   4.483   8.007 -0.4332  0.8762  0.6514
 8365SOL     OW26514   3.879   1.161   4.361 -0.7513  0.1083  0.0129
 8365SOL    HW126515   3.822   1.090   4.392 -0.9630  0.6006  0.7585
 8365SOL    HW226516   3.967   1.133   4.385 -0.8369  0.1197  0.3331
 8366SOL     OW26517   7.540   4.639   6.822 -0.4066 -0.3229  0.4718
 8366SOL    HW126518   7.603   4.571   6.844  0.6163  0.6605  0.6433
 8366SOL    HW226519   7.463   4.591   6.792  0.3868 -1.5498  0.3256
 8367SOL     OW26520   6.008   1.723   4.846 -0.0682 -0.1238  0.0990
 8367SOL    HW126521   6.084   1.705   4.790  0.9319  0.1043  1.3568
 8367SOL    HW226522   5.934   1.723   4.785  1.1439  1.6681 -1.5017
 8368SOL     OW26523   3.529   2.304   6.120  0.3052 -0.2939 -0.1609
 8368SOL    HW126524   3.486   2.384   6.088  0.4418 -0.0485  0.2650
 8368SOL    HW226525   3.459   2.254   6.161  0.2720 -0.2727 -0.1910
 8369SOL     OW26526   5.026   1.061   7.364  0.1801 -0.1285  0.2400
 8369SOL    HW126527   4.971   1.017   7.429 -0.9184  1.3423  0.3672
 8369SOL    HW226528   4.965   1.084   7.294  0.8833  0.4182 -0.2059
 8370SOL     OW26529   1.529   6.585   0.755 -0.3504 -0.5848  0.2269
 8370SOL    HW126530   1.613   6.573   0.710 -1.0266 -2.1791 -0.7241
 8370SOL    HW226531   1.552   6.601   0.846  0.9846 -1.2006  0.0197
 8371SOL     OW26532   2.011   0.783   1.439  0.4797 -0.3176 -0.3416
 8371SOL    HW126533   2.003   0.717   1.370  2.8757  0.2024 -1.2142
 8371SOL    HW226534   2.068   0.742   1.505  2.0260  0.8505 -0.9148
 8372SOL     OW26535   3.965   7.946   5.856 -0.3122 -0.6744 -0.2549
 8372SOL    HW126536   3.993   7.972   5.944 -1.4492 -2.5784  0.7265
 8372SOL    HW226537   4.045   7.914   5.814  0.5418  1.5967 -0.5026
 8373SOL     OW26538   4.309   5.094   1.855 -0.2809  0.3073 -0.2660
 8373SOL    HW126539   4.252   5.093   1.778 -0.8767  0.0806  0.1711
 8373SOL    HW226540   4.264   5.039   1.920  0.7100 -0.3377 -0.1030
 8374SOL     OW26541   8.163   3.510   6.605 -0.1826 -0.1528  0.4767
 8374SOL    HW126542   8.179   3.447   6.534 -1.4964  1.7967 -1.7014
 8374SOL    HW226543   8.251   3.533   6.636  0.6794  0.7630 -2.2988
 8375SOL     OW26544   5.709   4.874   3.102 -0.2699  0.2446 -0.4345
 8375SOL    HW126545   5.647   4.824   3.049  0.9916  0.1839 -1.9196
 8375SOL    HW226546   5.756   4.808   3.153 -0.2335  0.1233 -0.6243
 8376SOL     OW26547   2.586   5.522   3.288  0.2153 -0.6786 -0.4422
 8376SOL    HW126548   2.647   5.592   3.312  1.5516 -0.8790 -2.9323
 8376SOL    HW226549   2.612   5.447   3.343  0.0977  0.1372  0.7696
 8377SOL     OW26550   1.943   0.999   1.576  0.0205  0.0825 -0.2384
 8377SOL    HW126551   1.979   0.918   1.539  0.9732  0.6943 -0.6797
 8377SOL    HW226552   1.868   1.019   1.520  0.7731  0.3851 -1.1638
 8378SOL     OW26553   0.425   0.347   5.941 -0.6477  0.1890  0.1002
 8378SOL    HW126554   0.501   0.338   5.885  0.0443  0.7993  0.9038
 8378SOL    HW226555   0.394   0.437   5.926 -0.9654  0.0784  0.0779
 8379SOL     OW26556   6.517   6.913   0.985  0.3728  0.3825 -0.1035
 8379SOL    HW126557   6.494   6.933   1.076  0.4480  0.3026 -0.0675
 8379SOL    HW226558   6.499   6.820   0.976 -0.5431  0.5804 -0.4401
 8380SOL     OW26559   3.374   0.788   7.290  0.3541  0.5349 -0.0348
 8380SOL    HW126560   3.351   0.848   7.218 -1.4229  1.2659  1.0778
 8380SOL    HW226561   3.447   0.832   7.335  2.2868 -0.4812 -1.9903
 8381SOL     OW26562   2.751   5.508   1.470 -0.3420 -0.4427  0.6718
 8381SOL    HW126563   2.708   5.508   1.385  0.9831 -0.5401 -0.0256
 8381SOL    HW226564   2.781   5.598   1.482  1.3375 -0.8787  0.0237
 8382SOL     OW26565   2.232   3.372   6.941  0.0932  0.3248 -0.1580
 8382SOL    HW126566   2.314   3.421   6.935  0.2340 -0.0255 -1.3246
 8382SOL    HW226567   2.164   3.439   6.943  0.3934  0.6161  0.8292
 8383SOL     OW26568   4.165   1.230   6.003 -0.1817 -0.0777  0.1453
 8383SOL    HW126569   4.242   1.286   5.990 -1.2615  1.6329  0.8079
 8383SOL    HW226570   4.148   1.235   6.097 -1.3853 -0.0397 -0.0653
 8384SOL     OW26571   5.424   4.232   4.461  0.1624 -0.0864 -0.0389
 8384SOL    HW126572   5.369   4.201   4.389 -2.2172 -2.0279  2.3871
 8384SOL    HW226573   5.380   4.312   4.492  0.1522 -0.2152  0.2899
 8385SOL     OW26574   6.548   2.534   0.454 -0.0731  0.6213  0.1026
 8385SOL    HW126575   6.605   2.492   0.390 -0.1860  0.8849 -0.1748
 8385SOL    HW226576   6.500   2.462   0.495 -0.3600  0.4922 -0.4589
 8386SOL     OW26577   5.078   4.029   5.642  0.1327 -0.0101 -0.0011
 8386SOL    HW126578   4.983   4.036   5.644  0.0491 -0.4092 -1.5436
 8386SOL    HW226579   5.106   4.089   5.573  0.8051 -1.4024 -0.9978
 8387SOL     OW26580   2.953   4.795   1.128  0.1092  0.1180 -0.2461
 8387SOL    HW126581   2.874   4.779   1.077 -0.0311 -0.4155  0.1245
 8387SOL    HW226582   3.010   4.722   1.107  1.5286  1.7401 -2.4046
 8388SOL     OW26583   3.785   8.137   7.680 -0.1003 -0.7897  0.1926
 8388SOL    HW126584   3.718   8.162   7.616 -0.8965 -2.1682  0.4456
 8388SOL    HW226585   3.856   8.200   7.666 -1.2036  0.3628 -0.4608
 8389SOL     OW26586   6.807   7.719   0.788  0.0109  0.0630  0.0571
 8389SOL    HW126587   6.766   7.761   0.713 -0.4006  0.5052  0.5309
 8389SOL    HW226588   6.862   7.787   0.827  1.5078 -0.6109 -0.7747
 8390SOL     OW26589   6.367   8.036   3.178 -0.5729  0.6824 -0.5426
 8390SOL    HW126590   6.274   8.059   3.175 -1.1229 -0.8450  2.0154
 8390SOL    HW226591   6.368   7.941   3.186  1.2645  0.6056 -1.1249
 8391SOL     OW26592   7.397   4.709   4.198  0.3729 -0.0097 -0.3956
 8391SOL    HW126593   7.421   4.640   4.260 -0.9824  0.3763  0.6155
 8391SOL    HW226594   7.302   4.716   4.206  0.4529  1.8607 -0.5919
 8392SOL     OW26595   5.805   4.737   0.376 -0.4803  0.0764  0.2780
 8392SOL    HW126596   5.776   4.647   0.361 -0.7187 -0.1023  1.6871
 8392SOL    HW226597   5.868   4.754   0.306  0.9617 -1.8422  1.0242
 8393SOL     OW26598   1.596   4.664   6.167 -0.0462  0.2681 -0.3306
 8393SOL    HW126599   1.504   4.673   6.141 -0.1092  3.1593  0.6326
 8393SOL    HW226600   1.645   4.674   6.085 -0.5043 -1.4396 -0.8767
 8394SOL     OW26601   6.571   5.420   8.165 -0.6780 -0.4593 -0.6460
 8394SOL    HW126602   6.590   5.430   8.259  0.8540  0.1314 -0.9915
 8394SOL    HW226603   6.506   5.351   8.162 -2.1226  0.7267  0.9812
 8395SOL     OW26604   0.850   0.419   0.163  0.1201 -0.4919  0.0174
 8395SOL    HW126605   0.824   0.484   0.227  1.9457 -0.0613  0.3853
 8395SOL    HW226606   0.774   0.362   0.154 -1.1675  1.0866  0.4332
 8396SOL     OW26607   5.958   1.629   2.466  0.2030 -0.1468 -0.6926
 8396SOL    HW126608   6.052   1.622   2.446  0.6161  1.4494  0.4562
 8396SOL    HW226609   5.937   1.721   2.448 -0.6904 -0.0349  0.7349
 8397SOL     OW26610   5.886   5.375   3.366  0.0774 -0.2362  0.4313
 8397SOL    HW126611   5.940   5.347   3.292 -0.4796  0.4134 -0.2458
 8397SOL    HW226612   5.937   5.445   3.407 -0.4911  0.8236 -0.5928
 8398SOL     OW26613   6.469   5.566   1.678 -0.0188  0.5716 -0.3154
 8398SOL    HW126614   6.380   5.567   1.642 -1.0367 -1.6674  1.8669
 8398SOL    HW226615   6.463   5.509   1.755  3.3528  0.2848 -0.1378
 8399SOL     OW26616   6.754   2.285   3.688  0.2403  0.0698  0.3143
 8399SOL    HW126617   6.691   2.358   3.688 -1.4691 -1.3050 -1.1569
 8399SOL    HW226618   6.718   2.223   3.752  0.1432 -0.6768 -0.4555
 8400SOL     OW26619   5.834   0.903   7.595 -0.1964 -0.3289  0.2149
 8400SOL    HW126620   5.791   0.922   7.678  0.8599  1.1796  0.4542
 8400SOL    HW226621   5.814   0.811   7.578 -1.1148 -0.4356  1.7199
 8401SOL     OW26622   6.961   2.114   2.529  0.6711  0.1377  0.3038
 8401SOL    HW126623   6.882   2.169   2.530  1.0790  0.7370  1.1081
 8401SOL    HW226624   7.007   2.137   2.610  0.1272 -2.5003  1.4555
 8402SOL     OW26625   0.111   5.652   2.674  0.6810  0.0213 -0.4981
 8402SOL    HW126626   0.038   5.593   2.688  0.0030  0.6470 -1.2892
 8402SOL    HW226627   0.160   5.612   2.602 -0.7589  1.2536 -2.2590
 8403SOL     OW26628   6.246   6.722   4.877  0.3313 -0.4542 -0.2631
 8403SOL    HW126629   6.165   6.741   4.925  0.5174 -0.9365  0.2527
 8403SOL    HW226630   6.269   6.805   4.835  2.0443  1.0594  3.2645
 8404SOL     OW26631   2.659   3.667   4.119 -0.2831 -0.1940 -0.3443
 8404SOL    HW126632   2.687   3.660   4.028 -0.4259 -1.1605 -0.3229
 8404SOL    HW226633   2.608   3.588   4.135  1.2404 -0.9563  1.0860
 8405SOL     OW26634   0.658   2.223   0.022 -0.6736 -0.4445  0.5829
 8405SOL    HW126635   0.711   2.263   0.090 -1.1748  0.6724  0.3464
 8405SOL    HW226636   0.587   2.179   0.069 -1.0445  0.3597  0.7969
 8406SOL     OW26637   2.248   0.730   1.014  0.4202 -0.5648  0.4329
 8406SOL    HW126638   2.303   0.788   1.067 -1.2982 -0.0077  1.6807
 8406SOL    HW226639   2.174   0.784   0.987 -1.1439 -2.0754  1.4859
 8407SOL     OW26640   2.838   0.437   4.801 -0.2868 -0.1178  0.1995
 8407SOL    HW126641   2.861   0.355   4.845 -0.5236 -0.1557  0.2549
 8407SOL    HW226642   2.847   0.418   4.708  0.7206  0.1141  0.2443
 8408SOL     OW26643   3.804   3.600   7.835  0.7703  0.3359  0.2345
 8408SOL    HW126644   3.896   3.621   7.816  0.9340 -0.1030  0.5254
 8408SOL    HW226645   3.799   3.505   7.828  0.0353  0.4533 -1.0291
 8409SOL     OW26646   3.781   3.392   7.467 -0.1558 -0.6757  0.1356
 8409SOL    HW126647   3.697   3.359   7.436  0.1696 -1.0650 -0.3504
 8409SOL    HW226648   3.781   3.372   7.561 -1.1489  0.5133  0.4141
 8410SOL     OW26649   6.847   7.496   7.914  0.2571 -0.1778  0.7089
 8410SOL    HW126650   6.815   7.586   7.907  0.2650 -0.1831  0.6088
 8410SOL    HW226651   6.779   7.442   7.875  0.6446 -0.1381 -0.0460
 8411SOL     OW26652   3.683   5.080   1.097 -0.2959 -0.2975  0.3550
 8411SOL    HW126653   3.592   5.106   1.079  0.0273 -0.3903 -1.6729
 8411SOL    HW226654   3.718   5.152   1.149 -0.7705  1.1011 -1.1710
 8412SOL     OW26655   8.179   6.240   1.299  0.5857  0.0217  0.4613
 8412SOL    HW126656   8.112   6.240   1.230  1.4932  2.6008 -0.5297
 8412SOL    HW226657   8.232   6.162   1.280 -0.6336 -0.6590 -0.2510
 8413SOL     OW26658   6.465   4.433   3.750 -0.4900  0.2181 -0.1210
 8413SOL    HW126659   6.373   4.417   3.730 -1.6246  2.3129  2.7033
 8413SOL    HW226660   6.500   4.475   3.672 -1.6578 -1.4178 -1.5773
 8414SOL     OW26661   1.828   7.731   6.162 -0.2116  0.8065 -0.0527
 8414SOL    HW126662   1.898   7.739   6.227 -1.4008 -0.6170  1.5205
 8414SOL    HW226663   1.868   7.756   6.079  1.8925  0.8954  0.9322
 8415SOL     OW26664   6.580   2.788   7.886  0.3176 -0.5148 -0.9221
 8415SOL    HW126665   6.574   2.713   7.826 -2.0836 -1.7013  0.6264
 8415SOL    HW226666   6.612   2.750   7.968 -1.1733  0.0402 -0.0370
 8416SOL     OW26667   4.760   4.804   4.088  0.3415  0.1004 -0.4494
 8416SOL    HW126668   4.722   4.832   4.172  3.0917  1.7697  0.3967
 8416SOL    HW226669   4.699   4.837   4.022  0.4154  3.0566  0.7885
 8417SOL     OW26670   7.971   5.145   3.226  0.4240  0.2417 -0.0959
 8417SOL    HW126671   7.993   5.073   3.167  0.0744 -0.3287  0.4505
 8417SOL    HW226672   7.908   5.198   3.178 -1.1679 -1.1560  0.3718
 8418SOL     OW26673   4.119   3.922   5.062  0.0716 -0.6364  0.0354
 8418SOL    HW126674   4.062   3.846   5.050 -0.2899 -0.1366 -1.5946
 8418SOL    HW226675   4.132   3.957   4.974  1.3214  0.4134  0.6059
 8419SOL     OW26676   7.033   6.349   6.094  0.1249 -0.4375 -0.3847
 8419SOL    HW126677   7.073   6.311   6.172  0.5211  0.2470 -0.2468
 8419SOL    HW226678   6.957   6.293   6.076  0.2715 -0.8464  0.2421
 8420SOL     OW26679   3.491   0.997   6.023  0.1265  0.6119  0.4858
 8420SOL    HW126680   3.464   1.084   6.052  0.0833  0.2547  1.5980
 8420SOL    HW226681   3.411   0.957   5.990  0.2865  1.2301 -0.6925
 8421SOL     OW26682   1.439   4.793   7.755 -0.5494 -0.2031  0.1104
 8421SOL    HW126683   1.361   4.742   7.732 -1.3209  1.2305 -0.5605
 8421SOL    HW226684   1.424   4.822   7.845  0.1907 -1.6374  0.7371
 8422SOL     OW26685   7.074   7.896   5.907  0.8466 -0.0022  0.4742
 8422SOL    HW126686   7.144   7.933   5.852 -0.0644  1.1047  0.0117
 8422SOL    HW226687   7.007   7.867   5.845 -1.2621  3.3905  0.8885
 8423SOL     OW26688   3.448   5.176   5.998  1.1039  0.4403 -0.2409
 8423SOL    HW126689   3.450   5.128   6.081 -0.1332 -1.0247 -0.9997
 8423SOL    HW226690   3.538   5.204   5.984  1.4381  0.2225  1.3025
 8424SOL     OW26691   1.051   5.118   7.150 -0.1608  0.2230 -0.4385
 8424SOL    HW126692   0.985   5.182   7.125 -1.3244 -0.3490  1.0451
 8424SOL    HW226693   1.087   5.151   7.232  1.7891  0.7668 -1.4469
 8425SOL     OW26694   8.022   0.001   7.560 -0.2578 -0.1030  0.6024
 8425SOL    HW126695   7.941   0.049   7.542  0.0788 -0.3313 -1.8598
 8425SOL    HW226696   7.992  -0.083   7.594 -1.2069 -0.8092 -1.7806
 8426SOL     OW26697   3.771   7.697   1.631 -0.9720 -0.0505 -0.0046
 8426SOL    HW126698   3.677   7.693   1.612 -1.2048 -0.0774  1.0609
 8426SOL    HW226699   3.804   7.766   1.574 -1.2993 -1.2115 -1.6609
 8427SOL     OW26700   1.907   4.242   1.224  0.2215 -0.0838 -0.2694
 8427SOL    HW126701   1.976   4.304   1.245  0.4624  0.0539 -1.3995
 8427SOL    HW226702   1.850   4.242   1.301  0.9225  0.5584  0.2592
 8428SOL     OW26703   7.787   0.737   2.978  0.3969  0.1870  0.0289
 8428SOL    HW126704   7.720   0.669   2.979 -1.8371  2.2438  1.4864
 8428SOL    HW226705   7.860   0.699   2.928 -1.9362 -2.0580 -1.9094
 8429SOL     OW26706   0.023   2.413   6.716 -0.5313 -0.2794 -0.0733
 8429SOL    HW126707   0.070   2.411   6.799 -0.7657 -1.4713  0.0547
 8429SOL    HW226708  -0.065   2.444   6.738 -0.0552  1.2640 -0.2029
 8430SOL     OW26709   1.656   1.838   1.088  0.0317  0.3130 -0.2843
 8430SOL    HW126710   1.696   1.751   1.087  0.5119  0.5026  1.1098
 8430SOL    HW226711   1.605   1.841   1.006 -0.1676 -1.3414 -0.2658
 8431SOL     OW26712   2.457   1.399   3.115 -0.2329 -0.0493  0.0518
 8431SOL    HW126713   2.414   1.412   3.199 -0.6616  1.7394 -0.3985
 8431SOL    HW226714   2.385   1.384   3.054 -0.0219 -0.0105 -0.2074
 8432SOL     OW26715   1.375   6.083   3.226  0.2784 -0.2977 -0.6186
 8432SOL    HW126716   1.347   6.169   3.196  0.6799 -0.6172 -1.9895
 8432SOL    HW226717   1.328   6.021   3.170 -0.3254 -0.9970  0.6253
 8433SOL     OW26718   6.512   7.000   4.269  0.2432  0.2463  0.0600
 8433SOL    HW126719   6.479   6.912   4.288  2.1151 -0.4523  0.2418
 8433SOL    HW226720   6.584   7.012   4.331  0.4621  1.6310 -0.4466
 8434SOL     OW26721   6.277   0.691   6.957  0.4612  0.2215  0.3369
 8434SOL    HW126722   6.244   0.607   6.988 -2.4930  0.0950 -2.6492
 8434SOL    HW226723   6.330   0.669   6.880  0.5305  1.0525  0.1372
 8435SOL     OW26724   4.461   1.570   8.107 -0.3067 -0.4450 -0.3761
 8435SOL    HW126725   4.545   1.616   8.100 -0.5915 -0.0059 -0.9727
 8435SOL    HW226726   4.421   1.579   8.021 -1.4842  0.3467  0.2197
 8436SOL     OW26727   2.326   3.476   4.580 -0.0569  0.2200 -0.2815
 8436SOL    HW126728   2.305   3.393   4.622 -0.6001  1.1008  1.3133
 8436SOL    HW226729   2.417   3.493   4.604 -0.0592  0.2535 -0.2964
 8437SOL     OW26730   7.098   4.438   5.453  0.0085 -0.1552  0.3032
 8437SOL    HW126731   7.134   4.356   5.417 -0.4562 -0.9556  1.6136
 8437SOL    HW226732   7.014   4.449   5.408  0.7305  0.4167 -0.9626
 8438SOL     OW26733   0.455   7.093   0.867  0.1164 -0.0032  0.5361
 8438SOL    HW126734   0.525   7.153   0.842  0.1861 -1.1015 -2.2726
 8438SOL    HW226735   0.423   7.127   0.950  1.6927  2.5283  0.2200
 8439SOL     OW26736   1.209   5.131   0.846 -0.0669 -0.2505  0.6988
 8439SOL    HW126737   1.151   5.205   0.830 -0.1401 -0.5049 -0.2910
 8439SOL    HW226738   1.159   5.073   0.904 -0.3916  0.0197  0.6893
 8440SOL     OW26739   6.840   3.540   4.935  0.0492  0.2931 -0.1079
 8440SOL    HW126740   6.764   3.596   4.922 -0.5387 -0.2330  0.9762
 8440SOL    HW226741   6.872   3.561   5.023  3.2969  3.0212 -1.6981
 8441SOL     OW26742   2.012   6.095   7.002 -0.2580  0.3766  0.2922
 8441SOL    HW126743   2.009   6.054   6.915 -0.1664  1.2405 -0.1354
 8441SOL    HW226744   2.095   6.143   7.002  0.6106 -1.0489  1.5412
 8442SOL     OW26745   3.145   8.124   0.535 -0.4244  0.0214  0.3408
 8442SOL    HW126746   3.074   8.176   0.573  0.6267  1.9141 -0.1589
 8442SOL    HW226747   3.225   8.166   0.568  0.4822 -0.0969 -1.5970
 8443SOL     OW26748   6.179   2.645   2.379 -0.1624 -0.0826  0.1451
 8443SOL    HW126749   6.140   2.558   2.367 -0.0640  0.0872 -1.6746
 8443SOL    HW226750   6.273   2.631   2.366  0.0293  0.0749  1.2614
 8444SOL     OW26751   0.046   3.136   6.267 -0.2760  0.3517 -0.4517
 8444SOL    HW126752   0.010   3.178   6.346  0.1294  1.7772 -0.9902
 8444SOL    HW226753   0.137   3.166   6.264  0.7487 -2.3767  0.3197
 8445SOL     OW26754   8.186   1.569   0.373 -0.1653 -0.2741 -0.1099
 8445SOL    HW126755   8.279   1.591   0.361  0.1142 -1.8733 -1.2320
 8445SOL    HW226756   8.180   1.477   0.346 -1.9354 -0.4441  0.7288
 8446SOL     OW26757   0.334   2.988   0.325 -0.0903 -0.0795  0.2439
 8446SOL    HW126758   0.346   2.893   0.325 -0.0727 -0.0817  1.1807
 8446SOL    HW226759   0.407   3.021   0.272  0.0293 -0.5657  0.0991
 8447SOL     OW26760   3.194   6.914   5.695 -0.3228 -0.0834 -0.1824
 8447SOL    HW126761   3.224   6.901   5.785  1.7020  1.0110 -0.6466
 8447SOL    HW226762   3.185   6.825   5.660 -1.7565 -0.5549  1.2186
 8448SOL     OW26763   1.486   1.566   7.559 -0.1158  0.4719  0.6424
 8448SOL    HW126764   1.429   1.490   7.542  1.3081 -0.7759  1.1850
 8448SOL    HW226765   1.503   1.602   7.472 -0.4718 -0.0994  0.3228
 8449SOL     OW26766   7.085   0.746   0.549 -0.0728  0.7795  0.3069
 8449SOL    HW126767   7.043   0.807   0.609  1.2744  0.9698  1.1104
 8449SOL    HW226768   7.149   0.699   0.603 -0.1005 -0.3592 -0.5934
 8450SOL     OW26769   7.125   3.798   4.728 -0.0853 -0.5216  0.0346
 8450SOL    HW126770   7.126   3.756   4.814 -0.8348 -0.0323  0.3000
 8450SOL    HW226771   7.054   3.754   4.682 -1.0869  0.6040  0.4212
 8451SOL     OW26772   4.060   2.355   7.481  0.2847  0.0614  0.3489
 8451SOL    HW126773   4.008   2.293   7.532 -0.4334 -1.1374 -1.7242
 8451SOL    HW226774   4.064   2.434   7.536 -4.8740  0.7499  0.2393
 8452SOL     OW26775   5.858   4.494   0.125  0.5834 -0.0514 -0.3696
 8452SOL    HW126776   5.815   4.579   0.111  0.4500  0.1912  1.2977
 8452SOL    HW226777   5.786   4.433   0.142  0.6980 -0.4316 -1.2307
 8453SOL     OW26778   6.399   1.423   2.282  0.3100 -0.2588  0.1031
 8453SOL    HW126779   6.472   1.484   2.273  0.4218 -0.4254 -0.1149
 8453SOL    HW226780   6.415   1.379   2.366 -0.2976  0.7064  0.7444
 8454SOL     OW26781   0.516   1.232   2.822  0.6189  0.1721 -0.1112
 8454SOL    HW126782   0.529   1.219   2.728  0.8752 -1.4127  0.1286
 8454SOL    HW226783   0.548   1.321   2.838  2.8209 -0.3681 -1.1140
 8455SOL     OW26784   3.423   5.931   2.451  0.1894  0.2293 -0.1593
 8455SOL    HW126785   3.397   5.853   2.403  1.6618  0.4153 -1.3641
 8455SOL    HW226786   3.414   6.002   2.388  1.2951  0.6292  0.1053
 8456SOL     OW26787   5.832   3.790   8.237  0.2876  0.8305  0.0960
 8456SOL    HW126788   5.802   3.734   8.309  0.3255  1.5255  0.6673
 8456SOL    HW226789   5.860   3.871   8.280  0.0100  1.3793 -0.7358
 8457SOL     OW26790   7.740   5.320   4.350 -0.1727  0.0036  0.0525
 8457SOL    HW126791   7.775   5.270   4.276 -0.2588  0.8716 -0.5821
 8457SOL    HW226792   7.646   5.306   4.347 -0.0479 -1.1507  0.8915
 8458SOL     OW26793   5.899   8.075   0.761 -0.0754  0.8105  0.5629
 8458SOL    HW126794   5.917   8.015   0.689  0.3212  0.8576  0.6209
 8458SOL    HW226795   5.881   8.018   0.836 -0.9414  0.7559  0.3248
 8459SOL     OW26796   2.393   0.507   6.014 -0.3632  0.2529 -0.0368
 8459SOL    HW126797   2.380   0.421   6.054 -1.8272  0.3298 -0.2968
 8459SOL    HW226798   2.425   0.562   6.086  1.9182 -0.7915 -0.1736
 8460SOL     OW26799   3.007   1.670   5.966 -0.7297 -0.7271  0.4424
 8460SOL    HW126800   3.043   1.587   5.937  0.8920  0.5326 -1.3715
 8460SOL    HW226801   3.024   1.673   6.061 -0.7457 -2.3809  0.5139
 8461SOL     OW26802   4.689   4.473   6.331 -0.7706 -0.0543  0.5923
 8461SOL    HW126803   4.604   4.514   6.347 -0.6106  0.4870  0.0985
 8461SOL    HW226804   4.693   4.462   6.236 -0.3729 -0.2486  0.6281
 8462SOL     OW26805   5.750   0.224   2.432 -0.1088 -0.0213  0.0773
 8462SOL    HW126806   5.778   0.133   2.438 -2.3908 -0.8473 -0.7480
 8462SOL    HW226807   5.821   0.268   2.386 -0.3052 -2.0856 -2.3894
 8463SOL     OW26808   3.777   4.135   5.089  0.0146  0.0919 -0.4184
 8463SOL    HW126809   3.689   4.108   5.117 -0.8325  1.8355 -1.2399
 8463SOL    HW226810   3.769   4.149   4.995  1.5176 -0.8409 -0.7263
 8464SOL     OW26811   1.122   0.534   1.843  0.2372  0.1973 -0.1248
 8464SOL    HW126812   1.111   0.543   1.748  1.1974  0.9883 -0.1767
 8464SOL    HW226813   1.211   0.564   1.860  0.7251 -1.6550  0.8240
 8465SOL     OW26814   6.898   8.303   5.549 -0.2943 -0.0951 -0.3106
 8465SOL    HW126815   6.939   8.299   5.635 -0.8767 -1.6592 -0.0655
 8465SOL    HW226816   6.804   8.310   5.567 -0.6634 -2.7890 -0.7057
 8466SOL     OW26817   8.245   3.997   1.681  0.2093 -0.2839 -0.3066
 8466SOL    HW126818   8.165   3.952   1.709  0.6573 -0.4340  0.7799
 8466SOL    HW226819   8.270   3.952   1.600 -1.1694  0.2209 -1.0387
 8467SOL     OW26820   4.402   2.773   6.925  0.1342 -0.5282  0.1199
 8467SOL    HW126821   4.405   2.850   6.868  0.0617 -1.0956 -0.6753
 8467SOL    HW226822   4.493   2.754   6.945  0.1288  0.0237  0.6820
 8468SOL     OW26823   1.866   2.849   4.138 -0.9026  0.3548 -0.2258
 8468SOL    HW126824   1.927   2.830   4.209 -1.7253  0.9385  0.6616
 8468SOL    HW226825   1.780   2.845   4.179 -1.3317  1.9393 -0.9107
 8469SOL     OW26826   0.340   5.528   0.534  0.0450  0.1422 -0.0240
 8469SOL    HW126827   0.324   5.622   0.523  1.3158  0.4201  0.2988
 8469SOL    HW226828   0.254   5.487   0.525 -0.3266  1.2006 -1.6206
 8470SOL     OW26829   4.134   2.815   7.287 -0.2049 -0.6978 -0.4871
 8470SOL    HW126830   4.095   2.895   7.254 -0.2967 -1.2693 -1.8360
 8470SOL    HW226831   4.060   2.756   7.303 -0.2244 -0.2179  1.4480
 8471SOL     OW26832   0.496   3.062   1.272  0.4321 -0.2593  0.1738
 8471SOL    HW126833   0.412   3.030   1.240 -0.1223  0.3678  0.9819
 8471SOL    HW226834   0.490   3.157   1.266  0.8341 -0.1875  0.8659
 8472SOL     OW26835   1.273   2.867   0.793 -0.1016 -0.1361  0.2241
 8472SOL    HW126836   1.288   2.956   0.760 -0.3295 -0.3552 -0.4880
 8472SOL    HW226837   1.284   2.875   0.887  0.8802  0.4502  0.0778
 8473SOL     OW26838   6.501   2.464   2.843  0.4166  0.8996 -0.6197
 8473SOL    HW126839   6.440   2.523   2.801 -1.3813 -0.2702  0.2399
 8473SOL    HW226840   6.520   2.505   2.927 -0.2214  0.6585 -0.3502
 8474SOL     OW26841   1.147   7.654   5.209 -0.3364 -0.0153 -0.1794
 8474SOL    HW126842   1.131   7.668   5.116  1.1662  0.6998 -0.3532
 8474SOL    HW226843   1.061   7.630   5.245 -1.2420  1.1478 -1.4726
 8475SOL     OW26844   1.681   3.491   2.259 -0.4367 -0.3677  0.0151
 8475SOL    HW126845   1.613   3.424   2.255 -0.7858 -0.1667  1.8610
 8475SOL    HW226846   1.645   3.565   2.209 -0.6182 -1.0564 -0.8918
 8476SOL     OW26847   1.042   8.050   1.172  0.2150  0.1439 -0.4999
 8476SOL    HW126848   1.069   7.968   1.130 -1.5244 -0.2615 -0.8987
 8476SOL    HW226849   1.058   8.036   1.265 -0.0702 -0.6512 -0.5637
 8477SOL     OW26850   6.301   1.552   4.994  0.2559  0.3659 -0.1221
 8477SOL    HW126851   6.332   1.643   4.985 -1.7591  1.0587 -0.4441
 8477SOL    HW226852   6.277   1.526   4.905 -1.7789  0.5184  0.3484
 8478SOL     OW26853   0.221   8.069   8.186 -0.4399  0.2480 -0.2698
 8478SOL    HW126854   0.211   8.034   8.275  0.4875 -0.7609 -0.5493
 8478SOL    HW226855   0.246   7.993   8.133  0.8534  1.1727 -1.0422
 8479SOL     OW26856   1.829   5.682   3.374  0.2541  0.4244 -0.5147
 8479SOL    HW126857   1.822   5.703   3.281 -1.0780  2.4747 -0.0082
 8479SOL    HW226858   1.755   5.623   3.391 -0.0397  0.7613 -0.6002
 8480SOL     OW26859   1.293   1.096   0.002 -0.2845  0.4969 -0.4356
 8480SOL    HW126860   1.254   1.014   0.032 -1.0128  0.3341 -1.7763
 8480SOL    HW226861   1.234   1.164   0.032 -1.2807  0.2992 -1.8685
 8481SOL     OW26862   2.265   0.981   0.838 -0.3364  0.3886 -0.3077
 8481SOL    HW126863   2.198   1.016   0.898 -0.8441  0.7935 -1.0951
 8481SOL    HW226864   2.340   0.964   0.894 -0.9664  0.2979  0.5365
 8482SOL     OW26865   1.501   0.800   0.187 -0.5901  0.1964  0.1871
 8482SOL    HW126866   1.555   0.802   0.108 -2.5862  0.3166 -1.2490
 8482SOL    HW226867   1.534   0.873   0.240  2.6090 -1.5522  0.8274
 8483SOL     OW26868   5.483   7.433   1.819  0.0308  0.1666 -0.0759
 8483SOL    HW126869   5.482   7.338   1.809 -0.1914  0.2441 -0.8973
 8483SOL    HW226870   5.409   7.463   1.766 -0.4599  0.7382  0.9104
 8484SOL     OW26871   5.281   2.613   3.490  0.2050 -0.1587  0.2628
 8484SOL    HW126872   5.318   2.663   3.418  1.4351  0.2825  1.1654
 8484SOL    HW226873   5.356   2.573   3.533 -0.5250 -0.6489  1.1318
 8485SOL     OW26874   3.506   7.835   7.592 -0.5658  0.1752 -0.7634
 8485SOL    HW126875   3.520   7.924   7.623 -2.1975  0.5284 -0.9760
 8485SOL    HW226876   3.471   7.788   7.668 -0.2192 -0.1594 -0.8038
 8486SOL     OW26877   6.916   3.592   0.803  0.0037  0.3085  0.6833
 8486SOL    HW126878   6.955   3.554   0.882 -1.8990  0.6556  1.8513
 8486SOL    HW226879   6.929   3.525   0.736  1.2017 -0.2135  1.3992
 8487SOL     OW26880   1.141   3.377   7.717  0.7286  0.0994 -0.6897
 8487SOL    HW126881   1.067   3.322   7.692  0.5475  0.3748 -0.7727
 8487SOL    HW226882   1.178   3.406   7.633  0.6371  0.3459 -0.6466
 8488SOL     OW26883   0.897   5.169   4.567 -0.2167  0.0209 -0.3954
 8488SOL    HW126884   0.862   5.258   4.576  0.9401  0.3201  1.7774
 8488SOL    HW226885   0.819   5.113   4.563 -0.9542  1.0625 -1.2626
 8489SOL     OW26886   6.859   7.344   3.154  0.6718  0.2735 -0.4448
 8489SOL    HW126887   6.866   7.364   3.247 -0.9874  0.7067 -0.3855
 8489SOL    HW226888   6.808   7.416   3.118  0.5486 -0.3381 -1.5268
 8490SOL     OW26889   1.646   5.491   3.447  0.2553  0.5622 -0.6452
 8490SOL    HW126890   1.643   5.469   3.540  0.3077  1.8728 -0.3134
 8490SOL    HW226891   1.576   5.438   3.408  0.0445  0.2166  0.1774
 8491SOL     OW26892   0.872   1.143   6.168 -0.5814  0.5928  0.0317
 8491SOL    HW126893   0.920   1.220   6.138 -1.3042  1.7429  1.6476
 8491SOL    HW226894   0.793   1.178   6.210  0.3755 -0.7447  3.3343
 8492SOL     OW26895   0.201   5.242   2.260  0.5305  0.1102  0.0948
 8492SOL    HW126896   0.153   5.186   2.199  2.0715 -0.2467 -0.8229
 8492SOL    HW226897   0.286   5.201   2.269  0.9022  1.0684  1.2217
 8493SOL     OW26898   1.450   4.137   5.936 -0.7101 -0.0618  0.4601
 8493SOL    HW126899   1.384   4.112   5.871 -1.3629  1.9470  0.2766
 8493SOL    HW226900   1.519   4.071   5.927 -0.8525  0.0414 -2.1818
 8494SOL     OW26901   6.500   4.132   2.478  0.3592  0.4845  0.1085
 8494SOL    HW126902   6.513   4.210   2.423  0.2530  0.3994 -0.0370
 8494SOL    HW226903   6.501   4.059   2.416  1.3648  0.2896  0.3359
 8495SOL     OW26904   2.644   5.308   5.374  0.3442 -0.1852 -0.2082
 8495SOL    HW126905   2.673   5.233   5.427 -0.7748  0.4205  1.3414
 8495SOL    HW226906   2.604   5.268   5.296 -0.9357 -1.2830  0.9470
 8496SOL     OW26907   7.212   6.607   5.881 -0.5690  0.1540 -0.2512
 8496SOL    HW126908   7.182   6.693   5.851 -0.1453  0.5791  0.5064
 8496SOL    HW226909   7.227   6.619   5.975  0.4676 -0.4687 -0.3260
 8497SOL     OW26910   5.280   7.504   6.384 -0.3833  0.3735 -0.2220
 8497SOL    HW126911   5.209   7.529   6.325 -1.5596  0.0115  0.9874
 8497SOL    HW226912   5.277   7.408   6.385 -0.6765  0.3779  0.7324
 8498SOL     OW26913   2.411   2.185   7.039  0.1012  0.0546  0.1701
 8498SOL    HW126914   2.490   2.211   6.992 -0.2764  0.5509 -0.2082
 8498SOL    HW226915   2.346   2.168   6.970  0.0707 -1.0226  0.4460
 8499SOL     OW26916   3.162   3.030   5.804  0.5270  0.4669 -0.6094
 8499SOL    HW126917   3.214   3.079   5.741  0.6922 -0.5060 -1.2473
 8499SOL    HW226918   3.084   3.084   5.818  0.4648  0.6760 -1.6786
 8500SOL     OW26919   1.281   7.746   3.688 -0.5281 -0.1817 -0.1655
 8500SOL    HW126920   1.229   7.667   3.707 -0.4975 -0.2158 -0.2223
 8500SOL    HW226921   1.371   7.714   3.684 -0.4966 -0.1135 -0.0145
 8501SOL     OW26922   7.915   6.911   3.946  0.5028  0.3856 -0.6473
 8501SOL    HW126923   7.965   6.990   3.969 -0.2533  0.9183 -0.8114
 8501SOL    HW226924   7.883   6.927   3.858 -1.3688  0.7937  0.0582
 8502SOL     OW26925   1.351   4.893   5.997  0.3762 -0.2855  0.0798
 8502SOL    HW126926   1.319   4.803   6.002  0.5652 -0.3388  0.3718
 8502SOL    HW226927   1.371   4.907   5.904 -0.6255 -0.2021 -0.1326
 8503SOL     OW26928   8.244   1.299   0.283  0.3387  0.4527 -0.5164
 8503SOL    HW126929   8.298   1.227   0.251 -3.1984 -2.7304 -0.0700
 8503SOL    HW226930   8.198   1.331   0.205 -1.2943 -0.8681 -0.1594
 8504SOL     OW26931   0.558   7.048   6.416  0.1984  0.1879  0.3022
 8504SOL    HW126932   0.522   7.114   6.475 -0.3028  0.2563 -0.0724
 8504SOL    HW226933   0.625   7.095   6.365  1.0697 -0.0206  1.2296
 8505SOL     OW26934   5.547   2.807   7.375  0.1745  0.1441  0.6554
 8505SOL    HW126935   5.545   2.779   7.284  1.3991  1.5413  0.1510
 8505SOL    HW226936   5.491   2.884   7.379 -1.2988 -0.9212  1.5101
 8506SOL     OW26937   0.386   4.920   7.814 -0.3701 -0.7110 -0.3284
 8506SOL    HW126938   0.399   4.865   7.737 -0.0547 -0.0906 -0.7197
 8506SOL    HW226939   0.298   4.956   7.803 -0.0330 -0.0103 -0.7966
 8507SOL     OW26940   1.891   1.466   7.849  0.0312 -0.0419  0.6937
 8507SOL    HW126941   1.914   1.525   7.777 -0.4497  0.4037  0.8943
 8507SOL    HW226942   1.797   1.451   7.838  0.0139 -0.2067  1.0553
 8508SOL     OW26943   0.402   0.401   3.133 -0.1666  0.2560 -0.1286
 8508SOL    HW126944   0.335   0.459   3.167  0.5971  1.3297 -0.3829
 8508SOL    HW226945   0.484   0.451   3.143  0.4452 -0.5907 -0.7713
 8509SOL     OW26946   1.941   0.395   7.366 -0.4908  0.2713  0.0133
 8509SOL    HW126947   1.865   0.431   7.321  0.6384  0.6880 -1.6700
 8509SOL    HW226948   1.989   0.472   7.397  0.7186  0.2160 -1.5420
 8510SOL     OW26949   2.947   0.059   2.950 -0.1472 -0.0040 -0.0399
 8510SOL    HW126950   2.869   0.038   3.001  0.0600 -0.6742  0.0117
 8510SOL    HW226951   2.965  -0.021   2.899 -0.9020  0.9443 -1.8994
 8511SOL     OW26952   2.466   5.529   2.351 -0.0495 -0.5901 -0.3839
 8511SOL    HW126953   2.449   5.495   2.438  0.0325 -0.3681 -0.2808
 8511SOL    HW226954   2.413   5.609   2.345  1.3367  0.4040  0.1381
 8512SOL     OW26955   7.952   7.431   1.911  0.3476  0.2566  0.0282
 8512SOL    HW126956   8.017   7.493   1.944 -0.6353  1.5233 -0.3328
 8512SOL    HW226957   7.917   7.389   1.989  1.3807 -0.2342  0.2451
 8513SOL     OW26958   6.757   2.840   1.993  0.2730  0.1472 -0.4150
 8513SOL    HW126959   6.698   2.777   1.953 -0.7144  1.0959 -0.4787
 8513SOL    HW226960   6.743   2.921   1.944  0.8036  0.6825  0.2963
 8514SOL     OW26961   7.655   1.847   5.077 -0.3492  0.0744  0.1414
 8514SOL    HW126962   7.697   1.763   5.056 -1.0211 -0.0896 -0.5619
 8514SOL    HW226963   7.564   1.825   5.093 -0.7784  0.8176 -1.1832
 8515SOL     OW26964   3.851   6.027   1.469 -0.2103  0.2558  0.4473
 8515SOL    HW126965   3.880   5.944   1.429 -0.0405  1.2253 -1.5610
 8515SOL    HW226966   3.840   6.006   1.561  1.2365 -1.6480  0.2601
 8516SOL     OW26967   4.627   4.092   7.688  0.2231 -0.0436 -0.2582
 8516SOL    HW126968   4.686   4.150   7.736 -1.5675  1.2783  0.4778
 8516SOL    HW226969   4.556   4.073   7.750 -1.1208  0.0352 -1.7035
 8517SOL     OW26970   3.901   6.518   3.156  0.1270 -0.5394 -0.3285
 8517SOL    HW126971   3.956   6.523   3.078  0.3413 -1.8938 -0.2838
 8517SOL    HW226972   3.917   6.600   3.202 -1.2632  1.0745 -2.5037
 8518SOL     OW26973   0.049   2.737   2.890  0.3074 -0.1476 -0.3712
 8518SOL    HW126974  -0.009   2.677   2.937  0.2323 -1.9548 -2.6288
 8518SOL    HW226975   0.001   2.758   2.810  1.8317  0.1251 -1.2368
 8519SOL     OW26976   2.363   3.765   7.002  0.2937 -0.3426  0.2932
 8519SOL    HW126977   2.362   3.770   6.906 -0.4677 -1.3410  0.2342
 8519SOL    HW226978   2.440   3.816   7.027  0.6004 -0.2015 -0.8592
 8520SOL     OW26979   4.582   4.439   8.014 -0.3622  0.5889  0.4164
 8520SOL    HW126980   4.656   4.379   8.022 -0.2135  0.5610 -0.9110
 8520SOL    HW226981   4.525   4.397   7.949 -1.7978  0.3693  1.7680
 8521SOL     OW26982   3.042   4.926   4.330  0.1950 -0.1146  0.5927
 8521SOL    HW126983   3.058   4.864   4.258  0.3466  2.6575 -1.9502
 8521SOL    HW226984   3.000   4.873   4.398 -0.0432 -2.9079 -1.5364
 8522SOL     OW26985   5.572   0.420   0.596  0.4437 -0.0947 -0.7280
 8522SOL    HW126986   5.585   0.403   0.689  1.2429  0.0311 -0.8079
 8522SOL    HW226987   5.626   0.355   0.552 -0.7697 -0.8632 -1.1429
 8523SOL     OW26988   8.171   6.792   7.508 -0.1197  0.0172 -0.1986
 8523SOL    HW126989   8.260   6.777   7.476 -0.0072 -0.0941  0.1618
 8523SOL    HW226990   8.169   6.750   7.594 -0.1934  0.9389  0.2576
 8524SOL     OW26991   6.580   5.250   4.177  0.4459  0.7368 -0.4698
 8524SOL    HW126992   6.528   5.218   4.251  0.4035  0.0404 -0.7923
 8524SOL    HW226993   6.552   5.197   4.103  2.5691 -0.6328 -0.3873
 8525SOL     OW26994   0.750   3.923   5.859  0.4830 -0.0035 -0.1426
 8525SOL    HW126995   0.669   3.967   5.832  0.2174  0.2463  1.0183
 8525SOL    HW226996   0.797   3.909   5.777 -0.1962  0.9212 -0.7178
 8526SOL     OW26997   2.685   6.216   4.901  0.4446  0.4227  0.0739
 8526SOL    HW126998   2.615   6.248   4.958  0.6893  2.7217 -0.8083
 8526SOL    HW226999   2.639   6.181   4.825  0.1919 -0.5996  0.6805
 8527SOL     OW27000   6.245   0.824   7.729  0.2412 -0.1232 -0.1947
 8527SOL    HW127001   6.267   0.905   7.683 -1.7449  0.8905  0.4977
 8527SOL    HW227002   6.322   0.806   7.783  0.7366  1.3240 -0.3686
 8528SOL     OW27003   2.027   2.866   6.769 -0.0433  0.5108  0.1859
 8528SOL    HW127004   1.986   2.933   6.825 -0.0720  0.2477  0.4848
 8528SOL    HW227005   1.976   2.867   6.688 -1.1582 -0.3630  0.8426
 8529SOL     OW27006   1.607   3.360   3.942  0.4589  0.1078  0.2939
 8529SOL    HW127007   1.587   3.435   3.998 -0.6197 -0.4488  0.6872
 8529SOL    HW227008   1.608   3.285   4.003  1.5276 -0.2035 -0.0863
 8530SOL     OW27009   3.247   8.032   6.476  0.2428 -0.2258  0.0923
 8530SOL    HW127010   3.337   8.037   6.443 -0.2691 -3.4628 -2.2008
 8530SOL    HW227011   3.257   8.009   6.569  1.8301 -1.4992 -0.3490
 8531SOL     OW27012   2.203   4.326   6.460  0.4933  0.2134 -0.2747
 8531SOL    HW127013   2.109   4.339   6.469  0.7220  1.1077  1.1600
 8531SOL    HW227014   2.222   4.249   6.514  0.7868  0.9857  0.7578
 8532SOL     OW27015   3.394   6.928   1.841  0.1223 -0.1574 -0.1835
 8532SOL    HW127016   3.332   6.873   1.793 -1.1927  0.3794  0.8423
 8532SOL    HW227017   3.407   7.004   1.784 -1.8216  0.7164  0.4432
 8533SOL     OW27018   0.624   1.271   6.016 -0.1469  0.1318 -0.4486
 8533SOL    HW127019   0.560   1.335   5.985  0.4413  0.7672 -0.3894
 8533SOL    HW227020   0.637   1.293   6.109  0.6179  0.4120 -0.6160
 8534SOL     OW27021   4.179   5.688   3.940 -0.0435  0.3389 -0.1995
 8534SOL    HW127022   4.274   5.690   3.927  0.2246 -0.2515  1.4607
 8534SOL    HW227023   4.150   5.776   3.915  1.0796  0.8299  0.1548
 8535SOL     OW27024   1.371   1.329   1.151 -0.5829 -0.2286 -0.3361
 8535SOL    HW127025   1.420   1.399   1.195  0.1468  0.4953 -2.2000
 8535SOL    HW227026   1.320   1.288   1.221 -0.7633  1.9263  0.8945
 8536SOL     OW27027   6.651   0.528   1.206 -0.2486 -0.5688 -0.1014
 8536SOL    HW127028   6.556   0.534   1.199 -0.1360  1.9858 -0.5183
 8536SOL    HW227029   6.683   0.605   1.159  2.0692 -1.6746 -0.4861
 8537SOL     OW27030   3.587   1.702   3.812  0.2383  0.1209  0.6764
 8537SOL    HW127031   3.514   1.658   3.769 -1.0676 -0.0629  2.9522
 8537SOL    HW227032   3.665   1.668   3.767 -0.8608 -2.5310  0.5992
 8538SOL     OW27033   4.486   1.966   8.166 -0.4111  1.4648  0.4202
 8538SOL    HW127034   4.540   1.957   8.244  1.7352 -1.6784 -1.2137
 8538SOL    HW227035   4.526   2.038   8.117  1.1499  0.4171  0.1229
 8539SOL     OW27036   0.562   5.910   3.754  0.1727 -0.3725 -0.0877
 8539SOL    HW127037   0.481   5.922   3.803  0.0091 -1.3523 -0.1043
 8539SOL    HW227038   0.544   5.949   3.668  0.5753  1.6736  0.6813
 8540SOL     OW27039   5.807   2.651   6.784  0.1787  0.3504  0.3880
 8540SOL    HW127040   5.899   2.629   6.800  0.4869  1.4417  0.2387
 8540SOL    HW227041   5.792   2.628   6.692  0.2425 -0.0102  0.4662
 8541SOL     OW27042   3.284   6.705   5.852 -0.0548  0.4153 -0.1790
 8541SOL    HW127043   3.361   6.760   5.833 -0.3473  0.9971  0.2915
 8541SOL    HW227044   3.236   6.754   5.919 -1.1147  0.3132 -0.8464
 8542SOL     OW27045   0.840   5.692   4.877  0.3663  0.0349 -0.2265
 8542SOL    HW127046   0.798   5.777   4.862  0.7262  0.4003  0.7752
 8542SOL    HW227047   0.768   5.631   4.888  0.0669 -0.1440 -2.6119
 8543SOL     OW27048   8.326   4.699   6.917  0.5190 -0.0971 -0.6539
 8543SOL    HW127049   8.274   4.685   6.838 -0.8612  0.5488  0.1136
 8543SOL    HW227050   8.287   4.641   6.983 -0.0685  1.2959  0.2760
 8544SOL     OW27051   0.338   5.073   5.514 -0.3741  0.1414 -0.1981
 8544SOL    HW127052   0.292   5.153   5.539 -0.5476 -0.3926  1.2534
 8544SOL    HW227053   0.396   5.100   5.443 -0.6671  1.4850  0.0548
 8545SOL     OW27054   4.083   5.461   1.158 -0.4443  0.0960  0.7362
 8545SOL    HW127055   3.997   5.472   1.116 -0.4285  1.0010  0.9150
 8545SOL    HW227056   4.066   5.477   1.251 -0.2207 -0.4964  0.8807
 8546SOL     OW27057   6.262   6.299   5.275 -0.0214 -0.2485 -0.6392
 8546SOL    HW127058   6.188   6.347   5.238 -0.3790 -0.2278  0.0870
 8546SOL    HW227059   6.308   6.263   5.199 -0.6111 -0.0233 -1.1077
 8547SOL     OW27060   4.352   7.237   0.554 -1.0071 -0.1539  0.1380
 8547SOL    HW127061   4.441   7.256   0.583 -0.8787  1.0049 -0.9608
 8547SOL    HW227062   4.345   7.142   0.558  0.5713 -0.3200 -0.5821
 8548SOL     OW27063   0.130   6.368   5.724 -0.2110 -0.6927 -0.2257
 8548SOL    HW127064   0.209   6.394   5.675  0.9687 -2.3144  0.7230
 8548SOL    HW227065   0.087   6.451   5.744  1.3424  0.2701 -0.6372
 8549SOL     OW27066   4.005   0.572   0.326 -0.1721  0.1154  0.3424
 8549SOL    HW127067   4.060   0.500   0.297  0.5062  0.5016  0.6560
 8549SOL    HW227068   3.917   0.549   0.294 -0.1951 -1.3962  1.3988
 8550SOL     OW27069   8.310   4.813   4.027  0.4487 -0.1467  0.2048
 8550SOL    HW127070   8.308   4.865   4.107  0.5686 -2.2184  1.6443
 8550SOL    HW227071   8.385   4.846   3.978  0.8367  0.6607  1.3083
 8551SOL     OW27072   3.442   3.600   5.705  0.6410 -0.2337 -0.2211
 8551SOL    HW127073   3.453   3.530   5.641 -0.0328 -0.0389 -0.5661
 8551SOL    HW227074   3.381   3.566   5.769  1.8097 -0.6654  0.6996
 8552SOL     OW27075   6.713   4.569   0.243  0.5927  0.1386 -0.1687
 8552SOL    HW127076   6.635   4.603   0.199  1.5847 -0.0688 -2.2158
 8552SOL    HW227077   6.758   4.647   0.276  0.3171  0.3909 -0.3848
 8553SOL     OW27078   5.966   5.049   5.215 -1.1582 -0.1653  0.4070
 8553SOL    HW127079   6.027   5.009   5.277 -0.1861 -0.3548 -0.6312
 8553SOL    HW227080   5.991   5.142   5.213 -1.0935 -0.1868  0.1950
 8554SOL     OW27081   3.002   4.876   6.841  0.3516  0.1479  0.2882
 8554SOL    HW127082   3.073   4.929   6.877 -0.9865  0.7282  2.2547
 8554SOL    HW227083   2.995   4.801   6.899  0.7837 -1.1013 -1.2011
 8555SOL     OW27084   5.126   8.265   6.514 -0.9535  0.0792  0.0271
 8555SOL    HW127085   5.179   8.240   6.590  0.6123 -0.7085 -1.2619
 8555SOL    HW227086   5.098   8.355   6.533  2.0458  1.1048  0.2141
 8556SOL     OW27087   7.199   3.500   5.300  0.0947 -0.1000 -0.1420
 8556SOL    HW127088   7.286   3.516   5.265  0.2313  0.1255  0.2926
 8556SOL    HW227089   7.149   3.465   5.226 -0.2176  2.2880 -1.1741
 8557SOL     OW27090   7.206   6.616   1.428 -0.1265  0.0922 -0.3582
 8557SOL    HW127091   7.193   6.695   1.481 -2.5330  0.4333 -1.3111
 8557SOL    HW227092   7.273   6.642   1.364  1.6116  0.1930  1.3859
 8558SOL     OW27093   4.531   1.883   7.118 -0.2700 -0.7986 -0.7458
 8558SOL    HW127094   4.567   1.843   7.039 -1.3627 -0.3690 -1.4904
 8558SOL    HW227095   4.589   1.855   7.188  0.5389 -1.4534 -1.6547
 8559SOL     OW27096   4.512   4.503   5.422 -0.9858  0.4023  0.4519
 8559SOL    HW127097   4.463   4.473   5.345  0.8899 -2.3617  0.1777
 8559SOL    HW227098   4.599   4.465   5.411  0.6311  3.2999  1.9767
 8560SOL     OW27099   0.165   5.253   6.829 -0.0346  0.0879 -0.1414
 8560SOL    HW127100   0.212   5.304   6.895 -0.7136  0.3351  0.1649
 8560SOL    HW227101   0.232   5.225   6.767  0.4673  0.6675  0.1364
 8561SOL     OW27102   4.644   1.020   6.957  0.7631 -0.2548  0.7901
 8561SOL    HW127103   4.719   1.034   7.014  2.3542 -1.7901 -0.8371
 8561SOL    HW227104   4.642   0.926   6.942  0.7814  0.1281 -2.1166
 8562SOL     OW27105   4.750   2.204   0.233  0.2117  0.0369 -0.5732
 8562SOL    HW127106   4.817   2.163   0.289 -0.0973 -0.1614 -0.3428
 8562SOL    HW227107   4.680   2.139   0.229  0.2168  0.0691 -1.1663
 8563SOL     OW27108   5.340   1.912   2.618  0.2698 -0.2005 -0.1703
 8563SOL    HW127109   5.424   1.954   2.635 -0.7585  1.0770  2.1365
 8563SOL    HW227110   5.326   1.854   2.693 -0.6855 -0.8015 -0.7811
 8564SOL     OW27111   2.134   7.593   1.387 -0.2813  0.2899 -0.2068
 8564SOL    HW127112   2.120   7.688   1.385  1.5239  0.5665 -0.6709
 8564SOL    HW227113   2.192   7.579   1.462 -2.0491 -0.7123  1.0632
 8565SOL     OW27114   1.761   3.461   1.877 -0.3547 -0.3637 -0.3233
 8565SOL    HW127115   1.835   3.447   1.936  1.1963 -0.1215 -2.1137
 8565SOL    HW227116   1.700   3.391   1.899 -0.5101  0.4968  2.4662
 8566SOL     OW27117   4.524   1.583   0.622 -0.2134 -0.6995  0.5101
 8566SOL    HW127118   4.555   1.648   0.559  2.0734 -1.3911  0.8122
 8566SOL    HW227119   4.454   1.626   0.670  0.4451  1.1039 -0.0855
 8567SOL     OW27120   1.783   8.213   1.495  0.1165 -0.3562 -0.0015
 8567SOL    HW127121   1.861   8.215   1.550  0.8996 -1.4064 -1.0086
 8567SOL    HW227122   1.807   8.268   1.420 -0.8291  0.8330  0.5446
 8568SOL     OW27123   4.356   4.808   3.127 -0.3369 -0.2945 -0.3018
 8568SOL    HW127124   4.449   4.801   3.147 -0.2623  1.1115 -0.0058
 8568SOL    HW227125   4.320   4.722   3.148  0.7831 -0.6629  0.2027
 8569SOL     OW27126   8.225   3.457   7.510 -0.1658 -0.0254  0.5214
 8569SOL    HW127127   8.249   3.380   7.561 -0.5776  0.5519  1.6240
 8569SOL    HW227128   8.133   3.445   7.488 -0.6138  0.7348  1.8432
 8570SOL     OW27129   5.719   3.200   7.829  0.3846  0.3016  0.2559
 8570SOL    HW127130   5.725   3.294   7.848  1.9134  0.0840  0.9591
 8570SOL    HW227131   5.805   3.177   7.794  0.9449 -1.3156  2.4779
 8571SOL     OW27132   7.355   3.800   3.985 -0.4689  0.3726 -0.0079
 8571SOL    HW127133   7.373   3.893   3.974  1.3907  0.2073  1.2261
 8571SOL    HW227134   7.354   3.787   4.080  1.3744 -1.1940 -0.1458
 8572SOL     OW27135   8.362   4.784   3.362 -0.3119 -0.1860 -0.2525
 8572SOL    HW127136   8.441   4.821   3.321 -0.3831  0.4813  0.1883
 8572SOL    HW227137   8.290   4.812   3.305 -0.2023 -1.1477 -0.8853
 8573SOL     OW27138   2.548   3.122   4.843  0.5988  0.1960 -0.3325
 8573SOL    HW127139   2.511   3.190   4.787  1.3550  1.6507  0.8850
 8573SOL    HW227140   2.642   3.139   4.843  0.9492 -1.5105 -0.8294
 8574SOL     OW27141   3.939   3.530   0.556 -0.4906  0.2334  0.2291
 8574SOL    HW127142   3.855   3.486   0.572 -0.3589 -0.8210 -1.7113
 8574SOL    HW227143   3.997   3.493   0.623 -0.6983 -1.7038 -0.5906
 8575SOL     OW27144   7.190   0.971   4.788 -0.1013 -0.0766  0.4363
 8575SOL    HW127145   7.246   0.937   4.858  1.6115  0.0038 -0.8169
 8575SOL    HW227146   7.183   0.899   4.726 -1.4165 -0.0754  0.5644
 8576SOL     OW27147   1.581   4.969   1.623 -0.2072  0.4345  0.1609
 8576SOL    HW127148   1.567   4.880   1.656  0.5156  0.6245  1.0273
 8576SOL    HW227149   1.649   4.959   1.557  0.6843  0.4802  1.0509
 8577SOL     OW27150   6.345   0.063   0.783  0.7788  0.3013 -0.3762
 8577SOL    HW127151   6.382  -0.024   0.775  0.2931  0.1618 -1.1709
 8577SOL    HW227152   6.400   0.106   0.849 -0.5281 -1.4341  2.0237
 8578SOL     OW27153   5.793   1.367   2.752  0.0094 -0.0803  0.6622
 8578SOL    HW127154   5.808   1.296   2.814 -1.4786 -1.0110  0.0134
 8578SOL    HW227155   5.837   1.443   2.791 -0.1173 -0.8573  2.3926
 8579SOL     OW27156   0.342   0.307   2.891 -0.5014  0.2655 -0.4558
 8579SOL    HW127157   0.362   0.334   2.981 -1.9621 -1.4446  0.4670
 8579SOL    HW227158   0.336   0.389   2.842  0.0449  1.2682  1.0665
 8580SOL     OW27159   5.491   4.107   3.031 -0.3334  0.8072  0.6933
 8580SOL    HW127160   5.545   4.181   3.059  0.7858  0.1390  0.3878
 8580SOL    HW227161   5.520   4.089   2.941 -1.5078  0.8073  0.2982
 8581SOL     OW27162   7.737   3.818   8.306  0.6705 -0.0812  0.2756
 8581SOL    HW127163   7.811   3.869   8.340  0.0435  1.4398 -0.5466
 8581SOL    HW227164   7.672   3.821   8.377  0.3215  0.9933 -0.0697
 8582SOL     OW27165   2.034   0.243   3.358  0.0602 -0.0334  0.4118
 8582SOL    HW127166   2.074   0.245   3.444  0.0841  0.6254  0.3886
 8582SOL    HW227167   1.946   0.279   3.371  0.3976  0.9665 -0.0024
 8583SOL     OW27168   5.726   2.212   0.887 -0.0819  0.1832  0.0195
 8583SOL    HW127169   5.764   2.212   0.974 -0.5531  0.4568  0.2284
 8583SOL    HW227170   5.772   2.282   0.841  1.8724 -1.4964 -0.7271
 8584SOL     OW27171   6.581   7.552   3.603 -0.2694 -0.1760 -0.1765
 8584SOL    HW127172   6.668   7.584   3.580 -0.6912 -0.6664 -2.6798
 8584SOL    HW227173   6.536   7.630   3.637  1.2646 -0.0542  1.8269
 8585SOL     OW27174   3.174   8.228   1.804 -0.3835 -0.6899 -0.2801
 8585SOL    HW127175   3.235   8.212   1.733 -2.7054 -2.7623 -1.9944
 8585SOL    HW227176   3.224   8.211   1.884  1.6633 -0.6114 -1.4813
 8586SOL     OW27177   1.596   7.975   8.025  0.3227  0.8511 -0.0282
 8586SOL    HW127178   1.661   7.926   8.076 -0.4497 -2.5018 -1.9668
 8586SOL    HW227179   1.538   8.013   8.091  1.9787  0.6454  1.6330
 8587SOL     OW27180   0.822   4.986   3.256  0.2049 -0.6928  0.0120
 8587SOL    HW127181   0.777   4.929   3.194 -1.2398 -1.4111  1.6430
 8587SOL    HW227182   0.765   4.988   3.333  1.9063  0.1835  1.3192
 8588SOL     OW27183   3.782   6.831   2.199  0.4460 -0.1619 -0.3949
 8588SOL    HW127184   3.708   6.810   2.142  1.0855 -0.4889 -1.1276
 8588SOL    HW227185   3.764   6.784   2.281  0.0987 -0.6621 -0.7532
 8589SOL     OW27186   2.989   6.372   4.102 -0.4684  0.5625 -0.1013
 8589SOL    HW127187   3.045   6.295   4.089 -1.1066 -0.0084  0.4698
 8589SOL    HW227188   2.940   6.353   4.182 -0.2615  1.7948  0.3474
 8590SOL     OW27189   1.360   7.482   8.201  0.2622  0.1639 -0.0059
 8590SOL    HW127190   1.333   7.475   8.110 -1.8965 -0.7109  0.6311
 8590SOL    HW227191   1.349   7.393   8.236  2.6845  0.0755  0.7334
 8591SOL     OW27192   0.925   7.735   6.924 -0.2585 -0.0037 -0.5593
 8591SOL    HW127193   1.006   7.704   6.883 -1.0073 -1.6413 -0.8436
 8591SOL    HW227194   0.955   7.796   6.992  1.1549  0.1330 -1.2658
 8592SOL     OW27195   0.938   4.312   6.866 -0.0391  0.0104 -0.1015
 8592SOL    HW127196   0.865   4.250   6.866 -1.8457  1.9946  0.9683
 8592SOL    HW227197   0.942   4.345   6.776 -0.8906  0.3396 -0.0253
 8593SOL     OW27198   2.182   7.789   6.545  0.9036  0.1199 -0.2859
 8593SOL    HW127199   2.267   7.818   6.576 -0.6377  2.3620  2.4079
 8593SOL    HW227200   2.140   7.868   6.511 -0.5121 -0.6593 -0.4530
 8594SOL     OW27201   4.774   7.805   5.166 -0.2277 -0.1103  0.6673
 8594SOL    HW127202   4.734   7.878   5.118 -1.4683 -0.7142  0.7278
 8594SOL    HW227203   4.746   7.819   5.257  1.5779  0.6753  1.1355
 8595SOL     OW27204   6.181   3.882   3.264  0.2671  0.0593  0.1992
 8595SOL    HW127205   6.261   3.833   3.243  0.9970  2.1190 -2.3814
 8595SOL    HW227206   6.210   3.950   3.325  0.3527  0.4315 -0.2569
 8596SOL     OW27207   2.313   4.502   7.407  0.0142 -0.0544  0.0491
 8596SOL    HW127208   2.246   4.523   7.472 -0.4386  0.5324 -0.5899
 8596SOL    HW227209   2.375   4.447   7.454 -0.0404  0.7586  1.1131
 8597SOL     OW27210   6.641   6.231   3.296  0.5345 -0.0344  0.2101
 8597SOL    HW127211   6.642   6.171   3.221 -0.1551 -0.4959  0.5685
 8597SOL    HW227212   6.683   6.183   3.367  0.2432  0.0120  0.4161
 8598SOL     OW27213   3.342   4.286   7.841  0.3521 -0.1278  0.5493
 8598SOL    HW127214   3.427   4.275   7.883  0.2827  0.0774  0.7447
 8598SOL    HW227215   3.278   4.266   7.910  0.2403  0.0574  0.5021
 8599SOL     OW27216   5.513   8.290   5.907 -0.4832 -0.1175  0.2435
 8599SOL    HW127217   5.589   8.303   5.851 -0.9264 -1.4935 -0.7419
 8599SOL    HW227218   5.529   8.345   5.983  2.0744 -1.2559  0.6229
 8600SOL     OW27219   7.195   7.550   2.158  0.2824 -0.3157 -0.3275
 8600SOL    HW127220   7.202   7.638   2.196  0.0856  0.4550 -1.9808
 8600SOL    HW227221   7.102   7.528   2.165  0.3823 -0.5353  0.3675
 8601SOL     OW27222   4.758   8.229   1.365 -0.3096 -0.2065  0.4378
 8601SOL    HW127223   4.729   8.247   1.275 -1.8302 -0.9848  0.7295
 8601SOL    HW227224   4.790   8.313   1.397 -1.3776  0.5085 -0.2868
 8602SOL     OW27225   4.382   4.378   7.135 -0.2185  0.4602  0.0263
 8602SOL    HW127226   4.362   4.472   7.127  0.0702  0.6098  0.9607
 8602SOL    HW227227   4.463   4.376   7.186  1.1894 -0.1928 -2.1014
 8603SOL     OW27228   7.307   2.702   4.490 -0.4175 -0.0914 -0.6479
 8603SOL    HW127229   7.246   2.662   4.553  0.4989 -0.5497 -0.0317
 8603SOL    HW227230   7.278   2.793   4.485  0.3673  0.3511  1.6043
 8604SOL     OW27231   0.629   5.734   1.034  0.2875 -0.0014 -0.6405
 8604SOL    HW127232   0.693   5.764   1.098  0.2106 -0.3980 -0.3712
 8604SOL    HW227233   0.616   5.641   1.055  0.1971 -0.1156 -1.1766
 8605SOL     OW27234   2.374   4.051   5.215  0.8619  0.0605  0.1616
 8605SOL    HW127235   2.369   4.146   5.214  1.3576  0.1337  1.8836
 8605SOL    HW227236   2.467   4.032   5.227  0.8657 -0.6680 -0.9160
 8606SOL     OW27237   2.533   0.442   1.884 -0.4443 -0.5190 -0.3784
 8606SOL    HW127238   2.446   0.420   1.849 -0.1255 -0.9764 -0.9157
 8606SOL    HW227239   2.581   0.473   1.807  0.3846 -1.8801 -0.4364
 8607SOL     OW27240   7.089   2.069   8.239 -0.1672 -0.2792 -0.5251
 8607SOL    HW127241   7.153   2.118   8.290  2.0222  0.4766 -3.6973
 8607SOL    HW227242   7.134   1.987   8.218 -0.9217 -0.4844 -1.3733
 8608SOL     OW27243   4.015   4.001   2.859  0.3553 -0.0922 -0.2039
 8608SOL    HW127244   3.967   4.051   2.792 -0.1082 -0.2403  0.0129
 8608SOL    HW227245   3.968   3.918   2.864  0.2825 -0.0150  0.4282
 8609SOL     OW27246   4.367   3.991   7.519 -0.1369 -0.1022 -0.3929
 8609SOL    HW127247   4.352   4.081   7.491  0.8430  0.0561 -0.4647
 8609SOL    HW227248   4.364   3.995   7.615  0.4913  0.1307 -0.3769
 8610SOL     OW27249   6.640   4.394   3.233  0.1548  0.1836  0.5935
 8610SOL    HW127250   6.565   4.343   3.203  0.2371 -0.5621  1.5955
 8610SOL    HW227251   6.702   4.329   3.264  0.3168  0.8735  1.7913
 8611SOL     OW27252   6.736   7.625   7.630 -0.1459 -0.2855 -0.0830
 8611SOL    HW127253   6.772   7.691   7.690  1.4863 -0.9954 -0.2294
 8611SOL    HW227254   6.744   7.665   7.544  0.3638 -0.4616 -0.1203
 8612SOL     OW27255   4.453   0.805   7.767 -0.1290 -0.3099 -0.5918
 8612SOL    HW127256   4.363   0.838   7.761 -0.1908 -0.3963 -0.1503
 8612SOL    HW227257   4.470   0.799   7.861  0.0399 -1.0875 -0.6629
 8613SOL     OW27258   1.144   6.151   0.907  0.4718  0.0556  0.1273
 8613SOL    HW127259   1.207   6.210   0.864  2.4679 -1.3425  0.9815
 8613SOL    HW227260   1.198   6.087   0.952 -1.6138 -1.2953  0.8594
 8614SOL     OW27261   2.723   6.938   3.791  0.4314 -0.0241 -0.0243
 8614SOL    HW127262   2.694   6.849   3.771  1.1196 -0.1221 -0.6480
 8614SOL    HW227263   2.666   6.994   3.739  0.7745 -0.1767 -0.5911
 8615SOL     OW27264   5.666   3.110   7.136  0.4561 -1.1331  0.0868
 8615SOL    HW127265   5.751   3.072   7.159  1.0616  0.3447  0.3898
 8615SOL    HW227266   5.628   3.136   7.220  0.8509  0.5165 -0.2066
 8616SOL     OW27267   3.842   7.051   4.125 -0.1145 -0.0858  0.5715
 8616SOL    HW127268   3.767   7.004   4.161 -2.5700  1.9302 -1.5277
 8616SOL    HW227269   3.890   6.986   4.074 -2.8354 -0.6896 -1.4246
 8617SOL     OW27270   4.895   3.357   0.316  0.5884 -0.0999 -0.0705
 8617SOL    HW127271   4.851   3.288   0.367 -1.2943  2.6461  2.3655
 8617SOL    HW227272   4.827   3.391   0.258  0.8663  1.0473  0.2583
 8618SOL     OW27273   5.979   7.658   0.895  0.6189  0.4370  0.0212
 8618SOL    HW127274   5.888   7.643   0.870  1.6396 -0.5887 -3.6354
 8618SOL    HW227275   5.994   7.751   0.877  0.0927  0.8521  1.5902
 8619SOL     OW27276   1.523   1.390   3.755 -0.5233 -0.0110 -0.1216
 8619SOL    HW127277   1.522   1.297   3.731  0.4181  0.2793 -1.4047
 8619SOL    HW227278   1.575   1.393   3.835  0.0323 -0.5303 -0.4512
 8620SOL     OW27279   0.978   2.592   6.218 -0.4176 -0.0099 -0.0793
 8620SOL    HW127280   1.018   2.657   6.277  1.2930  0.7217 -1.9444
 8620SOL    HW227281   0.993   2.509   6.262  1.5475  0.4415  0.2002
 8621SOL     OW27282   1.511   5.059   7.219 -0.2511 -0.7293 -0.7241
 8621SOL    HW127283   1.416   5.056   7.208 -0.3733  0.5295 -0.2572
 8621SOL    HW227284   1.525   5.122   7.290  1.0015  0.5306 -2.0071
 8622SOL     OW27285   1.872   3.228   4.132 -0.5300 -0.4616 -0.3382
 8622SOL    HW127286   1.903   3.299   4.188 -1.6137  0.9120 -1.4393
 8622SOL    HW227287   1.811   3.179   4.188 -1.4516  0.7765 -0.2168
 8623SOL     OW27288   0.428   7.255   6.557 -0.5644  0.4361 -0.2381
 8623SOL    HW127289   0.462   7.272   6.645  0.6904  0.4208 -0.6906
 8623SOL    HW227290   0.339   7.224   6.571  0.2309 -1.4623  1.1736
 8624SOL     OW27291   7.636   1.290   7.722 -0.0454  0.1312 -0.1812
 8624SOL    HW127292   7.619   1.240   7.642 -2.5761 -0.3401  0.5610
 8624SOL    HW227293   7.728   1.316   7.716 -0.0478 -0.2678 -3.0130
 8625SOL     OW27294   5.416   4.977   3.076 -0.0810  0.3212 -0.1699
 8625SOL    HW127295   5.498   5.018   3.046  0.0551  1.2705  1.4093
 8625SOL    HW227296   5.348   5.024   3.028  0.2684 -1.5226 -2.7145
 8626SOL     OW27297   2.432   2.753   5.991 -0.5946  0.1269  0.4920
 8626SOL    HW127298   2.422   2.666   5.953 -1.2913  1.1260 -1.7480
 8626SOL    HW227299   2.527   2.766   5.996 -0.4654 -0.9598  1.4642
 8627SOL     OW27300   7.530   7.607   0.345  0.0595  0.6028 -0.4768
 8627SOL    HW127301   7.513   7.516   0.321  1.7146  0.4850 -1.3535
 8627SOL    HW227302   7.567   7.602   0.434 -0.0774  0.4414 -0.4294
 8628SOL     OW27303   2.383   2.125   7.590 -0.0649  0.4271 -0.0670
 8628SOL    HW127304   2.383   2.104   7.497 -1.6169  0.8794 -0.1933
 8628SOL    HW227305   2.429   2.052   7.632 -3.2624 -2.1898 -0.7144
 8629SOL     OW27306   2.904   5.349   0.334 -0.9641 -0.1884  0.2647
 8629SOL    HW127307   2.966   5.277   0.321 -0.9210 -0.4751  1.8300
 8629SOL    HW227308   2.904   5.396   0.250  0.5247 -0.8263 -0.1355
 8630SOL     OW27309   0.326   7.634   5.110 -0.7493  0.7918  0.0429
 8630SOL    HW127310   0.260   7.566   5.092 -0.4820  0.9519 -1.7160
 8630SOL    HW227311   0.276   7.715   5.117 -0.9905  0.5551  1.4291
 8631SOL     OW27312   1.370   2.232   7.268 -0.5016 -0.1937 -0.5687
 8631SOL    HW127313   1.286   2.231   7.222 -0.3957  0.8433 -0.7965
 8631SOL    HW227314   1.348   2.257   7.358 -0.3852  0.5490 -0.7442
 8632SOL     OW27315   5.738   6.540   7.356  0.1241 -0.2865  0.0643
 8632SOL    HW127316   5.799   6.612   7.338 -1.6240  1.7716  1.8247
 8632SOL    HW227317   5.780   6.489   7.425  1.4555 -1.1066 -1.3121
 8633SOL     OW27318   4.362   0.198   8.126 -0.4161  0.1492 -0.0782
 8633SOL    HW127319   4.445   0.215   8.080 -1.2961  3.8284 -0.6591
 8633SOL    HW227320   4.305   0.162   8.059  0.3049 -1.2487  0.0201
 8634SOL     OW27321   1.080   5.796   0.855  0.4251  0.2259  0.0522
 8634SOL    HW127322   1.088   5.844   0.772  1.3122 -0.6315 -0.3877
 8634SOL    HW227323   1.024   5.721   0.834 -0.2821  0.6077  0.5277
 8635SOL     OW27324   6.176   4.201   1.897  0.7232  0.0057 -0.5249
 8635SOL    HW127325   6.124   4.280   1.890 -0.3830 -0.4445  1.7269
 8635SOL    HW227326   6.226   4.212   1.978 -0.5789 -2.1578  0.6610
 8636SOL     OW27327   2.942   1.695   2.418 -0.5828 -0.4400  0.4690
 8636SOL    HW127328   2.890   1.707   2.497  1.8544 -0.5593  2.1811
 8636SOL    HW227329   3.020   1.750   2.431 -0.8086  0.8296 -2.5932
 8637SOL     OW27330   2.368   1.355   8.029 -0.1608 -0.4289 -0.6728
 8637SOL    HW127331   2.347   1.373   7.938  1.1119  0.0719 -0.8994
 8637SOL    HW227332   2.378   1.442   8.069 -0.8416 -0.6395 -0.0168
 8638SOL     OW27333   5.406   0.187   0.856  0.0238 -0.7661  0.1071
 8638SOL    HW127334   5.446   0.220   0.775 -0.8437 -0.4019 -0.1910
 8638SOL    HW227335   5.320   0.153   0.827  0.6588 -2.8276  0.4792
 8639SOL     OW27336   6.680   3.454   7.216  0.0247 -0.2371  0.6623
 8639SOL    HW127337   6.667   3.506   7.137 -0.4303 -0.6838  0.4362
 8639SOL    HW227338   6.743   3.504   7.268 -0.5777  0.6586  0.5526
 8640SOL     OW27339   6.288   7.844   6.470  0.1710  0.0972  0.2879
 8640SOL    HW127340   6.216   7.814   6.525  0.4855  1.6919  1.6282
 8640SOL    HW227341   6.363   7.790   6.497 -0.0287 -0.1679  0.3205
 8641SOL     OW27342   6.957   5.178   1.354 -0.9220  0.4813 -0.3521
 8641SOL    HW127343   7.006   5.107   1.394  1.3668  1.7940 -0.6340
 8641SOL    HW227344   6.993   5.184   1.265 -0.3877  2.5140 -0.0460
 8642SOL     OW27345   5.068   8.359   2.589 -0.1732 -0.5379  0.2006
 8642SOL    HW127346   4.983   8.363   2.633 -1.4467 -0.4434 -2.1428
 8642SOL    HW227347   5.111   8.441   2.614 -1.6313  0.3734 -0.1794
 8643SOL     OW27348   8.259   0.477   1.238  0.6360 -0.2201  0.1139
 8643SOL    HW127349   8.340   0.472   1.187 -0.0680  0.2246 -1.0929
 8643SOL    HW227350   8.238   0.386   1.258 -0.0895 -0.5958 -2.0926
 8644SOL     OW27351   4.765   6.915   6.250  0.3392  0.2336 -0.6718
 8644SOL    HW127352   4.722   6.875   6.326  1.7794  1.6513  0.9855
 8644SOL    HW227353   4.833   6.852   6.224  0.3743  0.0977 -0.2535
 8645SOL     OW27354   2.820   0.361   3.362 -0.3357  0.2816 -0.7174
 8645SOL    HW127355   2.816   0.454   3.338 -0.6487 -0.1969 -2.7027
 8645SOL    HW227356   2.731   0.341   3.391 -0.5899  0.3520 -1.4095
 8646SOL     OW27357   6.379   6.547   4.118 -0.2446 -0.0521  0.1236
 8646SOL    HW127358   6.288   6.544   4.148 -0.3979 -0.0596 -0.3385
 8646SOL    HW227359   6.377   6.506   4.032  0.0130  0.8517 -0.3286
 8647SOL     OW27360   3.350   1.225   2.197  0.2233  0.4885  0.4583
 8647SOL    HW127361   3.281   1.226   2.131 -1.5340  0.0755  2.2009
 8647SOL    HW227362   3.345   1.311   2.238 -0.4391 -0.1295  1.7248
 8648SOL     OW27363   1.189   4.949   1.188 -0.5854 -0.3584 -0.0503
 8648SOL    HW127364   1.239   5.024   1.157 -2.7217  1.1964  0.0363
 8648SOL    HW227365   1.122   4.935   1.121 -0.9300 -1.4574  0.5008
 8649SOL     OW27366   3.437   4.741   6.297 -0.0706 -0.0659  0.4208
 8649SOL    HW127367   3.383   4.758   6.373 -1.5499 -0.7892 -0.4342
 8649SOL    HW227368   3.384   4.771   6.223  0.8171 -0.5406 -0.4314
 8650SOL     OW27369   3.513   3.415   5.521 -0.2374  0.2377  0.1563
 8650SOL    HW127370   3.430   3.401   5.476 -0.4862  0.2117  0.6148
 8650SOL    HW227371   3.576   3.360   5.473 -1.3781 -3.5151  2.5310
 8651SOL     OW27372   0.738   6.478   1.297 -0.0781  0.1997 -0.2254
 8651SOL    HW127373   0.785   6.418   1.239 -2.1045 -1.2946 -0.4121
 8651SOL    HW227374   0.713   6.551   1.240  4.2079  2.5453  0.4136
 8652SOL     OW27375   6.988   5.449   4.139  0.5910 -0.1045  0.1397
 8652SOL    HW127376   6.989   5.481   4.229 -1.0737 -1.1642  0.5648
 8652SOL    HW227377   6.941   5.517   4.090 -2.4792 -1.4700  0.9477
 8653SOL     OW27378   1.419   6.776   2.697  0.0807  0.5023  0.6791
 8653SOL    HW127379   1.497   6.731   2.730 -0.5936 -0.9413  0.3967
 8653SOL    HW227380   1.446   6.867   2.686  2.0053 -0.1470 -0.3151
 8654SOL     OW27381   3.275   3.210   4.253  0.3121  0.2193  0.4952
 8654SOL    HW127382   3.346   3.153   4.222 -0.2359 -1.4385  2.1152
 8654SOL    HW227383   3.232   3.239   4.172 -0.5912 -3.3121 -0.5012
 8655SOL     OW27384   2.401   0.268   2.543 -0.1999 -0.3360 -0.4670
 8655SOL    HW127385   2.351   0.258   2.462  0.6691 -3.5317 -0.7250
 8655SOL    HW227386   2.486   0.302   2.515  0.0147 -1.2016 -0.8800
 8656SOL     OW27387   0.343   1.195   3.745  0.6953 -0.2694 -0.2927
 8656SOL    HW127388   0.436   1.173   3.750  1.0190  0.5293 -2.1664
 8656SOL    HW227389   0.313   1.158   3.662  0.7809  4.2512 -2.6420
 8657SOL     OW27390   0.063   3.806   0.466  0.4527 -0.2143  0.2858
 8657SOL    HW127391   0.098   3.799   0.555  1.5460 -0.0937 -0.1240
 8657SOL    HW227392   0.035   3.897   0.458 -1.0237 -0.5666  0.9803
 8658SOL     OW27393   1.659   2.464   2.886  0.1983  0.8537 -0.4496
 8658SOL    HW127394   1.724   2.473   2.816  1.9394  1.7216  1.1981
 8658SOL    HW227395   1.692   2.518   2.957 -0.6951 -1.1700  1.6346
 8659SOL     OW27396   0.090   2.438   6.297 -0.2333 -0.3261  0.4689
 8659SOL    HW127397   0.151   2.372   6.264 -0.8003  0.2419 -1.8532
 8659SOL    HW227398   0.004   2.403   6.276 -0.6290  0.1353  1.2804
 8660SOL     OW27399   7.001   2.678   8.084  0.3190 -0.7323  0.3670
 8660SOL    HW127400   6.942   2.743   8.046  0.0525 -0.2362  1.5822
 8660SOL    HW227401   7.030   2.625   8.010  0.5550  0.7784 -0.6569
 8661SOL     OW27402   4.768   0.877   0.346  0.4859 -0.0942 -0.0562
 8661SOL    HW127403   4.731   0.806   0.294  0.5654 -0.0195 -0.2153
 8661SOL    HW227404   4.696   0.939   0.358  0.7906  0.5053 -1.1574
 8662SOL     OW27405   3.360   0.669   4.850  0.9632 -0.3316 -0.0611
 8662SOL    HW127406   3.311   0.603   4.802  0.5220  0.7322 -1.1394
 8662SOL    HW227407   3.334   0.658   4.942 -1.5611  0.3773 -0.6317
 8663SOL     OW27408   7.916   4.532   2.093  0.8529  0.4686  0.1964
 8663SOL    HW127409   8.012   4.527   2.089  0.8171 -0.2341 -2.7858
 8663SOL    HW227410   7.895   4.616   2.054  0.2471  0.3170  0.1822
 8664SOL     OW27411   7.343   1.338   8.047  0.3698  0.2357  0.1656
 8664SOL    HW127412   7.315   1.359   8.136 -0.1713  0.9035 -0.1474
 8664SOL    HW227413   7.405   1.408   8.025  1.0910 -0.3608  0.2941
 8665SOL     OW27414   0.327   3.068   7.649 -0.4217 -0.2830 -0.7183
 8665SOL    HW127415   0.273   3.146   7.636 -1.0847 -0.5617  0.2686
 8665SOL    HW227416   0.278   3.015   7.712  0.5468 -0.9870 -0.5327
 8666SOL     OW27417   3.361   6.207   1.905 -0.3307  0.9335  0.4659
 8666SOL    HW127418   3.417   6.199   1.827 -1.4067 -1.5341 -0.1575
 8666SOL    HW227419   3.412   6.260   1.966  1.7694  0.5501 -0.8498
 8667SOL     OW27420   6.289   5.910   0.887 -0.3923 -0.2763 -0.0734
 8667SOL    HW127421   6.384   5.904   0.876 -0.3128  0.3411  0.1937
 8667SOL    HW227422   6.272   5.873   0.973 -0.3255  0.1076  0.1066
 8668SOL     OW27423   3.174   7.537   2.036 -0.4153  0.1891 -0.3960
 8668SOL    HW127424   3.096   7.556   1.984  0.2775 -1.0116 -1.9649
 8668SOL    HW227425   3.240   7.513   1.972  0.2469 -2.1769  1.0395
 8669SOL     OW27426   6.389   7.607   5.382  0.3957  0.1434 -0.5472
 8669SOL    HW127427   6.349   7.528   5.345 -0.5547  0.9783 -1.3480
 8669SOL    HW227428   6.458   7.630   5.319  1.7016 -0.8658  0.4494
 8670SOL     OW27429   7.108   3.702   0.526  0.1603  0.2699  0.0013
 8670SOL    HW127430   7.169   3.656   0.470  0.9305  0.3426  0.7549
 8670SOL    HW227431   7.043   3.636   0.550  0.5153 -0.0830  0.0060
 8671SOL     OW27432   1.303   2.698   5.183 -0.6623 -0.4711  0.1097
 8671SOL    HW127433   1.237   2.768   5.190 -0.8784 -0.8079  1.9067
 8671SOL    HW227434   1.297   2.668   5.092 -2.6768 -0.1820  0.1052
 8672SOL     OW27435   1.495   1.003   2.373  0.4879  0.4305  0.4292
 8672SOL    HW127436   1.536   1.067   2.315 -3.0702  1.7879 -0.8535
 8672SOL    HW227437   1.507   0.919   2.328  1.3550  0.8360 -0.1264
 8673SOL     OW27438   3.026   4.473   3.818  0.0171  0.0482 -0.0393
 8673SOL    HW127439   3.108   4.496   3.863 -0.2948  0.4971  0.3018
 8673SOL    HW227440   3.013   4.380   3.839 -0.4667  0.4035  1.3669
 8674SOL     OW27441   2.402   0.563   8.355 -0.7290 -0.7749  0.1790
 8674SOL    HW127442   2.393   0.472   8.326 -1.5009 -0.6296 -0.0781
 8674SOL    HW227443   2.316   0.602   8.338  0.3793  0.7766 -2.4247
 8675SOL     OW27444   7.316   1.419   7.608  0.1798 -0.4137 -0.1928
 8675SOL    HW127445   7.366   1.341   7.582  0.5331  0.0067 -0.8244
 8675SOL    HW227446   7.359   1.491   7.561 -0.0393  0.1853  0.5119
 8676SOL     OW27447   0.599   2.533   5.955 -1.0384 -0.1843 -0.1093
 8676SOL    HW127448   0.690   2.535   5.985 -0.9913  1.7513 -0.2635
 8676SOL    HW227449   0.550   2.494   6.027 -0.4465  1.2510  1.1134
 8677SOL     OW27450   0.434   7.831   6.166  0.3809 -0.1806  0.2697
 8677SOL    HW127451   0.434   7.863   6.256 -0.9932 -0.2747  0.3167
 8677SOL    HW227452   0.343   7.836   6.138  1.1407  2.6781 -2.1622
 8678SOL     OW27453   7.391   0.746   0.440 -0.4605 -0.5823 -0.0244
 8678SOL    HW127454   7.386   0.775   0.349  2.1719 -0.4178 -0.2204
 8678SOL    HW227455   7.356   0.657   0.439  0.6449 -1.0534 -1.5019
 8679SOL     OW27456   0.651   4.621   0.760 -0.1079 -0.3080  0.0295
 8679SOL    HW127457   0.590   4.680   0.804  0.4612  0.8919 -0.7312
 8679SOL    HW227458   0.598   4.572   0.697 -0.5628 -0.5540  0.5883
 8680SOL     OW27459   0.019   3.147   4.557  0.0560  0.0425 -0.3129
 8680SOL    HW127460   0.014   3.174   4.649  0.1926  0.9577 -0.5653
 8680SOL    HW227461   0.098   3.094   4.551  0.1620  0.1579  0.0528
 8681SOL     OW27462   4.252   6.185   3.897 -0.6423  0.1046  0.6462
 8681SOL    HW127463   4.202   6.107   3.875 -1.5460  0.7599  0.3400
 8681SOL    HW227464   4.295   6.163   3.980 -0.7745 -0.7592  0.4904
 8682SOL     OW27465   7.657   3.441   5.671 -0.0233  0.0070 -0.1388
 8682SOL    HW127466   7.654   3.533   5.647 -0.5514 -0.4875 -2.1439
 8682SOL    HW227467   7.605   3.397   5.604 -0.3977 -1.6814  1.1837
 8683SOL     OW27468   1.727   8.308   0.975 -0.0271  0.7369  0.0340
 8683SOL    HW127469   1.657   8.369   0.950 -1.3202 -0.1534  1.2616
 8683SOL    HW227470   1.731   8.246   0.903 -0.5622  0.7591 -0.0229
 8684SOL     OW27471   2.012   2.416   6.052 -0.2893 -0.1865 -0.6526
 8684SOL    HW127472   1.996   2.361   6.129 -1.5094 -0.3407 -0.9978
 8684SOL    HW227473   1.938   2.477   6.050  0.7875  1.1805 -0.5571
 8685SOL     OW27474   2.886   4.319   1.892 -0.6522 -0.1615 -0.5267
 8685SOL    HW127475   2.793   4.316   1.916 -0.1418 -0.4396  1.6440
 8685SOL    HW227476   2.932   4.309   1.975  1.3425 -1.8219 -1.7242
 8686SOL     OW27477   6.280   2.521   1.088  0.4652  0.0634 -0.0615
 8686SOL    HW127478   6.331   2.602   1.095  0.1372  0.3616 -0.9915
 8686SOL    HW227479   6.263   2.496   1.179  2.7176 -0.3524  0.3274
 8687SOL     OW27480   3.757   3.009   7.399  0.0372 -0.4366  0.3976
 8687SOL    HW127481   3.754   3.031   7.492  1.6101 -1.5509  0.7350
 8687SOL    HW227482   3.850   3.007   7.377 -0.3096 -0.0332 -1.2542
 8688SOL     OW27483   2.673   1.116   6.815  0.0616  0.2204  0.4444
 8688SOL    HW127484   2.721   1.164   6.882  0.2375  0.8063 -0.0877
 8688SOL    HW227485   2.581   1.122   6.842  0.1648  0.1731  0.8048
 8689SOL     OW27486   7.236   1.489   0.924  0.4142 -0.1185  0.6414
 8689SOL    HW127487   7.243   1.584   0.909  0.3022  0.0049  1.3344
 8689SOL    HW227488   7.218   1.481   1.018 -1.4908 -0.7323  0.2679
 8690SOL     OW27489   0.758   5.440   6.476 -0.1279 -0.1901 -0.1669
 8690SOL    HW127490   0.835   5.414   6.528  0.1040  1.0679  0.1479
 8690SOL    HW227491   0.793   5.463   6.391 -0.4728 -1.9403 -0.8283
 8691SOL     OW27492   1.213   0.800   2.090  0.0344 -0.2361  0.1631
 8691SOL    HW127493   1.264   0.764   2.017  2.3324  0.8446  1.1374
 8691SOL    HW227494   1.122   0.794   2.061  0.7788 -1.0652 -2.2277
 8692SOL     OW27495   7.007   7.213   5.498  0.0505 -0.6163 -0.0630
 8692SOL    HW127496   7.100   7.192   5.501  0.4551  0.8736 -1.0379
 8692SOL    HW227497   6.978   7.178   5.414 -0.3967 -1.4676  0.4300
 8693SOL     OW27498   7.428   0.831   1.086  0.6102  0.0341  0.0205
 8693SOL    HW127499   7.459   0.871   1.005 -3.0334  2.5963 -0.3717
 8693SOL    HW227500   7.459   0.890   1.155  1.4916 -0.7079  0.2867
 8694SOL     OW27501   3.120   2.234   5.523  0.2849  0.1961 -0.0150
 8694SOL    HW127502   3.122   2.163   5.587  1.5289  0.5390  0.3574
 8694SOL    HW227503   3.051   2.210   5.462  0.4978 -1.1944  0.2689
 8695SOL     OW27504   1.565   0.742   1.652  0.2388 -0.1964  1.0184
 8695SOL    HW127505   1.483   0.752   1.603  0.6556 -1.2233  0.0665
 8695SOL    HW227506   1.627   0.708   1.587  1.4678  0.7278  1.6793
 8696SOL     OW27507   2.248   0.304   5.178  0.3488  0.1836 -0.8223
 8696SOL    HW127508   2.241   0.357   5.099  0.6025  2.2551  0.4716
 8696SOL    HW227509   2.183   0.340   5.237 -0.2598 -1.7287 -0.2569
 8697SOL     OW27510   7.760   1.451   5.509  0.4873 -0.6509  0.5915
 8697SOL    HW127511   7.806   1.534   5.517 -1.0695  0.4896 -1.2697
 8697SOL    HW227512   7.693   1.454   5.577 -0.5364  0.3733 -0.4071
 8698SOL     OW27513   1.113   6.535   4.986 -0.7334 -0.1449  0.2476
 8698SOL    HW127514   1.161   6.507   5.064 -1.1722  0.1254  0.6138
 8698SOL    HW227515   1.022   6.510   5.003 -0.7575 -0.5079 -0.3779
 8699SOL     OW27516   0.397   2.244   4.778  0.9208  0.8398  0.2946
 8699SOL    HW127517   0.366   2.185   4.847 -1.2213  1.3014 -0.2014
 8699SOL    HW227518   0.349   2.217   4.700 -0.8733  3.7208  0.2346
 8700SOL     OW27519   1.195   6.769   7.531 -0.0597  0.4453  0.0010
 8700SOL    HW127520   1.108   6.763   7.492  0.5329  0.7400 -1.4406
 8700SOL    HW227521   1.199   6.695   7.592 -0.5714 -0.8884 -1.4938
 8701SOL     OW27522   4.382   2.456   5.148  0.3788 -0.3902  0.4320
 8701SOL    HW127523   4.417   2.385   5.203  1.9370  0.2988  0.3817
 8701SOL    HW227524   4.338   2.515   5.210 -1.3093 -1.5749  0.4233
 8702SOL     OW27525   4.598   0.479   5.726  0.4903 -0.0647 -0.3894
 8702SOL    HW127526   4.517   0.481   5.777  0.0831 -0.8978 -0.9831
 8702SOL    HW227527   4.600   0.565   5.683  1.6013  1.2757  2.1052
 8703SOL     OW27528   5.038   0.324   2.397  0.4300 -0.7375  0.0715
 8703SOL    HW127529   5.130   0.324   2.370  0.5005  0.9845  0.2116
 8703SOL    HW227530   5.002   0.244   2.358  1.4657 -0.3585 -1.7797
 8704SOL     OW27531   3.218   0.116   7.122 -0.1458  0.0547  0.2930
 8704SOL    HW127532   3.279   0.109   7.196  0.5987 -1.0600 -0.4103
 8704SOL    HW227533   3.135   0.080   7.156 -0.1492  0.6196  0.9240
 8705SOL     OW27534   1.561   6.724   3.680 -0.2701  0.1253 -0.0272
 8705SOL    HW127535   1.482   6.768   3.711 -0.1725 -0.5441  1.2621
 8705SOL    HW227536   1.631   6.761   3.735 -0.0188 -0.7787  0.2725
 8706SOL     OW27537   1.621   3.843   6.244  0.1993  0.5689  0.1244
 8706SOL    HW127538   1.591   3.769   6.296 -0.6466 -0.3919 -1.6154
 8706SOL    HW227539   1.675   3.895   6.303  0.1162 -0.9862  1.6288
 8707SOL     OW27540   3.138   5.987   4.676 -0.1349 -0.2061 -0.2946
 8707SOL    HW127541   3.144   5.925   4.604 -1.8196  0.0582 -0.7167
 8707SOL    HW227542   3.128   5.932   4.754  1.0814 -0.4772 -0.3055
 8708SOL     OW27543   0.579   2.462   3.911  0.0745 -0.0626  0.3433
 8708SOL    HW127544   0.518   2.515   3.861  0.4423 -0.8211 -0.9498
 8708SOL    HW227545   0.529   2.435   3.988 -1.0986 -0.3097 -0.4756
 8709SOL     OW27546   6.696   7.187   5.210 -0.4666  0.0206  0.2587
 8709SOL    HW127547   6.679   7.235   5.290  0.0792  0.2534  0.2394
 8709SOL    HW227548   6.783   7.149   5.222 -0.4273 -0.0396 -0.1765
 8710SOL     OW27549   6.691   3.098   1.190 -0.4239  0.0121 -0.6629
 8710SOL    HW127550   6.630   3.120   1.119 -1.2207 -0.0716 -0.0180
 8710SOL    HW227551   6.673   3.005   1.209 -2.2187  0.7117  1.5032
 8711SOL     OW27552   2.240   1.501   3.274 -0.3462 -0.1151  0.2485
 8711SOL    HW127553   2.200   1.494   3.187  1.6157 -1.4347 -0.5975
 8711SOL    HW227554   2.268   1.592   3.280  0.0712 -0.1683 -0.7647
 8712SOL     OW27555   4.372   2.951   3.540  0.1470 -0.7699 -0.2268
 8712SOL    HW127556   4.421   2.937   3.621  1.2890 -0.5550 -0.8548
 8712SOL    HW227557   4.379   3.046   3.525  0.1748 -0.8495 -0.7128
 8713SOL     OW27558   4.394   2.332   1.891 -0.2172  0.4288  0.4529
 8713SOL    HW127559   4.401   2.403   1.827 -0.7157 -0.3616 -0.5020
 8713SOL    HW227560   4.311   2.349   1.936 -0.1402  0.6718  0.5079
 8714SOL     OW27561   1.077   5.748   6.786  0.2833  0.1182 -0.1687
 8714SOL    HW127562   1.057   5.791   6.703 -0.8649  0.0286  0.0493
 8714SOL    HW227563   1.008   5.682   6.796 -0.0212  0.6026  1.1944
 8715SOL     OW27564   5.604   6.518   7.993  0.6455  0.0782  0.1190
 8715SOL    HW127565   5.633   6.427   7.989 -0.4150 -0.2636 -0.3851
 8715SOL    HW227566   5.607   6.547   7.902  2.1253  0.9482  0.4191
 8716SOL     OW27567   7.073   6.389   1.126  0.2753 -0.1981  0.1551
 8716SOL    HW127568   7.069   6.485   1.133 -1.6582 -0.1986 -0.4581
 8716SOL    HW227569   7.089   6.359   1.215 -0.0948  0.6673  0.5242
 8717SOL     OW27570   7.778   7.760   1.315 -0.4833 -0.1595 -0.3510
 8717SOL    HW127571   7.713   7.803   1.370 -1.0889 -0.3947 -0.8787
 8717SOL    HW227572   7.854   7.819   1.318 -0.7727  0.1963  0.1331
 8718SOL     OW27573   7.576   1.203   6.431 -0.5381  0.3587  0.0343
 8718SOL    HW127574   7.520   1.209   6.508 -0.1907  2.3702  0.1866
 8718SOL    HW227575   7.539   1.265   6.369 -0.3823 -0.7006 -1.1659
 8719SOL     OW27576   8.009   7.919   2.712 -0.6259  0.3562 -0.2546
 8719SOL    HW127577   7.915   7.913   2.727 -0.3497  0.8781  2.0869
 8719SOL    HW227578   8.039   7.828   2.705 -1.4126  0.2024 -2.1919
 8720SOL     OW27579   1.473   3.939   0.442  0.0087 -0.2405 -0.4145
 8720SOL    HW127580   1.436   3.851   0.449  0.8794 -0.6413 -0.7250
 8720SOL    HW227581   1.480   3.954   0.348  4.4882 -1.9044 -0.5878
 8721SOL     OW27582   2.012   8.071   5.464  0.1216  0.2415 -0.6867
 8721SOL    HW127583   2.107   8.076   5.449  0.8467 -1.1431  2.5184
 8721SOL    HW227584   1.998   8.125   5.542 -1.4388 -0.7738 -0.2252
 8722SOL     OW27585   7.857   5.192   2.823  0.2097  0.3742 -0.3136
 8722SOL    HW127586   7.842   5.256   2.754  0.8436  0.8105 -0.0627
 8722SOL    HW227587   7.849   5.242   2.904 -1.0348 -0.2349 -0.0405
 8723SOL     OW27588   6.980   8.027   5.199  0.5622 -0.4667  0.2149
 8723SOL    HW127589   7.032   8.069   5.268  0.8096  0.0304 -0.2612
 8723SOL    HW227590   7.035   8.033   5.121 -0.7968  1.5031 -0.6923
 8724SOL     OW27591   7.412   3.299   2.894  0.3849  0.5218 -0.5341
 8724SOL    HW127592   7.349   3.370   2.902 -0.2649  0.0340 -1.1751
 8724SOL    HW227593   7.425   3.290   2.799  0.2914 -0.3486 -0.4717
 8725SOL     OW27594   4.774   1.162   3.297 -0.0334  0.4996 -0.6731
 8725SOL    HW127595   4.824   1.239   3.327 -1.4922  1.3056 -0.2025
 8725SOL    HW227596   4.684   1.183   3.320 -0.4585 -1.3947 -0.5320
 8726SOL     OW27597   2.920   4.842   7.145  0.1862 -0.3864 -0.2315
 8726SOL    HW127598   2.954   4.920   7.100  1.2899 -1.1429 -0.7584
 8726SOL    HW227599   2.918   4.867   7.237 -0.2250  0.5278 -0.4788
 8727SOL     OW27600   0.800   0.667   4.080  0.7639 -0.2834 -0.4337
 8727SOL    HW127601   0.875   0.668   4.141 -0.2606 -3.2907  1.0586
 8727SOL    HW227602   0.839   0.649   3.995  1.8366 -0.8867  0.1612
 8728SOL     OW27603   5.963   0.531   1.353 -0.5983 -0.4018 -0.0834
 8728SOL    HW127604   5.990   0.457   1.407 -0.4840  0.6624  1.4204
 8728SOL    HW227605   5.940   0.494   1.268  1.0266 -1.9283  0.1097
 8729SOL     OW27606   2.513   3.923   0.456  0.1884 -0.4517  0.1696
 8729SOL    HW127607   2.483   3.891   0.541 -1.2015 -0.3551 -0.2538
 8729SOL    HW227608   2.602   3.954   0.472 -0.1539 -0.1552  1.6606
 8730SOL     OW27609   2.585   1.356   6.028  0.0014  0.3399 -0.3464
 8730SOL    HW127610   2.563   1.313   5.946 -0.5861  0.4761 -0.2668
 8730SOL    HW227611   2.640   1.430   6.002  1.5581 -0.7893 -0.4306
 8731SOL     OW27612   0.300   7.411   7.600 -0.1296 -0.1710  0.1225
 8731SOL    HW127613   0.218   7.365   7.582  0.5425 -0.9497 -1.1110
 8731SOL    HW227614   0.274   7.500   7.622 -1.4124 -0.8644  1.5726
 8732SOL     OW27615   0.306   2.523   4.724  0.1141 -0.2304  0.4430
 8732SOL    HW127616   0.367   2.449   4.728 -0.4217 -0.7516 -0.6509
 8732SOL    HW227617   0.354   2.595   4.766  1.1358 -0.8525  0.3966
 8733SOL     OW27618   2.131   2.195   4.351 -0.2266  0.7405 -0.2604
 8733SOL    HW127619   2.134   2.276   4.301 -2.7722  1.0898  0.0402
 8733SOL    HW227620   2.155   2.127   4.287  0.5433  1.5618 -0.8747
 8734SOL     OW27621   0.990   2.753   8.275 -0.4967  0.6252 -0.6163
 8734SOL    HW127622   1.073   2.736   8.232 -0.0097 -0.3064  0.6227
 8734SOL    HW227623   0.927   2.696   8.230 -0.6215  1.7907 -1.9623
 8735SOL     OW27624   4.725   6.487   0.174  0.2454 -0.0317  0.0983
 8735SOL    HW127625   4.711   6.440   0.091  0.1669  1.4674 -0.7773
 8735SOL    HW227626   4.653   6.459   0.230 -0.7693  0.2742 -0.9895
 8736SOL     OW27627   4.126   6.215   7.372  0.3831  0.0365  0.0625
 8736SOL    HW127628   4.164   6.136   7.333  0.2257 -0.5530  1.0753
 8736SOL    HW227629   4.061   6.182   7.434 -0.7256  1.0046 -0.5601
 8737SOL     OW27630   3.163   1.807   5.308 -0.1289  0.0673 -0.0932
 8737SOL    HW127631   3.102   1.846   5.371 -0.8421 -0.8744 -0.1848
 8737SOL    HW227632   3.220   1.752   5.360 -0.5629 -0.5190 -0.2201
 8738SOL     OW27633   8.369   7.276   3.824 -0.0039  0.0857 -0.1853
 8738SOL    HW127634   8.316   7.272   3.904 -0.3476 -0.2081 -0.4238
 8738SOL    HW227635   8.305   7.281   3.753  0.3016  1.1469 -0.4090
 8739SOL     OW27636   7.066   1.434   3.545  0.0110 -0.1614  0.0694
 8739SOL    HW127637   7.004   1.368   3.574 -0.4544 -0.3727 -1.3222
 8739SOL    HW227638   7.023   1.476   3.470  1.3841 -0.0556 -0.6891
 8740SOL     OW27639   6.712   1.982   4.431 -0.0422 -0.3253 -0.4333
 8740SOL    HW127640   6.743   1.893   4.414  0.5690 -0.0922 -0.5670
 8740SOL    HW227641   6.792   2.033   4.448 -0.1082  0.7732 -2.9440
 8741SOL     OW27642   4.699   2.501   1.300 -0.0244  0.0426  0.3471
 8741SOL    HW127643   4.677   2.497   1.207  1.6714 -1.4874 -0.0442
 8741SOL    HW227644   4.670   2.416   1.335 -0.7533  0.6469  1.2669
 8742SOL     OW27645   1.261   6.628   2.525  0.1351  0.5926 -0.3190
 8742SOL    HW127646   1.318   6.688   2.573 -1.4364  1.0084  1.1247
 8742SOL    HW227647   1.261   6.548   2.577  0.0281  0.3044 -0.7532
 8743SOL     OW27648   7.684   1.770   3.661 -0.2006 -0.2534  0.1875
 8743SOL    HW127649   7.720   1.845   3.614  1.6574 -0.6334  0.9278
 8743SOL    HW227650   7.603   1.803   3.700 -1.1694  0.3888 -2.2323
 8744SOL     OW27651   7.681   2.329   7.204  0.0341  0.4173  0.1122
 8744SOL    HW127652   7.675   2.250   7.150 -0.5449 -0.1241  0.9416
 8744SOL    HW227653   7.643   2.303   7.288  0.8980  1.2508  0.7744
 8745SOL     OW27654   2.990   6.503   4.927  0.0779  0.1372 -0.0767
 8745SOL    HW127655   3.010   6.520   5.019 -2.5452  1.2034  0.3765
 8745SOL    HW227656   3.057   6.551   4.878  2.4663 -1.6898  1.1810
 8746SOL     OW27657   1.141   2.429   6.611  0.2043 -0.0127  0.5854
 8746SOL    HW127658   1.117   2.514   6.648 -2.2681 -0.7502  0.8290
 8746SOL    HW227659   1.067   2.372   6.631  0.8731 -1.6920 -1.3815
 8747SOL     OW27660   6.728   6.066   0.504 -0.6947  0.1362 -0.8082
 8747SOL    HW127661   6.802   6.121   0.527 -1.0448  0.8277 -1.2822
 8747SOL    HW227662   6.709   6.089   0.413  0.0777 -1.8479 -1.5242
 8748SOL     OW27663   2.280   0.627   7.090 -0.1488 -0.1242  0.3017
 8748SOL    HW127664   2.221   0.702   7.089  0.1900  0.1647  1.0352
 8748SOL    HW227665   2.238   0.562   7.034  0.0755  0.9938 -1.2174
 8749SOL     OW27666   1.782   6.934   2.623  0.6160 -0.3092  0.0487
 8749SOL    HW127667   1.777   6.845   2.657  0.6312 -2.2233 -4.3088
 8749SOL    HW227668   1.692   6.967   2.630 -0.4379 -2.4337 -2.1435
 8750SOL     OW27669   7.403   3.062   6.704  0.3166 -0.1761  0.3244
 8750SOL    HW127670   7.385   3.152   6.733  0.9389 -0.4245  1.5633
 8750SOL    HW227671   7.432   3.072   6.613  1.2786  0.9864  0.7293
 8751SOL     OW27672   6.095   4.092   3.082  0.2310  0.3626  0.2629
 8751SOL    HW127673   6.078   4.022   3.146  2.8346 -0.1948  0.4768
 8751SOL    HW227674   6.119   4.168   3.135 -1.8685  1.2753  0.0028
 8752SOL     OW27675   1.827   6.699   1.176  0.3003 -0.2282  0.2389
 8752SOL    HW127676   1.828   6.719   1.269 -1.2779  0.4031  0.1501
 8752SOL    HW227677   1.908   6.738   1.142 -0.0404  1.2382  1.0215
 8753SOL     OW27678   5.614   7.814   7.524 -0.7081 -0.5883  0.0118
 8753SOL    HW127679   5.689   7.869   7.500  1.1850 -2.5568  0.9995
 8753SOL    HW227680   5.596   7.762   7.446 -0.9304 -0.2212 -0.1799
 8754SOL     OW27681   1.264   1.000   4.653 -0.8325  0.0903 -0.3235
 8754SOL    HW127682   1.222   1.040   4.729  1.2317  2.4604 -0.3066
 8754SOL    HW227683   1.322   0.934   4.690  0.6625  1.6827  0.3172
 8755SOL     OW27684   6.816   4.215   3.357 -0.2067  0.2631 -0.0485
 8755SOL    HW127685   6.860   4.134   3.332  0.9731  1.4841 -2.2999
 8755SOL    HW227686   6.793   4.203   3.449 -0.2058 -2.6404 -0.3459
 8756SOL     OW27687   3.439   1.212   3.423  0.1122 -0.2394 -0.1421
 8756SOL    HW127688   3.487   1.242   3.501  0.1621  0.7432 -0.5282
 8756SOL    HW227689   3.352   1.251   3.433  0.1854  0.0687 -0.6728
 8757SOL     OW27690   2.886   2.881   6.671 -0.6343  0.1053 -0.6576
 8757SOL    HW127691   2.816   2.895   6.607 -1.3682 -3.0480 -0.7026
 8757SOL    HW227692   2.840   2.872   6.755 -0.1817 -0.6523 -0.4793
 8758SOL     OW27693   4.132   1.428   5.745  0.1284  0.0710 -0.2351
 8758SOL    HW127694   4.044   1.443   5.711  0.2646 -1.5056 -1.3838
 8758SOL    HW227695   4.121   1.359   5.812  0.6361 -1.2087 -1.4200
 8759SOL     OW27696   7.319   3.032   7.843 -0.0563 -0.3140 -0.0237
 8759SOL    HW127697   7.311   2.937   7.834  1.5334 -0.4459 -0.2719
 8759SOL    HW227698   7.368   3.059   7.765  0.0089  0.6311  0.3381
 8760SOL     OW27699   2.508   2.605   8.170  0.5371  0.5808  0.9974
 8760SOL    HW127700   2.528   2.592   8.077 -0.1304  0.7813  0.8196
 8760SOL    HW227701   2.521   2.699   8.185 -1.5076  0.9891  0.5441
 8761SOL     OW27702   1.619   1.094   0.156 -0.5645 -0.1664 -0.0194
 8761SOL    HW127703   1.686   1.158   0.132 -1.2106  0.9093  0.9179
 8761SOL    HW227704   1.544   1.116   0.100 -0.0127 -1.7375 -1.4915
 8762SOL     OW27705   8.323   8.356   4.002  0.5800 -0.2539 -0.1917
 8762SOL    HW127706   8.301   8.442   4.037 -1.5992 -1.2614  1.1434
 8762SOL    HW227707   8.335   8.301   4.080 -0.4008 -1.6669 -1.0013
 8763SOL     OW27708   1.737   1.411   2.935 -0.0244  0.0800  0.1291
 8763SOL    HW127709   1.702   1.322   2.935  2.8025 -1.1550 -1.0753
 8763SOL    HW227710   1.771   1.424   2.847  0.6467  1.9377  0.6163
 8764SOL     OW27711   3.094   3.453   7.088 -0.1726 -0.3937  0.2087
 8764SOL    HW127712   3.059   3.365   7.100 -0.7844 -0.0036  1.4398
 8764SOL    HW227713   3.184   3.439   7.058 -0.4482 -1.4208 -0.1812
 8765SOL     OW27714   0.159   2.497   5.955  0.5328 -0.5718 -0.0066
 8765SOL    HW127715   0.095   2.559   5.990  0.7257 -0.1116 -0.4532
 8765SOL    HW227716   0.106   2.426   5.917  0.3045 -0.5281  0.2308
 8766SOL     OW27717   6.135   0.585   7.777 -0.3840  0.4339  0.0258
 8766SOL    HW127718   6.157   0.674   7.752 -0.7818  0.9356  1.3725
 8766SOL    HW227719   6.185   0.530   7.717 -0.7426  1.5505 -1.3484
 8767SOL     OW27720   2.748   7.166   1.064  0.6537  0.1531 -1.0427
 8767SOL    HW127721   2.737   7.261   1.071  1.2778  0.2677 -1.5555
 8767SOL    HW227722   2.697   7.141   0.987 -0.5806 -0.1260 -0.1632
 8768SOL     OW27723   7.507   2.023   2.999  0.5306 -0.1345 -0.2445
 8768SOL    HW127724   7.544   2.111   3.001  0.8497 -0.2699 -0.1164
 8768SOL    HW227725   7.449   2.023   2.923  1.5064 -0.2085 -1.0096
 8769SOL     OW27726   4.930   0.126   0.090 -0.0263  0.2527 -0.6303
 8769SOL    HW127727   5.010   0.168   0.122  0.3724 -0.7474 -0.2572
 8769SOL    HW227728   4.859   0.182   0.121  0.4527  0.2977  0.4120
 8770SOL     OW27729   5.484   4.420   2.928  0.5009 -0.3676  0.0929
 8770SOL    HW127730   5.541   4.369   2.871  0.5248 -1.3696  0.9843
 8770SOL    HW227731   5.401   4.426   2.881  0.8524 -0.2552 -0.5159
 8771SOL     OW27732   1.529   0.552   2.168  0.1960 -0.5593 -0.5543
 8771SOL    HW127733   1.565   0.527   2.083 -1.0117  0.9790 -1.5781
 8771SOL    HW227734   1.447   0.503   2.175  2.1946 -3.9530  1.7111
 8772SOL     OW27735   8.174   0.779   6.295  0.3697  0.0749  0.2841
 8772SOL    HW127736   8.088   0.761   6.258  0.9923 -0.1490 -1.1380
 8772SOL    HW227737   8.216   0.837   6.231  1.1640  0.4513  1.1117
 8773SOL     OW27738   3.965   2.920   6.217  0.1566  0.1935  0.6365
 8773SOL    HW127739   3.950   2.882   6.304 -1.5046 -1.4245 -0.2847
 8773SOL    HW227740   3.982   3.013   6.234  1.9420 -0.4508  2.8165
 8774SOL     OW27741   2.220   0.402   5.508 -0.1630  0.0045 -0.8843
 8774SOL    HW127742   2.308   0.435   5.492 -0.3845  0.9943 -0.1268
 8774SOL    HW227743   2.165   0.449   5.446 -0.2039 -0.4620 -1.2123
 8775SOL     OW27744   5.595   3.903   1.210  0.0486  0.0097  1.0925
 8775SOL    HW127745   5.556   3.888   1.123 -0.3493 -2.5663  1.6293
 8775SOL    HW227746   5.625   3.994   1.207 -0.5789  0.2266 -1.4909
 8776SOL     OW27747   4.655   4.126   3.974  0.1023  0.0157  0.5570
 8776SOL    HW127748   4.626   4.198   3.919  0.1967 -0.3785 -0.0241
 8776SOL    HW227749   4.746   4.148   3.997  0.5606 -0.5220 -0.6736
 8777SOL     OW27750   3.504   0.690   1.734  0.3129  0.1962 -0.0985
 8777SOL    HW127751   3.584   0.741   1.722  0.7140  0.0681  1.6734
 8777SOL    HW227752   3.433   0.753   1.720  0.7909  1.2116  1.6866
 8778SOL     OW27753   5.256   4.008   4.680 -0.1181  0.6992  0.5775
 8778SOL    HW127754   5.243   4.103   4.676 -0.2846  0.7190  1.3424
 8778SOL    HW227755   5.282   3.983   4.591  0.5860  1.5554  0.5300
 8779SOL     OW27756   7.169   0.791   4.063  0.0639 -0.2127 -0.1185
 8779SOL    HW127757   7.217   0.873   4.069  0.3441 -0.4171  0.5586
 8779SOL    HW227758   7.236   0.723   4.062 -0.1731 -0.5699  2.0912
 8780SOL     OW27759   3.896   3.211   6.584 -0.4102 -0.3437 -0.1659
 8780SOL    HW127760   3.815   3.160   6.578 -0.2831 -0.5581 -0.0561
 8780SOL    HW227761   3.946   3.184   6.508 -0.5254 -0.0619 -0.3444
 8781SOL     OW27762   6.274   4.301   8.100  0.4846 -0.5605  0.0076
 8781SOL    HW127763   6.209   4.285   8.031  1.1114 -1.1207 -0.4582
 8781SOL    HW227764   6.249   4.240   8.170  1.4983 -2.0227 -0.8515
 8782SOL     OW27765   4.059   1.570   6.645 -0.4373 -0.6844  0.6162
 8782SOL    HW127766   3.995   1.503   6.623 -0.9901  0.4262 -1.4571
 8782SOL    HW227767   4.138   1.546   6.596  0.5731 -1.6719  2.6211
 8783SOL     OW27768   1.168   5.855   7.922  0.3477 -0.2832 -0.2026
 8783SOL    HW127769   1.096   5.852   7.985  1.0681  2.1458  0.8597
 8783SOL    HW227770   1.234   5.797   7.958  0.0678 -0.2565  0.3660
 8784SOL     OW27771   3.585   6.045   4.162 -0.4484 -0.3385  0.2988
 8784SOL    HW127772   3.575   5.962   4.114  0.5693 -0.4889  0.3148
 8784SOL    HW227773   3.668   6.034   4.209  0.0840  0.9934 -0.3017
 8785SOL     OW27774   7.594   4.380   3.969 -0.5015  0.3728  0.2238
 8785SOL    HW127775   7.585   4.319   4.042 -1.3000  0.0527 -0.1206
 8785SOL    HW227776   7.515   4.434   3.972  0.2187  1.4390  0.5472
 8786SOL     OW27777   0.743   1.449   7.027  0.8199 -0.0449  0.0394
 8786SOL    HW127778   0.652   1.470   7.047  0.6896 -1.9990  1.8794
 8786SOL    HW227779   0.741   1.411   6.939 -0.1784 -0.1864  0.1177
 8787SOL     OW27780   0.708   6.189   5.596 -0.9009  0.5794 -0.1305
 8787SOL    HW127781   0.650   6.265   5.586 -0.4543  1.0269  0.5761
 8787SOL    HW227782   0.779   6.205   5.535  0.7574  2.2786  2.0825
 8788SOL     OW27783   3.621   2.899   1.120 -0.0173  0.2662  0.2062
 8788SOL    HW127784   3.534   2.920   1.086  1.1398  3.0824 -1.3335
 8788SOL    HW227785   3.617   2.805   1.140 -2.6455 -0.2791 -2.2150
 8789SOL     OW27786   0.420   6.456   7.757  0.3049  0.4800  0.1950
 8789SOL    HW127787   0.354   6.395   7.791  1.0827  0.5760  1.9782
 8789SOL    HW227788   0.435   6.427   7.667 -1.7857  0.1473 -0.0895
 8790SOL     OW27789   2.700   7.362   7.696  0.4165  0.4779  0.5088
 8790SOL    HW127790   2.676   7.441   7.745 -2.1856  0.5516 -0.6874
 8790SOL    HW227791   2.727   7.393   7.610 -0.7018  0.0990  0.0008
 8791SOL     OW27792   7.592   6.440   7.757 -0.6401 -0.2370  0.0907
 8791SOL    HW127793   7.574   6.473   7.669  1.1725  0.7922  0.0487
 8791SOL    HW227794   7.506   6.421   7.794 -1.4341 -2.9676 -2.6951
 8792SOL     OW27795   1.847   0.692   0.810 -0.4298 -1.0685 -0.2174
 8792SOL    HW127796   1.765   0.679   0.763 -0.8502 -1.8931  0.7201
 8792SOL    HW227797   1.882   0.774   0.774 -2.0687 -0.2547 -0.0370
 8793SOL     OW27798   7.128   5.359   5.725  0.0680  0.0123  0.4114
 8793SOL    HW127799   7.120   5.340   5.632 -0.2460  1.5708  0.0894
 8793SOL    HW227800   7.220   5.344   5.745  0.2639  0.2453 -0.2846
 8794SOL     OW27801   3.764   5.630   7.986  0.3349 -0.0562 -0.0081
 8794SOL    HW127802   3.847   5.675   7.969  0.6543 -1.1151 -1.4367
 8794SOL    HW227803   3.741   5.655   8.075  2.2062  0.2568  0.4264
 8795SOL     OW27804   1.195   6.230   4.024  0.1484 -0.3461 -0.3979
 8795SOL    HW127805   1.113   6.197   3.986  0.3097 -1.3186  0.0616
 8795SOL    HW227806   1.253   6.154   4.024  0.1721 -0.3854  1.7236
 8796SOL     OW27807   6.846   3.893   8.300 -0.1017  0.0255  0.3812
 8796SOL    HW127808   6.779   3.952   8.333 -0.9525 -0.2228 -0.8249
 8796SOL    HW227809   6.797   3.827   8.251  1.1102  0.8440 -2.0793
 8797SOL     OW27810   4.055   0.766   0.643  0.2352 -0.3060  0.0208
 8797SOL    HW127811   4.018   0.840   0.691  0.5428 -0.2912  0.2406
 8797SOL    HW227812   3.987   0.699   0.645 -0.5539  0.4141 -1.2607
 8798SOL     OW27813   3.613   1.660   7.699  0.2639 -0.4678 -0.4556
 8798SOL    HW127814   3.535   1.709   7.724 -0.7173 -1.3022 -1.7229
 8798SOL    HW227815   3.578   1.578   7.663  1.7881 -1.4596  0.2420
 8799SOL     OW27816   6.060   0.860   0.181  0.3992  0.4952  0.0472
 8799SOL    HW127817   6.098   0.854   0.269  1.3765 -1.5334 -0.4588
 8799SOL    HW227818   5.970   0.888   0.196  0.4803 -0.0435  1.7286
 8800SOL     OW27819   7.430   6.442   0.797  0.0102  0.2678 -0.8254
 8800SOL    HW127820   7.494   6.372   0.785  0.1725  0.3993 -0.7109
 8800SOL    HW227821   7.460   6.490   0.873 -1.2180 -0.7640  0.3583
 8801SOL     OW27822   0.125   3.618   7.195  0.4480 -0.8284  0.2086
 8801SOL    HW127823   0.058   3.563   7.152  0.4129  0.0339 -0.8770
 8801SOL    HW227824   0.089   3.635   7.282 -0.5438 -0.7757 -0.1901
 8802SOL     OW27825   2.578   1.512   1.915  0.0866 -0.2591  0.1393
 8802SOL    HW127826   2.576   1.597   1.960 -0.1007 -0.7188  1.0322
 8802SOL    HW227827   2.554   1.532   1.825 -0.0292  0.6283  0.3537
 8803SOL     OW27828   8.366   3.357   1.238  0.1582 -0.0049 -0.2681
 8803SOL    HW127829   8.359   3.280   1.182 -0.8618 -0.4211  0.4155
 8803SOL    HW227830   8.387   3.322   1.325 -0.1891  0.4900  0.0217
 8804SOL     OW27831   3.022   2.817   7.005  0.0999 -0.1678 -0.6695
 8804SOL    HW127832   3.033   2.875   6.929  0.5108  1.9410  0.9335
 8804SOL    HW227833   3.110   2.804   7.039 -0.2984  1.0861  0.9605
 8805SOL     OW27834   8.300   7.215   2.095  0.2036 -0.3622  0.2100
 8805SOL    HW127835   8.313   7.304   2.062  0.4887 -0.5066 -0.0626
 8805SOL    HW227836   8.223   7.222   2.152  0.5186  0.1610  0.5746
 8806SOL     OW27837   4.079   3.608   5.490  0.0433  0.1239 -0.0007
 8806SOL    HW127838   4.042   3.520   5.477 -0.1651 -0.0223  1.3390
 8806SOL    HW227839   4.161   3.593   5.536  0.4566  0.5920 -0.5778
 8807SOL     OW27840   2.232   4.437   3.925  0.7217  0.2559 -0.5482
 8807SOL    HW127841   2.154   4.389   3.952  0.0748  1.3267 -0.4777
 8807SOL    HW227842   2.232   4.431   3.830 -0.3071  1.5367 -0.6502
 8808SOL     OW27843   6.234   5.567   7.433 -0.0833  0.1552  0.3741
 8808SOL    HW127844   6.304   5.508   7.406  1.6707  1.6654  1.3963
 8808SOL    HW227845   6.212   5.539   7.522  0.1443  0.4868  0.5359
 8809SOL     OW27846   1.027   2.773   6.403  0.1331 -0.4798  0.3608
 8809SOL    HW127847   1.049   2.757   6.495 -0.1780  0.7183  0.6704
 8809SOL    HW227848   0.950   2.829   6.407  1.1854  1.1272 -0.5806
 8810SOL     OW27849   2.288   7.580   0.603 -0.1388  0.3322  0.1878
 8810SOL    HW127850   2.327   7.622   0.526  0.3979 -0.1182  0.2029
 8810SOL    HW227851   2.348   7.508   0.623 -0.5666  0.1151  0.7011
 8811SOL     OW27852   4.848   2.779   4.467  1.0102  0.0934  0.6046
 8811SOL    HW127853   4.898   2.841   4.413 -1.4679  0.3911 -1.5473
 8811SOL    HW227854   4.871   2.693   4.432  1.0453  0.1350  0.5252
 8812SOL     OW27855   6.608   1.832   2.362 -0.2729  0.1448 -0.2928
 8812SOL    HW127856   6.648   1.898   2.306 -1.2251 -0.2752 -1.4945
 8812SOL    HW227857   6.546   1.786   2.306 -1.4444 -0.1360  1.1664
 8813SOL     OW27858   3.312   1.734   8.026 -0.4981 -0.2608  0.2296
 8813SOL    HW127859   3.334   1.733   8.119  0.3927 -0.7418  0.0339
 8813SOL    HW227860   3.295   1.642   8.005  2.8532 -0.8092 -0.8181
 8814SOL     OW27861   2.654   1.509   3.585  0.0065  0.5761 -0.0667
 8814SOL    HW127862   2.605   1.427   3.590 -0.1754  0.7444  2.6195
 8814SOL    HW227863   2.742   1.483   3.558  0.0730 -0.5889  1.1783
 8815SOL     OW27864   3.059   7.475   0.659  0.4468 -0.2041  0.3170
 8815SOL    HW127865   3.048   7.384   0.631 -0.6365 -0.6571  2.0293
 8815SOL    HW227866   3.034   7.475   0.752 -1.0951  2.1283 -0.0009
 8816SOL     OW27867   0.316   0.176   3.496 -0.2253  0.1712  0.2115
 8816SOL    HW127868   0.269   0.258   3.511  0.2638  0.3125  1.0171
 8816SOL    HW227869   0.314   0.164   3.401  0.0736  1.3390  0.0463
 8817SOL     OW27870   7.390   1.625   5.453 -0.1384  0.5781 -0.2886
 8817SOL    HW127871   7.399   1.570   5.374  1.6178  1.7413 -0.9673
 8817SOL    HW227872   7.327   1.692   5.428  0.3010  0.8555 -0.6677
 8818SOL     OW27873   5.638   2.387   8.190  1.1494  0.5553  0.4379
 8818SOL    HW127874   5.543   2.375   8.199  1.1234  1.0322  0.8726
 8818SOL    HW227875   5.648   2.477   8.160  1.5238  1.1273  2.1647
 8819SOL     OW27876   1.938   1.494   1.365  0.3071  0.3315 -0.1827
 8819SOL    HW127877   1.977   1.480   1.451 -0.0298 -1.9547 -0.3308
 8819SOL    HW227878   1.916   1.587   1.363  3.5573  1.2400  0.7909
 8820SOL     OW27879   4.460   4.675   6.304  0.4142 -0.6076 -0.3504
 8820SOL    HW127880   4.497   4.745   6.357  0.6782 -1.1813  0.2365
 8820SOL    HW227881   4.458   4.710   6.215 -0.8490  0.6935  0.1491
 8821SOL     OW27882   4.038   2.384   1.098 -0.0017  0.3160  0.0891
 8821SOL    HW127883   4.026   2.342   1.184  3.5729 -1.2984 -0.0464
 8821SOL    HW227884   4.078   2.469   1.118 -0.4325  0.5328  0.0469
 8822SOL     OW27885   0.723   4.510   1.021  0.3793 -0.0097 -0.0695
 8822SOL    HW127886   0.715   4.589   0.967  0.8758 -0.0988 -0.2793
 8822SOL    HW227887   0.640   4.465   1.010 -0.2732  0.9340  0.7844
 8823SOL     OW27888   5.181   4.686   3.946 -0.3775 -0.6105 -0.2036
 8823SOL    HW127889   5.115   4.738   3.901 -2.3228 -1.7030  1.2152
 8823SOL    HW227890   5.138   4.658   4.027  1.9036 -1.2516  0.8604
 8824SOL     OW27891   0.883   6.287   2.258 -0.4708 -0.4503 -0.3242
 8824SOL    HW127892   0.897   6.342   2.334 -0.7703 -0.5257 -0.2144
 8824SOL    HW227893   0.788   6.275   2.253 -0.6000  0.7624 -1.5540
 8825SOL     OW27894   5.772   2.904   2.502 -0.0077 -0.1411  0.4332
 8825SOL    HW127895   5.798   2.945   2.585  0.3130  0.7973 -0.1206
 8825SOL    HW227896   5.832   2.830   2.492  0.6778  0.4025  0.4914
 8826SOL     OW27897   1.106   7.504   0.737  0.4243 -0.1168  0.0773
 8826SOL    HW127898   1.059   7.579   0.773  0.5352 -1.0200  2.2813
 8826SOL    HW227899   1.037   7.444   0.707  0.2473 -0.1434  0.5255
 8827SOL     OW27900   0.418   4.744   0.829  0.0699 -0.1226 -0.5177
 8827SOL    HW127901   0.335   4.749   0.782  0.8194  0.8803 -1.7924
 8827SOL    HW227902   0.452   4.833   0.830  1.8147 -0.7204 -1.3390
 8828SOL     OW27903   6.954   1.563   5.154 -0.0071  0.5187 -0.5326
 8828SOL    HW127904   6.936   1.541   5.062  0.3358  0.1996 -0.5264
 8828SOL    HW227905   6.890   1.512   5.203 -0.0760  0.5553 -0.5832
 8829SOL     OW27906   3.895   3.682   7.493 -0.1075 -0.4695 -1.0073
 8829SOL    HW127907   3.843   3.627   7.434  0.6540 -0.4870 -1.6753
 8829SOL    HW227908   3.971   3.707   7.441  0.4125 -0.2121 -0.1311
 8830SOL     OW27909   8.018   6.031   1.009 -0.2892 -0.6153  0.1285
 8830SOL    HW127910   7.964   5.988   0.943  0.0205  0.1055 -0.6082
 8830SOL    HW227911   8.003   6.124   0.995  0.5193 -0.4283  0.4503
 8831SOL     OW27912   2.449   1.895   7.698  0.0867  0.0823 -0.3858
 8831SOL    HW127913   2.510   1.930   7.763  0.5389  0.0676 -0.7994
 8831SOL    HW227914   2.391   1.838   7.748 -0.2209  0.8759  0.1819
 8832SOL     OW27915   2.071   4.306   3.315  0.2342 -0.5874 -0.0173
 8832SOL    HW127916   2.161   4.286   3.339  0.2820 -0.3955 -0.0344
 8832SOL    HW227917   2.033   4.344   3.395  1.0795  2.3396 -0.8683
 8833SOL     OW27918   6.081   7.303   0.218 -0.0375 -0.3864  0.1855
 8833SOL    HW127919   6.101   7.344   0.302  0.1090 -2.2778  1.1263
 8833SOL    HW227920   6.094   7.372   0.153  0.8859  0.8227  1.6167
 8834SOL     OW27921   6.479   1.745   8.117  0.3836 -0.8283  0.1651
 8834SOL    HW127922   6.558   1.797   8.128  1.2103 -2.4200  2.6299
 8834SOL    HW227923   6.508   1.654   8.126 -1.2884 -1.6970 -2.0966
 8835SOL     OW27924   5.374   6.804   1.200 -0.2537 -0.1143 -0.3099
 8835SOL    HW127925   5.349   6.790   1.291  0.0932 -1.0328 -0.3492
 8835SOL    HW227926   5.303   6.857   1.164 -0.9546 -0.6747  0.2103
 8836SOL     OW27927   3.899   4.806   2.952  0.4646  0.0792 -0.0457
 8836SOL    HW127928   3.959   4.824   2.880  0.8750 -0.0489  0.2640
 8836SOL    HW227929   3.812   4.820   2.915  0.6771  0.0273 -0.5621
 8837SOL     OW27930   5.248   6.585   5.394 -0.2095  0.5125  0.4329
 8837SOL    HW127931   5.224   6.536   5.315  0.8610 -1.3520  1.1997
 8837SOL    HW227932   5.164   6.606   5.435 -0.7052 -1.3737  0.4501
 8838SOL     OW27933   3.754   0.180   0.741  0.1715  0.4627 -0.0731
 8838SOL    HW127934   3.794   0.147   0.822 -0.7984 -1.1928 -0.2435
 8838SOL    HW227935   3.661   0.157   0.749  0.4336 -1.8680 -2.6708
 8839SOL     OW27936   4.068   2.722   0.850 -0.2585 -0.0302 -0.4162
 8839SOL    HW127937   4.040   2.778   0.922 -0.7423  0.7814 -1.2188
 8839SOL    HW227938   4.131   2.662   0.889 -0.4406  0.4612  0.6570
 8840SOL     OW27939   7.190   3.896   7.499 -0.3436  0.0753  0.3382
 8840SOL    HW127940   7.230   3.813   7.475  1.9352  0.8521  1.2027
 8840SOL    HW227941   7.154   3.882   7.586 -1.6991 -0.5152 -0.2871
 8841SOL     OW27942   5.018   8.289   8.007  0.0737  0.5500  0.1585
 8841SOL    HW127943   4.933   8.286   7.962  1.2129  0.4465 -2.1393
 8841SOL    HW227944   5.015   8.369   8.059 -1.5586  0.3476  0.4348
 8842SOL     OW27945   1.115   0.319   0.953  0.1238  0.2697 -0.0485
 8842SOL    HW127946   1.098   0.283   1.040  0.1083 -2.6563 -1.1468
 8842SOL    HW227947   1.150   0.246   0.903 -0.5599  1.6354 -2.7333
 8843SOL     OW27948   6.696   5.128   5.102  0.0933  0.3304  0.1090
 8843SOL    HW127949   6.653   5.204   5.061  0.8684  1.0030  0.5098
 8843SOL    HW227950   6.669   5.132   5.193  0.5573  0.4357  0.2444
 8844SOL     OW27951   2.685   2.285   3.550  0.4364  0.1368 -0.5799
 8844SOL    HW127952   2.705   2.249   3.637  0.3331  0.0812 -0.5787
 8844SOL    HW227953   2.766   2.326   3.522  0.3895  0.4033 -0.3348
 8845SOL     OW27954   5.646   4.111   6.480 -0.4534 -0.4203  0.7984
 8845SOL    HW127955   5.614   4.199   6.463  1.0856  0.0846  0.3857
 8845SOL    HW227956   5.723   4.123   6.536  1.4405 -1.2153 -1.4374
 8846SOL     OW27957   2.080   4.064   2.862  0.3675 -0.0952 -0.2536
 8846SOL    HW127958   2.139   4.115   2.807  0.7471 -1.1249 -0.8324
 8846SOL    HW227959   2.060   4.122   2.935 -1.2805  1.8806 -2.1140
 8847SOL     OW27960   3.437   2.514   8.094  0.2739  0.5262  0.0470
 8847SOL    HW127961   3.375   2.462   8.044  0.9881 -1.7762  1.3976
 8847SOL    HW227962   3.512   2.527   8.035  0.4445 -0.7624 -0.0408
 8848SOL     OW27963   6.731   3.128   3.547 -0.1447  0.3330  0.4035
 8848SOL    HW127964   6.709   3.146   3.455  0.7539  1.5084  0.3911
 8848SOL    HW227965   6.826   3.119   3.547 -0.0704  0.9987  1.3138
 8849SOL     OW27966   3.637   5.870   2.869 -0.6205 -0.4174  0.1292
 8849SOL    HW127967   3.670   5.812   2.938 -0.4006 -1.5281 -0.8820
 8849SOL    HW227968   3.550   5.837   2.850 -0.4134 -0.5458 -0.5982
 8850SOL     OW27969   2.976   3.346   5.157  0.1576  0.1702  0.1498
 8850SOL    HW127970   3.002   3.303   5.075  0.5345  1.1687 -0.2620
 8850SOL    HW227971   2.951   3.434   5.132 -2.6117 -0.3607  0.6941
 8851SOL     OW27972   1.755   2.234   1.080 -0.4432  0.3475  0.3597
 8851SOL    HW127973   1.791   2.242   1.169  0.3643 -0.7939  0.1606
 8851SOL    HW227974   1.709   2.317   1.065 -1.9797 -0.0753  2.4308
 8852SOL     OW27975   8.193   3.678   3.513  0.0523 -0.2137  0.3853
 8852SOL    HW127976   8.245   3.600   3.494  1.8842  0.7922  0.9459
 8852SOL    HW227977   8.204   3.733   3.435  0.6321  0.3899  0.8772
 8853SOL     OW27978   0.341   5.366   3.672 -0.0292 -0.4928 -0.4626
 8853SOL    HW127979   0.382   5.335   3.591  0.2105  0.7506 -0.8420
 8853SOL    HW227980   0.396   5.330   3.741  0.3569 -0.7333 -0.8858
 8854SOL     OW27981   3.285   5.835   1.734  0.5651 -0.1769  0.0720
 8854SOL    HW127982   3.282   5.753   1.685 -0.6005  0.5419 -1.1260
 8854SOL    HW227983   3.360   5.882   1.698  1.1537 -0.6361  0.6675
 8855SOL     OW27984   6.244   4.064   2.619  0.1023  0.0125 -0.0342
 8855SOL    HW127985   6.302   3.991   2.599  0.2651 -0.2686  1.3748
 8855SOL    HW227986   6.291   4.141   2.587  0.6809 -0.3297 -0.0280
 8856SOL     OW27987   8.190   0.777   5.722  0.3632 -0.3438  0.3710
 8856SOL    HW127988   8.114   0.789   5.779  0.1808 -0.1816  0.1036
 8856SOL    HW227989   8.264   0.809   5.772 -0.0460  1.5931 -0.1588
 8857SOL     OW27990   5.328   5.295   0.074  0.1470 -0.0965  0.3834
 8857SOL    HW127991   5.310   5.256   0.160  1.5989  0.2709  0.8900
 8857SOL    HW227992   5.252   5.350   0.056  0.7518  1.5617  2.4892
 8858SOL     OW27993   6.025   2.265   2.552 -0.1073  0.5133  0.0521
 8858SOL    HW127994   6.026   2.296   2.643 -0.7060 -1.6523  0.8495
 8858SOL    HW227995   6.105   2.214   2.543 -0.7144 -0.4064 -0.2070
 8859SOL     OW27996   2.390   5.814   3.095 -0.0880 -0.9154 -0.3914
 8859SOL    HW127997   2.413   5.855   3.178 -1.0083  1.5610 -1.2626
 8859SOL    HW227998   2.388   5.720   3.114 -1.1994 -0.3894  2.6376
 8860SOL     OW27999   5.948   1.114   1.352 -0.1657  0.1084  0.2938
 8860SOL    HW128000   5.925   1.193   1.400 -2.9064 -0.8719  0.8169
 8860SOL    HW228001   5.863   1.072   1.333  0.9738 -1.0811 -2.8054
 8861SOL     OW28002   1.323   0.137   7.337 -0.3118  0.0822 -0.1025
 8861SOL    HW128003   1.418   0.131   7.331 -0.3857 -1.7976 -0.0088
 8861SOL    HW228004   1.306   0.164   7.427  0.1158 -0.9477  0.2969
 8862SOL     OW28005   1.240   2.589   3.505 -0.0326 -0.3843  0.1047
 8862SOL    HW128006   1.287   2.506   3.500  0.7318  0.0216  0.4603
 8862SOL    HW228007   1.276   2.633   3.582  0.4131  0.7859 -0.7441
 8863SOL     OW28008   2.175   3.585   8.076  0.4806 -0.0422  0.1147
 8863SOL    HW128009   2.178   3.651   8.007 -0.9762  0.0240  0.0997
 8863SOL    HW228010   2.164   3.502   8.029 -0.6778  0.0189  0.2487
 8864SOL     OW28011   8.275   1.901   0.866  0.5835 -0.4919 -0.1647
 8864SOL    HW128012   8.329   1.955   0.807  2.4486 -2.4598 -0.4027
 8864SOL    HW228013   8.269   1.816   0.822 -0.9682 -0.9730  0.8900
 8865SOL     OW28014   7.649   2.842   7.370  0.1703 -0.2078 -0.3978
 8865SOL    HW128015   7.556   2.865   7.370 -0.1553 -1.3575 -1.6829
 8865SOL    HW228016   7.652   2.755   7.330  1.7511 -0.4579  0.1831
 8866SOL     OW28017   8.325   1.997   1.549  0.1106  0.1149  0.7669
 8866SOL    HW128018   8.253   2.056   1.527  0.7234  0.1084 -1.5858
 8866SOL    HW228019   8.403   2.053   1.544  0.5298 -0.4996  0.2984
 8867SOL     OW28020   4.713   7.448   1.301 -0.2288 -0.1032 -0.3710
 8867SOL    HW128021   4.672   7.371   1.262 -1.1227 -0.3299  0.9410
 8867SOL    HW228022   4.801   7.449   1.265 -0.8818 -0.4773 -2.1037
 8868SOL     OW28023   7.116   0.391   0.689 -0.2069  0.1794  0.1135
 8868SOL    HW128024   7.161   0.474   0.707 -0.1086 -0.4370  3.1918
 8868SOL    HW228025   7.131   0.376   0.596  2.8593  1.8299  0.1976
 8869SOL     OW28026   2.182   3.714   2.679  0.2831  0.0744  0.1627
 8869SOL    HW128027   2.252   3.777   2.660 -0.4720  0.8316 -0.1696
 8869SOL    HW228028   2.106   3.768   2.700 -0.8479 -0.6559 -1.7594
 8870SOL     OW28029   4.229   8.339   5.301  0.0376 -0.5392 -0.9592
 8870SOL    HW128030   4.148   8.294   5.277 -0.2835 -0.0387 -0.8265
 8870SOL    HW228031   4.299   8.279   5.275 -0.4188 -2.0991  1.2025
 8871SOL     OW28032   0.827   6.156   8.035 -0.6189  0.4900 -0.1193
 8871SOL    HW128033   0.805   6.077   7.985 -2.9463  1.5552 -0.9246
 8871SOL    HW228034   0.886   6.205   7.978  0.6644 -0.5173  0.2945
 8872SOL     OW28035   6.062   0.433   6.228  0.0981 -0.3227  0.3041
 8872SOL    HW128036   6.133   0.429   6.292 -0.6953 -1.5320  1.1522
 8872SOL    HW228037   6.008   0.507   6.256  0.5401  0.0637  0.1560
 8873SOL     OW28038   0.506   6.991   3.599  0.0033  0.0316 -0.2566
 8873SOL    HW128039   0.546   7.065   3.554  0.5181 -0.7921 -1.1876
 8873SOL    HW228040   0.527   6.915   3.545  1.2245 -1.1162  1.6675
 8874SOL     OW28041   6.916   4.975   5.372  0.1125 -0.3325 -0.4208
 8874SOL    HW128042   6.845   5.015   5.424  1.2627  0.5842  0.5033
 8874SOL    HW228043   6.890   4.883   5.364 -0.8609 -0.1630  0.4699
 8875SOL     OW28044   5.784   5.865   6.398 -0.6087  0.5727  0.4008
 8875SOL    HW128045   5.853   5.800   6.387 -0.3593  1.1590 -1.9522
 8875SOL    HW228046   5.827   5.937   6.444  0.7054  1.3152 -1.8232
 8876SOL     OW28047   4.912   1.704   6.530 -0.1966 -0.4422 -0.2790
 8876SOL    HW128048   4.861   1.761   6.472 -0.0363 -0.2404 -0.2237
 8876SOL    HW228049   4.930   1.758   6.607 -0.7211 -0.8268  0.1222
 8877SOL     OW28050   2.632   0.751   6.780  0.1561  0.4328 -0.4000
 8877SOL    HW128051   2.683   0.793   6.711 -2.4684  0.1628 -2.6747
 8877SOL    HW228052   2.542   0.781   6.766 -0.5438  0.3048  2.9315
 8878SOL     OW28053   4.200   5.537   1.612 -0.9068 -0.9434  0.1156
 8878SOL    HW128054   4.239   5.624   1.620  1.4849 -1.9115 -0.0944
 8878SOL    HW228055   4.181   5.511   1.702  0.1241 -0.9042  0.3584
 8879SOL     OW28056   3.904   2.321   0.864 -0.3980 -0.2114 -0.0078
 8879SOL    HW128057   3.949   2.318   0.949  0.2945 -0.3323 -0.3674
 8879SOL    HW228058   3.820   2.277   0.879 -0.6151  0.4649  0.8046
 8880SOL     OW28059   2.645   6.579   5.126  0.3545  0.5784  0.0369
 8880SOL    HW128060   2.684   6.526   5.194 -1.2481 -0.6255  0.0843
 8880SOL    HW228061   2.717   6.601   5.067  1.0383 -1.8616 -0.1107
 8881SOL     OW28062   1.977   5.591   2.076 -0.0475  0.4668  0.2688
 8881SOL    HW128063   2.071   5.572   2.076 -0.1125  0.0760  1.3937
 8881SOL    HW228064   1.957   5.614   2.167 -1.1781 -0.1605  0.1951
 8882SOL     OW28065   5.464   1.991   0.901 -0.5131 -0.2109 -0.7527
 8882SOL    HW128066   5.546   1.943   0.916 -0.2680  0.3522 -0.2631
 8882SOL    HW228067   5.491   2.080   0.881 -1.0163  1.0446  3.2182
 8883SOL     OW28068   3.219   5.855   6.050  0.0722 -0.1269  0.4961
 8883SOL    HW128069   3.247   5.774   6.006 -0.8991 -0.4632  0.4807
 8883SOL    HW228070   3.281   5.866   6.122  1.8086  0.5126 -1.0047
 8884SOL     OW28071   8.094   8.343   7.897  0.4717 -0.0811  0.0770
 8884SOL    HW128072   8.131   8.408   7.838 -1.0955 -0.0278 -0.9139
 8884SOL    HW228073   7.999   8.353   7.888  0.1802 -0.6028  2.0449
 8885SOL     OW28074   5.855   7.548   6.500 -0.1602 -0.6827 -0.3823
 8885SOL    HW128075   5.851   7.590   6.413  1.3134 -0.7132 -0.5027
 8885SOL    HW228076   5.797   7.472   6.493 -3.7347  1.7622  0.1532
 8886SOL     OW28077   8.055   5.587   4.294  0.3023 -0.1818  0.2034
 8886SOL    HW128078   8.000   5.510   4.306  0.8019 -0.6175 -0.2813
 8886SOL    HW228079   8.131   5.556   4.245 -0.3418  0.9473 -1.6515
 8887SOL     OW28080   6.868   6.410   2.015 -0.3496 -0.2670 -0.1600
 8887SOL    HW128081   6.928   6.386   1.944 -0.2016  0.6056 -0.3350
 8887SOL    HW228082   6.781   6.392   1.980 -0.3040  0.5845 -0.7458
 8888SOL     OW28083   7.453   6.075   7.462 -0.1255 -0.0980  0.7045
 8888SOL    HW128084   7.395   6.122   7.403  3.7633  1.7949 -2.1031
 8888SOL    HW228085   7.431   6.108   7.549 -1.3459  2.6731 -0.5376
 8889SOL     OW28086   2.985   0.921   7.181 -0.5320  0.1517  0.1992
 8889SOL    HW128087   3.013   0.998   7.132  0.9859 -0.0773  0.6448
 8889SOL    HW228088   2.901   0.896   7.143 -0.5731  1.4516 -0.5879
 8890SOL     OW28089   2.164   5.998   2.839 -0.0160 -0.5032  0.8098
 8890SOL    HW128090   2.081   5.950   2.837 -0.0846 -0.4774  1.9610
 8890SOL    HW228091   2.141   6.086   2.870  0.4766 -0.6202  1.5552
 8891SOL     OW28092   6.702   0.101   7.757 -0.4532  0.1673  0.0148
 8891SOL    HW128093   6.792   0.077   7.738 -0.3134  0.8002 -0.1252
 8891SOL    HW228094   6.705   0.137   7.846 -0.7286 -0.6749  0.3779
 8892SOL     OW28095   2.692   4.943   1.890  0.0294 -0.6754 -0.0446
 8892SOL    HW128096   2.775   4.898   1.878  1.0207  0.9692  0.3967
 8892SOL    HW228097   2.663   4.919   1.978 -1.1002 -2.9420 -0.9364
 8893SOL     OW28098   3.927   3.197   8.200  0.1398  0.1808  0.0073
 8893SOL    HW128099   3.872   3.126   8.166  0.1579  0.1357  0.0713
 8893SOL    HW228100   3.932   3.260   8.129  0.5505 -0.1229 -0.2353
 8894SOL     OW28101   7.403   4.967   4.129 -0.3275  0.3394 -0.6916
 8894SOL    HW128102   7.411   4.872   4.137 -0.6923  0.1327 -2.4606
 8894SOL    HW228103   7.470   4.992   4.065 -0.0302  1.3267 -0.0185
 8895SOL     OW28104   5.200   2.722   1.395 -0.0195  0.2036  0.0180
 8895SOL    HW128105   5.185   2.648   1.336 -0.7692  0.4538 -0.1158
 8895SOL    HW228106   5.250   2.784   1.343 -0.5278  0.3489 -0.3093
 8896SOL     OW28107   1.492   3.975   4.136 -0.2012 -0.3603  0.0231
 8896SOL    HW128108   1.484   4.012   4.048  0.2170 -0.6516 -0.1452
 8896SOL    HW228109   1.420   4.013   4.185  0.0467  0.4449 -0.2260
 8897SOL     OW28110   8.147   1.916   7.389 -0.0217  0.2536  0.6708
 8897SOL    HW128111   8.098   1.900   7.470  0.2183  0.1586  0.7997
 8897SOL    HW228112   8.238   1.899   7.413  0.0873  0.5411  0.4654
 8898SOL     OW28113   0.335   6.865   6.014  0.2017 -0.3224 -0.1235
 8898SOL    HW128114   0.245   6.864   6.046  0.2078 -0.3696 -0.1077
 8898SOL    HW228115   0.327   6.845   5.920  0.0873  0.9231 -0.3964
 8899SOL     OW28116   0.542   6.055   7.311  0.4033 -0.0825 -0.1546
 8899SOL    HW128117   0.535   6.119   7.241 -0.3703 -1.0638 -1.0003
 8899SOL    HW228118   0.602   5.989   7.278  0.9279  0.0089  0.5742
 8900SOL     OW28119   1.649   1.568   6.778  0.0852  0.5445 -0.2509
 8900SOL    HW128120   1.632   1.476   6.762 -1.9742  0.9391 -0.6509
 8900SOL    HW228121   1.640   1.579   6.873  0.1177  0.3937 -0.2301
 8901SOL     OW28122   2.164   7.051   5.889  0.1183 -0.3646  0.0238
 8901SOL    HW128123   2.239   7.084   5.939  1.3306 -1.8020 -0.7858
 8901SOL    HW228124   2.140   6.969   5.933 -1.4785  0.4168  0.7013
 8902SOL     OW28125   6.378   0.296   5.046 -0.2187  0.0619 -0.2052
 8902SOL    HW128126   6.471   0.316   5.041 -0.3976  0.6428 -2.0348
 8902SOL    HW228127   6.372   0.222   5.107  1.8091 -2.0413 -2.3682
 8903SOL     OW28128   6.612   6.226   2.217 -0.2690 -0.7198 -0.3300
 8903SOL    HW128129   6.519   6.240   2.233  0.0870  2.4791 -0.4659
 8903SOL    HW228130   6.617   6.204   2.124 -0.7650  1.9948 -1.0877
 8904SOL     OW28131   2.898   0.860   5.698 -0.4756  0.6606  0.0076
 8904SOL    HW128132   2.887   0.857   5.604  0.4042  0.1485 -0.0971
 8904SOL    HW228133   2.818   0.901   5.731 -2.1637 -1.8855 -0.6942
 8905SOL     OW28134   3.985   7.518   7.907  0.1469 -0.2655 -0.3433
 8905SOL    HW128135   4.043   7.554   7.841 -1.2271 -0.2031 -1.5615
 8905SOL    HW228136   3.939   7.446   7.863 -0.5064 -0.4911  0.6512
 8906SOL     OW28137   7.535   0.332   4.368 -0.0746  0.4481  0.4839
 8906SOL    HW128138   7.509   0.241   4.380 -0.8836  0.3850 -1.4454
 8906SOL    HW228139   7.626   0.335   4.398 -0.1060 -0.9345  0.7883
 8907SOL     OW28140   7.574   0.701   4.391  0.1396 -0.4016 -0.4246
 8907SOL    HW128141   7.650   0.672   4.340  0.9485  1.4923 -0.3746
 8907SOL    HW228142   7.601   0.689   4.482 -0.0167 -0.6468 -0.4087
 8908SOL     OW28143   7.556   4.230   3.364  0.1936 -0.2630 -0.1629
 8908SOL    HW128144   7.500   4.162   3.327  0.0103  0.3134 -0.9740
 8908SOL    HW228145   7.626   4.182   3.408 -0.7838 -0.9848  0.6491
 8909SOL     OW28146   5.999   7.397   8.015 -0.1984 -0.6355 -0.7474
 8909SOL    HW128147   5.966   7.486   8.026 -0.0231 -0.6154 -0.3696
 8909SOL    HW228148   6.035   7.396   7.926  0.8159  0.0107 -0.3637
 8910SOL     OW28149   6.673   1.138   5.759  0.1170 -0.0270  0.5186
 8910SOL    HW128150   6.709   1.086   5.831  0.5349  0.3596  0.5892
 8910SOL    HW228151   6.590   1.172   5.793 -0.3876 -0.9988  0.3203
 8911SOL     OW28152   7.869   4.804   2.048  0.2711 -0.2294  0.0437
 8911SOL    HW128153   7.813   4.851   2.111  1.4601  1.4348 -0.0760
 8911SOL    HW228154   7.922   4.873   2.007  2.1958 -1.7120 -0.0713
 8912SOL     OW28155   3.491   3.440   3.214 -0.4257  0.0578 -0.4871
 8912SOL    HW128156   3.549   3.516   3.218  0.6060 -0.7549  1.3766
 8912SOL    HW228157   3.417   3.463   3.270 -0.1032 -0.3119  0.0930
 8913SOL     OW28158   4.438   3.073   7.487 -0.7391  0.2052  0.4061
 8913SOL    HW128159   4.399   3.157   7.465 -1.2843 -0.0843  0.2530
 8913SOL    HW228160   4.461   3.034   7.403  3.4467  1.9615  0.4815
 8914SOL     OW28161   3.892   0.452   1.754 -0.2557  0.4665  0.1046
 8914SOL    HW128162   3.984   0.449   1.781 -0.0190 -0.6149 -0.7640
 8914SOL    HW228163   3.845   0.400   1.818 -0.1392  0.3442  0.0899
 8915SOL     OW28164   3.476   2.454   5.800  0.6069 -0.4174  0.3947
 8915SOL    HW128165   3.400   2.463   5.742  0.0330 -1.8405  0.8856
 8915SOL    HW228166   3.490   2.360   5.806  2.4349 -0.1739  0.3174
 8916SOL     OW28167   3.406   4.270   1.825 -0.2454 -0.1477  0.2138
 8916SOL    HW128168   3.368   4.194   1.782 -1.5069 -0.2025  1.3551
 8916SOL    HW228169   3.366   4.345   1.780 -1.8647 -0.2047  1.4665
 8917SOL     OW28170   0.303   0.426   4.625  0.3182 -0.1652  0.0070
 8917SOL    HW128171   0.243   0.465   4.689 -0.0195 -0.4788 -0.1169
 8917SOL    HW228172   0.246   0.378   4.565  0.6017  0.4047 -0.7299
 8918SOL     OW28173   0.513   5.689   2.371  0.1749 -0.1188  0.1719
 8918SOL    HW128174   0.580   5.746   2.334 -0.1413 -1.1164 -2.1344
 8918SOL    HW228175   0.561   5.634   2.434  1.2294  0.2093 -0.3132
 8919SOL     OW28176   2.154   3.040   3.101  0.3439 -0.1178  0.4591
 8919SOL    HW128177   2.202   3.066   3.180  1.3544  2.1014 -0.7787
 8919SOL    HW228178   2.212   2.978   3.057  1.6351  1.5956 -0.3931
 8920SOL     OW28179   2.193   1.356   4.957 -0.2141  0.0672  0.8348
 8920SOL    HW128180   2.141   1.285   4.994  0.0619 -1.3255 -1.2818
 8920SOL    HW228181   2.164   1.362   4.866  3.8734 -1.4878 -0.7933
 8921SOL     OW28182   2.213   3.141   6.774 -0.0830 -0.2642  0.0099
 8921SOL    HW128183   2.209   3.211   6.839  0.6465  1.2098 -1.4528
 8921SOL    HW228184   2.128   3.142   6.731  0.3099  0.5474 -0.7859
 8922SOL     OW28185   4.511   4.227   6.392  0.6857 -0.0201  0.5748
 8922SOL    HW128186   4.458   4.238   6.471 -0.4193 -0.0614 -0.1473
 8922SOL    HW228187   4.599   4.253   6.419 -0.3906  4.0703  0.7900
 8923SOL     OW28188   6.400   6.232   5.891 -0.2817  0.1435  0.1148
 8923SOL    HW128189   6.320   6.275   5.922  0.6512  1.7152  0.4350
 8923SOL    HW228190   6.416   6.163   5.955 -1.3406 -0.1519  0.0838
 8924SOL     OW28191   4.313   2.190   0.246  0.3341 -0.2003 -0.3754
 8924SOL    HW128192   4.358   2.273   0.262 -0.3260  0.4478 -1.7124
 8924SOL    HW228193   4.224   2.204   0.279 -0.1569  0.1048 -1.7749
 8925SOL     OW28194   1.599   1.437   7.034 -0.1398 -0.3169  0.8420
 8925SOL    HW128195   1.688   1.473   7.034 -0.6104  0.9402 -0.5864
 8925SOL    HW228196   1.609   1.347   7.064  1.4361  0.1890  1.9702
 8926SOL     OW28197   7.966   5.249   1.488 -0.3013  0.1019 -0.3064
 8926SOL    HW128198   8.038   5.256   1.551  1.0452  0.2755 -1.8063
 8926SOL    HW228199   8.004   5.277   1.405 -1.6714 -1.2905 -1.4612
 8927SOL     OW28200   2.257   6.899   3.390 -0.4130 -0.2898  0.6287
 8927SOL    HW128201   2.343   6.890   3.350 -1.4270 -2.5444 -1.3650
 8927SOL    HW228202   2.213   6.966   3.338 -0.3709 -0.2180  0.6845
 8928SOL     OW28203   2.483   5.624   0.141  0.1626 -0.4931  0.3983
 8928SOL    HW128204   2.476   5.675   0.061  0.0994 -1.1218 -0.0009
 8928SOL    HW228205   2.412   5.560   0.135  0.4990 -0.9011  0.6919
 8929SOL     OW28206   1.743   2.044   1.837  0.5513  0.0793  0.4663
 8929SOL    HW128207   1.793   2.113   1.882 -0.0667  1.8112 -1.3478
 8929SOL    HW228208   1.805   1.972   1.827  2.3772  1.7166 -0.6738
 8930SOL     OW28209   6.234   3.702   1.149  0.5540 -0.2357 -0.1164
 8930SOL    HW128210   6.285   3.621   1.151  0.5538 -0.2383 -0.1971
 8930SOL    HW228211   6.144   3.674   1.133  0.4950 -0.2449  0.2262
 8931SOL     OW28212   5.189   3.098   4.140  0.1528 -0.2038  0.0519
 8931SOL    HW128213   5.281   3.074   4.146  0.5180  0.1085 -2.8915
 8931SOL    HW228214   5.186   3.190   4.166  0.6317 -0.2823  0.3818
 8932SOL     OW28215   7.112   5.372   3.572 -0.0280 -0.0803 -0.6395
 8932SOL    HW128216   7.112   5.460   3.610 -0.3115  0.6779 -2.3170
 8932SOL    HW228217   7.203   5.357   3.545  0.4241 -1.0707  1.2253
 8933SOL     OW28218   1.876   7.456   7.469 -0.3644  0.0366  0.3371
 8933SOL    HW128219   1.837   7.543   7.476 -1.3463  0.2104 -4.3501
 8933SOL    HW228220   1.803   7.396   7.481 -0.3837  0.0095  0.0848
 8934SOL     OW28221   1.356   6.925   3.264 -0.2301  0.0735 -0.2820
 8934SOL    HW128222   1.348   6.882   3.349 -1.1825 -0.9263 -0.8552
 8934SOL    HW228223   1.353   7.019   3.285 -0.6844 -0.1599  0.7755
 8935SOL     OW28224   1.572   0.384   1.128 -0.4675  0.5212 -0.0562
 8935SOL    HW128225   1.618   0.458   1.088 -0.9040 -0.3813 -2.4067
 8935SOL    HW228226   1.485   0.387   1.089  0.2122 -2.5800 -2.2501
 8936SOL     OW28227   5.790   6.804   3.913  0.7102 -0.0020  0.1844
 8936SOL    HW128228   5.801   6.827   4.005 -1.1005  1.8782  0.0210
 8936SOL    HW228229   5.751   6.882   3.874 -0.3489 -1.4238 -1.7659
 8937SOL     OW28230   7.608   5.921   1.606 -0.4860  0.5505 -0.8957
 8937SOL    HW128231   7.603   6.002   1.555 -1.2762  1.6882  0.8801
 8937SOL    HW228232   7.662   5.943   1.682 -0.3649 -0.7182 -0.5843
 8938SOL     OW28233   6.351   0.931   0.547  0.2791 -0.0873 -0.0875
 8938SOL    HW128234   6.431   0.907   0.499 -0.5052 -1.8469 -0.6041
 8938SOL    HW228235   6.366   0.898   0.636  0.1235 -0.4025 -0.1801
 8939SOL     OW28236   2.796   3.742   4.619 -1.3507 -0.6398  0.2139
 8939SOL    HW128237   2.741   3.801   4.568 -0.6141 -0.7551 -0.7527
 8939SOL    HW228238   2.871   3.724   4.562 -1.0792 -1.7282  0.8772
 8940SOL     OW28239   3.750   0.289   5.842  0.0989 -0.5202 -0.0001
 8940SOL    HW128240   3.779   0.197   5.843  0.7377 -0.3263 -0.0255
 8940SOL    HW228241   3.767   0.318   5.752 -1.1301 -0.6826 -0.3067
 8941SOL     OW28242   3.900   5.205   3.075  0.3348 -0.8690 -0.3309
 8941SOL    HW128243   3.940   5.275   3.127  1.8805 -0.7596 -1.5994
 8941SOL    HW228244   3.899   5.129   3.133 -2.2944  0.3587  1.4347
 8942SOL     OW28245   5.338   2.438   0.590 -0.7847 -0.5327  0.1936
 8942SOL    HW128246   5.411   2.401   0.540  1.1227  1.3949  1.4177
 8942SOL    HW228247   5.308   2.512   0.537  0.3773  0.7052  1.2154
 8943SOL     OW28248   1.453   5.825   1.359  0.1635 -0.7081  0.2302
 8943SOL    HW128249   1.452   5.783   1.445 -1.8253 -2.2091 -0.4802
 8943SOL    HW228250   1.445   5.754   1.296  0.4644  0.4553 -1.1962
 8944SOL     OW28251   2.682   7.626   7.781 -0.1609  0.0948  0.1786
 8944SOL    HW128252   2.769   7.634   7.740  0.1357  1.1911  0.9668
 8944SOL    HW228253   2.699   7.642   7.874 -1.2005  0.2110  0.3518
 8945SOL     OW28254   2.714   1.176   1.230  0.5169 -0.2521  0.2386
 8945SOL    HW128255   2.758   1.234   1.291  0.8513 -0.0758 -0.1629
 8945SOL    HW228256   2.622   1.203   1.231  0.6405  0.1676  0.1855
 8946SOL     OW28257   2.498   3.442   4.201 -0.2379 -0.2653 -0.1118
 8946SOL    HW128258   2.472   3.414   4.289 -0.6528 -1.6527 -0.6406
 8946SOL    HW228259   2.416   3.468   4.159  0.0825  1.3488  0.2022
 8947SOL     OW28260   3.895   0.917   7.535  0.5210  0.3295  0.4766
 8947SOL    HW128261   3.857   1.001   7.560 -0.6343  0.0377 -0.2473
 8947SOL    HW228262   3.942   0.888   7.613 -0.1954  1.0094  1.1736
 8948SOL     OW28263   5.170   0.900   0.605 -0.5578  0.0142  0.0940
 8948SOL    HW128264   5.251   0.939   0.573 -0.4312  0.2895  0.7345
 8948SOL    HW228265   5.119   0.881   0.526  0.1530 -0.2160 -0.3111
 8949SOL     OW28266   6.662   3.967   0.865  0.8273  0.1241 -0.5975
 8949SOL    HW128267   6.697   3.934   0.783  0.4615 -0.5793 -0.4763
 8949SOL    HW228268   6.575   3.927   0.873  0.6416  0.5964 -0.1237
 8950SOL     OW28269   7.789   1.957   1.424  0.4523 -0.3940  0.1515
 8950SOL    HW128270   7.724   1.980   1.358  0.4378  0.3258  0.4115
 8950SOL    HW228271   7.838   1.884   1.386 -0.6634 -1.1151  0.0530
 8951SOL     OW28272   4.071   0.446   3.564 -0.2643 -0.1262  0.0402
 8951SOL    HW128273   4.097   0.503   3.491  0.1652 -2.0517 -1.3936
 8951SOL    HW228274   3.976   0.454   3.568 -0.1258  1.8370  0.9238
 8952SOL     OW28275   3.417   3.054   2.629 -0.4149 -0.3661 -0.0825
 8952SOL    HW128276   3.440   3.107   2.705 -2.1322 -0.8780  0.8366
 8952SOL    HW228277   3.422   2.964   2.661 -1.0792 -0.5891 -0.5870
 8953SOL     OW28278   1.114   5.541   1.923 -0.5258  0.1300 -0.0060
 8953SOL    HW128279   1.061   5.503   1.853  0.8975  0.6396 -1.4122
 8953SOL    HW228280   1.052   5.589   1.977 -1.7283 -0.6717 -0.6212
 8954SOL     OW28281   6.589   4.712   0.606  0.1123  0.7537 -0.0980
 8954SOL    HW128282   6.651   4.715   0.679  2.3460  1.5079 -1.9299
 8954SOL    HW228283   6.593   4.621   0.576  0.8503  0.9474 -0.6098
 8955SOL     OW28284   7.556   5.069   6.455  0.2725  0.0017  0.2330
 8955SOL    HW128285   7.493   5.002   6.482 -0.1166  0.9980  1.8947
 8955SOL    HW228286   7.637   5.045   6.500  1.2272 -1.3521 -1.9976
 8956SOL     OW28287   1.002   5.249   5.708 -0.5629 -0.4855 -0.0854
 8956SOL    HW128288   0.913   5.281   5.700 -0.5869  0.2440  2.1663
 8956SOL    HW228289   1.054   5.328   5.727  0.1422 -1.1570  0.9137
 8957SOL     OW28290   5.634   0.461   6.960 -0.0901 -0.1555 -0.0205
 8957SOL    HW128291   5.658   0.522   6.890 -2.2734 -0.6873 -1.3113
 8957SOL    HW228292   5.615   0.379   6.915 -1.1210 -0.6514  1.2498
 8958SOL     OW28293   5.860   6.963   0.893 -0.4408 -0.2683 -0.4816
 8958SOL    HW128294   5.932   7.022   0.916  0.2981 -0.4317 -2.2244
 8958SOL    HW228295   5.871   6.888   0.952  0.0851  0.2447  0.0840
 8959SOL     OW28296   0.373   7.721   3.290 -0.1406  0.2093  0.0253
 8959SOL    HW128297   0.374   7.754   3.380 -1.0098 -1.0209  0.5241
 8959SOL    HW228298   0.280   7.711   3.270  0.0675 -0.1864 -0.7600
 8960SOL     OW28299   1.127   1.451   6.528  0.7176 -0.3088  0.0203
 8960SOL    HW128300   1.199   1.391   6.508 -1.3963 -2.5148 -1.4380
 8960SOL    HW228301   1.129   1.516   6.457  0.9838 -0.6239 -0.2612
 8961SOL     OW28302   3.312   6.188   6.610  0.2611 -0.3404  0.7864
 8961SOL    HW128303   3.250   6.247   6.569  0.8935 -1.0558 -1.3131
 8961SOL    HW228304   3.391   6.192   6.556  0.7021 -2.2693  1.1709
 8962SOL     OW28305   2.320   4.255   4.105  0.1397  0.3787 -0.5008
 8962SOL    HW128306   2.286   4.323   4.047 -1.0299  1.4143  1.3053
 8962SOL    HW228307   2.371   4.302   4.171 -0.6239 -0.4484  0.7342
 8963SOL     OW28308   0.945   5.760   2.086  0.4016 -0.0401 -0.3074
 8963SOL    HW128309   0.913   5.732   2.000 -0.7599  0.0843  0.0698
 8963SOL    HW228310   0.956   5.679   2.135  0.3247 -0.0579 -0.3200
 8964SOL     OW28311   4.483   3.434   3.784 -0.2440  0.2158  0.2017
 8964SOL    HW128312   4.485   3.462   3.693 -0.0860 -2.4079 -0.6856
 8964SOL    HW228313   4.389   3.427   3.805 -0.2833  1.3260  0.4340
 8965SOL     OW28314   1.204   6.643   2.260  0.2186  0.0146  0.1468
 8965SOL    HW128315   1.229   6.636   2.352 -0.6835 -0.2900  0.3794
 8965SOL    HW228316   1.241   6.566   2.219 -0.4625 -0.5313  0.5267
 8966SOL     OW28317   2.561   5.100   5.113 -0.1716 -0.0416 -0.2211
 8966SOL    HW128318   2.599   5.025   5.160 -2.5003 -0.9238  0.3922
 8966SOL    HW228319   2.598   5.093   5.025  2.7129  0.4771  0.8102
 8967SOL     OW28320   6.828   5.746   6.912  0.0681  0.5815  0.0738
 8967SOL    HW128321   6.738   5.769   6.887 -0.5333 -2.3080 -0.6961
 8967SOL    HW228322   6.818   5.698   6.995  0.8285 -0.2305 -0.2907
 8968SOL     OW28323   1.274   4.973   2.840  0.0605  0.8513  0.5094
 8968SOL    HW128324   1.238   4.955   2.753  2.7054  0.3260 -0.5860
 8968SOL    HW228325   1.269   5.068   2.848  0.9785  1.0526 -0.8532
 8969SOL     OW28326   2.053   5.878   5.335  0.1087 -0.1426  0.1117
 8969SOL    HW128327   2.102   5.808   5.292  0.2633 -0.3033  0.5432
 8969SOL    HW228328   2.034   5.941   5.266 -0.9621 -1.1179 -0.5252
 8970SOL     OW28329   1.836   8.031   1.780  0.2212  0.3932  0.0577
 8970SOL    HW128330   1.867   7.967   1.715  0.8857  0.2416  0.5190
 8970SOL    HW228331   1.874   8.114   1.751  1.9753  0.0380  1.1933
 8971SOL     OW28332   3.399   5.434   0.261  0.1054 -0.0877  0.2212
 8971SOL    HW128333   3.379   5.509   0.205 -0.1673  1.0421  1.7505
 8971SOL    HW228334   3.316   5.414   0.304  0.5184 -0.2976  0.9345
 8972SOL     OW28335   2.013   3.730   1.852  0.3453 -0.0978 -0.0185
 8972SOL    HW128336   2.073   3.749   1.779 -0.3566  0.1712 -0.5352
 8972SOL    HW228337   1.948   3.800   1.848  0.7903  0.4427  1.4385
 8973SOL     OW28338   7.359   0.887   0.186 -0.1957  0.1507  0.3296
 8973SOL    HW128339   7.271   0.896   0.222 -0.3148 -1.3138  0.4686
 8973SOL    HW228340   7.345   0.873   0.092 -0.0145  1.4658  0.0908
 8974SOL     OW28341   0.126   0.173   7.700 -0.0814  0.4272  0.0642
 8974SOL    HW128342   0.128   0.138   7.611 -2.5564  2.9111 -1.1191
 8974SOL    HW228343   0.038   0.154   7.732  1.1962 -1.7634  2.7168
 8975SOL     OW28344   0.732   8.004   5.950  0.2562  0.2007 -0.1796
 8975SOL    HW128345   0.811   7.950   5.950 -1.2108 -2.0873 -0.5878
 8975SOL    HW228346   0.744   8.066   5.879  1.5308 -0.3347 -0.4427
 8976SOL     OW28347   7.850   7.071   6.539  0.9197  0.3231  0.8288
 8976SOL    HW128348   7.849   6.988   6.587  0.2170  1.6755  3.3059
 8976SOL    HW228349   7.939   7.077   6.505  0.7124 -1.8707 -0.3161
 8977SOL     OW28350   0.160   6.662   8.318 -0.6460 -0.3387  0.2938
 8977SOL    HW128351   0.235   6.693   8.267 -2.0356 -0.3484 -1.9044
 8977SOL    HW228352   0.198   6.613   8.390  1.4857  1.4420  0.4665
 8978SOL     OW28353   0.798   2.836   6.154  0.4324 -0.0620  0.1610
 8978SOL    HW128354   0.727   2.791   6.200  0.5176 -0.0850  0.2698
 8978SOL    HW228355   0.866   2.769   6.142  1.1494  0.3846  1.5729
 8979SOL     OW28356   0.156   1.596   2.561  0.1697  0.3697 -0.1763
 8979SOL    HW128357   0.090   1.648   2.516  0.8965  1.0708 -0.4616
 8979SOL    HW228358   0.227   1.586   2.497  1.1388  1.2246  0.7248
 8980SOL     OW28359   0.190   3.048   6.826 -0.3020 -1.0098 -0.1916
 8980SOL    HW128360   0.147   3.090   6.901  1.5932 -0.8277  0.8665
 8980SOL    HW228361   0.155   2.958   6.826 -0.1330 -1.1023  1.1228
 8981SOL     OW28362   0.537   4.639   5.713 -0.2589 -0.0184  0.2917
 8981SOL    HW128363   0.594   4.701   5.759 -0.6491 -0.1082  0.9088
 8981SOL    HW228364   0.463   4.693   5.685  0.4778  0.2610 -1.1917
 8982SOL     OW28365   0.785   3.042   5.589 -0.0579 -0.1628  0.4184
 8982SOL    HW128366   0.799   3.136   5.581 -0.2449 -0.1594  0.1140
 8982SOL    HW228367   0.694   3.034   5.617  0.6558 -0.1543  3.0158
 8983SOL     OW28368   0.293   2.609   7.849  0.0659 -0.2422  0.0341
 8983SOL    HW128369   0.359   2.539   7.845  0.5469 -0.0313  2.4067
 8983SOL    HW228370   0.328   2.678   7.793  0.8501 -0.9457 -0.3658
 8984SOL     OW28371   0.271   1.620   3.350  0.2177  0.2204 -0.4536
 8984SOL    HW128372   0.221   1.560   3.294  0.3078 -0.8920  0.6107
 8984SOL    HW228373   0.208   1.648   3.416  0.5111  0.3092 -0.2115
 8985SOL     OW28374   1.671   7.313   5.253  0.4926 -0.0129  0.4774
 8985SOL    HW128375   1.710   7.400   5.253  1.2814 -0.2869 -1.8616
 8985SOL    HW228376   1.679   7.282   5.343 -1.3299  2.9148  1.7956
 8986SOL     OW28377   6.901   4.070   5.637  0.0672 -0.0202 -0.3578
 8986SOL    HW128378   6.811   4.074   5.670  1.1364 -1.0549  3.1943
 8986SOL    HW228379   6.951   4.122   5.700  2.0469  0.2164 -2.0391
 8987SOL     OW28380   0.697   5.709   8.228  0.9710  0.1048  0.2548
 8987SOL    HW128381   0.749   5.668   8.158  1.9516  1.5496  0.1079
 8987SOL    HW228382   0.607   5.693   8.202  1.3213 -0.8656 -0.4478
 8988SOL     OW28383   3.636   0.664   5.431  0.3732 -0.1368  0.2615
 8988SOL    HW128384   3.656   0.757   5.435 -0.8273  0.2188 -0.9945
 8988SOL    HW228385   3.543   0.659   5.454  0.7414 -1.2021  1.6541
 8989SOL     OW28386   3.042   7.734   5.792  0.1815 -1.0203 -0.6801
 8989SOL    HW128387   3.027   7.719   5.886 -1.7724 -3.7674 -1.2745
 8989SOL    HW228388   2.960   7.774   5.762  0.7542 -0.2703 -1.2495
 8990SOL     OW28389   2.482   7.416   3.796  0.0732  0.0850 -0.1363
 8990SOL    HW128390   2.546   7.358   3.836  1.9193  2.8101  1.2047
 8990SOL    HW228391   2.401   7.365   3.794  1.2587 -2.0914  2.0707
 8991SOL     OW28392   0.622   4.867   7.087 -0.6845 -0.5842  0.2265
 8991SOL    HW128393   0.639   4.945   7.034  0.9469 -1.9757 -1.4020
 8991SOL    HW228394   0.653   4.891   7.175 -0.1905  0.5984 -0.2550
 8992SOL     OW28395   0.240   7.389   5.459  0.6038 -0.2013 -0.4054
 8992SOL    HW128396   0.250   7.323   5.390  1.8072 -0.5461  0.0883
 8992SOL    HW228397   0.169   7.355   5.514  2.0057 -1.7360  0.5416
 8993SOL     OW28398   3.540   6.686   0.070 -0.3119 -0.3999 -0.4299
 8993SOL    HW128399   3.594   6.634   0.011  1.3122 -1.1618  1.6074
 8993SOL    HW228400   3.539   6.773   0.032  2.1049 -0.4456 -0.7348
 8994SOL     OW28401   4.205   2.435   3.007 -0.5162  0.4738  0.0001
 8994SOL    HW128402   4.144   2.364   3.025 -0.8535  0.5811 -0.6953
 8994SOL    HW228403   4.270   2.397   2.947 -1.4112  1.0731 -1.4032
 8995SOL     OW28404   7.401   8.312   1.853  0.0592 -0.1243 -0.1005
 8995SOL    HW128405   7.434   8.325   1.942  0.7244  1.0099 -0.4832
 8995SOL    HW228406   7.470   8.348   1.797  0.8057 -3.0618 -1.2210
 8996SOL     OW28407   2.112   6.966   6.786  0.3535 -0.3574  0.2411
 8996SOL    HW128408   2.126   6.898   6.720  0.4393  1.0397 -1.2490
 8996SOL    HW228409   2.081   6.918   6.863 -2.8364 -1.8382 -1.7288
 8997SOL     OW28410   8.021   4.562   7.374 -0.3035  0.6532  0.4330
 8997SOL    HW128411   8.086   4.544   7.443 -0.8690  2.0687  1.3686
 8997SOL    HW228412   8.006   4.477   7.333  1.2786  0.0835  0.9594
 8998SOL     OW28413   0.141   8.244   0.560  0.1599  0.0278 -0.1879
 8998SOL    HW128414   0.079   8.173   0.578 -0.4056 -0.1609 -2.6102
 8998SOL    HW228415   0.206   8.205   0.502  0.8846  1.0235 -0.0662
 8999SOL     OW28416   1.396   3.734   4.151  0.8541  0.5662 -0.1360
 8999SOL    HW128417   1.431   3.823   4.153  1.0185  0.4970  0.0864
 8999SOL    HW228418   1.313   3.742   4.104  0.2002  1.0784  1.0526
 9000SOL     OW28419   4.768   3.118   5.776 -0.3176 -0.4721 -0.1383
 9000SOL    HW128420   4.728   3.075   5.851 -0.7789 -0.5952 -0.4509
 9000SOL    HW228421   4.769   3.211   5.800 -0.3981 -0.5183  0.0481
 9001SOL     OW28422   5.278   2.523   0.154 -0.4226  0.4643 -0.0965
 9001SOL    HW128423   5.368   2.493   0.167 -1.3646 -2.3113  0.8888
 9001SOL    HW228424   5.241   2.459   0.092 -1.5688  1.8917 -0.9435
 9002SOL     OW28425   4.022   2.572   2.659 -0.1823  0.6731 -0.5177
 9002SOL    HW128426   4.067   2.495   2.624 -0.8621 -0.1075  0.2809
 9002SOL    HW228427   4.088   2.640   2.659  0.4686  0.0644 -1.1393
 9003SOL     OW28428   6.138   2.718   3.692 -0.1564  0.7160 -0.5335
 9003SOL    HW128429   6.160   2.804   3.657  0.2323  0.4215 -1.0203
 9003SOL    HW228430   6.042   2.713   3.685 -0.3180  1.6069  0.6807
 9004SOL     OW28431   6.985   6.449   3.408  0.4486 -0.0010 -0.7526
 9004SOL    HW128432   7.069   6.410   3.383  1.7862  0.8480  1.9727
 9004SOL    HW228433   6.980   6.436   3.503 -2.0268  0.8956 -0.6926
 9005SOL     OW28434   6.839   0.797   2.233 -0.1750 -0.2941  0.0301
 9005SOL    HW128435   6.928   0.783   2.200 -0.6226 -0.9413 -0.9561
 9005SOL    HW228436   6.836   0.890   2.256 -0.0870  0.4697 -2.6642
 9006SOL     OW28437   3.765   0.458   5.571  0.1052 -0.2989  0.0628
 9006SOL    HW128438   3.698   0.500   5.517 -0.6224 -0.8593  0.5043
 9006SOL    HW228439   3.792   0.382   5.520 -0.9873 -1.1443  0.7086
 9007SOL     OW28440   6.848   3.056   8.150  0.2921 -0.6173 -0.1639
 9007SOL    HW128441   6.757   3.033   8.170 -0.1464  1.7524  0.8999
 9007SOL    HW228442   6.873   2.997   8.079 -2.0720 -1.3083 -0.5021
 9008SOL     OW28443   6.925   0.657   5.748  0.3873  0.5292  0.1119
 9008SOL    HW128444   6.958   0.738   5.709 -0.1761  0.1704 -1.1400
 9008SOL    HW228445   7.004   0.607   5.770  0.7190  0.6566 -0.7617
 9009SOL     OW28446   2.794   6.250   3.571 -0.2014 -0.0984  0.1580
 9009SOL    HW128447   2.710   6.213   3.598 -0.0623 -0.4550  0.1007
 9009SOL    HW228448   2.783   6.269   3.478 -0.0243 -0.6912  0.0120
 9010SOL     OW28449   2.291   1.733   7.275  0.4926  0.2146  0.0653
 9010SOL    HW128450   2.280   1.828   7.282 -2.4010  0.0976 -1.2436
 9010SOL    HW228451   2.245   1.698   7.352  1.7135 -0.1411  0.6471
 9011SOL     OW28452   7.630   6.576   4.621  0.1341  0.3121  0.4935
 9011SOL    HW128453   7.657   6.591   4.711 -2.0487  1.8582  0.9587
 9011SOL    HW228454   7.545   6.620   4.613 -1.6897 -3.0565 -1.1752
 9012SOL     OW28455   1.002   4.445   1.608 -0.2321  0.1573  0.8300
 9012SOL    HW128456   0.917   4.488   1.601 -1.6952 -2.4922  1.0785
 9012SOL    HW228457   1.046   4.489   1.681 -2.2111  0.3480  1.9725
 9013SOL     OW28458   2.036   2.070   2.494  0.1442  0.1628 -0.4175
 9013SOL    HW128459   1.971   2.103   2.432 -0.1651  1.0494  0.3595
 9013SOL    HW228460   2.085   2.147   2.522 -0.3935 -0.0480  1.1930
 9014SOL     OW28461   1.582   5.604   6.364  0.0381  0.2894 -0.5963
 9014SOL    HW128462   1.534   5.684   6.386 -0.5050  0.6229 -2.7067
 9014SOL    HW228463   1.666   5.635   6.329 -0.5292  0.0367 -2.2749
 9015SOL     OW28464   1.886   1.019   0.301  0.1286 -0.7993 -0.1645
 9015SOL    HW128465   1.873   1.103   0.257  1.7120 -1.1201 -1.3107
 9015SOL    HW228466   1.805   0.971   0.285  0.3217 -0.5777 -2.0412
 9016SOL     OW28467   7.691   3.263   6.792 -0.3948  0.2463 -0.9168
 9016SOL    HW128468   7.621   3.326   6.775 -0.2398  0.0800 -2.2790
 9016SOL    HW228469   7.727   3.244   6.705 -0.7176 -2.0442 -0.5979
 9017SOL     OW28470   0.914   3.725   7.024  0.1710  0.0737 -0.0903
 9017SOL    HW128471   0.826   3.695   7.004  0.0806  0.9557 -1.1315
 9017SOL    HW228472   0.953   3.744   6.939  0.8445  1.1013  0.4129
 9018SOL     OW28473   1.042   4.851   1.391 -0.0499 -0.0696  0.4184
 9018SOL    HW128474   1.096   4.904   1.333 -0.7327  1.3205  1.0029
 9018SOL    HW228475   1.089   4.853   1.475 -0.8048  0.8627  0.8358
 9019SOL     OW28476   2.794   1.751   0.140  0.5531 -0.1721 -0.2860
 9019SOL    HW128477   2.788   1.800   0.222  1.4929 -0.0793 -0.2551
 9019SOL    HW228478   2.884   1.719   0.139 -0.1106 -2.1808 -0.1487
 9020SOL     OW28479   2.017   4.179   5.061  0.3454 -0.3271 -0.1555
 9020SOL    HW128480   1.923   4.160   5.059  0.1768  0.1538  1.6243
 9020SOL    HW228481   2.047   4.142   5.144  1.4800  0.5991 -0.1330
 9021SOL     OW28482   7.517   2.586   4.906  0.0534 -0.8877  0.5886
 9021SOL    HW128483   7.505   2.622   4.818 -1.1373 -0.4034  0.9356
 9021SOL    HW228484   7.434   2.602   4.951  0.3362 -1.9117  1.5315
 9022SOL     OW28485   6.530   5.814   7.905 -0.4123 -0.0014  0.5161
 9022SOL    HW128486   6.575   5.733   7.930  0.2724 -0.0521 -0.8235
 9022SOL    HW228487   6.451   5.784   7.860 -0.4064  0.0816  0.4511
 9023SOL     OW28488   6.783   7.939   4.652 -0.2148 -0.2113  0.9804
 9023SOL    HW128489   6.777   7.977   4.740  0.2614 -0.0986  0.9660
 9023SOL    HW228490   6.827   7.855   4.664  0.4375  0.0896  0.7773
 9024SOL     OW28491   5.727   4.815   0.891 -0.4411 -0.2207  0.0134
 9024SOL    HW128492   5.638   4.844   0.871  0.3374  1.3379 -1.4843
 9024SOL    HW228493   5.773   4.819   0.807  0.9489 -1.4270  0.6700
 9025SOL     OW28494   4.079   2.484   0.201 -0.5980  0.7385  0.2228
 9025SOL    HW128495   4.018   2.522   0.138  0.0687 -0.0516 -0.9429
 9025SOL    HW228496   4.165   2.514   0.171 -0.3355  1.1615  1.3513
 9026SOL     OW28497   1.081   4.927   7.456 -0.4177 -0.3187 -0.2394
 9026SOL    HW128498   1.066   5.010   7.410  0.5211 -0.5258 -0.9446
 9026SOL    HW228499   1.106   4.953   7.545 -0.9428  0.1278 -0.2204
 9027SOL     OW28500   2.886   1.314   3.276  0.2285 -0.5760 -0.2663
 9027SOL    HW128501   2.868   1.220   3.281 -1.4321 -0.2865 -0.1842
 9027SOL    HW228502   2.831   1.345   3.204  1.5409  0.1810 -0.9864
 9028SOL     OW28503   5.074   4.929   7.066 -0.7288 -0.3905  0.0453
 9028SOL    HW128504   5.138   4.861   7.086 -1.7792 -0.9439  1.8188
 9028SOL    HW228505   5.002   4.883   7.023 -0.3843  0.0696 -1.0741
 9029SOL     OW28506   7.622   2.142   2.551 -0.7364  0.3235 -0.5894
 9029SOL    HW128507   7.626   2.051   2.582 -0.7755  0.2505 -0.7978
 9029SOL    HW228508   7.537   2.173   2.581 -0.4659  0.4904  0.0235
 9030SOL     OW28509   0.255   1.028   4.595 -0.0494 -0.0238  0.1468
 9030SOL    HW128510   0.313   1.025   4.671 -0.9170  0.0673  0.8317
 9030SOL    HW228511   0.295   1.091   4.537  0.7692 -0.2869  0.4082
 9031SOL     OW28512   0.962   1.403   4.757 -0.9577  0.0962  0.5454
 9031SOL    HW128513   1.042   1.423   4.804 -0.6029  1.7104 -0.6157
 9031SOL    HW228514   0.891   1.427   4.817 -0.5231  1.5396  0.5121
 9032SOL     OW28515   2.087   0.777   5.754  0.2214 -0.6574  0.0546
 9032SOL    HW128516   2.144   0.748   5.682  0.5614 -0.2513  0.1597
 9032SOL    HW228517   2.001   0.743   5.730  0.0233  0.6912 -1.2866
 9033SOL     OW28518   4.317   0.580   3.442  0.1865 -0.0100  0.4221
 9033SOL    HW128519   4.340   0.594   3.534  1.9329  0.5122 -0.0571
 9033SOL    HW228520   4.399   0.551   3.401 -0.5535 -0.1979 -0.9701
 9034SOL     OW28521   4.680   0.060   8.289 -0.3676 -0.9454  0.0964
 9034SOL    HW128522   4.745   0.099   8.231 -0.6649 -0.9401 -0.2388
 9034SOL    HW228523   4.650  -0.018   8.242  0.3227 -1.6641  0.8243
 9035SOL     OW28524   6.873   7.946   5.676  0.1531 -0.1618  0.1552
 9035SOL    HW128525   6.933   7.946   5.602  0.9345  1.4518  0.7368
 9035SOL    HW228526   6.790   7.913   5.640  1.1649 -1.7678 -0.8128
 9036SOL     OW28527   6.182   8.198   2.435  0.1254  0.3260  0.1109
 9036SOL    HW128528   6.129   8.122   2.412  0.1626  0.3516 -0.0657
 9036SOL    HW228529   6.251   8.164   2.491 -0.4717  0.4015  0.9127
 9037SOL     OW28530   2.460   7.381   0.711 -0.7483  0.0369 -0.8894
 9037SOL    HW128531   2.419   7.304   0.672 -2.0865  1.6174 -2.8022
 9037SOL    HW228532   2.438   7.375   0.804  0.3036 -2.4982 -0.7235
 9038SOL     OW28533   1.096   8.166   5.288  0.0251 -0.0245 -0.3518
 9038SOL    HW128534   1.040   8.095   5.255 -0.2651 -0.4204  0.9415
 9038SOL    HW228535   1.060   8.186   5.374  1.2605  0.4290  0.0675
 9039SOL     OW28536   4.830   1.316   4.826 -0.8550 -0.6685  0.6836
 9039SOL    HW128537   4.768   1.374   4.782 -0.6433 -0.4861  0.6254
 9039SOL    HW228538   4.890   1.289   4.757 -1.2549 -1.3632  0.6027
 9040SOL     OW28539   3.299   4.775   4.250 -0.4497  0.0585 -0.3286
 9040SOL    HW128540   3.339   4.690   4.230  0.8250  0.9355 -1.7591
 9040SOL    HW228541   3.327   4.794   4.340  0.5805 -0.3359 -0.5517
 9041SOL     OW28542   6.260   2.435   0.214  0.1022 -0.1800 -0.1381
 9041SOL    HW128543   6.191   2.498   0.235 -0.1436 -1.0349  1.8928
 9041SOL    HW228544   6.323   2.485   0.162 -2.0018  0.6277 -2.0568
 9042SOL     OW28545   3.514   1.270   4.840  0.4671 -0.1719  0.8710
 9042SOL    HW128546   3.433   1.259   4.790  1.5147 -1.0988 -0.7266
 9042SOL    HW228547   3.561   1.188   4.828  1.6331  0.3409  1.7748
 9043SOL     OW28548   3.382   0.951   4.739  0.2588  0.0230 -0.7038
 9043SOL    HW128549   3.319   1.000   4.793  1.7126  0.5430  0.5782
 9043SOL    HW228550   3.360   0.859   4.754  0.3399  0.1730  0.4464
 9044SOL     OW28551   6.123   4.155   0.595 -0.2360 -0.3941 -0.1795
 9044SOL    HW128552   6.155   4.242   0.569 -1.6216 -0.4503 -2.2909
 9044SOL    HW228553   6.192   4.095   0.568 -0.3043 -0.1527 -0.9064
 9045SOL     OW28554   6.489   7.464   6.347  0.0373  0.3150  0.0427
 9045SOL    HW128555   6.466   7.500   6.261  0.0274  0.5523  0.1432
 9045SOL    HW228556   6.513   7.373   6.330 -1.0994  0.0213 -0.0409
 9046SOL     OW28557   4.761   2.635   5.951 -0.3769 -0.4804  0.4818
 9046SOL    HW128558   4.761   2.650   6.045  1.8516 -2.2698  0.8475
 9046SOL    HW228559   4.768   2.540   5.942  1.6688 -0.2262 -1.4385
 9047SOL     OW28560   6.423   6.499   5.291 -0.5457 -0.4431 -0.1116
 9047SOL    HW128561   6.367   6.421   5.295 -2.0529  0.6256  0.6659
 9047SOL    HW228562   6.388   6.557   5.358  1.9607  0.0289  0.8884
 9048SOL     OW28563   0.837   4.343   4.445 -0.5437 -0.4565  0.6484
 9048SOL    HW128564   0.858   4.258   4.406  0.2682 -0.4534  1.0516
 9048SOL    HW228565   0.922   4.381   4.466 -0.8713  0.6938 -0.0038
 9049SOL     OW28566   1.205   2.501   1.538  0.0606  0.3069 -0.2905
 9049SOL    HW128567   1.242   2.493   1.450 -1.0288 -0.3394 -0.7132
 9049SOL    HW228568   1.120   2.542   1.525 -0.3422 -0.2853  0.3919
 9050SOL     OW28569   7.272   2.430   5.378 -0.1710 -0.7599 -0.7072
 9050SOL    HW128570   7.213   2.415   5.452  2.2295  0.4376  1.6086
 9050SOL    HW228571   7.294   2.523   5.384  2.0667 -1.2025 -1.3458
 9051SOL     OW28572   5.836   3.706   1.214 -0.2201 -0.2877 -0.2903
 9051SOL    HW128573   5.875   3.780   1.168 -1.5795  0.5561 -0.1280
 9051SOL    HW228574   5.766   3.675   1.156 -1.2151  0.0833  0.6742
 9052SOL     OW28575   3.958   5.325   0.233  0.0658  0.1305 -0.0399
 9052SOL    HW128576   3.880   5.270   0.236  0.1653  0.0148  0.6245
 9052SOL    HW228577   4.023   5.272   0.187 -0.2219  0.1964 -0.5209
 9053SOL     OW28578   6.171   3.148   4.904  0.0464  0.5526 -0.5809
 9053SOL    HW128579   6.195   3.218   4.842 -0.6560 -0.2908 -1.8606
 9053SOL    HW228580   6.109   3.093   4.855  0.2485 -0.7239  0.5329
 9054SOL     OW28581   7.146   2.985   3.333 -0.2177 -0.4899  0.3127
 9054SOL    HW128582   7.236   3.014   3.316 -0.3070 -0.8331 -0.8275
 9054SOL    HW228583   7.119   2.941   3.252 -1.1409 -1.0808  0.9258
 9055SOL     OW28584   2.493   2.352   7.394  0.4308  0.3087  0.0186
 9055SOL    HW128585   2.544   2.347   7.475 -0.1144  0.7326  0.3989
 9055SOL    HW228586   2.488   2.262   7.363  2.2799  0.3595 -0.5986
 9056SOL     OW28587   6.702   1.136   6.147  0.7005  0.0707 -0.3802
 9056SOL    HW128588   6.775   1.123   6.207  0.7285  1.1575 -0.1631
 9056SOL    HW228589   6.656   1.213   6.180 -0.4594 -0.4972 -0.6060
 9057SOL     OW28590   5.896   0.578   6.367 -0.3533  0.0956 -0.0229
 9057SOL    HW128591   5.952   0.589   6.444  1.4562 -1.1084 -1.0971
 9057SOL    HW228592   5.845   0.659   6.363  0.4805  0.7505  1.6715
 9058SOL     OW28593   6.623   4.265   4.204 -0.3178  0.8441 -0.2269
 9058SOL    HW128594   6.697   4.326   4.191 -0.5538  1.3149  0.5479
 9058SOL    HW228595   6.589   4.288   4.290 -0.3810 -0.4443  0.1092
 9059SOL     OW28596   1.617   6.693   7.191 -0.0511  0.8744  0.3886
 9059SOL    HW128597   1.549   6.750   7.155 -0.1091  0.9769  0.6558
 9059SOL    HW228598   1.670   6.751   7.245 -0.2567  0.6247  0.8602
 9060SOL     OW28599   0.108   4.894   5.373 -0.5740 -0.0754  0.1274
 9060SOL    HW128600   0.026   4.918   5.417 -0.4754 -1.2038  0.9740
 9060SOL    HW228601   0.177   4.926   5.432 -0.4239 -0.5120  0.1916
 9061SOL     OW28602   7.690   8.115   5.289 -0.4186 -0.5171 -0.4326
 9061SOL    HW128603   7.765   8.158   5.330  0.8984 -2.4691 -0.6457
 9061SOL    HW228604   7.680   8.159   5.204  0.2758 -0.0328 -0.2717
 9062SOL     OW28605   6.037   1.363   5.396  0.3581  0.0781  0.0201
 9062SOL    HW128606   5.957   1.415   5.396  0.3105  0.0313 -1.0643
 9062SOL    HW228607   6.064   1.361   5.304 -0.4342 -2.9954 -0.2461
 9063SOL     OW28608   0.938   6.062   6.918  0.4374 -0.8474  0.7759
 9063SOL    HW128609   0.929   6.132   6.983  0.3645 -0.8909  0.8133
 9063SOL    HW228610   1.032   6.052   6.905  0.4279  0.4430 -0.5175
 9064SOL     OW28611   7.240   7.841   8.063 -0.2873  0.2961  0.1619
 9064SOL    HW128612   7.239   7.829   8.158  1.9042 -1.7711  0.0381
 9064SOL    HW228613   7.199   7.761   8.029  2.8033 -1.1197 -0.5963
 9065SOL     OW28614   8.229   1.204   4.912  0.3696  0.4783  0.2778
 9065SOL    HW128615   8.228   1.294   4.880 -0.0242 -0.2390 -1.9166
 9065SOL    HW228616   8.290   1.205   4.986 -0.5995  2.7787  1.1482
 9066SOL     OW28617   8.168   8.224   1.774  0.4040  0.3102  0.7747
 9066SOL    HW128618   8.167   8.191   1.685 -0.4479  2.6209 -0.1473
 9066SOL    HW228619   8.196   8.315   1.766  0.8209  0.4413  2.9359
 9067SOL     OW28620   3.390   6.961   6.343  0.4062 -0.1596  0.0938
 9067SOL    HW128621   3.432   7.022   6.403  0.1706  0.3396 -0.2368
 9067SOL    HW228622   3.451   6.887   6.337  0.8062  0.1489  0.3162
 9068SOL     OW28623   0.924   4.145   4.763  0.2995 -0.1754 -0.0128
 9068SOL    HW128624   0.842   4.096   4.752 -0.1889  0.2537  1.4799
 9068SOL    HW228625   0.898   4.237   4.755  0.4604  0.0056  1.2845
 9069SOL     OW28626   1.970   2.300   1.259 -0.5852  0.3994  0.1770
 9069SOL    HW128627   1.944   2.371   1.200 -0.4957  0.9717  0.8140
 9069SOL    HW228628   2.065   2.297   1.252 -0.7038 -1.6444 -2.0948
 9070SOL     OW28629   0.972   3.836   6.170 -0.9367 -0.1465  0.6321
 9070SOL    HW128630   0.885   3.799   6.182 -1.1420  0.6200  1.6104
 9070SOL    HW228631   0.983   3.843   6.075 -0.0350 -4.7154  0.1395
 9071SOL     OW28632   6.141   4.926   3.079 -0.5918 -0.0848 -0.5345
 9071SOL    HW128633   6.209   4.991   3.058 -1.1114  1.3190  1.7704
 9071SOL    HW228634   6.186   4.862   3.135 -1.0900  0.8057  0.9328
 9072SOL     OW28635   5.603   4.234   0.524  0.2434 -0.2765 -0.4717
 9072SOL    HW128636   5.659   4.157   0.515  1.4350  0.6837 -1.6902
 9072SOL    HW228637   5.595   4.247   0.618  0.7995 -1.3401 -0.2672
 9073SOL     OW28638   6.037   2.792   8.043  0.0988 -0.4536  0.0874
 9073SOL    HW128639   6.077   2.775   7.957 -0.7792 -0.1243 -0.3966
 9073SOL    HW228640   6.046   2.886   8.056 -1.2842 -0.2360 -0.4288
 9074SOL     OW28641   3.810   8.143   1.713 -0.4224  0.5345 -0.0943
 9074SOL    HW128642   3.791   8.106   1.799 -0.7191 -2.5044 -1.3532
 9074SOL    HW228643   3.883   8.091   1.680 -2.7271 -1.0782 -3.1552
 9075SOL     OW28644   0.794   0.927   2.723  0.1527 -0.3132 -0.0262
 9075SOL    HW128645   0.709   0.885   2.708 -0.5703  0.8256  0.7449
 9075SOL    HW228646   0.823   0.890   2.807  0.9387 -1.4960 -0.7961
 9076SOL     OW28647   0.515   5.054   4.864 -0.2039  0.0134 -0.3168
 9076SOL    HW128648   0.560   4.987   4.915 -0.6317  1.2493  1.7720
 9076SOL    HW228649   0.505   5.014   4.777  0.4316 -2.2316  0.5587
 9077SOL     OW28650   2.380   1.058   6.923  0.1392 -0.2062  0.4822
 9077SOL    HW128651   2.337   1.118   6.984 -0.8520 -0.8145  0.4163
 9077SOL    HW228652   2.320   0.983   6.918  0.2682 -0.2272 -1.1344
 9078SOL     OW28653   2.869   2.383   1.199 -0.1436  0.1204  0.5804
 9078SOL    HW128654   2.855   2.421   1.286 -1.6504  1.1562 -0.0686
 9078SOL    HW228655   2.781   2.381   1.160  0.6328  0.6148 -1.2937
 9079SOL     OW28656   5.248   2.492   5.430 -0.2782 -0.4368  0.3197
 9079SOL    HW128657   5.193   2.530   5.499 -0.7651 -1.0587  0.2779
 9079SOL    HW228658   5.336   2.493   5.467 -0.0543  1.8080 -0.1154
 9080SOL     OW28659   4.175   1.781   0.041  0.1614  0.2534 -0.3539
 9080SOL    HW128660   4.165   1.764  -0.053 -2.2616 -2.4686  0.2436
 9080SOL    HW228661   4.139   1.869   0.054  0.7359  0.7628 -1.9622
 9081SOL     OW28662   7.350   0.979   7.569 -0.0197  0.0603  0.1978
 9081SOL    HW128663   7.369   1.049   7.632  1.9324  1.4739 -1.8225
 9081SOL    HW228664   7.432   0.928   7.566  0.0634  0.2529 -1.4329
 9082SOL     OW28665   3.378   2.891   1.322  0.4995 -0.3407  0.5966
 9082SOL    HW128666   3.301   2.924   1.275  1.3733  0.4683 -0.3215
 9082SOL    HW228667   3.426   2.970   1.347  1.2180 -0.8469  0.8244
 9083SOL     OW28668   5.524   0.758   1.281  0.1822  0.1223 -0.1673
 9083SOL    HW128669   5.492   0.773   1.370 -1.6502  0.8020 -0.8856
 9083SOL    HW228670   5.553   0.667   1.280 -1.3547 -0.4154  0.6951
 9084SOL     OW28671   2.061   3.383   7.465  0.3269  0.4125  0.5839
 9084SOL    HW128672   2.105   3.438   7.530 -0.0963  1.1961  0.2137
 9084SOL    HW228673   2.011   3.444   7.411  0.1709 -0.2930 -0.0909
 9085SOL     OW28674   1.162   4.770   6.254  0.2382  0.1546  0.1229
 9085SOL    HW128675   1.067   4.780   6.263  0.1884 -0.9331  0.9555
 9085SOL    HW228676   1.191   4.855   6.221 -1.0061  0.5463 -0.0346
 9086SOL     OW28677   7.009   1.399   7.965 -0.0001  0.4688 -0.0417
 9086SOL    HW128678   7.038   1.381   7.876 -0.7655 -1.3798  0.0395
 9086SOL    HW228679   7.063   1.473   7.993  1.4762 -0.0248 -1.4135
 9087SOL     OW28680   1.959   1.002   7.925  0.4635 -0.0663  0.2213
 9087SOL    HW128681   2.037   0.981   7.977  0.2708  3.7126  2.4518
 9087SOL    HW228682   1.886   0.984   7.984  0.0197  1.1281  0.0635
 9088SOL     OW28683   4.923   5.629   8.095 -0.0068  0.1937  0.1390
 9088SOL    HW128684   4.906   5.711   8.050  2.5030  0.9341  0.4363
 9088SOL    HW228685   4.942   5.566   8.025 -0.8236  0.1055 -0.0223
 9089SOL     OW28686   0.371   6.691   0.628 -0.4282 -0.1733  0.2011
 9089SOL    HW128687   0.298   6.696   0.689  0.6282  0.0040  1.5074
 9089SOL    HW228688   0.426   6.767   0.651 -0.2535  0.1964 -1.3263
 9090SOL     OW28689   4.731   3.301   6.143 -0.3606  0.0683  0.9426
 9090SOL    HW128690   4.768   3.332   6.226 -2.0896 -0.9641  2.1691
 9090SOL    HW228691   4.703   3.381   6.098 -1.3750  0.5587  2.3635
 9091SOL     OW28692   0.224   4.633   5.055 -0.4156 -0.0224  0.4475
 9091SOL    HW128693   0.131   4.628   5.033  0.1336 -0.9609 -1.9460
 9091SOL    HW228694   0.268   4.585   4.985  1.9262  0.7458  1.2968
 9092SOL     OW28695   6.848   6.212   7.827  0.6526  0.0579  0.7687
 9092SOL    HW128696   6.872   6.119   7.817  0.6734  0.0776  0.6317
 9092SOL    HW228697   6.757   6.216   7.798  1.0123  0.2915 -0.3919
 9093SOL     OW28698   0.816   1.688   0.417  0.1065  0.2244 -0.1118
 9093SOL    HW128699   0.862   1.760   0.374 -0.2213 -0.5588 -1.8688
 9093SOL    HW228700   0.736   1.676   0.365 -0.8635 -0.0838  1.3826
 9094SOL     OW28701   3.238   8.255   0.049  0.3148  0.0916  0.4556
 9094SOL    HW128702   3.296   8.234   0.121 -0.0876  0.6980  0.9714
 9094SOL    HW228703   3.151   8.230   0.080  0.1142  0.5312  0.2590
 9095SOL     OW28704   0.250   3.448   6.972 -0.4569  0.3950 -0.3087
 9095SOL    HW128705   0.253   3.501   7.051 -0.6941 -0.8839  0.5969
 9095SOL    HW228706   0.234   3.510   6.901 -0.6489  1.5150  0.6937
 9096SOL     OW28707   5.964   4.684   6.735  0.1437 -0.5014 -0.0358
 9096SOL    HW128708   5.958   4.681   6.831 -0.6705  0.1563 -0.0573
 9096SOL    HW228709   6.052   4.720   6.719  0.5197 -1.1690  0.4429
 9097SOL     OW28710   2.249   2.990   3.640  0.2550  0.5737 -0.2077
 9097SOL    HW128711   2.323   2.961   3.692 -1.0811 -1.3826  0.6810
 9097SOL    HW228712   2.200   3.048   3.698  0.1170  0.4249 -0.1768
 9098SOL     OW28713   7.628   2.921   7.965  0.0319 -0.2349  0.3459
 9098SOL    HW128714   7.587   2.984   8.025  1.1765  2.5850 -1.5848
 9098SOL    HW228715   7.556   2.866   7.935 -1.8192  2.3388 -0.3406
 9099SOL     OW28716   8.037   6.640   0.465  0.5068  0.5807 -0.1943
 9099SOL    HW128717   7.951   6.678   0.453 -0.4640 -1.0361  1.0789
 9099SOL    HW228718   8.039   6.565   0.406  0.9993  0.5451 -0.1401
 9100SOL     OW28719   7.584   8.044   1.784  0.0867 -0.1875 -0.1780
 9100SOL    HW128720   7.605   8.129   1.823  4.8288 -0.4397 -1.5538
 9100SOL    HW228721   7.576   8.062   1.691 -1.8946 -0.9256 -0.1961
 9101SOL     OW28722   5.904   1.574   3.886  0.3780  0.2252  0.6753
 9101SOL    HW128723   5.818   1.616   3.883 -0.5696 -1.6139 -0.1421
 9101SOL    HW228724   5.949   1.606   3.808 -0.4325 -0.4286 -0.0889
 9102SOL     OW28725   4.168   6.703   1.079  0.0983  0.3793  0.4171
 9102SOL    HW128726   4.099   6.670   1.022 -0.5766  1.5948  0.4958
 9102SOL    HW228727   4.204   6.778   1.032  0.0514  0.9370  1.2507
 9103SOL     OW28728   0.076   0.443   0.293  0.3969  0.1657  0.1580
 9103SOL    HW128729   0.093   0.527   0.251  0.8147 -0.6963 -1.5004
 9103SOL    HW228730  -0.012   0.419   0.264 -0.0923  0.4244  1.3628
 9104SOL     OW28731   2.878   6.831   6.273  0.3500 -0.1731 -0.4780
 9104SOL    HW128732   2.891   6.770   6.200  1.3761  0.4978 -0.8765
 9104SOL    HW228733   2.899   6.779   6.351  1.3825 -0.3074 -0.8245
 9105SOL     OW28734   7.828   7.724   8.191 -0.6161  0.6935  0.2779
 9105SOL    HW128735   7.855   7.633   8.200 -1.8992  0.2633  0.0039
 9105SOL    HW228736   7.778   7.743   8.271 -1.0143  0.8961 -0.0116
 9106SOL     OW28737   5.939   6.558   1.387 -0.0266 -0.0129 -0.0610
 9106SOL    HW128738   5.949   6.487   1.451  0.1258 -0.3150 -0.4185
 9106SOL    HW228739   5.863   6.532   1.334  0.3646 -0.1814 -0.5439
 9107SOL     OW28740   5.869   2.143   2.855  0.3901  0.1023  0.1099
 9107SOL    HW128741   5.892   2.231   2.827  1.8847 -0.0147  0.8579
 9107SOL    HW228742   5.939   2.118   2.915 -1.8598 -0.2411  2.7674
 9108SOL     OW28743   0.134   7.672   5.553  0.0406  0.2312 -0.1293
 9108SOL    HW128744   0.080   7.722   5.615  0.6913  0.4461  0.2774
 9108SOL    HW228745   0.141   7.585   5.593  1.7903  0.8076  0.9663
 9109SOL     OW28746   1.058   1.804   7.552 -0.3011 -0.1816 -0.1887
 9109SOL    HW128747   1.058   1.866   7.478 -2.3054 -0.8658 -0.8165
 9109SOL    HW228748   0.981   1.827   7.603  0.2115 -0.7212  0.8682
 9110SOL     OW28749   1.130   3.728   4.335  0.3104 -0.0858  0.2379
 9110SOL    HW128750   1.070   3.671   4.286  1.3211 -1.2203  0.2579
 9110SOL    HW228751   1.084   3.747   4.416 -1.1955  1.4336 -0.9054
 9111SOL     OW28752   0.017   1.778   2.127  0.1507 -0.6950 -0.0237
 9111SOL    HW128753   0.045   1.774   2.036  1.8384  1.4835  0.3220
 9111SOL    HW228754  -0.065   1.826   2.126 -0.0475 -1.0436 -0.4326
 9112SOL     OW28755   4.798   1.356   2.675  0.4003 -0.2608  0.2693
 9112SOL    HW128756   4.820   1.267   2.700  1.0001 -0.1127  0.3013
 9112SOL    HW228757   4.725   1.380   2.732 -1.1756 -1.4268 -1.1418
 9113SOL     OW28758   2.608   0.001   5.125  0.3426 -0.0300  0.2478
 9113SOL    HW128759   2.638   0.010   5.035  1.2293  1.1072  0.6421
 9113SOL    HW228760   2.575   0.087   5.149 -1.5063 -0.7484  0.4782
 9114SOL     OW28761   0.988   3.081   3.566 -0.3359 -0.3867 -0.1912
 9114SOL    HW128762   0.922   3.129   3.616  0.3299 -0.4856  0.7985
 9114SOL    HW228763   1.063   3.140   3.563 -0.5217 -0.1917 -1.4891
 9115SOL     OW28764   3.552   3.950   4.794 -0.3735  0.2314  0.2095
 9115SOL    HW128765   3.546   3.878   4.731 -2.5565  1.9727 -1.7323
 9115SOL    HW228766   3.534   3.909   4.878  0.5843 -1.8387 -0.5214
 9116SOL     OW28767   6.838   2.424   2.030  0.3962  0.4189  0.6035
 9116SOL    HW128768   6.790   2.476   1.965  0.2915  0.2843  0.5736
 9116SOL    HW228769   6.895   2.367   1.979 -0.4151 -0.4080  0.5888
 9117SOL     OW28770   3.260   5.721   7.611  0.6830  0.1782 -0.2523
 9117SOL    HW128771   3.198   5.648   7.619  2.0234 -0.9617  0.0349
 9117SOL    HW228772   3.267   5.756   7.700 -1.4625  2.0094 -0.7067
 9118SOL     OW28773   1.276   5.833   5.760 -0.7861 -0.4494  0.9799
 9118SOL    HW128774   1.362   5.853   5.723 -1.1364 -2.5339 -1.2640
 9118SOL    HW228775   1.290   5.752   5.809 -1.5915 -1.2820 -0.1285
 9119SOL     OW28776   8.174   1.209   1.517  0.1840  0.1324 -0.7457
 9119SOL    HW128777   8.103   1.272   1.525 -1.1729 -1.3551 -0.4354
 9119SOL    HW228778   8.222   1.236   1.438  0.1148  1.9391 -0.2111
 9120SOL     OW28779   2.428   5.712   5.662 -0.0318  0.1027  0.2150
 9120SOL    HW128780   2.496   5.664   5.615  0.0974  1.9155 -1.5600
 9120SOL    HW228781   2.474   5.786   5.702 -0.4955 -0.2927  1.5171
 9121SOL     OW28782   0.773   5.960   2.936  0.6334  0.5225 -0.5924
 9121SOL    HW128783   0.712   5.945   3.009  1.2957  0.2616 -0.0856
 9121SOL    HW228784   0.724   6.016   2.876  0.2121  1.0641  0.2350
 9122SOL     OW28785   6.435   7.606   6.105 -0.4649  0.3564 -0.2708
 9122SOL    HW128786   6.507   7.640   6.053 -1.3492  0.1077 -1.7240
 9122SOL    HW228787   6.389   7.684   6.136 -0.5483  0.5130 -0.7788
 9123SOL     OW28788   1.573   4.305   4.209  0.1000 -0.1668  0.6040
 9123SOL    HW128789   1.652   4.266   4.171 -0.6165 -0.8308 -0.2699
 9123SOL    HW228790   1.578   4.285   4.302 -0.3585 -2.6657  0.1593
 9124SOL     OW28791   6.851   1.323   2.996  0.0753  0.2596  0.4215
 9124SOL    HW128792   6.859   1.274   2.914  0.5976  0.9141  0.0744
 9124SOL    HW228793   6.828   1.412   2.969  1.0922  0.6963  0.9311
 9125SOL     OW28794   3.219   2.142   7.600 -0.6069 -0.1829 -0.5241
 9125SOL    HW128795   3.257   2.182   7.677 -2.2675  0.3654  0.0697
 9125SOL    HW228796   3.272   2.175   7.527 -0.3913  1.1093  0.1838
 9126SOL     OW28797   7.652   4.048   7.029  0.0152 -0.3141 -0.3094
 9126SOL    HW128798   7.556   4.043   7.022 -0.0761  0.6993 -0.0303
 9126SOL    HW228799   7.684   4.023   6.943 -0.6093  1.3759 -1.0817
 9127SOL     OW28800   4.974   2.877   1.467 -0.0640 -0.2815  1.0779
 9127SOL    HW128801   5.041   2.823   1.425 -0.8851 -0.0633 -0.5783
 9127SOL    HW228802   4.892   2.831   1.450 -0.3706 -0.5590  3.1123
 9128SOL     OW28803   0.139   0.058   6.009  0.5251 -0.5621 -0.0286
 9128SOL    HW128804   0.132   0.045   5.914  0.2033  1.3631 -0.3189
 9128SOL    HW228805   0.059   0.020   6.045 -1.7587  2.7342 -1.0949
 9129SOL     OW28806   7.457   2.132   0.955 -0.3744 -0.5565 -0.1678
 9129SOL    HW128807   7.451   2.061   0.891 -0.7606 -0.8581  0.1974
 9129SOL    HW228808   7.491   2.207   0.905  1.9531 -1.5296 -0.1224
 9130SOL     OW28809   3.651   5.310   7.758  0.1964 -0.0538 -0.8400
 9130SOL    HW128810   3.712   5.315   7.832  0.2421 -0.7940 -0.8215
 9130SOL    HW228811   3.569   5.347   7.792 -0.7477 -3.1607  0.6131
 9131SOL     OW28812   6.757   1.089   1.659 -0.0888  0.0765  0.0405
 9131SOL    HW128813   6.686   1.036   1.625 -1.2556  1.9895 -0.6669
 9131SOL    HW228814   6.824   1.087   1.590  0.1814 -0.9872  0.3176
 9132SOL     OW28815   5.026   0.926   1.647  0.1260 -0.0891 -0.4026
 9132SOL    HW128816   5.043   0.840   1.610  0.2671 -0.1559 -0.1876
 9132SOL    HW228817   5.055   0.988   1.581 -0.8699 -0.2032 -0.9651
 9133SOL     OW28818   1.340   2.900   4.523 -0.3870 -0.4533 -0.0451
 9133SOL    HW128819   1.399   2.890   4.449 -0.7605 -0.7161 -0.3146
 9133SOL    HW228820   1.367   2.981   4.565 -0.2991 -0.1952 -0.5870
 9134SOL     OW28821   2.861   6.072   4.395  0.2082  0.1039 -0.5625
 9134SOL    HW128822   2.827   6.007   4.457  0.8222 -1.1463 -1.4820
 9134SOL    HW228823   2.845   6.033   4.309  0.3842  1.2956 -1.1535
 9135SOL     OW28824   6.122   7.237   5.982  0.4799  0.0323 -0.4811
 9135SOL    HW128825   6.047   7.264   5.929 -0.6553 -0.6903  0.6781
 9135SOL    HW228826   6.103   7.146   6.005  0.5391  0.5338  1.7722
 9136SOL     OW28827   2.242   3.768   4.031 -0.0751 -0.1411  0.1198
 9136SOL    HW128828   2.272   3.822   4.104  2.4730  0.3311 -1.1449
 9136SOL    HW228829   2.167   3.815   3.994  1.8188  2.4668 -0.7065
 9137SOL     OW28830   4.114   5.917   4.379  0.3722 -0.0270 -0.7398
 9137SOL    HW128831   4.136   5.828   4.355  0.7208  0.1817 -1.2053
 9137SOL    HW228832   4.060   5.949   4.306  1.3278  0.5682 -1.1989
 9138SOL     OW28833   5.116   4.902   0.468 -0.6470  0.3565  0.0606
 9138SOL    HW128834   5.095   4.847   0.543  0.8183 -0.9635 -0.4396
 9138SOL    HW228835   5.043   4.889   0.408 -0.8978 -0.1068  0.4579
 9139SOL     OW28836   6.022   2.672   0.304  0.3512  0.4136  0.3688
 9139SOL    HW128837   6.017   2.698   0.212 -1.0513  0.2623  0.3774
 9139SOL    HW228838   5.998   2.752   0.352  0.8728  0.4345  0.6006
 9140SOL     OW28839   6.285   6.103   3.932 -0.0069  0.4772 -0.0498
 9140SOL    HW128840   6.276   6.148   3.848  1.2778  0.8520 -0.0174
 9140SOL    HW228841   6.267   6.171   3.997  1.0832  0.7544 -0.0132
 9141SOL     OW28842   0.812   6.958   0.619 -0.2999 -0.4259 -0.2290
 9141SOL    HW128843   0.896   6.921   0.590 -0.9610 -0.6333 -1.9751
 9141SOL    HW228844   0.837   7.032   0.674  1.0998  0.7075 -2.2340
 9142SOL     OW28845   5.575   5.338   5.589  0.4848  0.0886  0.0801
 9142SOL    HW128846   5.591   5.247   5.610 -2.1376 -0.3011  0.8393
 9142SOL    HW228847   5.552   5.338   5.496 -0.2916 -0.1664  0.2674
 9143SOL     OW28848   4.150   4.787   1.784  0.6124  0.0871 -0.5107
 9143SOL    HW128849   4.085   4.720   1.761  2.6426 -2.3385  0.3274
 9143SOL    HW228850   4.211   4.788   1.710  0.5608  1.1346 -0.5558
 9144SOL     OW28851   6.517   0.891   1.899  0.0010 -0.2471  0.3137
 9144SOL    HW128852   6.604   0.930   1.902  0.5494 -1.4068  0.2816
 9144SOL    HW228853   6.520   0.821   1.965 -0.7113 -0.6599 -0.0824
 9145SOL     OW28854   6.857   6.909   3.067 -0.7125  0.5591  0.5826
 9145SOL    HW128855   6.805   6.829   3.063  0.9443 -0.5795  0.9577
 9145SOL    HW228856   6.792   6.979   3.068 -2.2041 -0.7007 -0.7797
 9146SOL     OW28857   1.537   2.380   5.276 -0.5567  0.7271 -0.1549
 9146SOL    HW128858   1.601   2.340   5.335  2.0502  2.5407 -1.5759
 9146SOL    HW228859   1.497   2.450   5.328 -2.2214 -1.0187  1.0490
 9147SOL     OW28860   6.445   7.807   7.523 -0.4167  0.1383 -0.1630
 9147SOL    HW128861   6.374   7.748   7.497  0.4011  0.3501 -3.2666
 9147SOL    HW228862   6.446   7.802   7.618 -3.7237 -0.8556 -0.0427
 9148SOL     OW28863   7.532   0.258   0.828 -0.1411 -0.0954 -0.3638
 9148SOL    HW128864   7.541   0.264   0.733  1.1384  2.3986 -0.1726
 9148SOL    HW228865   7.439   0.240   0.842 -0.6591  0.9800 -2.0785
 9149SOL     OW28866   6.947   6.544   1.378  0.3500 -0.0618  0.5378
 9149SOL    HW128867   7.027   6.594   1.392  0.6595 -0.4437  0.1513
 9149SOL    HW228868   6.975   6.453   1.379  0.0297 -0.1778 -0.2733
 9150SOL     OW28869   6.483   2.830   3.302 -0.3435 -0.0575  0.3519
 9150SOL    HW128870   6.501   2.898   3.237 -0.3708  0.0871  0.4939
 9150SOL    HW228871   6.436   2.876   3.371  0.7646  0.0600  1.0515
 9151SOL     OW28872   5.996   5.461   0.344  0.1906  0.3787  0.3001
 9151SOL    HW128873   6.071   5.462   0.284 -0.1378 -0.2186 -0.1265
 9151SOL    HW228874   6.010   5.537   0.400 -0.1831  1.7632 -1.3874
 9152SOL     OW28875   3.940   8.253   0.482  0.4630 -0.6017  0.4776
 9152SOL    HW128876   3.971   8.162   0.487 -1.8581 -1.5603 -0.9289
 9152SOL    HW228877   3.846   8.247   0.501  0.0969  1.3860 -0.4605
 9153SOL     OW28878   5.969   2.888   2.768  0.5789 -0.5027 -0.1135
 9153SOL    HW128879   6.045   2.883   2.710  0.1468  1.0274 -0.8442
 9153SOL    HW228880   5.990   2.958   2.830 -0.0015 -0.4442  0.0223
 9154SOL     OW28881   0.828   7.460   5.025 -0.1949  0.3149 -0.2966
 9154SOL    HW128882   0.832   7.529   5.091  2.9820  0.3073 -0.3163
 9154SOL    HW228883   0.740   7.467   4.988 -1.3522  1.7002  2.4215
 9155SOL     OW28884   3.921   0.339   4.856  0.1033  0.4721  0.2833
 9155SOL    HW128885   3.897   0.259   4.808  0.9420  0.9110 -0.9190
 9155SOL    HW228886   3.986   0.381   4.800 -0.6275  2.2169  0.6997
 9156SOL     OW28887   6.761   1.640   3.126 -0.0179 -0.1325 -0.1293
 9156SOL    HW128888   6.775   1.695   3.202  1.3562  0.4362 -0.7557
 9156SOL    HW228889   6.672   1.606   3.136 -0.3432  1.0031  1.0231
 9157SOL     OW28890   1.226   6.154   3.500  0.4546  0.0567 -0.5916
 9157SOL    HW128891   1.289   6.142   3.571  2.2039  4.2677 -1.0631
 9157SOL    HW228892   1.281   6.163   3.421 -1.1473 -0.7270 -1.8542
 9158SOL     OW28893   2.578   1.974   3.843  0.0145  0.2823  0.1973
 9158SOL    HW128894   2.497   2.022   3.827 -0.5169  0.1160  2.1389
 9158SOL    HW228895   2.549   1.889   3.877  0.9730  0.3845  1.3546
 9159SOL     OW28896   3.553   2.465   5.440 -0.5158  0.0857  0.0314
 9159SOL    HW128897   3.492   2.400   5.476 -0.3615 -0.8950 -1.4015
 9159SOL    HW228898   3.614   2.413   5.387  1.6969  1.0179  1.5394
 9160SOL     OW28899   0.999   3.613   6.374  0.2017 -0.1024 -0.1093
 9160SOL    HW128900   1.078   3.562   6.391  0.3238 -0.4070 -1.4673
 9160SOL    HW228901   1.031   3.701   6.354  0.2148 -0.2190 -0.6311
 9161SOL     OW28902   2.208   5.849   2.094  0.4669  0.0316  0.2454
 9161SOL    HW128903   2.161   5.930   2.077  2.9245  1.5585  0.2660
 9161SOL    HW228904   2.209   5.804   2.010  0.7207  0.9698 -0.2691
 9162SOL     OW28905   5.472   3.759   2.828 -0.8679  0.8086 -0.1683
 9162SOL    HW128906   5.440   3.737   2.741  0.2817  2.7529 -1.1415
 9162SOL    HW228907   5.395   3.752   2.884 -2.1055  1.5353 -1.7049
 9163SOL     OW28908   2.639   7.299   2.663 -0.3808 -0.2017 -0.0787
 9163SOL    HW128909   2.669   7.292   2.754  0.8106 -0.8843 -0.5015
 9163SOL    HW228910   2.614   7.210   2.639 -1.1722  0.0636 -0.2792
 9164SOL     OW28911   2.649   5.500   1.231 -0.7271 -0.6221  0.5292
 9164SOL    HW128912   2.695   5.520   1.149  1.4314 -0.5201  1.7042
 9164SOL    HW228913   2.569   5.455   1.203  0.9190 -2.4772 -1.5932
 9165SOL     OW28914   2.369   0.805   4.167  0.0486  0.0631 -0.1941
 9165SOL    HW128915   2.463   0.819   4.182  0.0035 -0.0447  0.1944
 9165SOL    HW228916   2.356   0.711   4.178  0.4644 -0.5085 -3.4621
 9166SOL     OW28917   7.687   7.509   6.486  0.2543  0.5350  0.8588
 9166SOL    HW128918   7.636   7.553   6.554  0.8629  0.8222  1.1329
 9166SOL    HW228919   7.663   7.416   6.495  1.1679  0.4028  2.2163
 9167SOL     OW28920   2.563   6.051   4.682 -0.0684 -0.2805  0.2533
 9167SOL    HW128921   2.634   5.989   4.671  0.9848  1.1810 -1.9314
 9167SOL    HW228922   2.544   6.082   4.593 -1.6407  1.3073  1.0769
 9168SOL     OW28923   2.464   4.744   3.924 -0.7586  0.0120 -0.1252
 9168SOL    HW128924   2.495   4.656   3.945 -0.9089 -0.0931 -0.3292
 9168SOL    HW228925   2.383   4.754   3.974 -2.6588 -1.3101 -2.6712
 9169SOL     OW28926   3.513   5.080   4.255  0.0453 -0.3806 -0.1937
 9169SOL    HW128927   3.511   5.015   4.325  3.5298 -0.2928  0.1261
 9169SOL    HW228928   3.472   5.158   4.294  0.6848 -0.7556  1.2803
 9170SOL     OW28929   2.240   0.742   3.599 -0.2302  0.3714  0.4908
 9170SOL    HW128930   2.232   0.837   3.592 -1.5705  0.4274  2.1260
 9170SOL    HW228931   2.237   0.724   3.693  1.0492 -1.2308  0.2725
 9171SOL     OW28932   2.054   5.608   0.122  0.2983 -0.1941 -0.3817
 9171SOL    HW128933   1.959   5.596   0.124  0.5419 -2.4612  0.1531
 9171SOL    HW228934   2.068   5.692   0.164 -1.4860  0.2799 -0.6461
 9172SOL     OW28935   7.457   4.612   1.723 -0.5309  0.4785 -0.4290
 9172SOL    HW128936   7.422   4.543   1.780 -0.9428  1.5405  0.6296
 9172SOL    HW228937   7.489   4.565   1.646 -3.2739 -0.6871 -0.9760
 9173SOL     OW28938   4.305   2.019   1.955  0.3000  0.2532 -0.1091
 9173SOL    HW128939   4.291   2.095   2.010 -0.0317  0.5427 -0.5913
 9173SOL    HW228940   4.329   2.055   1.870  2.9987 -0.1754  0.3660
 9174SOL     OW28941   5.547   1.578   1.598  0.2090  0.4223  0.1796
 9174SOL    HW128942   5.508   1.546   1.679  1.4875 -0.2573  0.5688
 9174SOL    HW228943   5.473   1.607   1.544 -1.0107 -2.4516  0.1222
 9175SOL     OW28944   7.881   2.549   5.676  0.1461 -0.9481 -0.4139
 9175SOL    HW128945   7.847   2.582   5.593  0.6356 -0.3070 -0.3713
 9175SOL    HW228946   7.971   2.582   5.680  0.2839 -1.3749  0.1485
 9176SOL     OW28947   3.312   6.949   3.751 -0.6110  0.2629 -0.4586
 9176SOL    HW128948   3.258   6.979   3.824 -0.7777 -1.7880  0.3305
 9176SOL    HW228949   3.268   6.870   3.720  1.1258 -0.6476 -0.7441
 9177SOL     OW28950   5.492   5.237   1.565 -0.1937  0.2025  0.1827
 9177SOL    HW128951   5.494   5.144   1.546 -2.4822  0.4264 -1.4837
 9177SOL    HW228952   5.553   5.247   1.639 -0.8499 -2.7815  1.2940
 9178SOL     OW28953   6.281   7.869   3.457  0.1420 -0.5355  0.0095
 9178SOL    HW128954   6.283   7.777   3.430 -0.8828 -0.0774 -1.8029
 9178SOL    HW228955   6.200   7.903   3.419  0.9971  1.3660 -0.2147
 9179SOL     OW28956   5.466   1.176   3.503  0.1209 -0.7388  0.3425
 9179SOL    HW128957   5.496   1.123   3.429 -0.8221 -1.1061  0.1971
 9179SOL    HW228958   5.372   1.189   3.486 -0.2734 -1.4127  1.8121
 9180SOL     OW28959   4.088   6.872   2.783 -0.1595  0.1543 -0.1850
 9180SOL    HW128960   4.125   6.935   2.844  0.4699 -0.4876  0.1077
 9180SOL    HW228961   4.056   6.801   2.838  1.6621 -1.0830 -0.6435
 9181SOL     OW28962   0.827   5.516   8.023  0.3076 -0.5965 -0.3263
 9181SOL    HW128963   0.760   5.450   8.041 -1.5977  1.4592  0.4733
 9181SOL    HW228964   0.848   5.504   7.930 -1.8287 -0.7459 -0.8345
 9182SOL     OW28965   5.669   0.732   3.659 -0.7395 -0.3075  0.2413
 9182SOL    HW128966   5.712   0.809   3.621 -0.7437  0.4789  1.7283
 9182SOL    HW228967   5.730   0.660   3.642  0.6936  0.5791  1.3395
 9183SOL     OW28968   0.703   4.726   6.543 -0.4386  0.4267 -0.3771
 9183SOL    HW128969   0.630   4.711   6.483 -1.4223 -0.0425  0.9017
 9183SOL    HW228970   0.665   4.775   6.615  0.4072 -0.2248  0.5293
 9184SOL     OW28971   8.298   0.383   7.438  0.2724  0.5972  0.8053
 9184SOL    HW128972   8.208   0.357   7.418  0.7573  1.3075 -2.9972
 9184SOL    HW228973   8.290   0.455   7.500 -1.7307  0.3036  0.9364
 9185SOL     OW28974   5.853   2.659   3.685  1.0026 -0.8107  0.0950
 9185SOL    HW128975   5.806   2.695   3.610 -1.1447  0.8472  2.0569
 9185SOL    HW228976   5.823   2.568   3.691 -1.6945  0.0398  0.9334
 9186SOL     OW28977   7.466   4.840   3.644 -0.7403 -0.0954 -0.4710
 9186SOL    HW128978   7.503   4.772   3.588 -0.9616  0.2881 -1.0875
 9186SOL    HW228979   7.539   4.900   3.661 -0.6826 -0.1917 -0.3834
 9187SOL     OW28980   5.156   0.534   8.103 -0.8338  0.1312  0.1864
 9187SOL    HW128981   5.066   0.535   8.137  0.3865 -0.0795  3.8792
 9187SOL    HW228982   5.195   0.615   8.136  0.7073 -0.4003 -0.2524
 9188SOL     OW28983   3.907   5.117   7.752 -0.1225 -0.5297  0.2699
 9188SOL    HW128984   3.890   5.104   7.659 -0.7038 -0.7296  0.4033
 9188SOL    HW228985   3.888   5.033   7.792  0.8753 -0.6683  0.4719
 9189SOL     OW28986   3.995   7.462   6.935 -0.4096  0.2280 -0.4130
 9189SOL    HW128987   4.043   7.383   6.962 -1.1732 -0.0751  0.1064
 9189SOL    HW228988   3.947   7.489   7.013  0.6082  1.8066 -0.2952
 9190SOL     OW28989   0.233   2.043   3.777  0.7359 -0.0140  0.3905
 9190SOL    HW128990   0.278   1.968   3.737  0.4911  0.6971 -1.2889
 9190SOL    HW228991   0.205   2.096   3.703 -0.6283  0.8683  1.4983
 9191SOL     OW28992   0.924   1.779   4.498 -0.3301 -0.0393  0.4867
 9191SOL    HW128993   0.982   1.801   4.425  0.8572 -1.5991  0.9200
 9191SOL    HW228994   0.922   1.859   4.551  0.3123  0.4945 -0.2634
 9192SOL     OW28995   3.611   6.214   8.338  0.2794 -0.1378  0.1876
 9192SOL    HW128996   3.689   6.260   8.307  0.7467 -0.2708  1.1406
 9192SOL    HW228997   3.576   6.171   8.260  0.0393  1.5129 -0.6674
 9193SOL     OW28998   1.409   3.676   1.997  0.5184  0.4655 -0.5561
 9193SOL    HW128999   1.374   3.745   1.939  2.4378  2.4432  0.5094
 9193SOL    HW229000   1.340   3.663   2.062 -0.8588 -0.4063 -2.0926
 9194SOL     OW29001   1.203   4.535   4.903  0.5711 -0.0362  0.1090
 9194SOL    HW129002   1.160   4.616   4.874  2.7767  0.4725 -2.0412
 9194SOL    HW229003   1.131   4.479   4.932 -1.0181  2.8540  2.3420
 9195SOL     OW29004   2.743   3.397   4.500 -0.5362 -0.0026 -0.4134
 9195SOL    HW129005   2.838   3.394   4.512 -0.6692  1.1671  1.2453
 9195SOL    HW229006   2.716   3.305   4.493  0.7321 -0.3316 -1.2436
 9196SOL     OW29007   7.633   5.279   5.686 -0.3518 -0.3928  0.1992
 9196SOL    HW129008   7.712   5.247   5.643 -1.3000  0.4323 -2.2933
 9196SOL    HW229009   7.627   5.371   5.660 -1.7182 -0.2269  1.0000
 9197SOL     OW29010   0.516   0.846   0.777  0.5735  0.0374 -0.1427
 9197SOL    HW129011   0.426   0.870   0.756  0.0597 -0.5674  1.2446
 9197SOL    HW229012   0.567   0.877   0.702 -0.7941  0.2579 -1.0257
 9198SOL     OW29013   2.615   1.727   7.991 -0.1395  0.2531  0.4520
 9198SOL    HW129014   2.669   1.755   7.917 -0.7567  1.5453  0.4573
 9198SOL    HW229015   2.656   1.767   8.068  0.9763 -1.7453  0.9736
 9199SOL     OW29016   4.695   5.236   1.512 -0.5300 -0.0481 -0.5147
 9199SOL    HW129017   4.658   5.189   1.587 -0.0887  1.1698  0.5191
 9199SOL    HW229018   4.655   5.323   1.517 -1.0584 -0.1653 -2.1552
 9200SOL     OW29019   2.417   8.113   2.240  0.0012  0.4349 -0.1561
 9200SOL    HW129020   2.501   8.082   2.207 -1.0982 -0.7376 -2.0683
 9200SOL    HW229021   2.431   8.206   2.259  2.0485 -0.0414  0.8778
 9201SOL     OW29022   7.390   1.842   6.204 -0.1856 -0.1261 -0.3811
 9201SOL    HW129023   7.335   1.897   6.148 -1.1025 -0.8184 -0.1902
 9201SOL    HW229024   7.330   1.776   6.238  0.8885 -1.2753 -0.6335
 9202SOL     OW29025   7.499   3.376   1.025 -0.8034  0.4957 -0.0079
 9202SOL    HW129026   7.526   3.294   1.066  2.0942  0.5951 -1.4994
 9202SOL    HW229027   7.559   3.387   0.952 -1.8061  3.4288 -0.4975
 9203SOL     OW29028   7.408   6.776   0.167  0.2229 -0.2163 -0.2081
 9203SOL    HW129029   7.461   6.717   0.221  1.2965 -0.1996 -1.1939
 9203SOL    HW229030   7.463   6.854   0.157 -0.4652  0.2551 -0.3352
 9204SOL     OW29031   6.984   6.421   6.660  0.3204 -0.1949 -0.0351
 9204SOL    HW129032   7.028   6.506   6.652  1.7628 -0.8638  0.6041
 9204SOL    HW229033   7.024   6.379   6.736 -0.2847 -1.5067 -0.4085
 9205SOL     OW29034   4.499   1.256   2.483  0.5133  0.2476 -0.1034
 9205SOL    HW129035   4.509   1.166   2.512 -0.5088 -0.2946 -1.3194
 9205SOL    HW229036   4.444   1.250   2.404 -1.2719  2.0846  0.8786
 9206SOL     OW29037   2.000   5.680   3.591  0.5619  0.1314 -0.1603
 9206SOL    HW129038   2.086   5.710   3.562  0.7095  0.5793  0.7281
 9206SOL    HW229039   1.944   5.687   3.513  1.2143  0.2537 -0.6219
 9207SOL     OW29040   0.914   1.856   5.683 -0.1355 -0.6047 -0.0055
 9207SOL    HW129041   0.878   1.837   5.596  0.9908 -0.9744 -0.4047
 9207SOL    HW229042   0.896   1.778   5.734  1.1597 -1.3047 -0.5673
 9208SOL     OW29043   3.459   0.671   6.254  0.4586 -0.3162 -0.8820
 9208SOL    HW129044   3.370   0.708   6.249  0.6834  0.4604  0.5263
 9208SOL    HW229045   3.508   0.733   6.307  1.8648 -0.7565 -1.6175
 9209SOL     OW29046   0.229   0.292   6.414  0.4412 -0.5538 -0.2310
 9209SOL    HW129047   0.203   0.307   6.504 -0.4949 -0.0233 -0.5732
 9209SOL    HW229048   0.301   0.353   6.399  0.0081  0.0004 -0.1006
 9210SOL     OW29049   7.378   2.748   2.305 -0.6563 -0.2424  0.0532
 9210SOL    HW129050   7.424   2.832   2.304 -0.8143 -0.1572 -0.1728
 9210SOL    HW229051   7.331   2.748   2.389 -1.2887  0.2468 -0.2925
 9211SOL     OW29052   0.736   0.183   6.155  0.1653 -0.5304 -0.0229
 9211SOL    HW129053   0.825   0.200   6.125  0.2042  0.4918  0.6182
 9211SOL    HW229054   0.746   0.124   6.230  0.4677  0.9561  1.1585
 9212SOL     OW29055   1.347   1.628   1.682 -0.2025  0.0286  0.2556
 9212SOL    HW129056   1.336   1.637   1.588  0.1346 -3.2966 -0.2156
 9212SOL    HW229057   1.258   1.626   1.717 -0.3886 -0.4784 -0.2332
 9213SOL     OW29058   6.110   7.660   0.446 -0.0678  0.2523 -0.3410
 9213SOL    HW129059   6.184   7.717   0.426  0.2020  0.0246 -0.0076
 9213SOL    HW229060   6.149   7.573   0.454 -0.4358  0.0628 -0.5841
 9214SOL     OW29061   3.482   3.552   4.868 -0.1970  0.1657 -0.8024
 9214SOL    HW129062   3.526   3.522   4.948  0.5924  1.6466 -0.6484
 9214SOL    HW229063   3.450   3.639   4.889  0.1690  0.6470 -2.1481
 9215SOL     OW29064   3.071   6.137   1.185  0.6833 -0.2976 -0.1976
 9215SOL    HW129065   3.093   6.185   1.265  1.5872 -0.5273 -0.3004
 9215SOL    HW229066   2.978   6.153   1.172  0.2673 -1.0868  1.4911
 9216SOL     OW29067   2.644   3.648   6.536  0.7311  0.7220  0.5066
 9216SOL    HW129068   2.579   3.587   6.572 -0.4272  2.3951  1.4000
 9216SOL    HW229069   2.699   3.671   6.612  1.3162  0.6298  0.1196
 9217SOL     OW29070   2.754   7.676   2.313  0.4916 -0.2439 -0.1282
 9217SOL    HW129071   2.764   7.615   2.386  0.3786 -0.8525 -0.6216
 9217SOL    HW229072   2.668   7.717   2.328 -1.0741 -2.7356 -1.6666
 9218SOL     OW29073   5.434   3.864   3.186 -0.4255  0.4281  0.3217
 9218SOL    HW129074   5.510   3.807   3.184  0.1345  0.9213  3.0852
 9218SOL    HW229075   5.467   3.950   3.159 -0.3518  0.3321  0.1049
 9219SOL     OW29076   7.414   1.243   0.296  0.4315  0.4535 -0.2009
 9219SOL    HW129077   7.409   1.335   0.321 -1.1403  0.3897 -0.2071
 9219SOL    HW229078   7.324   1.218   0.276  1.1262 -0.3882 -2.7222
 9220SOL     OW29079   0.747   5.432   4.665  0.3631 -0.2176 -0.3104
 9220SOL    HW129080   0.744   5.416   4.760  3.0516 -0.2517 -0.1434
 9220SOL    HW229081   0.786   5.519   4.657 -0.4955  0.0778 -1.4083
 9221SOL     OW29082   1.619   7.184   7.179  0.8164 -0.4620 -0.3991
 9221SOL    HW129083   1.534   7.142   7.193  0.2059  1.0713  0.7749
 9221SOL    HW229084   1.597   7.270   7.143  1.9282 -0.3435 -0.8356
 9222SOL     OW29085   7.903   7.995   2.353 -0.2677 -0.3724 -0.0091
 9222SOL    HW129086   7.843   8.044   2.410 -0.1723  0.8108 -0.8828
 9222SOL    HW229087   7.977   7.972   2.409 -0.6293 -0.0976  0.5856
 9223SOL     OW29088   3.886   5.551   1.900 -0.4031 -0.7188  0.7042
 9223SOL    HW129089   3.844   5.598   1.828 -0.2287  0.2095  1.1822
 9223SOL    HW229090   3.980   5.564   1.886 -0.3617  2.2922  2.8073
 9224SOL     OW29091   6.746   0.703   8.369  0.2557  0.2177 -0.0492
 9224SOL    HW129092   6.833   0.730   8.400 -0.1996  1.9714 -0.2226
 9224SOL    HW229093   6.686   0.734   8.436 -0.4325  0.9886 -1.0158
 9225SOL     OW29094   0.135   0.409   4.402 -0.5411  0.5876 -0.3271
 9225SOL    HW129095   0.077   0.404   4.326 -0.0401  0.6021 -0.7163
 9225SOL    HW229096   0.113   0.492   4.444 -0.4555  0.8265 -0.7521
 9226SOL     OW29097   3.343   1.041   7.154 -0.2225  0.2077 -0.3841
 9226SOL    HW129098   3.423   1.026   7.104  0.2644  0.1366  0.3981
 9226SOL    HW229099   3.321   1.132   7.137 -0.3907  0.0174 -1.1913
 9227SOL     OW29100   4.550   6.916   7.612  0.3393  0.2163 -0.1028
 9227SOL    HW129101   4.557   6.925   7.517 -0.2484 -0.1509 -0.1906
 9227SOL    HW229102   4.611   6.980   7.647  0.0432  0.8553 -0.7237
 9228SOL     OW29103   4.316   1.185   5.347 -0.0556 -0.1284  0.2654
 9228SOL    HW129104   4.314   1.259   5.409 -0.9871  0.5255 -0.5171
 9228SOL    HW229105   4.293   1.109   5.400 -3.0100  0.7197  0.3986
 9229SOL     OW29106   2.676   4.894   4.022  0.2595  0.3515  0.1565
 9229SOL    HW129107   2.699   4.957   3.954  2.8379  0.0521  0.6677
 9229SOL    HW229108   2.593   4.856   3.992 -0.1933  2.3004 -1.2916
 9230SOL     OW29109   6.800   5.705   6.016  0.1807  0.8623  0.1961
 9230SOL    HW129110   6.809   5.663   6.102 -0.6318  1.5872  0.6551
 9230SOL    HW229111   6.864   5.660   5.960  0.1340 -0.1920  0.9608
 9231SOL     OW29112   2.574   2.372   2.724 -0.6891  0.1596 -0.1060
 9231SOL    HW129113   2.497   2.412   2.765 -0.5929  0.3588 -0.1194
 9231SOL    HW229114   2.643   2.437   2.735 -0.5789  0.0745 -0.2935
 9232SOL     OW29115   6.525   3.744   6.680 -0.3573 -0.4683 -0.0026
 9232SOL    HW129116   6.613   3.782   6.685  0.0354 -1.3843  0.1829
 9232SOL    HW229117   6.537   3.653   6.705 -0.9221 -1.2918 -2.4766
 9233SOL     OW29118   7.847   2.107   2.806 -0.4004  0.4298 -0.2376
 9233SOL    HW129119   7.873   2.190   2.765  0.6320  0.1558 -0.1656
 9233SOL    HW229120   7.844   2.045   2.733 -0.1708  0.3061 -0.1425
 9234SOL     OW29121   3.990   7.125   1.935 -0.1860  0.6329 -0.1658
 9234SOL    HW129122   4.001   7.040   1.893  0.9563  0.9828 -0.6137
 9234SOL    HW229123   4.062   7.130   1.999  1.6375  2.4241 -2.1824
 9235SOL     OW29124   6.215   0.222   0.320  0.0704  0.5748  1.3165
 9235SOL    HW129125   6.208   0.307   0.363  0.6760  1.7429 -0.7709
 9235SOL    HW229126   6.308   0.213   0.298 -0.4495  0.9635 -1.4010
 9236SOL     OW29127   7.857   7.529   4.678  0.4068  0.1900 -0.6219
 9236SOL    HW129128   7.783   7.574   4.638 -0.2112 -1.4096 -1.3589
 9236SOL    HW229129   7.822   7.490   4.758 -0.2137 -2.3967 -2.0334
 9237SOL     OW29130   0.977   5.461   1.453 -0.1000  0.3072  0.0443
 9237SOL    HW129131   1.062   5.469   1.410 -0.3274  1.3028 -0.2296
 9237SOL    HW229132   0.995   5.411   1.533  0.8879  1.2301  0.4074
 9238SOL     OW29133   1.607   0.928   6.017  0.3824 -0.5116 -0.1303
 9238SOL    HW129134   1.615   1.023   6.007 -0.8095 -0.2449  1.1137
 9238SOL    HW229135   1.512   0.913   6.016  0.3920 -1.2888  2.7463
 9239SOL     OW29136   2.536   6.117   5.576  0.0330 -0.1265 -0.0529
 9239SOL    HW129137   2.595   6.061   5.627  0.5917  1.5498  1.2137
 9239SOL    HW229138   2.575   6.204   5.580 -1.2862  0.5591 -1.2077
 9240SOL     OW29139   6.159   7.814   7.879  0.0697 -0.0076  0.3303
 9240SOL    HW129140   6.184   7.754   7.809 -0.7023  0.6847 -0.5585
 9240SOL    HW229141   6.086   7.864   7.843  1.1596  1.9959  0.7526
 9241SOL     OW29142   2.377   6.858   5.756 -0.5004 -0.1574 -0.2733
 9241SOL    HW129143   2.316   6.928   5.780  0.6800  1.1293 -0.8516
 9241SOL    HW229144   2.325   6.797   5.705 -1.1645  1.3381 -1.4593
 9242SOL     OW29145   0.406   5.936   2.982 -0.1168 -0.0661  0.7184
 9242SOL    HW129146   0.338   5.883   2.939 -0.0814 -0.6915  1.4194
 9242SOL    HW229147   0.363   6.021   2.998  0.2452  0.6172 -1.6243
 9243SOL     OW29148   6.441   4.624   6.667  0.3001 -0.2244 -0.2676
 9243SOL    HW129149   6.519   4.597   6.618  1.3875 -2.1799  2.3171
 9243SOL    HW229150   6.475   4.680   6.737 -0.6307 -0.8743  0.7341
 9244SOL     OW29151   7.000   3.958   3.059 -0.2967  0.1360 -0.3836
 9244SOL    HW129152   6.909   3.961   3.031 -0.0294 -1.6893 -1.6397
 9244SOL    HW229153   7.050   3.981   2.980  0.3824 -1.6316 -0.5057
 9245SOL     OW29154   4.542   1.804   0.046 -0.2744  0.9670 -0.4125
 9245SOL    HW129155   4.463   1.753   0.027 -0.2982  1.5481 -2.0195
 9245SOL    HW229156   4.604   1.777  -0.022 -0.4934  3.4684 -1.7185
 9246SOL     OW29157   6.338   4.063   4.389  0.7986 -0.1494 -0.2092
 9246SOL    HW129158   6.307   4.133   4.447 -0.8627 -0.4383 -0.7036
 9246SOL    HW229159   6.261   4.009   4.374  2.1607 -2.4394  0.6057
 9247SOL     OW29160   7.061   0.628   8.106  0.4854 -0.1451  0.1208
 9247SOL    HW129161   7.058   0.571   8.029 -0.0852 -0.3280  0.2793
 9247SOL    HW229162   7.126   0.695   8.083  0.7605 -0.5437 -0.2790
 9248SOL     OW29163   6.851   4.277   2.881  0.2386 -0.4309  0.0607
 9248SOL    HW129164   6.837   4.356   2.829  0.3719 -0.8978 -0.7146
 9248SOL    HW229165   6.787   4.214   2.846 -0.1242 -0.5477  0.9228
 9249SOL     OW29166   8.035   7.933   5.289  0.1676 -0.5810 -0.0309
 9249SOL    HW129167   7.952   7.966   5.323  0.2351 -0.9117  0.4710
 9249SOL    HW229168   8.080   7.899   5.366 -0.0325 -2.1264 -0.5583
 9250SOL     OW29169   2.166   2.571   6.229  0.2733 -0.6563 -0.1607
 9250SOL    HW129170   2.171   2.661   6.196 -1.8258 -0.8311 -1.1217
 9250SOL    HW229171   2.140   2.520   6.152  0.1950 -1.8799  0.6682
 9251SOL     OW29172   4.366   4.613   5.629  0.7329 -0.0280  0.1769
 9251SOL    HW129173   4.405   4.701   5.622  0.1139  0.2244 -0.1508
 9251SOL    HW229174   4.402   4.565   5.554  1.0966 -0.0682  0.3733
 9252SOL     OW29175   1.423   2.032   6.418 -0.1130  0.0133 -0.6543
 9252SOL    HW129176   1.360   2.043   6.347 -0.7421  2.4747  0.1702
 9252SOL    HW229177   1.465   2.117   6.427  0.8161 -0.5663  1.1201
 9253SOL     OW29178   2.148   3.239   2.625 -0.1899 -0.7732 -0.1787
 9253SOL    HW129179   2.091   3.203   2.694  1.5580 -1.2620  1.0957
 9253SOL    HW229180   2.142   3.176   2.554  0.1433 -1.8040  0.6713
 9254SOL     OW29181   6.628   1.520   1.185  0.3324  0.1627 -0.1655
 9254SOL    HW129182   6.635   1.462   1.261 -0.6434 -0.0845 -0.2397
 9254SOL    HW229183   6.651   1.465   1.111  1.4132  0.4397 -0.0429
 9255SOL     OW29184   0.445   4.918   1.219 -0.4249  0.3555  0.5895
 9255SOL    HW129185   0.486   4.833   1.232 -0.7924 -0.1796 -1.3493
 9255SOL    HW229186   0.518   4.980   1.216 -0.0044 -0.1481  0.2611
 9256SOL     OW29187   3.135   2.529   7.435  0.3024 -0.5143  0.1843
 9256SOL    HW129188   3.205   2.522   7.501  1.2317 -0.6269 -0.7913
 9256SOL    HW229189   3.127   2.623   7.419  1.1509 -0.5771 -0.6536
 9257SOL     OW29190   1.886   2.397   2.713 -0.3079 -0.5075 -0.0508
 9257SOL    HW129191   1.836   2.315   2.716 -0.8988 -0.1389  0.3821
 9257SOL    HW229192   1.935   2.392   2.630 -0.4250 -1.2420 -0.0826
 9258SOL     OW29193   1.281   4.351   1.438 -0.1102 -0.3652  1.0620
 9258SOL    HW129194   1.199   4.337   1.485 -0.8249  2.0868  0.6290
 9258SOL    HW229195   1.266   4.427   1.383  2.5471  0.3608  1.1827
 9259SOL     OW29196   7.717   5.597   2.115 -0.1125  0.2190  0.2768
 9259SOL    HW129197   7.776   5.545   2.169 -0.4840 -1.1170 -0.5365
 9259SOL    HW229198   7.630   5.582   2.153 -0.5954 -1.8966 -1.4125
 9260SOL     OW29199   0.286   1.227   5.561 -0.1377  0.7331 -0.0104
 9260SOL    HW129200   0.199   1.219   5.599 -0.1975  0.0485 -0.2919
 9260SOL    HW229201   0.288   1.315   5.524 -0.2723  1.2209  1.0794
 9261SOL     OW29202   7.998   1.300   1.019 -0.0487 -0.0516 -0.0753
 9261SOL    HW129203   7.981   1.348   0.938  0.3776 -0.5037 -0.4502
 9261SOL    HW229204   8.005   1.367   1.087 -0.9839  0.2917 -0.3057
 9262SOL     OW29205   1.383   2.314   1.971  0.0613 -0.4270 -0.3726
 9262SOL    HW129206   1.382   2.330   1.877  1.7336 -0.9924 -0.5216
 9262SOL    HW229207   1.325   2.382   2.007 -0.8888 -0.4220 -1.8100
 9263SOL     OW29208   7.606   4.198   4.178 -0.1906  0.1668 -0.2825
 9263SOL    HW129209   7.697   4.181   4.152 -0.2113  1.1073 -1.0069
 9263SOL    HW229210   7.594   4.146   4.258  0.7943 -0.4388 -0.5088
 9264SOL     OW29211   8.122   1.677   4.993  0.1570  0.0181  1.2577
 9264SOL    HW129212   8.033   1.654   5.021 -0.4657  2.4431  1.5314
 9264SOL    HW229213   8.175   1.668   5.073 -0.1548 -0.0641  1.4561
 9265SOL     OW29214   2.088   7.081   2.465  0.2334  0.1806  0.1231
 9265SOL    HW129215   2.145   7.109   2.537  0.5304  0.5700 -0.2582
 9265SOL    HW229216   2.094   6.985   2.466 -0.5489  0.1273  1.2472
 9266SOL     OW29217   7.915   4.148   5.134  0.3313  0.3642 -0.0354
 9266SOL    HW129218   7.861   4.210   5.083 -1.2239 -0.7842  0.1356
 9266SOL    HW229219   7.991   4.132   5.079  0.8503  2.4914 -0.0427
 9267SOL     OW29220   0.512   4.756   1.546  0.1257 -0.5225 -0.0054
 9267SOL    HW129221   0.487   4.763   1.454  1.8788  0.7332 -0.4210
 9267SOL    HW229222   0.595   4.709   1.545  0.2524 -0.3399  0.9295
 9268SOL     OW29223   8.357   7.944   3.069 -0.1347 -0.4609 -0.6607
 9268SOL    HW129224   8.270   7.984   3.069  0.2746  0.5209 -2.0443
 9268SOL    HW229225   8.371   7.918   2.978  1.2079 -0.1606 -0.5591
 9269SOL     OW29226   6.160   2.394   4.282 -0.3167  0.2134 -0.7150
 9269SOL    HW129227   6.252   2.420   4.287  0.2812 -1.8243  3.7494
 9269SOL    HW229228   6.158   2.327   4.213  1.8683 -0.6186 -0.0726
 9270SOL     OW29229   4.906   1.572   2.312  0.1627  0.0560  0.1644
 9270SOL    HW129230   4.883   1.479   2.310  0.1444  0.0659 -0.1233
 9270SOL    HW229231   4.848   1.612   2.248 -1.1593  0.5800  1.6113
 9271SOL     OW29232   3.541   0.462   1.865 -0.3736  0.8881 -0.8114
 9271SOL    HW129233   3.478   0.393   1.844 -0.1842 -0.2018  1.7001
 9271SOL    HW229234   3.526   0.530   1.800 -2.3077 -0.4612 -1.8844
 9272SOL     OW29235   4.134   2.910   7.842 -0.1816 -0.0510 -0.0930
 9272SOL    HW129236   4.154   2.996   7.880 -0.9286  0.0659  0.0424
 9272SOL    HW229237   4.119   2.928   7.749  1.5128 -0.3171 -0.4429
 9273SOL     OW29238   6.247   4.149   0.965 -0.0245  0.3428  0.3396
 9273SOL    HW129239   6.296   4.179   0.888  0.0685  0.1840  0.3360
 9273SOL    HW229240   6.156   4.174   0.948  0.0221  0.4474  0.2492
 9274SOL     OW29241   2.676   0.481   5.263  0.3467 -0.3448 -0.1153
 9274SOL    HW129242   2.691   0.557   5.206 -0.2734  0.2781  0.5252
 9274SOL    HW229243   2.764   0.455   5.292  0.5708  0.0841 -0.3975
 9275SOL     OW29244   4.618   7.234   7.302 -0.5199 -0.4172  0.0302
 9275SOL    HW129245   4.689   7.279   7.348 -0.1149  1.3135 -2.1461
 9275SOL    HW229246   4.614   7.147   7.343  1.5327  0.1277  1.5132
 9276SOL     OW29247   5.093   1.775   2.294  0.1283 -0.3425 -0.0228
 9276SOL    HW129248   5.166   1.752   2.351 -0.1047 -2.3818 -0.4919
 9276SOL    HW229249   5.033   1.701   2.300 -1.6625  1.0052 -0.1160
 9277SOL     OW29250   4.964   8.283   7.466  0.3328  0.3669  0.2669
 9277SOL    HW129251   4.906   8.290   7.542  1.4285  0.7621  1.1029
 9277SOL    HW229252   4.906   8.291   7.391 -0.5334  2.4492  1.0698
 9278SOL     OW29253   3.107   1.253   5.660 -0.0085 -0.2902  0.6509
 9278SOL    HW129254   3.026   1.303   5.648  0.3478  0.2933  0.6123
 9278SOL    HW229255   3.095   1.174   5.609  0.0790  0.5424 -0.7175
 9279SOL     OW29256   5.925   4.168   0.790 -0.0908 -0.1177  0.1018
 9279SOL    HW129257   5.920   4.259   0.819  0.6914 -0.2648  0.7255
 9279SOL    HW229258   5.996   4.167   0.726 -0.5093 -0.1796 -0.3723
 9280SOL     OW29259   0.102   3.107   5.813  0.3484  0.8456 -0.0480
 9280SOL    HW129260   0.171   3.170   5.834 -0.1782  1.5490 -0.4067
 9280SOL    HW229261   0.149   3.025   5.798  1.2659  1.6005 -1.6012
 9281SOL     OW29262   1.482   3.295   2.260 -0.1075  0.3177 -0.3114
 9281SOL    HW129263   1.414   3.291   2.193 -0.4677 -0.3800  0.0860
 9281SOL    HW229264   1.521   3.208   2.261  1.6370  1.0532 -1.3788
 9282SOL     OW29265   5.506   4.442   4.818 -0.0064  0.4214  0.1824
 9282SOL    HW129266   5.496   4.530   4.853 -1.1993 -0.0499  1.0815
 9282SOL    HW229267   5.513   4.455   4.723  3.0798  1.6935  0.4552
 9283SOL     OW29268   1.142   7.523   7.542 -0.0083 -0.0603  0.6317
 9283SOL    HW129269   1.119   7.452   7.603 -0.4356  0.0415  0.5972
 9283SOL    HW229270   1.237   7.530   7.547  0.1292 -1.2210 -0.0153
 9284SOL     OW29271   1.116   7.125   4.341 -0.2923  0.7986  0.2844
 9284SOL    HW129272   1.165   7.056   4.296 -0.7922  1.8747 -2.0350
 9284SOL    HW229273   1.042   7.080   4.381 -2.0487  0.1876 -3.3036
 9285SOL     OW29274   2.915   1.131   6.561 -0.1542 -0.0889  0.2030
 9285SOL    HW129275   2.901   1.225   6.562 -0.4132 -0.1258  1.4314
 9285SOL    HW229276   3.001   1.119   6.520  0.5857  0.7852  1.4667
 9286SOL     OW29277   7.322   0.449   8.265 -0.6337  0.3426 -0.2671
 9286SOL    HW129278   7.360   0.510   8.201 -1.3275  0.6775 -0.3626
 9286SOL    HW229279   7.275   0.505   8.327  0.3803  0.0585  0.7989
 9287SOL     OW29280   6.239   4.970   4.188 -0.1904  0.0126 -0.4124
 9287SOL    HW129281   6.294   5.019   4.250 -1.5214  1.5347 -0.3540
 9287SOL    HW229282   6.226   4.885   4.230  0.7640  0.2046  0.3279
 9288SOL     OW29283   8.178   7.327   5.400 -0.0267  0.5103  0.1477
 9288SOL    HW129284   8.259   7.354   5.443 -0.6427 -0.0082  1.7135
 9288SOL    HW229285   8.152   7.402   5.348  1.1202  0.9159  0.1312
 9289SOL     OW29286   4.098   5.914   7.258 -0.3710 -0.1572 -0.0351
 9289SOL    HW129287   4.003   5.921   7.251 -0.6287  0.3821  2.7181
 9289SOL    HW229288   4.114   5.826   7.291  0.0844 -0.2019 -0.3657
 9290SOL     OW29289   1.566   5.019   6.094 -0.1911 -0.1869 -0.5616
 9290SOL    HW129290   1.486   4.975   6.065 -0.8819  0.2387  0.5950
 9290SOL    HW229291   1.557   5.109   6.063 -1.2203  0.4331  1.3413
 9291SOL     OW29292   3.230   8.182   5.436 -0.3271  0.6362 -0.5780
 9291SOL    HW129293   3.307   8.132   5.463 -0.3154 -0.2091 -2.0426
 9291SOL    HW229294   3.170   8.175   5.509  0.2349 -0.3599 -0.1877
 9292SOL     OW29295   4.508   5.336   4.102 -0.0331  0.2607 -0.5822
 9292SOL    HW129296   4.454   5.376   4.033 -0.5868  1.9154  0.7357
 9292SOL    HW229297   4.598   5.360   4.080  0.0943 -1.3989 -2.0793
 9293SOL     OW29298   5.385   0.704   1.920  0.6172  0.0201 -0.1700
 9293SOL    HW129299   5.362   0.716   1.828  1.8567 -0.2896 -0.5428
 9293SOL    HW229300   5.415   0.790   1.948  0.6685  0.0123 -0.1986
 9294SOL     OW29301   1.941   3.256   2.000 -0.6165 -0.3322 -0.1453
 9294SOL    HW129302   1.943   3.271   2.095  0.5186 -0.5756 -0.1182
 9294SOL    HW229303   1.993   3.327   1.963  0.6102 -1.3175 -0.4094
 9295SOL     OW29304   7.991   1.336   6.377  0.1341  0.0897  0.6743
 9295SOL    HW129305   7.930   1.371   6.442 -1.9530 -0.9426 -0.6118
 9295SOL    HW229306   7.935   1.306   6.306  2.3256  1.5105 -1.8283
 9296SOL     OW29307   8.352   5.436   6.819 -0.2393  0.1065  0.4357
 9296SOL    HW129308   8.420   5.369   6.809  1.6541  2.0078 -0.4018
 9296SOL    HW229309   8.357   5.461   6.912 -0.4484 -0.4001  0.5857
 9297SOL     OW29310   2.739   1.490   0.404 -0.2410  0.0782  0.1777
 9297SOL    HW129311   2.704   1.468   0.318  0.8312  1.0512 -0.5201
 9297SOL    HW229312   2.776   1.408   0.437  1.0438  0.1137 -1.1129
 9298SOL     OW29313   1.000   0.347   2.636 -0.3913  0.5284  0.1099
 9298SOL    HW129314   0.967   0.372   2.549  0.4014  1.9372  0.1900
 9298SOL    HW229315   0.950   0.268   2.658 -1.2780  0.6781 -1.2149
 9299SOL     OW29316   3.894   7.456   1.765 -0.0046  0.0312 -0.0954
 9299SOL    HW129317   3.907   7.494   1.852  1.0459  1.0384 -0.6555
 9299SOL    HW229318   3.844   7.522   1.717 -0.6640 -0.5613 -0.2435
 9300SOL     OW29319   4.734   4.396   1.097 -0.0390  0.1547 -0.0617
 9300SOL    HW129320   4.830   4.402   1.102 -0.0586 -0.3235  1.3166
 9300SOL    HW229321   4.717   4.351   1.015  0.9102  0.4762 -0.4459
 9301SOL     OW29322   1.903   7.517   3.584 -0.0633 -0.0588  0.1363
 9301SOL    HW129323   1.916   7.545   3.675 -1.2985  0.8408  0.0577
 9301SOL    HW229324   1.820   7.557   3.558  1.3467  1.6548 -2.1251
 9302SOL     OW29325   6.763   0.590   8.126  0.0110 -0.6154 -0.1480
 9302SOL    HW129326   6.730   0.622   8.210  0.8461 -2.2332  0.8526
 9302SOL    HW229327   6.849   0.632   8.116 -0.4378  0.2076 -0.6061
 9303SOL     OW29328   5.279   5.725   6.010  0.1521  0.0640  0.2357
 9303SOL    HW129329   5.317   5.793   6.064 -1.1437  0.9218  0.1051
 9303SOL    HW229330   5.184   5.737   6.019 -0.0917 -0.9417 -0.7527
 9304SOL     OW29331   3.370   1.659   3.514  0.0060  0.1438 -0.5020
 9304SOL    HW129332   3.278   1.679   3.531  0.0092  0.2408 -0.6011
 9304SOL    HW229333   3.375   1.644   3.420  0.1649  0.5207 -0.5562
 9305SOL     OW29334   7.398   7.335   0.012 -0.0292 -0.1109  0.3926
 9305SOL    HW129335   7.361   7.338  -0.076 -0.5560  0.6776  0.6274
 9305SOL    HW229336   7.486   7.371   0.002  0.3086 -1.0042  0.0177
 9306SOL     OW29337   6.698   5.717   4.253  0.4374 -0.3341  0.3941
 9306SOL    HW129338   6.618   5.767   4.237 -0.7179 -1.8928  0.9608
 9306SOL    HW229339   6.684   5.677   4.338  1.5803 -1.1051  0.2408
 9307SOL     OW29340   6.035   2.753   1.848  0.5992 -0.4972 -0.6594
 9307SOL    HW129341   6.066   2.674   1.892  1.2825 -0.4074 -0.9637
 9307SOL    HW229342   6.113   2.809   1.842  0.2487 -0.0336 -0.9431
 9308SOL     OW29343   1.903   1.792   7.390  0.3804 -0.3793  0.0454
 9308SOL    HW129344   1.920   1.732   7.318 -1.1537 -1.4504  0.5063
 9308SOL    HW229345   1.812   1.818   7.378  0.5183  0.5099  0.8199
 9309SOL     OW29346   2.626   4.438   0.735  0.5601 -0.2781 -0.2238
 9309SOL    HW129347   2.720   4.419   0.743  0.4478 -1.6688 -1.7387
 9309SOL    HW229348   2.623   4.529   0.706  1.4870 -0.4922 -1.0512
 9310SOL     OW29349   3.492   3.463   8.120  0.3695 -0.0839 -0.1085
 9310SOL    HW129350   3.497   3.493   8.211  1.6799  0.2048 -0.2493
 9310SOL    HW229351   3.533   3.376   8.122 -1.5322 -1.0150 -0.0656
 9311SOL     OW29352   3.632   0.783   6.660 -0.5286  0.2221 -0.1689
 9311SOL    HW129353   3.557   0.842   6.670 -1.1676 -0.7761  1.3899
 9311SOL    HW229354   3.670   0.778   6.747  1.2094  0.4901 -0.8816
 9312SOL     OW29355   7.976   6.279   5.635 -0.4042 -0.0017 -0.5335
 9312SOL    HW129356   7.998   6.367   5.664 -1.1734  0.0436 -0.0890
 9312SOL    HW229357   7.953   6.290   5.542  0.6182  0.0728 -0.7973
 9313SOL     OW29358   8.129   8.063   7.008  0.3985 -0.0052  0.2762
 9313SOL    HW129359   8.166   7.986   7.051  2.0417  0.5584 -0.0732
 9313SOL    HW229360   8.040   8.036   6.985  0.3862 -1.2286  1.6035
 9314SOL     OW29361   1.264   3.422   2.864  0.4221  0.3149 -0.1364
 9314SOL    HW129362   1.269   3.418   2.960 -1.4886  0.6151  0.0258
 9314SOL    HW229363   1.339   3.475   2.838  2.4933 -1.9357  0.9466
 9315SOL     OW29364   7.150   5.727   4.444 -0.0779  0.1670  0.0255
 9315SOL    HW129365   7.232   5.730   4.493 -0.1594 -1.0530  0.2801
 9315SOL    HW229366   7.114   5.816   4.450 -0.0123  0.0915  2.0540
 9316SOL     OW29367   2.236   2.634   1.000  0.5798  0.3138  0.5033
 9316SOL    HW129368   2.153   2.587   0.987 -0.8107  2.1215  2.2122
 9316SOL    HW229369   2.227   2.713   0.947  0.5414  1.2443  1.8683
 9317SOL     OW29370   3.302   8.201   4.880  0.4301 -0.2023 -0.1490
 9317SOL    HW129371   3.278   8.121   4.927  1.6036  0.0059  0.8414
 9317SOL    HW229372   3.358   8.170   4.808  1.5392 -0.2227  0.7038
 9318SOL     OW29373   8.200   3.483   0.330 -0.5028 -0.0681 -0.3252
 9318SOL    HW129374   8.225   3.394   0.305 -1.7398 -0.1916 -1.1855
 9318SOL    HW229375   8.241   3.539   0.264  0.8535  0.0884  0.6087
 9319SOL     OW29376   6.510   7.107   2.692 -0.1326 -0.0413 -0.1482
 9319SOL    HW129377   6.434   7.128   2.746 -0.1014  0.1764 -0.1878
 9319SOL    HW229378   6.585   7.112   2.751 -0.3166 -1.9924  0.3110
 9320SOL     OW29379   2.555   8.033   7.896  0.3508  0.0908  0.2786
 9320SOL    HW129380   2.551   7.981   7.976 -1.9668  1.0583  0.8804
 9320SOL    HW229381   2.548   7.969   7.826  3.0132 -0.8274  0.7616
 9321SOL     OW29382   5.417   5.799   0.544 -0.1725  0.3407 -0.0321
 9321SOL    HW129383   5.501   5.824   0.582  1.4007 -2.3982 -1.3505
 9321SOL    HW229384   5.355   5.802   0.617  1.5650  0.2504  1.5139
 9322SOL     OW29385   1.592   3.607   6.407 -0.3392 -0.7558 -0.1996
 9322SOL    HW129386   1.523   3.636   6.466 -1.7977 -2.1065 -1.1413
 9322SOL    HW229387   1.573   3.514   6.393 -0.0212 -0.5351 -2.6645
 9323SOL     OW29388   0.240   1.245   0.677  0.0671  0.7672 -0.4333
 9323SOL    HW129389   0.156   1.242   0.629  0.1868  0.1721 -0.6220
 9323SOL    HW229390   0.304   1.210   0.614  0.5467  1.6827 -0.4621
 9324SOL     OW29391   2.495   3.552   1.628  0.1174  0.1596 -0.0083
 9324SOL    HW129392   2.475   3.560   1.721  0.2731  1.4710 -0.0712
 9324SOL    HW229393   2.504   3.642   1.597  0.2789 -0.2595 -1.2514
 9325SOL     OW29394   7.883   5.155   2.223  0.0693  0.5285 -0.0439
 9325SOL    HW129395   7.925   5.147   2.137 -0.8178 -0.2352 -0.4260
 9325SOL    HW229396   7.932   5.094   2.279  0.9881  1.4206  0.1415
 9326SOL     OW29397   7.748   1.426   0.414 -0.2501 -0.1615 -0.0672
 9326SOL    HW129398   7.713   1.400   0.499  0.9623  1.2134  0.9210
 9326SOL    HW229399   7.837   1.391   0.414 -0.4905 -0.8022 -1.1147
 9327SOL     OW29400   0.418   0.685   6.163  0.6389  0.1162 -0.0282
 9327SOL    HW129401   0.422   0.774   6.128 -0.2353 -0.0904 -0.7074
 9327SOL    HW229402   0.325   0.663   6.161  0.8178 -0.7125  0.3877
 9328SOL     OW29403   5.898   2.547   4.696  0.1364  0.5066  0.2564
 9328SOL    HW129404   5.877   2.558   4.789 -0.1633 -0.0289  0.2518
 9328SOL    HW229405   5.993   2.562   4.691  0.5286 -1.4264  0.9724
 9329SOL     OW29406   0.938   0.741   2.049  0.1081  0.2453 -0.1612
 9329SOL    HW129407   0.876   0.810   2.074  0.0504  0.3414 -0.5697
 9329SOL    HW229408   0.903   0.706   1.967  1.1050  0.9307 -0.8962
 9330SOL     OW29409   5.102   4.604   0.523  0.1977 -0.3157 -0.1890
 9330SOL    HW129410   5.184   4.651   0.507 -0.3011  0.1985 -1.3991
 9330SOL    HW229411   5.061   4.651   0.596 -1.0348  2.2712 -2.3549
 9331SOL     OW29412   4.053   4.994   5.950 -0.0570  0.5086  0.4090
 9331SOL    HW129413   4.143   4.988   5.919 -0.2439 -0.0338 -0.0434
 9331SOL    HW229414   4.034   4.907   5.986 -0.2967  0.7160  0.7953
 9332SOL     OW29415   4.068   0.592   3.222 -0.9423 -0.2108 -0.3191
 9332SOL    HW129416   4.056   0.684   3.198 -1.4299  0.1985  1.4061
 9332SOL    HW229417   4.155   0.589   3.261 -0.9789 -0.4577 -0.2571
 9333SOL     OW29418   4.351   1.368   1.126  0.1447  0.3867  0.3837
 9333SOL    HW129419   4.371   1.460   1.110  2.2162 -0.3557 -1.7844
 9333SOL    HW229420   4.426   1.335   1.176  0.5540 -0.5870 -0.8079
 9334SOL     OW29421   2.575   3.893   7.101 -0.1084  0.4646  0.5135
 9334SOL    HW129422   2.630   3.967   7.128  0.5589  0.1949 -0.0529
 9334SOL    HW229423   2.638   3.824   7.080 -0.6804  0.1093 -0.0569
 9335SOL     OW29424   4.173   3.934   0.647  0.2226  0.2504 -0.1278
 9335SOL    HW129425   4.248   3.992   0.660 -1.3241  1.6923  3.8810
 9335SOL    HW229426   4.199   3.851   0.689  0.2866  0.0294 -0.5948
 9336SOL     OW29427   2.740   4.576   6.453  0.9577 -0.2151  0.1966
 9336SOL    HW129428   2.757   4.661   6.493  0.2741 -0.0641  0.1817
 9336SOL    HW229429   2.824   4.529   6.459  1.1999  0.2660  0.6669
 9337SOL     OW29430   7.578   1.800   5.500 -0.0376  0.4502  0.2895
 9337SOL    HW129431   7.520   1.733   5.465  1.0072 -0.4085  0.1462
 9337SOL    HW229432   7.519   1.869   5.532 -1.1550 -0.8032  1.0267
 9338SOL     OW29433   3.034   2.197   4.756  0.0993  0.0194  0.1480
 9338SOL    HW129434   3.034   2.232   4.845  1.6189 -1.1423  0.6577
 9338SOL    HW229435   3.121   2.158   4.746 -0.6415 -1.3853 -1.2434
 9339SOL     OW29436   2.359   8.166   3.648 -0.4482  0.5434  0.2226
 9339SOL    HW129437   2.446   8.171   3.688 -0.0590 -1.3153 -0.3039
 9339SOL    HW229438   2.302   8.138   3.720 -0.0508 -1.1544 -0.0956
 9340SOL     OW29439   6.370   5.211   5.642  0.6125  0.0161 -0.3701
 9340SOL    HW129440   6.394   5.163   5.721  0.6341  1.1197  0.3134
 9340SOL    HW229441   6.284   5.247   5.661  0.5704  0.1982 -0.8999
 9341SOL     OW29442   2.567   6.834   5.288 -0.0239  0.2668  0.1211
 9341SOL    HW129443   2.633   6.767   5.270  0.1619  0.3451  0.4824
 9341SOL    HW229444   2.486   6.799   5.254  0.4537  0.7739 -1.6549
 9342SOL     OW29445   6.044   4.906   3.574 -0.1651  0.0343 -0.4607
 9342SOL    HW129446   5.978   4.846   3.607  0.7680 -0.4271  0.6310
 9342SOL    HW229447   5.995   4.986   3.554 -1.0570 -0.3008  0.2912
 9343SOL     OW29448   2.419   6.705   7.122  0.0508  0.1531 -0.5290
 9343SOL    HW129449   2.430   6.612   7.106 -0.1240 -0.1093  0.8198
 9343SOL    HW229450   2.325   6.716   7.140  0.3598  0.2764  1.1463
 9344SOL     OW29451   0.920   1.837   3.911 -0.2792  0.3241  0.9859
 9344SOL    HW129452   0.911   1.755   3.959 -0.2690  0.0691  0.5558
 9344SOL    HW229453   0.833   1.854   3.875  0.1091 -0.3953 -0.3575
 9345SOL     OW29454   3.684   2.180   8.114 -0.0821  0.0116 -0.4802
 9345SOL    HW129455   3.612   2.196   8.174 -0.1379  0.7349 -0.7290
 9345SOL    HW229456   3.741   2.119   8.160  0.0433  0.8058  0.4357
 9346SOL     OW29457   4.336   5.248   2.216  0.7659 -0.0076 -0.0916
 9346SOL    HW129458   4.300   5.337   2.211  0.9341  0.0116 -1.0588
 9346SOL    HW229459   4.342   5.230   2.310 -1.1776  0.2305  0.1174
 9347SOL     OW29460   7.676   6.593   6.304 -0.3451 -0.7591 -0.2918
 9347SOL    HW129461   7.638   6.648   6.373 -2.7788 -2.1765 -0.4210
 9347SOL    HW229462   7.742   6.541   6.349 -1.4318 -1.1891  0.8748
 9348SOL     OW29463   4.966   2.944   2.026  0.4795  0.1007  0.0933
 9348SOL    HW129464   5.023   3.016   2.054  0.3274  1.6404 -3.1096
 9348SOL    HW229465   5.008   2.910   1.947 -1.7916 -0.2446 -1.0537
 9349SOL     OW29466   4.312   7.824   8.102 -0.7297 -0.0383  0.2487
 9349SOL    HW129467   4.407   7.812   8.101 -0.4275  1.9624  0.9063
 9349SOL    HW229468   4.290   7.857   8.015 -0.7041  0.2879  0.3664
 9350SOL     OW29469   6.551   1.202   2.804  0.1324 -0.3016  0.0358
 9350SOL    HW129470   6.514   1.136   2.862  2.2128 -1.0247  0.6193
 9350SOL    HW229471   6.593   1.151   2.734 -0.7798  0.5168 -1.1616
 9351SOL     OW29472   6.267   6.918   6.142  0.9053  0.0559  0.6948
 9351SOL    HW129473   6.346   6.917   6.088  1.5180  2.5890  1.4013
 9351SOL    HW229474   6.234   6.828   6.138  2.9528 -0.7121 -0.8597
 9352SOL     OW29475   0.739   0.169   7.218  0.7021  0.0528 -0.6351
 9352SOL    HW129476   0.719   0.262   7.219  0.2609 -0.0377 -0.7059
 9352SOL    HW229477   0.766   0.149   7.307  0.4473  0.1762 -0.5305
 9353SOL     OW29478   0.546   3.432   7.863  0.2653  0.0537 -0.2029
 9353SOL    HW129479   0.598   3.359   7.895 -0.8941 -0.3835  0.7618
 9353SOL    HW229480   0.455   3.403   7.872 -0.2408  1.7180  0.5285
 9354SOL     OW29481   4.014   6.175   1.887 -0.9318  0.7785  0.4530
 9354SOL    HW129482   4.090   6.202   1.938 -0.0716  1.5873 -1.1724
 9354SOL    HW229483   3.957   6.252   1.885 -0.8377  0.8380 -0.0210
 9355SOL     OW29484   4.803   5.867   0.698 -0.2659  0.3372 -0.0703
 9355SOL    HW129485   4.811   5.817   0.778 -1.5408 -3.3476 -2.0218
 9355SOL    HW229486   4.746   5.941   0.722 -1.2373 -1.0507  2.2556
 9356SOL     OW29487   1.643   1.657   3.418  0.1748  0.1682 -0.4615
 9356SOL    HW129488   1.635   1.744   3.380  1.9719  0.0919 -1.1110
 9356SOL    HW229489   1.720   1.663   3.475 -0.2042 -0.7654  0.1744
 9357SOL     OW29490   6.040   5.873   7.311  0.5039 -0.1744 -0.5352
 9357SOL    HW129491   6.109   5.893   7.248 -0.4431  0.4423 -1.3983
 9357SOL    HW229492   5.975   5.942   7.299 -0.2400 -0.7037  0.3156
 9358SOL     OW29493   5.495   4.819   7.384  0.7961 -0.5314  0.2005
 9358SOL    HW129494   5.481   4.823   7.289  1.7154  0.7090  0.1002
 9358SOL    HW229495   5.448   4.895   7.418  1.4196 -0.3229  0.6081
 9359SOL     OW29496   1.102   4.373   8.034 -0.0325  0.0455  0.0025
 9359SOL    HW129497   1.035   4.344   7.972 -1.4204  1.0935  0.9541
 9359SOL    HW229498   1.137   4.454   7.995  0.5364 -0.3711 -0.3737
 9360SOL     OW29499   4.468   1.231   8.179  0.1398 -0.3543  0.2266
 9360SOL    HW129500   4.407   1.160   8.194 -0.8791  0.5086  0.2462
 9360SOL    HW229501   4.524   1.200   8.107 -0.8255 -0.8430 -0.3284
 9361SOL     OW29502   1.176   0.915   6.369 -0.0788 -0.1262  0.2051
 9361SOL    HW129503   1.177   1.007   6.343  2.8008 -0.2560 -0.3821
 9361SOL    HW229504   1.196   0.915   6.463 -1.3688 -0.1479  0.5092
 9362SOL     OW29505   8.146   6.320   3.296  0.1447 -0.8240 -0.4171
 9362SOL    HW129506   8.186   6.400   3.329 -0.2355 -0.9008  0.2410
 9362SOL    HW229507   8.220   6.266   3.268  0.3570  0.3424 -2.3131
 9363SOL     OW29508   5.531   2.056   0.195 -0.3685 -0.1185  0.5893
 9363SOL    HW129509   5.513   1.965   0.219 -0.2379 -0.6649 -1.2133
 9363SOL    HW229510   5.627   2.060   0.191 -0.3961 -0.1215 -0.0917
 9364SOL     OW29511   3.690   0.812   1.267 -0.4140  0.3521 -0.5534
 9364SOL    HW129512   3.670   0.898   1.230 -0.3493  0.4583 -0.3465
 9364SOL    HW229513   3.770   0.827   1.317  0.2145 -0.0686 -1.4014
 9365SOL     OW29514   1.122   2.377   6.336 -0.3249  0.3026  0.3220
 9365SOL    HW129515   1.130   2.399   6.429  1.7278 -1.0362  0.5080
 9365SOL    HW229516   1.102   2.283   6.335 -0.2681  0.2941 -0.5986
 9366SOL     OW29517   8.164   0.490   6.135  0.3914  0.3538  0.1090
 9366SOL    HW129518   8.154   0.442   6.053 -0.7075  1.3801 -0.3799
 9366SOL    HW229519   8.220   0.433   6.189 -0.4318 -1.2300 -0.6253
 9367SOL     OW29520   4.588   8.179   4.458  0.0875  0.1473 -0.2461
 9367SOL    HW129521   4.680   8.189   4.484  0.2811  1.7051 -1.4202
 9367SOL    HW229522   4.571   8.252   4.399 -0.9345 -1.9668 -2.7718
 9368SOL     OW29523   2.033   6.500   1.923  0.5738 -0.2552  0.1187
 9368SOL    HW129524   2.098   6.500   1.993  0.3044 -1.4959  0.3910
 9368SOL    HW229525   1.957   6.543   1.960 -0.1446 -2.3329  1.1812
 9369SOL     OW29526   6.298   4.158   1.657  0.3830  0.0688  0.2604
 9369SOL    HW129527   6.313   4.063   1.665  1.0064  0.1852  0.5881
 9369SOL    HW229528   6.252   4.181   1.737  0.1201  0.0191  0.1222
 9370SOL     OW29529   1.391   6.678   4.210  0.1380 -0.0639 -0.4250
 9370SOL    HW129530   1.348   6.623   4.144 -0.7096 -1.2844  1.0662
 9370SOL    HW229531   1.367   6.638   4.294  1.8404  0.9568  0.6051
 9371SOL     OW29532   6.034   7.362   4.814  0.4889 -0.4318 -0.3429
 9371SOL    HW129533   6.014   7.448   4.850  0.4309 -0.4230 -0.3962
 9371SOL    HW229534   6.089   7.380   4.738 -0.1095 -0.4006 -0.7754
 9372SOL     OW29535   8.054   0.837   0.473 -0.1534  0.2970 -0.0135
 9372SOL    HW129536   7.980   0.862   0.418  1.0266  2.0867 -0.8566
 9372SOL    HW229537   8.055   0.903   0.543 -0.0394 -0.4154  0.6740
 9373SOL     OW29538   0.184   4.717   1.046 -0.7781 -0.2490  0.2472
 9373SOL    HW129539   0.106   4.671   1.015 -1.8076 -0.0816  2.4051
 9373SOL    HW229540   0.171   4.808   1.018 -0.4455 -0.5626 -0.9740
 9374SOL     OW29541   4.568   5.101   0.936 -0.4211  0.5304  0.4405
 9374SOL    HW129542   4.510   5.031   0.906 -0.8007  1.2048 -0.4692
 9374SOL    HW229543   4.647   5.092   0.883 -0.2354  0.4324  0.7336
 9375SOL     OW29544   6.174   5.485   0.993 -0.2107  0.5416 -0.1555
 9375SOL    HW129545   6.265   5.475   1.019  0.2766 -0.8781 -2.1333
 9375SOL    HW229546   6.172   5.566   0.942  0.6891 -0.9062 -2.6706
 9376SOL     OW29547   4.225   2.890   2.188 -0.3664 -0.2966  0.1985
 9376SOL    HW129548   4.268   2.974   2.201  0.7331 -1.0313  1.6669
 9376SOL    HW229549   4.290   2.837   2.142  0.5724 -1.5201  2.7183
 9377SOL     OW29550   0.180   0.716   0.364  0.2384  0.4114  0.2597
 9377SOL    HW129551   0.099   0.763   0.343  0.3829  0.2676 -0.6831
 9377SOL    HW229552   0.162   0.672   0.447 -1.0648 -0.5877 -0.5241
 9378SOL     OW29553   3.404   6.696   1.639  0.5177  0.0186  0.1515
 9378SOL    HW129554   3.310   6.709   1.652  0.3586 -0.8668 -0.0541
 9378SOL    HW229555   3.410   6.618   1.583  1.4615 -2.0898  2.9582
 9379SOL     OW29556   6.545   0.752   6.003 -0.6027  0.1016  0.1807
 9379SOL    HW129557   6.563   0.721   6.091 -0.4871  0.7575  0.3947
 9379SOL    HW229558   6.573   0.681   5.946 -0.2247 -0.1308  0.6495
 9380SOL     OW29559   1.225   1.476   3.746  0.4029  0.5137  0.0497
 9380SOL    HW129560   1.196   1.480   3.655  0.4706 -0.2224 -0.0152
 9380SOL    HW229561   1.314   1.440   3.741 -0.2708 -1.3757  0.4980
 9381SOL     OW29562   0.762   7.401   6.821 -0.3232 -0.0793  0.0770
 9381SOL    HW129563   0.727   7.489   6.834  0.4389  0.4027 -0.9720
 9381SOL    HW229564   0.835   7.413   6.761 -1.2953 -1.6470 -1.5059
 9382SOL     OW29565   3.380   4.103   3.418 -0.1681  0.0579 -0.6867
 9382SOL    HW129566   3.370   4.196   3.399  0.3687  0.8852  2.5253
 9382SOL    HW229567   3.470   4.094   3.450 -0.8433 -1.1405  1.0041
 9383SOL     OW29568   6.480   0.237   0.209 -0.0207  0.6861  0.4952
 9383SOL    HW129569   6.454   0.326   0.184 -1.6432  0.1836  0.3204
 9383SOL    HW229570   6.566   0.226   0.169 -0.6421  1.4822 -1.1891
 9384SOL     OW29571   3.336   7.576   2.282 -0.4344 -0.2189  0.0568
 9384SOL    HW129572   3.318   7.595   2.190  1.1696 -0.9647 -0.4529
 9384SOL    HW229573   3.372   7.487   2.282  1.0080  0.3183  1.2005
 9385SOL     OW29574   0.531   0.907   3.981 -0.2408 -0.4376 -0.1647
 9385SOL    HW129575   0.469   0.980   3.980  0.5620  0.2550 -0.4974
 9385SOL    HW229576   0.502   0.852   4.054 -1.9152 -0.7242 -1.0054
 9386SOL     OW29577   2.751   7.940   0.128 -0.1856  0.3030 -0.0143
 9386SOL    HW129578   2.800   7.879   0.184  1.6087  1.2535 -0.5012
 9386SOL    HW229579   2.729   7.888   0.051  0.3864 -0.0307  0.0418
 9387SOL     OW29580   0.480   0.774   2.520 -0.4879  0.5690  0.0245
 9387SOL    HW129581   0.559   0.802   2.473  1.0785  0.2366  2.2781
 9387SOL    HW229582   0.496   0.681   2.541 -1.3833  0.5420  0.6517
 9388SOL     OW29583   2.200   1.986   6.061 -0.0372  0.0083  0.2124
 9388SOL    HW129584   2.244   1.926   6.001 -1.2731 -0.4333 -0.2904
 9388SOL    HW229585   2.123   1.938   6.091 -1.1718  1.3752 -0.3652
 9389SOL     OW29586   1.581   6.788   7.804  0.6090  0.3887 -0.2817
 9389SOL    HW129587   1.603   6.729   7.733 -1.2254 -0.9781  0.2119
 9389SOL    HW229588   1.547   6.866   7.761 -1.4586 -0.8109 -0.9836
 9390SOL     OW29589   0.475   1.448   5.030 -0.7443  0.4791 -0.1938
 9390SOL    HW129590   0.388   1.423   5.059 -1.0360  0.3968 -1.0947
 9390SOL    HW229591   0.534   1.388   5.076 -0.9001  2.1905  2.4324
 9391SOL     OW29592   6.485   6.992   7.691  0.3359 -0.6951 -0.4008
 9391SOL    HW129593   6.579   7.010   7.688  0.3816 -0.6762  0.7423
 9391SOL    HW229594   6.457   7.025   7.776 -0.5353 -1.5626 -0.3377
 9392SOL     OW29595   1.597   4.724   2.646  0.4709 -0.0218 -0.5150
 9392SOL    HW129596   1.526   4.776   2.683  0.5956  0.1609 -0.5300
 9392SOL    HW229597   1.677   4.770   2.671  0.6100 -0.4564 -0.1351
 9393SOL     OW29598   0.197   0.047   1.419 -0.2152 -0.3494 -0.0661
 9393SOL    HW129599   0.105   0.039   1.393 -0.1248 -2.7036  0.1390
 9393SOL    HW229600   0.231   0.118   1.364 -1.6176 -0.9144 -1.7622
 9394SOL     OW29601   5.115   2.271   0.026  0.2029  0.3566  0.1224
 9394SOL    HW129602   5.032   2.227   0.005  0.2674 -0.7025  1.9568
 9394SOL    HW229603   5.182   2.216  -0.013  0.1543  0.2536  0.1854
 9395SOL     OW29604   6.909   4.532   7.863 -0.0675  0.3256  0.8194
 9395SOL    HW129605   6.860   4.613   7.878  1.1382  1.2618 -0.0600
 9395SOL    HW229606   6.982   4.559   7.806 -0.2912 -1.6006 -0.4400
 9396SOL     OW29607   6.598   4.503   6.217 -0.1738 -0.1529  0.5973
 9396SOL    HW129608   6.538   4.573   6.189  0.0413 -0.0978  0.2634
 9396SOL    HW229609   6.643   4.477   6.136  1.3083  0.8065  1.0902
 9397SOL     OW29610   1.902   6.539   6.844  0.3142 -0.2007  0.0721
 9397SOL    HW129611   1.878   6.458   6.798  1.6135 -0.1913 -0.6608
 9397SOL    HW229612   1.844   6.605   6.806 -2.4066 -1.1129  2.2860
 9398SOL     OW29613   0.417   4.701   4.263 -0.0330  0.1183  0.3274
 9398SOL    HW129614   0.426   4.647   4.185 -1.1816  0.6201 -0.1758
 9398SOL    HW229615   0.502   4.744   4.273  0.2381 -0.2277 -0.4331
 9399SOL     OW29616   5.634   0.524   1.245  0.8371  0.1579 -0.0697
 9399SOL    HW129617   5.715   0.500   1.200  0.6515 -2.3643  0.7931
 9399SOL    HW229618   5.565   0.478   1.197  0.3470 -0.5283  1.2489
 9400SOL     OW29619   3.964   5.969   8.263  0.3546  0.0615 -0.4369
 9400SOL    HW129620   3.892   6.012   8.216 -0.7130 -0.5608  0.5711
 9400SOL    HW229621   3.928   5.884   8.288  1.4512 -0.2488  0.1104
 9401SOL     OW29622   4.487   1.429   2.149 -0.2434 -0.7152  0.2216
 9401SOL    HW129623   4.527   1.494   2.208  1.2490 -0.1805 -1.3261
 9401SOL    HW229624   4.518   1.345   2.182 -0.0963 -0.4876  0.6851
 9402SOL     OW29625   2.422   2.393   5.289  0.1251  0.6892  0.4877
 9402SOL    HW129626   2.330   2.370   5.301  0.2325  1.5143  3.6432
 9402SOL    HW229627   2.420   2.480   5.249 -0.5481  1.4925  2.1892
 9403SOL     OW29628   8.272   6.490   1.041  0.1141  0.1991 -0.3093
 9403SOL    HW129629   8.259   6.422   0.976 -0.6613 -0.5804  0.6336
 9403SOL    HW229630   8.227   6.567   1.005 -1.1224 -0.4895 -0.2957
 9404SOL     OW29631   5.491   5.315   6.490 -0.1302  0.4689  0.0965
 9404SOL    HW129632   5.570   5.356   6.455  0.0447  1.0416  1.1223
 9404SOL    HW229633   5.423   5.382   6.481  0.2905  1.2992  2.3351
 9405SOL     OW29634   1.979   2.736   7.455  0.5390  0.1314 -0.7263
 9405SOL    HW129635   1.937   2.822   7.443  1.4115  0.7526  0.4496
 9405SOL    HW229636   1.907   2.676   7.471 -0.2393  0.2796 -3.2734
 9406SOL     OW29637   7.931   3.192   3.132 -0.0067 -0.0435  0.6383
 9406SOL    HW129638   7.860   3.228   3.078  0.1193  1.1429  1.2266
 9406SOL    HW229639   8.009   3.237   3.101  0.0998  0.4912  1.6538
 9407SOL     OW29640   3.112   4.543   4.335 -0.3865 -0.1461  0.5723
 9407SOL    HW129641   3.132   4.627   4.377  1.2317 -0.8206  1.1864
 9407SOL    HW229642   3.041   4.564   4.274 -0.7060  1.4609  1.4438
 9408SOL     OW29643   0.197   1.436   3.822 -0.0904 -0.2415 -0.0816
 9408SOL    HW129644   0.253   1.381   3.767 -0.4747 -0.8600  0.1383
 9408SOL    HW229645   0.247   1.446   3.904  2.3682  3.9244 -1.7537
 9409SOL     OW29646   1.521   0.740   5.696 -0.1379  0.0664  0.0676
 9409SOL    HW129647   1.547   0.831   5.711  0.8407 -0.0923 -0.6263
 9409SOL    HW229648   1.595   0.700   5.651  0.4270 -1.7041  2.3629
 9410SOL     OW29649   0.039   4.969   1.700 -0.5326  0.0642 -0.0280
 9410SOL    HW129650  -0.027   4.907   1.670 -0.5222 -0.7791  1.5961
 9410SOL    HW229651   0.053   4.947   1.792  2.1901  0.0633 -0.3530
 9411SOL     OW29652   4.235   8.152   6.653  0.3488  0.0249  0.0263
 9411SOL    HW129653   4.177   8.076   6.652 -0.9545  0.9675 -1.5430
 9411SOL    HW229654   4.200   8.209   6.585  2.1519  1.3962  0.1850
 9412SOL     OW29655   0.144   4.637   3.843  0.0923  0.0120 -0.7579
 9412SOL    HW129656   0.129   4.684   3.761 -1.0338  2.1328  0.5788
 9412SOL    HW229657   0.056   4.607   3.868  0.0897  1.0993  0.6191
 9413SOL     OW29658   8.048   2.311   4.382 -0.3202 -0.0333  0.2647
 9413SOL    HW129659   8.112   2.377   4.353  1.4821 -1.3186  1.1612
 9413SOL    HW229660   7.995   2.356   4.448  0.6380  0.6426  0.5930
 9414SOL     OW29661   5.345   2.158   6.388 -0.6454 -0.1222 -0.5264
 9414SOL    HW129662   5.315   2.184   6.475  1.3333  0.9530 -0.0839
 9414SOL    HW229663   5.388   2.236   6.354 -0.1400 -0.9616 -1.8818
 9415SOL     OW29664   5.806   7.002   1.533 -0.2783  0.4718  0.0985
 9415SOL    HW129665   5.782   7.078   1.585 -1.4798 -0.1092  0.4227
 9415SOL    HW229666   5.793   6.928   1.592  0.8091 -0.0032 -0.2308
 9416SOL     OW29667   3.206   1.041   1.199  0.7084 -0.1593  0.4251
 9416SOL    HW129668   3.181   0.971   1.259  1.8974 -1.3415 -0.4095
 9416SOL    HW229669   3.153   1.116   1.226 -0.7392 -1.4223  1.2207
 9417SOL     OW29670   7.220   6.432   4.622  0.0850  0.0624  0.0309
 9417SOL    HW129671   7.251   6.433   4.713 -0.2207 -0.8410  0.1502
 9417SOL    HW229672   7.186   6.344   4.609  0.6447  0.0060 -1.1476
 9418SOL     OW29673   1.134   8.198   2.002  0.2812 -0.4419  0.5748
 9418SOL    HW129674   1.221   8.158   2.000  0.5074 -0.0050  1.2817
 9418SOL    HW229675   1.110   8.209   1.910  1.0293 -0.4340  0.3771
 9419SOL     OW29676   8.031   7.358   3.449  0.1945  0.0408 -0.1991
 9419SOL    HW129677   7.992   7.416   3.515  0.5499 -0.0078  0.0573
 9419SOL    HW229678   8.040   7.413   3.371 -0.1221  0.1307 -0.1763
 9420SOL     OW29679   3.630   1.581   8.315  0.2476 -0.4661 -0.1124
 9420SOL    HW129680   3.688   1.532   8.257 -0.6442 -3.6421  1.4563
 9420SOL    HW229681   3.559   1.611   8.259  0.0121 -2.4063 -0.9261
 9421SOL     OW29682   8.129   1.227   2.851 -0.5490 -0.0583  0.1175
 9421SOL    HW129683   8.087   1.149   2.817 -0.6344 -0.5174  1.2321
 9421SOL    HW229684   8.057   1.285   2.875 -0.4883  0.3086 -0.5476
 9422SOL     OW29685   4.333   0.802   5.982 -0.0557  0.2083  0.2163
 9422SOL    HW129686   4.421   0.840   5.982  0.4649 -0.9256  0.6780
 9422SOL    HW229687   4.286   0.850   5.915  0.6305  1.4758  0.6013
 9423SOL     OW29688   0.283   4.839   2.874  0.4156  0.4319 -0.3858
 9423SOL    HW129689   0.269   4.918   2.926 -0.8187  0.9685 -1.4707
 9423SOL    HW229690   0.245   4.860   2.788 -1.3679 -1.8513 -0.2520
 9424SOL     OW29691   6.575   5.838   6.833 -0.4726  0.2654 -0.1940
 9424SOL    HW129692   6.505   5.776   6.855  0.3225 -0.8379 -0.6674
 9424SOL    HW229693   6.555   5.867   6.744  0.1041 -0.7196 -0.6684
 9425SOL     OW29694   4.129   2.467   5.628  0.2356  0.1862  0.1815
 9425SOL    HW129695   4.191   2.425   5.688  0.5887 -2.6339 -1.9481
 9425SOL    HW229696   4.046   2.423   5.645 -0.4952  1.7517  0.8521
 9426SOL     OW29697   4.790   1.315   2.377 -0.1242  0.5656 -0.0897
 9426SOL    HW129698   4.744   1.245   2.331  2.1486 -1.4873  0.5074
 9426SOL    HW229699   4.771   1.299   2.470 -0.5159  1.4924  0.0020
 9427SOL     OW29700   4.354   3.313   5.398 -0.3533 -0.0444 -0.3279
 9427SOL    HW129701   4.372   3.382   5.461  0.3445  0.6717 -1.2797
 9427SOL    HW229702   4.427   3.251   5.408  0.3700  0.6405 -1.1766
 9428SOL     OW29703   6.896   4.011   6.873 -0.0042  0.4232  0.2600
 9428SOL    HW129704   6.860   3.951   6.807  1.8603  0.9958 -1.3893
 9428SOL    HW229705   6.858   4.096   6.851 -0.2521  0.4095  0.6398
 9429SOL     OW29706   0.869   7.322   7.077 -0.6960  0.5664 -0.1207
 9429SOL    HW129707   0.840   7.302   6.988  0.6392  1.5607 -0.8138
 9429SOL    HW229708   0.801   7.381   7.111 -2.9510 -2.3401  0.7919
 9430SOL     OW29709   5.181   8.121   7.887  0.0186  0.3410 -0.4377
 9430SOL    HW129710   5.105   8.065   7.877 -0.0727  0.5401 -0.8813
 9430SOL    HW229711   5.149   8.197   7.936  0.3485 -0.3959  0.9883
 9431SOL     OW29712   2.085   3.797   2.308 -0.3109 -0.4247 -0.2302
 9431SOL    HW129713   2.172   3.785   2.345 -1.1461 -0.6464  1.7907
 9431SOL    HW229714   2.032   3.728   2.347 -1.1420 -1.1253 -2.4342
 9432SOL     OW29715   5.121   8.229   7.107 -0.7600  0.0909 -0.1942
 9432SOL    HW129716   5.112   8.212   7.201 -1.0978 -2.4751 -0.6195
 9432SOL    HW229717   5.191   8.171   7.079  0.1549  1.6713 -1.3860
 9433SOL     OW29718   0.197   4.239   8.179 -0.3207 -0.1459 -0.3240
 9433SOL    HW129719   0.115   4.234   8.130 -0.6063 -1.4298  0.2652
 9433SOL    HW229720   0.217   4.333   8.182 -2.4648  0.3412  0.6657
 9434SOL     OW29721   6.057   2.564   6.814 -0.1863 -0.9508  0.6567
 9434SOL    HW129722   6.122   2.536   6.878  0.2062  1.6680  1.5143
 9434SOL    HW229723   6.105   2.622   6.755 -1.4533 -0.0771  0.4513
 9435SOL     OW29724   1.298   2.585   0.778 -0.3265 -0.0592 -0.5218
 9435SOL    HW129725   1.224   2.640   0.755 -0.9010  0.5564  2.4208
 9435SOL    HW229726   1.320   2.610   0.868  1.5237 -2.3227 -0.2380
 9436SOL     OW29727   5.051   5.789   7.704 -0.6090 -0.1530 -0.1609
 9436SOL    HW129728   5.140   5.752   7.707 -0.3603  0.4238 -0.2008
 9436SOL    HW229729   5.060   5.875   7.745 -1.2362 -0.2495  0.1842
 9437SOL     OW29730   5.388   4.782   1.250  0.1340  0.0955  0.3733
 9437SOL    HW129731   5.379   4.745   1.163 -0.7784  2.6164 -0.6959
 9437SOL    HW229732   5.326   4.733   1.304 -0.6954 -0.2317 -0.8518
 9438SOL     OW29733   2.566   1.674   4.712 -0.0937  0.2438 -0.2016
 9438SOL    HW129734   2.594   1.721   4.791 -0.9656  1.1133 -0.3969
 9438SOL    HW229735   2.501   1.731   4.672 -1.4895 -1.3171 -0.2441
 9439SOL     OW29736   1.864   5.653   4.774 -0.0312  0.3466  0.3184
 9439SOL    HW129737   1.934   5.616   4.721 -0.0666 -0.3824  0.7691
 9439SOL    HW229738   1.833   5.580   4.828 -2.0921  0.2601 -0.8612
 9440SOL     OW29739   5.889   1.529   2.100  0.7972  0.2973 -0.3160
 9440SOL    HW129740   5.926   1.466   2.163  3.3575  2.3665  0.4231
 9440SOL    HW229741   5.826   1.580   2.152 -0.0199 -0.4993 -0.4925
 9441SOL     OW29742   4.988   3.960   4.019 -0.1691 -0.1070 -0.0565
 9441SOL    HW129743   4.932   3.904   3.967  0.8471 -0.4714 -0.7885
 9441SOL    HW229744   4.943   4.045   4.021 -0.3194 -0.1407 -1.3654
 9442SOL     OW29745   3.328   5.890   6.714  1.3806 -0.3597  0.4760
 9442SOL    HW129746   3.348   5.958   6.649  0.7885  1.2204  1.8948
 9442SOL    HW229747   3.370   5.920   6.794 -1.2756 -0.1592  1.8832
 9443SOL     OW29748   0.512   3.991   4.519  0.4746 -0.0833  0.5266
 9443SOL    HW129749   0.515   3.896   4.526 -1.5294 -0.2472 -0.1540
 9443SOL    HW229750   0.571   4.022   4.588  1.2219 -1.8027  0.7098
 9444SOL     OW29751   4.707   2.446   5.550  0.3202  0.1515 -0.8152
 9444SOL    HW129752   4.798   2.442   5.576  0.3502 -0.4488 -0.9932
 9444SOL    HW229753   4.658   2.426   5.629  0.3621 -0.0839 -0.8480
 9445SOL     OW29754   0.385   4.726   0.483 -0.4974 -0.0624 -0.0855
 9445SOL    HW129755   0.447   4.793   0.510 -0.7289  0.1400 -0.0476
 9445SOL    HW229756   0.312   4.735   0.545  0.1139 -1.3351  0.8495
 9446SOL     OW29757   6.412   7.990   1.675  0.0461  0.1350 -0.0954
 9446SOL    HW129758   6.363   8.051   1.730 -0.7016 -0.5329  0.0015
 9446SOL    HW229759   6.447   7.925   1.736 -2.0780 -1.4959 -0.4852
 9447SOL     OW29760   3.340   7.328   4.126 -0.1796 -0.5481  0.1090
 9447SOL    HW129761   3.337   7.404   4.183  1.6411  0.8946 -1.5879
 9447SOL    HW229762   3.274   7.268   4.162 -0.0856  0.8429  2.8292
 9448SOL     OW29763   5.471   3.093   8.327  0.3392 -0.3908 -0.6978
 9448SOL    HW129764   5.478   3.100   8.232 -0.2374 -0.9865 -0.7904
 9448SOL    HW229765   5.420   3.170   8.353  1.4947  0.4078 -0.7306
 9449SOL     OW29766   6.026   0.339   6.698 -0.2112 -0.0378 -0.4156
 9449SOL    HW129767   5.958   0.272   6.696 -0.3691  0.1352 -0.8451
 9449SOL    HW229768   5.980   0.419   6.721 -0.0119 -0.0850  0.1687
 9450SOL     OW29769   6.229   7.479   3.982  0.4954  0.3225 -0.0710
 9450SOL    HW129770   6.199   7.459   3.894  1.2063  0.3059 -0.3132
 9450SOL    HW229771   6.153   7.463   4.038  0.0228  0.4062 -0.6860
 9451SOL     OW29772   1.131   2.867   4.671 -0.0413  0.2906 -0.3258
 9451SOL    HW129773   1.067   2.811   4.626 -0.9527  0.7636  0.3497
 9451SOL    HW229774   1.194   2.889   4.603 -0.7056 -0.0294 -1.0713
 9452SOL     OW29775   3.811   7.013   5.218  0.3364 -0.1632  0.1905
 9452SOL    HW129776   3.721   7.043   5.230  0.1211 -0.8481  0.3575
 9452SOL    HW229777   3.855   7.085   5.172 -0.3580  0.0741 -0.1087
 9453SOL     OW29778   7.567   4.564   0.513  0.2139  0.4644  0.2993
 9453SOL    HW129779   7.481   4.560   0.471 -0.0660  1.3404  0.7447
 9453SOL    HW229780   7.627   4.526   0.450 -0.3062  1.0588 -0.5780
 9454SOL     OW29781   1.238   4.665   4.606 -0.4220 -0.2848 -0.2855
 9454SOL    HW129782   1.175   4.713   4.661 -0.0244  2.2853 -1.9226
 9454SOL    HW229783   1.308   4.641   4.666 -0.1568  2.1498  0.4830
 9455SOL     OW29784   7.301   4.544   0.138 -0.0001  0.2080  0.4128
 9455SOL    HW129785   7.313   4.638   0.133 -1.5577  0.4086 -0.1711
 9455SOL    HW229786   7.329   4.511   0.052  0.5220  0.1343  0.6085
 9456SOL     OW29787   0.971   3.188   0.864 -0.0233  0.0527 -1.0387
 9456SOL    HW129788   0.972   3.135   0.784 -0.4287 -1.2127 -0.2442
 9456SOL    HW229789   0.880   3.184   0.893  0.1743  0.2784 -0.3743
 9457SOL     OW29790   0.418   4.265   5.202 -0.3708 -0.6801 -0.3450
 9457SOL    HW129791   0.395   4.326   5.272 -0.5647 -1.2336  0.0816
 9457SOL    HW229792   0.349   4.277   5.137 -0.4751 -0.5291 -0.2085
 9458SOL     OW29793   5.040   3.890   6.260 -0.0914  0.4801 -0.0921
 9458SOL    HW129794   5.061   3.816   6.204  2.0457  1.6890 -0.9871
 9458SOL    HW229795   4.968   3.935   6.215  0.2173  0.2880 -0.7795
 9459SOL     OW29796   3.643   2.030   0.002  0.5561 -0.1055 -0.5257
 9459SOL    HW129797   3.592   2.084   0.062 -0.3728 -1.7154  0.1855
 9459SOL    HW229798   3.586   2.019  -0.075  0.2933 -0.9092 -0.2297
 9460SOL     OW29799   0.515   4.344   3.201  1.1045  0.4855 -0.2551
 9460SOL    HW129800   0.465   4.424   3.216  0.4881 -0.2287  1.8434
 9460SOL    HW229801   0.465   4.297   3.133 -0.4872  0.3326  0.9523
 9461SOL     OW29802   6.193   7.368   0.522  0.0426  0.8629  0.3974
 9461SOL    HW129803   6.138   7.291   0.531  0.4111  0.2679 -1.8118
 9461SOL    HW229804   6.249   7.367   0.600  0.7614 -1.7182 -0.0662
 9462SOL     OW29805   5.013   5.860   0.282 -0.5592  0.5818  0.4324
 9462SOL    HW129806   5.005   5.793   0.350 -0.5176  0.9262  0.7730
 9462SOL    HW229807   4.997   5.812   0.200 -0.5831  0.1652  0.6790
 9463SOL     OW29808   0.584   7.619   2.059 -0.0382 -0.0825  0.3501
 9463SOL    HW129809   0.618   7.673   2.131  1.5682 -0.5166 -0.0356
 9463SOL    HW229810   0.623   7.532   2.074 -1.7701 -0.8911  0.3952
 9464SOL     OW29811   7.612   3.504   4.114  0.2475  0.4751  0.1201
 9464SOL    HW129812   7.540   3.500   4.177 -0.3041  0.9869 -0.4603
 9464SOL    HW229813   7.667   3.429   4.135 -1.4766 -1.0748 -0.6618
 9465SOL     OW29814   0.526   7.685   0.395 -0.0786  0.5277 -0.5011
 9465SOL    HW129815   0.476   7.761   0.365  0.4697  1.7737  1.5643
 9465SOL    HW229816   0.467   7.611   0.384 -0.4118  1.0929 -3.1409
 9466SOL     OW29817   7.793   5.205   4.780 -0.3470 -0.0712  0.0245
 9466SOL    HW129818   7.718   5.148   4.798  0.2331 -0.6625  0.6492
 9466SOL    HW229819   7.847   5.156   4.719  0.3950 -0.4074  0.9373
 9467SOL     OW29820   7.977   0.836   5.379 -0.7517 -0.0552  0.0688
 9467SOL    HW129821   7.888   0.842   5.343 -0.3551 -1.9470 -1.3471
 9467SOL    HW229822   8.034   0.861   5.306 -0.0321 -1.3714  0.1563
 9468SOL     OW29823   7.815   1.338   6.872 -0.1223  0.5518 -0.1306
 9468SOL    HW129824   7.734   1.314   6.918  0.5853 -1.2298  0.3009
 9468SOL    HW229825   7.871   1.375   6.940 -0.4859  1.5831 -0.3850
 9469SOL     OW29826   3.861   2.262   2.107 -0.2375  0.8332 -0.2523
 9469SOL    HW129827   3.899   2.296   2.188  0.4857  0.0731 -0.2588
 9469SOL    HW229828   3.792   2.201   2.137  1.2670 -0.8977 -0.1242
 9470SOL     OW29829   1.725   6.106   0.247  0.3741  0.3594  0.3285
 9470SOL    HW129830   1.713   6.185   0.194 -0.4271 -0.0392 -0.0962
 9470SOL    HW229831   1.706   6.033   0.187 -0.5345 -0.1019  1.1453
 9471SOL     OW29832   4.206   5.679   4.247 -0.1171 -0.2826  0.2682
 9471SOL    HW129833   4.301   5.674   4.245  0.1191 -0.1752  4.2335
 9471SOL    HW229834   4.180   5.687   4.155  3.7235  0.9202 -0.8654
 9472SOL     OW29835   1.652   4.271   0.516  0.1891  0.3911 -0.1907
 9472SOL    HW129836   1.623   4.265   0.425  1.9655  2.4403 -0.9943
 9472SOL    HW229837   1.576   4.247   0.567 -1.1277  0.0094 -2.2074
 9473SOL     OW29838   1.733   8.364   3.686 -0.4844 -0.3142 -0.5441
 9473SOL    HW129839   1.708   8.310   3.760  0.5284 -0.2593 -0.1369
 9473SOL    HW229840   1.723   8.454   3.717 -1.2556 -0.2725 -0.9007
 9474SOL     OW29841   8.009   4.534   2.846  0.0116  0.2738 -0.3179
 9474SOL    HW129842   7.915   4.544   2.862  0.1818 -0.7982  1.5237
 9474SOL    HW229843   8.017   4.449   2.804  0.2640 -0.1379  0.5605
 9475SOL     OW29844   8.236   1.693   0.655 -0.4470 -0.1215  0.1470
 9475SOL    HW129845   8.298   1.628   0.689 -0.4985 -0.2730 -0.0433
 9475SOL    HW229846   8.211   1.659   0.569  0.9356  1.0834 -0.7719
 9476SOL     OW29847   2.048   4.767   0.558  0.3459 -0.1632  0.0579
 9476SOL    HW129848   2.090   4.812   0.632 -1.4506  0.3319  0.8149
 9476SOL    HW229849   1.955   4.786   0.568 -0.1294 -1.5815 -1.3380
 9477SOL     OW29850   5.695   7.518   5.987 -0.6151  0.5868  0.4827
 9477SOL    HW129851   5.627   7.510   5.920 -0.8313  1.0465  0.6458
 9477SOL    HW229852   5.666   7.590   6.042 -0.3021  0.3805  0.9193
 9478SOL     OW29853   1.440   2.101   2.748  0.3549  0.3763 -0.0519
 9478SOL    HW129854   1.501   2.077   2.679 -1.3028  0.4110 -1.5935
 9478SOL    HW229855   1.424   2.194   2.736 -2.0678 -0.1318 -1.4948
 9479SOL     OW29856   4.644   5.641   7.897  0.1298  0.2665  0.2968
 9479SOL    HW129857   4.578   5.675   7.836  0.6551 -0.1581 -0.5199
 9479SOL    HW229858   4.697   5.718   7.919 -1.3807  0.9003  1.9789
 9480SOL     OW29859   1.621   6.966   0.792 -0.0036 -0.0273 -0.7915
 9480SOL    HW129860   1.540   6.942   0.836  0.3471 -1.4164 -0.8512
 9480SOL    HW229861   1.684   6.900   0.820  1.3985  1.5992  0.0436
 9481SOL     OW29862   0.377   5.820   7.254  0.0455 -0.1460 -0.1391
 9481SOL    HW129863   0.407   5.826   7.163 -1.4378  0.9932 -0.5964
 9481SOL    HW229864   0.414   5.897   7.296 -0.1364 -0.0993 -0.0618
 9482SOL     OW29865   0.475   6.442   1.097  0.8136 -0.1102  0.2024
 9482SOL    HW129866   0.434   6.448   1.011 -0.8233 -1.2230  0.8506
 9482SOL    HW229867   0.546   6.506   1.095  0.1071  0.6729 -1.5824
 9483SOL     OW29868   5.541   1.982   7.794  0.1167  0.4176  0.6713
 9483SOL    HW129869   5.585   1.903   7.764 -1.4218  0.6282 -2.5372
 9483SOL    HW229870   5.590   2.009   7.872  2.6364 -1.9125  0.0335
 9484SOL     OW29871   2.433   3.909   3.600 -0.4737  0.1221  0.1913
 9484SOL    HW129872   2.506   3.948   3.551 -0.5266 -0.5070 -0.3901
 9484SOL    HW229873   2.359   3.966   3.580 -0.0830  0.9898  1.0845
 9485SOL     OW29874   6.190   3.414   0.156 -0.2612 -0.4860 -0.0677
 9485SOL    HW129875   6.168   3.328   0.189 -0.9987 -0.0850  0.5165
 9485SOL    HW229876   6.278   3.432   0.190  0.4044 -1.4884 -1.1863
 9486SOL     OW29877   4.592   6.279   5.549  0.0711 -0.0465 -0.0414
 9486SOL    HW129878   4.675   6.247   5.586 -0.1671 -3.4019 -1.9914
 9486SOL    HW229879   4.527   6.257   5.616  0.5820  1.8099  1.1238
 9487SOL     OW29880   1.136   8.047   6.041 -0.0662  0.2479  0.0983
 9487SOL    HW129881   1.211   8.105   6.050 -0.5219  1.1521 -1.4927
 9487SOL    HW229882   1.155   7.995   5.963  0.3215 -1.7934  1.4796
 9488SOL     OW29883   7.830   6.945   3.700 -0.4817  0.2967  0.4039
 9488SOL    HW129884   7.826   6.906   3.613  1.5813  1.2115 -0.1498
 9488SOL    HW229885   7.800   7.035   3.687 -4.6954 -0.6831  1.5761
 9489SOL     OW29886   5.549   5.101   4.326  0.3881 -0.4508 -0.3228
 9489SOL    HW129887   5.520   5.174   4.380 -0.0626  0.9026 -2.2988
 9489SOL    HW229888   5.516   5.023   4.372 -0.7306  0.6732  0.8675
 9490SOL     OW29889   0.154   1.947   2.351 -0.1838 -0.3296  0.2005
 9490SOL    HW129890   0.114   1.883   2.293 -0.6544 -1.5396  1.8102
 9490SOL    HW229891   0.209   2.000   2.293  1.8759 -3.4471 -0.9700
 9491SOL     OW29892   0.999   0.970   3.394  0.2322 -0.4078 -0.1789
 9491SOL    HW129893   0.923   0.994   3.342 -0.7719 -0.4837  1.2143
 9491SOL    HW229894   1.066   0.947   3.329  0.0330  2.3842 -1.5290
 9492SOL     OW29895   2.961   6.814   4.030 -0.2296  0.1756  0.3863
 9492SOL    HW129896   2.992   6.723   4.032  0.4864  0.2856 -2.0574
 9492SOL    HW229897   3.031   6.863   4.073 -0.4905 -0.3728  1.4750
 9493SOL     OW29898   4.498   8.017   2.229  0.1823  0.1752  0.0118
 9493SOL    HW129899   4.568   7.985   2.286  1.3165  1.3292 -0.6811
 9493SOL    HW229900   4.463   7.939   2.188  0.3093 -0.5317  1.1914
 9494SOL     OW29901   7.238   6.223   2.874 -0.1457 -0.5180  0.4352
 9494SOL    HW129902   7.145   6.213   2.894 -0.3081  0.4902  0.2383
 9494SOL    HW229903   7.253   6.318   2.878  0.7255 -0.6204 -0.1758
 9495SOL     OW29904   8.144   0.961   0.917  0.8304 -0.4355  0.6660
 9495SOL    HW129905   8.177   1.034   0.970  0.7180 -0.3704  0.6479
 9495SOL    HW229906   8.079   0.918   0.973  0.3324 -0.0544  0.3976
 9496SOL     OW29907   1.374   6.523   6.465  1.0801  0.0828  0.3608
 9496SOL    HW129908   1.338   6.451   6.413  0.0161 -0.4194  1.7357
 9496SOL    HW229909   1.423   6.480   6.535 -0.0802  0.6435  1.5610
 9497SOL     OW29910   5.469   4.063   4.052 -0.6197 -0.0011  0.3080
 9497SOL    HW129911   5.467   3.994   3.985 -0.9876  0.6386 -0.3556
 9497SOL    HW229912   5.398   4.122   4.027 -1.2167 -0.1031  1.6609
 9498SOL     OW29913   5.825   4.042   5.240  0.1035 -0.6487 -0.7455
 9498SOL    HW129914   5.746   4.073   5.196 -0.2523 -0.6137 -0.0941
 9498SOL    HW229915   5.800   3.957   5.276 -0.3876  0.3294  1.4128
 9499SOL     OW29916   3.034   6.212   6.763  0.0745 -0.1372  0.2739
 9499SOL    HW129917   3.080   6.262   6.695 -0.5517  1.1785  0.7754
 9499SOL    HW229918   3.094   6.141   6.786  0.8755  0.2116 -0.6808
 9500SOL     OW29919   6.770   5.953   7.628 -0.1018  0.1091 -0.1195
 9500SOL    HW129920   6.714   5.999   7.691 -0.3650  1.1347 -1.0581
 9500SOL    HW229921   6.765   6.007   7.549 -1.7821 -2.4027 -1.8807
 9501SOL     OW29922   0.191   7.766   2.114 -1.0189  0.4996  0.2406
 9501SOL    HW129923   0.256   7.798   2.052 -1.4810  0.9137 -0.0468
 9501SOL    HW229924   0.179   7.674   2.092  0.4610  0.0451  1.1942
 9502SOL     OW29925   1.929   0.567   1.279 -0.5866 -0.6112  0.5325
 9502SOL    HW129926   1.869   0.580   1.205 -1.6515 -2.8790  0.9189
 9502SOL    HW229927   1.956   0.476   1.272  0.6193 -0.3935  2.0088
 9503SOL     OW29928   8.217   1.604   2.699 -0.1511  0.2522  0.5455
 9503SOL    HW129929   8.237   1.521   2.744 -1.0778  0.2348  0.9485
 9503SOL    HW229930   8.230   1.671   2.766  2.1278  0.6442 -0.1775
 9504SOL     OW29931   2.212   6.769   6.293 -0.6902  0.7964 -0.1153
 9504SOL    HW129932   2.270   6.827   6.342  0.2946 -0.9882  0.9446
 9504SOL    HW229933   2.261   6.687   6.285 -1.9963  0.1043 -1.6083
 9505SOL     OW29934   7.240   3.716   1.326 -0.3083 -0.1524  0.0094
 9505SOL    HW129935   7.321   3.694   1.372 -1.0278  0.3244  1.5683
 9505SOL    HW229936   7.268   3.732   1.235  1.2575 -0.4558  0.3972
 9506SOL     OW29937   3.352   0.120   5.041 -0.0060 -0.7609 -0.0097
 9506SOL    HW129938   3.385   0.142   4.954  0.7832 -1.3510  0.1306
 9506SOL    HW229939   3.345   0.025   5.041  0.1178 -0.7750  0.6047
 9507SOL     OW29940   1.179   0.627   4.804  0.0134 -0.1757  0.3135
 9507SOL    HW129941   1.172   0.550   4.861 -1.2810 -0.7013 -0.5146
 9507SOL    HW229942   1.106   0.683   4.831  0.1077  0.1166 -0.0367
 9508SOL     OW29943   7.483   5.068   0.651 -0.0568  0.0638 -0.0708
 9508SOL    HW129944   7.416   5.122   0.693 -0.4465 -1.8570  1.9277
 9508SOL    HW229945   7.437   4.988   0.626  0.5793  0.4273 -2.6783
 9509SOL     OW29946   0.086   4.097   5.331  0.0631  0.4174  0.2702
 9509SOL    HW129947   0.094   4.185   5.295  0.4897  0.6687  0.9687
 9509SOL    HW229948   0.025   4.106   5.404 -1.1145 -0.1660 -0.6024
 9510SOL     OW29949   5.433   1.939   2.376 -0.8911 -1.0039  0.2390
 9510SOL    HW129950   5.469   2.024   2.402 -3.0098  0.5655 -1.5689
 9510SOL    HW229951   5.384   1.910   2.453  0.6888 -1.1440  1.2352
 9511SOL     OW29952   6.008   3.444   3.577  0.5299 -0.2394  0.7702
 9511SOL    HW129953   6.006   3.540   3.586 -0.4966 -0.0712 -0.7319
 9511SOL    HW229954   5.950   3.412   3.645  0.7822  0.2194  1.2070
 9512SOL     OW29955   6.574   4.996   7.434  0.5434  0.5435 -0.0520
 9512SOL    HW129956   6.625   4.969   7.511  0.0725  0.5873  0.2825
 9512SOL    HW229957   6.530   4.917   7.404 -0.1172  0.7360  0.3777
 9513SOL     OW29958   2.285   0.393   1.824  0.2131  0.6431  0.3175
 9513SOL    HW129959   2.220   0.460   1.802 -1.4454 -0.8825  0.3887
 9513SOL    HW229960   2.234   0.316   1.848  2.0565 -0.4493  0.9709
 9514SOL     OW29961   1.130   5.583   3.716 -0.0068 -0.0766 -0.0320
 9514SOL    HW129962   1.187   5.659   3.709  0.2846 -0.3900 -1.3041
 9514SOL    HW229963   1.186   5.508   3.695 -0.6481 -0.4783 -0.3676
 9515SOL     OW29964   8.284   0.377   1.620  0.1166  0.8105  0.3932
 9515SOL    HW129965   8.329   0.408   1.699 -0.3936 -2.0671  1.9536
 9515SOL    HW229966   8.199   0.420   1.623 -0.4051 -0.2427  2.2315
 9516SOL     OW29967   2.482   0.417   0.274  0.7651 -0.7381  0.0701
 9516SOL    HW129968   2.413   0.402   0.339  0.3774 -0.2537 -0.2192
 9516SOL    HW229969   2.533   0.336   0.274  0.0131 -1.2200  0.0675
 9517SOL     OW29970   0.197   1.247   4.888 -0.6275  0.2985  0.0159
 9517SOL    HW129971   0.186   1.282   4.976 -1.3109 -0.4269  0.2234
 9517SOL    HW229972   0.192   1.152   4.898 -0.9663  0.2154 -0.8268
 9518SOL     OW29973   6.997   7.216   0.326 -0.0918  0.1601 -0.4606
 9518SOL    HW129974   7.034   7.284   0.270  1.1114  0.0610  0.1843
 9518SOL    HW229975   7.057   7.211   0.400 -1.3569 -0.0822  0.5810
 9519SOL     OW29976   7.614   7.532   4.782  0.6380 -0.4661  0.5758
 9519SOL    HW129977   7.589   7.490   4.701  1.3788  1.8380 -0.9612
 9519SOL    HW229978   7.567   7.484   4.850 -3.8740  0.3916 -1.5829
 9520SOL     OW29979   7.840   6.779   2.675 -0.1271 -0.2677 -0.1095
 9520SOL    HW129980   7.848   6.754   2.768 -0.4855  2.0353  0.6094
 9520SOL    HW229981   7.758   6.739   2.646  0.1732 -1.3257  0.4290
 9521SOL     OW29982   3.441   6.218   1.389 -0.6037  0.6955 -0.0727
 9521SOL    HW129983   3.500   6.289   1.364 -1.2185  1.5847  0.9220
 9521SOL    HW229984   3.486   6.138   1.362 -0.4820  1.4905 -2.4317
 9522SOL     OW29985   3.028   3.786   0.337 -0.6283  0.3143 -0.5698
 9522SOL    HW129986   3.033   3.872   0.295  0.0505  0.3935 -0.3282
 9522SOL    HW229987   3.059   3.726   0.269  0.1537  0.4080 -0.3112
 9523SOL     OW29988   1.222   7.693   2.172 -0.4498 -0.1445  0.2239
 9523SOL    HW129989   1.259   7.609   2.146 -0.7944 -0.0196 -0.7197
 9523SOL    HW229990   1.149   7.706   2.112  0.0682  1.1818 -0.1425
 9524SOL     OW29991   1.081   3.182   3.122 -0.0403 -0.2537  0.6083
 9524SOL    HW129992   1.015   3.117   3.099  0.5887 -0.2310 -1.4487
 9524SOL    HW229993   1.032   3.263   3.135 -0.5297 -0.4621  0.0976
 9525SOL     OW29994   2.470   1.867   4.949  0.3015  0.5660 -0.3796
 9525SOL    HW129995   2.429   1.891   5.032  0.2172  0.2144 -0.3169
 9525SOL    HW229996   2.412   1.800   4.912  1.1657 -0.4374  0.0276
 9526SOL     OW29997   1.534   8.172   2.654 -0.1091 -0.2154 -0.1343
 9526SOL    HW129998   1.549   8.079   2.665  0.8735  0.0745  1.2632
 9526SOL    HW229999   1.440   8.183   2.668  0.0711 -0.7633  1.8398
 9527SOL     OW30000   4.843   7.495   5.431 -0.3605 -0.4387 -0.5390
 9527SOL    HW130001   4.866   7.549   5.507 -1.4425 -0.0175 -0.4894
 9527SOL    HW230002   4.889   7.412   5.445  2.5127  0.8896 -1.3194
 9528SOL     OW30003   6.275   7.173   3.369 -0.1250  0.3329 -0.1315
 9528SOL    HW130004   6.279   7.253   3.422 -1.5739  0.2961  0.0483
 9528SOL    HW230005   6.207   7.191   3.304 -0.4924 -0.7714 -0.0679
 9529SOL     OW30006   1.739   2.015   0.041  0.2596 -0.0489  0.3638
 9529SOL    HW130007   1.812   2.075   0.059 -0.3895  0.6763  0.6265
 9529SOL    HW230008   1.738   1.956   0.116  0.1372  0.3841  0.7049
 9530SOL     OW30009   7.842   1.348   6.612  0.3960 -0.5843  0.4209
 9530SOL    HW130010   7.841   1.347   6.708  0.1121 -1.2381  0.4132
 9530SOL    HW230011   7.805   1.264   6.586 -2.2843  0.6799 -0.2690
 9531SOL     OW30012   4.528   7.839   6.522 -0.0975 -0.3578  0.1291
 9531SOL    HW130013   4.477   7.828   6.602 -0.4670  0.1382 -0.0317
 9531SOL    HW230014   4.618   7.850   6.552 -0.4169  1.3220  0.5883
 9532SOL     OW30015   6.240   3.897   0.445  0.5310 -0.0832 -0.4026
 9532SOL    HW130016   6.148   3.896   0.472  0.4169 -0.0623 -0.7841
 9532SOL    HW230017   6.247   3.824   0.383  0.7034  0.1046 -0.6042
 9533SOL     OW30018   6.002   3.777   4.273 -0.0740  0.0127  0.4164
 9533SOL    HW130019   6.081   3.730   4.245 -0.1055 -0.1909  0.6707
 9533SOL    HW230020   6.034   3.862   4.304  0.1571 -0.4420  1.4625
 9534SOL     OW30021   4.337   7.886   4.390 -0.2614 -1.0065 -0.5057
 9534SOL    HW130022   4.329   7.816   4.454 -1.8838 -0.6405 -0.2471
 9534SOL    HW230023   4.375   7.959   4.440  0.7741 -1.4621 -0.6022
 9535SOL     OW30024   4.173   4.750   4.703  0.2748  0.0170  0.3018
 9535SOL    HW130025   4.131   4.800   4.773  1.5799 -3.6830  4.1277
 9535SOL    HW230026   4.105   4.692   4.670 -0.5665  2.2742 -2.4193
 9536SOL     OW30027   5.796   2.338   6.388  0.2424 -0.4589 -0.1733
 9536SOL    HW130028   5.809   2.246   6.412  0.7134 -0.8966 -1.9888
 9536SOL    HW230029   5.741   2.335   6.310  0.8768  0.7737 -0.6879
 9537SOL     OW30030   3.571   7.655   1.048  0.7622 -0.0470  0.6431
 9537SOL    HW130031   3.541   7.746   1.050 -1.1700 -0.5474 -1.2572
 9537SOL    HW230032   3.654   7.658   1.000  0.6411  0.7080  0.4671
 9538SOL     OW30033   6.611   0.005   1.243 -0.1999  0.0272  0.2356
 9538SOL    HW130034   6.673   0.040   1.308  0.3161  0.3777 -0.4414
 9538SOL    HW230035   6.666  -0.049   1.186 -0.8187 -1.0860  0.6717
 9539SOL     OW30036   4.776   2.531   6.832 -0.2333  0.4273 -0.0758
 9539SOL    HW130037   4.780   2.539   6.928 -1.4433  1.2001 -0.0681
 9539SOL    HW230038   4.751   2.440   6.817 -2.1678  0.8347  0.4468
 9540SOL     OW30039   1.566   5.137   4.974 -0.0846  0.3430 -0.4275
 9540SOL    HW130040   1.640   5.135   5.034 -1.7815  0.1932  1.7933
 9540SOL    HW230041   1.571   5.222   4.932  1.6388  0.1149 -0.7577
 9541SOL     OW30042   3.642   3.371   2.489 -0.1984 -0.8323  0.3105
 9541SOL    HW130043   3.699   3.307   2.448  0.7529 -0.6878  1.3397
 9541SOL    HW230044   3.679   3.383   2.577 -0.8734  0.4605  0.4471
 9542SOL     OW30045   3.709   4.400   3.721 -0.1967 -0.4468 -0.3579
 9542SOL    HW130046   3.798   4.367   3.732 -0.1612 -0.1208  0.4345
 9542SOL    HW230047   3.653   4.330   3.755 -0.1516  0.0131  0.7122
 9543SOL     OW30048   1.878   5.485   1.649 -0.6722 -0.2054 -0.4187
 9543SOL    HW130049   1.890   5.444   1.734 -1.5307 -0.6511 -0.5029
 9543SOL    HW230050   1.937   5.437   1.590 -0.2598 -0.0547 -0.1351
 9544SOL     OW30051   3.427   2.023   8.176 -0.2918 -0.2475 -0.1821
 9544SOL    HW130052   3.356   1.960   8.193 -0.2407 -0.5724 -1.1270
 9544SOL    HW230053   3.388   2.088   8.118 -0.1045  0.1544  0.1347
 9545SOL     OW30054   6.878   2.164   6.391 -0.0169  0.2865  0.7017
 9545SOL    HW130055   6.820   2.190   6.319  0.1895 -0.9262  0.0716
 9545SOL    HW230056   6.917   2.246   6.421  0.9635  0.7135 -1.5167
 9546SOL     OW30057   6.749   1.062   0.052  0.3085 -0.0370  0.5481
 9546SOL    HW130058   6.833   1.049   0.009  1.1624  1.9605  1.4924
 9546SOL    HW230059   6.684   1.040  -0.014  1.5412 -1.6645 -0.1847
 9547SOL     OW30060   1.258   5.254   5.136  0.1051  0.0854  0.2804
 9547SOL    HW130061   1.320   5.194   5.093  1.7076  0.5600  1.8584
 9547SOL    HW230062   1.280   5.340   5.102 -2.4138 -0.0985 -2.2386
 9548SOL     OW30063   1.648   4.409   7.433 -0.3493 -0.3267 -0.1367
 9548SOL    HW130064   1.660   4.446   7.346 -0.9012  0.2482  0.0267
 9548SOL    HW230065   1.652   4.314   7.419  1.6320 -0.2291 -0.4722
 9549SOL     OW30066   1.140   3.140   8.034  0.2224  0.2578  0.1983
 9549SOL    HW130067   1.167   3.106   7.949 -0.4547 -0.0674  0.1096
 9549SOL    HW230068   1.212   3.197   8.061  0.1807  0.8412 -0.8565
 9550SOL     OW30069   6.857   4.620   4.761  0.5048  0.2031 -0.4338
 9550SOL    HW130070   6.829   4.528   4.759 -0.5312  0.4353  1.2441
 9550SOL    HW230071   6.776   4.670   4.765  1.0708  1.0890  0.6936
 9551SOL     OW30072   4.142   8.364   6.479  0.2560 -0.3136 -0.0887
 9551SOL    HW130073   4.074   8.415   6.524  1.6706 -0.5023  2.3742
 9551SOL    HW230074   4.186   8.428   6.423 -0.9337  0.1211 -0.5796
 9552SOL     OW30075   1.785   1.469   5.544  0.1121  0.2644  0.1554
 9552SOL    HW130076   1.848   1.447   5.476  1.4227  1.0828  1.0597
 9552SOL    HW230077   1.760   1.559   5.526 -3.2120 -0.8908 -1.9746
 9553SOL     OW30078   2.764   8.072   4.180  0.2972 -0.2284  0.1299
 9553SOL    HW130079   2.689   8.130   4.185  0.5378  0.0018  1.3968
 9553SOL    HW230080   2.839   8.130   4.164  0.0209 -0.6268 -3.3362
 9554SOL     OW30081   5.111   3.986   6.943 -0.1441  0.2013  0.5994
 9554SOL    HW130082   5.157   4.019   6.865  0.1987 -0.5039  0.4938
 9554SOL    HW230083   5.071   3.904   6.914 -1.6828  0.9186  0.6294
 9555SOL     OW30084   0.952   8.289   8.206 -0.7540 -0.7497  0.4653
 9555SOL    HW130085   0.910   8.375   8.203 -0.0541 -0.4101 -2.0634
 9555SOL    HW230086   0.911   8.245   8.280 -0.8103  1.8959  2.1467
 9556SOL     OW30087   6.353   5.272   6.194  0.0091 -0.3049  0.2934
 9556SOL    HW130088   6.261   5.295   6.183  0.3951  1.7858  1.0682
 9556SOL    HW230089   6.376   5.305   6.280  2.3995  2.6547 -1.2887
 9557SOL     OW30090   7.212   4.847   8.293 -0.5292 -0.8002  0.2161
 9557SOL    HW130091   7.255   4.871   8.210 -1.0867  1.9058  0.6136
 9557SOL    HW230092   7.124   4.820   8.267 -1.0614  1.0736 -0.0553
 9558SOL     OW30093   7.221   6.214   0.971 -0.0508  0.0780  0.3361
 9558SOL    HW130094   7.172   6.268   1.034  3.2553 -0.5132  3.8325
 9558SOL    HW230095   7.269   6.277   0.918  0.2145  0.6189  1.1999
 9559SOL     OW30096   1.277   8.036   0.668  0.1170  0.2567  0.5800
 9559SOL    HW130097   1.366   8.031   0.631 -0.3865  0.8720 -0.7965
 9559SOL    HW230098   1.240   7.950   0.653  0.2918  0.1693  0.6483
 9560SOL     OW30099   7.307   0.143   4.077 -0.3399  0.4240 -0.9926
 9560SOL    HW130100   7.263   0.080   4.020 -1.7693 -0.6647  1.1382
 9560SOL    HW230101   7.236   0.191   4.119  0.5216  0.0206  1.0675
 9561SOL     OW30102   5.480   4.190   0.270  0.2644  0.1248 -0.4657
 9561SOL    HW130103   5.527   4.242   0.205  0.6971 -0.2657 -0.4722
 9561SOL    HW230104   5.497   4.236   0.353  0.2487  0.2636 -0.5397
 9562SOL     OW30105   7.141   1.314   1.431 -0.1897 -0.7067  0.6939
 9562SOL    HW130106   7.089   1.375   1.484 -1.6045 -0.1477 -1.2383
 9562SOL    HW230107   7.097   1.229   1.442 -0.6645 -0.5300  0.2199
 9563SOL     OW30108   6.227   0.190   1.802  0.2341 -0.3247 -0.4199
 9563SOL    HW130109   6.137   0.159   1.812 -0.0191  0.4198 -0.3042
 9563SOL    HW230110   6.270   0.122   1.751 -0.2613 -0.9266 -0.0590
 9564SOL     OW30111   4.428   8.356   3.099 -0.1042 -0.0177  0.2570
 9564SOL    HW130112   4.403   8.431   3.045  0.3056  0.7535  1.1086
 9564SOL    HW230113   4.371   8.286   3.070  0.4017  0.2309 -1.5006
 9565SOL     OW30114   1.339   5.377   2.436 -0.2650  0.3514  0.2054
 9565SOL    HW130115   1.394   5.300   2.423 -0.5056  0.1655  0.2720
 9565SOL    HW230116   1.398   5.451   2.423 -0.3492  0.1804 -1.2993
 9566SOL     OW30117   6.652   5.206   1.743 -0.0225 -0.2010  0.3229
 9566SOL    HW130118   6.727   5.157   1.778  0.8626  1.4249  0.8339
 9566SOL    HW230119   6.651   5.185   1.650  0.4857 -0.9852  0.4798
 9567SOL     OW30120   2.410   1.995   1.268 -0.2935  0.5275 -0.0462
 9567SOL    HW130121   2.480   1.937   1.238 -0.0068 -0.5004  2.3449
 9567SOL    HW230122   2.339   1.935   1.292 -0.6781  1.3030  0.7723
 9568SOL     OW30123   3.786   6.115   7.040 -0.7164  0.2653 -0.1402
 9568SOL    HW130124   3.781   6.027   7.003 -1.5219  0.4303 -0.4469
 9568SOL    HW230125   3.864   6.154   7.001  0.7022 -0.9128  1.3708
 9569SOL     OW30126   7.349   5.858   3.164 -0.5230  0.6146 -0.8710
 9569SOL    HW130127   7.307   5.788   3.215  0.0805  0.1598 -0.9774
 9569SOL    HW230128   7.294   5.935   3.178 -0.3320  0.5207  0.5158
 9570SOL     OW30129   2.454   4.913   4.520 -0.3180  0.1725  0.6075
 9570SOL    HW130130   2.470   4.939   4.429  0.2313 -0.6097  0.4702
 9570SOL    HW230131   2.360   4.901   4.527 -0.8417  3.5665  1.0562
 9571SOL     OW30132   5.415   3.824   6.778  0.0673 -0.2618 -0.1941
 9571SOL    HW130133   5.384   3.827   6.869 -1.1701  0.2130 -0.6096
 9571SOL    HW230134   5.406   3.913   6.746  0.4396 -0.4371 -0.7999
 9572SOL     OW30135   1.786   8.339   7.417 -0.3994  0.3466  0.5286
 9572SOL    HW130136   1.756   8.351   7.508 -2.1162  0.0530  0.0428
 9572SOL    HW230137   1.732   8.400   7.367 -0.2930 -0.3501 -0.4441
 9573SOL     OW30138   2.505   8.090   1.289  0.1761  0.0994  0.5040
 9573SOL    HW130139   2.451   8.166   1.311 -0.7812 -0.0784 -1.0151
 9573SOL    HW230140   2.575   8.126   1.235  0.1161  0.0091  0.3642
 9574SOL     OW30141   4.943   2.151   5.337  0.0693  0.1406 -0.1812
 9574SOL    HW130142   4.861   2.152   5.386  0.3217 -0.4607  0.2839
 9574SOL    HW230143   4.967   2.243   5.327  1.0715  0.3287  2.7196
 9575SOL     OW30144   7.491   2.924   7.117  0.0418  0.0198  0.0707
 9575SOL    HW130145   7.568   2.959   7.073  0.5281 -0.8617  0.2038
 9575SOL    HW230146   7.419   2.941   7.056  1.0628 -3.6703 -2.5339
 9576SOL     OW30147   0.424   4.399   0.875  0.0419 -0.5653  0.5190
 9576SOL    HW130148   0.474   4.317   0.875 -1.0556 -1.2699 -0.2027
 9576SOL    HW230149   0.424   4.428   0.966  1.5685 -0.6545  0.5609
 9577SOL     OW30150   2.329   6.089   1.725  0.2092 -1.1278 -0.1208
 9577SOL    HW130151   2.336   6.102   1.630 -0.0072 -1.2164 -0.1506
 9577SOL    HW230152   2.399   6.143   1.762  0.0081 -0.7351 -0.3081
 9578SOL     OW30153   1.704   1.960   4.788 -0.1104 -0.3925  0.1833
 9578SOL    HW130154   1.733   1.995   4.872  1.0038  0.7225 -0.6204
 9578SOL    HW230155   1.609   1.960   4.793 -0.0477 -1.7614  1.9783
 9579SOL     OW30156   5.741   5.598   7.954  0.1507 -0.1468 -0.0197
 9579SOL    HW130157   5.754   5.583   7.860  1.8359  0.5643  0.0549
 9579SOL    HW230158   5.720   5.691   7.960  0.6089 -0.0585  0.3257
 9580SOL     OW30159   1.124   4.340   0.311 -0.2613  0.3201  0.4053
 9580SOL    HW130160   1.078   4.424   0.302  0.8011  1.0985  1.8624
 9580SOL    HW230161   1.064   4.285   0.361 -1.1779  0.0031 -0.9862
 9581SOL     OW30162   5.607   5.703   3.035 -0.3117 -0.1618  0.0657
 9581SOL    HW130163   5.659   5.634   3.075 -0.5673  0.0364  0.7440
 9581SOL    HW230164   5.656   5.727   2.956  0.9095  0.3880  0.9618
 9582SOL     OW30165   1.662   3.973   3.446  0.6314 -0.2125  0.1336
 9582SOL    HW130166   1.615   4.035   3.390 -1.2690  0.2634  2.1263
 9582SOL    HW230167   1.731   3.938   3.390 -1.1400  0.2099 -2.4921
 9583SOL     OW30168   8.363   4.603   2.485  0.3693 -0.2448  0.3744
 9583SOL    HW130169   8.436   4.664   2.481 -1.3698  2.0319  0.9973
 9583SOL    HW230170   8.304   4.632   2.415 -0.9206 -0.6249  1.2611
 9584SOL     OW30171   1.345   7.985   4.980  0.4098 -0.2009 -0.1482
 9584SOL    HW130172   1.252   7.978   4.957  0.1084  0.3341  0.8410
 9584SOL    HW230173   1.368   7.898   5.012 -0.1256  0.0251  0.8895
 9585SOL     OW30174   1.098   3.008   7.216  0.5153  0.5597 -0.2480
 9585SOL    HW130175   1.179   2.957   7.217  0.1610 -0.0229 -0.3734
 9585SOL    HW230176   1.036   2.956   7.267  0.0399  0.6853 -0.6867
 9586SOL     OW30177   4.445   2.430   0.294 -0.0177 -0.1746 -0.4216
 9586SOL    HW130178   4.523   2.470   0.256  0.9718 -2.4662 -0.9691
 9586SOL    HW230179   4.471   2.406   0.383 -0.7661  0.8084  0.0805
 9587SOL     OW30180   6.738   0.814   3.187  0.3680 -0.9395  0.1011
 9587SOL    HW130181   6.786   0.873   3.129 -1.7053 -2.7564 -3.8262
 9587SOL    HW230182   6.803   0.751   3.216  1.4446 -0.1043 -0.4059
 9588SOL     OW30183   5.120   2.904   8.137  0.4738  0.3097  0.1273
 9588SOL    HW130184   5.198   2.851   8.122  0.2539  0.2823 -1.0670
 9588SOL    HW230185   5.076   2.862   8.210  0.1276 -1.4140 -1.0162
 9589SOL     OW30186   8.337   6.028   1.555  0.0437  0.1213  0.1141
 9589SOL    HW130187   8.277   5.955   1.557  0.5163 -0.2699  1.4925
 9589SOL    HW230188   8.281   6.106   1.548 -0.5297 -0.3033 -0.0383
 9590SOL     OW30189   3.441   3.623   2.686 -0.6138 -0.2769  0.1454
 9590SOL    HW130190   3.359   3.610   2.734  0.1515  1.6427  2.1302
 9590SOL    HW230191   3.498   3.553   2.716 -1.4362 -1.5989 -1.2130
 9591SOL     OW30192   2.063   5.040   0.795  0.1107  0.0561  0.3983
 9591SOL    HW130193   1.968   5.032   0.801 -0.0089 -0.4834 -1.5018
 9591SOL    HW230194   2.077   5.115   0.736  0.8734  0.4600  1.0780
 9592SOL     OW30195   3.562   7.100   4.957  0.0576  0.0626  0.5199
 9592SOL    HW130196   3.545   7.066   5.044  0.2758 -0.9507  0.1789
 9592SOL    HW230197   3.514   7.182   4.953 -0.3171 -0.1084  1.4332
 9593SOL     OW30198   1.162   1.174   5.932  0.4019  0.1145 -0.1439
 9593SOL    HW130199   1.074   1.138   5.935  0.7246 -0.6386  2.2456
 9593SOL    HW230200   1.152   1.266   5.958  0.1506  0.5356 -1.6322
 9594SOL     OW30201   4.049   2.203   1.363 -0.2538 -0.1345 -0.4216
 9594SOL    HW130202   3.990   2.128   1.359 -0.9843  0.3015  1.2188
 9594SOL    HW230203   4.073   2.210   1.455 -0.3113  1.6992 -0.5056
 9595SOL     OW30204   6.559   0.699   6.315 -0.0246 -0.3232 -0.0780
 9595SOL    HW130205   6.592   0.769   6.372 -0.5821  0.4084 -0.6279
 9595SOL    HW230206   6.630   0.635   6.312  1.4231  1.2439 -1.3121
 9596SOL     OW30207   4.716   7.115   5.639  0.4523 -0.0435 -0.1048
 9596SOL    HW130208   4.668   7.159   5.709  0.7785  1.2739 -0.6664
 9596SOL    HW230209   4.685   7.157   5.559  1.4047 -0.2339 -0.5899
 9597SOL     OW30210   5.707   0.731   5.816  0.4397 -0.3831 -0.2035
 9597SOL    HW130211   5.725   0.813   5.862 -0.4629 -0.8931  1.0922
 9597SOL    HW230212   5.658   0.759   5.738 -2.2731  0.1772  1.5673
 9598SOL     OW30213   5.406   5.809   5.402 -0.6437  0.3523  0.1699
 9598SOL    HW130214   5.311   5.796   5.409 -0.6983  0.6820  0.0488
 9598SOL    HW230215   5.426   5.795   5.310 -0.6903  1.0195  0.0532
 9599SOL     OW30216   5.928   3.542   7.414  0.2889 -0.5246 -0.1965
 9599SOL    HW130217   5.876   3.490   7.475  1.4631 -1.6941 -0.1457
 9599SOL    HW230218   5.996   3.582   7.468 -0.4411  0.8860 -0.2807
 9600SOL     OW30219   6.468   3.807   5.394 -0.2669  0.6833 -0.1334
 9600SOL    HW130220   6.401   3.848   5.339 -2.3088 -1.6121  0.4560
 9600SOL    HW230221   6.516   3.750   5.333 -1.6816 -0.8591  0.0921
 9601SOL     OW30222   0.586   0.587   3.204  0.0380  0.7040 -0.1638
 9601SOL    HW130223   0.623   0.659   3.153 -1.2132  1.4151 -0.1042
 9601SOL    HW230224   0.629   0.593   3.289  2.8257 -1.0449 -1.3151
 9602SOL     OW30225   6.617   2.773   0.995  0.0577  0.2573  0.2182
 9602SOL    HW130226   6.602   2.713   0.922  3.0538 -1.4463  0.8369
 9602SOL    HW230227   6.626   2.859   0.953  3.2801 -0.8723 -1.7501
 9603SOL     OW30228   7.999   5.992   5.985 -0.4585  0.7172  0.3612
 9603SOL    HW130229   7.996   5.901   5.957  2.3767  0.9571 -1.1056
 9603SOL    HW230230   7.926   6.034   5.940 -0.9939 -0.5820 -0.0076
 9604SOL     OW30231   5.661   4.480   0.389 -0.0394 -0.7186 -0.3638
 9604SOL    HW130232   5.632   4.399   0.431 -0.8614 -0.1794  0.1366
 9604SOL    HW230233   5.589   4.504   0.330  0.0446 -0.1615 -0.2469
 9605SOL     OW30234   1.839   0.774   6.151 -0.1619 -0.3053  0.2519
 9605SOL    HW130235   1.890   0.851   6.176 -0.6361 -0.1365  0.7063
 9605SOL    HW230236   1.749   0.805   6.143 -0.4720 -0.9250  1.0973
 9606SOL     OW30237   1.645   4.120   7.455 -0.0313  0.5449  0.0468
 9606SOL    HW130238   1.628   4.105   7.548 -0.6681 -0.0462 -0.1591
 9606SOL    HW230239   1.590   4.056   7.409  1.6044 -0.4028 -0.6931
 9607SOL     OW30240   6.393   4.221   6.702  0.2047 -0.1844  1.0566
 9607SOL    HW130241   6.447   4.155   6.658 -1.8628 -1.0103 -0.4253
 9607SOL    HW230242   6.395   4.195   6.794 -0.0979 -2.0440  0.5937
 9608SOL     OW30243   1.262   0.058   0.320 -0.2014  0.6811 -0.2917
 9608SOL    HW130244   1.192   0.044   0.384 -1.5010  1.2553 -1.5347
 9608SOL    HW230245   1.305   0.139   0.348  0.4667 -0.0377  0.8726
 9609SOL     OW30246   3.046   6.687   7.187 -0.3860  0.0133  0.3397
 9609SOL    HW130247   3.005   6.773   7.173 -0.7042 -0.3196 -0.9460
 9609SOL    HW230248   3.140   6.706   7.191 -0.5539  0.6456  2.1394
 9610SOL     OW30249   8.262   7.792   1.387 -0.0654  0.3936 -0.6205
 9610SOL    HW130250   8.345   7.835   1.364  0.1958  0.6333  0.6550
 9610SOL    HW230251   8.221   7.853   1.449 -0.7256 -0.1846 -0.4913
 9611SOL     OW30252   1.639   1.893   7.385 -0.1536 -0.6632  0.2055
 9611SOL    HW130253   1.572   1.826   7.396 -0.6731 -0.0012  1.2582
 9611SOL    HW230254   1.648   1.933   7.472 -0.2047  0.9521 -0.4938
 9612SOL     OW30255   6.552   5.834   1.666 -0.5607  0.2292 -0.4784
 9612SOL    HW130256   6.610   5.847   1.741 -1.4219 -0.3011  0.3014
 9612SOL    HW230257   6.522   5.743   1.674 -0.2267 -0.0183 -1.7883
 9613SOL     OW30258   8.201   4.476   2.039 -0.2489  0.1310  0.0108
 9613SOL    HW130259   8.243   4.394   2.066  0.2618  0.7286  1.1041
 9613SOL    HW230260   8.213   4.479   1.945  0.0729 -0.8627 -0.0005
 9614SOL     OW30261   2.463   4.016   6.536 -0.2083  0.7948  0.1019
 9614SOL    HW130262   2.458   4.061   6.452 -0.1843  0.8853  0.1483
 9614SOL    HW230263   2.557   4.008   6.553 -0.1459 -1.0739 -0.8622
 9615SOL     OW30264   6.206   7.530   2.427 -0.1807  0.5446 -0.8739
 9615SOL    HW130265   6.258   7.560   2.502 -0.5166 -0.3782 -0.2550
 9615SOL    HW230266   6.115   7.543   2.455 -0.3357 -0.9537 -0.6073
 9616SOL     OW30267   7.607   7.237   1.146  0.0685 -0.0134  0.1181
 9616SOL    HW130268   7.697   7.208   1.164  0.4484  0.8425 -0.3721
 9616SOL    HW230269   7.598   7.319   1.194 -0.3399  0.0852 -0.1277
 9617SOL     OW30270   0.341   0.466   7.492 -0.9370 -0.2759  0.6576
 9617SOL    HW130271   0.266   0.424   7.449 -0.4897 -1.0010  0.5554
 9617SOL    HW230272   0.361   0.408   7.566 -0.1826 -0.3589  0.3983
 9618SOL     OW30273   7.802   6.751   0.366 -0.1982 -0.3800 -0.3480
 9618SOL    HW130274   7.758   6.717   0.288 -0.6556  0.2360 -0.3666
 9618SOL    HW230275   7.814   6.844   0.349  0.1693 -0.3384  0.1046
 9619SOL     OW30276   3.606   3.742   7.085  0.4823 -0.2357 -0.2658
 9619SOL    HW130277   3.626   3.696   7.003 -0.7515  2.8067 -2.5022
 9619SOL    HW230278   3.686   3.792   7.104  0.3209  0.0899 -0.4240
 9620SOL     OW30279   2.267   0.247   1.517  0.0590 -0.3341  0.1993
 9620SOL    HW130280   2.261   0.325   1.462 -0.6962  0.1251  0.9229
 9620SOL    HW230281   2.333   0.268   1.583 -0.6374 -0.0320  0.8133
 9621SOL     OW30282   4.361   3.565   6.909  0.1936  0.2803  0.6088
 9621SOL    HW130283   4.398   3.648   6.939 -1.2900  1.0937  0.2912
 9621SOL    HW230284   4.270   3.585   6.888  0.3021 -0.9649 -1.4082
 9622SOL     OW30285   2.673   5.977   1.863  0.1058  0.0446 -0.2222
 9622SOL    HW130286   2.742   5.988   1.929  0.2817 -1.1306 -0.1968
 9622SOL    HW230287   2.684   5.888   1.831 -0.3695  0.3977 -1.4179
 9623SOL     OW30288   0.427   4.305   5.978 -0.2108 -0.3153  0.2884
 9623SOL    HW130289   0.434   4.338   5.888  0.8829 -1.0014  0.1012
 9623SOL    HW230290   0.415   4.383   6.031 -0.2501  0.1577 -0.4030
 9624SOL     OW30291   4.080   8.069   4.551 -0.1576 -0.1816  1.1854
 9624SOL    HW130292   4.021   7.993   4.557 -0.3733  0.0343  1.8681
 9624SOL    HW230293   4.021   8.143   4.535 -0.2138  0.2189  3.0507
 9625SOL     OW30294   0.316   4.029   7.890 -0.8161  0.4446  0.0874
 9625SOL    HW130295   0.320   3.975   7.969 -0.9782  1.0330  0.5084
 9625SOL    HW230296   0.303   3.967   7.818 -0.5457 -0.1044  0.5115
 9626SOL     OW30297   0.703   4.329   2.374  0.5613  0.1218 -0.1418
 9626SOL    HW130298   0.687   4.235   2.367 -2.8848  0.5853 -0.2163
 9626SOL    HW230299   0.723   4.357   2.285 -2.6265 -0.0294 -1.0336
 9627SOL     OW30300   3.060   0.033   7.351 -0.8298  0.9560 -0.5574
 9627SOL    HW130301   3.074   0.076   7.435 -1.1410  1.2979 -0.6781
 9627SOL    HW230302   3.118  -0.043   7.352 -2.5470 -0.4234  0.9733
 9628SOL     OW30303   3.096   8.342   4.710 -0.6198 -0.5947 -0.5269
 9628SOL    HW130304   3.142   8.289   4.775 -0.3807  2.2091  1.7652
 9628SOL    HW230305   3.165   8.374   4.652 -0.6970 -2.2306 -1.5716
 9629SOL     OW30306   5.437   2.744   5.601 -0.2801  0.1519  0.2128
 9629SOL    HW130307   5.431   2.649   5.588  0.3671  0.0181  0.8052
 9629SOL    HW230308   5.422   2.755   5.695 -0.1815  0.6200  0.1739
 9630SOL     OW30309   2.038   4.844   1.428 -0.1771  0.1424  0.3107
 9630SOL    HW130310   1.993   4.885   1.502 -0.6573 -1.8840  1.2160
 9630SOL    HW230311   1.975   4.781   1.394  0.3083  0.5248 -1.4021
 9631SOL     OW30312   7.633   1.882   4.052  0.0810  0.0376 -0.2148
 9631SOL    HW130313   7.635   1.972   4.083  0.2076  0.2057 -0.7031
 9631SOL    HW230314   7.726   1.857   4.046  0.0660  0.0737 -0.6426
 9632SOL     OW30315   8.088   1.667   7.648 -0.5629 -0.2664  0.3544
 9632SOL    HW130316   8.158   1.728   7.671  1.4391 -1.2712 -2.4744
 9632SOL    HW230317   8.015   1.723   7.622  1.2720  1.1451 -2.3859
 9633SOL     OW30318   4.343   2.849   6.204 -0.0603  0.2365 -0.0592
 9633SOL    HW130319   4.265   2.795   6.216  0.1254  0.2460  1.2870
 9633SOL    HW230320   4.338   2.878   6.113 -0.3811 -1.6973 -0.7207
 9634SOL     OW30321   1.371   4.723   1.156  0.7311  0.9122  0.2245
 9634SOL    HW130322   1.313   4.787   1.114 -1.7427 -1.8860 -0.9988
 9634SOL    HW230323   1.449   4.722   1.101 -0.7695  0.2883 -2.0483
 9635SOL     OW30324   4.414   5.251   6.611 -0.1435 -0.0083 -0.0022
 9635SOL    HW130325   4.479   5.192   6.573  0.4015  1.1810 -0.9957
 9635SOL    HW230326   4.396   5.215   6.698  1.3395 -0.7443  0.0226
 9636SOL     OW30327   7.405   5.165   3.691  0.5539 -0.6187  0.5351
 9636SOL    HW130328   7.404   5.220   3.613  0.7772  0.5894  1.3698
 9636SOL    HW230329   7.463   5.092   3.668 -1.2458 -1.5713 -1.2580
 9637SOL     OW30330   2.484   6.421   7.082  1.0689  0.5277  0.5726
 9637SOL    HW130331   2.476   6.360   7.009 -1.1004 -1.3245  2.2245
 9637SOL    HW230332   2.554   6.385   7.136  0.5639  0.1120  0.9619
 9638SOL     OW30333   5.312   5.850   7.411 -0.4151  0.0681  0.1443
 9638SOL    HW130334   5.231   5.878   7.370 -0.6140 -1.4035 -0.5156
 9638SOL    HW230335   5.371   5.925   7.399 -0.4929 -0.2060 -2.7414
 9639SOL     OW30336   5.456   2.012   6.686 -0.4533  0.2039  0.4528
 9639SOL    HW130337   5.396   2.068   6.636 -0.2353 -2.1022 -2.7388
 9639SOL    HW230338   5.408   1.930   6.697  0.5220 -0.2068  1.8689
 9640SOL     OW30339   0.500   2.657   4.214  0.2801 -0.2249 -0.5678
 9640SOL    HW130340   0.425   2.707   4.248 -0.1173  0.3912 -2.2438
 9640SOL    HW230341   0.541   2.716   4.151  0.4119 -1.6298 -1.8364
 9641SOL     OW30342   1.067   7.845   0.427  0.1155 -0.2662  0.0011
 9641SOL    HW130343   0.981   7.824   0.390  0.6903  0.0456 -1.5762
 9641SOL    HW230344   1.117   7.764   0.419  0.2306 -0.2152  0.1871
 9642SOL     OW30345   0.198   0.281   7.346  0.3590  0.5404 -0.5189
 9642SOL    HW130346   0.123   0.318   7.299 -0.0045 -0.5715 -0.8637
 9642SOL    HW230347   0.160   0.213   7.401  0.8360  1.5551  1.1259
 9643SOL     OW30348   0.601   6.284   3.767 -0.5438 -0.4600 -0.4997
 9643SOL    HW130349   0.659   6.225   3.813  0.0785  2.0157  2.2057
 9643SOL    HW230350   0.513   6.260   3.796 -0.4731 -1.1908 -0.8779
 9644SOL     OW30351   4.786   3.688   1.928 -0.3667 -0.4138  0.2217
 9644SOL    HW130352   4.725   3.618   1.952 -0.7975 -0.0671  0.1484
 9644SOL    HW230353   4.788   3.746   2.003 -1.6083  0.5955 -0.4927
 9645SOL     OW30354   7.027   0.442   1.537  0.5007  0.1119  0.1333
 9645SOL    HW130355   7.096   0.376   1.549 -0.0726 -0.7828 -1.1923
 9645SOL    HW230356   6.952   0.406   1.584  0.1029 -0.3450 -0.8289
 9646SOL     OW30357   3.295   5.377   2.702 -0.1055 -0.5347 -0.1718
 9646SOL    HW130358   3.340   5.328   2.771  0.7143 -0.7132 -0.8131
 9646SOL    HW230359   3.353   5.452   2.686 -0.4710 -0.3054 -0.4134
 9647SOL     OW30360   3.226   4.904   5.082  0.4644  0.0530 -0.2029
 9647SOL    HW130361   3.201   4.984   5.129 -2.1761 -1.4143  1.1110
 9647SOL    HW230362   3.157   4.892   5.017  0.6681 -1.2759 -0.1995
 9648SOL     OW30363   1.490   2.943   0.994 -0.1774 -0.5198  0.0319
 9648SOL    HW130364   1.482   3.038   1.003 -0.3107 -0.6588  1.7968
 9648SOL    HW230365   1.584   2.928   0.978  0.0564 -0.1563  1.0214
 9649SOL     OW30366   7.776   4.125   6.372  0.0872  0.3405 -0.1070
 9649SOL    HW130367   7.721   4.202   6.387 -0.3829  0.2556 -1.2553
 9649SOL    HW230368   7.804   4.134   6.280 -0.6043 -1.2434 -0.4991
 9650SOL     OW30369   3.135   6.861   2.586 -0.0296  0.6282 -0.4025
 9650SOL    HW130370   3.170   6.946   2.559  0.6949  0.3149 -0.4800
 9650SOL    HW230371   3.041   6.874   2.590  0.0225  1.2663 -1.0101
 9651SOL     OW30372   6.601   0.839   4.545  0.1967 -0.0022  0.3707
 9651SOL    HW130373   6.642   0.762   4.583 -1.5816 -0.9929  0.3780
 9651SOL    HW230374   6.619   0.833   4.451  1.0193  0.1981  0.5097
 9652SOL     OW30375   3.199   2.459   5.695  0.1737 -0.4282 -0.2296
 9652SOL    HW130376   3.146   2.424   5.767 -1.8312 -0.1968 -1.5085
 9652SOL    HW230377   3.174   2.406   5.620 -0.1704  1.3384 -1.4122
 9653SOL     OW30378   7.550   0.027   3.799 -0.4413  0.1528  0.1423
 9653SOL    HW130379   7.604   0.090   3.753 -0.7405 -0.3012 -0.8538
 9653SOL    HW230380   7.469   0.022   3.748 -0.3903 -1.0862  0.1406
 9654SOL     OW30381   4.646   2.652   2.564  0.1678 -0.0940  0.1956
 9654SOL    HW130382   4.719   2.695   2.608 -1.2454  3.1685 -0.3452
 9654SOL    HW230383   4.587   2.625   2.635  0.5516 -0.1197  0.5054
 9655SOL     OW30384   7.093   8.137   6.331  0.0259 -0.5001  0.0858
 9655SOL    HW130385   7.052   8.060   6.292 -0.1730 -0.6498  0.5728
 9655SOL    HW230386   7.020   8.184   6.373  0.2169 -0.2961  0.1916
 9656SOL     OW30387   7.086   2.819   6.203  0.5402 -0.4702  0.0039
 9656SOL    HW130388   7.109   2.770   6.124 -1.9844  0.2392 -1.2761
 9656SOL    HW230389   7.151   2.889   6.208  0.6819 -0.4737 -1.5232
 9657SOL     OW30390   5.871   0.523   3.169 -0.2889  0.4319  0.2769
 9657SOL    HW130391   5.887   0.527   3.074  0.7801  1.7633  0.4822
 9657SOL    HW230392   5.809   0.593   3.186 -0.0317  0.5722  0.6452
 9658SOL     OW30393   6.919   3.462   4.127  0.2242  0.0580  0.0889
 9658SOL    HW130394   7.014   3.471   4.137  0.2080  2.3227 -1.1440
 9658SOL    HW230395   6.908   3.412   4.046  0.3080 -1.9245  1.2384
 9659SOL     OW30396   5.855   3.256   4.475 -0.2442 -0.1262 -0.0507
 9659SOL    HW130397   5.919   3.326   4.459  1.1216 -1.0189  1.2396
 9659SOL    HW230398   5.849   3.210   4.391  0.5914  0.1719 -0.2886
 9660SOL     OW30399   1.093   4.787   4.805 -0.5102  0.1888  0.2354
 9660SOL    HW130400   1.153   4.848   4.847  0.5218 -1.1577  0.7949
 9660SOL    HW230401   1.006   4.821   4.827 -0.0166  2.3188 -0.8016
 9661SOL     OW30402   7.184   2.541   0.569  0.4328 -0.1113  0.0383
 9661SOL    HW130403   7.150   2.527   0.657  1.8958 -0.2983  0.6004
 9661SOL    HW230404   7.145   2.471   0.517 -0.6022  0.1243  0.4835
 9662SOL     OW30405   4.631   7.461   6.428  0.1512  0.0494  0.2530
 9662SOL    HW130406   4.556   7.497   6.475 -0.9550 -1.4196 -0.3449
 9662SOL    HW230407   4.635   7.369   6.453  0.3633 -0.4451 -1.4334
 9663SOL     OW30408   3.431   4.539   2.474 -0.0659  0.2604  0.0231
 9663SOL    HW130409   3.394   4.603   2.535  0.2322 -0.4655  0.9939
 9663SOL    HW230410   3.526   4.550   2.483  0.0358  1.6827 -1.9931
 9664SOL     OW30411   1.537   4.728   1.745 -0.0531  0.3633  0.0023
 9664SOL    HW130412   1.595   4.714   1.820 -0.4201  0.1634  0.2492
 9664SOL    HW230413   1.472   4.658   1.751 -0.6054  0.8689 -0.0000
 9665SOL     OW30414   4.663   2.603   0.318  1.1074  0.4895 -0.6284
 9665SOL    HW130415   4.728   2.550   0.272  2.7019  1.1730  0.7267
 9665SOL    HW230416   4.696   2.608   0.408 -1.5928 -0.3238  0.4929
 9666SOL     OW30417   6.500   2.437   5.113  0.0919 -0.4536  0.3445
 9666SOL    HW130418   6.411   2.450   5.145 -0.6906 -2.7542 -0.6283
 9666SOL    HW230419   6.530   2.524   5.088 -1.7040  0.4380  1.1261
 9667SOL     OW30420   1.119   2.755   0.531 -0.0286 -0.0878  0.5971
 9667SOL    HW130421   1.130   2.829   0.470 -2.0060 -0.2568 -0.0259
 9667SOL    HW230422   1.173   2.779   0.607  2.5006  0.1418 -1.1435
 9668SOL     OW30423   6.638   1.362   0.979  0.3627 -0.7045 -0.5868
 9668SOL    HW130424   6.580   1.291   0.952  1.4196 -1.2217 -1.5479
 9668SOL    HW230425   6.610   1.437   0.925 -1.3181 -0.0860  1.0252
 9669SOL     OW30426   2.448   3.505   5.498  0.2988 -0.1322  0.4510
 9669SOL    HW130427   2.413   3.522   5.585 -2.5249 -0.3092 -0.5344
 9669SOL    HW230428   2.479   3.591   5.468 -0.0963  0.2348  1.0705
 9670SOL     OW30429   2.097   1.694   0.010  0.0757 -0.0058  0.5170
 9670SOL    HW130430   2.129   1.779   0.041  1.4675 -0.0303 -0.7407
 9670SOL    HW230431   2.120   1.692  -0.083 -2.0211 -0.8330 -0.0448
 9671SOL     OW30432   1.782   7.715   7.482 -0.0534  0.0776  0.0211
 9671SOL    HW130433   1.832   7.792   7.507 -1.3607  0.5733  1.2433
 9671SOL    HW230434   1.707   7.749   7.434 -0.5860 -0.4195  0.4769
 9672SOL     OW30435   3.957   5.860   3.026  0.0294 -0.4821 -0.7486
 9672SOL    HW130436   3.934   5.949   3.000  0.4939 -0.9623 -3.0246
 9672SOL    HW230437   3.873   5.815   3.038 -0.2143  0.3369  0.8792
 9673SOL     OW30438   0.547   1.764   2.369  0.1659  0.3863  0.2890
 9673SOL    HW130439   0.617   1.828   2.355 -1.0446  1.1923 -2.8932
 9673SOL    HW230440   0.580   1.683   2.329  0.1338  0.1154  0.7959
 9674SOL     OW30441   7.687   3.539   5.107 -0.1879 -0.6732 -0.0293
 9674SOL    HW130442   7.690   3.460   5.161  0.5590  0.7600  2.1580
 9674SOL    HW230443   7.753   3.524   5.039 -1.2568 -2.5929 -0.7028
 9675SOL     OW30444   7.228   7.162   5.977 -0.1729  0.0932  0.5953
 9675SOL    HW130445   7.318   7.134   5.961  0.0332  0.1148  1.6592
 9675SOL    HW230446   7.215   7.236   5.917  0.1653 -0.5501 -0.3011
 9676SOL     OW30447   0.148   6.249   0.869 -0.1011 -0.1242 -0.1975
 9676SOL    HW130448   0.176   6.176   0.813 -0.1229  1.0758 -1.8317
 9676SOL    HW230449   0.220   6.312   0.863 -0.8246  0.7111 -0.1593
 9677SOL     OW30450   0.272   1.926   2.779 -0.0262  0.0550 -0.0987
 9677SOL    HW130451   0.273   1.910   2.684 -1.5340  0.0945 -0.1363
 9677SOL    HW230452   0.353   1.886   2.810  0.4940  0.0312 -1.4010
 9678SOL     OW30453   6.233   7.901   2.606 -0.6568  0.1438 -0.0440
 9678SOL    HW130454   6.298   7.910   2.676  0.6536  0.2293 -1.2395
 9678SOL    HW230455   6.162   7.849   2.646  0.1029  0.0952  1.2990
 9679SOL     OW30456   5.776   2.369   1.959  0.2084  0.0970  0.7067
 9679SOL    HW130457   5.762   2.284   1.918  0.2609  0.5459 -0.2608
 9679SOL    HW230458   5.751   2.433   1.892  0.8525  0.8493  1.1662
 9680SOL     OW30459   7.598   0.713   0.631  0.1061 -0.0197 -0.0875
 9680SOL    HW130460   7.597   0.784   0.695 -1.4221 -0.1882  0.1200
 9680SOL    HW230461   7.547   0.747   0.557 -1.2047 -1.0788  0.2771
 9681SOL     OW30462   3.422   7.779   2.423 -0.0343 -0.3777 -0.7072
 9681SOL    HW130463   3.359   7.818   2.484  0.9710 -1.3534  1.0492
 9681SOL    HW230464   3.386   7.693   2.404  0.3281 -0.6098 -0.3661
 9682SOL     OW30465   1.806   4.757   5.813 -0.4748 -0.2903 -0.3784
 9682SOL    HW130466   1.711   4.748   5.821 -0.1577 -2.9386  1.4076
 9682SOL    HW230467   1.836   4.781   5.900  0.6413 -1.3808 -0.4274
 9683SOL     OW30468   7.156   8.108   3.803  0.1515  0.1649 -0.2698
 9683SOL    HW130469   7.177   8.044   3.871  0.4443 -1.0272 -1.4334
 9683SOL    HW230470   7.063   8.128   3.818 -0.1865 -1.1978 -0.3874
 9684SOL     OW30471   7.884   0.609   1.798  0.5531 -0.2540 -0.1458
 9684SOL    HW130472   7.939   0.599   1.720  1.2011  2.5880 -0.1701
 9684SOL    HW230473   7.794   0.599   1.765  0.8762 -0.8671 -0.8903
 9685SOL     OW30474   1.916   3.710   3.027 -0.6974 -0.0212 -0.1515
 9685SOL    HW130475   1.901   3.626   2.982 -1.5639  1.4912 -2.9116
 9685SOL    HW230476   1.955   3.685   3.110  0.4792 -3.0944 -1.4600
 9686SOL     OW30477   5.689   3.433   7.988 -0.0489  0.3521  0.0845
 9686SOL    HW130478   5.615   3.486   7.957 -1.2193  0.6755  3.0771
 9686SOL    HW230479   5.684   3.439   8.083  2.6183 -1.3748  0.4291
 9687SOL     OW30480   4.499   1.489   5.305  0.0803 -0.7329  0.0084
 9687SOL    HW130481   4.455   1.511   5.388  0.1668  0.6997 -0.3045
 9687SOL    HW230482   4.591   1.510   5.320 -0.1051  0.8868 -0.8609
 9688SOL     OW30483   3.019   6.853   3.745  0.3000  0.3583 -0.3918
 9688SOL    HW130484   3.033   6.767   3.705  0.6190  0.7229 -1.0974
 9688SOL    HW230485   2.956   6.838   3.815 -0.1967 -0.3286 -0.9812
 9689SOL     OW30486   0.611   6.088   1.085 -0.5552 -0.3686 -0.3840
 9689SOL    HW130487   0.679   6.030   1.119 -0.4246 -0.6784 -1.1505
 9689SOL    HW230488   0.651   6.175   1.087 -0.4788 -0.4081  0.0514
 9690SOL     OW30489   3.048   6.565   5.176 -0.6160 -0.2992  0.1427
 9690SOL    HW130490   3.117   6.591   5.238 -0.0078 -1.1313 -0.1763
 9690SOL    HW230491   2.987   6.513   5.229 -1.2951  0.8646  0.5449
 9691SOL     OW30492   0.187   5.805   2.904  0.2565  0.1578  0.0994
 9691SOL    HW130493   0.131   5.752   2.846  1.7029 -1.6942  0.3175
 9691SOL    HW230494   0.127   5.837   2.972 -2.0535  4.3364 -3.3898
 9692SOL     OW30495   2.655   5.786   0.956  0.1525 -0.4856 -0.5279
 9692SOL    HW130496   2.739   5.774   0.912 -0.0788  0.2646 -1.1853
 9692SOL    HW230497   2.590   5.753   0.895  0.0216 -2.1277  0.4363
 9693SOL     OW30498   0.723   3.548   5.713  0.2238  0.1518  0.6585
 9693SOL    HW130499   0.730   3.630   5.664 -0.7967  0.0059  0.2477
 9693SOL    HW230500   0.807   3.540   5.758  0.2259  1.5762  0.9487
 9694SOL     OW30501   3.011   3.353   4.588 -0.3113  0.2765 -0.4654
 9694SOL    HW130502   3.074   3.407   4.636 -1.2523  0.6408  0.3849
 9694SOL    HW230503   3.001   3.275   4.642  0.8224 -0.6746 -1.5446
 9695SOL     OW30504   6.177   3.161   6.224  0.2246  0.3533  0.5932
 9695SOL    HW130505   6.145   3.072   6.208 -1.9929  1.1821  0.0785
 9695SOL    HW230506   6.171   3.204   6.139 -0.3031  1.4597  1.1741
 9696SOL     OW30507   3.000   7.791   3.073 -0.3114  0.1825  0.1201
 9696SOL    HW130508   2.917   7.764   3.112 -0.2541 -0.6443 -0.3064
 9696SOL    HW230509   3.039   7.709   3.040 -0.3714  0.8334 -1.6997
 9697SOL     OW30510   8.328   4.096   0.485  0.2842  0.2755 -0.1394
 9697SOL    HW130511   8.296   4.064   0.569 -0.1641  1.4650  0.1714
 9697SOL    HW230512   8.327   4.191   0.494  0.2984  0.4206 -1.4702
 9698SOL     OW30513   3.056   5.766   4.898  0.4273 -0.0836  0.2899
 9698SOL    HW130514   2.966   5.795   4.909  0.0546 -1.6210  1.7903
 9698SOL    HW230515   3.058   5.727   4.810  0.1376  1.4868 -0.4584
 9699SOL     OW30516   5.575   0.519   0.911  0.2399 -0.5106 -0.5659
 9699SOL    HW130517   5.661   0.477   0.900  0.8407  0.3129  0.7358
 9699SOL    HW230518   5.590   0.588   0.976 -1.7951 -1.6204  1.2338
 9700SOL     OW30519   1.007   6.436   8.157  0.2469 -0.6882 -0.3743
 9700SOL    HW130520   0.934   6.388   8.197 -0.7783  0.0781 -1.2421
 9700SOL    HW230521   1.019   6.394   8.071  0.2573 -0.2767 -0.5782
 9701SOL     OW30522   3.903   6.404   6.641  0.6910  0.2218 -0.6005
 9701SOL    HW130523   3.857   6.473   6.690 -0.9439 -2.7975  2.5304
 9701SOL    HW230524   3.995   6.414   6.667  0.4009  0.8684  0.2323
 9702SOL     OW30525   3.091   1.210   7.395  0.4044 -0.0591 -0.3134
 9702SOL    HW130526   3.064   1.301   7.407 -1.7677 -0.6752 -0.1506
 9702SOL    HW230527   3.085   1.196   7.300 -0.7753 -0.4424 -0.1950
 9703SOL     OW30528   5.245   1.835   6.665 -0.5726  0.2584 -0.6823
 9703SOL    HW130529   5.239   1.842   6.569 -1.5401  0.3667 -0.6206
 9703SOL    HW230530   5.171   1.886   6.698  1.3383  2.5917  0.2404
 9704SOL     OW30531   2.195   2.098   2.924 -0.1294  0.1600 -0.4489
 9704SOL    HW130532   2.280   2.100   2.880  0.6225 -2.1728  0.7248
 9704SOL    HW230533   2.196   2.174   2.983  1.4320 -0.1883  0.0169
 9705SOL     OW30534   8.304   0.947   4.802  0.1274  0.1815  0.0786
 9705SOL    HW130535   8.230   0.977   4.749 -0.2142 -1.0019 -0.1436
 9705SOL    HW230536   8.316   1.017   4.867  0.2712  1.4461 -1.2500
 9706SOL     OW30537   1.521   1.715   2.758  0.5945  0.2033 -0.2419
 9706SOL    HW130538   1.605   1.759   2.770  0.4361  1.4646 -2.8743
 9706SOL    HW230539   1.456   1.783   2.775  0.1091 -0.4833  0.7501
 9707SOL     OW30540   1.128   6.577   6.921  0.1744  0.3399 -0.1443
 9707SOL    HW130541   1.198   6.615   6.973  0.2289  0.4938 -0.3318
 9707SOL    HW230542   1.060   6.645   6.918 -0.6100 -0.3370  1.2706
 9708SOL     OW30543   3.418   0.885   2.204  0.2716  0.3544  0.0445
 9708SOL    HW130544   3.331   0.845   2.207  0.3055  0.3027  0.3951
 9708SOL    HW230545   3.418   0.937   2.124  1.4249 -3.0472 -2.4201
 9709SOL     OW30546   1.948   2.651   3.564 -0.2028  0.3375  0.0335
 9709SOL    HW130547   2.038   2.625   3.542 -0.5623  0.0367 -1.1486
 9709SOL    HW230548   1.957   2.701   3.646  0.5250 -3.7232  2.7326
 9710SOL     OW30549   0.894   6.465   4.638 -0.3432  0.1758  0.0836
 9710SOL    HW130550   0.832   6.405   4.680  0.3539 -0.4563  0.2389
 9710SOL    HW230551   0.979   6.437   4.671 -0.0600  1.8040  0.8194
 9711SOL     OW30552   5.914   4.586   5.581 -0.7761  0.0475 -0.2005
 9711SOL    HW130553   5.841   4.648   5.582 -1.0641 -0.2715 -0.8700
 9711SOL    HW230554   5.939   4.578   5.489 -0.0359 -0.0129 -0.0007
 9712SOL     OW30555   5.614   7.402   1.024  0.2875 -0.5408 -0.3844
 9712SOL    HW130556   5.530   7.444   1.008 -0.2780 -1.0610  1.1018
 9712SOL    HW230557   5.595   7.330   1.084  1.7221 -0.9755 -0.3955
 9713SOL     OW30558   1.062   4.942   0.951 -0.2860  0.3184 -0.0859
 9713SOL    HW130559   1.064   4.846   0.954 -0.9302  0.3143  1.1249
 9713SOL    HW230560   0.978   4.963   0.910  0.3269  0.3821 -1.3459
 9714SOL     OW30561   7.247   6.223   0.493  0.4966 -0.4002  0.7436
 9714SOL    HW130562   7.318   6.287   0.500  0.4300 -0.3408  0.8794
 9714SOL    HW230563   7.198   6.251   0.415 -0.8732  1.0882  2.0581
 9715SOL     OW30564   2.564   1.756   2.009 -0.3935 -0.2587 -0.4809
 9715SOL    HW130565   2.497   1.788   2.070  0.0645  0.2992 -0.2518
 9715SOL    HW230566   2.647   1.782   2.050  0.0843 -2.6205  0.2324
 9716SOL     OW30567   2.204   3.180   7.693 -0.4913  0.3361 -0.3710
 9716SOL    HW130568   2.178   3.093   7.663  0.4970  0.2879 -1.1270
 9716SOL    HW230569   2.295   3.171   7.721 -1.1755  0.5078  2.2287
 9717SOL     OW30570   1.511   3.759   1.116 -0.2939  0.5351  0.1406
 9717SOL    HW130571   1.529   3.763   1.022 -0.6984 -0.2783  0.0239
 9717SOL    HW230572   1.434   3.816   1.127 -0.3769  0.4636 -0.0526
 9718SOL     OW30573   6.502   1.569   3.078  0.1264 -0.5212  0.4121
 9718SOL    HW130574   6.522   1.571   2.984 -1.5551  1.5582  0.0241
 9718SOL    HW230575   6.475   1.479   3.094 -1.5156 -0.4614 -1.5865
 9719SOL     OW30576   1.931   2.430   0.433 -0.5185  0.2258 -0.1891
 9719SOL    HW130577   1.853   2.416   0.380 -0.1169  1.4481 -1.1472
 9719SOL    HW230578   1.964   2.515   0.406  1.2210 -0.3011  0.1028
 9720SOL     OW30579   2.481   0.018   6.303 -0.0821  0.1971 -0.5687
 9720SOL    HW130580   2.488  -0.037   6.225 -1.7099 -3.0606  1.3847
 9720SOL    HW230581   2.568   0.057   6.313  1.1770 -1.9953 -2.1450
 9721SOL     OW30582   6.798   4.164   4.897  0.2154  0.5553 -0.7038
 9721SOL    HW130583   6.889   4.135   4.898 -0.6057 -2.6275  2.2651
 9721SOL    HW230584   6.795   4.233   4.964  0.5437  1.1510 -1.2956
 9722SOL     OW30585   6.258   3.249   2.304 -0.6670  0.0511 -0.5423
 9722SOL    HW130586   6.200   3.320   2.277  0.6561  2.5955  2.6436
 9722SOL    HW230587   6.333   3.256   2.245 -0.5149  1.4103 -0.2230
 9723SOL     OW30588   5.869   3.310   1.720 -0.0465  0.7330 -0.3550
 9723SOL    HW130589   5.949   3.355   1.692 -0.6191  2.0195  0.0272
 9723SOL    HW230590   5.798   3.362   1.682 -0.7183 -0.1641 -0.3524
 9724SOL     OW30591   1.909   6.907   4.413  0.1169 -0.0769  0.1979
 9724SOL    HW130592   1.926   6.992   4.454  0.4865 -0.1388  0.1770
 9724SOL    HW230593   1.817   6.890   4.431  0.0633  0.2864  0.2815
 9725SOL     OW30594   5.679   1.434   1.167  0.1207  0.3025 -0.0745
 9725SOL    HW130595   5.630   1.460   1.245 -0.4672  0.8084 -0.5997
 9725SOL    HW230596   5.636   1.354   1.136 -1.4892  1.6149 -1.4682
 9726SOL     OW30597   0.149   7.514   2.158 -0.3378 -0.4952  0.0191
 9726SOL    HW130598   0.137   7.578   2.228 -3.5459  0.0944 -0.9124
 9726SOL    HW230599   0.204   7.445   2.198  0.3518  1.1518  2.1276
 9727SOL     OW30600   6.986   1.901   0.806 -0.6913 -0.1029 -0.1160
 9727SOL    HW130601   6.908   1.886   0.753  0.4633 -0.4427 -1.7847
 9727SOL    HW230602   6.964   1.977   0.860 -2.6034 -0.9508  0.3672
 9728SOL     OW30603   4.182   6.187   6.570 -0.1786 -0.0585  0.5047
 9728SOL    HW130604   4.240   6.122   6.531 -0.7635  0.8271 -2.0204
 9728SOL    HW230605   4.241   6.247   6.616  0.7194 -0.2750 -0.3289
 9729SOL     OW30606   7.113   1.654   2.052  0.6560 -0.1723  0.2420
 9729SOL    HW130607   7.099   1.620   1.964  0.6095  0.5665 -0.0452
 9729SOL    HW230608   7.029   1.694   2.076  0.8699  0.2250  0.3446
 9730SOL     OW30609   3.932   2.956   0.061 -0.4165 -0.6223  0.2040
 9730SOL    HW130610   3.893   2.903   0.130 -1.5916  0.7973  0.6910
 9730SOL    HW230611   4.021   2.973   0.091  0.4451 -3.2818 -0.5605
 9731SOL     OW30612   3.261   0.160   6.847  0.0206 -0.0260 -0.1449
 9731SOL    HW130613   3.244   0.075   6.806 -1.9594 -0.1929  0.9350
 9731SOL    HW230614   3.274   0.141   6.940  0.3740  0.7757 -0.0171
 9732SOL     OW30615   7.004   0.842   4.300 -0.5746  0.1561  0.5500
 9732SOL    HW130616   7.075   0.778   4.306  1.1095  1.7863 -0.6415
 9732SOL    HW230617   6.933   0.797   4.256  0.5679 -0.8880 -0.2770
 9733SOL     OW30618   3.008   4.860   3.761  0.3122  0.5217  0.0930
 9733SOL    HW130619   3.071   4.836   3.829  1.3225  1.5399 -0.4295
 9733SOL    HW230620   2.925   4.872   3.807  0.9265  0.9971  1.1082
 9734SOL     OW30621   1.795   1.346   6.482  0.2313 -0.3330  0.5395
 9734SOL    HW130622   1.740   1.419   6.455 -1.4146 -1.8869 -0.5745
 9734SOL    HW230623   1.871   1.349   6.424 -0.1437  0.1100  0.0742
 9735SOL     OW30624   2.009   4.469   3.510 -0.0983 -0.3607  0.1975
 9735SOL    HW130625   2.047   4.438   3.592  0.9000 -0.6050 -0.3504
 9735SOL    HW230626   2.065   4.541   3.483 -0.2271 -0.4971 -0.4453
 9736SOL     OW30627   2.331   5.648   4.619 -0.0013 -0.1565 -0.1972
 9736SOL    HW130628   2.255   5.614   4.571 -1.2153  0.3640  1.2745
 9736SOL    HW230629   2.327   5.743   4.605 -1.6445  0.2912  2.5191
 9737SOL     OW30630   3.097   5.461   0.982  0.0480  0.1703 -0.0334
 9737SOL    HW130631   3.174   5.503   0.943  0.7243  0.2054  1.2871
 9737SOL    HW230632   3.125   5.435   1.070 -1.4904  0.3068  0.5380
 9738SOL     OW30633   5.212   4.720   0.122 -0.3891  0.2016  0.5173
 9738SOL    HW130634   5.124   4.745   0.093 -0.3934 -0.4496 -0.0490
 9738SOL    HW230635   5.237   4.789   0.184 -1.2770  0.4221  0.6503
 9739SOL     OW30636   1.218   6.222   8.185 -0.1963 -0.3521  0.3380
 9739SOL    HW130637   1.239   6.198   8.095 -3.2832  0.0289 -0.5959
 9739SOL    HW230638   1.160   6.297   8.178 -0.2711 -0.1013  2.6745
 9740SOL     OW30639   5.033   1.722   5.424  0.2455  0.0173  0.3454
 9740SOL    HW130640   4.973   1.732   5.498 -1.5799  0.4811 -1.1330
 9740SOL    HW230641   5.011   1.637   5.385  2.5547 -1.1834  1.4223
 9741SOL     OW30642   2.027   8.127   0.830  0.0417 -0.2828 -0.4859
 9741SOL    HW130643   2.050   8.091   0.915  0.1623 -0.7326 -0.7074
 9741SOL    HW230644   1.932   8.128   0.828  0.0325  0.3891 -0.0712
 9742SOL     OW30645   3.942   5.046   7.150 -0.2865 -0.1376  0.5403
 9742SOL    HW130646   3.891   5.126   7.139 -0.5700 -0.2228  1.2086
 9742SOL    HW230647   3.885   4.988   7.201 -0.3609 -1.0245 -0.5165
 9743SOL     OW30648   1.114   0.747   5.614  0.2510 -0.2740  0.6692
 9743SOL    HW130649   1.094   0.763   5.707 -0.0697  0.1946  0.5280
 9743SOL    HW230650   1.029   0.725   5.575  0.5224 -1.2818  0.6437
 9744SOL     OW30651   8.292   7.626   7.783 -0.2788 -0.1537  0.0684
 9744SOL    HW130652   8.345   7.550   7.808 -0.3466 -0.2847 -0.1774
 9744SOL    HW230653   8.225   7.631   7.850 -0.2628 -0.3019  0.0964
 9745SOL     OW30654   3.313   5.442   5.581  0.0516 -0.5438 -0.0873
 9745SOL    HW130655   3.227   5.429   5.621  0.6709 -0.8491  1.1835
 9745SOL    HW230656   3.295   5.440   5.487 -1.6465  1.5094  0.1197
 9746SOL     OW30657   3.201   4.844   1.364  0.4143  0.0390  0.6677
 9746SOL    HW130658   3.202   4.938   1.344  2.7021 -0.1000 -0.1594
 9746SOL    HW230659   3.111   4.816   1.344  0.7069  1.2525 -3.2338
 9747SOL     OW30660   2.713   6.651   1.820  0.1247 -0.7573  0.7744
 9747SOL    HW130661   2.687   6.637   1.729  1.1107  1.2163  0.1318
 9747SOL    HW230662   2.801   6.612   1.826  0.6554  0.3407  0.4491
 9748SOL     OW30663   4.849   3.844   6.488  0.0987  0.7149 -0.0936
 9748SOL    HW130664   4.921   3.795   6.529 -1.1203 -1.6073 -0.5418
 9748SOL    HW230665   4.875   3.853   6.396  0.0294  0.2841 -0.1567
 9749SOL     OW30666   0.979   4.188   1.544 -0.4717 -0.1810  0.4421
 9749SOL    HW130667   0.925   4.172   1.467 -0.8871 -0.0906  0.7079
 9749SOL    HW230668   0.979   4.283   1.555  0.3499 -0.1254  0.0198
 9750SOL     OW30669   4.436   6.183   8.341  0.9089 -0.4975 -0.0945
 9750SOL    HW130670   4.474   6.104   8.378 -1.3725 -1.0804  1.2152
 9750SOL    HW230671   4.354   6.154   8.301  0.9648  0.9117 -1.3189
 9751SOL     OW30672   5.265   0.997   6.745 -0.3035  0.4973 -0.4170
 9751SOL    HW130673   5.193   0.935   6.754  1.5476 -1.5552  1.6806
 9751SOL    HW230674   5.286   0.997   6.651  1.1343 -4.0846 -0.3228
 9752SOL     OW30675   3.176   4.796   7.534  0.5953 -0.0842 -0.3971
 9752SOL    HW130676   3.132   4.713   7.552 -0.1257  0.5918  1.0702
 9752SOL    HW230677   3.118   4.841   7.472  0.0926  0.0580  0.1695
 9753SOL     OW30678   0.634   2.171   5.925  0.5134  0.1832 -0.2051
 9753SOL    HW130679   0.540   2.185   5.937  0.5657  0.1743  0.2384
 9753SOL    HW230680   0.674   2.207   6.005  0.8617 -0.0882 -0.2542
 9754SOL     OW30681   5.006   5.270   4.280  0.3726  0.7018  0.1304
 9754SOL    HW130682   4.921   5.227   4.277  0.8121 -0.3306  1.4091
 9754SOL    HW230683   5.066   5.206   4.239  0.9656  0.2125  1.7039
 9755SOL     OW30684   7.511   6.829   2.778 -0.1212  0.1462  0.3749
 9755SOL    HW130685   7.569   6.763   2.813  1.3535  0.6751 -0.9287
 9755SOL    HW230686   7.442   6.780   2.733  1.0487 -0.5456 -0.7290
 9756SOL     OW30687   2.653   4.815   7.099 -0.2418  0.3712  0.3964
 9756SOL    HW130688   2.657   4.723   7.072  1.6649  0.1633  1.2175
 9756SOL    HW230689   2.730   4.827   7.154 -1.7880  1.8233  2.4095
 9757SOL     OW30690   7.283   3.972   5.680  0.5788 -0.3020 -0.2372
 9757SOL    HW130691   7.293   3.927   5.596 -0.7046 -0.6607 -0.2231
 9757SOL    HW230692   7.291   4.065   5.658  0.5499 -0.4084 -0.7189
 9758SOL     OW30693   2.256   2.694   7.466  0.4405  0.6400 -0.3524
 9758SOL    HW130694   2.218   2.770   7.424 -0.3926  0.5237  0.1705
 9758SOL    HW230695   2.183   2.650   7.509  1.0412  0.0031  0.0570
 9759SOL     OW30696   2.377   7.798   6.912  0.3761  0.5975 -0.0175
 9759SOL    HW130697   2.285   7.772   6.902 -0.0978  2.7171 -1.9542
 9759SOL    HW230698   2.402   7.831   6.826  3.7594 -2.0122 -0.2677
 9760SOL     OW30699   6.725   2.150   0.309  0.3147  0.3120 -0.0917
 9760SOL    HW130700   6.705   2.123   0.399 -2.1394  1.3381 -0.2587
 9760SOL    HW230701   6.657   2.108   0.256 -0.3108  2.3714 -1.0125
 9761SOL     OW30702   6.574   2.127   2.035 -0.5258 -0.1673  0.2710
 9761SOL    HW130703   6.588   2.201   1.976  2.2132  0.1249  1.1792
 9761SOL    HW230704   6.549   2.055   1.977 -2.0783  1.1098 -0.7454
 9762SOL     OW30705   0.745   2.244   0.291 -0.3715  0.4291  0.2048
 9762SOL    HW130706   0.837   2.222   0.273 -0.4929  0.3246 -0.2927
 9762SOL    HW230707   0.747   2.339   0.307  0.0264  0.2151  1.5732
 9763SOL     OW30708   2.161   5.319   4.688  0.3319 -0.4055 -0.1993
 9763SOL    HW130709   2.218   5.358   4.755  0.6051 -1.6918  0.3430
 9763SOL    HW230710   2.202   5.235   4.668 -0.4810 -0.6150 -1.0229
 9764SOL     OW30711   4.922   5.063   7.256  0.1652  0.1938  0.0032
 9764SOL    HW130712   4.874   4.980   7.256  0.3641  0.0795  0.4652
 9764SOL    HW230713   4.991   5.050   7.191 -0.7110  0.5292 -1.0289
 9765SOL     OW30714   3.446   6.966   1.535  0.2298  0.0640 -0.4835
 9765SOL    HW130715   3.449   6.886   1.588  2.3530  2.2196  2.9863
 9765SOL    HW230716   3.537   6.985   1.514 -0.2273  1.5873 -1.2746
 9766SOL     OW30717   5.042   2.880   2.316  0.3709 -0.0221  0.6628
 9766SOL    HW130718   5.123   2.908   2.274  0.9733 -2.6170 -0.1072
 9766SOL    HW230719   5.041   2.785   2.305 -2.3127 -0.1793  1.5268
 9767SOL     OW30720   6.772   7.005   7.758 -0.5057  0.1406 -0.3906
 9767SOL    HW130721   6.815   7.014   7.843 -0.4427  0.1790 -0.4275
 9767SOL    HW230722   6.822   7.061   7.699 -0.6967  0.3065 -0.3981
 9768SOL     OW30723   1.397   1.704   6.527 -0.0857 -0.4472  0.3446
 9768SOL    HW130724   1.320   1.727   6.475  0.2986 -1.9492 -0.9617
 9768SOL    HW230725   1.426   1.788   6.565 -2.5468  0.1079  1.2055
 9769SOL     OW30726   1.759   7.224   5.499  0.1461  0.1825 -0.2645
 9769SOL    HW130727   1.691   7.168   5.537 -0.3774  0.3031 -0.9941
 9769SOL    HW230728   1.838   7.171   5.499 -0.1854 -0.3129 -0.3164
 9770SOL     OW30729   7.188   5.489   0.115  0.1394  0.6922 -0.3878
 9770SOL    HW130730   7.246   5.425   0.156 -1.4134  0.2377  1.2193
 9770SOL    HW230731   7.194   5.471   0.021  0.0784 -1.5129  0.0012
 9771SOL     OW30732   7.487   0.977   3.194 -0.0626 -0.6424  0.0373
 9771SOL    HW130733   7.575   0.959   3.160  0.5813  0.2609  1.1688
 9771SOL    HW230734   7.428   0.934   3.131  1.2269 -3.2360  0.4486
 9772SOL     OW30735   1.571   0.183   7.407 -0.2664  0.3810 -0.5322
 9772SOL    HW130736   1.628   0.255   7.378  1.5586 -0.1774  1.3523
 9772SOL    HW230737   1.550   0.205   7.498 -0.4082 -1.0186 -0.2080
 9773SOL     OW30738   1.932   4.530   1.794  0.0420 -0.4595  0.0544
 9773SOL    HW130739   1.878   4.604   1.824 -1.7717 -2.0102  0.8121
 9773SOL    HW230740   1.948   4.549   1.702  1.0785  1.6961  0.6029
 9774SOL     OW30741   2.864   2.178   7.299  0.0879  0.2052  0.2078
 9774SOL    HW130742   2.923   2.176   7.224 -2.4136  1.2074 -1.9445
 9774SOL    HW230743   2.812   2.257   7.287  0.5184  1.2552  3.8907
 9775SOL     OW30744   7.755   2.994   1.284 -0.1337 -0.5067  0.9972
 9775SOL    HW130745   7.776   3.050   1.358 -1.4550 -0.1009  1.1042
 9775SOL    HW230746   7.677   2.946   1.312 -0.3918 -0.6689  0.0442
 9776SOL     OW30747   4.194   0.210   7.900  0.4759 -0.3765  0.2177
 9776SOL    HW130748   4.169   0.301   7.913  1.2892 -0.2008  0.6510
 9776SOL    HW230749   4.112   0.162   7.893  0.0366  0.5029 -0.8726
 9777SOL     OW30750   6.863   1.491   6.073 -0.8302  0.5975 -0.6556
 9777SOL    HW130751   6.874   1.431   5.999  0.9736  0.5259 -0.3885
 9777SOL    HW230752   6.783   1.461   6.117 -0.8983 -0.5302 -1.5087
 9778SOL     OW30753   1.019   0.578   3.150  0.3665  0.0130 -0.0458
 9778SOL    HW130754   1.014   0.549   3.059  0.4918 -0.7870  0.2037
 9778SOL    HW230755   1.104   0.621   3.157  0.0715  0.6978 -0.4779
 9779SOL     OW30756   7.157   3.049   8.334 -0.3137 -0.0142 -0.3598
 9779SOL    HW130757   7.162   2.982   8.402 -0.4272  0.8886  0.5620
 9779SOL    HW230758   7.162   3.000   8.252  0.3207 -1.0811  0.2925
 9780SOL     OW30759   1.327   7.330   1.279  0.0105  0.1468 -0.5049
 9780SOL    HW130760   1.335   7.281   1.360 -0.3476  0.9779  0.0469
 9780SOL    HW230761   1.351   7.420   1.303 -0.8202  0.5500 -1.1437
 9781SOL     OW30762   4.085   0.018   7.280 -0.4625  0.1946 -0.1834
 9781SOL    HW130763   4.061  -0.022   7.363 -1.6014  1.9783  0.4084
 9781SOL    HW230764   4.011   0.002   7.222 -0.3830  0.3623 -0.3339
 9782SOL     OW30765   5.369   0.752   5.259 -0.0142 -0.0804  0.3705
 9782SOL    HW130766   5.323   0.788   5.182 -0.3178 -1.8371 -0.3127
 9782SOL    HW230767   5.457   0.789   5.253 -0.2828  0.4690 -0.3498
 9783SOL     OW30768   0.569   5.942   2.572 -0.1158 -0.6542 -0.0219
 9783SOL    HW130769   0.577   5.987   2.656 -0.0669  0.3628 -0.5502
 9783SOL    HW230770   0.477   5.915   2.568 -0.3743  0.1885 -0.0636
 9784SOL     OW30771   3.701   7.888   6.952 -0.8593  0.8718 -0.2230
 9784SOL    HW130772   3.608   7.880   6.930 -1.1343 -3.3648  1.5151
 9784SOL    HW230773   3.704   7.873   7.047  1.6416 -0.3519 -0.4252
 9785SOL     OW30774   1.345   6.709   5.359 -0.6989 -0.1161  0.1824
 9785SOL    HW130775   1.436   6.696   5.385 -0.0342  1.6783 -1.0374
 9785SOL    HW230776   1.311   6.773   5.422 -0.8400 -0.1131  0.1038
 9786SOL     OW30777   8.041   7.599   0.753  0.4248  0.4598 -0.2848
 9786SOL    HW130778   8.049   7.633   0.664  1.4809  0.1918 -0.3103
 9786SOL    HW230779   8.079   7.668   0.808 -0.5901  0.7991  0.0086
 9787SOL     OW30780   1.951   0.890   6.665 -0.4441 -0.7571 -0.3772
 9787SOL    HW130781   1.862   0.868   6.637 -0.3901 -0.8359 -0.4892
 9787SOL    HW230782   1.957   0.985   6.653 -0.3948 -0.8004 -0.7174
 9788SOL     OW30783   3.224   5.848   0.267  0.1345  0.0834  0.7199
 9788SOL    HW130784   3.187   5.859   0.355 -1.0122  2.3436  0.0276
 9788SOL    HW230785   3.271   5.929   0.250 -0.6690  0.2141 -1.1872
 9789SOL     OW30786   4.096   6.270   6.318  0.2844  0.5775 -0.9235
 9789SOL    HW130787   4.060   6.353   6.348 -1.2468 -0.6317  0.7621
 9789SOL    HW230788   4.142   6.234   6.394 -0.6913 -0.9597 -1.0164
 9790SOL     OW30789   8.344   5.996   6.318 -0.4725  0.3317 -0.3000
 9790SOL    HW130790   8.439   5.998   6.304 -0.1933 -1.4129  1.0770
 9790SOL    HW230791   8.307   6.026   6.234  1.2677  0.4413 -1.0685
 9791SOL     OW30792   3.972   6.827   4.001  0.2582  0.4845  0.3642
 9791SOL    HW130793   4.016   6.809   4.084 -1.8451 -3.0272  0.8808
 9791SOL    HW230794   3.902   6.763   3.996 -0.2036  1.0453 -3.8142
 9792SOL     OW30795   1.600   3.767   2.164 -0.0568 -1.3660  0.0726
 9792SOL    HW130796   1.531   3.765   2.097 -0.1226 -0.4748  0.0989
 9792SOL    HW230797   1.570   3.833   2.227  0.4005 -1.6084  0.5472
 9793SOL     OW30798   7.278   2.404   6.591  0.1254  0.3027 -0.0889
 9793SOL    HW130799   7.232   2.475   6.547 -0.2739  0.8180  1.1103
 9793SOL    HW230800   7.213   2.334   6.600 -0.0458  0.5223  0.4205
 9794SOL     OW30801   6.797   6.815   4.049 -0.7295  0.7186  0.6632
 9794SOL    HW130802   6.782   6.729   4.009 -2.1879  2.0548 -1.8748
 9794SOL    HW230803   6.824   6.795   4.139  0.2899 -2.4068 -0.2116
 9795SOL     OW30804   7.638   0.617   3.689 -0.3063 -0.4446  0.1674
 9795SOL    HW130805   7.698   0.560   3.640 -0.2813  0.3849 -0.7955
 9795SOL    HW230806   7.640   0.582   3.779  1.0586 -0.8778 -0.0054
 9796SOL     OW30807   6.421   3.000   2.574  0.0445  0.0830 -0.1000
 9796SOL    HW130808   6.475   3.046   2.510  0.4043  0.2992  0.3475
 9796SOL    HW230809   6.484   2.954   2.629  0.0440  2.4848  2.1292
 9797SOL     OW30810   1.539   5.894   3.796  0.0155 -0.6339  0.0333
 9797SOL    HW130811   1.584   5.974   3.823  0.8078 -1.3275  0.8411
 9797SOL    HW230812   1.560   5.885   3.703  1.0355 -0.6157  0.2555
 9798SOL     OW30813   7.378   2.213   2.619 -0.3142 -0.0402 -0.1087
 9798SOL    HW130814   7.308   2.275   2.639  0.7461  0.6795  1.6305
 9798SOL    HW230815   7.359   2.136   2.672  0.6551  0.5084  1.0709
 9799SOL     OW30816   6.700   5.629   0.419  0.6036  0.1673  0.0449
 9799SOL    HW130817   6.609   5.618   0.393  0.2882 -0.9414  1.4928
 9799SOL    HW230818   6.749   5.633   0.336 -0.7762  1.2344 -0.7626
 9800SOL     OW30819   1.260   8.073   2.416 -0.5911 -0.2052 -0.4415
 9800SOL    HW130820   1.295   8.162   2.407  1.5776 -1.1266 -1.9139
 9800SOL    HW230821   1.192   8.067   2.348  0.3212 -0.1275 -1.3804
 9801SOL     OW30822   5.712   6.550   7.719  0.2265 -0.4769  0.2263
 9801SOL    HW130823   5.776   6.615   7.691 -1.2339 -0.4635 -3.8174
 9801SOL    HW230824   5.753   6.466   7.700  0.5859 -0.6416  1.6466
 9802SOL     OW30825   8.292   2.777   5.920 -0.2020  0.2620  0.0021
 9802SOL    HW130826   8.371   2.823   5.891 -0.3905  0.2837 -0.4987
 9802SOL    HW230827   8.316   2.737   6.003  0.5849 -0.4057 -0.5321
 9803SOL     OW30828   3.255   5.060   3.935 -0.5087 -0.2694 -0.3547
 9803SOL    HW130829   3.193   5.113   3.984 -0.4857 -0.8163  0.2792
 9803SOL    HW230830   3.335   5.061   3.988 -0.3793 -0.5964 -0.5380
 9804SOL     OW30831   7.971   6.143   4.447 -0.3043 -0.0363  0.0003
 9804SOL    HW130832   7.896   6.159   4.389 -0.3463  1.5671  0.4557
 9804SOL    HW230833   8.021   6.075   4.403 -1.6270 -0.6022 -0.6937
 9805SOL     OW30834   3.989   8.053   8.244  0.5465 -0.4586  0.0619
 9805SOL    HW130835   3.902   8.029   8.212 -0.2719  0.5522  1.4111
 9805SOL    HW230836   4.046   7.981   8.216 -0.5536 -0.7574 -1.5247
 9806SOL     OW30837   0.389   2.272   7.100  0.0617  0.8501  0.6455
 9806SOL    HW130838   0.393   2.194   7.045 -0.9262  2.4623 -1.9053
 9806SOL    HW230839   0.337   2.245   7.176 -1.4267 -0.6706 -0.8126
 9807SOL     OW30840   2.532   4.791   6.411  0.7556  0.1333 -0.3000
 9807SOL    HW130841   2.509   4.793   6.504 -1.4456  1.6786 -0.7925
 9807SOL    HW230842   2.507   4.703   6.382 -0.8509  0.4221  0.0997
 9808SOL     OW30843   7.323   8.157   1.350  0.2912  0.3399 -0.6282
 9808SOL    HW130844   7.367   8.214   1.286 -1.4605  0.5508 -1.7240
 9808SOL    HW230845   7.276   8.094   1.296  2.2993 -2.3610  0.5398
 9809SOL     OW30846   0.270   0.540   0.937  0.5577 -0.4114  0.2892
 9809SOL    HW130847   0.244   0.606   0.873 -1.3324  0.5499  1.9154
 9809SOL    HW230848   0.318   0.589   1.004  0.5408 -0.9683  0.7209
 9810SOL     OW30849   3.086   5.813   0.880  0.5748 -0.1216 -0.4926
 9810SOL    HW130850   3.168   5.771   0.907  0.2860  0.1146  0.8333
 9810SOL    HW230851   3.101   5.906   0.895 -0.3108 -0.1735  0.9055
 9811SOL     OW30852   4.622   0.734   4.607 -0.2043  0.1581  0.2802
 9811SOL    HW130853   4.696   0.739   4.667 -0.8907 -0.6510  1.2082
 9811SOL    HW230854   4.607   0.825   4.580  0.3874  0.4738  0.9919
 9812SOL     OW30855   3.037   0.544   3.556  0.2617 -0.1726  0.3041
 9812SOL    HW130856   3.039   0.627   3.509  3.6276 -0.5338 -0.4352
 9812SOL    HW230857   3.053   0.478   3.488  0.1697 -1.1861  1.2350
 9813SOL     OW30858   3.634   4.710   2.270 -0.0057 -0.1809  0.8143
 9813SOL    HW130859   3.656   4.618   2.257 -0.6617 -0.1704 -0.5588
 9813SOL    HW230860   3.564   4.727   2.207  1.4934  1.7950 -0.4159
 9814SOL     OW30861   3.812   4.778   6.804 -0.4913  0.1242 -0.3418
 9814SOL    HW130862   3.805   4.864   6.846 -0.6478  0.2114 -0.5466
 9814SOL    HW230863   3.803   4.715   6.876 -1.8905  0.2509 -0.3787
 9815SOL     OW30864   6.723   0.480   6.336 -0.7850 -0.5730  0.4410
 9815SOL    HW130865   6.694   0.423   6.407 -2.0497 -0.7806 -0.2055
 9815SOL    HW230866   6.721   0.424   6.258  1.2750 -0.5496  0.3177
 9816SOL     OW30867   1.323   5.155   5.569 -0.5562 -0.2539  0.1955
 9816SOL    HW130868   1.247   5.138   5.512  0.6257  0.7199 -1.7913
 9816SOL    HW230869   1.381   5.209   5.515  1.0204  0.0333  2.0933
 9817SOL     OW30870   7.063   7.306   2.965  0.0085 -0.3034 -0.1619
 9817SOL    HW130871   7.117   7.252   3.023  1.8191  3.6879  2.3220
 9817SOL    HW230872   6.982   7.320   3.014 -0.8302 -1.3540 -1.1873
 9818SOL     OW30873   3.760   0.217   6.156  0.5124  0.1982 -0.2427
 9818SOL    HW130874   3.818   0.249   6.087 -0.4211 -1.1929 -1.7340
 9818SOL    HW230875   3.716   0.295   6.189 -1.3193  0.6923 -3.3919
 9819SOL     OW30876   8.003   4.433   6.307 -0.3205  0.2014  0.9487
 9819SOL    HW130877   7.961   4.406   6.388  0.4015 -0.3785  1.1397
 9819SOL    HW230878   7.961   4.380   6.239 -1.0474  0.8129  0.9116
 9820SOL     OW30879   3.736   4.037   0.580 -0.2468 -0.1086  0.0260
 9820SOL    HW130880   3.763   3.951   0.612  0.1599  0.1783  0.4517
 9820SOL    HW230881   3.772   4.043   0.491  0.8866  0.1728  0.4953
 9821SOL     OW30882   7.251   4.447   3.729  0.4908 -0.2114  0.3361
 9821SOL    HW130883   7.250   4.476   3.638  0.3874 -1.4760 -0.0757
 9821SOL    HW230884   7.344   4.444   3.752  0.6475 -1.7955 -0.3771
 9822SOL     OW30885   4.489   8.094   5.364  0.6692 -0.8053 -0.1729
 9822SOL    HW130886   4.532   8.102   5.279  0.0394 -0.9510 -0.5086
 9822SOL    HW230887   4.542   8.031   5.412  1.2361 -0.4504 -0.3259
 9823SOL     OW30888   1.974   7.724   5.900  0.2586 -0.1400  0.5086
 9823SOL    HW130889   2.027   7.776   5.841  0.6018 -0.1026  0.8439
 9823SOL    HW230890   2.016   7.638   5.902  0.9904  0.2217  1.6536
 9824SOL     OW30891   3.839   1.080   0.441 -0.3956  0.4929  0.0309
 9824SOL    HW130892   3.826   1.073   0.535 -0.9109  0.3679 -0.0462
 9824SOL    HW230893   3.835   1.174   0.423 -1.3737  0.4581 -0.0047
 9825SOL     OW30894   6.405   0.610   5.430 -0.1243 -0.4902 -0.0602
 9825SOL    HW130895   6.382   0.662   5.507  0.2349 -1.1023  0.4690
 9825SOL    HW230896   6.322   0.569   5.404 -0.8846  1.9027 -1.7302
 9826SOL     OW30897   2.214   7.486   4.901 -0.1455 -0.1679  0.3402
 9826SOL    HW130898   2.230   7.409   4.846 -2.7577  0.0135 -0.8354
 9826SOL    HW230899   2.132   7.467   4.946  0.0441  1.2446  1.3553
 9827SOL     OW30900   6.954   7.880   0.980 -0.5219  0.4177  0.2880
 9827SOL    HW130901   6.906   7.811   1.027 -2.3717  1.3241 -0.2021
 9827SOL    HW230902   6.969   7.948   1.046 -1.0890  0.6975  0.1344
 9828SOL     OW30903   6.241   2.971   0.539  0.6081  0.4948  0.0875
 9828SOL    HW130904   6.171   3.008   0.487  1.1396  1.7608  0.2372
 9828SOL    HW230905   6.206   2.888   0.571 -0.6001  0.8394 -0.2928
 9829SOL     OW30906   5.432   0.298   1.101  0.1110 -0.7215 -0.3119
 9829SOL    HW130907   5.442   0.246   1.021  0.6718 -0.8433 -0.1697
 9829SOL    HW230908   5.357   0.355   1.084  1.1182  0.2845 -1.4870
 9830SOL     OW30909   3.737   4.909   8.158 -0.1158 -0.2103 -0.3709
 9830SOL    HW130910   3.705   4.830   8.201  1.9026 -0.4114  0.9245
 9830SOL    HW230911   3.679   4.979   8.188  0.6811 -0.5013  2.0501
 9831SOL     OW30912   6.958   5.913   7.360 -0.4941  0.1440 -0.8237
 9831SOL    HW130913   6.977   5.986   7.419 -0.0694 -1.2039  0.7779
 9831SOL    HW230914   6.875   5.878   7.391  1.1982 -2.5356  1.1279
 9832SOL     OW30915   0.734   5.896   6.866  0.4929 -0.0241  0.6406
 9832SOL    HW130916   0.817   5.930   6.897 -0.0770  1.4799  0.5918
 9832SOL    HW230917   0.701   5.963   6.805 -1.6428  0.3837  2.1202
 9833SOL     OW30918   1.279   7.641   2.950 -0.0208  0.3564 -0.7078
 9833SOL    HW130919   1.223   7.688   3.011  1.0310  1.7574 -0.7623
 9833SOL    HW230920   1.315   7.568   3.001  0.7740  1.4513  0.3693
 9834SOL     OW30921   0.915   3.982   2.999  0.2945  0.2400  0.1428
 9834SOL    HW130922   0.948   3.977   3.089 -0.1787 -2.0245  0.2583
 9834SOL    HW230923   0.827   3.945   3.003 -0.2994  1.4279 -1.0408
 9835SOL     OW30924   3.296   6.284   4.319  0.1882 -0.8531 -0.1230
 9835SOL    HW130925   3.255   6.200   4.339 -0.0985 -0.1702  2.5043
 9835SOL    HW230926   3.340   6.310   4.400 -0.5879  2.0106 -0.4919
 9836SOL     OW30927   7.143   8.026   4.122  0.5203  0.4456 -0.3340
 9836SOL    HW130928   7.076   8.094   4.114 -0.7375 -0.8564 -1.5068
 9836SOL    HW230929   7.190   8.048   4.203 -1.6080  1.1983  0.7793
 9837SOL     OW30930   7.294   6.095   4.493 -0.0258 -0.6522  0.3428
 9837SOL    HW130931   7.236   6.106   4.569  0.2059  1.1192  0.3060
 9837SOL    HW230932   7.382   6.096   4.530  0.0769 -0.0833  0.0936
 9838SOL     OW30933   3.013   8.048   7.384  0.3304 -0.0638 -0.0777
 9838SOL    HW130934   2.953   8.039   7.458  0.6750 -0.1164  0.1983
 9838SOL    HW230935   3.095   8.008   7.414  1.3206  2.2206  0.4647
 9839SOL     OW30936   7.612   3.340   3.280 -0.0687  0.0782  0.0371
 9839SOL    HW130937   7.628   3.259   3.232  1.8847  0.3536  0.1433
 9839SOL    HW230938   7.696   3.385   3.280 -0.3631  0.7793  2.4511
 9840SOL     OW30939   1.164   5.019   6.541 -0.1795 -0.0998  0.5432
 9840SOL    HW130940   1.169   4.924   6.533  1.6791 -0.0684  0.9751
 9840SOL    HW230941   1.251   5.050   6.518 -0.7192  1.5092  0.5358
 9841SOL     OW30942   7.101   0.975   3.362  0.2370  0.2123  0.7212
 9841SOL    HW130943   7.122   0.882   3.367 -0.4895 -0.2048 -2.2324
 9841SOL    HW230944   7.018   0.983   3.409 -0.6167 -1.0149 -0.4966
 9842SOL     OW30945   5.480   3.582   7.870  0.2656  0.1204 -0.9894
 9842SOL    HW130946   5.462   3.661   7.820  3.4239  1.1384 -0.7043
 9842SOL    HW230947   5.498   3.515   7.804 -1.3672 -0.1509 -1.2079
 9843SOL     OW30948   7.303   5.615   7.425  0.4689 -0.4560  0.5409
 9843SOL    HW130949   7.362   5.688   7.411 -0.1602 -0.2635 -1.3907
 9843SOL    HW230950   7.221   5.642   7.385 -0.3065 -1.5521  1.3186
 9844SOL     OW30951   2.475   6.176   2.930 -0.3174 -0.3366 -0.6152
 9844SOL    HW130952   2.506   6.087   2.916 -1.5350 -1.0611  0.9945
 9844SOL    HW230953   2.433   6.174   3.016 -0.2851  1.8210 -0.4852
 9845SOL     OW30954   1.963   1.879   3.477 -0.1392 -0.0542 -0.2167
 9845SOL    HW130955   1.916   1.816   3.530  0.7119 -0.3726  0.1797
 9845SOL    HW230956   1.898   1.945   3.453 -0.6408 -0.1722  0.7977
 9846SOL     OW30957   0.478   2.785   1.737  0.9291  0.2360 -0.6594
 9846SOL    HW130958   0.551   2.826   1.783  1.0154  0.4042 -0.9434
 9846SOL    HW230959   0.434   2.858   1.692 -0.6026  0.4674  1.1001
 9847SOL     OW30960   7.435   5.824   7.359 -0.8476 -1.2318 -0.2534
 9847SOL    HW130961   7.527   5.799   7.351 -0.8968 -1.8199  0.8724
 9847SOL    HW230962   7.438   5.910   7.401 -0.7945 -0.7282 -1.2424
 9848SOL     OW30963   7.339   6.976   4.142 -0.6023  0.1104 -0.8012
 9848SOL    HW130964   7.254   7.002   4.179 -0.2612 -0.1068  0.1555
 9848SOL    HW230965   7.354   6.888   4.177  3.1125  2.3879  4.8097
 9849SOL     OW30966   2.932   3.373   1.018 -0.0325 -0.1477  0.1424
 9849SOL    HW130967   2.870   3.301   1.026 -0.9431  0.4541 -1.0380
 9849SOL    HW230968   3.010   3.333   0.979 -0.4858 -0.5282 -0.3979
 9850SOL     OW30969   0.167   2.261   4.322  0.2101  0.0875  0.3096
 9850SOL    HW130970   0.088   2.213   4.343  0.4375 -0.1339  0.6702
 9850SOL    HW230971   0.137   2.349   4.300 -0.0384  0.3615  1.6678
 9851SOL     OW30972   4.764   3.407   5.460 -0.2998  0.0061 -0.9455
 9851SOL    HW130973   4.727   3.494   5.473 -1.6530 -0.7588  0.7372
 9851SOL    HW230974   4.851   3.423   5.424 -0.7060  2.0180 -1.1476
 9852SOL     OW30975   4.099   1.809   2.056  0.0646 -0.2826  0.1159
 9852SOL    HW130976   4.158   1.739   2.085  0.6928 -0.7792 -2.1752
 9852SOL    HW230977   4.140   1.844   1.977 -1.0838  1.5999  0.2888
 9853SOL     OW30978   5.075   7.736   7.595 -0.5285  0.0312 -0.3402
 9853SOL    HW130979   5.167   7.735   7.622 -0.8869 -0.4566  0.8886
 9853SOL    HW230980   5.079   7.746   7.499  0.8178 -0.9298 -0.4126
 9854SOL     OW30981   5.404   5.724   3.997  0.0750  0.5059 -0.4164
 9854SOL    HW130982   5.481   5.743   4.050 -0.2212  2.3256 -0.5795
 9854SOL    HW230983   5.437   5.724   3.907 -0.1168  1.4090 -0.4952
 9855SOL     OW30984   0.576   8.366   3.601  0.1545 -0.0156  0.2259
 9855SOL    HW130985   0.629   8.445   3.616  1.7594 -0.7010 -1.5105
 9855SOL    HW230986   0.494   8.399   3.565  0.1410  0.9442  1.0707
 9856SOL     OW30987   1.350   4.046   1.267  0.3164  0.2867  0.2073
 9856SOL    HW130988   1.301   4.078   1.191  0.4544 -0.7411 -0.3457
 9856SOL    HW230989   1.283   4.029   1.333 -0.0085 -0.4014 -0.2830
 9857SOL     OW30990   3.733   1.838   2.802 -0.2733 -0.4415 -0.7518
 9857SOL    HW130991   3.706   1.752   2.834 -1.5549 -0.0313 -0.6414
 9857SOL    HW230992   3.820   1.851   2.839 -1.0993 -0.5940  1.4434
 9858SOL     OW30993   2.688   5.278   3.009 -0.3548  0.2024  0.2000
 9858SOL    HW130994   2.597   5.274   2.980 -0.8711  1.5151  1.5167
 9858SOL    HW230995   2.692   5.218   3.083 -0.1574  0.1969  0.1865
 9859SOL     OW30996   4.253   2.469   5.879 -0.5038 -0.2044  0.2967
 9859SOL    HW130997   4.253   2.442   5.971  0.4546  0.9225  0.6428
 9859SOL    HW230998   4.174   2.524   5.871 -0.3186  0.1075  0.5776
 9860SOL     OW30999   6.304   5.905   5.156 -0.3217 -0.2992 -0.1628
 9860SOL    HW131000   6.338   5.953   5.232 -1.1509  0.9010 -0.5130
 9860SOL    HW231001   6.210   5.899   5.172 -0.2839 -1.5061 -0.3186
 9861SOL     OW31002   7.674   0.282   5.525  0.4863  0.2424 -0.0408
 9861SOL    HW131003   7.613   0.243   5.463  0.6516  0.4725 -0.3568
 9861SOL    HW231004   7.623   0.351   5.568  0.0029 -0.7198  0.9829
 9862SOL     OW31005   1.595   3.735   8.045  0.1930  0.2204  0.7351
 9862SOL    HW131006   1.682   3.735   8.005  0.2888 -1.2658  0.8666
 9862SOL    HW231007   1.573   3.827   8.055  0.6002  0.6425 -1.7523
 9863SOL     OW31008   1.570   2.450   7.081 -0.1473  0.5411 -0.0427
 9863SOL    HW131009   1.639   2.455   7.147 -1.8635  1.9955  1.7478
 9863SOL    HW231010   1.561   2.356   7.063  1.8624  0.2915  0.1050
 9864SOL     OW31011   4.961   4.363   3.800 -0.0904  0.3563 -0.2145
 9864SOL    HW131012   4.909   4.441   3.780 -0.1168 -0.0238 -1.7425
 9864SOL    HW231013   5.045   4.397   3.830 -0.6087  0.9692  0.5665
 9865SOL     OW31014   7.009   3.583   6.145  0.0480  0.7539 -0.1560
 9865SOL    HW131015   7.059   3.596   6.226  0.3260  0.6589 -0.3104
 9865SOL    HW231016   6.925   3.549   6.173  0.0058  1.0844  0.1215
 9866SOL     OW31017   6.616   4.985   6.700  0.9821 -0.1500 -0.0977
 9866SOL    HW131018   6.574   4.921   6.643  2.4030  0.1985 -1.6265
 9866SOL    HW231019   6.625   5.064   6.646  1.3816  0.5706  0.9714
 9867SOL     OW31020   2.781   3.469   1.435 -0.0681 -0.9931 -0.4663
 9867SOL    HW131021   2.740   3.418   1.504  1.6620 -0.4350  1.0504
 9867SOL    HW231022   2.734   3.553   1.435  0.3147 -0.7670  0.4834
 9868SOL     OW31023   7.105   1.360   5.511  0.0584  0.2545 -1.0045
 9868SOL    HW131024   7.183   1.308   5.487 -0.4228  0.0006 -2.0973
 9868SOL    HW231025   7.071   1.318   5.590  1.2621  0.6264 -0.2626
 9869SOL     OW31026   2.730   7.841   6.392  0.0940 -0.0703 -0.0712
 9869SOL    HW131027   2.726   7.833   6.487  0.0892 -1.0607 -0.1409
 9869SOL    HW231028   2.746   7.934   6.376 -1.5023  0.4050  0.8482
 9870SOL     OW31029   6.590   2.587   3.070 -0.6422  0.7857 -0.1267
 9870SOL    HW131030   6.665   2.611   3.015 -0.6163  0.3566 -0.2858
 9870SOL    HW231031   6.615   2.612   3.158 -0.4250  0.9041 -0.2225
 9871SOL     OW31032   2.315   0.394   7.884  0.4138  0.6135 -0.6994
 9871SOL    HW131033   2.374   0.350   7.945  0.4960  1.4253 -0.1833
 9871SOL    HW231034   2.235   0.409   7.935 -0.1717 -0.2681 -1.3207
 9872SOL     OW31035   0.938   3.456   3.487  0.0370  0.5791  0.1962
 9872SOL    HW131036   0.891   3.396   3.429  1.7819 -1.3084  0.6516
 9872SOL    HW231037   0.935   3.541   3.442 -3.4043  0.5106  0.0393
 9873SOL     OW31038   6.330   7.577   2.942 -0.0814 -0.4616  0.2405
 9873SOL    HW131039   6.407   7.553   2.994  0.7399  0.7576 -0.3495
 9873SOL    HW231040   6.360   7.569   2.851  0.1276  2.1514 -0.0081
 9874SOL     OW31041   6.384   3.836   2.575  0.4936  0.0248  0.3854
 9874SOL    HW131042   6.449   3.854   2.507  0.5633 -1.0146  0.1513
 9874SOL    HW231043   6.306   3.808   2.527  0.1095  0.5564  0.6924
 9875SOL     OW31044   4.087   7.194   0.515 -0.0372 -0.3410 -0.4041
 9875SOL    HW131045   4.035   7.270   0.541 -1.6357 -1.7601  0.7225
 9875SOL    HW231046   4.177   7.216   0.542 -0.7201  0.5339  1.2749
 9876SOL     OW31047   1.138   0.546   0.640 -0.2710 -0.2376  0.4174
 9876SOL    HW131048   1.044   0.567   0.638 -0.3733 -0.7103 -0.5721
 9876SOL    HW231049   1.166   0.556   0.549  0.5862 -0.3713  0.6587
 9877SOL     OW31050   2.607   4.695   4.618 -0.4127 -0.4827 -0.2213
 9877SOL    HW131051   2.541   4.762   4.601 -1.0122 -0.3854  2.1246
 9877SOL    HW231052   2.556   4.617   4.643  0.3068 -0.4673  1.4210
 9878SOL     OW31053   7.596   0.220   7.950 -0.1139  0.4989  0.3095
 9878SOL    HW131054   7.517   0.266   7.922  0.1114  1.3619  1.0645
 9878SOL    HW231055   7.568   0.165   8.023 -0.4546 -0.8659 -0.8028
 9879SOL     OW31056   7.642   2.493   6.041 -0.0406  0.2573  0.5472
 9879SOL    HW131057   7.693   2.433   5.987 -0.2018  0.2511  0.4000
 9879SOL    HW231058   7.681   2.579   6.024  0.1504  0.2015  0.7103
 9880SOL     OW31059   0.176   4.209   3.326  0.0126  0.0335 -0.0678
 9880SOL    HW131060   0.201   4.262   3.251 -0.3815 -0.9925 -0.9557
 9880SOL    HW231061   0.080   4.215   3.329  0.1021  1.7112  1.6297
 9881SOL     OW31062   6.262   6.747   5.750  0.3469 -0.1874 -0.0593
 9881SOL    HW131063   6.185   6.713   5.795 -1.8850  0.9041 -2.7007
 9881SOL    HW231064   6.336   6.704   5.791 -1.6142 -1.0020  2.9234
 9882SOL     OW31065   3.609   7.543   7.896 -0.1532  0.0133 -0.1624
 9882SOL    HW131066   3.612   7.448   7.881 -0.7462 -0.1857  0.8687
 9882SOL    HW231067   3.631   7.553   7.989  0.9838  0.9826 -0.5067
 9883SOL     OW31068   2.095   1.593   7.141 -0.2553  0.2055  0.4042
 9883SOL    HW131069   2.136   1.672   7.177  1.1446 -2.3436  5.3944
 9883SOL    HW231070   2.159   1.560   7.078 -0.5890  2.5775 -1.3011
 9884SOL     OW31071   2.903   7.162   3.805 -0.5415 -0.5866  0.0885
 9884SOL    HW131072   2.897   7.200   3.893 -0.8713 -1.4368  0.4386
 9884SOL    HW231073   2.850   7.083   3.809 -2.2259  0.3914 -1.4591
 9885SOL     OW31074   3.274   2.202   0.611 -0.2546 -0.2000 -0.2250
 9885SOL    HW131075   3.355   2.250   0.594  0.5102 -1.6706 -0.8925
 9885SOL    HW231076   3.215   2.267   0.648  0.4484  1.4666 -1.8746
 9886SOL     OW31077   2.981   1.335   3.645 -0.0896 -0.3724 -0.6511
 9886SOL    HW131078   3.005   1.388   3.721  1.5780 -1.2652 -0.4945
 9886SOL    HW231079   2.937   1.395   3.585 -1.2828  0.3926  0.9167
 9887SOL     OW31080   7.342   1.406   5.266 -0.3153  0.0291 -0.8241
 9887SOL    HW131081   7.433   1.398   5.239 -0.3685 -1.4502 -0.6557
 9887SOL    HW231082   7.337   1.358   5.348 -1.3729 -0.4267 -1.1422
 9888SOL     OW31083   3.783   7.455   3.873 -0.5489  0.6874  0.2032
 9888SOL    HW131084   3.769   7.390   3.942 -1.7249 -0.4162 -1.0032
 9888SOL    HW231085   3.873   7.441   3.845 -0.8887 -0.7090 -0.2684
 9889SOL     OW31086   2.187   7.381   6.741  0.4130  0.2463 -1.0172
 9889SOL    HW131087   2.228   7.303   6.703  0.2228  0.0656 -0.8535
 9889SOL    HW231088   2.094   7.372   6.719 -0.0411 -0.8498  1.1396
 9890SOL     OW31089   6.796   5.332   7.021  0.6854 -0.4984  0.0779
 9890SOL    HW131090   6.767   5.419   7.046  2.3456 -0.0084  0.4326
 9890SOL    HW231091   6.750   5.273   7.080  0.1389  0.1963  0.3621
 9891SOL     OW31092   3.383   6.595   4.544  0.2527 -0.1888 -0.1050
 9891SOL    HW131093   3.289   6.582   4.559 -0.0840  1.3665 -0.7198
 9891SOL    HW231094   3.421   6.507   4.553 -1.1124 -0.6841  1.1110
 9892SOL     OW31095   8.049   5.399   3.986  0.1587  0.0682  0.2505
 9892SOL    HW131096   8.123   5.383   4.044  0.0621  0.7184  0.5563
 9892SOL    HW231097   7.973   5.366   4.034 -0.0979  1.7262  1.0578
 9893SOL     OW31098   1.081   6.655   0.833  0.2206  0.7023  0.2947
 9893SOL    HW131099   1.115   6.610   0.755 -0.2906  1.6248 -0.4966
 9893SOL    HW231100   1.094   6.748   0.813 -0.7155  0.9833  0.9351
 9894SOL     OW31101   0.530   0.162   2.148  0.2924  0.1758  0.1447
 9894SOL    HW131102   0.485   0.243   2.122  1.3081  1.1274  1.2186
 9894SOL    HW231103   0.554   0.177   2.239 -0.7320 -1.9358  0.8286
 9895SOL     OW31104   5.629   5.376   3.308 -0.0107  0.0002  0.0108
 9895SOL    HW131105   5.715   5.370   3.350  0.7886 -0.3369 -1.6044
 9895SOL    HW231106   5.636   5.319   3.231 -2.0481 -0.9094  0.4399
 9896SOL     OW31107   3.769   4.771   6.543 -0.2900  0.0053 -0.1889
 9896SOL    HW131108   3.738   4.858   6.517 -1.4463 -0.1216  0.7018
 9896SOL    HW231109   3.786   4.778   6.636  2.0709 -0.0562 -0.5590
 9897SOL     OW31110   3.309   2.876   2.392  0.1620 -0.2963 -0.3424
 9897SOL    HW131111   3.340   2.937   2.326 -1.3589 -0.1775 -1.0042
 9897SOL    HW231112   3.265   2.931   2.458  0.7940 -0.4963  0.2556
 9898SOL     OW31113   0.188   4.844   4.807  0.1479 -0.0835  0.1219
 9898SOL    HW131114   0.266   4.855   4.753  2.4242 -1.5725  2.8437
 9898SOL    HW231115   0.153   4.758   4.784 -0.2108  0.2118 -0.4683
 9899SOL     OW31116   5.172   1.374   1.674 -0.4349 -0.3360 -0.4751
 9899SOL    HW131117   5.089   1.418   1.691  0.6488  1.8803 -0.6234
 9899SOL    HW231118   5.180   1.375   1.578  0.0087 -0.0413 -0.4378
 9900SOL     OW31119   1.599   3.524   2.619 -0.1713 -0.2066  0.0335
 9900SOL    HW131120   1.543   3.510   2.542  0.6115 -1.6120 -0.3016
 9900SOL    HW231121   1.666   3.585   2.588  0.5519 -1.3063 -0.6409
 9901SOL     OW31122   2.914   7.930   0.431  0.0601 -0.4752 -0.5893
 9901SOL    HW131123   3.008   7.951   0.428 -0.1973  0.8760  0.1291
 9901SOL    HW231124   2.909   7.842   0.395  1.4432 -0.0442 -1.9804
 9902SOL     OW31125   1.802   4.746   6.543  0.0846  0.1111 -0.9905
 9902SOL    HW131126   1.767   4.807   6.479  1.7910  0.9399 -1.1885
 9902SOL    HW231127   1.809   4.663   6.495 -0.8303  0.1233 -1.1645
 9903SOL     OW31128   7.413   0.159   7.366 -0.1928  0.6492  0.0605
 9903SOL    HW131129   7.488   0.210   7.395 -0.4740  0.5531  0.9974
 9903SOL    HW231130   7.351   0.225   7.334  0.5420  0.6833 -1.3853
 9904SOL     OW31131   3.860   1.848   4.451 -0.5680 -0.3492  0.6175
 9904SOL    HW131132   3.932   1.898   4.413  0.3345 -0.4277  2.1538
 9904SOL    HW231133   3.877   1.849   4.545 -1.8185 -1.5722  0.8875
 9905SOL     OW31134   0.869   3.006   6.487  0.3266  0.1311  0.4480
 9905SOL    HW131135   0.950   3.006   6.538  0.3136 -2.0625  0.5975
 9905SOL    HW231136   0.869   3.089   6.439  2.1375  0.6177  1.2419
 9906SOL     OW31137   0.588   6.934   0.250  0.1192 -0.0959 -0.2611
 9906SOL    HW131138   0.548   6.913   0.335 -0.0707 -1.0023 -0.5626
 9906SOL    HW231139   0.520   6.914   0.186 -0.1890  1.7705 -0.5813
 9907SOL     OW31140   2.665   7.619   3.860 -0.0075 -0.0125  0.4374
 9907SOL    HW131141   2.592   7.592   3.804  1.4680 -1.3837 -0.9192
 9907SOL    HW231142   2.732   7.651   3.799  1.0820 -0.1552  1.5116
 9908SOL     OW31143   5.897   4.387   1.036 -0.2595 -0.2745 -0.1914
 9908SOL    HW131144   5.984   4.387   1.074 -0.1250  0.9247 -0.4363
 9908SOL    HW231145   5.851   4.315   1.078 -0.1850  1.0774  2.4157
 9909SOL     OW31146   1.269   3.507   7.193  0.2653 -0.2809  0.3666
 9909SOL    HW131147   1.295   3.449   7.122 -0.7485 -0.4548  0.1225
 9909SOL    HW231148   1.284   3.595   7.159  0.1613 -0.3709  0.0849
 9910SOL     OW31149   5.896   3.120   2.019 -0.0078  0.5588  0.3927
 9910SOL    HW131150   5.845   3.040   2.032 -0.7609  1.1748  1.2963
 9910SOL    HW231151   5.840   3.175   1.964  0.7494  0.2640 -0.7198
 9911SOL     OW31152   1.484   2.206   7.556  0.3546 -0.0549 -0.0755
 9911SOL    HW131153   1.401   2.165   7.581  0.5893 -0.5700 -0.1177
 9911SOL    HW231154   1.551   2.146   7.588  0.6869 -0.1810 -0.9562
 9912SOL     OW31155   4.759   1.473   3.131 -0.1541  0.3526  0.1905
 9912SOL    HW131156   4.777   1.389   3.173 -0.9214  0.0724 -0.0218
 9912SOL    HW231157   4.845   1.513   3.119  0.1951 -0.2772  0.5521
 9913SOL     OW31158   7.923   2.102   7.076 -0.1681 -0.4909 -0.2923
 9913SOL    HW131159   7.828   2.096   7.065 -0.3321 -1.7851  1.4724
 9913SOL    HW231160   7.958   2.084   6.989 -1.5101 -0.7847 -0.7930
 9914SOL     OW31161   5.857   1.303   7.212 -0.0266 -0.4341  0.6400
 9914SOL    HW131162   5.907   1.227   7.241  1.4136  0.2554  0.0211
 9914SOL    HW231163   5.903   1.378   7.249  0.5326  0.3350 -1.4634
 9915SOL     OW31164   2.980   4.805   5.905  0.5181 -0.3328 -0.4971
 9915SOL    HW131165   3.037   4.811   5.828  0.3898 -2.1250 -0.7682
 9915SOL    HW231166   2.928   4.726   5.891 -0.7943  0.2964  0.5969
 9916SOL     OW31167   4.915   7.618   1.524  0.0017 -0.0211  0.0580
 9916SOL    HW131168   4.990   7.565   1.497  0.0605 -0.1521  0.4690
 9916SOL    HW231169   4.839   7.569   1.492  0.1134  0.7475 -1.4827
 9917SOL     OW31170   3.213   6.112   0.016 -0.0216  0.0590  0.1591
 9917SOL    HW131171   3.244   6.078  -0.068 -0.0267 -0.3858  0.3341
 9917SOL    HW231172   3.152   6.181  -0.007  0.9441  0.8225 -0.1949
 9918SOL     OW31173   2.477   4.726   2.529 -0.3449 -0.2115  0.4210
 9918SOL    HW131174   2.541   4.765   2.589  1.2490  1.5836 -2.2466
 9918SOL    HW231175   2.401   4.785   2.535  0.0010  0.2552  0.3122
 9919SOL     OW31176   1.454   1.158   7.790  0.2836  0.6901 -0.3050
 9919SOL    HW131177   1.421   1.148   7.701 -0.1056  0.3166 -0.1204
 9919SOL    HW231178   1.549   1.164   7.780  0.2357  0.7363 -0.7497
 9920SOL     OW31179   2.001   6.207   2.720 -0.2094  0.0246 -0.2521
 9920SOL    HW131180   1.993   6.284   2.777  1.3520 -0.0045  0.0582
 9920SOL    HW231181   2.030   6.242   2.636 -0.1278 -0.1657 -0.3042
 9921SOL     OW31182   5.398   4.644   3.490 -0.3312 -0.0521  0.1579
 9921SOL    HW131183   5.356   4.730   3.487  0.5283  0.4116  1.1027
 9921SOL    HW231184   5.437   4.633   3.403 -0.8953  0.2650 -0.1447
 9922SOL     OW31185   0.205   5.760   7.857  0.0330  0.0807 -0.0514
 9922SOL    HW131186   0.282   5.744   7.910  0.4888  0.0659 -0.7044
 9922SOL    HW231187   0.132   5.721   7.906  0.6092 -0.9512  0.0093
 9923SOL     OW31188   6.673   3.771   7.613  0.7138  0.2193  0.1493
 9923SOL    HW131189   6.724   3.781   7.533 -1.0325  0.1545 -1.0125
 9923SOL    HW231190   6.648   3.861   7.637 -1.4854  0.0655 -1.2691
 9924SOL     OW31191   6.316   1.839   6.361  0.1439 -0.3555 -0.4085
 9924SOL    HW131192   6.360   1.857   6.278  0.7463 -1.5559 -0.3691
 9924SOL    HW231193   6.223   1.837   6.339  0.1934  0.7009 -0.7814
 9925SOL     OW31194   1.660   7.934   5.913 -0.1830  0.1336 -0.6455
 9925SOL    HW131195   1.698   7.881   5.842  0.3266 -1.0428  0.4568
 9925SOL    HW231196   1.691   8.023   5.896 -0.0056 -0.1387 -1.8443
 9926SOL     OW31197   0.868   5.755   5.295  0.0898 -0.2632  0.1248
 9926SOL    HW131198   0.947   5.800   5.265  1.5575 -3.3380 -1.1212
 9926SOL    HW231199   0.875   5.755   5.390 -0.1328  2.2386  0.1970
 9927SOL     OW31200   6.547   1.020   5.968  0.0534  0.4020 -0.5384
 9927SOL    HW131201   6.556   0.926   5.978  1.6561  0.4633 -1.0102
 9927SOL    HW231202   6.592   1.057   6.044 -0.7557  0.7870 -0.2403
 9928SOL     OW31203   0.839   4.342   5.379 -0.0478  0.3609 -0.1889
 9928SOL    HW131204   0.801   4.293   5.306 -0.4928  1.1748 -0.5245
 9928SOL    HW231205   0.817   4.292   5.456  2.6503 -1.9285 -0.7459
 9929SOL     OW31206   0.859   7.282   3.573  0.0282  0.3193 -0.6983
 9929SOL    HW131207   0.801   7.209   3.551  0.1060 -0.0292  0.2418
 9929SOL    HW231208   0.926   7.280   3.505  0.9990 -1.5611  0.2491
 9930SOL     OW31209   4.352   5.139   0.652 -0.5015 -0.6725 -0.1262
 9930SOL    HW131210   4.305   5.064   0.615 -1.2449 -0.2154 -0.1381
 9930SOL    HW231211   4.325   5.141   0.744 -3.0954  1.4523 -0.7979
 9931SOL     OW31212   4.405   4.099   0.660 -0.3050 -0.4053 -0.2471
 9931SOL    HW131213   4.501   4.106   0.662 -0.2981  0.0873 -1.4147
 9931SOL    HW231214   4.374   4.182   0.694 -0.3586 -1.2480  1.8929
 9932SOL     OW31215   4.129   4.493   1.843 -0.1912 -0.2398 -0.1489
 9932SOL    HW131216   4.214   4.503   1.801  0.5456  0.6807  1.4605
 9932SOL    HW231217   4.066   4.503   1.771  0.9407 -4.9098 -2.1671
 9933SOL     OW31218   5.928   5.215   7.624  0.1272 -0.3856 -0.3221
 9933SOL    HW131219   5.862   5.151   7.650  0.3571  0.7010  3.6733
 9933SOL    HW231220   6.012   5.171   7.639  0.2852 -0.0827 -0.3089
 9934SOL     OW31221   4.938   2.228   5.020 -0.3942  0.0367  0.0678
 9934SOL    HW131222   4.935   2.135   5.042  2.5572 -0.5853 -1.6794
 9934SOL    HW231223   4.993   2.267   5.088 -0.3525  0.2222 -0.0719
 9935SOL     OW31224   3.879   7.771   4.182  0.1709  0.4198 -0.4115
 9935SOL    HW131225   3.886   7.804   4.092 -1.2607 -0.6582 -0.9603
 9935SOL    HW231226   3.970   7.763   4.211  0.6782  0.5471 -1.8588
 9936SOL     OW31227   4.072   5.408   6.097  0.5554 -0.4275  0.2633
 9936SOL    HW131228   4.101   5.361   6.018  0.5566 -1.4507  0.8560
 9936SOL    HW231229   3.982   5.380   6.110  0.2694  0.4194  0.1343
 9937SOL     OW31230   6.048   6.179   0.103 -0.1715 -0.1571 -0.3381
 9937SOL    HW131231   6.067   6.210   0.191 -0.2473 -0.6616 -0.1423
 9937SOL    HW231232   6.133   6.146   0.071 -0.8076 -3.2669  0.8770
 9938SOL     OW31233   0.947   0.934   4.609  0.4816 -0.1310 -0.4141
 9938SOL    HW131234   1.041   0.948   4.619  0.1722  2.3353 -0.1644
 9938SOL    HW231235   0.935   0.917   4.515  1.0130  1.7804 -0.8729
 9939SOL     OW31236   5.279   0.706   0.747 -0.1505  0.0563  0.4195
 9939SOL    HW131237   5.339   0.768   0.787  1.0359 -0.2383 -0.7948
 9939SOL    HW231238   5.230   0.758   0.683 -1.3193  0.3241  1.5060
 9940SOL     OW31239   7.606   2.946   5.027  0.1655  0.3518 -0.5985
 9940SOL    HW131240   7.583   3.038   5.042 -0.0104  0.2102  0.0533
 9940SOL    HW231241   7.692   2.949   4.986  0.4692  0.7974  0.0473
 9941SOL     OW31242   6.126   0.029   0.991  0.6653  0.3638  0.1817
 9941SOL    HW131243   6.139  -0.063   1.011 -0.8023  0.2940  0.9946
 9941SOL    HW231244   6.188   0.048   0.921 -0.0661 -1.6441 -1.0785
 9942SOL     OW31245   3.268   5.950   3.532 -0.8208 -0.0061 -0.1661
 9942SOL    HW131246   3.196   6.005   3.501  0.7394  1.9904 -0.4029
 9942SOL    HW231247   3.268   5.876   3.471 -1.6641  0.7582 -1.1368
 9943SOL     OW31248   2.212   5.697   1.347  0.1482 -0.4426 -0.0096
 9943SOL    HW131249   2.262   5.709   1.266 -0.8872 -1.6129 -0.8496
 9943SOL    HW231250   2.235   5.609   1.377 -1.0244 -0.8180 -0.1594
 9944SOL     OW31251   6.883   7.435   3.409  0.1923 -0.0159 -0.6323
 9944SOL    HW131252   6.910   7.385   3.486 -1.6608 -0.8934 -0.5167
 9944SOL    HW231253   6.863   7.522   3.443  1.2868  0.1930 -0.4773
 9945SOL     OW31254   6.601   2.267   1.315 -0.1170 -0.6717  0.4048
 9945SOL    HW131255   6.512   2.237   1.299  0.2622 -2.1874  0.9950
 9945SOL    HW231256   6.655   2.188   1.311  0.7995 -0.2780  2.9448
 9946SOL     OW31257   4.348   4.293   7.526 -0.4892 -0.5700 -0.1074
 9946SOL    HW131258   4.348   4.334   7.612 -0.3268  0.7503 -0.7163
 9946SOL    HW231259   4.291   4.349   7.472  1.8652  0.4536 -1.6857
 9947SOL     OW31260   0.636   1.270   5.173 -0.7834 -0.3560  0.2074
 9947SOL    HW131261   0.593   1.184   5.173  1.6483 -1.6948 -1.8080
 9947SOL    HW231262   0.709   1.260   5.235  0.5641 -0.3963 -1.3258
 9948SOL     OW31263   6.105   1.335   5.152 -0.2582  0.3051  0.3268
 9948SOL    HW131264   6.197   1.338   5.125 -0.0931  1.0851  0.9152
 9948SOL    HW231265   6.056   1.349   5.071  0.1350 -0.2515 -0.0143
 9949SOL     OW31266   4.578   3.570   4.025 -0.0095 -0.0477  0.1595
 9949SOL    HW131267   4.571   3.493   4.082 -0.5067  1.1798  1.8475
 9949SOL    HW231268   4.561   3.536   3.937 -1.6533 -1.6284  1.0080
 9950SOL     OW31269   8.256   4.232   3.789 -0.4308 -0.4744  0.0461
 9950SOL    HW131270   8.307   4.247   3.709 -0.2908  0.3633  0.2828
 9950SOL    HW231271   8.167   4.256   3.766 -0.3027  0.2511  0.2711
 9951SOL     OW31272   3.340   1.769   5.608 -0.2904 -0.2119  0.2337
 9951SOL    HW131273   3.299   1.682   5.603 -1.1961  0.0097  2.4617
 9951SOL    HW231274   3.300   1.810   5.685  2.2769  1.0499  1.0256
 9952SOL     OW31275   1.642   7.295   3.583  0.0683 -0.1286 -0.1476
 9952SOL    HW131276   1.667   7.207   3.612 -1.0862 -0.6697 -0.7123
 9952SOL    HW231277   1.672   7.299   3.492 -1.3627 -0.6134 -0.6831
 9953SOL     OW31278   7.881   1.445   7.291 -0.6040 -0.2979  0.0241
 9953SOL    HW131279   7.962   1.460   7.340 -0.6300  0.3863 -0.1343
 9953SOL    HW231280   7.904   1.465   7.200 -1.1734  0.7296  0.1020
 9954SOL     OW31281   3.510   0.046   4.272 -0.3170  0.1776  0.2823
 9954SOL    HW131282   3.491   0.137   4.297  0.0808  0.9012 -1.8664
 9954SOL    HW231283   3.435  -0.004   4.306 -1.4466  1.5832 -0.0600
 9955SOL     OW31284   2.855   6.123   6.533  0.0988  0.2793 -0.5710
 9955SOL    HW131285   2.860   6.029   6.511 -1.6869  0.4845 -2.1078
 9955SOL    HW231286   2.897   6.130   6.619 -0.6692 -2.1003  0.0744
 9956SOL     OW31287   6.553   3.673   8.228 -0.1968 -0.3369 -0.7346
 9956SOL    HW131288   6.543   3.748   8.169  0.4062  0.3134 -0.0376
 9956SOL    HW231289   6.463   3.650   8.252 -0.4019  0.0291 -1.1172
 9957SOL     OW31290   1.770   2.274   5.038  0.4675 -0.4765  0.5190
 9957SOL    HW131291   1.812   2.283   4.952 -1.8483 -0.8215 -0.7255
 9957SOL    HW231292   1.769   2.180   5.054 -0.5111 -0.5427  0.1424
 9958SOL     OW31293   3.081   5.363   3.489 -1.1476 -0.2026  0.3849
 9958SOL    HW131294   3.043   5.278   3.510 -1.0196 -0.3482  0.0391
 9958SOL    HW231295   3.100   5.358   3.395 -0.1121 -0.1979  0.5910
 9959SOL     OW31296   2.927   0.324   2.904  0.3307  0.0441  0.5837
 9959SOL    HW131297   3.020   0.340   2.920  0.6572 -0.3259 -0.8618
 9959SOL    HW231298   2.919   0.229   2.911  0.2579 -0.0137 -0.2805
 9960SOL     OW31299   4.387   2.706   1.337  0.2174  0.0108  0.1533
 9960SOL    HW131300   4.309   2.758   1.321  1.2220  1.8084  0.8094
 9960SOL    HW231301   4.428   2.695   1.251 -1.1014 -1.6120 -0.3182
 9961SOL     OW31302   4.443   4.572   4.225  0.9659 -0.1618  0.1634
 9961SOL    HW131303   4.470   4.574   4.134 -4.2017 -1.8028 -1.7794
 9961SOL    HW231304   4.410   4.661   4.242 -0.6538 -0.5739 -0.6428
 9962SOL     OW31305   6.434   6.949   5.371  0.6981 -0.4408  0.2391
 9962SOL    HW131306   6.492   6.972   5.444 -1.0380 -0.3321  1.6575
 9962SOL    HW231307   6.408   6.858   5.389 -1.4684  0.2819  1.0280
 9963SOL     OW31308   0.739   1.751   5.935  0.8902  0.0816 -0.1948
 9963SOL    HW131309   0.678   1.825   5.939  2.0944  1.1121 -0.1639
 9963SOL    HW231310   0.707   1.698   5.862 -1.6381 -0.9368  1.5104
 9964SOL     OW31311   7.075   7.019   1.749  0.0619  0.0010 -0.3087
 9964SOL    HW131312   7.036   7.081   1.688  1.1027 -0.6407 -1.6753
 9964SOL    HW231313   7.146   7.069   1.791 -1.2882  0.7619  1.2225
 9965SOL     OW31314   0.512   5.061   5.736 -0.1494 -0.4701  0.5870
 9965SOL    HW131315   0.459   5.127   5.779 -0.4094  1.0312 -1.8707
 9965SOL    HW231316   0.467   5.044   5.653  1.9956 -0.8091 -0.5762
 9966SOL     OW31317   8.236   0.177   1.001 -0.1620  0.2702  0.2066
 9966SOL    HW131318   8.186   0.135   0.930  0.1427  1.8292 -0.9725
 9966SOL    HW231319   8.176   0.243   1.036  0.2715  0.6081  0.3112
 9967SOL     OW31320   7.340   7.128   2.414  0.2697  0.8370 -0.2131
 9967SOL    HW131321   7.267   7.159   2.360  1.1559  3.5215 -0.0025
 9967SOL    HW231322   7.408   7.194   2.402  1.6687 -0.1605  1.7565
 9968SOL     OW31323   3.582   1.644   2.676  0.1830  0.1338  0.0913
 9968SOL    HW131324   3.503   1.619   2.627  0.9693 -0.9810 -0.6493
 9968SOL    HW231325   3.642   1.677   2.610 -0.2818  2.7655  0.8724
 9969SOL     OW31326   3.673   0.412   2.258 -0.2607  0.8174  0.5548
 9969SOL    HW131327   3.620   0.340   2.292 -0.3312  0.1890 -0.8210
 9969SOL    HW231328   3.613   0.487   2.255 -1.2490  0.0053 -1.4037
 9970SOL     OW31329   2.017   5.869   0.217 -0.4021 -0.3501  0.0436
 9970SOL    HW131330   2.046   5.958   0.237  0.5933 -0.3820 -1.1321
 9970SOL    HW231331   1.971   5.841   0.296  0.2349  0.7928  0.8576
 9971SOL     OW31332   0.925   5.505   6.835  0.3137 -0.1616 -0.4890
 9971SOL    HW131333   0.904   5.436   6.898  1.5858 -0.2689 -0.1647
 9971SOL    HW231334   0.963   5.459   6.760 -1.3239 -0.0503 -1.4335
 9972SOL     OW31335   2.776   2.182   5.627 -0.0393  0.4750 -0.1639
 9972SOL    HW131336   2.682   2.171   5.638  0.0432 -0.6475 -0.4318
 9972SOL    HW231337   2.786   2.210   5.536 -0.0929  0.1011 -0.2890
 9973SOL     OW31338   0.007   0.275   5.798  0.1583 -0.1243  0.1078
 9973SOL    HW131339  -0.064   0.334   5.772  0.0442 -0.4942 -0.4364
 9973SOL    HW231340   0.067   0.330   5.848  0.0745  0.4618 -0.4299
 9974SOL     OW31341   2.179   6.593   5.163 -0.8102  0.4639 -0.3177
 9974SOL    HW131342   2.249   6.530   5.149 -1.2951 -0.2216  0.2305
 9974SOL    HW231343   2.209   6.674   5.121 -0.4375 -0.2980 -1.5653
 9975SOL     OW31344   7.609   5.377   4.002 -0.0747  0.7064  0.6523
 9975SOL    HW131345   7.666   5.440   3.958 -0.8372  1.5230  0.7922
 9975SOL    HW231346   7.669   5.320   4.051  0.6430  1.2191  0.3853
 9976SOL     OW31347   2.739   1.920   0.391  0.3966  0.2910  0.0972
 9976SOL    HW131348   2.784   1.995   0.354 -0.4395 -0.2875 -2.2480
 9976SOL    HW231349   2.646   1.942   0.384  0.1920 -0.0347  1.5023
 9977SOL     OW31350   6.569   5.527   3.024 -0.0794 -0.3284  0.1996
 9977SOL    HW131351   6.513   5.508   3.099 -0.7583  1.3882  0.1789
 9977SOL    HW231352   6.656   5.500   3.051 -0.1004  1.2909  2.0789
 9978SOL     OW31353   7.727   1.995   7.994 -0.1438  0.6092  0.0234
 9978SOL    HW131354   7.680   2.023   7.916 -0.2826  1.7299  0.4823
 9978SOL    HW231355   7.802   2.054   8.000  0.8458 -0.5696 -0.1907
 9979SOL     OW31356   7.103   1.706   5.861 -0.3057 -0.4095 -0.2251
 9979SOL    HW131357   7.146   1.781   5.903 -0.2072 -0.7970  0.3749
 9979SOL    HW231358   7.166   1.635   5.868 -0.1267 -0.3849 -1.3946
 9980SOL     OW31359   2.432   4.361   0.930  0.0510  0.3224  0.8456
 9980SOL    HW131360   2.510   4.373   0.874 -1.1597  0.5739 -0.8663
 9980SOL    HW231361   2.372   4.430   0.903 -1.4363 -0.8869  0.8837
 9981SOL     OW31362   1.287   5.834   3.129 -0.0892 -0.4448  0.0533
 9981SOL    HW131363   1.353   5.767   3.112  0.5838 -0.2635  1.7076
 9981SOL    HW231364   1.214   5.786   3.168  1.0616 -0.1449  2.8920
 9982SOL     OW31365   6.006   5.176   0.740 -0.3821  0.4170  0.4443
 9982SOL    HW131366   5.971   5.088   0.755  2.6402 -0.9125  0.4909
 9982SOL    HW231367   6.003   5.188   0.645  0.0764 -0.1774  0.3498
 9983SOL     OW31368   3.239   1.857   5.883 -0.3562 -0.1204 -0.1832
 9983SOL    HW131369   3.192   1.939   5.899  0.0160  0.0320  0.1499
 9983SOL    HW231370   3.185   1.789   5.922 -1.0790 -0.1389 -1.1824
 9984SOL     OW31371   8.146   3.079   4.423  0.1922  0.2130  0.0597
 9984SOL    HW131372   8.130   3.010   4.487 -0.2388  0.2239 -0.0350
 9984SOL    HW231373   8.229   3.119   4.451  0.5124 -0.4250  0.0342
 9985SOL     OW31374   7.903   3.717   5.475 -0.2451 -0.2242 -0.7410
 9985SOL    HW131375   7.975   3.658   5.495  0.0908  0.2157 -0.6510
 9985SOL    HW231376   7.904   3.724   5.379  0.8035  0.9668 -0.6759
 9986SOL     OW31377   1.108   6.907   0.723  0.5414 -0.4523 -0.1100
 9986SOL    HW131378   1.144   6.884   0.638  0.1932  0.7683 -0.5952
 9986SOL    HW231379   1.151   6.988   0.747  0.1458 -0.4352  0.5690
 9987SOL     OW31380   3.796   6.314   5.465 -0.3207 -0.4226 -0.0009
 9987SOL    HW131381   3.854   6.378   5.424  0.2342 -0.7259  0.2974
 9987SOL    HW231382   3.758   6.360   5.540 -0.1370 -0.3488  0.0484
 9988SOL     OW31383   0.728   5.658   1.475  0.0615  0.3565 -0.2215
 9988SOL    HW131384   0.752   5.746   1.448  0.1609 -0.0525 -1.5457
 9988SOL    HW231385   0.809   5.619   1.508 -0.0195  0.7953  0.5243
 9989SOL     OW31386   7.300   1.699   7.110 -0.2328 -0.2497 -0.2142
 9989SOL    HW131387   7.260   1.730   7.028  0.3736 -1.1608 -0.8803
 9989SOL    HW231388   7.278   1.606   7.113  0.9168 -0.5328 -0.0567
 9990SOL     OW31389   3.177   1.549   5.760 -0.6073  0.3082 -0.2347
 9990SOL    HW131390   3.169   1.455   5.747 -0.8477  0.1324  1.0921
 9990SOL    HW231391   3.253   1.559   5.818 -0.3375  0.9680 -0.6804
 9991SOL     OW31392   6.485   7.672   4.447 -0.1685 -0.0960  0.6383
 9991SOL    HW131393   6.450   7.759   4.426 -1.0326 -0.7564 -0.8389
 9991SOL    HW231394   6.578   7.679   4.426 -0.4348  0.1917 -0.5304
 9992SOL     OW31395   4.032   3.060   3.247 -0.2129 -0.3914 -0.0763
 9992SOL    HW131396   3.998   3.149   3.243  1.6616  0.3435 -1.2798
 9992SOL    HW231397   4.100   3.057   3.179  1.8869 -1.7855  1.9399
 9993SOL     OW31398   6.541   4.679   2.245  0.0491 -0.4747 -0.2642
 9993SOL    HW131399   6.591   4.659   2.325 -0.1461 -0.7373 -0.2095
 9993SOL    HW231400   6.591   4.750   2.204 -0.2396  0.1673  0.4643
 9994SOL     OW31401   4.677   1.440   3.644 -0.1708  0.1137  0.0174
 9994SOL    HW131402   4.614   1.368   3.654 -0.1607  0.2053  0.7758
 9994SOL    HW231403   4.626   1.511   3.603 -0.3885 -0.0388  0.0218
 9995SOL     OW31404   1.608   3.140   6.574  0.5645 -0.2570  0.4607
 9995SOL    HW131405   1.610   3.234   6.594  2.7764 -0.0409 -0.5505
 9995SOL    HW231406   1.556   3.102   6.645 -0.6464  1.7491  0.7259
 9996SOL     OW31407   2.021   4.848   8.242 -0.2013 -0.2656 -0.3108
 9996SOL    HW131408   1.986   4.937   8.247 -1.3111 -0.7501  1.9606
 9996SOL    HW231409   1.960   4.796   8.294  1.9077 -1.8547  0.6991
 9997SOL     OW31410   5.669   5.308   6.267  0.5353 -0.4536 -0.0491
 9997SOL    HW131411   5.595   5.270   6.221  0.3627  0.0554 -0.2039
 9997SOL    HW231412   5.729   5.235   6.281 -0.4208 -1.0744  0.9585
 9998SOL     OW31413   2.433   6.664   3.953  0.3375 -0.4557  0.0168
 9998SOL    HW131414   2.523   6.634   3.951  0.2596 -0.6668 -0.6165
 9998SOL    HW231415   2.439   6.760   3.946  0.5398 -0.3896  0.9479
 9999SOL     OW31416   0.735   7.777   7.460  0.0447 -0.2531 -0.2837
 9999SOL    HW131417   0.704   7.866   7.445 -0.1434 -0.2945 -0.1458
 9999SOL    HW231418   0.761   7.745   7.374 -0.8569 -0.4300 -0.4991
10000SOL     OW31419   1.309   4.619   6.097  0.3514  0.4091  0.1897
10000SOL    HW131420   1.248   4.657   6.160 -1.4023 -0.8020 -0.6648
10000SOL    HW231421   1.328   4.532   6.131  0.2182  0.1362 -0.4182
10001SOL     OW31422   3.384   4.547   8.009  0.3367 -0.4257 -0.0001
10001SOL    HW131423   3.330   4.522   7.934  3.3622 -0.4223 -2.3792
10001SOL    HW231424   3.378   4.472   8.069 -1.1178 -1.0062 -0.8078
10002SOL     OW31425   3.188   2.651   2.250 -0.3454 -0.1076 -0.6925
10002SOL    HW131426   3.099   2.673   2.276 -0.7225  1.9898 -3.3938
10002SOL    HW231427   3.243   2.716   2.293 -0.1529 -0.9212  0.3380
10003SOL     OW31428   0.583   0.196   2.436 -0.6203  0.0720  0.6420
10003SOL    HW131429   0.622   0.209   2.522 -2.1027 -0.5523  1.4507
10003SOL    HW231430   0.562   0.103   2.432 -1.8469  0.3330  0.2007
10004SOL     OW31431   2.487   4.668   6.656 -0.3380  0.0536 -0.0809
10004SOL    HW131432   2.467   4.703   6.743  0.2545  1.5135 -0.4926
10004SOL    HW231433   2.558   4.606   6.671 -1.2356 -0.8288  0.6464
10005SOL     OW31434   0.730   0.177   0.121 -0.3220 -0.3942 -0.3880
10005SOL    HW131435   0.674   0.128   0.181  0.2704  1.8722  2.2001
10005SOL    HW231436   0.817   0.138   0.131 -0.2792 -0.1878  0.0765
10006SOL     OW31437   4.282   3.760   3.768 -0.4491  0.6015  0.3036
10006SOL    HW131438   4.240   3.753   3.854 -0.8376  0.0506  0.0791
10006SOL    HW231439   4.210   3.778   3.708 -0.3085  0.0989 -0.0232
10007SOL     OW31440   7.644   4.436   7.894 -0.4022  0.1010 -0.2551
10007SOL    HW131441   7.728   4.393   7.911  0.2781  0.7962 -1.7227
10007SOL    HW231442   7.582   4.364   7.887 -0.1131 -0.3877  1.6330
10008SOL     OW31443   3.132   5.636   3.154 -0.0448 -0.2119 -0.4899
10008SOL    HW131444   3.108   5.544   3.155  3.3864 -1.2456 -1.3680
10008SOL    HW231445   3.135   5.659   3.061 -1.7472  1.1275 -0.2676
10009SOL     OW31446   7.329   3.500   6.414  0.3210  0.2778 -0.1905
10009SOL    HW131447   7.394   3.495   6.485  0.3759  1.5105 -0.1295
10009SOL    HW231448   7.368   3.560   6.351 -0.1572 -0.0673 -0.8299
10010SOL     OW31449   8.116   5.076   6.317  0.1567  0.6145 -0.3712
10010SOL    HW131450   8.100   5.076   6.412  0.8640 -2.0432 -0.1780
10010SOL    HW231451   8.031   5.053   6.279  0.0571  0.9531 -0.3659
10011SOL     OW31452   2.197   1.284   1.475 -0.3984 -0.0971 -0.6531
10011SOL    HW131453   2.161   1.295   1.387 -2.8168 -2.2305 -0.0516
10011SOL    HW231454   2.181   1.368   1.519 -0.7903  0.3890 -1.7029
10012SOL     OW31455   0.121   4.272   1.471  0.0962 -0.3443  0.7350
10012SOL    HW131456   0.078   4.354   1.447  1.2769  0.2360  0.5756
10012SOL    HW231457   0.059   4.231   1.532 -1.0677  0.0640 -0.1270
10013SOL     OW31458   2.137   5.056   3.727 -0.0165  0.1372  0.0824
10013SOL    HW131459   2.184   5.081   3.807 -1.3248  1.5453  0.4701
10013SOL    HW231460   2.170   5.118   3.661 -1.7124  1.5933  0.5193
10014SOL     OW31461   6.814   2.583   0.992 -0.4063  0.2478 -1.0282
10014SOL    HW131462   6.789   2.530   1.068  0.9991  0.2389 -0.5577
10014SOL    HW231463   6.745   2.649   0.985 -1.0935 -0.3824 -0.3811
10015SOL     OW31464   1.052   8.058   0.149  0.3933  0.2463  0.0990
10015SOL    HW131465   1.077   8.016   0.231 -1.6939  1.2116  1.3144
10015SOL    HW231466   0.958   8.041   0.141  0.4233  0.7267 -1.7619
10016SOL     OW31467   3.335   0.469   3.661 -0.3828  0.2100  0.0675
10016SOL    HW131468   3.358   0.392   3.712 -0.7128 -0.5027 -0.8383
10016SOL    HW231469   3.260   0.507   3.707 -1.1750 -0.8664 -0.3076
10017SOL     OW31470   4.343   0.601   2.189 -0.1883 -0.1241 -0.2693
10017SOL    HW131471   4.405   0.532   2.212 -2.0643 -1.8721 -0.1110
10017SOL    HW231472   4.357   0.670   2.254  2.3933  0.1419 -0.9972
10018SOL     OW31473   5.556   4.842   7.107  0.2996 -0.0512 -0.0040
10018SOL    HW131474   5.464   4.838   7.080 -0.3573  1.2993  1.8300
10018SOL    HW231475   5.587   4.925   7.070  1.1598 -1.0273 -1.5744
10019SOL     OW31476   6.903   4.189   2.465 -0.0982 -0.3003  0.5164
10019SOL    HW131477   6.940   4.167   2.380  1.0785 -0.7662  1.1263
10019SOL    HW231478   6.960   4.259   2.499 -1.0804  0.4995  0.5548
10020SOL     OW31479   7.495   5.440   2.799 -0.4467 -0.3229 -0.3845
10020SOL    HW131480   7.565   5.443   2.734 -0.0147 -0.1435  0.0857
10020SOL    HW231481   7.462   5.350   2.795  1.4005 -1.1396  1.0443
10021SOL     OW31482   6.869   5.612   0.993  0.0415  0.4196  1.0452
10021SOL    HW131483   6.918   5.608   1.075  0.4487 -0.5933  0.7778
10021SOL    HW231484   6.859   5.520   0.967  1.2011  0.7586 -0.7820
10022SOL     OW31485   6.953   5.084   5.019 -0.2301 -0.6161  0.0938
10022SOL    HW131486   6.875   5.083   5.073 -0.3839 -1.1273 -0.1356
10022SOL    HW231487   6.983   4.993   5.017  1.5207 -0.1699  1.8333
10023SOL     OW31488   7.945   3.629   0.208  0.6439 -0.1096  0.2845
10023SOL    HW131489   7.995   3.547   0.207 -0.3579 -0.7327 -0.7883
10023SOL    HW231490   7.974   3.675   0.129 -1.5419 -1.1915 -1.2413
10024SOL     OW31491   5.885   2.329   6.863 -0.7159  0.3083 -0.1203
10024SOL    HW131492   5.940   2.387   6.811  0.7149 -1.9396 -1.2662
10024SOL    HW231493   5.945   2.269   6.905 -2.1306 -0.2777  1.1793
10025SOL     OW31494   4.651   1.652   1.169 -0.0544 -0.4314  0.5905
10025SOL    HW131495   4.667   1.580   1.108  0.3791 -0.5076  0.7912
10025SOL    HW231496   4.690   1.728   1.126  0.3770 -0.5112  0.8248
10026SOL     OW31497   2.346   2.755   0.096  0.1878 -0.6071 -0.3996
10026SOL    HW131498   2.327   2.838   0.141 -0.5804 -1.2031  0.4094
10026SOL    HW231499   2.405   2.708   0.154  0.4287 -0.7396 -0.7450
10027SOL     OW31500   7.561   5.092   1.996 -0.3703  0.0240  0.1758
10027SOL    HW131501   7.609   5.161   1.950 -1.4707  1.6054  1.2789
10027SOL    HW231502   7.537   5.029   1.928 -1.0785  1.7719 -1.2705
10028SOL     OW31503   6.435   0.606   2.472 -0.0484 -0.2463  0.1592
10028SOL    HW131504   6.345   0.623   2.443  0.8825  2.1005 -1.8005
10028SOL    HW231505   6.478   0.566   2.396  1.3794  1.9454 -0.2931
10029SOL     OW31506   4.717   2.115   2.943 -0.5381  0.5809 -0.0989
10029SOL    HW131507   4.625   2.139   2.943 -1.0624 -1.0634  2.1125
10029SOL    HW231508   4.720   2.031   2.989  2.1185  0.8888  0.4771
10030SOL     OW31509   2.778   3.309   7.456  0.5421  0.7360  0.3521
10030SOL    HW131510   2.847   3.367   7.489  1.7516 -1.6775  2.3435
10030SOL    HW231511   2.755   3.253   7.530 -0.5505 -1.3710 -1.4590
10031SOL     OW31512   2.089   1.431   0.931 -0.7346  0.1787 -0.1673
10031SOL    HW131513   2.098   1.469   0.844 -0.4324  1.8193  0.5508
10031SOL    HW231514   1.995   1.412   0.939 -0.7975  0.2220 -0.7520
10032SOL     OW31515   5.243   0.787   8.194  0.2166 -0.3148 -0.2146
10032SOL    HW131516   5.336   0.767   8.190  0.3272 -0.6840  2.5710
10032SOL    HW231517   5.237   0.881   8.177  1.2890  0.0225  1.1635
10033SOL     OW31518   3.525   5.800   4.076  0.6450 -0.4681  0.1591
10033SOL    HW131519   3.490   5.712   4.085  2.3946 -1.0945  1.3398
10033SOL    HW231520   3.614   5.788   4.043  0.3933  0.9619 -1.1796
10034SOL     OW31521   3.027   3.429   6.554 -0.1039  0.1602 -0.1767
10034SOL    HW131522   3.065   3.468   6.633 -1.2141 -0.8258  0.8972
10034SOL    HW231523   3.092   3.365   6.525  0.0588  0.0911  0.3254
10035SOL     OW31524   3.194   4.977   2.561 -0.4094  0.7158 -0.1847
10035SOL    HW131525   3.280   5.019   2.563 -0.9029  1.7687 -0.1407
10035SOL    HW231526   3.132   5.050   2.562 -1.3341 -0.0439  1.0035
10036SOL     OW31527   5.762   1.483   0.906 -0.1256 -0.1075 -0.0174
10036SOL    HW131528   5.736   1.467   0.997 -0.7415  0.3504 -0.1027
10036SOL    HW231529   5.837   1.542   0.912 -1.2397  1.3477  0.1704
10037SOL     OW31530   4.280   2.120   5.991 -0.2455  0.0778  0.4538
10037SOL    HW131531   4.185   2.107   5.986 -0.2138 -0.1067  0.2829
10037SOL    HW231532   4.293   2.172   6.069 -0.5896  1.1170 -0.1658
10038SOL     OW31533   4.069   0.194   4.000 -0.0323  0.5165 -0.3687
10038SOL    HW131534   4.134   0.230   4.060  0.1912 -0.7191  0.1770
10038SOL    HW231535   3.990   0.246   4.015  0.3016  0.8503  0.2958
10039SOL     OW31536   2.090   6.207   3.092 -0.1109 -0.1580  0.1711
10039SOL    HW131537   2.036   6.134   3.122 -0.6477 -1.0319 -2.6426
10039SOL    HW231538   2.031   6.282   3.095  0.2043  0.0776  2.2773
10040SOL     OW31539   2.878   5.561   6.783  0.6603 -0.0002 -0.3984
10040SOL    HW131540   2.827   5.484   6.760  0.5095 -0.4403  1.2490
10040SOL    HW231541   2.886   5.611   6.702 -0.0270 -1.2875 -1.2832
10041SOL     OW31542   2.122   4.271   3.022  0.9555 -0.2755 -0.0769
10041SOL    HW131543   2.179   4.305   2.953  2.0655  0.8149  1.3049
10041SOL    HW231544   2.147   4.321   3.100 -1.1773 -0.5150  0.8263
10042SOL     OW31545   7.941   2.644   2.400 -0.2959  0.3131 -0.5051
10042SOL    HW131546   7.870   2.668   2.340 -2.1376 -1.4505  0.8573
10042SOL    HW231547   7.937   2.710   2.469 -0.6660  0.1668 -0.3862
10043SOL     OW31548   0.447   0.302   7.940  0.0847 -0.6591  0.6047
10043SOL    HW131549   0.390   0.306   8.016 -1.5945 -1.3006 -0.5749
10043SOL    HW231550   0.531   0.336   7.971 -1.1398  1.1456  2.1807
10044SOL     OW31551   4.269   4.353   4.230  0.5202  0.2261 -0.3327
10044SOL    HW131552   4.272   4.321   4.320 -0.7336  0.3273 -0.2396
10044SOL    HW231553   4.336   4.422   4.227 -2.1964  3.2484  1.7841
10045SOL     OW31554   0.647   6.169   6.214 -0.1242 -0.4749  0.3133
10045SOL    HW131555   0.660   6.077   6.189  1.8479  0.0869 -1.0374
10045SOL    HW231556   0.580   6.201   6.153  0.8101 -0.4751 -0.7373
10046SOL     OW31557   6.563   0.924   7.680  0.2371  0.4955 -0.3515
10046SOL    HW131558   6.528   0.990   7.740  1.0180 -1.1265  2.0322
10046SOL    HW231559   6.497   0.917   7.610 -2.5729 -0.0192  2.1557
10047SOL     OW31560   6.442   8.306   6.751 -0.4493  0.3888 -0.3473
10047SOL    HW131561   6.402   8.366   6.814 -1.1994 -0.9630  0.4954
10047SOL    HW231562   6.375   8.239   6.735  0.8132 -0.9287 -0.2945
10048SOL     OW31563   8.128   3.986   0.241  0.3938 -0.0587  0.5322
10048SOL    HW131564   8.108   4.079   0.237 -0.4963 -0.0891  2.6535
10048SOL    HW231565   8.174   3.975   0.324  3.8949 -1.0191 -1.3382
10049SOL     OW31566   6.865   8.136   1.541 -0.8081 -0.1061 -0.2392
10049SOL    HW131567   6.923   8.188   1.485  0.7302  0.3378  1.6790
10049SOL    HW231568   6.861   8.183   1.624 -0.4871 -2.2869  1.1008
10050SOL     OW31569   5.505   4.062   1.747  0.0761 -0.2196  0.0779
10050SOL    HW131570   5.597   4.046   1.769 -0.1207 -0.3351  0.8609
10050SOL    HW231571   5.485   4.145   1.789 -0.0655  0.0134 -0.4489
10051SOL     OW31572   2.255   1.848   7.918  0.0218  0.4160  0.0572
10051SOL    HW131573   2.284   1.784   7.983  0.3075 -0.8349 -1.2486
10051SOL    HW231574   2.285   1.932   7.952  0.2083 -0.2129  1.5011
10052SOL     OW31575   7.022   7.447   0.945  0.0068 -1.0963 -0.4674
10052SOL    HW131576   6.928   7.439   0.934 -0.4092  0.5668  1.3724
10052SOL    HW231577   7.053   7.357   0.958 -1.5730 -1.5088  0.6253
10053SOL     OW31578   6.930   0.006   2.512  0.5261  0.1783 -0.2367
10053SOL    HW131579   6.907   0.088   2.555 -0.7085 -0.3542  0.1614
10053SOL    HW231580   7.006   0.027   2.458  0.4646  1.4801  0.1674
10054SOL     OW31581   7.851   1.762   5.324 -0.2488  0.1328  0.2491
10054SOL    HW131582   7.872   1.719   5.241 -1.8609  1.6363 -1.0249
10054SOL    HW231583   7.756   1.772   5.322 -0.1869  1.3162  1.7261
10055SOL     OW31584   7.388   2.700   6.366 -0.3897  0.4160  0.4108
10055SOL    HW131585   7.407   2.612   6.336 -1.1067 -0.2876  1.9005
10055SOL    HW231586   7.452   2.755   6.322  1.3005 -1.1001  0.8603
10056SOL     OW31587   5.441   3.850   4.223 -0.1778  0.0442 -0.6827
10056SOL    HW131588   5.502   3.883   4.158 -0.9915 -0.3595 -1.6686
10056SOL    HW231589   5.463   3.757   4.232  1.9897  0.6775  1.9528
10057SOL     OW31590   5.490   1.323   3.188 -0.0754 -0.0901  0.0596
10057SOL    HW131591   5.476   1.228   3.188  1.3222 -0.3771  2.7835
10057SOL    HW231592   5.584   1.333   3.203 -0.3949  1.7232  1.0402
10058SOL     OW31593   1.610   5.891   0.621 -0.5172 -0.0999 -0.0600
10058SOL    HW131594   1.648   5.810   0.654 -0.2005  0.1953  0.3007
10058SOL    HW231595   1.683   5.939   0.583 -0.7107  0.0035 -0.3111
10059SOL     OW31596   4.617   4.306   0.035  0.8503 -0.7373 -0.1617
10059SOL    HW131597   4.696   4.357   0.049  0.1560 -0.1328  1.8478
10059SOL    HW231598   4.552   4.346   0.092 -0.2846 -2.6298 -0.0389
10060SOL     OW31599   2.963   1.865   5.495 -0.1546  0.7517  0.1376
10060SOL    HW131600   2.878   1.892   5.462 -0.2552  1.7743  1.1384
10060SOL    HW231601   2.944   1.800   5.563 -0.2314  1.6956  1.0518
10061SOL     OW31602   8.000   3.971   7.039  0.6012 -0.3808  0.1524
10061SOL    HW131603   8.050   3.915   7.098  0.9140 -0.3931 -0.1229
10061SOL    HW231604   8.012   4.059   7.073  1.3494 -0.3056 -0.2866
10062SOL     OW31605   4.446   6.734   4.320  0.3286  0.0915  0.5427
10062SOL    HW131606   4.409   6.813   4.360  0.9290  0.6090  0.0845
10062SOL    HW231607   4.428   6.744   4.226 -0.8808 -1.0124  0.6255
10063SOL     OW31608   1.913   3.902   0.583 -0.7939 -0.3341  0.4092
10063SOL    HW131609   1.852   3.854   0.639 -0.3768  2.3493  3.4192
10063SOL    HW231610   1.998   3.889   0.625 -0.1753  0.4305 -0.5769
10064SOL     OW31611   6.380   5.097   0.035 -0.0885  0.5976 -0.2964
10064SOL    HW131612   6.341   5.183   0.054 -0.1092  1.0797 -2.3602
10064SOL    HW231613   6.337   5.068  -0.045  1.0203 -0.6423 -0.4630
10065SOL     OW31614   6.497   8.245   7.078  0.2593  0.0143  0.3103
10065SOL    HW131615   6.488   8.300   7.000 -1.5431 -1.7685 -0.8106
10065SOL    HW231616   6.437   8.284   7.142 -0.6115 -0.3060 -0.2939
10066SOL     OW31617   1.595   1.048   5.659  0.0687 -0.1560  0.2841
10066SOL    HW131618   1.522   1.102   5.690 -0.8482 -1.3832  0.3454
10066SOL    HW231619   1.671   1.080   5.707 -0.9743 -0.8074  2.4729
10067SOL     OW31620   3.020   2.844   0.600 -0.5638  0.2429  0.3662
10067SOL    HW131621   3.032   2.750   0.590 -0.2487  0.2462  0.7316
10067SOL    HW231622   3.054   2.881   0.518  1.2547  0.2023  1.0638
10068SOL     OW31623   8.005   4.515   5.570 -0.5048 -0.1885  0.6755
10068SOL    HW131624   7.998   4.426   5.536  1.8556 -0.5488  0.9770
10068SOL    HW231625   7.980   4.508   5.662 -5.9158  0.6108 -0.3926
10069SOL     OW31626   0.381   7.851   7.206  0.4800  0.2831  0.1839
10069SOL    HW131627   0.322   7.910   7.161  0.3127  0.7152  0.9401
10069SOL    HW231628   0.338   7.765   7.202  1.1527 -0.0106 -1.7073
10070SOL     OW31629   1.971   2.841   7.160 -0.1981  0.1550 -0.5390
10070SOL    HW131630   2.031   2.845   7.235 -0.3093  0.7097 -0.4767
10070SOL    HW231631   2.007   2.772   7.104 -1.1536 -1.5866  0.9002
10071SOL     OW31632   4.212   3.505   5.153 -1.0788  0.3240 -0.2111
10071SOL    HW131633   4.120   3.482   5.156 -0.8724 -0.4893  1.9055
10071SOL    HW231634   4.246   3.478   5.239  1.4198 -0.6435 -1.4146
10072SOL     OW31635   2.503   1.617   7.120  0.9071  0.4131 -0.1396
10072SOL    HW131636   2.505   1.549   7.187  0.4899 -1.9889 -2.4008
10072SOL    HW231637   2.466   1.693   7.164  1.0631 -0.8856  2.4408
10073SOL     OW31638   8.069   1.424   7.824  0.7590  0.6666 -0.3181
10073SOL    HW131639   8.023   1.498   7.784  0.4227  0.3819 -0.4619
10073SOL    HW231640   8.060   1.353   7.760  1.4381  0.6198 -0.3680
10074SOL     OW31641   6.461   6.894   0.543  0.1965  0.4293  0.1300
10074SOL    HW131642   6.474   6.812   0.591 -3.3703 -0.3079  0.1180
10074SOL    HW231643   6.515   6.957   0.590  2.6338 -1.7509  0.4878
10075SOL     OW31644   4.306   7.274   7.487 -0.2068 -0.6821 -0.1322
10075SOL    HW131645   4.333   7.310   7.402  0.6009  0.3735  0.5372
10075SOL    HW231646   4.214   7.253   7.476 -0.5143  0.8627 -0.8348
10076SOL     OW31647   2.505   6.850   6.685 -0.1518  0.5622 -0.6114
10076SOL    HW131648   2.467   6.897   6.759 -0.5464  1.2911 -1.2651
10076SOL    HW231649   2.525   6.763   6.719  1.8632  1.5820  1.0133
10077SOL     OW31650   6.462   5.674   0.292 -0.5168  0.0288 -0.6572
10077SOL    HW131651   6.395   5.726   0.337  0.4898  0.3967  0.4717
10077SOL    HW231652   6.467   5.712   0.204 -1.4408  0.3012 -0.6045
10078SOL     OW31653   7.305   2.676   1.072 -0.4594 -0.3831  0.0443
10078SOL    HW131654   7.380   2.734   1.056 -0.7845  0.1807  0.5031
10078SOL    HW231655   7.317   2.603   1.011  0.6762 -0.5072  0.4038
10079SOL     OW31656   3.803   0.011   5.771  0.4028 -0.0524 -0.4212
10079SOL    HW131657   3.899   0.007   5.764  0.3340 -0.7984 -1.0313
10079SOL    HW231658   3.773   0.015   5.680 -0.2023 -1.4127 -0.2966
10080SOL     OW31659   4.197   1.472   4.277  0.0502 -0.3171  0.0335
10080SOL    HW131660   4.277   1.516   4.303 -0.4118  0.5058  0.1140
10080SOL    HW231661   4.145   1.467   4.357  0.0735 -0.9729  0.0133
10081SOL     OW31662   2.804   4.422   5.076  0.2114 -0.0930  0.6008
10081SOL    HW131663   2.792   4.473   5.156 -1.0454  0.1417  0.2865
10081SOL    HW231664   2.716   4.393   5.053  0.7976 -1.7662  0.3440
10082SOL     OW31665   5.443   2.856   0.071  0.2265 -0.2745 -0.0124
10082SOL    HW131666   5.354   2.844   0.106  0.0097 -1.2695 -0.8515
10082SOL    HW231667   5.438   2.937   0.021 -0.2019 -0.2793  0.0117
10083SOL     OW31668   5.694   1.894   6.783 -0.7456  0.4360  0.4715
10083SOL    HW131669   5.742   1.949   6.845  0.9354 -0.9851  0.5126
10083SOL    HW231670   5.616   1.945   6.761 -0.6462  1.6338  2.5926
10084SOL     OW31671   0.581   3.219   5.088 -0.1264  0.3023 -0.1947
10084SOL    HW131672   0.664   3.265   5.073  0.3710 -0.5909 -0.2695
10084SOL    HW231673   0.526   3.282   5.134  1.4907  0.1121  2.1698
10085SOL     OW31674   3.273   5.163   5.217  0.0825  0.2332 -0.2977
10085SOL    HW131675   3.287   5.086   5.273  0.6586  1.9081  2.0501
10085SOL    HW231676   3.347   5.164   5.158  1.3141  0.1609  1.1802
10086SOL     OW31677   4.371   6.564   4.521 -0.1940 -0.8728  0.0933
10086SOL    HW131678   4.414   6.604   4.446 -0.2504 -0.5124  0.2493
10086SOL    HW231679   4.437   6.566   4.591 -1.3420  2.5302  1.2952
10087SOL     OW31680   6.879   3.825   5.810  0.0257 -0.3779 -0.4308
10087SOL    HW131681   6.947   3.799   5.872  0.7172 -1.2265 -1.5196
10087SOL    HW231682   6.908   3.911   5.778  0.7343 -0.8240 -1.0455
10088SOL     OW31683   0.496   5.843   5.847  0.1878  0.1790  0.0725
10088SOL    HW131684   0.554   5.918   5.859  0.4635 -0.0360  0.0799
10088SOL    HW231685   0.522   5.805   5.763 -0.5659  0.6345 -0.3803
10089SOL     OW31686   7.227   3.761   8.117 -0.4755  0.5731  0.0135
10089SOL    HW131687   7.247   3.694   8.181  0.6499 -0.0436 -0.9508
10089SOL    HW231688   7.229   3.716   8.033 -1.5078  1.4443 -0.5042
10090SOL     OW31689   4.652   4.797   6.718 -0.3107  0.2640 -0.1015
10090SOL    HW131690   4.611   4.710   6.719 -1.5076  0.7936  0.8670
10090SOL    HW231691   4.698   4.802   6.802 -0.5006  0.6531 -0.0162
10091SOL     OW31692   4.492   6.660   6.744 -0.0834  0.6510 -0.3699
10091SOL    HW131693   4.441   6.733   6.778 -1.1352 -0.2484  0.0555
10091SOL    HW231694   4.501   6.601   6.820  0.1010  0.0021 -0.8886
10092SOL     OW31695   2.999   2.252   7.085 -0.3117 -0.5542  0.1050
10092SOL    HW131696   3.060   2.187   7.051 -0.9408 -1.0181 -0.1656
10092SOL    HW231697   3.042   2.336   7.070  1.1064 -0.9607  1.6973
10093SOL     OW31698   4.602   0.771   6.242  0.0554 -0.0945 -0.5434
10093SOL    HW131699   4.664   0.827   6.289 -0.5699 -0.1729  0.3900
10093SOL    HW231700   4.594   0.813   6.156 -0.0901  1.0335 -0.0061
10094SOL     OW31701   7.672   3.680   7.682  0.5772  0.1527 -0.2411
10094SOL    HW131702   7.632   3.630   7.753  0.1133 -1.5827 -1.6415
10094SOL    HW231703   7.764   3.653   7.683  0.6972  0.5621  0.0412
10095SOL     OW31704   2.177   4.201   0.609  0.0217 -0.0295 -0.0965
10095SOL    HW131705   2.082   4.212   0.615  0.2113  1.3360  1.0728
10095SOL    HW231706   2.197   4.128   0.667 -0.1170  1.1618  1.5131
10096SOL     OW31707   6.152   8.127   4.933 -0.0696  0.0740 -0.4253
10096SOL    HW131708   6.162   8.222   4.936  0.1540  0.0448 -0.3153
10096SOL    HW231709   6.068   8.110   4.976 -0.6336  0.3149 -1.4120
10097SOL     OW31710   5.099   3.754   2.792 -0.2749 -0.2854 -0.6358
10097SOL    HW131711   5.021   3.706   2.820 -0.1191 -0.2755 -0.1935
10097SOL    HW231712   5.150   3.767   2.871  0.1366 -0.2102 -0.9108
10098SOL     OW31713   7.179   1.518   2.536 -0.5328  0.0271 -0.4043
10098SOL    HW131714   7.145   1.586   2.478  0.4841  0.1938 -0.8379
10098SOL    HW231715   7.201   1.564   2.617 -1.1327 -0.0429 -0.2006
10099SOL     OW31716   7.098   6.627   1.858  0.0067  0.0131 -0.0042
10099SOL    HW131717   7.081   6.654   1.948 -0.1798  2.2768 -0.6522
10099SOL    HW231718   7.192   6.642   1.846  0.1185 -0.7157 -0.0575
10100SOL     OW31719   5.556   2.946   7.815  0.4311  0.0195  0.2713
10100SOL    HW131720   5.618   3.019   7.817  1.0989 -0.5286  0.1379
10100SOL    HW231721   5.470   2.987   7.821  0.7479  0.8698 -0.7108
10101SOL     OW31722   1.634   5.051   8.306  0.2790 -0.1788  0.1773
10101SOL    HW131723   1.725   5.033   8.331  0.5024  1.8078  1.0210
10101SOL    HW231724   1.583   5.020   8.380  0.5329  1.1414  0.9437
10102SOL     OW31725   2.256   4.329   4.999  0.2409 -0.1079  0.1064
10102SOL    HW131726   2.245   4.356   5.090  0.4702  0.6615 -0.0842
10102SOL    HW231727   2.214   4.243   4.994  0.3873 -0.2387  0.9757
10103SOL     OW31728   1.677   3.400   6.205  0.6920  0.7291  0.1960
10103SOL    HW131729   1.750   3.339   6.191  2.2160  2.6298 -0.6613
10103SOL    HW231730   1.709   3.460   6.272 -0.8758  0.4643  1.2114
10104SOL     OW31731   5.397   5.640   3.188  0.2698  0.0582  0.1133
10104SOL    HW131732   5.415   5.547   3.196  2.1495  0.5308  2.3843
10104SOL    HW231733   5.465   5.673   3.130  1.4978  0.4436  1.7096
10105SOL     OW31734   2.422   8.017   2.851  0.2462 -0.5024  0.0996
10105SOL    HW131735   2.385   8.105   2.844 -1.0069 -0.8836  1.4605
10105SOL    HW231736   2.517   8.032   2.852  0.1558  0.6085 -2.0871
10106SOL     OW31737   1.042   6.598   4.129 -0.1218 -0.9019  0.1329
10106SOL    HW131738   1.066   6.690   4.129 -2.1508 -0.3083 -1.2721
10106SOL    HW231739   1.041   6.573   4.221  0.6551  0.4092  0.5158
10107SOL     OW31740   1.079   1.113   1.738 -0.2435 -0.4068  0.0754
10107SOL    HW131741   1.010   1.102   1.803  0.0146  1.2569  0.6705
10107SOL    HW231742   1.079   1.206   1.718  0.3957 -0.7298 -1.5422
10108SOL     OW31743   2.415   8.192   6.486 -0.2058 -0.2452  0.0363
10108SOL    HW131744   2.407   8.229   6.574 -0.7182 -0.2801  0.0103
10108SOL    HW231745   2.437   8.266   6.430  0.9812 -0.3709  0.3196
10109SOL     OW31746   1.415   2.243   6.820 -0.3275 -0.4600 -0.1925
10109SOL    HW131747   1.469   2.210   6.748 -1.4705 -0.2314 -1.1948
10109SOL    HW231748   1.458   2.210   6.899  0.9534 -0.7316 -0.9702
10110SOL     OW31749   1.548   1.109   1.145  0.3828  0.2002  0.1748
10110SOL    HW131750   1.504   1.056   1.211  0.6333  0.5513  0.6242
10110SOL    HW231751   1.504   1.194   1.150  0.1289  0.1141 -0.3943
10111SOL     OW31752   2.675   5.282   1.627  0.2943  0.0449  0.1828
10111SOL    HW131753   2.580   5.273   1.634  0.1104 -1.2203 -2.4114
10111SOL    HW231754   2.688   5.362   1.577  0.4114 -0.8349 -1.2747
10112SOL     OW31755   2.436   2.421   3.537 -0.2005  0.4972 -0.3592
10112SOL    HW131756   2.485   2.503   3.529 -0.2868  0.8535  1.9730
10112SOL    HW231757   2.503   2.354   3.549 -0.1796  0.7269  0.9869
10113SOL     OW31758   2.157   8.033   1.071 -0.0651  0.2414  0.1996
10113SOL    HW131759   2.123   8.069   1.153 -1.3497 -1.1973  0.3548
10113SOL    HW231760   2.224   7.970   1.099 -0.9063 -0.6816  0.2372
10114SOL     OW31761   5.472   4.500   7.077  0.4086  0.3180 -0.6937
10114SOL    HW131762   5.477   4.500   7.173  0.5672 -0.6455 -0.6925
10114SOL    HW231763   5.530   4.571   7.050  0.1954  0.7378 -0.0740
10115SOL     OW31764   7.376   4.651   8.018  0.3365  0.0498 -0.0426
10115SOL    HW131765   7.357   4.740   7.989 -0.1061 -0.5218 -1.6313
10115SOL    HW231766   7.468   4.654   8.045  0.5248  0.8297 -0.7293
10116SOL     OW31767   0.039   3.956   4.380  0.2665 -0.2986 -0.8511
10116SOL    HW131768   0.047   4.051   4.371  0.4155 -0.3745 -1.6165
10116SOL    HW231769  -0.054   3.941   4.400  0.4229  0.0614  0.1980
10117SOL     OW31770   6.738   5.797   1.875  0.3396  0.0429  0.1388
10117SOL    HW131771   6.809   5.861   1.869 -1.4779  2.1027 -0.3580
10117SOL    HW231772   6.768   5.736   1.943  2.7842  0.5194 -0.3939
10118SOL     OW31773   2.426   7.542   7.507 -0.0064  0.3741  0.6851
10118SOL    HW131774   2.352   7.508   7.456 -0.2497 -0.1194  1.3482
10118SOL    HW231775   2.481   7.585   7.443  0.0899 -0.9247 -0.1434
10119SOL     OW31776   4.636   3.737   3.085 -0.1044  0.9714  0.4826
10119SOL    HW131777   4.591   3.820   3.102 -0.6297  0.6124  0.8812
10119SOL    HW231778   4.654   3.739   2.991 -0.0812  1.5511  0.4930
10120SOL     OW31779   0.647   7.270   0.298 -0.1285  0.6416 -0.2292
10120SOL    HW131780   0.571   7.260   0.240 -0.4503  0.6372  0.1884
10120SOL    HW231781   0.712   7.209   0.264 -1.2859 -1.3747  0.9962
10121SOL     OW31782   4.171   2.997   0.148  0.2031 -0.3069  0.2098
10121SOL    HW131783   4.195   3.067   0.208 -1.4971 -0.2867  0.9232
10121SOL    HW231784   4.253   2.952   0.129  1.0845  0.9441  0.9282
10122SOL     OW31785   3.667   4.265   1.745 -0.4420  0.1718  0.3405
10122SOL    HW131786   3.672   4.360   1.732 -0.5212  0.1467  0.1247
10122SOL    HW231787   3.574   4.249   1.761 -0.6637 -0.0540 -1.0801
10123SOL     OW31788   2.127   7.075   3.208  0.5479  0.0578 -0.6652
10123SOL    HW131789   2.072   7.071   3.130  0.5841  0.7814 -0.7388
10123SOL    HW231790   2.194   7.140   3.187 -0.3615  1.4499  0.5158
10124SOL     OW31791   4.197   5.439   0.885  0.1240  0.1797 -0.3167
10124SOL    HW131792   4.152   5.488   0.816 -1.0614  0.2542  0.4902
10124SOL    HW231793   4.136   5.440   0.959  0.8310 -1.0051  0.3037
10125SOL     OW31794   0.858   3.739   3.512 -0.1336  0.3653  0.2080
10125SOL    HW131795   0.833   3.812   3.568  0.9229  1.1751 -0.3374
10125SOL    HW231796   0.943   3.710   3.546  0.8370  1.2911 -1.3280
10126SOL     OW31797   0.034   3.883   1.955  0.4038 -0.2304 -0.7870
10126SOL    HW131798  -0.056   3.851   1.963  0.8435 -1.1229  1.0637
10126SOL    HW231799   0.073   3.869   2.041  2.2956  0.2556 -1.5044
10127SOL     OW31800   6.139   3.825   0.118  0.5490 -0.1326 -0.5516
10127SOL    HW131801   6.106   3.749   0.167 -0.5526  0.0461 -0.9729
10127SOL    HW231802   6.231   3.806   0.104  1.0480  0.0249  2.0096
10128SOL     OW31803   2.309   2.923   3.379 -0.2023  0.4667 -0.0912
10128SOL    HW131804   2.296   2.911   3.473 -1.7417  0.0684 -0.3216
10128SOL    HW231805   2.277   3.011   3.361 -1.4901 -0.0728 -0.4910
10129SOL     OW31806   1.056   2.166   5.769 -0.0872  0.1480 -0.6153
10129SOL    HW131807   1.123   2.122   5.716 -1.1970 -0.1678 -1.8034
10129SOL    HW231808   0.981   2.175   5.711 -1.0528  0.6135  0.6475
10130SOL     OW31809   2.559   6.748   8.222  0.2714  0.3037  0.5559
10130SOL    HW131810   2.646   6.782   8.201  0.5920  0.9722  2.6944
10130SOL    HW231811   2.506   6.770   8.146  1.9200  0.0012 -0.7420
10131SOL     OW31812   2.783   3.676   8.280  0.0817  0.6250 -0.3165
10131SOL    HW131813   2.795   3.719   8.195  0.9781  1.3236  0.1481
10131SOL    HW231814   2.851   3.610   8.284  3.2759  3.6642  1.7328
10132SOL     OW31815   2.552   2.754   2.802  0.3314  0.0844  0.0622
10132SOL    HW131816   2.613   2.680   2.794  1.6634  0.8138  2.6174
10132SOL    HW231817   2.601   2.821   2.848 -2.0133  1.1972  1.0904
10133SOL     OW31818   2.446   6.840   2.528 -0.5762 -0.2009 -0.0525
10133SOL    HW131819   2.494   6.772   2.575 -1.1754 -0.2061  0.5847
10133SOL    HW231820   2.364   6.848   2.577 -0.4862  1.0254 -0.0724
10134SOL     OW31821   5.334   7.512   0.981 -0.1683 -0.0633 -0.1816
10134SOL    HW131822   5.360   7.526   1.072 -0.9490 -0.0703  0.0494
10134SOL    HW231823   5.324   7.417   0.974 -1.3782  0.0197  0.1027
10135SOL     OW31824   7.375   6.480   5.330 -0.6795 -0.0252  0.1155
10135SOL    HW131825   7.421   6.486   5.413  2.4467  0.2461 -1.4996
10135SOL    HW231826   7.371   6.386   5.311 -0.4033 -0.0234  0.0530
10136SOL     OW31827   3.000   4.899   0.310  0.4993 -0.7981 -0.8465
10136SOL    HW131828   3.045   4.814   0.305  1.8031 -0.2278  0.3466
10136SOL    HW231829   2.949   4.895   0.391  1.7834  0.0589  0.0559
10137SOL     OW31830   4.784   3.720   3.860 -0.2805 -0.1179 -0.0077
10137SOL    HW131831   4.847   3.653   3.836  0.4518  0.5295  0.0746
10137SOL    HW231832   4.739   3.684   3.937  1.0028  0.0123  0.8442
10138SOL     OW31833   7.698   1.445   7.957 -0.2750  0.7128  0.1053
10138SOL    HW131834   7.643   1.420   7.883  0.0986  1.8422 -0.5826
10138SOL    HW231835   7.694   1.540   7.959  0.0393  0.7165  1.3067
10139SOL     OW31836   8.331   2.346   7.715  0.2658 -0.6204  0.9842
10139SOL    HW131837   8.337   2.417   7.779 -0.5470 -0.6011  1.0556
10139SOL    HW231838   8.314   2.390   7.632 -1.5833 -0.7615  1.2424
10140SOL     OW31839   2.577   4.637   2.100 -0.3283  0.1745  0.8951
10140SOL    HW131840   2.582   4.553   2.144  0.6565 -0.3543 -0.1935
10140SOL    HW231841   2.554   4.616   2.010 -1.7648  1.2027  0.9740
10141SOL     OW31842   8.005   6.299   4.646  1.0646 -0.1449  0.4882
10141SOL    HW131843   7.979   6.245   4.571 -1.3186 -0.5532  1.5196
10141SOL    HW231844   7.942   6.277   4.714  1.0073  2.7651  1.4915
10142SOL     OW31845   6.616   2.433   7.939 -0.1102 -0.5095  0.2253
10142SOL    HW131846   6.677   2.477   7.997  0.4504 -0.8568 -0.0916
10142SOL    HW231847   6.671   2.375   7.886 -0.7281 -0.9325  0.0351
10143SOL     OW31848   3.513   6.807   7.130 -0.0227  0.0097  0.1231
10143SOL    HW131849   3.531   6.823   7.223 -0.4076 -0.6519  0.3137
10143SOL    HW231850   3.573   6.867   7.084  1.0650 -0.5425  0.7743
10144SOL     OW31851   6.925   7.174   2.332  0.1867 -0.1525 -0.0647
10144SOL    HW131852   6.916   7.234   2.407 -1.4759 -2.4583  1.7521
10144SOL    HW231853   6.839   7.176   2.290  0.4045 -0.6009 -0.5278
10145SOL     OW31854   7.706   5.336   1.589 -0.0960 -0.4549  0.2904
10145SOL    HW131855   7.730   5.309   1.677  0.8181 -0.1439  0.1407
10145SOL    HW231856   7.787   5.328   1.538 -0.0183  1.6401  0.0181
10146SOL     OW31857   2.509   5.377   0.819  0.0122 -0.6836 -0.2722
10146SOL    HW131858   2.577   5.317   0.786  0.6666  0.3069 -0.7779
10146SOL    HW231859   2.437   5.368   0.757 -0.4878 -2.0272  0.4801
10147SOL     OW31860   6.692   5.199   7.967  0.0038 -0.2872 -0.2785
10147SOL    HW131861   6.736   5.137   8.025  0.9079  0.6981  0.1176
10147SOL    HW231862   6.640   5.255   8.026  0.8281  0.6380 -0.4060
10148SOL     OW31863   0.889   5.442   3.796  0.5787 -0.0485  0.3668
10148SOL    HW131864   0.947   5.371   3.821  1.3556  0.3491 -0.2836
10148SOL    HW231865   0.947   5.514   3.771 -0.1864  0.5000  0.1039
10149SOL     OW31866   5.353   7.802   4.444  0.5796 -0.0544 -0.0779
10149SOL    HW131867   5.277   7.855   4.469 -0.2373 -0.8502 -0.8419
10149SOL    HW231868   5.427   7.863   4.452 -0.1940  0.8930  0.1366
10150SOL     OW31869   2.508   2.764   1.984  0.6676 -0.4864  0.4683
10150SOL    HW131870   2.493   2.700   1.914 -1.7346 -0.7088  1.0971
10150SOL    HW231871   2.572   2.825   1.947  0.0048 -0.9894 -1.6593
10151SOL     OW31872   2.075   8.354   4.195 -0.5574 -0.2920  0.3066
10151SOL    HW131873   2.018   8.425   4.164  1.7365  1.6197  0.1346
10151SOL    HW231874   2.146   8.351   4.131 -0.3351 -2.4527  0.6085
10152SOL     OW31875   1.310   8.239   6.107  0.4979 -0.3252 -0.4868
10152SOL    HW131876   1.349   8.258   6.022 -1.6829  0.3150 -1.4053
10152SOL    HW231877   1.377   8.265   6.170  1.7777  0.1493 -1.9690
10153SOL     OW31878   7.984   0.061   1.638 -0.5322 -0.1040  0.0869
10153SOL    HW131879   7.948   0.147   1.659 -0.0779 -0.2059  1.3957
10153SOL    HW231880   8.075   0.066   1.666 -0.5858 -1.0981  0.4751
10154SOL     OW31881   3.429   7.628   5.894 -0.5432 -0.3347 -0.1723
10154SOL    HW131882   3.512   7.618   5.941 -0.1261 -1.6630 -1.1200
10154SOL    HW231883   3.445   7.701   5.834  0.0327 -0.7089 -0.4880
10155SOL     OW31884   4.452   0.187   4.891  0.3801 -0.1464  0.4001
10155SOL    HW131885   4.488   0.225   4.811 -1.2196  1.5945  0.4383
10155SOL    HW231886   4.480   0.247   4.961 -0.5000 -0.1186  0.7438
10156SOL     OW31887   2.089   6.559   5.453  0.3645 -0.0705  0.4036
10156SOL    HW131888   1.999   6.538   5.429  0.2544  0.4395  0.3496
10156SOL    HW231889   2.135   6.569   5.370  0.0359  1.4716  0.3810
10157SOL     OW31890   5.709   6.922   7.902  0.7198 -0.1990 -0.1294
10157SOL    HW131891   5.741   6.974   7.829  2.1119 -1.0489 -0.1770
10157SOL    HW231892   5.774   6.852   7.912 -0.9039 -1.7511  0.1276
10158SOL     OW31893   5.425   6.248   4.981 -0.3909  0.1225  0.7503
10158SOL    HW131894   5.379   6.240   4.897 -1.0259  0.2023  1.0838
10158SOL    HW231895   5.518   6.247   4.957 -0.4857 -2.2189  0.2528
10159SOL     OW31896   6.991   4.798   4.941 -0.0311 -0.5021  0.1864
10159SOL    HW131897   6.958   4.741   4.871 -0.4642  0.5024 -0.4510
10159SOL    HW231898   6.965   4.754   5.022  2.5548 -2.9472 -0.1494
10160SOL     OW31899   6.143   1.586   3.451 -0.1087 -0.1451  0.7560
10160SOL    HW131900   6.203   1.628   3.389 -1.3316  0.5829  0.0126
10160SOL    HW231901   6.199   1.538   3.510  1.1876  0.2361 -0.1207
10161SOL     OW31902   8.308   7.465   1.012 -0.0980 -0.3045 -0.8188
10161SOL    HW131903   8.278   7.556   1.005  0.7648  0.2280  1.5713
10161SOL    HW231904   8.254   7.417   0.950 -0.5084  1.8406 -2.2365
10162SOL     OW31905   8.269   6.601   8.130 -0.0044 -0.5243 -0.3012
10162SOL    HW131906   8.198   6.655   8.163  0.7557 -0.4909  1.3625
10162SOL    HW231907   8.338   6.609   8.196  1.0723 -1.5404 -1.2604
10163SOL     OW31908   7.243   2.127   1.757  0.0626  0.2083 -0.4506
10163SOL    HW131909   7.256   2.051   1.813 -1.0251 -0.4492 -1.0510
10163SOL    HW231910   7.330   2.149   1.725  0.6365  0.3272  1.1423
10164SOL     OW31911   1.855   0.116   6.276 -0.5018 -0.3321 -0.8074
10164SOL    HW131912   1.892   0.196   6.239  1.2163 -2.3388 -3.9414
10164SOL    HW231913   1.798   0.082   6.206 -2.0645 -1.3335  0.8686
10165SOL     OW31914   2.904   7.035   0.585 -0.1896 -0.5624  0.0368
10165SOL    HW131915   2.820   7.045   0.541 -0.2543 -1.7794 -0.1675
10165SOL    HW231916   2.893   6.958   0.640  0.7534 -0.6749  0.0902
10166SOL     OW31917   3.076   4.973   0.745  0.3213  0.6965  0.0917
10166SOL    HW131918   3.107   4.972   0.654  2.4916 -1.3619  0.7369
10166SOL    HW231919   3.062   5.065   0.765  0.9593  1.2863 -1.9652
10167SOL     OW31920   2.743   5.729   7.740 -0.0052 -0.3515  0.3510
10167SOL    HW131921   2.660   5.777   7.740 -0.6042 -1.3374 -0.2799
10167SOL    HW231922   2.757   5.706   7.831 -0.2299  0.1582  0.5173
10168SOL     OW31923   6.747   2.021   2.210  0.2700  0.0465 -0.5298
10168SOL    HW131924   6.693   2.072   2.149 -0.4826  1.9739  1.5916
10168SOL    HW231925   6.830   2.068   2.212  0.0198  0.4776  0.4572
10169SOL     OW31926   2.393   7.679   0.320  0.3757 -0.0170 -0.0646
10169SOL    HW131927   2.457   7.608   0.327  0.9367  0.6052  2.2781
10169SOL    HW231928   2.445   7.757   0.302  0.3410  0.4716  1.7250
10170SOL     OW31929   4.600   5.303   0.242  0.0417  0.0373 -0.8334
10170SOL    HW131930   4.550   5.286   0.322 -0.1184 -1.6628 -1.2682
10170SOL    HW231931   4.593   5.222   0.192  2.2005  0.1975 -1.4735
10171SOL     OW31932   0.864   7.774   0.271  0.5609 -0.0951 -0.5471
10171SOL    HW131933   0.795   7.711   0.249 -0.0506 -0.2830  1.6294
10171SOL    HW231934   0.836   7.855   0.228 -0.2119 -0.5526 -0.9524
10172SOL     OW31935   0.317   3.997   8.213 -0.1988  0.1519 -0.2819
10172SOL    HW131936   0.290   4.086   8.192  0.7732  0.4880 -0.1598
10172SOL    HW231937   0.366   4.005   8.295  0.1775 -0.4380 -0.4360
10173SOL     OW31938   7.128   7.355   5.801 -0.3049  0.5155  0.1789
10173SOL    HW131939   7.081   7.398   5.729 -1.8460  0.7400  1.2602
10173SOL    HW231940   7.106   7.407   5.878  0.7254 -0.1404  0.9290
10174SOL     OW31941   5.402   4.234   7.503  0.5120 -0.3248  0.5558
10174SOL    HW131942   5.356   4.201   7.580 -0.2740 -0.5559 -0.0007
10174SOL    HW231943   5.352   4.312   7.477  1.0437  0.0181  0.5566
10175SOL     OW31944   7.358   7.424   7.311  0.4995  0.0909 -0.0816
10175SOL    HW131945   7.377   7.428   7.405  2.0276  2.4228 -0.4235
10175SOL    HW231946   7.414   7.354   7.278  0.8924  0.1028  0.5493
10176SOL     OW31947   4.578   2.141   7.234  0.2644 -0.6029 -0.3010
10176SOL    HW131948   4.567   2.051   7.202  0.5598 -1.6607  2.2521
10176SOL    HW231949   4.672   2.157   7.226  0.3257 -0.8312 -0.0809
10177SOL     OW31950   3.346   7.492   3.032 -0.0549 -0.2509 -0.3993
10177SOL    HW131951   3.250   7.489   3.025 -0.3130  0.6884  1.8049
10177SOL    HW231952   3.370   7.577   2.997 -0.4682  1.0078  2.1389
10178SOL     OW31953   5.798   1.488   5.641 -0.2503 -0.9397 -0.4077
10178SOL    HW131954   5.853   1.518   5.713  0.1297  1.6921 -1.6842
10178SOL    HW231955   5.797   1.392   5.650  2.3725 -0.9133  1.1878
10179SOL     OW31956   7.876   4.940   0.322 -0.4410  0.0329 -0.0519
10179SOL    HW131957   7.794   4.985   0.302 -0.9919 -0.3143  1.3387
10179SOL    HW231958   7.854   4.880   0.394  0.9415 -0.3572  0.0735
10180SOL     OW31959   0.230   3.125   7.984  0.3395 -0.4169 -0.0967
10180SOL    HW131960   0.173   3.086   7.917 -0.2628 -1.5957  1.0567
10180SOL    HW231961   0.273   3.050   8.025  1.4937  0.3638  0.1492
10181SOL     OW31962   3.366   1.311   1.731 -0.2071  0.4182 -0.0435
10181SOL    HW131963   3.391   1.218   1.725 -0.9782  0.2352 -0.5182
10181SOL    HW231964   3.395   1.338   1.818 -0.0926 -0.3047  0.1516
10182SOL     OW31965   4.085   3.756   0.365  0.3807 -0.5904 -0.4021
10182SOL    HW131966   4.168   3.730   0.407  0.4519 -0.7486 -0.6369
10182SOL    HW231967   4.081   3.702   0.286  0.3087 -0.2018 -0.6645
10183SOL     OW31968   1.437   8.292   2.086 -0.0020  0.3460 -0.5860
10183SOL    HW131969   1.407   8.297   2.177 -1.5847  2.1571 -1.1267
10183SOL    HW231970   1.504   8.360   2.080 -0.8273  1.1491 -1.0386
10184SOL     OW31971   2.240   2.359   3.020 -0.0361 -0.1429 -0.7246
10184SOL    HW131972   2.278   2.352   3.107  0.3438 -0.1078 -0.8869
10184SOL    HW231973   2.301   2.413   2.970 -0.6509  0.5075 -0.7918
10185SOL     OW31974   4.913   7.375   6.613 -0.1655  0.0613 -0.2036
10185SOL    HW131975   5.001   7.354   6.645  0.0109  0.5974 -0.3199
10185SOL    HW231976   4.889   7.300   6.559  0.2462 -0.0665 -0.2154
10186SOL     OW31977   5.974   2.565   8.248 -0.0676 -0.1114 -0.3910
10186SOL    HW131978   6.008   2.630   8.187  1.0928 -1.7245 -1.5471
10186SOL    HW231979   5.963   2.613   8.331  0.3773  1.6125 -1.2829
10187SOL     OW31980   4.518   0.360   0.810  0.1650 -0.4223  0.0435
10187SOL    HW131981   4.467   0.430   0.771 -1.0143 -1.5988 -0.5873
10187SOL    HW231982   4.566   0.321   0.737  0.0672 -0.8945  0.2285
10188SOL     OW31983   1.266   1.359   7.508  0.2671  0.2063  0.1699
10188SOL    HW131984   1.203   1.429   7.492  1.5711  0.9892 -1.9854
10188SOL    HW231985   1.226   1.281   7.470  0.5712  0.7103 -1.2447
10189SOL     OW31986   0.874   0.392   6.417 -0.4946 -0.1995  0.1972
10189SOL    HW131987   0.806   0.386   6.484 -0.5829  0.1611  0.1409
10189SOL    HW231988   0.900   0.485   6.417  0.6688 -0.5014  0.8864
10190SOL     OW31989   7.202   0.784   4.612  0.0545 -0.1990  0.1252
10190SOL    HW131990   7.223   0.692   4.594 -0.9707 -0.1903 -1.3175
10190SOL    HW231991   7.212   0.827   4.527 -1.5463  0.6024  0.3149
10191SOL     OW31992   0.147   3.790   0.717 -0.3143 -0.6541 -0.2470
10191SOL    HW131993   0.078   3.746   0.766  0.6521 -1.1533  0.7164
10191SOL    HW231994   0.199   3.835   0.784  0.2819 -0.2641 -0.9504
10192SOL     OW31995   3.843   0.089   7.706  0.3812  0.3039 -0.2795
10192SOL    HW131996   3.925   0.099   7.658  0.4990 -0.8766 -0.3634
10192SOL    HW231997   3.870   0.070   7.796  0.1997  0.2138 -0.2434
10193SOL     OW31998   6.845   6.476   0.553 -0.5338  0.2593  0.0056
10193SOL    HW131999   6.935   6.493   0.525  0.3779 -2.9136  0.6123
10193SOL    HW232000   6.848   6.485   0.648 -1.6866  3.1014 -0.1313
10194SOL     OW32001   7.240   5.944   4.784 -0.3290 -0.1478 -0.4946
10194SOL    HW132002   7.185   5.867   4.772 -0.6691  0.2883 -1.8524
10194SOL    HW232003   7.300   5.920   4.855  0.1374 -1.9753 -1.4676
10195SOL     OW32004   0.090   5.172   4.575  0.2936 -0.9904 -0.4944
10195SOL    HW132005   0.155   5.102   4.572 -1.0762 -2.3639  0.1869
10195SOL    HW232006   0.098   5.209   4.663  0.7116 -0.5898 -0.6992
10196SOL     OW32007   6.751   7.640   4.367 -0.1650 -0.1350  0.0266
10196SOL    HW132008   6.750   7.550   4.336  0.5331 -0.2215  0.2461
10196SOL    HW232009   6.831   7.648   4.419 -0.4462  0.4850  0.3907
10197SOL     OW32010   0.814   1.937   0.780  0.0349 -0.0880  0.4652
10197SOL    HW132011   0.754   2.008   0.803 -0.2306  0.4619 -1.6636
10197SOL    HW232012   0.899   1.978   0.770  0.0634 -0.2154  0.1378
10198SOL     OW32013   7.671   2.468   7.492 -0.2675 -0.0364  0.7905
10198SOL    HW132014   7.684   2.561   7.508  0.8392  0.0153 -0.2322
10198SOL    HW232015   7.760   2.432   7.491 -0.6271 -0.9285  0.2164
10199SOL     OW32016   1.688   6.400   0.950 -0.5169 -0.0846 -0.1869
10199SOL    HW132017   1.757   6.450   0.906 -1.9464  0.5690 -1.7664
10199SOL    HW232018   1.641   6.356   0.879 -0.3730 -2.3682  1.0132
10200SOL     OW32019   7.168   6.680   7.183  0.4893 -0.0846 -0.2008
10200SOL    HW132020   7.142   6.596   7.222  0.7262 -0.8221 -1.5615
10200SOL    HW232021   7.115   6.687   7.104  0.1276  1.3036  0.1419
10201SOL     OW32022   5.900   3.871   7.966  0.3230  0.3807  0.2972
10201SOL    HW132023   5.863   3.946   7.920 -2.1338 -1.9610 -1.8573
10201SOL    HW232024   5.850   3.865   8.047 -2.0039 -0.8322 -1.1122
10202SOL     OW32025   0.058   7.025   4.993  0.0087  0.4444  0.5722
10202SOL    HW132026   0.049   7.119   5.005 -1.3085  0.4902 -0.6226
10202SOL    HW232027   0.129   7.016   4.929 -0.6371  0.6874 -0.1902
10203SOL     OW32028   8.060   4.380   6.807 -0.0128 -0.2288 -0.4827
10203SOL    HW132029   7.998   4.359   6.737 -0.1022 -0.2526 -0.3965
10203SOL    HW232030   8.143   4.346   6.775 -0.4516 -2.1944  0.3578
10204SOL     OW32031   5.480   1.324   5.917 -0.1054 -0.7324  0.1656
10204SOL    HW132032   5.390   1.292   5.909 -0.5445  0.3963  0.4657
10204SOL    HW232033   5.483   1.403   5.863  0.3873 -0.1161  1.0713
10205SOL     OW32034   3.439   2.883   6.670  0.6574 -0.0431  0.3595
10205SOL    HW132035   3.419   2.796   6.705 -1.4138  0.3283  0.1873
10205SOL    HW232036   3.356   2.916   6.636  1.7647  1.2712 -1.2770
10206SOL     OW32037   7.830   4.341   4.898 -0.0415 -1.0798  0.2347
10206SOL    HW132038   7.823   4.418   4.841  0.2651  0.0113  1.5962
10206SOL    HW232039   7.878   4.373   4.975 -2.4899 -1.7994  2.2115
10207SOL     OW32040   2.596   6.599   0.880  0.3837 -0.0420 -0.1747
10207SOL    HW132041   2.531   6.639   0.821 -1.0530 -0.9118  0.7488
10207SOL    HW232042   2.616   6.515   0.839 -2.4809 -1.7787  1.6614
10208SOL     OW32043   4.551   3.402   2.501  0.5023  0.5361  0.2609
10208SOL    HW132044   4.478   3.367   2.449 -0.3297  1.9317  0.4356
10208SOL    HW232045   4.540   3.361   2.587  1.3072 -1.0193 -0.3353
10209SOL     OW32046   4.776   4.248   6.477 -0.0868  0.2964 -0.9762
10209SOL    HW132047   4.865   4.225   6.504 -0.4101 -0.9280 -0.8703
10209SOL    HW232048   4.788   4.317   6.412  0.7367  3.1087  1.8786
10210SOL     OW32049   5.773   8.130   1.895  0.2827  0.4049  0.2894
10210SOL    HW132050   5.703   8.179   1.939  0.6829  0.0828  1.3240
10210SOL    HW232051   5.852   8.149   1.946  0.4814 -1.1540  0.6350
10211SOL     OW32052   7.826   0.232   7.813  0.9334 -0.2805  0.5110
10211SOL    HW132053   7.753   0.207   7.869  1.4159  1.2267  1.8873
10211SOL    HW232054   7.802   0.200   7.726 -1.9609  1.2108  0.6411
10212SOL     OW32055   8.050   2.949   3.056  0.2737  0.8174  0.1231
10212SOL    HW132056   8.021   3.028   3.102  0.6375  0.9922  0.0538
10212SOL    HW232057   8.112   2.908   3.116 -0.9483 -0.1622  0.7738
10213SOL     OW32058   6.403   6.018   1.516 -0.1048 -0.1237 -0.0349
10213SOL    HW132059   6.452   5.948   1.560 -1.2989 -0.4448  0.8365
10213SOL    HW232060   6.433   6.014   1.425  1.2105 -0.5339  0.3912
10214SOL     OW32061   0.990   5.629   5.757 -0.1631  0.7444  0.3951
10214SOL    HW132062   0.951   5.710   5.790 -1.6490 -0.0646  0.7008
10214SOL    HW232063   0.992   5.640   5.662  1.8767  2.0867  0.5328
10215SOL     OW32064   1.556   4.234   1.377  0.1535 -0.3747  0.1012
10215SOL    HW132065   1.460   4.236   1.381  0.0667 -0.5480 -1.4346
10215SOL    HW232066   1.576   4.152   1.332  0.9797  0.1642 -0.5377
10216SOL     OW32067   0.959   8.222   6.140  0.5422  0.1079  0.5934
10216SOL    HW132068   1.011   8.156   6.093 -1.2071 -1.1904  0.4088
10216SOL    HW232069   0.872   8.216   6.101 -0.6075 -0.0315  3.0400
10217SOL     OW32070   0.720   7.018   3.803  0.4733  0.3268  0.5798
10217SOL    HW132071   0.748   6.932   3.833  2.7022  1.5372  2.2459
10217SOL    HW232072   0.624   7.011   3.798  0.4785 -1.8010  2.0766
10218SOL     OW32073   6.369   2.739   2.772  0.2177 -0.9816 -0.4879
10218SOL    HW132074   6.454   2.757   2.731 -0.5859  0.4199 -1.6126
10218SOL    HW232075   6.354   2.814   2.829 -0.8042 -0.5999 -1.2311
10219SOL     OW32076   6.584   3.060   0.362  0.3382 -0.3454 -0.0516
10219SOL    HW132077   6.569   2.972   0.396  0.3513  0.4283  2.1095
10219SOL    HW232078   6.508   3.077   0.306 -0.1941 -1.3391  0.3413
10220SOL     OW32079   5.049   6.379   0.198 -0.2993  0.1016 -0.4778
10220SOL    HW132080   5.134   6.337   0.207  0.3917  1.7221  1.1491
10220SOL    HW232081   5.032   6.380   0.104  1.1037 -0.9023 -0.7712
10221SOL     OW32082   3.783   4.670   3.790  0.6337 -0.4309 -0.0732
10221SOL    HW132083   3.712   4.686   3.853  0.8067  0.4843 -0.0973
10221SOL    HW232084   3.764   4.582   3.755 -0.3223 -0.3282  0.1369
10222SOL     OW32085   3.846   1.923   4.127  0.3985 -0.2794 -0.1811
10222SOL    HW132086   3.860   1.951   4.218  1.6121  1.2514 -0.7911
10222SOL    HW232087   3.751   1.914   4.119  0.1816  0.7527  0.9216
10223SOL     OW32088   5.158   7.189   0.759  0.2322  0.6176 -0.2934
10223SOL    HW132089   5.065   7.177   0.738  0.0477 -0.1367  0.8263
10223SOL    HW232090   5.202   7.118   0.712 -0.1408 -0.8656  1.4655
10224SOL     OW32091   0.047   5.980   5.448 -0.4358 -0.1650 -0.6491
10224SOL    HW132092  -0.042   5.949   5.431 -1.2838  2.2988 -1.0881
10224SOL    HW232093   0.038   6.037   5.524  0.7330  0.3068 -0.8478
10225SOL     OW32094   4.898   0.500   8.235  0.0373 -0.1882 -0.5809
10225SOL    HW132095   4.863   0.589   8.236 -1.6317 -0.7977 -0.3931
10225SOL    HW232096   4.906   0.476   8.327 -2.4384 -1.2371 -0.5514
10226SOL     OW32097   5.332   4.679   1.009 -0.2020 -0.3636 -0.1116
10226SOL    HW132098   5.270   4.743   0.974  0.2241 -0.1374 -0.4608
10226SOL    HW232099   5.281   4.599   1.018 -0.5638 -0.1606 -0.3263
10227SOL     OW32100   0.687   5.225   3.615 -0.0270 -0.4463 -0.2186
10227SOL    HW132101   0.611   5.195   3.565 -0.3309  1.9843 -1.3964
10227SOL    HW232102   0.652   5.294   3.671  1.2878  0.8794 -0.9518
10228SOL     OW32103   1.108   3.979   2.021 -0.0335 -0.1564 -0.8038
10228SOL    HW132104   1.063   3.900   2.051  0.1605 -0.3805 -1.1012
10228SOL    HW232105   1.039   4.035   1.986 -0.5991  1.0180  1.9383
10229SOL     OW32106   0.216   6.212   5.928 -0.1369 -0.1208 -0.2403
10229SOL    HW132107   0.166   6.273   5.873  1.9375  0.7354 -1.2636
10229SOL    HW232108   0.241   6.141   5.869  0.5696 -0.1141  0.0420
10230SOL     OW32109   5.307   3.028   1.706 -0.0279 -0.3029  0.3881
10230SOL    HW132110   5.344   2.971   1.773 -0.4686 -1.9203 -0.7106
10230SOL    HW232111   5.379   3.087   1.682  0.9565 -1.5001  0.3315
10231SOL     OW32112   5.158   1.073   5.639  0.0193 -0.2578 -0.9416
10231SOL    HW132113   5.127   1.138   5.701 -2.1213 -0.5438 -1.6509
10231SOL    HW232114   5.080   1.045   5.591  1.0429 -2.4782 -1.4771
10232SOL     OW32115   3.394   1.019   7.677 -0.6229  0.0315  0.0991
10232SOL    HW132116   3.448   1.096   7.658 -0.1358 -0.0855  0.9797
10232SOL    HW232117   3.318   1.030   7.620  0.1525  0.3805 -0.9129
10233SOL     OW32118   2.253   3.561   7.679  0.0394  0.1488  0.0466
10233SOL    HW132119   2.244   3.627   7.748  0.0402  0.8832 -0.6458
10233SOL    HW232120   2.285   3.483   7.725  0.4588  0.7526  0.8076
10234SOL     OW32121   7.091   7.900   3.261  0.1334  0.2077 -0.7058
10234SOL    HW132122   7.100   7.924   3.353 -1.9689  1.3783 -0.7478
10234SOL    HW232123   7.012   7.846   3.257  0.6280 -0.4806 -1.7360
10235SOL     OW32124   0.955   6.581   2.387 -0.5838 -0.6660  0.4223
10235SOL    HW132125   0.938   6.519   2.458 -0.6831  0.3302  1.2880
10235SOL    HW232126   1.038   6.551   2.348 -0.5240 -1.2117  0.9612
10236SOL     OW32127   7.017   2.802   5.818 -0.1585  0.0177  0.2626
10236SOL    HW132128   6.947   2.797   5.883  0.6395 -1.2380  1.0874
10236SOL    HW232129   7.075   2.871   5.850 -1.3413  1.5676 -0.8068
10237SOL     OW32130   5.980   6.538   5.398  0.1753 -0.2929 -0.2524
10237SOL    HW132131   6.032   6.615   5.373 -1.1479  0.4281 -0.8526
10237SOL    HW232132   6.024   6.504   5.476  0.1766  1.7119  0.6734
10238SOL     OW32133   5.976   3.284   8.322  0.0387 -0.0753 -0.2408
10238SOL    HW132134   5.887   3.297   8.289 -1.0228 -2.0190  1.6605
10238SOL    HW232135   5.991   3.359   8.379 -0.6044 -0.0302 -0.1230
10239SOL     OW32136   0.338   2.401   5.323  0.0510  0.0838 -0.4052
10239SOL    HW132137   0.266   2.403   5.387  0.2088 -2.8013 -0.0361
10239SOL    HW232138   0.406   2.348   5.364  1.6873  1.2077 -1.5255
10240SOL     OW32139   3.742   4.790   7.520  0.4257  0.2689  0.6213
10240SOL    HW132140   3.815   4.747   7.565 -0.5017 -1.6913  0.3371
10240SOL    HW232141   3.680   4.812   7.589  0.4297  0.1838  0.6519
10241SOL     OW32142   5.803   7.803   1.271 -0.3294 -0.8009  0.6906
10241SOL    HW132143   5.752   7.853   1.335 -0.6745 -0.2229 -0.0243
10241SOL    HW232144   5.842   7.732   1.322 -2.2005 -1.5240  1.1680
10242SOL     OW32145   1.175   6.446   4.736 -0.2115 -0.2209  0.2123
10242SOL    HW132146   1.246   6.381   4.740 -0.7286 -0.8809 -0.9967
10242SOL    HW232147   1.166   6.476   4.827 -0.2724 -2.1897  0.9123
10243SOL     OW32148   7.591   3.253   7.071 -0.1775  0.1160  0.4329
10243SOL    HW132149   7.648   3.277   6.998 -0.3926  1.6487  0.7371
10243SOL    HW232150   7.514   3.309   7.062 -0.3728  0.0725  1.6339
10244SOL     OW32151   6.777   2.340   8.166  0.2337  0.1493 -0.2430
10244SOL    HW132152   6.838   2.281   8.123  0.1331  1.0930 -1.7518
10244SOL    HW232153   6.744   2.290   8.241  2.0074 -0.7693 -0.0236
10245SOL     OW32154   1.106   7.963   4.478  0.2746 -0.1352  0.4551
10245SOL    HW132155   1.115   8.025   4.406  0.9279  0.9340  1.4003
10245SOL    HW232156   1.024   7.987   4.520 -0.5143 -1.2792 -0.3736
10246SOL     OW32157   6.396   1.155   2.102  0.3520 -0.5136 -0.0026
10246SOL    HW132158   6.415   1.156   2.008 -1.0600  1.4776 -0.3568
10246SOL    HW232159   6.321   1.214   2.111 -0.3434 -1.6334  2.2343
10247SOL     OW32160   7.538   1.465   2.949 -0.6645 -0.8396  0.7746
10247SOL    HW132161   7.587   1.395   2.993  0.8006 -0.9704 -0.9615
10247SOL    HW232162   7.530   1.435   2.858 -1.0602  0.7065  0.2756
10248SOL     OW32163   0.557   6.620   0.153  0.9630 -0.1526  0.2486
10248SOL    HW132164   0.514   6.700   0.121  1.5131 -0.0620 -0.2934
10248SOL    HW232165   0.551   6.559   0.079  2.6955  0.2283 -0.2427
10249SOL     OW32166   7.542   7.901   1.398 -0.6442  0.5535 -0.7883
10249SOL    HW132167   7.549   7.925   1.306  1.8027 -1.0968 -1.1125
10249SOL    HW232168   7.572   7.979   1.446 -1.5968  1.2951 -1.3619
10250SOL     OW32169   2.075   7.902   2.031  0.3445  0.1485 -0.6444
10250SOL    HW132170   1.989   7.877   1.999  0.1784  0.3557 -0.3583
10250SOL    HW232171   2.136   7.843   1.985 -0.0834 -1.3027  0.5889
10251SOL     OW32172   8.103   4.647   6.772  0.1804 -0.4510  0.0171
10251SOL    HW132173   8.097   4.553   6.789  0.9586 -0.2508  1.5783
10251SOL    HW232174   8.127   4.653   6.679  0.5690 -1.8091  0.0047
10252SOL     OW32175   6.093   6.542   5.863  0.0631 -0.0991  0.2133
10252SOL    HW132176   6.100   6.479   5.934 -1.1745  0.5113  0.9226
10252SOL    HW232177   6.080   6.626   5.907  0.7497  0.5115 -0.7229
10253SOL     OW32178   7.762   2.032   1.680  0.6205  0.0806 -0.1538
10253SOL    HW132179   7.753   2.000   1.590  1.3308 -0.1040 -0.1682
10253SOL    HW232180   7.802   2.118   1.670 -2.3747  1.5815 -0.1848
10254SOL     OW32181   5.739   4.806   4.143 -0.4065  0.1888 -0.0666
10254SOL    HW132182   5.657   4.845   4.113  0.7337  1.2836 -2.0139
10254SOL    HW232183   5.716   4.717   4.167 -2.1154  0.3590 -0.8993
10255SOL     OW32184   6.632   5.809   4.926  0.4214 -0.0561 -0.0902
10255SOL    HW132185   6.671   5.894   4.905 -1.2938  0.6403 -0.6227
10255SOL    HW232186   6.599   5.777   4.842 -3.6926  1.2783  0.7869
10256SOL     OW32187   8.263   1.294   3.926 -0.2079 -0.4003 -0.3759
10256SOL    HW132188   8.210   1.283   4.005 -0.2193 -0.9608 -0.4585
10256SOL    HW232189   8.319   1.369   3.945 -0.1874 -0.5498  0.1780
10257SOL     OW32190   7.953   0.598   0.964  0.1827  0.5976  0.3175
10257SOL    HW132191   7.947   0.688   0.998 -1.0155  0.9684 -0.7906
10257SOL    HW232192   7.864   0.578   0.934  0.3744 -1.0521  0.7257
10258SOL     OW32193   3.014   6.869   5.091  0.3168 -0.3736  0.2097
10258SOL    HW132194   2.965   6.849   5.011  0.5781  0.7656 -0.2550
10258SOL    HW232195   3.098   6.824   5.080  0.3266 -0.2714 -0.1285
10259SOL     OW32196   4.581   2.742   5.360 -0.2763  0.4584 -0.1016
10259SOL    HW132197   4.641   2.710   5.292 -0.8199 -0.7118 -0.0478
10259SOL    HW232198   4.589   2.678   5.431  1.6925  2.6174  1.8103
10260SOL     OW32199   2.983   2.131   6.482 -0.2308  0.8017  0.1102
10260SOL    HW132200   3.019   2.208   6.439  2.9234 -0.4186  0.2610
10260SOL    HW232201   2.891   2.130   6.458  0.2950  2.9436 -2.3834
10261SOL     OW32202   7.833   4.428   3.401  0.1260  0.8349 -0.2703
10261SOL    HW132203   7.760   4.367   3.391  0.8860 -0.3743  1.0915
10261SOL    HW232204   7.884   4.392   3.473  1.7047  2.0124 -0.7378
10262SOL     OW32205   8.111   5.721   1.792 -0.0248 -0.1311  0.2753
10262SOL    HW132206   8.137   5.645   1.844 -2.9665 -1.3361  0.1866
10262SOL    HW232207   8.156   5.795   1.833  0.0312 -1.4320  2.7085
10263SOL     OW32208   7.851   0.021   6.682 -0.0717  0.4840  0.5103
10263SOL    HW132209   7.799   0.087   6.728 -0.9530 -0.0501  0.3251
10263SOL    HW232210   7.866   0.058   6.595 -0.0515  0.6882  0.6010
10264SOL     OW32211   0.640   4.898   3.451 -0.7316  0.1312  0.3782
10264SOL    HW132212   0.578   4.971   3.458  0.9578  2.0119 -2.1482
10264SOL    HW232213   0.689   4.900   3.533  0.3233  3.0012 -0.1955
10265SOL     OW32214   3.263   2.169   3.625  0.3592  0.4532 -0.0577
10265SOL    HW132215   3.346   2.121   3.630  1.6033  2.4736 -0.2376
10265SOL    HW232216   3.226   2.161   3.713 -0.4296 -2.3101 -0.5331
10266SOL     OW32217   5.356   3.694   5.131 -0.4613  0.0184 -0.2798
10266SOL    HW132218   5.369   3.740   5.049 -1.1489  1.3549  0.3271
10266SOL    HW232219   5.273   3.649   5.121 -0.5545  0.1970 -0.3183
10267SOL     OW32220   6.788   6.393   7.300 -0.4285 -0.1696  0.0225
10267SOL    HW132221   6.708   6.398   7.247  0.1026 -0.0449 -0.7817
10267SOL    HW232222   6.791   6.476   7.347 -2.1400 -1.1770  2.1158
10268SOL     OW32223   1.980   7.056   7.349 -0.4883 -0.3863 -0.5545
10268SOL    HW132224   1.979   7.125   7.283  0.6284 -0.5604 -0.7785
10268SOL    HW232225   2.061   7.008   7.332 -0.5326 -0.8680  0.5079
10269SOL     OW32226   8.055   0.282   3.857  0.3066 -0.3290  0.0633
10269SOL    HW132227   7.971   0.248   3.825  0.4016 -1.7879  1.2527
10269SOL    HW232228   8.031   0.355   3.913 -0.1566 -0.5439  0.1557
10270SOL     OW32229   7.070   0.453   1.056  0.0078 -0.1116 -0.1073
10270SOL    HW132230   7.077   0.501   1.138 -1.2652  0.5496 -0.3662
10270SOL    HW232231   7.126   0.376   1.068  0.5527  0.4468  1.0248
10271SOL     OW32232   7.555   7.678   2.359 -0.7771  0.0424  0.1394
10271SOL    HW132233   7.502   7.702   2.435  1.0369 -0.6446  1.6876
10271SOL    HW232234   7.581   7.762   2.320 -1.4626  0.3981  0.4276
10272SOL     OW32235   6.055   0.827   6.576  0.0122 -0.0204  0.8000
10272SOL    HW132236   6.133   0.867   6.537 -0.6631  0.3443 -0.2098
10272SOL    HW232237   6.074   0.734   6.578  0.5080  0.0757  0.6418
10273SOL     OW32238   1.693   1.552   3.948  0.0192 -0.1109  0.3269
10273SOL    HW132239   1.714   1.644   3.967 -0.0054 -0.4505  2.1926
10273SOL    HW232240   1.721   1.540   3.857 -0.4173  1.8613 -0.1359
10274SOL     OW32241   4.128   2.735   6.494  0.1993  0.6707  0.4031
10274SOL    HW132242   4.156   2.679   6.421  2.4477  1.0761  0.8940
10274SOL    HW232243   4.155   2.689   6.573  1.4553  2.0752  0.8399
10275SOL     OW32244   7.588   3.532   2.525  0.1788  0.0786  0.0426
10275SOL    HW132245   7.648   3.608   2.526  1.2435 -0.7395  0.4320
10275SOL    HW232246   7.619   3.480   2.451 -1.8797  1.0130 -1.5694
10276SOL     OW32247   4.639   0.293   5.396  0.2082 -0.3094 -0.0820
10276SOL    HW132248   4.691   0.323   5.322  0.4586  0.1623  0.2805
10276SOL    HW232249   4.551   0.279   5.360  0.1640  0.5570 -0.3314
10277SOL     OW32250   4.181   0.533   7.927 -0.3260 -0.4187 -0.5142
10277SOL    HW132251   4.274   0.542   7.944 -0.4425 -1.1662  0.6887
10277SOL    HW232252   4.168   0.569   7.839  0.6906  1.9197  0.2255
10278SOL     OW32253   8.287   2.360   4.578  0.1511  0.5704  0.2668
10278SOL    HW132254   8.281   2.280   4.527  0.2250 -0.4343  1.7901
10278SOL    HW232255   8.203   2.404   4.563  0.4298  0.6545 -1.2297
10279SOL     OW32256   5.085   7.393   2.469  0.2909 -0.2928 -0.2197
10279SOL    HW132257   5.123   7.346   2.395  0.0437 -0.8007 -0.0257
10279SOL    HW232258   5.156   7.450   2.500  0.8662 -1.1414  0.0635
10280SOL     OW32259   1.756   3.151   2.864  0.1280 -0.2409 -0.3614
10280SOL    HW132260   1.760   3.214   2.792  2.5885  0.2995  0.1662
10280SOL    HW232261   1.700   3.193   2.929 -1.0233 -0.1390 -1.3932
10281SOL     OW32262   3.670   3.379   6.530 -0.3536  0.1171 -0.3304
10281SOL    HW132263   3.723   3.307   6.566 -0.9655  0.2157  0.7954
10281SOL    HW232264   3.729   3.454   6.531 -0.7565  0.4538  1.8029
10282SOL     OW32265   7.711   0.371   3.483  0.5688 -0.8612  0.3282
10282SOL    HW132266   7.734   0.414   3.400  0.7288  0.6432  1.1179
10282SOL    HW232267   7.615   0.371   3.483  0.3469  3.4186  2.1045
10283SOL     OW32268   3.193   2.715   4.311  0.8121 -0.1313  0.2386
10283SOL    HW132269   3.193   2.795   4.259 -0.7472 -0.7018 -0.7250
10283SOL    HW232270   3.101   2.691   4.318  0.9391 -0.0666  3.4075
10284SOL     OW32271   7.176   1.828   0.593 -0.1279  0.0153 -0.2507
10284SOL    HW132272   7.183   1.773   0.671  1.2080  1.1211  0.4609
10284SOL    HW232273   7.096   1.878   0.605 -0.0054  0.0718  0.3534
10285SOL     OW32274   6.670   8.191   3.406 -0.5931  0.2463 -0.0810
10285SOL    HW132275   6.608   8.119   3.423  0.2029 -0.3986  0.1412
10285SOL    HW232276   6.614   8.267   3.394 -1.4045  0.2769  2.9078
10286SOL     OW32277   6.219   6.270   4.171  0.2032 -0.2917  0.0288
10286SOL    HW132278   6.169   6.318   4.237  1.3347  1.2992 -0.2140
10286SOL    HW232279   6.281   6.218   4.222 -1.2451 -1.8160  0.3063
10287SOL     OW32280   0.395   2.051   6.858 -0.1041 -0.2731 -0.1997
10287SOL    HW132281   0.443   1.970   6.841 -0.5803 -0.7636  0.7066
10287SOL    HW232282   0.303   2.025   6.857 -0.3477  0.5907 -1.5629
10288SOL     OW32283   1.524   5.212   4.270  0.2127  0.1597 -0.2657
10288SOL    HW132284   1.515   5.249   4.358 -1.5140 -0.3569 -0.1869
10288SOL    HW232285   1.484   5.125   4.276 -0.1281  0.1971 -1.6052
10289SOL     OW32286   5.938   3.047   0.246  0.0196 -0.3735  0.0753
10289SOL    HW132287   5.882   3.079   0.176 -0.0330 -1.7927 -0.5637
10289SOL    HW232288   5.880   3.037   0.321  0.3250  2.4498  0.8194
10290SOL     OW32289   8.118   4.106   8.122  0.1209  0.4476  0.2956
10290SOL    HW132290   8.190   4.121   8.183  1.4246 -1.8941 -0.5162
10290SOL    HW232291   8.160   4.106   8.036 -0.6957 -1.5156 -0.1609
10291SOL     OW32292   6.561   0.769   2.219 -0.4068 -0.4570  0.3079
10291SOL    HW132293   6.549   0.687   2.170  2.0325 -1.3828  1.0919
10291SOL    HW232294   6.655   0.772   2.237 -0.7242  1.5872  1.9534
10292SOL     OW32295   3.301   0.938   5.840 -0.3416  0.1447  0.2218
10292SOL    HW132296   3.351   0.995   5.783 -0.7807  0.3074 -0.0055
10292SOL    HW232297   3.218   0.983   5.853 -1.8222 -1.6463 -2.1729
10293SOL     OW32298   6.547   6.716   2.138  0.3817 -0.3836  0.0371
10293SOL    HW132299   6.641   6.702   2.124  0.5919 -0.0767  1.0385
10293SOL    HW232300   6.534   6.697   2.231 -1.0212 -2.8835 -0.5877
10294SOL     OW32301   4.873   8.103   0.644  0.0025  0.4874 -0.3865
10294SOL    HW132302   4.953   8.056   0.665  0.0105 -0.7175 -2.7765
10294SOL    HW232303   4.898   8.195   0.649  1.0683  0.1783  0.5013
10295SOL     OW32304   8.138   2.670   1.898 -0.3209  0.7959 -0.2298
10295SOL    HW132305   8.124   2.682   1.992 -0.6097  0.2672 -0.1995
10295SOL    HW232306   8.216   2.721   1.879 -0.5937  1.3839  0.1845
10296SOL     OW32307   0.623   2.773   5.539 -0.3378 -0.2855  0.5808
10296SOL    HW132308   0.615   2.830   5.616  0.8622 -1.3070  1.5217
10296SOL    HW232309   0.691   2.710   5.564  0.0663 -0.6571 -1.3322
10297SOL     OW32310   3.015   4.193   8.355 -0.3231  0.2426  0.2987
10297SOL    HW132311   3.082   4.262   8.358  1.7494 -1.6864  3.2293
10297SOL    HW232312   3.055   4.122   8.305 -0.7802 -0.3500  0.7547
10298SOL     OW32313   6.938   3.973   5.235  0.7966 -0.0433  0.0842
10298SOL    HW132314   6.927   4.066   5.214 -1.4553 -0.1411  0.6145
10298SOL    HW232315   6.869   3.929   5.186  1.7935 -1.4594 -0.1044
10299SOL     OW32316   4.277   7.932   2.472 -0.0162 -0.2495  0.6210
10299SOL    HW132317   4.213   7.889   2.415  1.2224  1.5007 -2.2939
10299SOL    HW232318   4.362   7.904   2.438  0.7731  1.1491  1.3758
10300SOL     OW32319   1.802   7.103   6.440  0.0058  0.1690 -0.4264
10300SOL    HW132320   1.840   7.123   6.354 -0.3344 -1.3524 -0.9654
10300SOL    HW232321   1.872   7.060   6.488  0.0011  0.4526 -0.1623
10301SOL     OW32322   4.772   3.383   4.748 -1.1329 -0.1765  0.4528
10301SOL    HW132323   4.690   3.413   4.787 -1.3860  0.1579 -0.3210
10301SOL    HW232324   4.774   3.289   4.767 -2.4601 -0.5022 -0.8126
10302SOL     OW32325   8.136   1.493   4.493 -0.6310 -0.1941 -0.2085
10302SOL    HW132326   8.130   1.505   4.588  0.4130  0.2134 -0.1774
10302SOL    HW232327   8.114   1.578   4.457  0.2987  0.0349 -0.2637
10303SOL     OW32328   1.259   4.874   5.319 -0.3723 -0.3401 -0.4628
10303SOL    HW132329   1.317   4.804   5.349 -0.0825  0.2672  0.4372
10303SOL    HW232330   1.184   4.871   5.379  0.0675  0.6955  0.1624
10304SOL     OW32331   4.196   5.614   5.200 -0.2492 -0.2414  0.2055
10304SOL    HW132332   4.146   5.676   5.147 -0.4191 -1.9854 -1.7630
10304SOL    HW232333   4.287   5.631   5.178 -0.2009  0.2443  0.7561
10305SOL     OW32334   1.736   1.535   5.033 -0.1502 -0.0228  0.1548
10305SOL    HW132335   1.721   1.612   4.978 -1.1424  0.1979  0.6954
10305SOL    HW232336   1.816   1.555   5.081 -0.7088  0.9527  0.7242
10306SOL     OW32337   2.134   3.075   5.885  0.0240 -0.0296 -0.1604
10306SOL    HW132338   2.103   2.988   5.859 -0.7282  0.4918 -1.1121
10306SOL    HW232339   2.065   3.110   5.941  0.4292 -0.1225  0.4071
10307SOL     OW32340   5.021   5.605   1.858  0.3572  0.0878  0.0137
10307SOL    HW132341   5.041   5.560   1.941 -2.0053  1.4149  1.4139
10307SOL    HW232342   5.088   5.674   1.852  0.6441 -0.1170  0.7322
10308SOL     OW32343   7.451   7.636   1.064 -0.4461  0.5067 -0.2699
10308SOL    HW132344   7.482   7.721   1.034 -2.4684  0.7897 -1.7064
10308SOL    HW232345   7.356   7.643   1.065 -0.6533 -1.5804  0.0304
10309SOL     OW32346   6.212   4.316   0.183  0.3066 -0.3224 -0.1361
10309SOL    HW132347   6.183   4.381   0.118  0.2117  1.4853  1.5950
10309SOL    HW232348   6.196   4.359   0.267  1.6027 -2.0734  1.0612
10310SOL     OW32349   6.326   5.235   7.838  0.4486 -0.0132 -0.4109
10310SOL    HW132350   6.291   5.177   7.771  1.2159  0.6223 -1.3856
10310SOL    HW232351   6.302   5.323   7.809  0.1309  0.2284  0.5513
10311SOL     OW32352   2.164   4.386   1.253  0.4164 -0.2359 -1.0046
10311SOL    HW132353   2.206   4.317   1.304  0.9787 -0.2896 -1.5280
10311SOL    HW232354   2.193   4.467   1.296 -0.0711 -0.3121 -0.5223
10312SOL     OW32355   7.744   4.075   2.228 -0.3785  0.0041  0.1108
10312SOL    HW132356   7.729   4.161   2.267 -1.6248 -0.1642  0.0610
10312SOL    HW232357   7.838   4.071   2.212 -0.4208  1.7670 -0.8361
10313SOL     OW32358   6.228   6.631   2.180 -0.0351  0.3693 -0.1374
10313SOL    HW132359   6.305   6.592   2.221  1.0012  1.7189 -0.7588
10313SOL    HW232360   6.155   6.601   2.234  0.7094 -2.2113 -0.4282
10314SOL     OW32361   6.942   1.088   2.414 -0.0409 -0.2202 -0.2722
10314SOL    HW132362   6.968   1.165   2.465 -2.2892  0.7461 -0.4608
10314SOL    HW232363   6.962   1.111   2.323 -0.0922 -0.1388 -0.2628
10315SOL     OW32364   7.019   5.372   2.555 -0.4950 -0.0762  0.0962
10315SOL    HW132365   6.950   5.412   2.608 -0.6641  1.6080 -1.3062
10315SOL    HW232366   6.987   5.379   2.465  0.1101 -2.2031 -0.3484
10316SOL     OW32367   1.863   8.129   5.208  0.3736  0.1717 -0.4026
10316SOL    HW132368   1.873   8.102   5.299  0.6661 -2.0766 -1.0509
10316SOL    HW232369   1.944   8.177   5.188  1.9203 -2.2917 -0.4024
10317SOL     OW32370   1.527   4.631   0.225  0.5862 -0.3397 -0.3805
10317SOL    HW132371   1.455   4.590   0.178 -0.0007  0.9858 -0.6892
10317SOL    HW232372   1.590   4.655   0.157  0.8285 -0.5361 -0.2280
10318SOL     OW32373   6.590   7.595   4.689  0.0424  0.0778 -0.1743
10318SOL    HW132374   6.574   7.647   4.768  0.4674  0.0607 -0.0754
10318SOL    HW232375   6.535   7.635   4.623 -1.6453 -0.9566  0.5394
10319SOL     OW32376   6.538   5.020   7.002 -0.2388  0.5491  0.3744
10319SOL    HW132377   6.516   5.066   6.921  1.4069  1.1680  0.2385
10319SOL    HW232378   6.570   5.089   7.061  1.6976 -0.2710  0.3838
10320SOL     OW32379   6.932   2.918   6.381  0.0964  0.4722 -0.0915
10320SOL    HW132380   6.971   2.862   6.313 -1.5464 -0.3897 -0.3675
10320SOL    HW232381   7.000   2.924   6.449  1.1999  0.1214 -1.1196
10321SOL     OW32382   6.595   0.193   6.000  0.4258  0.0889 -0.0099
10321SOL    HW132383   6.572   0.102   6.020  0.4950 -0.0801 -0.6824
10321SOL    HW232384   6.512   0.240   6.003  0.1809 -0.2592 -1.0413
10322SOL     OW32385   7.041   6.593   0.295  0.1707  0.3559  0.3061
10322SOL    HW132386   7.095   6.612   0.371 -0.7888  0.2033  1.0539
10322SOL    HW232387   7.071   6.508   0.263  1.5027  1.0451 -0.3461
10323SOL     OW32388   7.438   3.232   3.854  0.3667 -0.1649  0.3215
10323SOL    HW132389   7.425   3.290   3.929  0.6488  0.6492 -0.2475
10323SOL    HW232390   7.433   3.290   3.778 -0.9573 -1.1282 -0.3733
10324SOL     OW32391   6.812   5.870   1.000  0.2590  0.5672 -0.3562
10324SOL    HW132392   6.869   5.914   0.936 -0.3283  1.7040 -0.1200
10324SOL    HW232393   6.831   5.777   0.989  2.1236  0.9026 -0.3299
10325SOL     OW32394   2.300   5.337   0.652  0.5435  0.0366  0.5189
10325SOL    HW132395   2.320   5.368   0.564  1.0699 -0.4028  0.4773
10325SOL    HW232396   2.226   5.277   0.641 -0.0520  0.7497  0.5164
10326SOL     OW32397   1.648   7.175   2.087 -0.5194 -0.1115 -0.5072
10326SOL    HW132398   1.671   7.263   2.117 -0.4995 -0.3925  0.3274
10326SOL    HW232399   1.599   7.138   2.160  0.3101 -1.1372 -0.4533
10327SOL     OW32400   5.511   3.169   4.923  0.0427 -0.5013  0.0186
10327SOL    HW132401   5.462   3.099   4.879 -1.5682  1.6377 -1.8140
10327SOL    HW232402   5.602   3.156   4.894 -0.2002 -1.8434 -0.2266
10328SOL     OW32403   1.670   6.528   3.514  0.4164  0.2311  0.0766
10328SOL    HW132404   1.656   6.619   3.542  0.6204 -0.0032  0.9653
10328SOL    HW232405   1.670   6.478   3.595  1.1337 -0.4635 -0.3438
10329SOL     OW32406   1.435   6.175   1.676 -0.2021 -0.1588 -0.0643
10329SOL    HW132407   1.382   6.252   1.654 -1.8892 -0.9224  1.1288
10329SOL    HW232408   1.391   6.102   1.632  2.3912 -0.3135 -2.7008
10330SOL     OW32409   8.067   5.539   1.998 -0.3398  0.6064  0.3176
10330SOL    HW132410   8.136   5.473   1.997 -1.2676 -0.3865 -1.3591
10330SOL    HW232411   8.004   5.507   2.063 -1.6657 -1.1973 -1.7168
10331SOL     OW32412   1.617   3.175   1.104 -0.2719  0.7815 -0.3707
10331SOL    HW132413   1.676   3.186   1.030 -1.7279 -0.1666 -1.7193
10331SOL    HW232414   1.658   3.226   1.174  1.7921  0.6863 -1.4235
10332SOL     OW32415   2.421   3.890   1.873  0.2017  0.0073 -0.1300
10332SOL    HW132416   2.346   3.923   1.922  0.3808 -0.9902  0.8465
10332SOL    HW232417   2.497   3.931   1.916  0.3930 -1.2350  0.7902
10333SOL     OW32418   5.523   0.402   3.694  0.0042 -0.9320  0.2909
10333SOL    HW132419   5.559   0.387   3.606 -0.2387 -0.2088  0.0564
10333SOL    HW232420   5.597   0.389   3.753  0.0138 -2.1139  0.0439
10334SOL     OW32421   3.677   4.035   3.233 -0.2200 -0.0332  0.6337
10334SOL    HW132422   3.747   4.084   3.276 -0.4931 -0.6899  1.8897
10334SOL    HW232423   3.649   4.090   3.160  2.0319 -0.0318 -0.3066
10335SOL     OW32424   7.670   0.120   1.710  0.1628  0.3150 -0.3134
10335SOL    HW132425   7.743   0.145   1.654  1.2164  1.5227  1.4855
10335SOL    HW232426   7.598   0.176   1.682  0.7229  1.0272 -0.3516
10336SOL     OW32427   0.886   3.086   6.198 -0.3492  0.3035  0.1081
10336SOL    HW132428   0.843   3.002   6.181  1.0477 -0.7709  1.5716
10336SOL    HW232429   0.979   3.069   6.180 -0.1559  1.8074 -0.4327
10337SOL     OW32430   1.782   5.552   0.075 -0.5944 -0.2671 -0.0702
10337SOL    HW132431   1.723   5.571   0.148 -1.1187 -0.2614 -0.4884
10337SOL    HW232432   1.736   5.584  -0.002 -0.3323 -0.8518 -0.4785
10338SOL     OW32433   5.988   4.372   6.699  0.7537 -0.0356  0.5351
10338SOL    HW132434   6.071   4.411   6.672  0.0831  0.4547 -0.9113
10338SOL    HW232435   5.943   4.443   6.744  0.4442  0.2160 -0.1556
10339SOL     OW32436   0.950   4.583   6.095 -0.7708 -0.0041 -0.1335
10339SOL    HW132437   0.899   4.649   6.141 -1.1715 -0.2941 -0.1546
10339SOL    HW232438   0.989   4.630   6.021  1.5105  0.9558  1.5375
10340SOL     OW32439   8.159   5.424   8.312 -0.2299 -0.1455 -0.4150
10340SOL    HW132440   8.089   5.362   8.331 -1.3943  0.8893 -1.1587
10340SOL    HW232441   8.172   5.418   8.217  0.6597 -0.2803 -0.2954
10341SOL     OW32442   0.073   7.198   0.993  0.1725 -0.0706 -0.4833
10341SOL    HW132443   0.043   7.130   1.054  0.3677  1.0183  0.8771
10341SOL    HW232444   0.039   7.280   1.030  1.2028  0.7358 -1.2701
10342SOL     OW32445   4.515   2.989   2.175  0.2233  0.0112 -0.3230
10342SOL    HW132446   4.588   3.025   2.226 -1.6042  0.7998  1.9183
10342SOL    HW232447   4.500   2.902   2.212 -0.3859  0.1240 -0.2935
10343SOL     OW32448   7.332   5.339   2.234 -0.0358 -0.6996 -0.2669
10343SOL    HW132449   7.293   5.377   2.155  1.2065 -0.2042 -0.6634
10343SOL    HW232450   7.279   5.262   2.252 -2.7449  1.2289  0.6273
10344SOL     OW32451   3.870   2.806   5.018 -1.0368 -0.6309  0.4314
10344SOL    HW132452   3.778   2.824   5.037 -0.3099  1.6738  2.1996
10344SOL    HW232453   3.907   2.780   5.102  0.1696 -0.3402  0.0111
10345SOL     OW32454   1.817   3.437   0.045  0.3415  0.2951  0.0247
10345SOL    HW132455   1.859   3.481  -0.029 -1.6763 -1.2965 -2.2590
10345SOL    HW232456   1.754   3.500   0.078  0.5489  0.6697 -0.2826
10346SOL     OW32457   6.156   4.402   6.118  0.4902 -0.0825  0.4537
10346SOL    HW132458   6.161   4.412   6.213  1.8011  1.1843  0.2848
10346SOL    HW232459   6.064   4.417   6.097  0.5600  1.8008  1.3197
10347SOL     OW32460   0.833   4.390   3.486 -0.2573  0.7375  0.1428
10347SOL    HW132461   0.814   4.478   3.455 -0.1679  0.5212 -0.5568
10347SOL    HW232462   0.921   4.395   3.521  0.3336  0.6032 -1.2597
10348SOL     OW32463   7.524   6.414   2.500  0.3540 -0.1525  0.2677
10348SOL    HW132464   7.441   6.435   2.544 -0.5474 -0.8990 -1.0050
10348SOL    HW232465   7.533   6.319   2.509  0.7745 -0.1520 -0.1008
10349SOL     OW32466   5.040   3.785   1.018  0.5659  0.1556  0.1860
10349SOL    HW132467   5.074   3.874   1.006 -1.4524  0.6167 -3.2985
10349SOL    HW232468   4.945   3.796   1.019  0.2768 -1.9055  1.0937
10350SOL     OW32469   5.044   6.467   0.596  0.0346 -0.0298 -0.0798
10350SOL    HW132470   5.110   6.523   0.556 -0.6799 -0.3963 -1.8779
10350SOL    HW232471   4.978   6.528   0.628 -0.4879  0.2373 -1.5634
10351SOL     OW32472   4.706   3.218   7.269 -0.0818 -0.0945 -0.0515
10351SOL    HW132473   4.718   3.270   7.348  0.8713 -0.1696 -0.1333
10351SOL    HW232474   4.631   3.259   7.225 -1.2870 -0.6853  1.3737
10352SOL     OW32475   8.240   5.872   0.273  0.6164 -0.3881  0.2311
10352SOL    HW132476   8.231   5.960   0.310  1.5027 -0.1548 -0.0686
10352SOL    HW232477   8.314   5.834   0.320  0.1313 -1.0417  0.4764
10353SOL     OW32478   0.804   6.568   3.016  0.1549 -0.4655 -0.6282
10353SOL    HW132479   0.866   6.610   2.957  0.1554 -1.6671 -1.4976
10353SOL    HW232480   0.841   6.482   3.034 -0.8132 -0.8547 -0.4326
10354SOL     OW32481   8.176   3.351   0.021  0.5014  0.2069 -0.1971
10354SOL    HW132482   8.186   3.444   0.042  0.8432  0.1049  0.0975
10354SOL    HW232483   8.133   3.314   0.098 -2.6302  0.7049 -1.5584
10355SOL     OW32484   5.187   1.231   1.961 -0.0559 -0.1485 -0.2580
10355SOL    HW132485   5.173   1.272   1.876  3.0912  2.0290  0.0908
10355SOL    HW232486   5.179   1.304   2.024 -1.6840 -1.5740  1.3099
10356SOL     OW32487   3.921   1.202   1.108  0.5480  0.3092  0.4098
10356SOL    HW132488   3.995   1.164   1.156 -0.1474  0.2840  1.4910
10356SOL    HW232489   3.846   1.191   1.167 -0.0169  1.7708  0.0055
10357SOL     OW32490   5.458   6.520   0.286 -0.8430  0.5440 -0.7082
10357SOL    HW132491   5.415   6.436   0.269 -0.0642 -0.2302  0.9666
10357SOL    HW232492   5.492   6.546   0.200  1.9298 -2.6205 -0.7746
10358SOL     OW32493   0.717   5.932   4.867 -0.3322 -0.2177 -0.0338
10358SOL    HW132494   0.745   6.006   4.813  0.2129  0.0297  0.5756
10358SOL    HW232495   0.717   5.966   4.956 -3.5373  0.1110 -0.0261
10359SOL     OW32496   7.246   2.397   2.947  0.2709 -0.0236  0.1893
10359SOL    HW132497   7.233   2.408   3.042  0.1532  1.5094  0.0198
10359SOL    HW232498   7.215   2.479   2.909 -0.8463 -1.0805 -1.3045
10360SOL     OW32499   1.428   1.739   2.447 -0.9799 -0.4125  0.0376
10360SOL    HW132500   1.342   1.775   2.469 -1.8104 -2.1501 -0.1518
10360SOL    HW232501   1.431   1.655   2.493  1.0945  0.0865  0.9070
10361SOL     OW32502   5.625   4.254   7.762  0.2168 -0.1336 -0.2412
10361SOL    HW132503   5.695   4.318   7.776  1.2109 -1.0643 -0.7568
10361SOL    HW232504   5.604   4.260   7.669 -0.0460 -0.1951 -0.1866
10362SOL     OW32505   2.536   1.134   5.288  0.3436 -0.1959 -0.7610
10362SOL    HW132506   2.456   1.176   5.255  1.3311  0.8979 -1.8273
10362SOL    HW232507   2.507   1.089   5.368 -1.0522  1.3256 -0.3512
10363SOL     OW32508   2.172   0.577   4.110  0.0335  0.3076 -0.6532
10363SOL    HW132509   2.150   0.610   4.022 -2.4848  0.8831  0.1189
10363SOL    HW232510   2.096   0.599   4.163  1.2028 -0.6938  1.5355
10364SOL     OW32511   1.047   0.234   1.540 -0.4849  0.2317  0.3768
10364SOL    HW132512   1.089   0.263   1.621 -0.0185 -1.4050  0.7738
10364SOL    HW232513   1.051   0.309   1.482 -0.3367  1.2746  1.6838
10365SOL     OW32514   2.781   5.922   3.472 -0.2066 -0.3155 -0.1896
10365SOL    HW132515   2.740   5.842   3.439 -1.2957  0.5865 -1.1053
10365SOL    HW232516   2.708   5.975   3.503  0.5274  0.2310  0.6354
10366SOL     OW32517   6.266   5.135   4.875  0.5864  0.3815 -0.3422
10366SOL    HW132518   6.313   5.208   4.914 -0.8978  0.7724  0.8433
10366SOL    HW232519   6.202   5.176   4.816  0.5208 -0.0252 -0.5596
10367SOL     OW32520   7.316   6.522   7.575  0.0428  0.2265 -0.0254
10367SOL    HW132521   7.336   6.550   7.664  2.0371  1.4162 -0.7823
10367SOL    HW232522   7.225   6.490   7.579  0.4199 -0.7029  2.6106
10368SOL     OW32523   3.790   7.690   7.468 -0.2581 -0.2277  0.0311
10368SOL    HW132524   3.779   7.782   7.446 -0.7025 -0.1837  0.4300
10368SOL    HW232525   3.793   7.688   7.563  2.0109 -0.3772  0.0091
10369SOL     OW32526   5.409   6.399   0.826  0.1975 -0.4906  0.0077
10369SOL    HW132527   5.458   6.333   0.875 -0.2341 -0.4686  0.4769
10369SOL    HW232528   5.332   6.353   0.794  0.6741 -0.6059 -0.9981
10370SOL     OW32529   5.052   2.236   4.755  0.1124  0.0453  0.2846
10370SOL    HW132530   5.100   2.239   4.838 -0.5403  0.7532  0.6497
10370SOL    HW232531   4.977   2.178   4.773  2.4070 -3.7446 -1.1937
10371SOL     OW32532   6.587   6.220   6.315 -0.0072 -0.0198  0.3166
10371SOL    HW132533   6.635   6.247   6.394  0.6104  1.1884 -0.4492
10371SOL    HW232534   6.626   6.136   6.291 -0.7287 -0.8099  1.7080
10372SOL     OW32535   8.349   0.367   5.504 -0.5059 -0.4630  0.5095
10372SOL    HW132536   8.311   0.411   5.581 -2.3821 -0.9342 -0.0849
10372SOL    HW232537   8.443   0.383   5.511 -0.6816 -0.0344  2.6162
10373SOL     OW32538   4.238   0.361   1.538  0.7732 -0.2409 -0.9824
10373SOL    HW132539   4.165   0.305   1.512  1.0182 -1.0847  0.0524
10373SOL    HW232540   4.305   0.300   1.567  0.3988  0.5551  1.9010
10374SOL     OW32541   4.798   4.484   5.282  0.4259 -0.1361  0.7253
10374SOL    HW132542   4.887   4.504   5.312  0.9412 -1.3451  0.0676
10374SOL    HW232543   4.804   4.486   5.187 -0.4747  0.6209  0.6674
10375SOL     OW32544   0.730   5.908   0.527  0.2873 -0.0501 -0.1305
10375SOL    HW132545   0.714   5.946   0.613  0.1005 -0.6762  0.1201
10375SOL    HW232546   0.733   5.814   0.543 -2.1495 -0.3815 -1.1566
10376SOL     OW32547   2.321   6.542   7.975  0.1920  0.6033  0.4561
10376SOL    HW132548   2.320   6.629   7.935  4.2008 -0.3965 -2.3777
10376SOL    HW232549   2.284   6.484   7.908  0.9139 -0.3393  0.8489
10377SOL     OW32550   2.758   5.869   4.565  0.2491  0.1361 -0.0165
10377SOL    HW132551   2.703   5.797   4.534 -0.0767  0.1258  0.5767
10377SOL    HW232552   2.820   5.827   4.625  0.9751  0.1315 -0.7535
10378SOL     OW32553   4.724   6.851   0.667  0.3925  0.4751  0.5220
10378SOL    HW132554   4.677   6.793   0.607  1.9509  1.5685 -1.9089
10378SOL    HW232555   4.656   6.907   0.703 -0.5378  0.2924 -0.8547
10379SOL     OW32556   3.276   0.877   0.327 -0.0031 -0.3561  0.0640
10379SOL    HW132557   3.345   0.818   0.296  0.1879  0.7530 -1.8189
10379SOL    HW232558   3.195   0.832   0.305  0.1117 -1.0869  1.0927
10380SOL     OW32559   2.075   5.188   5.048 -0.2406  0.3465  0.1268
10380SOL    HW132560   2.159   5.216   5.010  0.9800 -2.8984  0.1718
10380SOL    HW232561   2.026   5.153   4.974 -0.4374 -0.2091  0.5138
10381SOL     OW32562   0.301   3.660   7.907  0.2564  0.4644  0.3424
10381SOL    HW132563   0.311   3.565   7.897  1.3709  0.3926  1.7836
10381SOL    HW232564   0.250   3.670   7.987 -0.8467  1.0937 -0.4155
10382SOL     OW32565   7.915   2.802   0.849  0.1316  0.6631 -0.5276
10382SOL    HW132566   7.856   2.849   0.790  0.8708  1.1422 -0.8977
10382SOL    HW232567   7.932   2.863   0.920 -0.1142  0.3866 -0.2309
10383SOL     OW32568   5.809   4.328   2.556 -0.4398 -0.1050 -0.3566
10383SOL    HW132569   5.830   4.407   2.506  1.2267  0.2592  0.8081
10383SOL    HW232570   5.799   4.260   2.491 -1.4775  0.9654 -1.3652
10384SOL     OW32571   1.506   0.398   5.413 -0.0541 -0.4020 -0.9213
10384SOL    HW132572   1.448   0.472   5.394 -2.4941 -2.3840 -1.8410
10384SOL    HW232573   1.570   0.398   5.342 -0.0750  0.7814 -0.9465
10385SOL     OW32574   1.616   2.784   6.670  0.5940  0.3054  0.3716
10385SOL    HW132575   1.610   2.875   6.698 -0.7267 -0.4042  2.7250
10385SOL    HW232576   1.534   2.768   6.623  1.5623  0.7306 -1.5350
10386SOL     OW32577   0.773   0.218   3.988 -0.5491 -0.4222 -0.3551
10386SOL    HW132578   0.836   0.209   3.917 -0.6893 -1.9488 -0.3176
10386SOL    HW232579   0.692   0.181   3.953 -0.7928 -0.5989  0.3761
10387SOL     OW32580   5.106   6.551   3.411 -0.5269  0.6667  0.4652
10387SOL    HW132581   5.055   6.614   3.361 -1.2913 -0.0207  0.3669
10387SOL    HW232582   5.100   6.470   3.362 -2.1859 -0.3214  2.1532
10388SOL     OW32583   6.121   6.914   7.977 -0.0861  0.3495 -0.0469
10388SOL    HW132584   6.065   6.984   7.944 -0.4467  0.1200  0.0671
10388SOL    HW232585   6.160   6.876   7.898 -1.0209 -0.2593 -0.2445
10389SOL     OW32586   2.791   2.863   5.897 -0.1952 -0.0729 -0.2943
10389SOL    HW132587   2.744   2.817   5.966  1.0246 -0.7575  0.1270
10389SOL    HW232588   2.863   2.803   5.874  1.7812  1.8238  0.6462
10390SOL     OW32589   1.256   6.158   4.620  0.5255 -0.1544  0.1658
10390SOL    HW132590   1.184   6.215   4.591  1.5472  0.2203 -1.7998
10390SOL    HW232591   1.272   6.100   4.546  1.7906 -0.7253  0.8548
10391SOL     OW32592   4.329   6.541   5.815 -0.4003 -0.4912  0.0508
10391SOL    HW132593   4.303   6.529   5.907 -1.7252  1.8880  0.0486
10391SOL    HW232594   4.407   6.597   5.820  0.3595 -1.4835 -0.2699
10392SOL     OW32595   8.081   3.579   5.261  0.4645 -0.2126  0.0588
10392SOL    HW132596   8.110   3.560   5.350  0.2500 -1.7866 -0.1798
10392SOL    HW232597   8.161   3.582   5.209  0.4762 -1.1346  0.0022
10393SOL     OW32598   1.410   5.523   7.444  0.4393  0.1316  0.1517
10393SOL    HW132599   1.346   5.565   7.502 -0.4641  2.2846 -2.1987
10393SOL    HW232600   1.486   5.509   7.499 -1.0223  0.2340  2.3339
10394SOL     OW32601   5.366   0.961   5.803 -0.7925 -0.6395 -0.6002
10394SOL    HW132602   5.297   0.978   5.739 -1.7341 -0.1262  0.5026
10394SOL    HW232603   5.322   0.971   5.888  0.7639  0.1720  0.1382
10395SOL     OW32604   4.673   6.450   3.349 -0.1402  0.0871 -0.0575
10395SOL    HW132605   4.738   6.436   3.418 -1.7002 -1.9905  1.0986
10395SOL    HW232606   4.637   6.536   3.367  0.9725  0.4832  0.3874
10396SOL     OW32607   5.438   5.031   6.372  0.0848  0.0760  0.3476
10396SOL    HW132608   5.437   5.016   6.467  3.5706 -0.3728  0.4663
10396SOL    HW232609   5.446   5.126   6.363 -0.3656  0.1292  0.5114
10397SOL     OW32610   1.864   7.367   2.824  0.1406  0.5984 -0.1703
10397SOL    HW132611   1.875   7.421   2.746  0.5064 -0.5041 -0.9121
10397SOL    HW232612   1.842   7.280   2.790 -1.0918  0.4124  1.0003
10398SOL     OW32613   1.552   4.644   5.855  0.0793  0.4857  0.3537
10398SOL    HW132614   1.566   4.550   5.849  0.8604  0.5733  0.6467
10398SOL    HW232615   1.460   4.656   5.832 -0.1558 -0.3945  0.7854
10399SOL     OW32616   3.140   6.479   0.843  0.1771 -0.1349  0.5267
10399SOL    HW132617   3.206   6.465   0.911  1.6404  0.3416 -0.7223
10399SOL    HW232618   3.189   6.475   0.761 -1.4103 -0.0123 -0.4813
10400SOL     OW32619   5.751   7.223   1.716  0.1119  0.2169 -0.1595
10400SOL    HW132620   5.703   7.203   1.796  1.1537 -1.1732  0.1638
10400SOL    HW232621   5.727   7.313   1.695 -1.7085 -0.0481  0.6027
10401SOL     OW32622   3.089   1.905   4.010 -0.5169 -0.3447  0.1205
10401SOL    HW132623   3.143   1.861   3.944  3.4613  1.8347  1.5790
10401SOL    HW232624   3.098   1.851   4.088 -2.9043 -1.4138 -0.2553
10402SOL     OW32625   5.303   7.103   6.149 -0.3397 -0.2045  0.1688
10402SOL    HW132626   5.208   7.101   6.141 -0.2503 -2.1283 -0.9599
10402SOL    HW232627   5.322   7.054   6.229 -0.3105  1.4782  1.2520
10403SOL     OW32628   5.445   4.916   6.119  0.2279 -0.0778 -0.1540
10403SOL    HW132629   5.424   4.927   6.212 -0.2371 -1.1691 -0.1177
10403SOL    HW232630   5.367   4.874   6.082  1.5183 -2.3601 -0.4401
10404SOL     OW32631   2.741   0.079   7.915  0.0653 -0.0983 -0.1865
10404SOL    HW132632   2.773   0.145   7.853 -0.6053 -0.7158 -1.2313
10404SOL    HW232633   2.711   0.130   7.990  0.1916  0.7429 -0.6868
10405SOL     OW32634   1.651   4.197   3.250  0.4462 -0.5318 -0.5811
10405SOL    HW132635   1.666   4.291   3.263  2.0913 -1.0241  1.7314
10405SOL    HW232636   1.739   4.160   3.244 -0.1682 -2.0287 -0.6602
10406SOL     OW32637   6.801   5.098   0.422 -0.5289 -0.2518  0.5197
10406SOL    HW132638   6.801   5.068   0.513  1.0915 -0.1207  0.5923
10406SOL    HW232639   6.893   5.095   0.396 -0.9659 -0.2456 -1.1120
10407SOL     OW32640   3.522   0.058   2.764 -0.2994 -0.1775  0.1378
10407SOL    HW132641   3.491   0.028   2.679  0.5909  1.8797 -0.9972
10407SOL    HW232642   3.612   0.027   2.769  0.0666  0.7819 -0.2752
10408SOL     OW32643   1.782   4.749   4.395 -0.1663 -0.4248  0.0938
10408SOL    HW132644   1.693   4.718   4.380  0.1580 -0.7263 -1.3790
10408SOL    HW232645   1.836   4.671   4.391  0.5090  0.0824 -2.3719
10409SOL     OW32646   5.732   3.033   3.539 -0.4195  0.3153 -0.3052
10409SOL    HW132647   5.792   3.085   3.485 -0.5999 -0.3094 -1.1259
10409SOL    HW232648   5.678   3.098   3.585  1.2995  0.9242  0.9783
10410SOL     OW32649   6.454   2.686   6.738 -0.5870  0.4095 -0.0874
10410SOL    HW132650   6.543   2.701   6.705  0.0515 -2.5048  0.0822
10410SOL    HW232651   6.464   2.681   6.833 -0.7352 -0.7955 -0.1166
10411SOL     OW32652   2.781   7.457   7.457 -0.2567 -0.1781 -0.4120
10411SOL    HW132653   2.715   7.485   7.394  0.3412  2.7202  0.1198
10411SOL    HW232654   2.851   7.418   7.404 -0.6236  0.4237 -1.3449
10412SOL     OW32655   4.070   4.191   5.075  0.3164 -0.0207 -0.0825
10412SOL    HW132656   4.108   4.108   5.102 -0.3786 -0.3770 -0.1883
10412SOL    HW232657   3.978   4.186   5.101  0.3179  0.8036  0.1080
10413SOL     OW32658   0.432   2.647   3.532 -0.0281 -0.2969  0.0255
10413SOL    HW132659   0.338   2.650   3.515 -0.0054  1.3931 -0.0363
10413SOL    HW232660   0.446   2.710   3.602  1.0189 -0.8134  0.3033
10414SOL     OW32661   6.019   2.623   6.236 -0.0477 -0.5241  0.3793
10414SOL    HW132662   5.939   2.648   6.190  1.3454  1.1158 -1.3219
10414SOL    HW232663   6.022   2.680   6.312 -0.3719 -0.4163  0.3127
10415SOL     OW32664   2.196   3.930   4.516  0.5455 -0.0968  0.5239
10415SOL    HW132665   2.160   4.004   4.566  2.0280 -0.3909  2.1608
10415SOL    HW232666   2.180   3.854   4.572  0.1906 -0.8309 -0.5477
10416SOL     OW32667   0.357   6.699   5.285 -0.5426 -0.4493  0.1021
10416SOL    HW132668   0.310   6.616   5.284 -1.1303 -0.1335  0.7866
10416SOL    HW232669   0.426   6.686   5.350  0.3643 -0.9205 -0.9182
10417SOL     OW32670   4.217   1.697   8.149 -0.4887 -0.2405  0.1774
10417SOL    HW132671   4.311   1.695   8.164 -0.0879  4.4201 -0.1691
10417SOL    HW232672   4.208   1.716   8.055 -1.6877  0.5295  0.4266
10418SOL     OW32673   0.660   5.242   3.219  0.5216 -0.0188  0.6385
10418SOL    HW132674   0.697   5.286   3.295 -0.5665  1.6800  0.2272
10418SOL    HW232675   0.728   5.180   3.192  1.2455 -0.0911  2.4915
10419SOL     OW32676   7.225   1.109   1.906 -0.2045 -0.2918  0.0589
10419SOL    HW132677   7.178   1.045   1.853 -0.6842  0.2764 -0.2105
10419SOL    HW232678   7.312   1.114   1.865 -0.7503  0.5513 -1.0285
10420SOL     OW32679   4.691   7.113   7.730  0.2228 -0.5488 -0.3422
10420SOL    HW132680   4.639   7.189   7.704 -1.4032 -1.4614  0.0702
10420SOL    HW232681   4.720   7.132   7.819  0.2067 -0.2131 -0.4102
10421SOL     OW32682   7.039   2.195   1.936  0.3621 -0.7125  0.2591
10421SOL    HW132683   7.114   2.183   1.879 -0.3398 -0.6066 -0.7162
10421SOL    HW232684   6.968   2.145   1.894 -0.4104  0.1180  0.5335
10422SOL     OW32685   6.691   4.249   1.565 -0.0879  0.0197 -0.2477
10422SOL    HW132686   6.614   4.251   1.622  0.1984 -2.8862  0.4202
10422SOL    HW232687   6.655   4.244   1.477 -0.7558 -1.6926  0.0778
10423SOL     OW32688   4.794   5.536   7.376 -0.2976 -0.3779 -0.0039
10423SOL    HW132689   4.886   5.563   7.380 -0.9043  1.7664  1.3764
10423SOL    HW232690   4.766   5.535   7.468 -1.9532  0.2834 -0.4686
10424SOL     OW32691   5.158   7.712   0.575  0.1987 -0.4378 -0.3909
10424SOL    HW132692   5.079   7.689   0.526  0.2212  0.1586 -0.7233
10424SOL    HW232693   5.230   7.674   0.524  0.2457  0.4262 -1.0032
10425SOL     OW32694   3.173   4.623   5.469  0.5153  0.0599 -0.2428
10425SOL    HW132695   3.204   4.619   5.378  1.6465 -3.6392  0.1814
10425SOL    HW232696   3.218   4.552   5.513 -2.5338 -0.3937  2.4446
10426SOL     OW32697   0.688   8.327   6.702  0.3314 -0.0339  0.5472
10426SOL    HW132698   0.596   8.340   6.725  0.6387  0.9694  1.2795
10426SOL    HW232699   0.726   8.282   6.777  0.5965  0.2052  0.5595
10427SOL     OW32700   6.892   3.489   5.708 -0.3719  0.0064 -0.0640
10427SOL    HW132701   6.826   3.558   5.709  0.2583  0.6571 -1.0539
10427SOL    HW232702   6.974   3.535   5.687  0.1199 -0.9896 -0.3693
10428SOL     OW32703   6.279   3.066   7.614  0.5829 -0.1645  0.3528
10428SOL    HW132704   6.254   3.158   7.627 -0.6483 -0.2475 -1.1164
10428SOL    HW232705   6.292   3.032   7.703  1.8920  1.6188  0.8952
10429SOL     OW32706   0.342   5.089   4.237 -0.7501 -0.3988 -0.0876
10429SOL    HW132707   0.314   5.156   4.174  0.8079 -0.5350 -0.9664
10429SOL    HW232708   0.431   5.067   4.211 -0.9959 -2.3761  0.5730
10430SOL     OW32709   2.998   5.971   6.961  1.0949 -0.7715  0.6554
10430SOL    HW132710   3.021   5.895   6.908  1.6098 -2.5422  3.2659
10430SOL    HW232711   2.911   5.996   6.929  0.2193 -3.4287  0.6884
10431SOL     OW32712   1.091   1.464   3.979 -0.5076 -0.7341 -0.0636
10431SOL    HW132713   1.141   1.470   3.898 -0.2333 -0.3408  0.1298
10431SOL    HW232714   1.157   1.464   4.048 -0.7223 -1.4107  0.1497
10432SOL     OW32715   6.771   1.984   6.587 -0.3758 -0.1390  0.5215
10432SOL    HW132716   6.843   1.921   6.586  1.0150  1.3717  0.3681
10432SOL    HW232717   6.791   2.044   6.514 -0.7155  1.4480  1.6812
10433SOL     OW32718   7.892   6.266   0.392  0.0520 -0.3581  0.0570
10433SOL    HW132719   7.820   6.317   0.356 -0.1512 -0.7997 -0.1744
10433SOL    HW232720   7.878   6.177   0.359 -1.2686 -1.2776  2.7492
10434SOL     OW32721   6.509   2.362   0.821 -0.0598 -0.1857 -0.5055
10434SOL    HW132722   6.430   2.392   0.865  1.0850  2.0329  0.1796
10434SOL    HW232723   6.477   2.305   0.751 -2.1593 -0.4055  0.5490
10435SOL     OW32724   4.633   1.945   1.705  0.3624  0.4870 -0.5349
10435SOL    HW132725   4.579   1.867   1.698 -0.9521  1.2899  0.2708
10435SOL    HW232726   4.571   2.017   1.714  1.5604  1.4741  0.2000
10436SOL     OW32727   2.092   4.093   8.197  0.0844 -0.0127  0.1159
10436SOL    HW132728   2.091   4.085   8.292 -1.6239  0.6333  0.1947
10436SOL    HW232729   2.101   4.187   8.181 -1.2746  0.0700 -0.2985
10437SOL     OW32730   8.321   3.612   1.306 -0.0263 -0.0923  0.1786
10437SOL    HW132731   8.230   3.632   1.286 -0.2213 -0.7456  0.3918
10437SOL    HW232732   8.336   3.525   1.267  0.1637 -0.4988  1.1429
10438SOL     OW32733   5.744   0.208   1.527  0.1153 -0.2488 -0.1831
10438SOL    HW132734   5.720   0.149   1.598  1.2431 -0.2428  0.2275
10438SOL    HW232735   5.662   0.248   1.500 -0.5563 -1.4471  0.0309
10439SOL     OW32736   6.176   7.271   5.017 -0.0976 -0.4345 -0.1575
10439SOL    HW132737   6.114   7.287   4.946 -0.7291  1.6427  0.7628
10439SOL    HW232738   6.199   7.179   5.010 -0.9788 -0.5285 -2.3664
10440SOL     OW32739   6.178   3.911   7.052  0.3079 -0.6846 -0.2498
10440SOL    HW132740   6.209   3.823   7.069 -0.3867 -1.2586 -1.7405
10440SOL    HW232741   6.100   3.921   7.107  1.0447 -0.5600  0.7848
10441SOL     OW32742   6.563   0.090   7.527  0.9925 -0.0106  1.0841
10441SOL    HW132743   6.594   0.091   7.617  0.1648 -0.7001  1.3973
10441SOL    HW232744   6.490   0.027   7.528 -0.1478  1.2390  0.3198
10442SOL     OW32745   4.181   1.268   1.352  0.3964  0.8300  0.2005
10442SOL    HW132746   4.207   1.324   1.279  1.9317 -0.5930 -0.3980
10442SOL    HW232747   4.172   1.181   1.314  2.4052 -0.1950  1.8694
10443SOL     OW32748   4.908   2.383   7.861 -0.0289 -0.1204  0.2921
10443SOL    HW132749   4.884   2.381   7.954  0.6688  0.4925  0.4935
10443SOL    HW232750   4.827   2.358   7.815 -1.4152  2.8032  0.9072
10444SOL     OW32751   5.863   4.441   0.777  0.1790 -0.3922  0.1966
10444SOL    HW132752   5.873   4.434   0.872  0.1517  0.8938  0.3026
10444SOL    HW232753   5.772   4.415   0.761 -0.5447  1.6487  0.7996
10445SOL     OW32754   7.748   7.366   0.166 -0.0218 -0.8433 -0.0152
10445SOL    HW132755   7.667   7.385   0.213 -0.2388 -3.6831  0.9772
10445SOL    HW232756   7.809   7.434   0.193 -1.5171  0.2498  0.7346
10446SOL     OW32757   2.602   4.422   5.757  0.5780 -0.0675  0.1640
10446SOL    HW132758   2.552   4.503   5.744 -0.6986 -0.7696  0.5984
10446SOL    HW232759   2.620   4.390   5.669  2.3597  1.4120 -0.0690
10447SOL     OW32760   5.654   2.780   3.166 -0.6858 -0.2076  0.0743
10447SOL    HW132761   5.713   2.770   3.241 -0.3927  1.2347  0.0799
10447SOL    HW232762   5.684   2.861   3.124 -1.7128 -0.2632 -0.7993
10448SOL     OW32763   3.225   6.867   0.327  0.1032  0.9575 -0.1530
10448SOL    HW132764   3.230   6.794   0.266 -0.6605  0.1057  0.7612
10448SOL    HW232765   3.147   6.915   0.301  0.7117  1.5824 -0.8744
10449SOL     OW32766   8.156   3.442   3.244 -0.4491 -0.3568 -0.0386
10449SOL    HW132767   8.189   3.380   3.180  0.2367  0.9399 -0.9860
10449SOL    HW232768   8.211   3.427   3.322  0.2997 -0.3371 -0.5543
10450SOL     OW32769   5.533   4.988   1.452 -0.2866 -0.4861 -0.2474
10450SOL    HW132770   5.485   4.939   1.385  1.1765  1.2371 -2.7202
10450SOL    HW232771   5.624   4.958   1.443 -0.1595 -0.7938  1.5983
10451SOL     OW32772   5.377   0.958   1.146 -0.2020  0.1451 -0.1554
10451SOL    HW132773   5.423   0.880   1.177 -0.4912 -0.4191 -1.1053
10451SOL    HW232774   5.292   0.954   1.189  0.4971  1.0495  1.3968
10452SOL     OW32775   7.510   4.363   1.375 -0.2827  0.2390  0.9546
10452SOL    HW132776   7.598   4.367   1.412  0.6926  0.0916 -1.1842
10452SOL    HW232777   7.451   4.379   1.449  1.5420  0.6781  2.3664
10453SOL     OW32778   1.536   0.978   0.848 -0.3141  0.3360  0.0901
10453SOL    HW132779   1.586   0.938   0.919 -0.1597 -1.6291 -1.0596
10453SOL    HW232780   1.461   1.019   0.892  0.5866  0.5418  1.5152
10454SOL     OW32781   3.435   7.391   1.961  0.1813 -0.0572  0.0902
10454SOL    HW132782   3.462   7.335   1.889  1.2032  0.8728 -0.2856
10454SOL    HW232783   3.409   7.331   2.030  1.3909 -0.9975 -0.2425
10455SOL     OW32784   5.757   0.734   4.578 -0.1529 -0.0307 -0.0222
10455SOL    HW132785   5.802   0.790   4.642  0.7365  0.5695 -1.1281
10455SOL    HW232786   5.789   0.645   4.597  1.8449  0.4204 -0.9844
10456SOL     OW32787   4.598   6.783   6.447  0.5467  0.1417 -0.4078
10456SOL    HW132788   4.591   6.688   6.455  0.5809  0.2981  2.4085
10456SOL    HW232789   4.507   6.813   6.442  0.2202  0.1328  3.0961
10457SOL     OW32790   1.875   4.263   2.306  0.3274  0.3868 -0.9400
10457SOL    HW132791   1.921   4.249   2.389  0.9622  1.3505 -1.1093
10457SOL    HW232792   1.829   4.181   2.290 -1.3980  0.8275  1.3281
10458SOL     OW32793   7.913   2.102   7.726  0.3638  0.5456 -0.7166
10458SOL    HW132794   7.920   2.162   7.800 -0.6968  0.2554 -0.3661
10458SOL    HW232795   7.820   2.102   7.704  0.6765  0.7333 -2.1465
10459SOL     OW32796   6.160   3.183   0.330  0.0918  0.0771  0.1947
10459SOL    HW132797   6.113   3.245   0.386 -0.5208 -0.1511 -0.0645
10459SOL    HW232798   6.092   3.128   0.293  0.6694 -1.0543  0.7684
10460SOL     OW32799   2.417   7.982   2.518 -0.5256  0.2430 -0.6608
10460SOL    HW132800   2.382   8.050   2.460 -2.4882  1.3086  1.6221
10460SOL    HW232801   2.448   8.030   2.595  0.5098 -1.2625 -0.1032
10461SOL     OW32802   8.144   0.561   2.636  0.1637  0.0991 -0.1026
10461SOL    HW132803   8.199   0.540   2.712  0.4627  1.3079  0.0269
10461SOL    HW232804   8.206   0.589   2.568 -0.1828 -0.0013 -0.4683
10462SOL     OW32805   0.698   0.670   7.988  0.5142 -0.0098 -0.0439
10462SOL    HW132806   0.663   0.709   8.068 -3.2598 -1.5261 -0.7392
10462SOL    HW232807   0.674   0.730   7.918  0.1830 -0.6004 -0.4519
10463SOL     OW32808   3.747   1.743   5.057 -0.3465 -0.1305 -0.3099
10463SOL    HW132809   3.776   1.683   4.988 -1.1515 -1.5887  0.5662
10463SOL    HW232810   3.662   1.775   5.027 -0.2064  0.0847 -0.4824
10464SOL     OW32811   0.402   2.584   8.300 -0.5701  0.0376  0.6375
10464SOL    HW132812   0.383   2.654   8.363 -1.0448  0.1683  0.3577
10464SOL    HW232813   0.490   2.603   8.269 -1.2398  1.4031 -0.5663
10465SOL     OW32814   5.974   0.482   7.408  0.0298  0.4344 -0.2450
10465SOL    HW132815   5.900   0.449   7.356 -0.0903  1.6835 -0.9068
10465SOL    HW232816   6.049   0.477   7.348  0.0459  1.1572 -0.2953
10466SOL     OW32817   0.820   1.451   2.124 -0.0694 -0.1312 -0.2220
10466SOL    HW132818   0.844   1.407   2.043  0.4550 -0.6417  0.2046
10466SOL    HW232819   0.894   1.435   2.183  0.2563  1.5367 -0.1389
10467SOL     OW32820   3.768   5.829   1.048  0.0909 -0.0086  0.3538
10467SOL    HW132821   3.748   5.743   1.086  0.2313  0.4904  1.6154
10467SOL    HW232822   3.716   5.890   1.100 -2.0876  0.4868 -2.1832
10468SOL     OW32823   4.005   3.389   2.939 -0.0724  0.7159 -0.5416
10468SOL    HW132824   4.015   3.480   2.910  1.2862  0.7803  0.0491
10468SOL    HW232825   4.070   3.379   3.009 -0.5120 -0.5849 -0.2921
10469SOL     OW32826   1.388   5.165   1.133 -0.0199  0.0555  0.4655
10469SOL    HW132827   1.404   5.155   1.227  1.1111  0.5159  0.3445
10469SOL    HW232828   1.470   5.138   1.092 -0.5018 -0.1366 -0.3995
10470SOL     OW32829   5.557   2.971   4.682 -0.2750  0.0385  0.7086
10470SOL    HW132830   5.482   3.019   4.648 -0.0846  0.0179  0.2598
10470SOL    HW232831   5.625   3.037   4.696 -0.8390  0.3048  2.5169
10471SOL     OW32832   6.739   0.083   7.264  0.7187 -0.3396  0.4659
10471SOL    HW132833   6.685   0.107   7.340 -1.7644  0.1608 -1.3414
10471SOL    HW232834   6.723  -0.010   7.252  1.4575 -0.5149  0.7854
10472SOL     OW32835   1.763   3.665   3.491 -0.1399 -0.5691 -0.5396
10472SOL    HW132836   1.748   3.714   3.572  0.6511 -2.5082  0.8602
10472SOL    HW232837   1.678   3.629   3.469 -0.1677 -0.8453  0.0019
10473SOL     OW32838   7.408   3.362   5.035  0.3783 -0.2098  0.5806
10473SOL    HW132839   7.337   3.418   5.065  0.1886 -0.1846  0.0947
10473SOL    HW232840   7.487   3.416   5.043  0.3887 -0.3268  1.3699
10474SOL     OW32841   7.485   8.244   1.120  0.5376  0.9548 -0.2139
10474SOL    HW132842   7.536   8.165   1.101  0.4397  0.8593 -0.0756
10474SOL    HW232843   7.534   8.315   1.077  1.7486  1.1303  1.3823
10475SOL     OW32844   6.132   2.215   7.337 -0.1362  0.1424 -0.4275
10475SOL    HW132845   6.180   2.288   7.378 -1.5376  0.2860  1.0391
10475SOL    HW232846   6.178   2.137   7.366  0.7952  0.3674 -1.2278
10476SOL     OW32847   7.210   1.473   4.191  0.2989 -0.3911  0.3155
10476SOL    HW132848   7.220   1.541   4.258 -2.2118  0.8468 -0.4265
10476SOL    HW232849   7.176   1.520   4.115 -2.4340 -2.5497  0.0457
10477SOL     OW32850   8.315   2.050   0.012 -0.1825 -0.2793  0.0310
10477SOL    HW132851   8.394   2.102   0.027 -0.5963  0.3940 -0.1104
10477SOL    HW232852   8.264   2.061   0.092  0.3284 -1.5840  0.5759
10478SOL     OW32853   2.108   5.880   6.130  0.5327 -0.0318 -1.1041
10478SOL    HW132854   2.160   5.844   6.058  0.7548 -0.9064 -0.5269
10478SOL    HW232855   2.138   5.831   6.207 -0.3468  0.2522 -0.5771
10479SOL     OW32856   8.209   7.428   2.508 -0.0610  0.7020 -0.1424
10479SOL    HW132857   8.203   7.333   2.498 -0.5264  0.5678  1.1541
10479SOL    HW232858   8.303   7.447   2.504  0.2476 -0.1306  1.8118
10480SOL     OW32859   7.874   6.461   6.429  0.7407  0.1766  0.5394
10480SOL    HW132860   7.946   6.508   6.470  0.3668  1.5624 -0.2976
10480SOL    HW232861   7.912   6.423   6.350  1.2350 -1.6681  1.6319
10481SOL     OW32862   4.162   4.005   0.129  0.1561 -0.2199 -0.3316
10481SOL    HW132863   4.114   4.064   0.188  2.2699 -1.4958  2.9332
10481SOL    HW232864   4.122   3.919   0.144  1.5494 -0.7899  0.3238
10482SOL     OW32865   5.052   7.725   0.251 -0.2995 -0.0208 -0.0856
10482SOL    HW132866   5.038   7.767   0.167 -1.0342  0.2280  0.1478
10482SOL    HW232867   4.985   7.657   0.256  0.3801 -0.7056 -0.1255
10483SOL     OW32868   4.362   5.102   4.203  0.0600  0.3390 -0.1232
10483SOL    HW132869   4.413   5.176   4.173  0.2257  0.7478  1.0946
10483SOL    HW232870   4.293   5.141   4.257  0.4651 -0.3926  0.9721
10484SOL     OW32871   6.365   1.575   5.688  0.1998  0.0299  0.0415
10484SOL    HW132872   6.292   1.566   5.750 -0.4047  1.2007 -0.4561
10484SOL    HW232873   6.342   1.515   5.617  0.0296 -0.0489  0.1605
10485SOL     OW32874   3.912   1.740   0.203  0.1514 -0.4174 -0.4119
10485SOL    HW132875   3.899   1.645   0.208 -2.3548 -0.1602 -0.7053
10485SOL    HW232876   3.954   1.763   0.286 -1.5706 -1.4889  0.8179
10486SOL     OW32877   1.793   6.007   0.475  0.1312 -0.6134  0.0475
10486SOL    HW132878   1.766   6.059   0.400 -0.9179 -1.1843  0.0198
10486SOL    HW232879   1.818   5.922   0.438  0.8398 -0.4897  0.2128
10487SOL     OW32880   5.240   2.220   6.644  0.2403 -0.1386 -0.4679
10487SOL    HW132881   5.281   2.268   6.717  0.3095  1.3694 -1.4616
10487SOL    HW232882   5.147   2.240   6.652  0.1759 -0.4303 -0.4794
10488SOL     OW32883   6.851   0.711   7.010 -0.5442  0.5762 -0.0014
10488SOL    HW132884   6.944   0.717   6.987 -0.9137 -0.3874 -1.9239
10488SOL    HW232885   6.851   0.667   7.095  0.7151 -1.5483 -1.0079
10489SOL     OW32886   1.241   4.507   6.922 -0.0444 -0.0879  0.2694
10489SOL    HW132887   1.189   4.556   6.857 -1.4143 -1.8252 -0.0183
10489SOL    HW232888   1.176   4.456   6.970  1.3273 -1.7341  0.4462
10490SOL     OW32889   7.355   3.225   4.747 -0.4114 -0.1786 -0.4590
10490SOL    HW132890   7.304   3.252   4.824  0.6789  0.4309  0.0868
10490SOL    HW232891   7.303   3.156   4.706 -2.1875  1.1451 -0.5471
10491SOL     OW32892   1.980   0.639   4.293 -0.8088  0.1428 -0.0334
10491SOL    HW132893   1.948   0.558   4.333 -0.3033 -0.5100 -0.8948
10491SOL    HW232894   2.011   0.692   4.366  6.8317 -3.7459  0.5368
10492SOL     OW32895   7.457   0.696   6.015 -0.4630  0.0855 -0.2727
10492SOL    HW132896   7.370   0.736   6.019 -0.7364 -0.5646  2.7406
10492SOL    HW232897   7.446   0.610   6.056  1.6034  0.0014  0.2223
10493SOL     OW32898   6.990   2.042   4.107 -0.5166 -0.1933 -0.4588
10493SOL    HW132899   6.927   2.009   4.043 -0.4286 -0.5152 -0.3846
10493SOL    HW232900   6.936   2.073   4.180 -0.6369  0.5769 -0.8689
10494SOL     OW32901   7.316   4.000   7.955  0.3967 -0.4244 -0.2906
10494SOL    HW132902   7.324   4.006   8.050  1.4632  3.9276 -0.4347
10494SOL    HW232903   7.393   3.951   7.927  1.5841  0.5952  1.0078
10495SOL     OW32904   7.841   5.197   7.941 -0.0293 -0.0863  0.4894
10495SOL    HW132905   7.790   5.118   7.958  0.4420 -0.0554  2.3222
10495SOL    HW232906   7.861   5.194   7.848 -1.9507 -0.9426  0.0473
10496SOL     OW32907   3.050   7.054   7.656 -0.4998  0.5079  0.0423
10496SOL    HW132908   3.026   7.057   7.748 -3.5805  2.4824 -0.6916
10496SOL    HW232909   3.041   6.962   7.632  0.2398 -0.0159  1.6027
10497SOL     OW32910   1.881   3.238   7.879 -0.4036  0.0539 -0.2500
10497SOL    HW132911   1.861   3.235   7.785 -0.0666  1.6461 -0.4013
10497SOL    HW232912   1.822   3.305   7.913  0.1008  0.1110  0.5158
10498SOL     OW32913   1.905   7.454   0.402  0.0119  0.9152 -0.1484
10498SOL    HW132914   1.997   7.448   0.378  0.0187  1.1639 -0.1928
10498SOL    HW232915   1.864   7.502   0.329 -0.4150 -0.3774 -0.7846
10499SOL     OW32916   3.230   8.204   3.573  0.1573  0.3370 -0.0239
10499SOL    HW132917   3.228   8.208   3.477  2.5720  2.2088 -0.1055
10499SOL    HW232918   3.218   8.112   3.593  1.0656 -0.3440 -2.2413
10500SOL     OW32919   8.270   4.552   7.786 -0.1600 -0.1078  0.2955
10500SOL    HW132920   8.280   4.638   7.744  0.0833 -0.0537  0.4615
10500SOL    HW232921   8.358   4.531   7.819 -0.4787  0.1353  1.3253
10501SOL     OW32922   3.729   1.079   3.821  0.7279  0.2249 -0.2043
10501SOL    HW132923   3.768   1.014   3.763  0.2316  0.9400 -1.3749
10501SOL    HW232924   3.800   1.141   3.839  0.9788 -0.1919  0.2497
10502SOL     OW32925   0.899   2.250   7.171  0.4422  0.1930 -0.2609
10502SOL    HW132926   0.909   2.160   7.139  0.3965 -0.8600  2.4101
10502SOL    HW232927   0.984   2.291   7.155  1.1435 -0.9875  0.3122
10503SOL     OW32928   2.445   1.744   3.993 -0.5700  0.2958  0.0573
10503SOL    HW132929   2.482   1.679   4.054  0.3397  0.5252 -0.2342
10503SOL    HW232930   2.351   1.739   4.008 -0.4260 -0.2322  0.9076
10504SOL     OW32931   6.172   1.957   5.671 -0.4332 -0.2813  0.0758
10504SOL    HW132932   6.235   1.977   5.602 -0.6960 -0.9073 -0.3448
10504SOL    HW232933   6.225   1.959   5.752 -0.3204  1.4349 -0.0051
10505SOL     OW32934   6.104   6.311   2.267  0.2027  0.4061  0.4550
10505SOL    HW132935   6.039   6.243   2.249 -0.2526  0.8351  0.4359
10505SOL    HW232936   6.059   6.373   2.324  0.5740  0.7480  0.3834
10506SOL     OW32937   5.215   2.144   1.709  0.3384  0.4893 -0.7398
10506SOL    HW132938   5.169   2.066   1.678  0.3127  0.7749 -1.4411
10506SOL    HW232939   5.169   2.169   1.789  1.2898 -1.0817  0.3427
10507SOL     OW32940   2.821   2.975   3.943 -0.0533 -0.1801 -0.0649
10507SOL    HW132941   2.911   3.003   3.956  0.2797 -1.6074  1.0556
10507SOL    HW232942   2.768   3.052   3.962  0.8318 -0.0484  2.1594
10508SOL     OW32943   0.445   4.381   5.693  0.5011  0.2961 -0.1124
10508SOL    HW132944   0.491   4.464   5.703 -1.0500  1.1183  0.6230
10508SOL    HW232945   0.394   4.391   5.612 -0.4439  0.4652  0.4898
10509SOL     OW32946   6.846   0.387   2.254  0.1451 -0.1700 -0.3070
10509SOL    HW132947   6.839   0.395   2.349  0.3044  0.0890 -0.3159
10509SOL    HW232948   6.760   0.413   2.221  1.2280  3.9647 -0.4745
10510SOL     OW32949   7.416   1.409   6.827 -0.1269  0.0092  0.0839
10510SOL    HW132950   7.365   1.356   6.888  1.6421 -1.8572  0.0599
10510SOL    HW232951   7.495   1.432   6.876  1.1466 -1.2036 -1.2898
10511SOL     OW32952   7.711   0.538   0.835 -0.0073  0.3730  0.2430
10511SOL    HW132953   7.705   0.588   0.754  0.8215 -0.1682 -0.1633
10511SOL    HW232954   7.773   0.468   0.816 -0.9694 -0.6800  0.8812
10512SOL     OW32955   7.543   1.390   2.648  0.2240 -0.2130  0.6777
10512SOL    HW132956   7.455   1.355   2.634 -0.3850  1.1633  0.8937
10512SOL    HW232957   7.599   1.313   2.655 -0.9443 -1.1101  0.4220
10513SOL     OW32958   4.976   1.369   3.303 -0.1092 -0.6060  0.2690
10513SOL    HW132959   5.051   1.386   3.247 -1.6123  2.5584 -1.0377
10513SOL    HW232960   4.974   1.443   3.364 -2.2446 -0.4392  0.0941
10514SOL     OW32961   5.157   5.706   4.994 -0.2406 -0.1935  0.0439
10514SOL    HW132962   5.162   5.641   4.923 -0.5780 -0.9679  0.7188
10514SOL    HW232963   5.067   5.737   4.991  0.1079  0.7909 -0.7403
10515SOL     OW32964   6.870   8.300   6.452  0.4884 -0.2084  0.6501
10515SOL    HW132965   6.948   8.353   6.469 -0.9089  2.3343 -0.2946
10515SOL    HW232966   6.817   8.310   6.531  0.4437 -0.6883  0.6850
10516SOL     OW32967   4.324   4.301   4.501  0.6881 -0.7888  0.2204
10516SOL    HW132968   4.334   4.375   4.562 -3.4891 -1.1135  1.6553
10516SOL    HW232969   4.359   4.226   4.549  2.2447 -0.2368 -0.0152
10517SOL     OW32970   5.840   5.971   5.385  0.1107 -0.6551 -0.2551
10517SOL    HW132971   5.757   5.982   5.431  0.8021  0.5497  0.7649
10517SOL    HW232972   5.887   6.053   5.400  1.0557 -0.8866 -1.7332
10518SOL     OW32973   0.032   6.409   4.785 -0.1549  0.3184 -0.5166
10518SOL    HW132974   0.026   6.337   4.723  0.0987  1.3687 -1.7963
10518SOL    HW232975   0.022   6.488   4.732 -1.6615  1.2248  1.0158
10519SOL     OW32976   2.950   0.653   0.775 -0.6689 -0.1028 -0.0811
10519SOL    HW132977   3.046   0.659   0.779 -0.7803  1.2588  1.9638
10519SOL    HW232978   2.929   0.683   0.686  0.7305  1.3188  0.0023
10520SOL     OW32979   2.563   1.492   1.388  0.1801  0.2673  0.2942
10520SOL    HW132980   2.491   1.551   1.366 -1.1225 -0.8460  1.3248
10520SOL    HW232981   2.542   1.411   1.341  1.5841  0.3794 -0.5851
10521SOL     OW32982   2.720   5.664   2.732 -0.4349  0.4166 -0.0877
10521SOL    HW132983   2.707   5.670   2.638  1.1474  0.5000 -0.3409
10521SOL    HW232984   2.733   5.570   2.749 -0.4693  0.4273 -0.0041
10522SOL     OW32985   6.424   0.925   7.177  0.0375  0.5431  0.2229
10522SOL    HW132986   6.419   0.862   7.105  0.3070 -0.2712  0.8886
10522SOL    HW232987   6.516   0.949   7.182  0.6073 -1.6470  2.0950
10523SOL     OW32988   7.922   4.771   1.524 -0.1554  0.1951 -0.1627
10523SOL    HW132989   7.862   4.699   1.546 -0.2670  0.6686  1.2114
10523SOL    HW232990   7.918   4.829   1.600  1.8315  0.3975 -0.1589
10524SOL     OW32991   5.781   0.827   3.989  0.0078 -0.1570  0.2697
10524SOL    HW132992   5.719   0.894   4.019  1.5977  1.0942  0.8889
10524SOL    HW232993   5.815   0.862   3.907 -0.5280 -1.1359 -0.3871
10525SOL     OW32994   7.171   1.727   6.869  0.0118 -0.4420 -0.3510
10525SOL    HW132995   7.107   1.731   6.798  1.6756  1.4984 -1.8941
10525SOL    HW232996   7.253   1.702   6.826  0.6666 -1.2882  1.2781
10526SOL     OW32997   1.070   4.591   3.144 -0.2439  0.5169 -0.3757
10526SOL    HW132998   1.017   4.602   3.223 -1.3737  0.2387 -1.0664
10526SOL    HW232999   1.160   4.599   3.174 -0.5451 -1.4103  1.2729
10527SOL     OW33000   7.392   6.679   6.089  0.8222 -0.7676 -0.3723
10527SOL    HW133001   7.443   6.752   6.053  0.5273 -1.0870 -1.4925
10527SOL    HW233002   7.458   6.620   6.126  1.2373 -0.9309 -1.3493
10528SOL     OW33003   1.713   0.585   1.034 -0.0737  0.0230  0.2678
10528SOL    HW133004   1.641   0.647   1.051 -1.4669 -1.9095  1.8251
10528SOL    HW233005   1.754   0.619   0.954 -2.6904  1.2798 -0.6923
10529SOL     OW33006   6.589   5.459   1.435 -0.2985  0.6097 -0.6946
10529SOL    HW133007   6.653   5.511   1.386 -0.5215  1.6002  0.0564
10529SOL    HW233008   6.590   5.495   1.523 -0.9158 -0.2555 -0.3161
10530SOL     OW33009   0.125   3.297   2.992 -0.3534 -0.2030 -0.1110
10530SOL    HW133010   0.186   3.291   3.065  0.0395  0.5330 -0.3671
10530SOL    HW233011   0.074   3.215   2.996  1.4578 -1.4167 -0.6170
10531SOL     OW33012   6.192   6.561   4.645 -0.4871 -0.6843  0.4340
10531SOL    HW133013   6.151   6.603   4.569 -1.6685 -1.0501  0.8426
10531SOL    HW233014   6.246   6.630   4.684  0.2257 -0.5238 -0.7901
10532SOL     OW33015   6.646   3.401   3.514 -0.0635 -0.3868  0.3192
10532SOL    HW133016   6.669   3.315   3.548 -0.5218 -1.1590 -1.2340
10532SOL    HW233017   6.672   3.398   3.422 -0.5387  0.9640  0.1212
10533SOL     OW33018   2.374   4.769   5.340  0.0420 -0.2217 -0.5496
10533SOL    HW133019   2.425   4.820   5.278  0.3632  0.3805  0.2029
10533SOL    HW233020   2.356   4.686   5.294  0.2187  0.2336 -1.4565
10534SOL     OW33021   2.813   1.836   1.837  0.2775 -0.1095  0.0491
10534SOL    HW133022   2.891   1.849   1.783  0.1944 -0.0747 -0.0644
10534SOL    HW233023   2.751   1.794   1.778 -0.3861  1.3840 -0.3640
10535SOL     OW33024   7.165   6.949   5.463  0.1868  0.2496  0.2197
10535SOL    HW133025   7.217   6.999   5.401 -0.0744 -0.5421 -0.6605
10535SOL    HW233026   7.166   6.860   5.429 -1.2875  0.1036  0.4639
10536SOL     OW33027   7.706   7.716   7.286 -0.0556  0.6464  0.0940
10536SOL    HW133028   7.700   7.779   7.357 -2.3959 -0.3409  0.8539
10536SOL    HW233029   7.621   7.720   7.243 -0.1511 -1.7344 -0.0420
10537SOL     OW33030   7.359   4.134   1.848  0.0704 -0.0017 -0.3292
10537SOL    HW133031   7.352   4.043   1.879 -0.9357  0.3324  0.4718
10537SOL    HW233032   7.452   4.145   1.829  0.2312 -1.1639 -0.3178
10538SOL     OW33033   1.850   0.404   3.475 -0.8534  0.0272 -0.1897
10538SOL    HW133034   1.857   0.499   3.464 -0.6213  0.2439  1.5706
10538SOL    HW233035   1.759   0.384   3.450 -1.8194  1.1773  2.0790
10539SOL     OW33036   0.349   4.518   2.332  0.0666  0.2411 -0.0911
10539SOL    HW133037   0.328   4.462   2.406  0.3871 -0.0695 -0.2327
10539SOL    HW233038   0.422   4.572   2.362  0.2665  0.0416 -0.2131
10540SOL     OW33039   6.523   4.598   0.975 -0.4023  0.3470  0.2603
10540SOL    HW133040   6.550   4.558   0.893 -1.2128 -0.0999  0.2033
10540SOL    HW233041   6.458   4.537   1.011  0.1345  0.4011  1.3591
10541SOL     OW33042   6.767   2.088   3.037  0.4865 -0.4174  0.5626
10541SOL    HW133043   6.713   2.164   3.058  0.9147  0.0328  0.0610
10541SOL    HW233044   6.716   2.038   2.974  0.5436 -0.1351  0.2939
10542SOL     OW33045   1.344   1.546   8.227  0.0715  0.0999  0.4951
10542SOL    HW133046   1.412   1.486   8.196  0.7499  0.6428  0.8979
10542SOL    HW233047   1.335   1.528   8.320 -0.2858  0.0882  0.4623
10543SOL     OW33048   2.590   6.920   7.113 -0.3651  0.4323 -0.3242
10543SOL    HW133049   2.543   6.836   7.116 -0.4720  0.5154  1.9606
10543SOL    HW233050   2.602   6.944   7.205  3.4406  0.8437 -0.7711
10544SOL     OW33051   5.744   8.303   5.709  0.2175 -0.3016  0.5158
10544SOL    HW133052   5.715   8.352   5.632  0.5048 -1.0640 -0.0869
10544SOL    HW233053   5.812   8.358   5.748  0.6510 -0.2936 -0.2403
10545SOL     OW33054   1.014   1.041   4.122 -1.1535  0.5764  0.3332
10545SOL    HW133055   0.952   1.072   4.056 -1.4798 -1.0389 -0.1412
10545SOL    HW233056   1.097   1.082   4.096 -1.7083  1.6576  0.1835
10546SOL     OW33057   2.767   3.871   1.842 -0.3069  1.0750  0.2342
10546SOL    HW133058   2.858   3.895   1.826 -0.0228 -0.0807 -0.0123
10546SOL    HW233059   2.719   3.906   1.767  0.4676 -1.1642 -1.4153
10547SOL     OW33060   2.752   4.362   1.503  0.0504  0.3357  0.3025
10547SOL    HW133061   2.743   4.292   1.438  1.5075  1.2594 -0.9760
10547SOL    HW233062   2.825   4.334   1.559 -0.4046  0.1149  0.7975
10548SOL     OW33063   4.811   3.812   0.754 -1.0244 -0.0200  0.2192
10548SOL    HW133064   4.901   3.843   0.740 -0.7860 -0.8836 -0.3055
10548SOL    HW233065   4.797   3.818   0.848 -0.6352  0.7060  0.2326
10549SOL     OW33066   5.819   1.108   5.311  0.2143  0.0384  0.3346
10549SOL    HW133067   5.902   1.146   5.341  1.0474 -0.9503 -0.6365
10549SOL    HW233068   5.752   1.170   5.341  1.1775  0.2186  2.2373
10550SOL     OW33069   4.760   5.363   0.541 -0.0511  0.5284 -0.3221
10550SOL    HW133070   4.822   5.327   0.477 -0.3458  0.1216 -0.3813
10550SOL    HW233071   4.677   5.318   0.523 -0.9477  2.5913 -1.6449
10551SOL     OW33072   3.444   5.845   4.977 -0.2473  0.1565 -0.0333
10551SOL    HW133073   3.379   5.829   5.045  0.5833  1.1895  1.0392
10551SOL    HW233074   3.492   5.762   4.970 -2.1788 -0.9387 -1.4936
10552SOL     OW33075   6.356   6.523   6.291  0.3673 -0.5471 -0.7133
10552SOL    HW133076   6.408   6.455   6.247  1.4449 -0.1254 -0.1402
10552SOL    HW233077   6.413   6.555   6.361  0.6554  2.1937 -2.0377
10553SOL     OW33078   1.415   5.680   7.911  0.5819 -0.0562  0.3930
10553SOL    HW133079   1.437   5.753   7.853 -1.2785  0.0558 -0.2386
10553SOL    HW233080   1.444   5.602   7.864  1.5293  0.1985  0.5455
10554SOL     OW33081   6.148   7.134   4.000  0.3835  0.0240 -0.2685
10554SOL    HW133082   6.136   7.040   3.997  0.5085 -0.0039  0.0545
10554SOL    HW233083   6.196   7.155   3.920  1.1514 -0.3035  0.0957
10555SOL     OW33084   6.170   2.354   0.693 -0.3186 -0.3083  0.2007
10555SOL    HW133085   6.110   2.317   0.628  0.7523 -1.1032 -0.3847
10555SOL    HW233086   6.114   2.386   0.763 -1.5391  0.9482 -1.2839
10556SOL     OW33087   0.350   7.191   5.162  0.1446 -0.2692  0.9991
10556SOL    HW133088   0.278   7.160   5.217 -0.0525  0.5416  1.2056
10556SOL    HW233089   0.423   7.201   5.223  0.3592 -0.8060  0.8406
10557SOL     OW33090   6.616   1.887   2.865  0.7308 -0.2837 -0.1185
10557SOL    HW133091   6.699   1.864   2.823  0.2145 -0.7471 -0.9172
10557SOL    HW233092   6.576   1.803   2.885  0.8678 -0.0690  1.1450
10558SOL     OW33093   8.121   7.549   3.294  0.8173 -0.2909  0.4465
10558SOL    HW133094   8.090   7.618   3.235 -1.7647 -1.0748  0.7749
10558SOL    HW233095   8.175   7.493   3.239  1.0538  0.7261 -0.3850
10559SOL     OW33096   6.548   5.520   5.956  0.1343  0.1011 -0.5453
10559SOL    HW133097   6.486   5.563   6.015 -0.0992 -0.9081 -0.0439
10559SOL    HW233098   6.632   5.525   6.002 -0.2676 -1.7617  0.4719
10560SOL     OW33099   4.572   2.721   7.646  0.0492 -0.4666 -0.5525
10560SOL    HW133100   4.628   2.752   7.574 -0.4939 -0.9267 -1.1873
10560SOL    HW233101   4.489   2.699   7.603 -0.0547 -1.3994  0.1198
10561SOL     OW33102   2.618   5.198   7.999  0.3468  0.0394 -0.7013
10561SOL    HW133103   2.610   5.158   7.912  1.0044 -2.3988  0.2766
10561SOL    HW233104   2.565   5.142   8.056  1.7422  0.2487  0.8550
10562SOL     OW33105   7.234   5.122   3.111 -0.4888  0.3192  0.5721
10562SOL    HW133106   7.201   5.207   3.143 -1.9183 -0.7470  2.1285
10562SOL    HW233107   7.172   5.097   3.043 -0.3198  0.3224  0.4177
10563SOL     OW33108   4.102   7.650   8.153  0.6212 -0.5127 -0.0947
10563SOL    HW133109   4.166   7.720   8.139  0.0526 -0.2025 -1.2240
10563SOL    HW233110   4.091   7.610   8.067  0.4897 -1.6200  0.4113
10564SOL     OW33111   2.557   1.550   2.685 -0.3800  0.4101  0.4102
10564SOL    HW133112   2.555   1.457   2.663 -0.1975  0.4521  0.2220
10564SOL    HW233113   2.466   1.579   2.672 -0.4608  0.2343  0.5770
10565SOL     OW33114   7.417   6.706   4.579  0.1398  0.0399  0.3939
10565SOL    HW133115   7.389   6.653   4.504  0.8158 -0.5407  0.5439
10565SOL    HW233116   7.339   6.712   4.634  0.2855 -1.6057  0.8329
10566SOL     OW33117   3.427   0.811   3.851  0.3161  0.0130  0.3091
10566SOL    HW133118   3.426   0.812   3.755  2.7129  1.1882  0.2110
10566SOL    HW233119   3.451   0.900   3.876 -0.0226 -0.3299  2.0112
10567SOL     OW33120   7.992   2.372   0.507 -0.1793  0.0964  0.4057
10567SOL    HW133121   7.896   2.366   0.509 -0.0956 -2.6158 -0.5808
10567SOL    HW233122   8.022   2.294   0.552  1.5440 -0.5540 -1.7258
10568SOL     OW33123   2.308   1.880   4.318 -0.6587 -1.0687  0.1523
10568SOL    HW133124   2.355   1.955   4.283 -0.4136 -0.1519  2.2990
10568SOL    HW233125   2.225   1.879   4.270 -0.1312 -0.2323 -0.8091
10569SOL     OW33126   5.467   4.573   0.205 -0.1710 -0.1635 -0.3991
10569SOL    HW133127   5.399   4.559   0.139  0.4099 -0.0635 -1.0244
10569SOL    HW233128   5.537   4.617   0.158 -0.3671  1.3268  0.6302
10570SOL     OW33129   0.857   0.232   5.585 -0.3465  0.2952 -0.3646
10570SOL    HW133130   0.901   0.315   5.566 -1.6733  0.9153 -0.7927
10570SOL    HW233131   0.894   0.171   5.522 -0.5403  0.9556 -1.1372
10571SOL     OW33132   7.654   4.467   4.289  0.3096 -0.0080 -0.2631
10571SOL    HW133133   7.586   4.406   4.261 -0.0055  1.2197 -2.4747
10571SOL    HW233134   7.614   4.515   4.362 -0.4761 -0.5829 -0.2984
10572SOL     OW33135   4.426   3.444   7.590  0.4323 -0.2434  0.4749
10572SOL    HW133136   4.403   3.437   7.682 -2.5647 -1.7945 -0.2966
10572SOL    HW233137   4.413   3.537   7.569  0.9256  0.0759  1.4966
10573SOL     OW33138   1.678   4.021   6.708  0.5174 -0.1686  0.0110
10573SOL    HW133139   1.754   4.043   6.761 -0.5761  0.5278  1.3213
10573SOL    HW233140   1.630   4.103   6.698  0.0668 -0.5402 -1.0381
10574SOL     OW33141   3.782   4.959   2.705 -0.1774 -0.6274  0.0899
10574SOL    HW133142   3.723   5.014   2.756  2.0105  1.6207  0.3942
10574SOL    HW233143   3.738   4.948   2.621 -1.4094  0.2335  0.6025
10575SOL     OW33144   6.349   6.178   5.012 -0.2775  0.0620 -0.1674
10575SOL    HW133145   6.304   6.097   4.988  1.0504 -0.6201 -0.3996
10575SOL    HW233146   6.320   6.241   4.946 -1.4283 -0.1628  0.0934
10576SOL     OW33147   4.678   6.197   1.402 -0.8177  0.1723  0.1674
10576SOL    HW133148   4.714   6.111   1.423 -0.5580  0.2850  0.1884
10576SOL    HW233149   4.611   6.179   1.336 -0.0307  0.0645 -0.6132
10577SOL     OW33150   4.518   2.608   3.201 -0.0981  0.4428 -0.2282
10577SOL    HW133151   4.483   2.579   3.285  1.9512 -0.4460  0.3793
10577SOL    HW233152   4.489   2.699   3.192 -0.1950  0.6115  1.5243
10578SOL     OW33153   4.638   6.902   4.971  0.2128 -0.0314 -0.0483
10578SOL    HW133154   4.556   6.857   4.950  0.0478  0.6014 -0.8033
10578SOL    HW233155   4.699   6.874   4.903  1.2141 -1.9714  1.5511
10579SOL     OW33156   6.888   5.972   6.749  0.0244 -0.4187 -0.1847
10579SOL    HW133157   6.868   5.910   6.820 -2.6016  1.2293  0.6899
10579SOL    HW233158   6.900   6.056   6.794 -1.0241  0.5356 -1.6022
10580SOL     OW33159   3.405   7.043   8.331 -0.0549 -0.4153  0.6065
10580SOL    HW133160   3.344   7.093   8.385 -1.0705 -0.0952 -0.7945
10580SOL    HW233161   3.363   6.958   8.319  0.5216 -0.7532  0.9332
10581SOL     OW33162   4.708   5.838   0.355 -0.9175  0.3343  0.6620
10581SOL    HW133163   4.727   5.932   0.361  0.8513  0.0934 -0.6072
10581SOL    HW233164   4.763   5.798   0.422 -0.1693  0.0387 -0.1128
10582SOL     OW33165   7.754   7.024   1.016 -0.0704 -0.0557 -0.4084
10582SOL    HW133166   7.825   7.026   0.952 -1.1373 -2.4016 -1.7943
10582SOL    HW233167   7.712   7.110   1.009  0.7732  0.2668 -1.7589
10583SOL     OW33168   2.847   0.986   2.577  0.3644  0.4578 -0.3203
10583SOL    HW133169   2.789   1.029   2.514  1.6626  1.5102 -0.8553
10583SOL    HW233170   2.816   1.016   2.663 -1.5492 -1.1526 -0.3897
10584SOL     OW33171   8.067   4.308   1.154  0.0693  0.6070  0.4048
10584SOL    HW133172   7.997   4.368   1.179 -0.6692 -0.3201  0.6392
10584SOL    HW233173   8.135   4.322   1.220 -0.1140  1.1392  0.4860
10585SOL     OW33174   5.333   1.497   3.585 -0.0503 -0.6274  0.0754
10585SOL    HW133175   5.378   1.581   3.571  0.4711 -1.0891 -1.1833
10585SOL    HW233176   5.404   1.433   3.595 -0.4422 -0.8849  1.3651
10586SOL     OW33177   8.261   2.071   4.791 -0.0129  0.3859 -0.1093
10586SOL    HW133178   8.310   2.142   4.832 -1.7988  1.1668  0.7531
10586SOL    HW233179   8.204   2.038   4.860  0.2487 -1.4161 -0.7114
10587SOL     OW33180   7.646   0.883   0.073 -0.6940 -0.1327 -0.0882
10587SOL    HW133181   7.632   0.909   0.165 -4.9673 -0.8290 -0.3129
10587SOL    HW233182   7.630   0.789   0.072 -0.1345 -0.2352 -1.4923
10588SOL     OW33183   0.842   7.296   0.011 -0.0332  0.0797 -0.3231
10588SOL    HW133184   0.884   7.218  -0.024 -0.6971 -0.6016  0.3480
10588SOL    HW233185   0.914   7.350   0.044  0.5032  0.2096 -1.6664
10589SOL     OW33186   3.269   1.388   6.178  0.6999  0.5033  0.0193
10589SOL    HW133187   3.329   1.335   6.231 -0.1168  0.2834  0.7435
10589SOL    HW233188   3.204   1.325   6.147  0.5119  0.8426 -0.2767
10590SOL     OW33189   3.538   5.270   6.505  0.4899 -0.6469 -0.3122
10590SOL    HW133190   3.579   5.352   6.480 -0.5249  1.1836  3.3975
10590SOL    HW233191   3.464   5.261   6.444 -0.4066  2.1469  0.2372
10591SOL     OW33192   4.668   3.510   0.903  0.2905  0.1381 -0.3391
10591SOL    HW133193   4.590   3.490   0.955  0.0526 -0.3348 -0.8744
10591SOL    HW233194   4.636   3.555   0.826  0.5253 -0.2522 -0.6665
10592SOL     OW33195   1.185   1.659   6.285 -0.1116 -0.1456  0.1131
10592SOL    HW133196   1.158   1.573   6.254 -1.5282  1.0768 -2.3208
10592SOL    HW233197   1.256   1.685   6.226  2.0251 -0.5507  2.3375
10593SOL     OW33198   7.474   6.357   2.236 -0.2943 -0.9018 -0.1062
10593SOL    HW133199   7.492   6.369   2.329  0.9268 -1.9096 -0.1823
10593SOL    HW233200   7.487   6.263   2.221  0.6647 -0.5714 -1.4972
10594SOL     OW33201   1.662   0.973   1.750  0.1766 -0.2695  0.0464
10594SOL    HW133202   1.663   0.970   1.845 -1.0702  1.1713  0.1441
10594SOL    HW233203   1.635   0.884   1.724  1.2222 -0.8872  0.9740
10595SOL     OW33204   0.793   8.334   1.530  0.2607 -0.2346  0.4991
10595SOL    HW133205   0.749   8.355   1.448  0.5107 -1.0687  0.1431
10595SOL    HW233206   0.886   8.341   1.509  0.3647 -2.0660  0.2502
10596SOL     OW33207   0.948   2.654   3.199  0.7975 -0.0751 -0.1752
10596SOL    HW133208   0.860   2.691   3.210  1.2800  0.8423  0.8568
10596SOL    HW233209   0.961   2.649   3.105 -0.0690  0.5168 -0.3345
10597SOL     OW33210   8.285   3.907   1.038 -0.1977 -0.1272  0.2143
10597SOL    HW133211   8.267   3.985   0.985 -0.5411 -0.4638 -0.1682
10597SOL    HW233212   8.247   3.927   1.124  1.2672  0.8443  0.6703
10598SOL     OW33213   1.044   3.522   1.073  0.1599 -0.5632  0.3146
10598SOL    HW133214   1.075   3.609   1.047  1.0930 -1.2023 -0.7854
10598SOL    HW233215   1.124   3.469   1.080 -0.3379 -1.1889  1.6049
10599SOL     OW33216   4.357   4.398   3.404  0.0370 -0.4385  0.2630
10599SOL    HW133217   4.323   4.472   3.353  2.6922  2.2348  2.0812
10599SOL    HW233218   4.279   4.358   3.442 -1.4593  3.2007  1.4597
10600SOL     OW33219   5.703   5.673   2.319  0.4111 -0.1390 -0.0873
10600SOL    HW133220   5.747   5.754   2.341  1.2447 -0.8626  1.0054
10600SOL    HW233221   5.690   5.678   2.224  1.4078  0.7944 -0.1879
10601SOL     OW33222   1.950   2.902   6.519 -0.4701  0.6392  0.2311
10601SOL    HW133223   2.038   2.937   6.508 -1.5266  3.3963 -0.2470
10601SOL    HW233224   1.900   2.938   6.446 -1.5222 -2.9191 -1.0541
10602SOL     OW33225   2.303   5.389   4.888 -0.9434  0.1688  0.0060
10602SOL    HW133226   2.306   5.482   4.911 -2.6149  0.9355 -2.4521
10602SOL    HW233227   2.389   5.356   4.913 -0.1644  2.4407  0.6458
10603SOL     OW33228   3.129   1.700   7.004 -0.1011  0.2112 -0.4241
10603SOL    HW133229   3.074   1.752   7.063  0.1671  1.8637 -1.5477
10603SOL    HW233230   3.214   1.744   7.006 -0.1877  0.5495 -2.2774
10604SOL     OW33231   1.350   2.082   0.706  0.1842  0.6515 -0.4024
10604SOL    HW133232   1.280   2.135   0.666  0.1402  0.4796 -0.5548
10604SOL    HW233233   1.417   2.076   0.638  0.0283  0.2012 -0.5182
10605SOL     OW33234   4.582   2.385   4.205 -0.9218 -0.1634 -0.5574
10605SOL    HW133235   4.543   2.360   4.121  1.8678  0.4809 -2.1839
10605SOL    HW233236   4.672   2.354   4.199 -0.5074  0.3679  2.0202
10606SOL     OW33237   0.870   2.414   4.032 -0.0193 -0.0838  0.5949
10606SOL    HW133238   0.806   2.423   4.103 -1.0007  0.9954 -0.3928
10606SOL    HW233239   0.954   2.437   4.072 -0.5913  0.7322  1.3657
10607SOL     OW33240   4.395   5.589   0.309  0.1559  0.2479  0.0966
10607SOL    HW133241   4.386   5.494   0.313 -0.3047  0.1786 -1.7422
10607SOL    HW233242   4.477   5.604   0.263  0.7156  0.7664  1.2388
10608SOL     OW33243   4.301   6.844   7.934  0.0525  0.4791  0.1270
10608SOL    HW133244   4.387   6.879   7.956 -0.6965  1.4520  1.7002
10608SOL    HW233245   4.250   6.853   8.014 -1.6212  0.2196 -0.8515
10609SOL     OW33246   1.830   6.681   2.001 -0.8792 -0.2498  0.3446
10609SOL    HW133247   1.875   6.765   2.006  0.7696 -1.1409  1.8605
10609SOL    HW233248   1.765   6.684   2.072  0.7671 -1.0511  1.9666
10610SOL     OW33249   4.149   6.563   0.436 -0.2834  0.1253 -0.5637
10610SOL    HW133250   4.201   6.569   0.515 -1.1461 -0.8483  0.1088
10610SOL    HW233251   4.164   6.645   0.390  0.3360  0.6435  0.5406
10611SOL     OW33252   5.820   4.993   4.357 -0.3047 -0.2499  0.0217
10611SOL    HW133253   5.856   4.919   4.308 -0.3554  0.0612 -0.4798
10611SOL    HW233254   5.729   5.000   4.327 -0.7627 -0.9255  1.1598
10612SOL     OW33255   3.205   6.324   5.928 -0.0918 -1.0968 -0.1297
10612SOL    HW133256   3.208   6.242   5.880  2.2191 -0.8707 -0.4847
10612SOL    HW233257   3.269   6.380   5.884  0.5344 -0.1283  1.8897
10613SOL     OW33258   4.751   0.870   2.527  0.4082  0.1938  0.4229
10613SOL    HW133259   4.780   0.861   2.436 -1.3529 -0.8700 -0.0938
10613SOL    HW233260   4.811   0.816   2.578  1.4728  0.8757 -0.0724
10614SOL     OW33261   7.402   0.445   1.824 -0.4279  0.0984 -0.1389
10614SOL    HW133262   7.369   0.534   1.841 -0.1050  0.3446 -0.7779
10614SOL    HW233263   7.370   0.393   1.898 -0.4380  0.7926  0.3546
10615SOL     OW33264   5.878   1.562   4.258  0.2745 -0.3963 -0.3014
10615SOL    HW133265   5.893   1.621   4.332 -0.6004 -0.0535 -0.3879
10615SOL    HW233266   5.941   1.591   4.191  0.5873 -0.2594  0.0477
10616SOL     OW33267   2.735   5.105   5.498  0.0235 -0.8268  0.5084
10616SOL    HW133268   2.697   5.021   5.524  0.1236 -0.8862  0.4586
10616SOL    HW233269   2.826   5.086   5.477 -0.7162 -1.3170 -2.6646
10617SOL     OW33270   0.625   6.333   0.319  0.5508 -0.0916 -0.0640
10617SOL    HW133271   0.558   6.361   0.256 -0.8502 -1.6632  0.6338
10617SOL    HW233272   0.634   6.407   0.379  2.3024  1.6634 -2.2973
10618SOL     OW33273   2.285   7.336   8.210 -0.3787 -0.7697 -0.2509
10618SOL    HW133274   2.315   7.282   8.137 -1.8361  0.7600 -2.0560
10618SOL    HW233275   2.366   7.358   8.258  0.5000 -2.5412 -0.8271
10619SOL     OW33276   0.140   5.816   3.794  0.0338  0.0128 -0.5081
10619SOL    HW133277   0.047   5.815   3.772  0.3847 -2.2728 -2.1840
10619SOL    HW233278   0.178   5.746   3.741  2.8615  1.3989 -0.4869
10620SOL     OW33279   1.238   2.372   2.980  0.2222  0.2983 -0.4712
10620SOL    HW133280   1.285   2.455   2.993 -0.9976  1.1473 -1.1820
10620SOL    HW233281   1.305   2.310   2.953  1.4164  0.6612  1.4635
10621SOL     OW33282   4.252   3.119   1.211  0.3072 -0.2243 -0.4574
10621SOL    HW133283   4.171   3.127   1.261  0.2537 -0.1940 -0.5489
10621SOL    HW233284   4.321   3.142   1.274  0.5136 -3.0108  0.4936
10622SOL     OW33285   7.055   3.484   8.357  0.2570 -0.2324  0.3284
10622SOL    HW133286   7.059   3.573   8.393  0.4790  0.0670 -0.4215
10622SOL    HW233287   6.962   3.464   8.352  0.1084  0.6584 -1.1499
10623SOL     OW33288   5.318   7.593   4.263 -0.1759 -0.1120 -0.0772
10623SOL    HW133289   5.348   7.650   4.334  0.9703 -0.5271 -0.2208
10623SOL    HW233290   5.249   7.540   4.304  0.3821 -0.2559  0.6947
10624SOL     OW33291   0.248   1.371   4.625  0.3372  0.0396 -0.4368
10624SOL    HW133292   0.202   1.333   4.699  1.2209 -0.4828 -0.1390
10624SOL    HW233293   0.312   1.304   4.599 -1.0501 -0.5088 -2.7390
10625SOL     OW33294   7.629   6.836   6.017  0.6250 -0.5552 -0.0564
10625SOL    HW133295   7.644   6.782   5.939  0.9097 -1.9070  0.9111
10625SOL    HW233296   7.716   6.850   6.054  0.3812 -0.8180  0.6170
10626SOL     OW33297   3.918   4.649   7.694  0.1574  0.3989  0.1462
10626SOL    HW133298   3.930   4.571   7.748  2.5501 -0.8199 -1.9041
10626SOL    HW233299   3.974   4.716   7.735  2.8662 -0.8524 -1.2413
10627SOL     OW33300   8.013   1.814   8.291 -0.0079 -0.0678  0.7249
10627SOL    HW133301   8.090   1.824   8.348  0.1742  0.4400  0.4011
10627SOL    HW233302   8.042   1.756   8.221  1.3036  2.9278 -1.4328
10628SOL     OW33303   8.230   7.688   6.505  0.0499 -0.3926  0.1386
10628SOL    HW133304   8.162   7.661   6.443 -0.0353  0.9475 -0.3795
10628SOL    HW233305   8.232   7.783   6.497  1.5717 -0.3762  0.5978
10629SOL     OW33306   3.278   1.448   7.080  0.1714  0.4338  0.2396
10629SOL    HW133307   3.366   1.426   7.049 -0.0900 -0.7987  0.3273
10629SOL    HW233308   3.265   1.539   7.052  1.3228  0.5113 -0.1007
10630SOL     OW33309   2.587   7.344   4.197 -0.4349  0.3170 -0.0661
10630SOL    HW133310   2.579   7.292   4.277 -0.3440  0.9138  0.3359
10630SOL    HW233311   2.641   7.419   4.222  1.8742 -0.8097 -1.3323
10631SOL     OW33312   6.949   1.724   2.957 -0.5845  0.0243  0.4532
10631SOL    HW133313   7.013   1.707   3.026  0.1800 -0.9728 -0.4749
10631SOL    HW233314   6.865   1.704   2.997 -0.1338 -0.7490  1.0400
10632SOL     OW33315   2.693   0.453   6.435  0.5566 -0.4416  0.6306
10632SOL    HW133316   2.716   0.475   6.345 -0.9671 -0.3320  0.2392
10632SOL    HW233317   2.638   0.526   6.464 -0.6136 -1.4000  0.9471
10633SOL     OW33318   4.419   6.062   5.228  0.3561 -0.0336 -0.2111
10633SOL    HW133319   4.388   6.074   5.138  1.1290 -0.6199 -0.5681
10633SOL    HW233320   4.339   6.062   5.281 -0.2955 -1.6571 -1.1214
10634SOL     OW33321   3.086   7.820   6.419 -0.5203 -0.6536 -0.3200
10634SOL    HW133322   3.147   7.893   6.431 -1.0726  0.1543 -2.0860
10634SOL    HW233323   2.999   7.861   6.423 -0.8227 -1.0461 -2.1009
10635SOL     OW33324   0.840   7.499   2.299 -0.1328 -0.2386  0.4565
10635SOL    HW133325   0.783   7.450   2.359 -0.7962 -0.8064 -0.6091
10635SOL    HW233326   0.914   7.441   2.283 -0.9306 -0.9551 -0.8252
10636SOL     OW33327   2.315   5.060   0.892 -0.1127 -0.1990 -0.0633
10636SOL    HW133328   2.240   5.061   0.834 -0.2293 -1.6462  0.0257
10636SOL    HW233329   2.386   5.099   0.841 -0.0819 -1.8940 -1.3838
10637SOL     OW33330   6.114   6.213   7.361 -0.2174 -0.1087 -0.0751
10637SOL    HW133331   6.128   6.230   7.454  0.3320  2.1763 -0.5170
10637SOL    HW233332   6.021   6.195   7.353 -0.2857 -0.2247  0.8988
10638SOL     OW33333   7.469   0.960   5.564 -0.0730 -0.4063 -0.1102
10638SOL    HW133334   7.455   0.894   5.497  0.3340  0.0302 -0.6426
10638SOL    HW233335   7.382   0.988   5.590 -0.2554  0.6300 -1.6907
10639SOL     OW33336   7.208   2.392   6.866 -0.1990 -0.1255 -0.7665
10639SOL    HW133337   7.262   2.383   6.788 -0.1186 -0.1218 -0.7118
10639SOL    HW233338   7.187   2.301   6.891  0.6184 -0.1833 -0.2119
10640SOL     OW33339   6.785   2.223   7.774  0.0225  0.3645  0.1704
10640SOL    HW133340   6.757   2.227   7.682  1.5343  1.6448 -0.2840
10640SOL    HW233341   6.867   2.174   7.772  0.3636  0.8965  0.7466
10641SOL     OW33342   8.187   0.210   4.096 -0.1708 -0.2775  0.5288
10641SOL    HW133343   8.160   0.246   4.012 -0.9527 -0.5379  0.6572
10641SOL    HW233344   8.142   0.265   4.161  0.9165  0.3222  0.8078
10642SOL     OW33345   3.792   4.545   4.920  0.2471  0.2757 -0.0667
10642SOL    HW133346   3.870   4.560   4.867 -1.5893  0.8017 -2.8172
10642SOL    HW233347   3.780   4.627   4.969  1.9988 -0.2383  1.3398
10643SOL     OW33348   5.774   7.579   3.777 -0.2965 -0.2050 -0.2880
10643SOL    HW133349   5.769   7.490   3.742 -0.8645 -0.5004  0.5118
10643SOL    HW233350   5.841   7.575   3.845 -0.6783 -0.1594  0.1008
10644SOL     OW33351   0.987   5.819   3.065  0.1042 -0.1819  0.2600
10644SOL    HW133352   0.917   5.766   3.104 -0.9421  0.7622 -0.3048
10644SOL    HW233353   0.946   5.903   3.046  1.2386  0.1865 -0.6437
10645SOL     OW33354   7.158   1.551   1.778 -0.1256  0.0014 -0.7171
10645SOL    HW133355   7.245   1.513   1.771 -0.8691 -2.2987  1.2381
10645SOL    HW233356   7.114   1.527   1.697  0.8613  0.7967 -1.5189
10646SOL     OW33357   6.217   7.230   1.011  0.5687  0.3952  0.0089
10646SOL    HW133358   6.180   7.291   0.948  0.5920  0.1964 -0.1992
10646SOL    HW233359   6.141   7.193   1.056  0.3970 -1.0661 -1.3889
10647SOL     OW33360   3.228   1.833   1.287 -0.0927  0.0161  0.2068
10647SOL    HW133361   3.229   1.914   1.237 -0.6323  0.4763  0.9128
10647SOL    HW233362   3.196   1.767   1.225  0.5933  0.2802 -0.4441
10648SOL     OW33363   1.008   0.734   7.552 -0.1882 -0.6883  0.0126
10648SOL    HW133364   0.929   0.687   7.575 -0.7703  0.8210  1.2584
10648SOL    HW233365   1.079   0.686   7.595 -0.6235 -1.0225  0.3548
10649SOL     OW33366   2.347   5.459   2.870 -0.3090 -0.1863 -0.1719
10649SOL    HW133367   2.366   5.497   2.956  1.7989  1.2648 -1.2129
10649SOL    HW233368   2.372   5.367   2.879  0.6714  0.1336  0.5381
10650SOL     OW33369   7.171   4.704   3.523  0.0699 -0.4043  0.0980
10650SOL    HW133370   7.237   4.724   3.589  1.3293  0.3125 -1.3284
10650SOL    HW233371   7.123   4.786   3.511  0.3631 -0.3070 -0.4321
10651SOL     OW33372   5.662   4.776   1.695  0.4946  0.7672 -0.6792
10651SOL    HW133373   5.580   4.769   1.646 -0.8503  0.4794  1.4353
10651SOL    HW233374   5.723   4.818   1.635 -1.1459  0.8359 -2.4006
10652SOL     OW33375   6.168   5.197   6.619  0.5022  0.0071 -0.6992
10652SOL    HW133376   6.080   5.196   6.658 -0.1086  0.2835 -2.0030
10652SOL    HW233377   6.217   5.260   6.672  0.4323 -1.3525  1.0571
10653SOL     OW33378   7.084   5.953   0.414 -0.3588 -0.1396 -0.1788
10653SOL    HW133379   7.009   5.898   0.437 -1.6107  0.8682 -1.6656
10653SOL    HW233380   7.047   6.025   0.363  1.3253  1.6398  0.9189
10654SOL     OW33381   7.778   6.430   7.342 -0.2487  0.2835  0.0417
10654SOL    HW133382   7.781   6.339   7.312  1.7205  0.1944  0.3894
10654SOL    HW233383   7.865   6.465   7.324 -0.3639  1.5339  1.6201
10655SOL     OW33384   4.956   2.302   6.932 -0.0614  0.6986  0.0378
10655SOL    HW133385   4.974   2.217   6.974 -0.0003  0.1680 -1.0201
10655SOL    HW233386   4.920   2.356   7.002  0.3232 -0.0599  0.8431
10656SOL     OW33387   2.288   7.145   6.665 -0.3181 -0.0951 -0.2361
10656SOL    HW133388   2.277   7.082   6.595 -0.6753  0.3729 -0.6070
10656SOL    HW233389   2.246   7.104   6.741  0.6211 -0.8747 -0.1168
10657SOL     OW33390   0.075   0.046   0.161  0.2594 -0.3877 -0.0235
10657SOL    HW133391   0.075   0.131   0.117  0.4992 -0.0280  0.6597
10657SOL    HW233392  -0.010   0.008   0.138  0.0481  0.1388 -0.1380
10658SOL     OW33393   0.963   2.127   0.926  0.0623  0.8461  0.0654
10658SOL    HW133394   0.920   2.179   0.859 -0.3473 -1.9216 -1.9915
10658SOL    HW233395   1.055   2.155   0.923 -0.1953  1.6324 -0.7827
10659SOL     OW33396   2.003   5.788   4.493  0.0238 -0.4681  0.2914
10659SOL    HW133397   2.087   5.792   4.447  0.1289 -1.0759  0.4251
10659SOL    HW233398   2.003   5.702   4.535 -1.8690 -1.7054 -2.0149
10660SOL     OW33399   1.866   7.882   1.553  0.2845 -0.1568  0.5224
10660SOL    HW133400   1.956   7.856   1.532  0.6064  0.3207  1.2886
10660SOL    HW233401   1.835   7.927   1.474  0.4426 -0.9843 -0.0308
10661SOL     OW33402   5.881   3.313   2.546 -0.2842  0.2197  0.3406
10661SOL    HW133403   5.963   3.349   2.580 -0.1985 -0.0667  0.4473
10661SOL    HW233404   5.905   3.272   2.463 -0.1066 -0.7602  0.8552
10662SOL     OW33405   7.810   1.665   2.266  0.7146  0.3114  0.1815
10662SOL    HW133406   7.747   1.668   2.338  0.3365  0.6101 -0.1623
10662SOL    HW233407   7.805   1.576   2.232 -0.3231  0.6461 -0.5607
10663SOL     OW33408   2.290   7.219   4.002 -0.0342 -0.2593  0.1521
10663SOL    HW133409   2.276   7.313   4.013  0.1856 -0.0316 -1.3103
10663SOL    HW233410   2.210   7.179   4.036 -0.9247  0.5709 -0.8876
10664SOL     OW33411   2.041   8.171   0.296 -0.0208  0.0970  0.3963
10664SOL    HW133412   2.127   8.213   0.289 -0.6247  1.1759 -1.2690
10664SOL    HW233413   2.047   8.095   0.237 -0.8927  1.5304 -1.6634
10665SOL     OW33414   0.106   6.983   1.558  0.5992  0.0718  0.0222
10665SOL    HW133415   0.144   7.038   1.490  0.0236  0.1308 -0.2535
10665SOL    HW233416   0.138   7.020   1.640  0.3023  0.7535 -0.1660
10666SOL     OW33417   3.730   7.974   8.161 -0.4187  0.0714  0.5173
10666SOL    HW133418   3.705   7.914   8.231  0.9785 -0.7969  0.3140
10666SOL    HW233419   3.693   7.936   8.082 -0.5716  0.1456  0.5524
10667SOL     OW33420   8.028   5.872   7.617 -0.5254  0.2549 -0.5267
10667SOL    HW133421   7.942   5.910   7.638 -0.6098  0.6676 -1.5822
10667SOL    HW233422   8.036   5.882   7.523  0.5546 -0.0823 -0.4768
10668SOL     OW33423   1.560   6.908   0.146 -0.2316  0.0116  0.0849
10668SOL    HW133424   1.568   6.901   0.241  2.0229  3.4334  0.2986
10668SOL    HW233425   1.618   6.840   0.112  0.9096  0.3732  1.2322
10669SOL     OW33426   0.308   5.415   2.932 -0.2648  0.2146  0.2936
10669SOL    HW133427   0.370   5.437   3.002 -1.0071 -0.3057  1.1433
10669SOL    HW233428   0.327   5.477   2.862 -0.2591  1.5024  1.4103
10670SOL     OW33429   3.786   7.465   6.484 -0.6122 -0.2418  0.1022
10670SOL    HW133430   3.844   7.537   6.460 -1.1100 -0.2625 -1.3186
10670SOL    HW233431   3.698   7.503   6.478 -0.8172 -0.6378  0.5984
10671SOL     OW33432   1.392   0.816   8.230 -0.0481  0.1288  0.2386
10671SOL    HW133433   1.383   0.728   8.266  0.5461 -0.5801 -1.2499
10671SOL    HW233434   1.312   0.830   8.180  0.4429 -0.1551 -0.6644
10672SOL     OW33435   4.080   1.599   3.036 -0.5441  0.0875 -0.1263
10672SOL    HW133436   3.987   1.608   3.056 -0.4332 -1.2758  1.1367
10672SOL    HW233437   4.112   1.532   3.097  1.2540  0.4796 -0.5750
10673SOL     OW33438   4.254   7.606   4.907 -0.0583 -0.3278  0.1013
10673SOL    HW133439   4.177   7.625   4.854 -0.5168 -2.1661  0.0399
10673SOL    HW233440   4.292   7.527   4.867  3.3401  1.8348 -1.4400
10674SOL     OW33441   4.409   3.407   0.982  0.4067  0.3194 -0.1060
10674SOL    HW133442   4.354   3.446   1.050 -2.7503  0.6636 -2.5980
10674SOL    HW233443   4.373   3.318   0.971  1.6979 -0.1768 -0.4825
10675SOL     OW33444   6.437   0.320   5.566  0.5833 -0.3475  0.3557
10675SOL    HW133445   6.407   0.230   5.581  0.1023 -0.0351  1.3884
10675SOL    HW233446   6.362   0.375   5.587  1.1012  0.3332  0.4940
10676SOL     OW33447   1.708   2.809   0.923 -0.6698  0.2026  0.2950
10676SOL    HW133448   1.690   2.788   0.831 -0.5852 -0.2986  0.3878
10676SOL    HW233449   1.668   2.736   0.972 -1.2405  0.7707  0.6931
10677SOL     OW33450   0.232   2.960   6.080  0.0053 -0.1216 -0.2907
10677SOL    HW133451   0.322   2.991   6.079 -0.3756  1.0406  0.1034
10677SOL    HW233452   0.182   3.032   6.119 -1.0233 -0.9349 -0.0663
10678SOL     OW33453   7.436   6.726   5.492 -0.1120 -0.3656 -0.7343
10678SOL    HW133454   7.498   6.660   5.522  0.4637 -0.3261 -1.8263
10678SOL    HW233455   7.470   6.756   5.408 -0.5574  1.0686 -0.4338
10679SOL     OW33456   0.793   2.897   7.986  0.3075  0.2446  0.0716
10679SOL    HW133457   0.817   2.956   7.915 -0.4605  1.7497  1.0194
10679SOL    HW233458   0.848   2.819   7.972  2.0682  1.5513 -0.6665
10680SOL     OW33459   5.589   0.405   4.782  1.0538  0.5653  0.6069
10680SOL    HW133460   5.645   0.351   4.727 -0.3804  0.4283 -0.7895
10680SOL    HW233461   5.504   0.360   4.782  0.6968  1.1601  2.0308
10681SOL     OW33462   5.488   6.162   7.930  0.3917 -0.4489 -0.5103
10681SOL    HW133463   5.539   6.081   7.924  0.3930 -0.5392  0.4842
10681SOL    HW233464   5.553   6.231   7.937  0.4114 -0.2387 -2.3225
10682SOL     OW33465   1.025   5.981   6.265  0.3883  0.0989 -0.3635
10682SOL    HW133466   1.046   6.031   6.187  0.1965 -1.7883 -1.6857
10682SOL    HW233467   1.036   6.043   6.337  1.8164  1.5523 -1.7535
10683SOL     OW33468   2.885   3.741   2.917  0.0881 -0.1653  0.3786
10683SOL    HW133469   2.847   3.690   2.846 -0.0319  1.0792 -0.4817
10683SOL    HW233470   2.813   3.795   2.948  0.7327  1.0661 -0.2070
10684SOL     OW33471   0.901   2.443   4.777  0.0002 -0.6194  0.5655
10684SOL    HW133472   0.904   2.358   4.822  1.5820 -0.7316  0.3073
10684SOL    HW233473   0.880   2.422   4.686 -0.8761 -0.6077  0.7607
10685SOL     OW33474   7.869   1.666   0.606 -0.6135 -0.2783 -0.2483
10685SOL    HW133475   7.949   1.694   0.563 -0.0195 -0.1254  0.9117
10685SOL    HW233476   7.826   1.609   0.543 -0.4361  0.9685 -1.5401
10686SOL     OW33477   3.686   2.765   7.160  0.1964  0.5673  0.4593
10686SOL    HW133478   3.661   2.683   7.119 -1.4827  0.4935  1.5313
10686SOL    HW233479   3.604   2.813   7.171  0.9723  1.8410  1.0304
10687SOL     OW33480   2.154   3.787   3.490  0.0225  0.1580  0.7391
10687SOL    HW133481   2.093   3.748   3.553 -0.5396  0.9843  0.7265
10687SOL    HW233482   2.183   3.868   3.532  0.5044  0.1677  0.3996
10688SOL     OW33483   1.728   1.129   5.377 -0.2458 -0.1531  0.5210
10688SOL    HW133484   1.694   1.181   5.304  0.9869  0.7605  0.5757
10688SOL    HW233485   1.671   1.152   5.450 -0.1775  0.5458  0.3612
10689SOL     OW33486   0.107   3.628   8.172 -0.5672 -0.6960  0.4433
10689SOL    HW133487   0.167   3.575   8.225 -0.8293  1.2637  2.9107
10689SOL    HW233488   0.035   3.568   8.151  0.2642 -1.9578  1.0474
10690SOL     OW33489   6.396   7.536   1.222  0.3923  0.1602  0.2987
10690SOL    HW133490   6.371   7.598   1.290 -1.4497 -1.0594  0.8077
10690SOL    HW233491   6.331   7.549   1.153 -0.0468 -1.1833  0.4267
10691SOL     OW33492   5.681   8.127   3.439  0.3105 -0.3512 -0.3844
10691SOL    HW133493   5.661   8.089   3.353 -2.9801  0.7400 -0.2467
10691SOL    HW233494   5.661   8.220   3.429 -0.0322 -0.1868  1.5239
10692SOL     OW33495   7.135   6.988   6.204  0.3375 -0.1327 -0.4685
10692SOL    HW133496   7.184   7.044   6.144  0.0687 -0.9434 -1.4882
10692SOL    HW233497   7.194   6.975   6.279  1.6326 -0.9180 -1.5647
10693SOL     OW33498   1.724   8.241   3.207  0.0896  0.2752 -0.0125
10693SOL    HW133499   1.786   8.300   3.250  0.6870 -0.6203  0.3698
10693SOL    HW233500   1.746   8.247   3.114  1.7210 -1.1150  0.2498
10694SOL     OW33501   2.686   6.663   3.756 -0.0020  0.1344  0.2711
10694SOL    HW133502   2.775   6.629   3.762  0.4036  1.3887  2.1746
10694SOL    HW233503   2.631   6.586   3.742  1.3937 -0.6044 -1.5232
10695SOL     OW33504   1.001   6.933   4.021 -0.3713  0.2177  0.4222
10695SOL    HW133505   1.038   6.889   3.945 -1.0985 -0.4019  0.4136
10695SOL    HW233506   1.076   6.950   4.078  0.3517  1.7253 -0.9223
10696SOL     OW33507   6.207   0.437   7.245 -0.2609 -0.0861 -0.3312
10696SOL    HW133508   6.296   0.428   7.211 -0.2967  0.6952 -0.6332
10696SOL    HW233509   6.152   0.440   7.168 -0.3842  1.2401 -0.2019
10697SOL     OW33510   0.369   1.617   4.775  0.1423 -0.8350  0.2711
10697SOL    HW133511   0.373   1.550   4.706  1.5728 -1.0978  0.5726
10697SOL    HW233512   0.457   1.617   4.814  0.0033  0.8003  0.6848
10698SOL     OW33513   8.106   0.443   0.724 -0.5637  0.2551  0.0549
10698SOL    HW133514   8.050   0.479   0.656 -1.1590  0.2173  0.5232
10698SOL    HW233515   8.112   0.512   0.790  0.9301  0.7315 -0.5362
10699SOL     OW33516   4.614   2.088   4.943 -0.2618  0.1690 -0.0633
10699SOL    HW133517   4.597   2.027   5.014 -1.7007  0.6654  0.0681
10699SOL    HW233518   4.583   2.043   4.865  1.9206 -0.6426 -0.5274
10700SOL     OW33519   5.633   4.604   1.351 -0.5140 -0.0445 -0.2776
10700SOL    HW133520   5.678   4.651   1.280  0.4811 -1.1159 -0.3946
10700SOL    HW233521   5.565   4.664   1.380  1.5520  2.0719  0.5163
10701SOL     OW33522   2.677   5.923   3.135 -0.3992  0.5165  0.3483
10701SOL    HW133523   2.598   5.939   3.187 -0.1738  1.0425  0.5334
10701SOL    HW233524   2.740   5.887   3.197 -1.2936 -2.4370 -0.2950
10702SOL     OW33525   5.448   4.717   4.888  0.1276  0.5383 -0.7244
10702SOL    HW133526   5.483   4.796   4.931 -0.3654  0.3687  0.0094
10702SOL    HW233527   5.392   4.751   4.819 -1.3595  0.8831  0.5985
10703SOL     OW33528   3.120   8.100   2.182  0.4283 -0.8695 -0.0776
10703SOL    HW133529   3.034   8.143   2.179  1.3659  1.0886 -1.9450
10703SOL    HW233530   3.158   8.128   2.265 -0.2498 -0.7079  0.1890
10704SOL     OW33531   6.248   1.840   0.331  0.0942  0.4890 -0.3142
10704SOL    HW133532   6.287   1.754   0.319 -1.0110 -0.0408 -0.2409
10704SOL    HW233533   6.308   1.886   0.390 -0.8005 -1.2916  2.1175
10705SOL     OW33534   3.866   4.501   4.025  0.8816 -0.1611 -0.2263
10705SOL    HW133535   3.929   4.537   4.087  2.3682  0.5544 -2.0549
10705SOL    HW233536   3.852   4.571   3.962 -0.8657 -0.7423 -0.5399
10706SOL     OW33537   1.496   3.981   2.322  0.2147  0.3107 -0.3264
10706SOL    HW133538   1.458   4.049   2.266  1.3713  0.1720 -1.3166
10706SOL    HW233539   1.508   4.023   2.407 -0.2581  0.9536 -0.5724
10707SOL     OW33540   7.911   1.703   3.823 -0.6191  0.5855  0.1503
10707SOL    HW133541   7.943   1.613   3.826  1.0428  1.0320 -1.6273
10707SOL    HW233542   7.828   1.697   3.777 -0.0310  0.0200 -0.8934
10708SOL     OW33543   2.071   0.032   0.887  0.0460 -0.0862  0.0676
10708SOL    HW133544   2.072  -0.063   0.876 -1.2045 -0.4763  2.5057
10708SOL    HW233545   1.992   0.060   0.842 -0.5734 -0.4950  0.8626
10709SOL     OW33546   3.736   4.855   5.828  0.5409  0.5251  0.5072
10709SOL    HW133547   3.675   4.860   5.902  0.5106  0.1357  0.5127
10709SOL    HW233548   3.822   4.844   5.868  0.7017  1.6901  0.5158
10710SOL     OW33549   4.789   4.046   1.104  0.4868 -0.2614 -0.0399
10710SOL    HW133550   4.727   4.114   1.077  0.9389 -0.2921 -1.1761
10710SOL    HW233551   4.761   3.968   1.057  1.0975 -0.3935 -0.1870
10711SOL     OW33552   4.799   7.803   6.247 -0.7863  0.0395 -0.4747
10711SOL    HW133553   4.870   7.795   6.184 -1.3513  1.1740 -1.2770
10711SOL    HW233554   4.835   7.766   6.328  1.2019  1.8258 -0.4642
10712SOL     OW33555   1.411   2.407   5.948  0.6364 -0.4031  0.3036
10712SOL    HW133556   1.414   2.316   5.919  0.5125 -0.2557 -0.1697
10712SOL    HW233557   1.386   2.401   6.041 -0.8241 -0.7878 -0.0846
10713SOL     OW33558   5.742   5.811   4.517  0.7202  0.2474  0.0543
10713SOL    HW133559   5.699   5.847   4.594  0.0619  0.2438 -0.2935
10713SOL    HW233560   5.748   5.885   4.456  0.5183  0.0756 -0.1802
10714SOL     OW33561   3.662   0.153   4.004 -0.2815  0.0812 -0.1633
10714SOL    HW133562   3.629   0.135   4.091 -0.5491 -0.7576 -0.4286
10714SOL    HW233563   3.733   0.090   3.992  0.5981  1.0262 -0.0801
10715SOL     OW33564   2.034   3.287   3.109 -0.0137  0.4817 -0.2100
10715SOL    HW133565   1.970   3.250   3.169  0.1995 -1.2115 -0.9690
10715SOL    HW233566   2.083   3.211   3.076  1.3396  1.5788 -0.8359
10716SOL     OW33567   3.635   7.848   0.007  0.1130  0.4648  0.5765
10716SOL    HW133568   3.567   7.900   0.049 -0.7916 -0.1259 -0.1131
10716SOL    HW233569   3.590   7.768  -0.021  0.3350  1.3264 -2.5989
10717SOL     OW33570   7.013   2.781   1.907  0.4937  0.5252  0.0630
10717SOL    HW133571   7.060   2.859   1.936  0.1997  0.1733  1.6214
10717SOL    HW233572   6.928   2.787   1.951  0.6602 -0.9137  0.6306
10718SOL     OW33573   2.009   0.183   0.467 -0.3942  0.3245 -0.5340
10718SOL    HW133574   2.063   0.139   0.533 -1.0754 -1.8612 -1.3232
10718SOL    HW233575   2.065   0.251   0.430  0.0780  1.4573  2.0801
10719SOL     OW33576   6.850   4.491   7.525 -0.8940  0.0228  0.2894
10719SOL    HW133577   6.896   4.575   7.515 -1.6356  0.5067  0.8086
10719SOL    HW233578   6.778   4.497   7.462 -0.3928 -0.6455 -0.3707
10720SOL     OW33579   1.662   6.967   1.535  0.4381  0.3796 -0.4832
10720SOL    HW133580   1.710   6.889   1.561  1.5310  1.1953  0.0243
10720SOL    HW233581   1.676   7.029   1.607  1.0842  1.6621 -1.6530
10721SOL     OW33582   5.524   0.803   6.038 -0.5897 -0.2656 -0.4330
10721SOL    HW133583   5.498   0.816   5.946  0.2893  1.4308 -0.4851
10721SOL    HW233584   5.580   0.726   6.036  0.1291  0.2500 -1.5057
10722SOL     OW33585   6.889   4.699   2.863 -0.3133 -0.6882 -0.0910
10722SOL    HW133586   6.844   4.783   2.855  1.7899  0.5325  0.2516
10722SOL    HW233587   6.882   4.677   2.956 -0.3231 -0.5643 -0.0621
10723SOL     OW33588   4.972   3.917   2.597  0.3451  0.3288 -0.5666
10723SOL    HW133589   5.030   3.993   2.604 -0.4573  0.9179 -0.3128
10723SOL    HW233590   4.998   3.861   2.670  0.4973  0.6543 -0.3700
10724SOL     OW33591   5.472   3.671   7.310 -0.1906 -0.3149  0.8332
10724SOL    HW133592   5.525   3.649   7.233 -0.3383 -0.9200  0.8968
10724SOL    HW233593   5.398   3.611   7.305  1.1259 -2.2712  2.8886
10725SOL     OW33594   1.143   4.170   3.773  0.6248 -0.6111 -0.6023
10725SOL    HW133595   1.110   4.135   3.856  2.5530  0.6849  0.8155
10725SOL    HW233596   1.087   4.246   3.756  2.7227  1.7622  1.9451
10726SOL     OW33597   5.451   6.661   7.742  0.4570 -0.5706 -0.0775
10726SOL    HW133598   5.454   6.754   7.721  1.4408  0.0425  2.5282
10726SOL    HW233599   5.542   6.631   7.737  0.5916 -0.6396  1.9918
10727SOL     OW33600   3.935   4.418   5.886 -0.0098  0.5005  0.8239
10727SOL    HW133601   3.976   4.480   5.826 -1.1888  0.8955  0.4194
10727SOL    HW233602   3.885   4.472   5.946  0.4812  0.0475  1.6534
10728SOL     OW33603   6.846   5.427   1.302 -0.0124  0.2333  0.3582
10728SOL    HW133604   6.851   5.423   1.206  0.5656  1.2175  0.3395
10728SOL    HW233605   6.881   5.343   1.331 -2.2476 -1.0262 -0.3225
10729SOL     OW33606   6.723   6.788   6.114 -0.7975  0.0789 -0.1919
10729SOL    HW133607   6.785   6.763   6.046 -2.3402 -0.6739 -1.3809
10729SOL    HW233608   6.736   6.722   6.183 -0.3279 -0.1066 -0.4508
10730SOL     OW33609   7.771   2.592   4.006 -0.0884 -0.2029  0.2170
10730SOL    HW133610   7.698   2.651   4.026 -0.2892 -0.1634 -0.6220
10730SOL    HW233611   7.731   2.506   4.000  0.2995 -0.5527  2.0664
10731SOL     OW33612   0.517   5.400   0.351  0.2875 -0.1046 -0.1953
10731SOL    HW133613   0.478   5.468   0.406  0.5642  0.8352 -1.1444
10731SOL    HW233614   0.468   5.403   0.269 -1.1197 -2.4992  0.4439
10732SOL     OW33615   6.647   5.985   6.203  0.2771  0.2821 -0.6617
10732SOL    HW133616   6.742   5.976   6.205  0.3062  0.1650 -1.8476
10732SOL    HW233617   6.620   5.939   6.123 -0.7409  0.6199 -0.5294
10733SOL     OW33618   6.736   2.019   0.536 -0.1184 -0.8297  0.3039
10733SOL    HW133619   6.694   1.942   0.574  2.2521 -1.0038  2.8666
10733SOL    HW233620   6.830   2.000   0.541  0.4536  1.1392 -1.5124
10734SOL     OW33621   1.347   4.876   0.805 -0.3723 -0.2603  0.4290
10734SOL    HW133622   1.298   4.954   0.831 -2.0653 -1.8045  2.2356
10734SOL    HW233623   1.284   4.824   0.755  0.8197 -0.3908 -0.9985
10735SOL     OW33624   4.400   0.285   3.276  0.5579 -0.5257 -0.0409
10735SOL    HW133625   4.414   0.303   3.183 -0.9113  0.5950 -0.1017
10735SOL    HW233626   4.308   0.256   3.281  0.7289 -0.9316  1.0158
10736SOL     OW33627   3.391   5.413   6.150  0.0983  0.1519  0.1548
10736SOL    HW133628   3.414   5.333   6.103 -1.6494 -0.3448  0.0757
10736SOL    HW233629   3.337   5.384   6.223 -0.6624  1.2461  0.0654
10737SOL     OW33630   0.173   7.169   6.070  0.0159  0.6517 -0.0503
10737SOL    HW133631   0.222   7.166   6.152  0.5374  1.1485 -0.3376
10737SOL    HW233632   0.231   7.214   6.009 -1.1630  2.1468 -0.1456
10738SOL     OW33633   7.728   7.503   3.021 -0.0972  0.1604  0.1451
10738SOL    HW133634   7.760   7.414   3.036  2.0006  1.0319  1.1894
10738SOL    HW233635   7.668   7.519   3.094  0.3571 -0.0195  0.5656
10739SOL     OW33636   1.940   3.067   1.782  0.4158 -0.4476 -0.0018
10739SOL    HW133637   1.945   3.149   1.831  0.0038  0.8125 -1.9556
10739SOL    HW233638   1.887   3.010   1.837 -2.2668  1.7731 -0.0401
10740SOL     OW33639   6.582   3.484   5.961 -0.6870  0.2339 -0.3411
10740SOL    HW133640   6.602   3.532   6.041 -0.8944  0.0231 -0.1603
10740SOL    HW233641   6.598   3.546   5.890  0.5723  0.0926 -0.2012
10741SOL     OW33642   7.351   5.846   0.389  0.0502  0.0047  0.1071
10741SOL    HW133643   7.376   5.807   0.472 -1.0319 -1.4471 -0.2062
10741SOL    HW233644   7.302   5.924   0.413  2.3283  1.3402  0.7483
10742SOL     OW33645   4.344   1.125   7.152 -0.1321 -0.3541  0.3413
10742SOL    HW133646   4.376   1.119   7.062 -1.0738 -0.8645  0.0233
10742SOL    HW233647   4.378   1.046   7.195 -2.1417 -1.7122 -0.4140
10743SOL     OW33648   0.800   5.388   3.401  0.5876  0.0271  0.5312
10743SOL    HW133649   0.802   5.343   3.486  2.0910  1.9128  1.5636
10743SOL    HW233650   0.793   5.481   3.424  0.8934  0.5682 -1.4333
10744SOL     OW33651   0.111   8.171   1.490 -0.4611 -0.0891 -0.0901
10744SOL    HW133652   0.167   8.246   1.469 -0.7460  0.2029  0.1658
10744SOL    HW233653   0.157   8.127   1.562 -0.8340  0.4767  0.5043
10745SOL     OW33654   6.033   6.589   2.407 -0.2436  0.9645 -0.1070
10745SOL    HW133655   5.959   6.531   2.424  0.6372  0.5448  2.7537
10745SOL    HW233656   5.994   6.676   2.402 -1.0078  0.6798  0.6797
10746SOL     OW33657   1.137   3.806   2.427  0.3444 -0.3575  0.1041
10746SOL    HW133658   1.137   3.740   2.496  0.7614  0.1191  0.5602
10746SOL    HW233659   1.139   3.890   2.473 -0.6948 -0.0055 -0.4623
10747SOL     OW33660   2.311   5.131   3.914 -0.5957  0.6588 -0.2670
10747SOL    HW133661   2.398   5.090   3.912  0.0000  1.8600 -2.7130
10747SOL    HW233662   2.314   5.190   3.989  0.5703  0.3781 -0.0758
10748SOL     OW33663   6.453   2.056   0.365 -0.6990 -0.4469 -0.0321
10748SOL    HW133664   6.418   2.123   0.424 -1.5142 -1.1482  0.3027
10748SOL    HW233665   6.413   2.076   0.280 -2.8884 -1.8993  0.5831
10749SOL     OW33666   7.752   2.599   5.423 -0.2000 -0.6406  0.1528
10749SOL    HW133667   7.707   2.673   5.382  0.5914  0.5634  1.3612
10749SOL    HW233668   7.779   2.543   5.350 -1.3228 -0.0459 -0.7472
10750SOL     OW33669   2.174   7.877   7.749  0.7008 -0.1484 -0.0152
10750SOL    HW133670   2.257   7.830   7.736  0.0135 -0.8843 -2.2889
10750SOL    HW233671   2.193   7.966   7.720  1.2327  0.2500  1.5017
10751SOL     OW33672   1.718   2.572   4.462 -0.0967  0.0567 -0.0800
10751SOL    HW133673   1.657   2.554   4.390  0.4905  0.2859 -0.6511
10751SOL    HW233674   1.685   2.521   4.535 -0.4115 -0.5944 -0.6677
10752SOL     OW33675   6.060   7.924   3.648 -0.1357 -0.1420 -0.0312
10752SOL    HW133676   6.121   7.886   3.585  0.9019  1.2762  0.0701
10752SOL    HW233677   6.054   7.860   3.719 -0.8265 -1.4653 -1.2565
10753SOL     OW33678   7.368   1.369   6.328 -0.3615 -0.1703 -0.3365
10753SOL    HW133679   7.274   1.370   6.342  0.0182 -0.7443  3.0432
10753SOL    HW233680   7.394   1.462   6.332 -0.7310 -0.0409 -0.9131
10754SOL     OW33681   8.258   6.202   8.347 -0.8861  0.6969 -0.4426
10754SOL    HW133682   8.185   6.167   8.296 -1.9353  2.3550 -0.1555
10754SOL    HW233683   8.331   6.207   8.284 -1.2132 -0.3004 -0.9156
10755SOL     OW33684   4.622   5.654   3.969 -0.6006  0.0419  0.3491
10755SOL    HW133685   4.694   5.601   4.005  0.0728  1.2354  0.8102
10755SOL    HW233686   4.601   5.716   4.039  0.5209  2.2011 -1.1179
10756SOL     OW33687   2.016   7.931   3.823 -0.2371 -0.0112 -0.0092
10756SOL    HW133688   1.931   7.965   3.850 -0.9192 -1.6778  0.0675
10756SOL    HW233689   2.004   7.911   3.730  0.7734  1.7501 -0.5549
10757SOL     OW33690   6.909   0.518   7.201 -0.1894  0.2888  0.5094
10757SOL    HW133691   6.826   0.490   7.240 -0.2584 -0.6622 -0.2727
10757SOL    HW233692   6.971   0.518   7.273 -0.9570  1.4340  1.1925
10758SOL     OW33693   7.851   2.657   8.168  0.5376 -0.2309  0.2354
10758SOL    HW133694   7.921   2.637   8.229  0.8251 -2.3928 -0.7227
10758SOL    HW233695   7.796   2.721   8.214  2.7037  1.0032  1.2748
10759SOL     OW33696   0.822   5.267   7.251 -0.4837 -0.1297  0.9989
10759SOL    HW133697   0.819   5.334   7.319  2.4991 -0.4463  1.5418
10759SOL    HW233698   0.834   5.316   7.170 -1.6263  0.1075  0.9477
10760SOL     OW33699   3.165   5.160   1.345 -0.0112 -0.2271  0.6128
10760SOL    HW133700   3.128   5.133   1.260  0.8622  2.0807 -0.5832
10760SOL    HW233701   3.089   5.173   1.401 -0.7442  0.1713 -0.4411
10761SOL     OW33702   8.216   0.989   7.226  0.0624  0.0615 -0.2676
10761SOL    HW133703   8.133   1.033   7.242 -0.2699 -0.5267 -0.3327
10761SOL    HW233704   8.229   0.934   7.303  0.0159 -0.4128 -0.5929
10762SOL     OW33705   0.239   5.187   0.340 -0.4827  0.1091  0.3247
10762SOL    HW133706   0.292   5.108   0.334  0.4699  0.7114  0.6041
10762SOL    HW233707   0.272   5.243   0.270 -2.2456 -0.3536 -0.9364
10763SOL     OW33708   3.442   6.561   7.041 -0.1209 -0.0212 -0.1889
10763SOL    HW133709   3.521   6.514   7.014  0.2476  0.8527 -0.6895
10763SOL    HW233710   3.476   6.641   7.082 -0.7396  0.2439 -0.1895
10764SOL     OW33711   5.747   8.310   5.292  0.3214  0.4224  0.1510
10764SOL    HW133712   5.801   8.253   5.346  0.4930  0.9647  0.5491
10764SOL    HW233713   5.724   8.383   5.349  0.3031  0.8757 -0.4314
10765SOL     OW33714   7.368   3.652   3.772 -0.2519 -0.4923 -0.6302
10765SOL    HW133715   7.332   3.707   3.703  0.3524  0.9076  0.1068
10765SOL    HW233716   7.372   3.710   3.849  0.6222 -1.5093  0.1306
10766SOL     OW33717   0.656   5.304   0.622  0.2519  0.3635 -0.5186
10766SOL    HW133718   0.633   5.376   0.563 -1.0715  0.3242 -0.0966
10766SOL    HW233719   0.742   5.275   0.593 -0.7365 -0.2787 -3.0932
10767SOL     OW33720   4.205   6.028   5.365  0.1456  0.3406  0.1754
10767SOL    HW133721   4.163   6.106   5.403 -0.4314  0.9582 -1.6349
10767SOL    HW233722   4.136   5.961   5.367  0.6788 -0.2016  1.8441
10768SOL     OW33723   5.907   6.738   8.011  0.7411  0.2973  0.7193
10768SOL    HW133724   5.901   6.693   8.095  1.8660  0.9946  1.2128
10768SOL    HW233725   5.978   6.801   8.023 -0.0046  1.3862 -0.3128
10769SOL     OW33726   7.190   2.740   3.855  0.2722 -0.2200 -0.2719
10769SOL    HW133727   7.193   2.689   3.936 -1.6547  0.0173 -0.0178
10769SOL    HW233728   7.255   2.809   3.869  1.7739 -1.6208  0.0211
10770SOL     OW33729   1.204   4.109   8.339 -0.3439  0.3911 -0.5100
10770SOL    HW133730   1.252   4.026   8.346 -0.6360  0.3449  1.3200
10770SOL    HW233731   1.126   4.088   8.288 -0.1647 -0.3362 -0.4892
10771SOL     OW33732   0.625   6.152   0.717 -0.1852 -0.2710 -0.1576
10771SOL    HW133733   0.627   6.228   0.776  0.1381  0.2761 -0.8541
10771SOL    HW233734   0.710   6.110   0.728 -0.3903 -0.5894  0.2808
10772SOL     OW33735   1.522   3.973   0.871 -0.5942 -0.0814 -0.5397
10772SOL    HW133736   1.571   4.055   0.866 -0.0368 -0.0509  3.1175
10772SOL    HW233737   1.442   3.995   0.919  0.0800 -1.8105  1.5227
10773SOL     OW33738   1.296   1.353   7.936 -0.0717  0.0925  0.9458
10773SOL    HW133739   1.352   1.300   7.879 -1.8384 -0.4874 -0.3195
10773SOL    HW233740   1.325   1.443   7.921 -1.1941  0.0934 -1.8081
10774SOL     OW33741   6.504   7.268   3.065  0.1773  0.2112 -0.3938
10774SOL    HW133742   6.549   7.351   3.055  2.1025 -0.5542  1.2366
10774SOL    HW233743   6.489   7.260   3.159 -0.0686 -1.2166 -0.5238
10775SOL     OW33744   4.560   5.545   0.683  0.1694 -0.0452 -0.1413
10775SOL    HW133745   4.537   5.495   0.761  1.2351  2.0570  1.6422
10775SOL    HW233746   4.638   5.502   0.648 -0.7116 -1.4031 -0.4900
10776SOL     OW33747   4.569   5.021   1.348 -0.2375  0.0401 -0.0154
10776SOL    HW133748   4.613   5.101   1.377 -1.0853  0.0362  1.3306
10776SOL    HW233749   4.633   4.952   1.365  0.5578  0.4087 -1.3194
10777SOL     OW33750   6.262   3.711   7.927  0.2712  0.6638 -0.1978
10777SOL    HW133751   6.166   3.721   7.930  0.1371 -0.6408  1.0148
10777SOL    HW233752   6.294   3.782   7.984 -0.0689  0.3138  0.4494
10778SOL     OW33753   3.778   2.828   3.975  0.4891 -0.0049  0.6086
10778SOL    HW133754   3.803   2.838   3.883  0.1227 -2.3756  0.1953
10778SOL    HW233755   3.860   2.805   4.019  0.3355 -0.6670  0.5478
10779SOL     OW33756   7.270   7.851   0.927 -0.1533  0.1558 -0.8880
10779SOL    HW133757   7.287   7.773   0.875 -0.8704 -0.0450 -0.8383
10779SOL    HW233758   7.194   7.828   0.981  0.6692  0.2973  0.3765
10780SOL     OW33759   0.387   7.905   3.540 -0.3420  0.1091 -0.1348
10780SOL    HW133760   0.374   7.998   3.559  1.8289  1.0109 -2.4522
10780SOL    HW233761   0.450   7.876   3.606 -0.1262  0.6237 -0.1059
10781SOL     OW33762   4.290   1.410   7.676  0.7685 -0.4950 -0.0004
10781SOL    HW133763   4.230   1.342   7.645 -1.1821  1.5058 -0.8856
10781SOL    HW233764   4.288   1.477   7.607 -0.8297  2.4365  2.6673
10782SOL     OW33765   3.207   1.782   2.399 -0.4125 -0.7735 -0.3397
10782SOL    HW133766   3.247   1.831   2.471 -0.9964 -0.3092 -0.3268
10782SOL    HW233767   3.273   1.784   2.330 -1.0014  1.3809 -0.9160
10783SOL     OW33768   5.159   3.230   0.403 -0.3786 -0.1143  0.0400
10783SOL    HW133769   5.133   3.174   0.476  1.3256 -1.1833 -0.1279
10783SOL    HW233770   5.107   3.310   0.416 -0.6737 -0.5508  1.9948
10784SOL     OW33771   3.351   6.258   7.675 -0.6175 -0.2863  0.1989
10784SOL    HW133772   3.376   6.183   7.622 -0.5853 -0.5948  0.6460
10784SOL    HW233773   3.324   6.325   7.612  0.1092 -0.3965 -0.2283
10785SOL     OW33774   6.236   3.325   1.367 -0.3111 -0.0869 -0.3452
10785SOL    HW133775   6.254   3.238   1.331  2.0759 -1.1786  3.0187
10785SOL    HW233776   6.305   3.381   1.332  0.3825 -0.4772  0.3874
10786SOL     OW33777   7.062   3.575   6.430 -0.0222  0.1861 -0.3575
10786SOL    HW133778   7.081   3.669   6.432  1.4233 -0.0378  2.6299
10786SOL    HW233779   7.144   3.534   6.456 -1.1192 -1.7892  0.1639
10787SOL     OW33780   3.146   5.668   7.901 -0.3388  0.4429 -0.1533
10787SOL    HW133781   3.185   5.584   7.877  1.0255  1.4155 -1.4818
10787SOL    HW233782   3.051   5.653   7.894 -0.0926 -0.7002 -1.4008
10788SOL     OW33783   4.145   0.994   5.872 -0.2169 -0.4959  0.5515
10788SOL    HW133784   4.059   0.977   5.834  0.1971  2.3059 -1.9258
10788SOL    HW233785   4.134   1.075   5.921  1.6458  2.1317 -2.9347
10789SOL     OW33786   5.793   2.096   3.199 -0.1771  0.2864 -0.3732
10789SOL    HW133787   5.832   2.050   3.273  0.0978 -1.7241 -1.7013
10789SOL    HW233788   5.857   2.087   3.128 -0.9801  1.0908 -1.2340
10790SOL     OW33789   5.629   6.654   6.896 -0.4787  0.0614 -0.3349
10790SOL    HW133790   5.592   6.693   6.816 -3.1259  0.7952  1.1282
10790SOL    HW233791   5.627   6.726   6.960  1.5992 -0.5065  0.4297
10791SOL     OW33792   2.975   4.712   0.715 -0.0634 -0.3079 -0.3278
10791SOL    HW133793   2.988   4.796   0.759  0.3449 -1.8296  2.6855
10791SOL    HW233794   2.960   4.736   0.623  1.8594  2.9207  0.0283
10792SOL     OW33795   2.730   4.529   7.319  0.9208  0.1490 -0.0094
10792SOL    HW133796   2.672   4.596   7.355  1.3142  0.4999 -0.0212
10792SOL    HW233797   2.711   4.527   7.225  0.4604 -0.2050  0.0882
10793SOL     OW33798   0.233   0.559   2.490  0.0075 -0.5155 -0.5560
10793SOL    HW133799   0.298   0.606   2.542  0.5729 -0.3305 -1.4027
10793SOL    HW233800   0.185   0.505   2.554  0.6064 -0.2176  0.1600
10794SOL     OW33801   6.302   0.960   6.537 -0.4533  0.6632 -0.3062
10794SOL    HW133802   6.359   0.935   6.609 -0.9702  0.8815  0.1851
10794SOL    HW233803   6.291   1.054   6.547 -0.4588  0.7085 -0.7239
10795SOL     OW33804   2.730   5.427   5.878 -0.1715  0.1645  0.2635
10795SOL    HW133805   2.664   5.359   5.861 -0.8559  1.1274 -1.1461
10795SOL    HW233806   2.690   5.508   5.846  1.4069  0.9009  0.0421
10796SOL     OW33807   0.965   3.497   5.816  0.1427 -0.8109 -0.2458
10796SOL    HW133808   0.994   3.407   5.799  0.3983 -0.8516  0.3579
10796SOL    HW233809   0.959   3.502   5.912 -0.9372 -0.5130 -0.3139
10797SOL     OW33810   2.349   2.944   4.181 -0.0732  0.1166  1.0986
10797SOL    HW133811   2.348   2.889   4.103  0.6444 -0.0627  1.2126
10797SOL    HW233812   2.258   2.971   4.193 -0.4270 -1.0140  1.0198
10798SOL     OW33813   2.008   5.987   6.718 -0.2699  0.2240  0.3025
10798SOL    HW133814   1.918   6.007   6.694 -0.3532  3.1437  2.5154
10798SOL    HW233815   2.061   6.046   6.663  0.1572  0.0915  0.5659
10799SOL     OW33816   5.228   3.705   0.137  0.4342 -0.5928  0.8095
10799SOL    HW133817   5.186   3.738   0.217 -1.4426  0.0409 -0.3539
10799SOL    HW233818   5.156   3.666   0.088  1.0605  1.0255 -1.5536
10800SOL     OW33819   0.266   3.304   3.243  0.0022  0.2811 -0.3231
10800SOL    HW133820   0.250   3.278   3.334  1.8934 -2.5385 -0.6637
10800SOL    HW233821   0.321   3.382   3.250  1.3495 -0.7076  1.0635
10801SOL     OW33822   1.420   5.872   3.436 -0.0062  0.0191 -0.1659
10801SOL    HW133823   1.514   5.868   3.455 -0.2441  0.3189  1.1772
10801SOL    HW233824   1.415   5.918   3.352  1.1019 -1.1676 -0.9339
10802SOL     OW33825   4.394   6.776   5.268 -0.3466 -0.7157 -0.3396
10802SOL    HW133826   4.478   6.818   5.247 -0.1086 -1.1932 -0.3825
10802SOL    HW233827   4.414   6.682   5.265 -0.6190 -0.8202  0.7341
10803SOL     OW33828   2.766   3.351   1.988 -0.3425  0.1468  0.4256
10803SOL    HW133829   2.786   3.335   2.080 -1.1350 -2.2489  0.2343
10803SOL    HW233830   2.674   3.379   1.988  0.1482  1.9134  0.4603
10804SOL     OW33831   8.149   6.389   0.387  0.1530 -0.0812 -0.4982
10804SOL    HW133832   8.067   6.344   0.370  0.3840  0.0376 -2.0064
10804SOL    HW233833   8.208   6.360   0.318  1.0928  0.5828 -0.0052
10805SOL     OW33834   1.632   4.444   2.802  0.3723 -0.0028 -0.2930
10805SOL    HW133835   1.642   4.524   2.750  0.1815 -1.1711 -2.2259
10805SOL    HW233836   1.710   4.393   2.781 -0.6656 -1.3388 -0.9998
10806SOL     OW33837   7.824   2.952   5.490  0.3973 -0.3418  0.1459
10806SOL    HW133838   7.870   3.035   5.474  1.7876 -1.2816 -1.0978
10806SOL    HW233839   7.732   2.976   5.500  0.8325  1.3881  0.2758
10807SOL     OW33840   6.874   6.365   2.283  0.1634 -0.3971 -0.0407
10807SOL    HW133841   6.849   6.402   2.198  0.3699 -2.2162 -0.9521
10807SOL    HW233842   6.934   6.429   2.321 -0.4936  0.7898 -0.9377
10808SOL     OW33843   1.013   7.464   0.118 -0.4360  0.0100  0.3572
10808SOL    HW133844   1.096   7.504   0.145 -0.0853  1.0135 -1.9479
10808SOL    HW233845   0.953   7.538   0.108 -0.6988 -0.3654 -0.9695
10809SOL     OW33846   7.874   6.953   1.429 -0.1008 -0.2181  0.2245
10809SOL    HW133847   7.912   7.010   1.363 -0.4930 -0.3638 -0.1321
10809SOL    HW233848   7.907   6.987   1.512 -1.7144  1.6484  0.1798
10810SOL     OW33849   7.190   0.040   8.240 -0.0543 -0.3297 -0.1759
10810SOL    HW133850   7.211  -0.052   8.255  1.5104 -0.0479 -0.4501
10810SOL    HW233851   7.214   0.084   8.322 -0.7806 -0.1534 -0.0496
10811SOL     OW33852   7.628   7.541   8.355  0.1856 -0.0831 -0.4683
10811SOL    HW133853   7.656   7.627   8.386 -0.2258 -0.5996  1.5078
10811SOL    HW233854   7.694   7.481   8.389 -0.6103 -0.7517 -0.0652
10812SOL     OW33855   3.143   0.628   2.504  0.0703 -0.1750 -0.0009
10812SOL    HW133856   3.214   0.566   2.487  1.9385  1.9725 -0.4869
10812SOL    HW233857   3.133   0.629   2.599 -1.5602 -2.7926 -0.0580
10813SOL     OW33858   6.336   0.407   3.707  0.2613  0.1076  0.1568
10813SOL    HW133859   6.350   0.497   3.678  1.2050  0.2676  1.0354
10813SOL    HW233860   6.252   0.410   3.753 -0.2012  0.3045 -0.6688
10814SOL     OW33861   6.925   8.021   7.519 -0.1372  0.2507 -0.0095
10814SOL    HW133862   6.834   8.000   7.496 -0.2124  1.5026 -1.0355
10814SOL    HW233863   6.920   8.108   7.559  0.4947 -0.1778  1.0375
10815SOL     OW33864   4.228   7.546   0.100  0.0749 -0.3051  0.3825
10815SOL    HW133865   4.146   7.561   0.147 -0.0249  1.4775 -0.2534
10815SOL    HW233866   4.290   7.521   0.167 -0.4705  0.5295  1.2231
10816SOL     OW33867   8.037   1.432   5.219  0.3110  0.1675 -0.2134
10816SOL    HW133868   7.974   1.490   5.177 -1.0961 -0.8921  0.3511
10816SOL    HW233869   8.120   1.480   5.216 -0.2197  1.0485 -2.1511
10817SOL     OW33870   3.820   1.449   4.335  0.3860 -0.0911  0.3712
10817SOL    HW133871   3.845   1.366   4.376 -1.3166 -0.7475  0.1253
10817SOL    HW233872   3.900   1.502   4.340  1.4233 -1.6144  0.8114
10818SOL     OW33873   7.894   2.290   7.518 -0.7599 -0.1673  0.3019
10818SOL    HW133874   7.968   2.352   7.514 -0.5781 -0.3865  0.2549
10818SOL    HW233875   7.922   2.224   7.581 -1.3527  0.3166  1.0833
10819SOL     OW33876   6.454   0.875   0.039  0.4012 -0.2097  0.4629
10819SOL    HW133877   6.448   0.785   0.071 -1.5242 -0.3673 -0.2104
10819SOL    HW233878   6.424   0.870  -0.051 -1.4615  1.3437  0.9269
10820SOL     OW33879   6.871   2.748   2.711 -0.0253 -0.1440 -0.1880
10820SOL    HW133880   6.896   2.805   2.639  0.4053 -1.1395 -0.8503
10820SOL    HW233881   6.948   2.693   2.726 -0.1323  0.0045  0.9969
10821SOL     OW33882   8.344   0.307   4.964  0.1703  0.2054  0.2982
10821SOL    HW133883   8.295   0.228   4.944 -0.5702  0.8853 -0.7242
10821SOL    HW233884   8.362   0.302   5.058 -2.8510  0.4252  0.9876
10822SOL     OW33885   4.815   4.512   8.335  0.1252  0.0796  0.1549
10822SOL    HW133886   4.833   4.489   8.426  1.0608  0.3495  0.0564
10822SOL    HW233887   4.741   4.572   8.340 -1.0336 -1.3416  0.5647
10823SOL     OW33888   0.632   7.874   3.376 -0.0419 -0.0261  0.7686
10823SOL    HW133889   0.553   7.916   3.407 -1.0814 -1.6605  0.4470
10823SOL    HW233890   0.618   7.863   3.282  1.6478  1.8564  0.2129
10824SOL     OW33891   2.548   6.584   0.352 -0.1164  0.2677 -0.4894
10824SOL    HW133892   2.562   6.590   0.258 -1.3087  0.8878 -0.6540
10824SOL    HW233893   2.602   6.510   0.380  0.0314 -0.1029 -1.7024
10825SOL     OW33894   5.919   1.627   6.212  0.4267 -0.6544  0.3373
10825SOL    HW133895   5.850   1.610   6.148 -1.1915  0.1171  1.7851
10825SOL    HW233896   5.996   1.583   6.176 -0.0317  0.7618 -2.7452
10826SOL     OW33897   6.119   5.805   6.797 -0.2738 -0.0797 -0.4848
10826SOL    HW133898   6.044   5.846   6.840 -0.8281 -0.6244 -0.9145
10826SOL    HW233899   6.081   5.741   6.737  0.5517 -0.8839 -0.1830
10827SOL     OW33900   3.450   1.575   5.344 -0.0172 -0.1614 -0.0892
10827SOL    HW133901   3.494   1.655   5.372  1.1465 -0.9346  0.3609
10827SOL    HW233902   3.506   1.540   5.273 -0.6134 -0.4729 -0.4144
10828SOL     OW33903   0.254   2.853   2.348  0.0080 -0.2781  0.0533
10828SOL    HW133904   0.184   2.839   2.412  0.3043  0.5238  0.5588
10828SOL    HW233905   0.330   2.878   2.400  0.3738 -0.0523 -0.5824
10829SOL     OW33906   5.065   6.910   0.395 -0.3225 -0.0851  0.4513
10829SOL    HW133907   4.981   6.866   0.382 -0.2593  0.1762 -0.9298
10829SOL    HW233908   5.126   6.864   0.337  0.3514  0.1593  0.9431
10830SOL     OW33909   6.788   2.876   5.013 -0.2693  0.5470 -0.6125
10830SOL    HW133910   6.823   2.950   5.063  1.1047  0.7380 -1.7918
10830SOL    HW233911   6.840   2.801   5.040 -0.5786  0.3357 -0.5980
10831SOL     OW33912   7.197   2.949   8.090 -0.6152  0.3906  0.1334
10831SOL    HW133913   7.183   2.954   7.995 -0.1973  1.9635  0.1315
10831SOL    HW233914   7.227   2.859   8.105  0.2615  0.4051 -1.3597
10832SOL     OW33915   3.713   1.221   7.092 -0.4948 -0.1252 -0.2424
10832SOL    HW133916   3.732   1.143   7.145 -3.0747 -0.2628  0.6249
10832SOL    HW233917   3.703   1.291   7.156 -0.2477  0.4846 -0.8620
10833SOL     OW33918   5.888   0.386   5.046 -0.3100 -0.0172  0.3518
10833SOL    HW133919   5.837   0.306   5.041 -1.1673  0.5371 -0.0199
10833SOL    HW233920   5.846   0.438   5.115 -0.9767  0.9312 -0.7449
10834SOL     OW33921   4.891   0.184   2.077  0.2231 -0.0937  0.1114
10834SOL    HW133922   4.896   0.275   2.106 -1.9803  0.2710 -0.4761
10834SOL    HW233923   4.980   0.164   2.047  1.4137  1.0009  2.5906
10835SOL     OW33924   5.037   3.893   3.600 -0.1012 -0.2474 -0.2038
10835SOL    HW133925   5.070   3.818   3.648 -0.9696  0.5526  1.7424
10835SOL    HW233926   4.965   3.858   3.548 -0.0251 -0.8875  0.1114
10836SOL     OW33927   6.808   4.404   4.009  0.1113  0.4591  0.4056
10836SOL    HW133928   6.740   4.355   3.964 -1.2030  2.7799 -0.3354
10836SOL    HW233929   6.890   4.364   3.980 -0.8002  0.0625 -1.8612
10837SOL     OW33930   5.243   2.990   5.514 -0.0363 -0.9792  0.2996
10837SOL    HW133931   5.158   2.987   5.559 -0.3312  1.8191  0.1215
10837SOL    HW233932   5.221   2.977   5.422 -0.1425 -1.2003  0.3543
10838SOL     OW33933   3.016   5.063   1.147  0.6628 -0.0843  0.2984
10838SOL    HW133934   2.941   5.122   1.153  1.0236  0.7763 -2.2504
10838SOL    HW233935   2.980   4.976   1.162 -0.5953  0.4340  0.3730
10839SOL     OW33936   5.108   0.102   1.920  0.3089 -0.1175 -0.4652
10839SOL    HW133937   5.165   0.178   1.912  0.5398 -0.0760  1.1938
10839SOL    HW233938   5.131   0.047   1.846 -0.4397  1.7566 -2.2043
10840SOL     OW33939   5.196   3.094   5.999 -0.4242  0.0875 -0.3054
10840SOL    HW133940   5.258   3.143   6.054  0.1043 -0.9399  0.0344
10840SOL    HW233941   5.154   3.032   6.058  0.0080 -0.9016 -1.0072
10841SOL     OW33942   0.002   4.951   7.061 -0.0972  0.9077 -0.5853
10841SOL    HW133943  -0.091   4.966   7.078  0.4299  2.8341  1.0101
10841SOL    HW233944   0.007   4.859   7.034 -2.6662  1.2462 -2.6604
10842SOL     OW33945   8.229   8.056   7.711 -0.6885 -0.0979 -0.0334
10842SOL    HW133946   8.190   8.029   7.628 -1.1959  1.5911 -0.3724
10842SOL    HW233947   8.168   8.121   7.746 -0.2053 -0.4004  1.4099
10843SOL     OW33948   2.073   7.047   0.349  0.1818  0.5630  0.0882
10843SOL    HW133949   1.979   7.062   0.360 -0.1596 -0.9738 -0.5369
10843SOL    HW233950   2.102   7.016   0.435 -0.4918 -1.7187 -0.4381
10844SOL     OW33951   8.163   5.618   1.182 -0.1128  0.0463 -0.4982
10844SOL    HW133952   8.099   5.643   1.115 -1.3269 -0.9064  0.2626
10844SOL    HW233953   8.181   5.700   1.228 -1.1360  0.2617 -0.4435
10845SOL     OW33954   6.628   4.240   0.961 -0.6269  0.5152 -0.6249
10845SOL    HW133955   6.702   4.269   1.015  0.7048  0.5029 -2.3668
10845SOL    HW233956   6.659   4.159   0.920 -1.9903 -0.0133 -0.6590
10846SOL     OW33957   5.791   0.293   2.747 -0.1433 -0.3293 -0.0285
10846SOL    HW133958   5.773   0.264   2.657  0.3229  0.3077 -0.3357
10846SOL    HW233959   5.716   0.263   2.797 -2.2195  2.3736 -1.2770
10847SOL     OW33960   7.513   1.388   8.268 -0.4722 -0.0046  0.0638
10847SOL    HW133961   7.545   1.337   8.193  2.5515  2.0875 -0.2687
10847SOL    HW233962   7.545   1.340   8.345  1.3704  0.6494 -0.2215
10848SOL     OW33963   7.636   7.045   0.703 -0.2252  0.3372 -0.8547
10848SOL    HW133964   7.682   7.095   0.770 -0.4001 -1.0297  0.3295
10848SOL    HW233965   7.543   7.057   0.724 -0.3815  1.4576 -2.0392
10849SOL     OW33966   2.452   1.070   4.829  0.2257  0.1110  0.6840
10849SOL    HW133967   2.469   1.007   4.759  1.3103  1.3454 -0.2002
10849SOL    HW233968   2.357   1.070   4.840  0.0542 -0.1734 -0.7217
10850SOL     OW33969   1.744   7.719   5.760  0.2692 -0.3235  0.2362
10850SOL    HW133970   1.832   7.733   5.794  1.0080 -1.8431 -0.9592
10850SOL    HW233971   1.754   7.652   5.693 -1.2503  1.7828 -2.3148
10851SOL     OW33972   8.296   1.099   2.150  0.0133  0.4364 -0.0012
10851SOL    HW133973   8.205   1.108   2.177 -0.2584  1.1999 -1.1098
10851SOL    HW233974   8.294   1.039   2.076  0.7055 -1.3357  1.3398
10852SOL     OW33975   2.202   6.606   3.259 -0.2909 -0.2240  0.0598
10852SOL    HW133976   2.199   6.566   3.346 -0.8029  0.5679  0.4125
10852SOL    HW233977   2.263   6.679   3.269 -0.5885  0.0551 -0.1630
10853SOL     OW33978   2.936   4.786   4.547 -0.1034  0.5691 -0.6779
10853SOL    HW133979   2.865   4.759   4.488 -0.5742 -0.3095  0.2620
10853SOL    HW233980   2.987   4.707   4.561  1.5382  1.3559 -1.9307
10854SOL     OW33981   0.881   6.108   0.875  0.4065  0.0367 -0.3598
10854SOL    HW133982   0.974   6.121   0.895  0.1328 -0.3337  1.3355
10854SOL    HW233983   0.836   6.146   0.951 -0.7575 -1.2644 -0.3806
10855SOL     OW33984   4.236   7.470   1.300  0.0856 -0.0527 -0.1606
10855SOL    HW133985   4.315   7.518   1.325 -0.1411 -0.0892  0.6677
10855SOL    HW233986   4.167   7.507   1.356 -0.3618 -0.4377 -0.4455
10856SOL     OW33987   0.522   5.232   5.368 -0.4497  0.3807 -0.0184
10856SOL    HW133988   0.539   5.314   5.323  0.8157  0.1883  0.0764
10856SOL    HW233989   0.514   5.167   5.297  0.4403  0.2706 -0.0321
10857SOL     OW33990   2.481   2.820   0.659  0.0972  0.1326  0.3023
10857SOL    HW133991   2.386   2.813   0.650  0.2470 -0.1041 -1.3978
10857SOL    HW233992   2.493   2.881   0.732 -1.3108 -2.0458  2.5018
10858SOL     OW33993   3.426   7.896   6.922 -0.0502  0.7666 -0.1607
10858SOL    HW133994   3.449   7.921   6.832  1.0794  0.0977 -0.0684
10858SOL    HW233995   3.337   7.929   6.933 -1.1338 -1.1384 -2.3263
10859SOL     OW33996   0.789   6.658   5.341  0.6502  0.5976  0.2845
10859SOL    HW133997   0.848   6.723   5.382 -1.5768  2.8074  0.2295
10859SOL    HW233998   0.746   6.706   5.271 -0.6582 -1.1706 -0.1836
10860SOL     OW33999   5.602   4.364   0.790  0.1967  0.0221 -0.0373
10860SOL    HW134000   5.544   4.439   0.780 -0.1617 -0.3328 -0.7570
10860SOL    HW234001   5.570   4.319   0.868  0.8747  1.0097  0.8177
10861SOL     OW34002   1.999   1.800   6.140 -0.2358  0.6744 -0.2152
10861SOL    HW134003   1.982   1.780   6.232  2.2721 -0.9694 -0.0172
10861SOL    HW234004   1.963   1.726   6.092 -1.0839  1.2863 -0.5556
10862SOL     OW34005   2.484   4.840   0.977  0.2367  0.0029 -0.3009
10862SOL    HW134006   2.526   4.912   1.024  1.9061  0.3282 -2.1819
10862SOL    HW234007   2.405   4.879   0.938  0.4238  0.4623 -0.2186
10863SOL     OW34008   5.925   4.724   7.613 -0.3187 -0.0513 -0.2635
10863SOL    HW134009   5.978   4.788   7.565  0.5195 -0.2674  0.3424
10863SOL    HW234010   5.895   4.663   7.546  0.3001  0.0125 -0.6083
10864SOL     OW34011   3.449   7.811   1.312  0.5107  0.1892 -0.5264
10864SOL    HW134012   3.370   7.857   1.341 -0.4876 -1.5335 -0.3504
10864SOL    HW234013   3.501   7.878   1.268 -1.1500  1.3351 -0.8444
10865SOL     OW34014   0.118   2.530   3.960 -0.4982  0.3232 -0.2312
10865SOL    HW134015   0.051   2.550   3.894 -0.3529 -0.7513 -0.7335
10865SOL    HW234016   0.187   2.485   3.911  1.3638  2.7674 -0.0257
10866SOL     OW34017   1.419   5.136   3.855  0.4567  0.1504  0.4713
10866SOL    HW134018   1.355   5.065   3.863  1.1025 -0.5278 -0.2927
10866SOL    HW234019   1.435   5.163   3.946 -1.3500  0.7583  0.6585
10867SOL     OW34020   8.251   7.955   6.660  0.1900  0.2782  0.0388
10867SOL    HW134021   8.335   7.973   6.618  0.3007 -1.6071 -0.6641
10867SOL    HW234022   8.192   8.022   6.626  0.9509  0.4456 -0.9936
10868SOL     OW34023   3.236   1.236   4.697  0.3169  0.0621 -0.2407
10868SOL    HW134024   3.245   1.268   4.607  0.5816 -0.6355 -0.4729
10868SOL    HW234025   3.172   1.166   4.691 -1.0462  1.2092  0.4400
10869SOL     OW34026   7.929   6.599   5.625 -0.6968 -0.2636 -0.0877
10869SOL    HW134027   7.932   6.637   5.713  0.5762 -1.2691  0.3202
10869SOL    HW234028   8.009   6.629   5.583 -0.2365 -1.5277 -0.1549
10870SOL     OW34029   8.331   7.929   8.178  0.3812 -0.3316  0.0578
10870SOL    HW134030   8.311   7.836   8.174 -0.7970 -0.0437 -1.7940
10870SOL    HW234031   8.377   7.947   8.095  2.0195  0.4435  1.0870
10871SOL     OW34032   3.391   2.896   4.847  0.1752  0.3862  0.0738
10871SOL    HW134033   3.352   2.924   4.765  1.0262  1.0413 -0.1200
10871SOL    HW234034   3.461   2.836   4.822 -0.7476 -0.8731  0.4250
10872SOL     OW34035   6.321   6.545   1.566 -0.1197  0.7233  0.4385
10872SOL    HW134036   6.257   6.512   1.502 -0.1991 -0.9140  1.2976
10872SOL    HW234037   6.269   6.603   1.623 -0.6620  0.0857  0.6109
10873SOL     OW34038   6.890   0.392   1.879 -0.1185  0.7563  0.0679
10873SOL    HW134039   6.916   0.458   1.943 -2.7515  0.8144  1.2523
10873SOL    HW234040   6.963   0.331   1.876  0.0257  0.5601  3.5122
10874SOL     OW34041   5.989   3.585   0.208 -0.1374  0.4263 -0.0351
10874SOL    HW134042   5.964   3.561   0.297 -2.8411 -0.4168 -0.9073
10874SOL    HW234043   6.058   3.522   0.185 -0.3706 -0.2422  0.9975
10875SOL     OW34044   7.775   1.030   7.564  0.4938  0.2828  0.3662
10875SOL    HW134045   7.829   1.001   7.638  1.0239  0.9367  0.2459
10875SOL    HW234046   7.804   0.977   7.490  0.4959  0.1563  0.4580
10876SOL     OW34047   1.037   5.293   3.386 -0.1110  0.3874 -0.1246
10876SOL    HW134048   1.077   5.338   3.312  0.5966  1.3782  0.8117
10876SOL    HW234049   0.948   5.326   3.390  0.5656  2.2462  0.9023
10877SOL     OW34050   5.520   7.575   4.494 -0.0901 -0.7940 -0.1727
10877SOL    HW134051   5.486   7.660   4.521 -1.2279 -0.5408 -2.1820
10877SOL    HW234052   5.443   7.526   4.465  0.5991 -2.3476  0.4963
10878SOL     OW34053   4.719   0.015   5.321  0.5221  0.6063 -0.3359
10878SOL    HW134054   4.712   0.108   5.344 -0.1231  0.8652 -1.4795
10878SOL    HW234055   4.665   0.006   5.242 -0.8929 -1.0925  0.7529
10879SOL     OW34056   6.235   5.772   5.813  0.0261  0.0463  0.2697
10879SOL    HW134057   6.242   5.691   5.762  0.1511 -0.1227  0.5563
10879SOL    HW234058   6.164   5.820   5.770 -0.5507 -0.5365  0.5468
10880SOL     OW34059   1.293   0.158   2.956 -0.2289 -0.4242 -0.2436
10880SOL    HW134060   1.373   0.107   2.942 -0.3350 -0.7138  0.1794
10880SOL    HW234061   1.314   0.245   2.923  0.8082 -0.0470  1.2800
10881SOL     OW34062   3.219   3.124   0.594  0.4519 -0.5043 -0.4631
10881SOL    HW134063   3.185   3.036   0.581  0.5363 -0.3008 -2.3071
10881SOL    HW234064   3.199   3.145   0.685 -1.8631 -1.4425 -0.7066
10882SOL     OW34065   2.541   4.799   3.651  0.0161  0.0634  0.2118
10882SOL    HW134066   2.497   4.759   3.727 -2.9268  0.9097 -0.9120
10882SOL    HW234067   2.525   4.738   3.579 -1.4512  1.4673 -0.7259
10883SOL     OW34068   0.192   8.129   6.153 -0.1147  0.2653  0.4983
10883SOL    HW134069   0.101   8.148   6.177 -0.0992  1.6187 -0.4247
10883SOL    HW234070   0.192   8.036   6.132 -1.4577  0.3901 -0.1486
10884SOL     OW34071   3.560   5.776   5.281  0.9286  0.0259  0.1241
10884SOL    HW134072   3.656   5.783   5.281  0.9174  0.3412  1.4850
10884SOL    HW234073   3.540   5.713   5.350  0.1928 -1.2966 -1.2075
10885SOL     OW34074   1.396   1.688   7.333 -0.2055  0.6690 -0.3401
10885SOL    HW134075   1.396   1.678   7.237  2.2069 -4.1275 -0.1491
10885SOL    HW234076   1.307   1.664   7.360 -0.4406  0.3999 -1.3057
10886SOL     OW34077   5.172   8.364   3.747  0.0924  0.0191  0.1844
10886SOL    HW134078   5.137   8.435   3.694  1.3162  0.2118 -0.4161
10886SOL    HW234079   5.235   8.406   3.806 -0.6494 -0.3103  1.2386
10887SOL     OW34080   6.269   1.146   0.418 -0.3961  0.3194  0.2372
10887SOL    HW134081   6.247   1.126   0.327 -1.4317  0.9966  0.3246
10887SOL    HW234082   6.285   1.060   0.458  1.3937  0.0850 -0.8824
10888SOL     OW34083   7.733   4.316   5.938 -0.3302 -0.3764  0.4366
10888SOL    HW134084   7.730   4.289   5.846  0.5593  2.5070 -0.5384
10888SOL    HW234085   7.643   4.342   5.958 -0.3141  0.0544 -0.0095
10889SOL     OW34086   4.294   0.192   7.234  0.3390 -0.3092 -0.1419
10889SOL    HW134087   4.218   0.135   7.240  1.6966 -2.3944 -1.4867
10889SOL    HW234088   4.317   0.211   7.325 -2.0775  0.8843  0.2898
10890SOL     OW34089   1.457   7.772   3.172  0.3700 -0.4398 -0.4707
10890SOL    HW134090   1.508   7.769   3.253 -0.4637 -0.3942  0.0630
10890SOL    HW234091   1.486   7.695   3.122  0.2177 -0.9956  0.2852
10891SOL     OW34092   4.310   2.629   0.120 -0.8132  0.6362  0.5828
10891SOL    HW134093   4.337   2.721   0.127  2.0569 -0.0438 -0.3796
10891SOL    HW234094   4.361   2.584   0.188  0.1530 -0.6404 -0.9297
10892SOL     OW34095   1.179   7.365   4.647 -0.3001  0.1580 -0.7201
10892SOL    HW134096   1.263   7.354   4.603  0.6636 -1.2316  1.3073
10892SOL    HW234097   1.124   7.409   4.582  1.8204  0.6919 -2.2808
10893SOL     OW34098   4.963   0.257   2.714  0.3335  0.3196  0.2750
10893SOL    HW134099   4.992   0.314   2.642 -0.8271  0.5976  0.0163
10893SOL    HW234100   5.044   0.230   2.756  1.1534 -0.7568 -1.8313
10894SOL     OW34101   3.664   0.829   2.930  0.5721 -0.6219  0.4001
10894SOL    HW134102   3.599   0.804   2.864 -1.2824  1.9066  1.1300
10894SOL    HW234103   3.747   0.829   2.882  0.0213 -3.2271 -0.7421
10895SOL     OW34104   6.585   2.115   8.311  0.3340 -0.2518  0.3853
10895SOL    HW134105   6.523   2.170   8.360  0.6203  0.2501  0.1860
10895SOL    HW234106   6.569   2.135   8.219  1.0489  0.1637  0.3446
10896SOL     OW34107   2.693   4.616   1.555  0.0205  0.2487  0.2951
10896SOL    HW134108   2.609   4.587   1.590 -1.2547 -0.6581 -3.1201
10896SOL    HW234109   2.745   4.535   1.548 -0.3437  0.1132 -1.2242
10897SOL     OW34110   0.508   6.976   4.775 -0.2874 -0.5953  0.4816
10897SOL    HW134111   0.550   6.966   4.860  1.0729  0.5812 -0.0087
10897SOL    HW234112   0.581   6.986   4.713 -1.2602  0.2449 -0.5856
10898SOL     OW34113   2.776   6.993   6.770  0.7678  0.8476  0.3928
10898SOL    HW134114   2.756   7.003   6.677  1.9594  0.9467  0.1342
10898SOL    HW234115   2.712   7.049   6.814 -1.2072 -0.8411 -0.2094
10899SOL     OW34116   6.127   1.585   8.162 -0.0282  0.3574  0.1403
10899SOL    HW134117   6.195   1.522   8.137 -0.9518  0.0286 -1.6859
10899SOL    HW234118   6.145   1.604   8.254  0.1609 -2.7461  0.8317
10900SOL     OW34119   7.735   0.206   3.675 -0.4712  0.3165  0.0631
10900SOL    HW134120   7.714   0.279   3.617  0.0484  0.5196  0.1284
10900SOL    HW234121   7.787   0.146   3.622 -1.3484 -0.2780 -0.1522
10901SOL     OW34122   6.768   1.741   3.947 -0.1286  0.8347 -0.1722
10901SOL    HW134123   6.761   1.648   3.964 -2.0222  1.1513  1.0445
10901SOL    HW234124   6.756   1.749   3.852 -2.7095  0.0232  0.0294
10902SOL     OW34125   7.720   7.618   7.615 -0.6902  0.3225  0.1372
10902SOL    HW134126   7.690   7.583   7.699 -0.1730 -0.8897 -0.1589
10902SOL    HW234127   7.715   7.543   7.555 -0.2097  0.9476 -0.7069
10903SOL     OW34128   4.614   2.929   0.939  0.1002  0.1512  0.1716
10903SOL    HW134129   4.625   3.023   0.953 -1.0523  0.3295  0.0493
10903SOL    HW234130   4.703   2.894   0.935  0.5843  1.4065 -0.9358
10904SOL     OW34131   4.195   5.781   0.925  0.0449  0.1247 -0.3272
10904SOL    HW134132   4.185   5.853   0.987 -3.0453  0.1302 -0.6759
10904SOL    HW234133   4.224   5.707   0.978 -2.4250  0.1478  1.1937
10905SOL     OW34134   7.653   0.972   6.787 -0.0292  0.9721 -0.0788
10905SOL    HW134135   7.586   0.924   6.739  0.4429 -0.4888  0.6848
10905SOL    HW234136   7.633   1.064   6.769 -1.3777  0.5345 -0.9973
10906SOL     OW34137   6.422   5.296   1.833 -0.1343  0.2224  0.3145
10906SOL    HW134138   6.512   5.295   1.799  0.5191 -0.1501  1.9487
10906SOL    HW234139   6.409   5.208   1.868 -1.5739 -0.0857 -0.9083
10907SOL     OW34140   7.629   4.687   7.346  0.1274 -0.2599  0.2455
10907SOL    HW134141   7.626   4.782   7.360 -2.2118 -0.3664  0.8283
10907SOL    HW234142   7.609   4.676   7.253  0.9568 -0.1774  0.0502
10908SOL     OW34143   2.091   7.523   7.821  0.2108  0.2699  0.1932
10908SOL    HW134144   2.076   7.459   7.751  1.4702  1.7772 -1.5278
10908SOL    HW234145   2.172   7.567   7.797  0.1906  1.4759  2.1443
10909SOL     OW34146   0.940   2.671   2.497 -0.1925  0.1660 -0.5367
10909SOL    HW134147   0.969   2.744   2.551 -1.2846  1.0401 -1.0878
10909SOL    HW234148   0.936   2.597   2.557  1.4467  0.4132 -0.0829
10910SOL     OW34149   6.960   6.280   5.535  0.0297 -0.6448 -0.5349
10910SOL    HW134150   6.986   6.356   5.586  0.6039 -1.4893  0.4827
10910SOL    HW234151   6.880   6.249   5.577 -0.5681 -0.2420 -1.3449
10911SOL     OW34152   4.406   1.952   3.209  0.6325  0.4973 -0.2752
10911SOL    HW134153   4.317   1.951   3.244  1.0145 -1.5660  0.8142
10911SOL    HW234154   4.402   1.902   3.128  0.7556  0.6780 -0.3956
10912SOL     OW34155   2.096   4.129   6.208 -0.1500  0.0813 -0.5109
10912SOL    HW134156   2.064   4.186   6.277 -2.2328 -1.8098  0.2411
10912SOL    HW234157   2.135   4.055   6.255  0.0804 -0.3582 -1.3814
10913SOL     OW34158   4.639   6.820   1.007  0.6473  0.0158  0.4218
10913SOL    HW134159   4.686   6.747   0.966  0.0666 -0.5721  0.7773
10913SOL    HW234160   4.622   6.881   0.935  1.2707 -0.1223  0.1466
10914SOL     OW34161   4.052   1.948   3.191  0.5569 -0.2222 -0.4173
10914SOL    HW134162   4.009   1.921   3.272  0.4358  0.7525 -0.1490
10914SOL    HW234163   4.009   1.896   3.123  0.9391 -1.3457  0.1748
10915SOL     OW34164   4.191   8.016   2.986 -0.4220  0.1295 -0.1823
10915SOL    HW134165   4.277   7.983   3.013 -0.6778 -1.3668 -1.0598
10915SOL    HW234166   4.203   8.042   2.895 -0.6868  0.7262 -0.0481
10916SOL     OW34167   7.086   4.409   2.046 -0.0246 -0.3290 -0.0603
10916SOL    HW134168   7.171   4.397   2.004 -0.6450  0.8131 -1.7984
10916SOL    HW234169   7.023   4.374   1.983 -0.8541 -1.6304  1.4190
10917SOL     OW34170   3.827   1.144   7.685  0.2027 -0.0355 -0.1649
10917SOL    HW134171   3.801   1.224   7.732  0.2234 -1.5499  2.6391
10917SOL    HW234172   3.922   1.148   7.682  0.2021  0.0509 -0.0609
10918SOL     OW34173   7.915   5.441   2.238  0.0292  0.5742  0.4129
10918SOL    HW134174   7.969   5.452   2.316  2.0131 -2.0211 -0.4512
10918SOL    HW234175   7.853   5.372   2.262  0.8515 -0.4539 -0.3586
10919SOL     OW34176   1.021   0.221   4.744  0.3376  0.5422 -0.2267
10919SOL    HW134177   1.019   0.126   4.726  2.0754  0.4423 -0.0812
10919SOL    HW234178   0.965   0.259   4.676  0.5356 -0.5000 -1.0042
10920SOL     OW34179   7.412   0.638   4.086  0.3144  0.0831 -0.1336
10920SOL    HW134180   7.477   0.694   4.129  0.0213  0.7659 -0.5568
10920SOL    HW234181   7.459   0.602   4.010  0.4439 -0.0909  0.0276
10921SOL     OW34182   6.278   2.940   2.950  0.4491  0.0947 -0.0129
10921SOL    HW134183   6.211   2.992   2.907 -0.0083  0.1234  0.7226
10921SOL    HW234184   6.339   3.004   2.985 -1.7646  0.4355  3.7019
10922SOL     OW34185   8.291   3.881   3.687 -0.1535  0.2049  0.0202
10922SOL    HW134186   8.258   3.811   3.631 -2.0502  0.6938  0.4414
10922SOL    HW234187   8.264   3.855   3.775 -0.2593  1.1245  0.2689
10923SOL     OW34188   2.987   1.113   6.829 -0.2404 -0.0477  0.2690
10923SOL    HW134189   2.947   1.090   6.745 -1.9108 -0.1628  1.0588
10923SOL    HW234190   3.073   1.069   6.827 -1.0148 -1.6323 -0.6010
10924SOL     OW34191   7.313   4.055   7.154 -0.1098  0.0648  0.0398
10924SOL    HW134192   7.397   4.067   7.198  0.0193  1.3737 -0.5130
10924SOL    HW234193   7.249   4.093   7.215  0.1198  2.3250 -1.0182
10925SOL     OW34194   2.347   5.791   8.006  0.3923  0.8479 -0.0593
10925SOL    HW134195   2.410   5.855   8.038  2.2403  0.3365 -2.3743
10925SOL    HW234196   2.315   5.747   8.085  1.3291  2.5538  1.3365
10926SOL     OW34197   4.200   2.496   3.635 -0.8146 -0.1595 -0.2644
10926SOL    HW134198   4.131   2.432   3.646 -0.3823 -0.5483  0.2486
10926SOL    HW234199   4.260   2.480   3.708 -0.9675  1.1718  0.1954
10927SOL     OW34200   7.146   6.820   4.000  0.6342  0.0627 -0.0268
10927SOL    HW134201   7.128   6.726   4.001  0.9486  0.0015  0.0160
10927SOL    HW234202   7.152   6.844   4.093  0.5147  0.1328 -0.0373
10928SOL     OW34203   6.102   8.029   7.204  0.3116  0.3310 -0.3745
10928SOL    HW134204   6.196   8.032   7.191  0.6121 -1.2416  1.1005
10928SOL    HW234205   6.081   7.935   7.208 -0.8794  0.6200  1.8817
10929SOL     OW34206   7.714   4.945   0.740 -0.6653  0.1526  0.1405
10929SOL    HW134207   7.765   4.908   0.669 -0.0663  1.0699  0.0843
10929SOL    HW234208   7.638   4.986   0.697 -2.0383 -2.0669  0.2940
10930SOL     OW34209   6.694   8.314   4.319 -0.8862  0.3295  0.3742
10930SOL    HW134210   6.705   8.380   4.387  0.7866  0.6073 -0.1256
10930SOL    HW234211   6.670   8.234   4.366  0.5723  0.4241  1.3533
10931SOL     OW34212   7.768   4.689   0.853 -0.4347 -0.5252 -0.3749
10931SOL    HW134213   7.721   4.685   0.937  1.1012  1.5104  0.6928
10931SOL    HW234214   7.746   4.775   0.818 -0.6942 -1.1756 -1.8907
10932SOL     OW34215   3.000   6.600   2.495  0.0042  0.0189  0.1443
10932SOL    HW134216   3.082   6.591   2.543  0.9021  1.6983 -0.9650
10932SOL    HW234217   2.946   6.657   2.549  0.2501  0.3118  0.0850
10933SOL     OW34218   6.728   1.092   4.543  0.3755 -0.6530  0.3025
10933SOL    HW134219   6.678   1.106   4.463  0.8712 -1.6412 -0.2064
10933SOL    HW234220   6.683   1.143   4.609 -1.9537 -2.3115  0.1296
10934SOL     OW34221   7.506   7.041   7.539 -0.0878 -0.0477 -0.5858
10934SOL    HW134222   7.412   7.059   7.542 -0.1155  0.4247 -2.6629
10934SOL    HW234223   7.544   7.123   7.508  0.8184 -0.7588 -1.4024
10935SOL     OW34224   4.351   3.641   2.776  0.5751  0.3852  0.0852
10935SOL    HW134225   4.353   3.546   2.785 -1.0256  0.2642 -0.4411
10935SOL    HW234226   4.441   3.665   2.754  1.0511 -0.9792  0.4295
10936SOL     OW34227   1.735   2.895   5.049  0.2059 -0.7290  0.1197
10936SOL    HW134228   1.700   2.868   5.134 -2.0655  0.5609 -0.3055
10936SOL    HW234229   1.659   2.892   4.990  1.1607  0.7372 -1.2810
10937SOL     OW34230   5.714   6.232   5.851  0.8572  0.0156 -0.4841
10937SOL    HW134231   5.757   6.246   5.935 -0.6322  0.5610  0.2172
10937SOL    HW234232   5.658   6.309   5.839 -1.0319 -1.3098 -0.6378
10938SOL     OW34233   3.538   0.874   2.488 -0.7401  0.0486  0.3660
10938SOL    HW134234   3.500   0.900   2.405  0.0500 -0.9071 -0.3132
10938SOL    HW234235   3.535   0.953   2.542 -1.2265  0.6783 -0.5710
10939SOL     OW34236   5.755   7.408   3.407  0.0502  0.1604  0.7833
10939SOL    HW134237   5.678   7.395   3.463 -0.1230 -1.3003  0.2525
10939SOL    HW234238   5.753   7.334   3.347  2.1672 -0.2070  1.0939
10940SOL     OW34239   5.075   6.053   7.714  0.0666 -0.0452  0.6136
10940SOL    HW134240   5.158   6.099   7.729 -0.7540  2.0043 -0.7379
10940SOL    HW234241   5.062   6.057   7.620 -1.6858 -0.1283  0.8210
10941SOL     OW34242   7.752   4.086   4.880 -0.1914  0.0166  0.0651
10941SOL    HW134243   7.665   4.096   4.917  0.9527  1.9892  2.4809
10941SOL    HW234244   7.786   4.175   4.874  1.3586 -0.6300 -1.6950
10942SOL     OW34245   1.894   3.090   6.885  0.1371 -0.0108 -0.6885
10942SOL    HW134246   1.860   3.173   6.916  1.2389  0.0574  0.3923
10942SOL    HW234247   1.860   3.025   6.946 -1.6356 -0.5468 -2.1622
10943SOL     OW34248   3.363   7.187   1.682 -0.2146  1.0297 -0.0792
10943SOL    HW134249   3.410   7.266   1.654  0.6989  1.2706  1.9322
10943SOL    HW234250   3.388   7.121   1.618 -0.4868  2.1853 -1.4359
10944SOL     OW34251   3.918   3.319   3.250 -0.6783 -0.0056 -0.7991
10944SOL    HW134252   3.919   3.409   3.216  1.2308  1.0283  1.6867
10944SOL    HW234253   3.883   3.327   3.338  0.2832 -1.5849 -0.2379
10945SOL     OW34254   4.601   2.866   4.986 -0.4576  0.2517 -0.2864
10945SOL    HW134255   4.676   2.851   4.929  2.2604  2.6709  2.2789
10945SOL    HW234256   4.587   2.782   5.030  0.3179 -0.4130 -1.2728
10946SOL     OW34257   7.447   7.113   0.423 -0.1767  0.4948  0.4170
10946SOL    HW134258   7.508   7.110   0.497 -0.4902  0.0494  0.6621
10946SOL    HW234259   7.380   7.048   0.444 -0.1088  0.1395 -0.4008
10947SOL     OW34260   6.364   0.609   3.317 -0.0834 -0.5478 -0.3578
10947SOL    HW134261   6.397   0.680   3.262 -1.6051  0.9105  0.5158
10947SOL    HW234262   6.422   0.610   3.394 -0.2036 -0.1099 -0.2674
10948SOL     OW34263   4.859   0.880   3.432 -0.1194  0.2061  0.3850
10948SOL    HW134264   4.829   0.941   3.365  1.5990  0.6146 -0.0694
10948SOL    HW234265   4.866   0.933   3.511 -1.0842 -0.0230  0.6398
10949SOL     OW34266   4.506   1.995   1.416  0.1525  0.0819  0.7860
10949SOL    HW134267   4.417   1.971   1.391  0.4660 -0.8705  0.5486
10949SOL    HW234268   4.545   1.913   1.445  1.4410  0.1758 -0.5833
10950SOL     OW34269   0.810   6.028   4.083 -0.1829  0.2788  0.2823
10950SOL    HW134270   0.870   6.055   4.014 -0.0791 -1.4448 -0.3399
10950SOL    HW234271   0.797   5.934   4.069 -2.8418  0.5200  0.5325
10951SOL     OW34272   5.087   3.630   5.883 -0.1661  0.8228  0.1653
10951SOL    HW134273   5.149   3.703   5.888 -1.0661  1.5916  0.5431
10951SOL    HW234274   5.054   3.633   5.793  1.1948 -0.3509 -0.4212
10952SOL     OW34275   3.045   6.929   8.046 -0.0237  0.2906  0.3396
10952SOL    HW134276   3.140   6.922   8.036 -0.1595  1.3899 -2.5865
10952SOL    HW234277   3.016   6.841   8.069  1.5582 -0.3789 -0.1402
10953SOL     OW34278   0.244   7.637   6.357 -0.5014  0.1969 -0.1134
10953SOL    HW134279   0.188   7.576   6.405  0.5175  0.1758  1.1083
10953SOL    HW234280   0.293   7.581   6.296  0.3887 -0.2459  0.9607
10954SOL     OW34281   2.530   5.721   4.444  0.0228 -0.0815 -1.2167
10954SOL    HW134282   2.467   5.678   4.502  1.2247  0.2947  0.4542
10954SOL    HW234283   2.476   5.759   4.375 -1.7221  1.0192  0.6260
10955SOL     OW34284   5.910   2.298   3.569  0.2140  0.2912 -0.6645
10955SOL    HW134285   6.004   2.307   3.578  0.3373 -1.5212  0.2486
10955SOL    HW234286   5.894   2.307   3.475  1.2787  0.5841 -0.8281
10956SOL     OW34287   5.807   7.657   6.243  0.8231 -0.4326 -0.0232
10956SOL    HW134288   5.784   7.733   6.188 -0.0082  0.3499  1.3359
10956SOL    HW234289   5.900   7.644   6.228  0.9263  0.7075 -0.5132
10957SOL     OW34290   6.839   7.180   5.845 -0.0526 -0.2910 -0.3634
10957SOL    HW134291   6.862   7.169   5.937 -1.2444  1.5590  0.2177
10957SOL    HW234292   6.871   7.100   5.802  0.0343 -1.4515  1.7302
10958SOL     OW34293   5.091   1.956   5.848 -0.5921  0.7236  0.6479
10958SOL    HW134294   5.120   1.929   5.761 -0.2589 -0.0825  1.0092
10958SOL    HW234295   5.152   2.025   5.874 -0.7611  1.0478  0.2077
10959SOL     OW34296   1.262   3.419   6.089 -0.6348 -0.1265  0.1980
10959SOL    HW134297   1.274   3.427   6.184  1.1931 -0.7423  0.0601
10959SOL    HW234298   1.189   3.477   6.069  0.7819  2.2990  1.5759
10960SOL     OW34299   7.359   6.950   1.909  0.5449 -0.2807  0.2773
10960SOL    HW134300   7.352   7.034   1.864  0.2264 -0.3751  0.1552
10960SOL    HW234301   7.435   6.908   1.869  0.7441 -0.0257  0.3821
10961SOL     OW34302   0.271   4.355   1.700  0.3198  0.5577 -0.2225
10961SOL    HW134303   0.193   4.369   1.755 -0.9631  1.8767 -2.2357
10961SOL    HW234304   0.236   4.321   1.618  2.2938 -2.6846  0.1035
10962SOL     OW34305   2.772   0.428   5.857 -0.1448 -0.3420 -0.7591
10962SOL    HW134306   2.761   0.413   5.951 -1.1101 -1.0415 -0.9654
10962SOL    HW234307   2.700   0.380   5.816  0.3124 -0.1262 -1.8699
10963SOL     OW34308   4.196   2.044   4.075  0.4006  0.0590  0.8469
10963SOL    HW134309   4.200   1.952   4.050  0.2302  0.1924  0.3232
10963SOL    HW234310   4.146   2.044   4.157  0.5308 -0.3278  0.9309
10964SOL     OW34311   3.841   5.959   1.989  0.1131 -0.3270 -0.3643
10964SOL    HW134312   3.911   6.024   1.988  0.6340 -0.8401  0.5374
10964SOL    HW234313   3.882   5.878   1.958 -0.5069 -0.2632 -1.3988
10965SOL     OW34314   0.257   0.771   1.866 -0.0033  0.0112  0.4869
10965SOL    HW134315   0.326   0.836   1.881  1.0204 -0.9053 -0.1585
10965SOL    HW234316   0.221   0.754   1.953  0.9213  0.1336  0.9043
10966SOL     OW34317   7.055   6.365   4.315  0.4483 -0.0348 -0.2860
10966SOL    HW134318   7.047   6.447   4.362  1.9184 -0.6018  1.0325
10966SOL    HW234319   7.148   6.345   4.316  0.2070 -1.3914 -1.1564
10967SOL     OW34320   3.184   1.108   2.977  0.3619 -0.1581  0.3998
10967SOL    HW134321   3.219   1.192   2.947 -2.3524  0.6655 -0.7974
10967SOL    HW234322   3.163   1.060   2.897 -1.6714 -0.3533  0.9858
10968SOL     OW34323   6.984   2.502   4.394  0.2953 -0.3166  0.1159
10968SOL    HW134324   7.044   2.461   4.331 -0.8624 -0.6102 -0.8266
10968SOL    HW234325   6.958   2.584   4.354  0.9350  0.3632  1.0444
10969SOL     OW34326   8.363   2.441   5.117  0.2118 -0.8405  0.0407
10969SOL    HW134327   8.327   2.480   5.038  1.7790 -1.4185 -1.0101
10969SOL    HW234328   8.451   2.412   5.092  1.6899  0.9997  2.5768
10970SOL     OW34329   3.498   7.043   2.280  0.4690  0.0790  0.0782
10970SOL    HW134330   3.464   7.001   2.359 -0.6558  0.8906  0.0496
10970SOL    HW234331   3.434   7.020   2.212 -0.0251  1.6030  0.0045
10971SOL     OW34332   5.969   6.697   1.051 -0.0507 -0.5702 -0.0508
10971SOL    HW134333   5.891   6.647   1.076 -0.3901 -0.2812 -0.5061
10971SOL    HW234334   5.979   6.763   1.120 -1.0830  0.3392 -0.7232
10972SOL     OW34335   3.414   4.800   8.089  0.5422 -0.0311  0.3052
10972SOL    HW134336   3.448   4.711   8.078  0.9539 -0.0400  1.5380
10972SOL    HW234337   3.416   4.815   8.183 -0.2859  0.9982  0.1747
10973SOL     OW34338   6.632   1.397   1.471 -0.0617  0.0485  0.0807
10973SOL    HW134339   6.688   1.345   1.529 -0.8040 -0.3915  0.4243
10973SOL    HW234340   6.595   1.465   1.527 -1.7401 -1.1000  0.4826
10974SOL     OW34341   5.894   2.694   5.536  0.4151 -0.4644  0.1219
10974SOL    HW134342   5.977   2.685   5.582  0.3756 -0.5488  0.1756
10974SOL    HW234343   5.918   2.699   5.443  0.4673 -0.6505  0.1255
10975SOL     OW34344   0.980   4.992   8.213  0.5845  0.4738 -0.4311
10975SOL    HW134345   0.974   5.045   8.293 -2.4553  0.2695 -0.4186
10975SOL    HW234346   0.889   4.975   8.189  1.4052  0.4308 -3.9202
10976SOL     OW34347   4.216   0.367   6.969  0.1129 -0.1222 -0.0424
10976SOL    HW134348   4.205   0.397   6.878  0.7726 -0.1344 -0.1321
10976SOL    HW234349   4.307   0.389   6.990 -0.5038  1.4695  1.1962
10977SOL     OW34350   4.387   0.608   0.733 -0.1498  0.3254 -0.1635
10977SOL    HW134351   4.329   0.580   0.804  0.8682 -1.6736 -0.0530
10977SOL    HW234352   4.440   0.678   0.771 -0.5975  0.2739  0.5769
10978SOL     OW34353   5.356   7.900   3.602 -0.2551  0.3237  0.0571
10978SOL    HW134354   5.368   7.826   3.661 -2.5862  0.1761  0.4519
10978SOL    HW234355   5.405   7.877   3.523  0.3018 -0.9318  0.7455
10979SOL     OW34356   7.256   6.338   0.048  0.3236 -0.2627 -0.0170
10979SOL    HW134357   7.288   6.420   0.012  1.5331 -1.0168 -0.7145
10979SOL    HW234358   7.335   6.287   0.066 -0.3395 -3.1976 -4.0751
10980SOL     OW34359   0.595   7.108   8.249 -0.1804 -0.0735 -0.1220
10980SOL    HW134360   0.652   7.083   8.177 -0.7867  1.6972 -1.2517
10980SOL    HW234361   0.513   7.134   8.208 -0.5755  0.8954  1.2093
10981SOL     OW34362   4.468   7.866   0.731 -0.1498 -0.8342  0.0877
10981SOL    HW134363   4.375   7.853   0.713 -0.3300  0.4550  0.0307
10981SOL    HW234364   4.493   7.941   0.679  0.4071  0.1545  1.6993
10982SOL     OW34365   4.376   4.219   5.275  0.5465  0.5431  0.7179
10982SOL    HW134366   4.317   4.145   5.272  0.7455  0.3988  0.0281
10982SOL    HW234367   4.432   4.208   5.198  0.2707  1.6551  0.3380
10983SOL     OW34368   4.227   5.504   2.177 -0.1626 -0.1178 -0.5856
10983SOL    HW134369   4.139   5.475   2.199 -0.2112  0.4095 -0.0748
10983SOL    HW234370   4.230   5.596   2.202  1.3486 -0.7490  1.9079
10984SOL     OW34371   5.178   7.900   5.333  0.1755 -0.6679 -0.4591
10984SOL    HW134372   5.097   7.939   5.365  0.9395  1.1950 -0.6931
10984SOL    HW234373   5.247   7.956   5.367  1.2243 -0.8278 -2.2027
10985SOL     OW34374   4.401   1.824   5.333  0.6054  0.6050  0.0112
10985SOL    HW134375   4.326   1.883   5.341 -0.5443 -0.5693 -1.3824
10985SOL    HW234376   4.407   1.805   5.239  3.1792  1.2643 -0.0322
10986SOL     OW34377   8.178   3.738   7.173  0.3280 -0.4023 -0.2092
10986SOL    HW134378   8.195   3.648   7.145 -1.3559 -0.8347  0.0536
10986SOL    HW234379   8.103   3.731   7.232  0.6221  1.0970  0.3731
10987SOL     OW34380   2.261   0.697   3.327  0.1239 -0.2130  0.4388
10987SOL    HW134381   2.219   0.701   3.413 -0.0106 -1.6009  0.4727
10987SOL    HW234382   2.334   0.758   3.332 -0.6419  0.6830  1.0918
10988SOL     OW34383   4.697   3.310   3.884 -0.0294 -0.1979  0.8028
10988SOL    HW134384   4.687   3.266   3.968  1.0041  2.0295  2.1994
10988SOL    HW234385   4.610   3.345   3.865 -0.3312 -0.9428  0.7910
10989SOL     OW34386   6.567   2.053   6.911  0.0749  0.4412 -0.3929
10989SOL    HW134387   6.617   2.064   6.992  1.4314 -0.4407 -1.0609
10989SOL    HW234388   6.510   1.978   6.928 -1.4967  1.7765  0.5568
10990SOL     OW34389   1.817   2.096   3.107 -0.6085  0.7530  0.1013
10990SOL    HW134390   1.843   2.181   3.072 -3.0242  1.3841 -0.3799
10990SOL    HW234391   1.884   2.035   3.076  1.7657  2.5897  1.3373
10991SOL     OW34392   1.577   2.894   4.323  0.2176 -0.6483  0.2243
10991SOL    HW134393   1.539   2.912   4.237  3.4394 -1.2901 -1.4848
10991SOL    HW234394   1.590   2.800   4.324  2.0191 -0.4267  0.5428
10992SOL     OW34395   6.680   0.983   7.168 -0.3540  0.3538 -0.0940
10992SOL    HW134396   6.726   1.059   7.203 -1.0994  0.9815 -0.4481
10992SOL    HW234397   6.711   0.975   7.078  1.0068 -0.8163  0.4324
10993SOL     OW34398   5.429   7.438   3.862  0.3303 -0.0147  0.4211
10993SOL    HW134399   5.339   7.405   3.870 -0.0963  0.7009 -0.9910
10993SOL    HW234400   5.458   7.451   3.952 -1.2300  0.3321  0.9101
10994SOL     OW34401   5.140   3.644   6.983 -0.4524  0.8410 -0.2689
10994SOL    HW134402   5.048   3.663   6.967 -0.8540 -1.9082 -2.0072
10994SOL    HW234403   5.158   3.566   6.930  2.1354 -0.3932  2.1176
10995SOL     OW34404   6.793   2.259   7.475 -0.5067 -0.3634  0.3904
10995SOL    HW134405   6.883   2.291   7.481 -0.5564 -0.3154  0.9659
10995SOL    HW234406   6.754   2.306   7.402  0.5612 -1.9126 -1.2544
10996SOL     OW34407   7.172   0.745   7.625 -0.4768  0.1749 -0.0163
10996SOL    HW134408   7.196   0.823   7.575 -0.2342 -1.0816 -1.9772
10996SOL    HW234409   7.133   0.686   7.561 -0.7331 -1.2957  1.4129
10997SOL     OW34410   3.810   5.574   5.942 -0.0278 -0.0977  0.6777
10997SOL    HW134411   3.890   5.600   5.988  0.2555  0.9573 -0.3726
10997SOL    HW234412   3.826   5.484   5.915  0.9671  0.2124  0.1711
10998SOL     OW34413   7.112   0.443   4.492  0.0553  0.4735  0.2654
10998SOL    HW134414   7.200   0.447   4.530  0.0561  2.7155  0.1608
10998SOL    HW234415   7.126   0.445   4.397 -0.0506 -2.4418  0.0987
10999SOL     OW34416   0.869   6.591   3.626  0.3565 -0.2465 -0.2556
10999SOL    HW134417   0.828   6.518   3.581  3.0999 -1.3422 -1.2127
10999SOL    HW234418   0.874   6.661   3.561 -0.4250  0.0858  0.0293
11000SOL     OW34419   5.562   6.510   5.869  0.6404  0.0017  0.1876
11000SOL    HW134420   5.494   6.514   5.802 -0.9801  1.3145  1.8156
11000SOL    HW234421   5.638   6.551   5.829 -0.2383  0.6000 -0.9194
11001SOL     OW34422   3.461   5.906   3.714  0.0008  0.3850  0.4615
11001SOL    HW134423   3.440   5.816   3.739 -0.7327  0.0882 -1.1045
11001SOL    HW234424   3.393   5.930   3.652  1.0356  1.4913 -0.2806
11002SOL     OW34425   7.519   3.711   1.150  0.3940  0.0128  0.5389
11002SOL    HW134426   7.533   3.736   1.058 -0.8130 -0.7746  0.1234
11002SOL    HW234427   7.506   3.616   1.147  0.6405 -0.0635  1.5691
11003SOL     OW34428   0.179   6.916   7.159  0.7212  0.4174  0.2100
11003SOL    HW134429   0.273   6.899   7.149  0.4481 -0.7979 -0.4084
11003SOL    HW234430   0.166   7.001   7.116  1.6074  0.8071  0.6914
11004SOL     OW34431   7.099   3.091   5.874 -0.2195 -0.6712 -0.2580
11004SOL    HW134432   7.096   3.186   5.882  0.4519 -0.4748 -1.9595
11004SOL    HW234433   7.151   3.062   5.949  1.5153  0.5299 -0.9303
11005SOL     OW34434   1.883   1.761   4.218  0.1576 -0.3968  0.6363
11005SOL    HW134435   1.917   1.760   4.308  1.8637  0.8276  0.0532
11005SOL    HW234436   1.789   1.744   4.228 -0.3344  2.7652  2.9911
11006SOL     OW34437   7.086   6.539   2.969  0.3532  0.5582  0.5537
11006SOL    HW134438   7.002   6.520   2.928 -0.1138  2.3113  0.6281
11006SOL    HW234439   7.091   6.634   2.971  2.5943  0.5103  0.0411
11007SOL     OW34440   7.333   2.684   1.335 -0.2013 -0.1289  0.3017
11007SOL    HW134441   7.300   2.690   1.246 -0.1829  2.1981  0.3938
11007SOL    HW234442   7.255   2.669   1.389 -0.4805  0.4418  0.0629
11008SOL     OW34443   3.490   0.464   2.935  0.1163 -0.1814 -0.8845
11008SOL    HW134444   3.559   0.452   2.870  0.8747  0.8188 -0.2915
11008SOL    HW234445   3.445   0.543   2.908 -1.0875 -1.0468 -1.4946
11009SOL     OW34446   7.518   1.202   0.607  0.6208  0.3966 -0.6171
11009SOL    HW134447   7.478   1.122   0.643  1.3005 -0.2041 -1.1631
11009SOL    HW234448   7.444   1.260   0.590  0.2194  0.4496  1.1033
11010SOL     OW34449   2.058   2.196   7.808 -0.3714 -0.0066  0.2573
11010SOL    HW134450   2.091   2.283   7.830 -0.5627  0.0984  0.1234
11010SOL    HW234451   2.106   2.137   7.867  0.3032  0.1117 -0.1728
11011SOL     OW34452   5.639   3.607   4.300 -0.2302  0.5826 -0.0105
11011SOL    HW134453   5.662   3.620   4.208 -1.3828 -0.2650 -0.4410
11011SOL    HW234454   5.723   3.615   4.347  0.8318 -1.4446 -1.3986
11012SOL     OW34455   3.848   6.997   6.462 -0.1974 -0.0069 -0.4775
11012SOL    HW134456   3.836   7.090   6.440  0.2685 -0.2646 -1.8988
11012SOL    HW234457   3.870   6.998   6.555 -1.1471  1.2321 -0.2369
11013SOL     OW34458   7.064   8.241   4.869  0.0254  0.3032  0.7563
11013SOL    HW134459   7.096   8.209   4.784 -2.1733 -0.5648  0.2016
11013SOL    HW234460   7.126   8.205   4.932 -0.0933 -1.7456 -0.2088
11014SOL     OW34461   1.192   1.790   0.164 -0.4168 -0.5139 -0.2477
11014SOL    HW134462   1.198   1.820   0.255 -0.1844 -1.3149  0.0090
11014SOL    HW234463   1.272   1.739   0.150 -0.5750 -0.6132 -0.8257
11015SOL     OW34464   1.358   8.067   5.355 -0.7082  0.1258  0.1425
11015SOL    HW134465   1.350   7.978   5.320  0.4808  0.0509  0.0153
11015SOL    HW234466   1.269   8.102   5.353 -1.0702 -0.7984 -0.5145
11016SOL     OW34467   4.406   4.375   2.743 -0.9589 -0.1368 -0.6360
11016SOL    HW134468   4.334   4.315   2.721 -1.4871 -1.0756  2.9232
11016SOL    HW234469   4.484   4.320   2.742 -0.8334  0.0547 -1.1844
11017SOL     OW34470   3.976   0.608   2.955  0.2832 -0.2572  0.5350
11017SOL    HW134471   4.026   0.619   3.035  0.7353  0.0520  0.2159
11017SOL    HW234472   4.003   0.524   2.920  3.9006  1.6456 -1.8796
11018SOL     OW34473   2.323   0.450   0.520  0.1526 -0.0342 -0.7099
11018SOL    HW134474   2.361   0.379   0.572  1.7125  1.5849  0.5031
11018SOL    HW234475   2.369   0.529   0.550 -1.2012  1.4454 -2.2930
11019SOL     OW34476   3.374   2.883   0.330 -0.5489  0.1800  0.0194
11019SOL    HW134477   3.371   2.823   0.405  0.6182  1.0085  0.7530
11019SOL    HW234478   3.443   2.848   0.275  1.9405  2.1557  1.6733
11020SOL     OW34479   0.391   8.283   4.155 -0.2436  0.2211  0.1005
11020SOL    HW134480   0.390   8.234   4.237  1.3308  1.8802  1.1882
11020SOL    HW234481   0.484   8.284   4.130 -0.0029  3.4537  0.7188
11021SOL     OW34482   1.915   5.447   4.378  0.4113 -0.5374  0.0868
11021SOL    HW134483   1.840   5.421   4.432  0.3400 -1.2954 -0.3731
11021SOL    HW234484   1.930   5.373   4.319  0.7859  0.0841 -0.6194
11022SOL     OW34485   1.155   8.178   1.667  0.3305  0.0568 -0.0965
11022SOL    HW134486   1.119   8.251   1.617  0.4680  0.8904  0.9862
11022SOL    HW234487   1.247   8.201   1.680  0.0692  0.3464  1.3754
11023SOL     OW34488   2.294   0.548   6.609 -0.1600  0.4142  0.1906
11023SOL    HW134489   2.292   0.544   6.705  2.2866  0.3923  0.3134
11023SOL    HW234490   2.315   0.459   6.582 -0.1843  0.5628 -0.3141
11024SOL     OW34491   5.192   4.737   7.656 -0.1554  0.0686 -0.2024
11024SOL    HW134492   5.234   4.794   7.720  0.8910 -0.4086 -0.4429
11024SOL    HW234493   5.207   4.780   7.572  0.0402 -0.2167 -0.3145
11025SOL     OW34494   0.921   4.937   6.674 -0.8038  0.0474  0.0391
11025SOL    HW134495   0.848   4.932   6.612  0.0219 -2.4685 -0.8130
11025SOL    HW234496   0.996   4.962   6.621 -0.2213 -1.4791  0.1193
11026SOL     OW34497   1.708   2.224   5.401  0.8396 -0.1508  0.1344
11026SOL    HW134498   1.795   2.243   5.365  0.5739 -2.0916 -1.7027
11026SOL    HW234499   1.725   2.197   5.491  1.9330  1.1190  0.3496
11027SOL     OW34500   0.007   4.712   6.398  0.4164 -0.3915 -0.0010
11027SOL    HW134501  -0.071   4.675   6.439  0.6733 -1.5429 -0.5219
11027SOL    HW234502   0.080   4.682   6.453  0.6310 -0.7161 -0.4534
11028SOL     OW34503   7.342   4.334   6.916 -0.1109  0.2891  0.6643
11028SOL    HW134504   7.254   4.328   6.954  0.6625 -1.3713  2.3733
11028SOL    HW234505   7.399   4.351   6.991  1.0384  1.4512 -0.4347
11029SOL     OW34506   5.101   8.257   4.698 -0.2200 -0.3840  0.5920
11029SOL    HW134507   5.165   8.270   4.628 -0.6488  0.4920  0.3479
11029SOL    HW234508   5.136   8.305   4.772 -1.0163  0.8747  0.1834
11030SOL     OW34509   7.650   0.066   1.045  0.5561  0.0928 -0.1591
11030SOL    HW134510   7.619   0.131   1.108  0.7048  0.8099 -0.8191
11030SOL    HW234511   7.733   0.034   1.083  0.3071  0.0186  0.3368
11031SOL     OW34512   1.030   6.779   5.408  0.0643 -0.3406 -0.6605
11031SOL    HW134513   1.099   6.798   5.472 -0.4006  0.0628 -0.2688
11031SOL    HW234514   0.960   6.841   5.430 -1.5588 -2.4925  0.6880
11032SOL     OW34515   8.088   8.008   8.276  0.3106  0.2034 -0.0254
11032SOL    HW134516   8.161   7.970   8.228 -0.1219  0.7297 -1.1380
11032SOL    HW234517   8.015   8.006   8.214 -0.6312 -0.3140  1.0569
11033SOL     OW34518   7.998   3.422   0.483 -0.0168  0.6499  0.1145
11033SOL    HW134519   7.975   3.494   0.542 -0.5641  1.4397 -1.0333
11033SOL    HW234520   8.068   3.457   0.428 -1.7228  1.1114 -1.8943
11034SOL     OW34521   3.506   8.343   2.515 -0.0701  0.6086 -0.5052
11034SOL    HW134522   3.492   8.249   2.528 -0.0669  0.6344 -0.3187
11034SOL    HW234523   3.518   8.352   2.421  2.1686  0.1361 -0.3138
11035SOL     OW34524   7.936   0.024   1.083 -0.4953  0.6995 -0.0868
11035SOL    HW134525   7.938   0.002   0.990 -0.2459 -0.1687  0.1144
11035SOL    HW234526   7.952   0.119   1.085  1.9044  0.3887 -0.8102
11036SOL     OW34527   3.689   1.495   0.921  0.1116  0.3640 -0.0323
11036SOL    HW134528   3.720   1.453   0.841 -0.7547  0.1023 -0.2467
11036SOL    HW234529   3.759   1.481   0.985  0.8322  0.6146 -0.7508
11037SOL     OW34530   5.616   0.598   2.737 -0.1852  0.4673 -0.4931
11037SOL    HW134531   5.663   0.514   2.736 -1.4482 -0.2847 -2.0778
11037SOL    HW234532   5.627   0.632   2.648 -1.0816  1.1677 -0.3513
11038SOL     OW34533   8.221   5.302   0.347 -0.0369 -0.3294  0.1322
11038SOL    HW134534   8.190   5.380   0.300 -2.0094 -0.6166  0.8293
11038SOL    HW234535   8.231   5.236   0.280 -0.8947 -0.1794 -0.1563
11039SOL     OW34536   4.177   2.346   4.289  0.5774 -0.4337  0.1302
11039SOL    HW134537   4.262   2.327   4.329  0.8594  0.8730  0.1889
11039SOL    HW234538   4.140   2.415   4.344  1.4736  2.2899 -2.4047
11040SOL     OW34539   8.100   8.247   3.235  0.1364  0.2619  0.0962
11040SOL    HW134540   8.195   8.256   3.240  0.2163 -0.8559  0.9518
11040SOL    HW234541   8.085   8.153   3.227 -0.9195  0.3833  0.5221
11041SOL     OW34542   7.245   0.349   7.306  0.0755 -0.1774  0.4635
11041SOL    HW134543   7.173   0.322   7.364 -0.3757 -1.3295 -0.5988
11041SOL    HW234544   7.206   0.414   7.248  0.6872  1.4595  1.7921
11042SOL     OW34545   7.464   7.652   1.452  0.2953  0.2609  0.2354
11042SOL    HW134546   7.493   7.619   1.537 -2.4658  1.8755  1.9957
11042SOL    HW234547   7.484   7.746   1.455 -0.6264  0.4985 -0.4779
11043SOL     OW34548   2.651   1.449   6.430 -0.2682 -0.3097  0.5892
11043SOL    HW134549   2.600   1.402   6.496  0.6287  0.2939  1.7434
11043SOL    HW234550   2.739   1.456   6.467  0.6020 -1.0308 -1.2197
11044SOL     OW34551   7.054   2.310   0.494  0.5674 -0.4454  0.3891
11044SOL    HW134552   7.056   2.308   0.399  0.2988 -0.0186  0.3720
11044SOL    HW234553   6.962   2.299   0.517  0.4021  0.9961  0.5398
11045SOL     OW34554   3.610   3.067   5.844 -0.3644 -0.4147 -0.4629
11045SOL    HW134555   3.676   3.067   5.775 -1.4404 -0.5172 -1.5061
11045SOL    HW234556   3.615   2.979   5.882 -1.5001 -1.2374 -2.1194
11046SOL     OW34557   6.010   0.210   8.344  0.1861  0.3665 -0.5237
11046SOL    HW134558   5.979   0.195   8.434  2.4511 -0.7115  0.1285
11046SOL    HW234559   6.018   0.305   8.338  1.3817  0.3971  0.9435
11047SOL     OW34560   1.019   1.393   1.692 -0.7711 -0.5453  0.1341
11047SOL    HW134561   1.057   1.457   1.752  2.2194 -3.0388  1.1352
11047SOL    HW234562   0.999   1.443   1.613  0.0476  1.8564  1.3443
11048SOL     OW34563   1.971   3.180   6.618 -0.1423  0.1248 -0.2345
11048SOL    HW134564   1.910   3.158   6.688 -0.4797  0.5849 -0.3778
11048SOL    HW234565   1.951   3.118   6.547  0.2457 -0.3860  0.0912
11049SOL     OW34566   1.757   4.038   2.297  0.2617  0.3698 -0.1944
11049SOL    HW134567   1.806   3.977   2.242  0.4619  1.6366 -1.4788
11049SOL    HW234568   1.665   4.018   2.279  0.2287 -1.6523  1.8194
11050SOL     OW34569   3.679   5.917   7.850 -0.1768 -0.7542  0.0194
11050SOL    HW134570   3.606   5.881   7.900 -0.5608  2.2609  1.8264
11050SOL    HW234571   3.648   6.003   7.820  1.3927 -0.9053 -2.3285
11051SOL     OW34572   2.231   4.094   1.200 -0.6681 -0.3276  0.3403
11051SOL    HW134573   2.165   4.154   1.166  0.0525  0.7892  0.8686
11051SOL    HW234574   2.307   4.149   1.219 -0.5330 -1.1132  2.3569
11052SOL     OW34575   3.307   1.317   4.422 -0.4703 -0.0885 -0.0523
11052SOL    HW134576   3.402   1.323   4.427 -0.4579 -0.9434  1.0273
11052SOL    HW234577   3.289   1.223   4.414 -1.2444  0.0153  0.3215
11053SOL     OW34578   2.725   8.220   3.555 -0.2272  0.4711 -0.4496
11053SOL    HW134579   2.665   8.277   3.507  0.5516  1.7127 -0.0210
11053SOL    HW234580   2.747   8.150   3.494 -1.1175  0.6933 -1.0407
11054SOL     OW34581   2.610   0.927   2.033  0.4878  0.1494  0.2248
11054SOL    HW134582   2.666   0.998   2.003  1.0744 -0.0585  0.7938
11054SOL    HW234583   2.563   0.964   2.108 -1.1298  0.7361 -1.0201
11055SOL     OW34584   3.524   1.049   5.206 -0.0241  0.6163 -0.1942
11055SOL    HW134585   3.590   0.982   5.223 -0.3086  0.1703 -0.8019
11055SOL    HW234586   3.538   1.074   5.115 -1.3268 -0.2146 -0.6476
11056SOL     OW34587   5.808   0.716   0.199  0.4634 -0.0642  0.1743
11056SOL    HW134588   5.826   0.655   0.271  0.5358 -0.6347 -0.3173
11056SOL    HW234589   5.850   0.675   0.123  1.8502  1.3532  0.1373
11057SOL     OW34590   6.868   3.582   0.323  0.1687  0.2437  0.1351
11057SOL    HW134591   6.818   3.514   0.277  0.0362 -0.2219  0.9407
11057SOL    HW234592   6.960   3.561   0.304  0.1608 -0.6358  1.0031
11058SOL     OW34593   1.255   0.411   7.437  0.1368 -0.8823 -0.0813
11058SOL    HW134594   1.249   0.328   7.485 -0.1082 -0.6867  0.2345
11058SOL    HW234595   1.340   0.447   7.463  0.5379 -1.3274 -0.7162
11059SOL     OW34596   5.842   6.139   7.741 -0.0416  0.1773  0.1282
11059SOL    HW134597   5.823   6.056   7.784  3.1221 -0.8570 -0.2067
11059SOL    HW234598   5.822   6.206   7.806 -2.2520 -0.7982  0.5500
11060SOL     OW34599   5.541   0.020   3.427 -0.1831  0.0991  0.1244
11060SOL    HW134600   5.452   0.056   3.424 -0.8715 -1.3775  1.3126
11060SOL    HW234601   5.584   0.057   3.350 -1.2147  2.3425  0.5102
11061SOL     OW34602   4.048   0.303   0.836  0.1159 -0.0333 -0.3627
11061SOL    HW134603   4.118   0.360   0.867 -0.1549 -0.2376  0.6769
11061SOL    HW234604   4.041   0.322   0.743  0.7930  0.7998 -0.2580
11062SOL     OW34605   1.849   5.019   0.124  0.6063  0.5139 -0.2759
11062SOL    HW134606   1.787   5.072   0.174  1.3413  2.6289 -1.4898
11062SOL    HW234607   1.917   4.996   0.187 -0.2431  0.0776  0.5182
11063SOL     OW34608   5.642   2.780   0.704  0.3125 -0.1632  0.4195
11063SOL    HW134609   5.613   2.852   0.647 -1.1369  1.0552  2.5449
11063SOL    HW234610   5.735   2.796   0.717  0.1231  1.0602  0.4245
11064SOL     OW34611   3.687   7.091   1.523 -0.4084  0.2365  0.9280
11064SOL    HW134612   3.649   7.162   1.472  1.1294  1.5346  1.5269
11064SOL    HW234613   3.763   7.130   1.567  2.3505 -2.3798 -1.0636
11065SOL     OW34614   7.802   4.657   5.362 -0.0672  0.0955  0.4948
11065SOL    HW134615   7.805   4.616   5.275 -0.0970  2.0603 -0.4911
11065SOL    HW234616   7.873   4.721   5.361  1.8320 -1.7782  3.0277
11066SOL     OW34617   0.418   0.010   6.975 -0.0392  0.5306 -0.2259
11066SOL    HW134618   0.376   0.058   6.903 -0.2049 -2.2694 -2.1618
11066SOL    HW234619   0.359   0.021   7.049 -2.7872 -0.7891 -2.0270
11067SOL     OW34620   7.035   0.783   2.863 -0.0533 -0.3732 -0.1691
11067SOL    HW134621   6.990   0.797   2.779  1.2189  0.1506 -0.7887
11067SOL    HW234622   7.009   0.857   2.917 -1.7442 -1.2694  0.3208
11068SOL     OW34623   0.920   5.493   2.116 -0.0237  0.3341 -0.0322
11068SOL    HW134624   0.854   5.441   2.161  0.0622 -0.7187 -1.1058
11068SOL    HW234625   1.003   5.449   2.135  0.0926  0.2742 -0.6570
11069SOL     OW34626   1.646   0.455   5.186  0.0783  0.6903  0.4763
11069SOL    HW134627   1.603   0.540   5.180  3.3503  2.4443 -0.8864
11069SOL    HW234628   1.717   0.459   5.122 -0.1193 -3.4821 -0.3252
11070SOL     OW34629   0.996   0.017   5.462  0.1503 -0.6204 -0.0705
11070SOL    HW134630   1.087   0.022   5.491  0.0589  1.6753 -0.0127
11070SOL    HW234631   0.990   0.082   5.392 -1.4209 -0.8349 -0.1658
11071SOL     OW34632   3.421   7.347   8.333 -0.8750  0.4770 -0.4242
11071SOL    HW134633   3.369   7.303   8.400 -0.6702 -1.2968 -1.3581
11071SOL    HW234634   3.377   7.326   8.251 -0.1719  1.2004 -1.0034
11072SOL     OW34635   6.311   7.432   6.584 -0.1788  0.1050 -0.2312
11072SOL    HW134636   6.309   7.525   6.607 -3.0203 -0.0990  0.7605
11072SOL    HW234637   6.353   7.430   6.498  0.2543  2.2466 -0.1391
11073SOL     OW34638   5.532   0.734   4.446 -0.4240  0.3924 -0.2581
11073SOL    HW134639   5.620   0.746   4.482 -0.4907  0.3104 -0.0694
11073SOL    HW234640   5.547   0.716   4.353 -0.1618 -0.9798  0.0344
11074SOL     OW34641   5.459   3.658   6.177  0.2923  0.3011  0.0071
11074SOL    HW134642   5.554   3.657   6.160  0.4029  0.8638  0.5398
11074SOL    HW234643   5.419   3.632   6.094  0.9091  0.2337 -0.2746
11075SOL     OW34644   2.081   5.479   8.255 -0.5122 -0.6911  0.6494
11075SOL    HW134645   2.037   5.464   8.171  0.2630 -0.8689  0.2621
11075SOL    HW234646   2.012   5.511   8.313 -0.8706  0.3416 -0.3132
11076SOL     OW34647   7.260   3.024   6.124  0.1918  0.0860  0.4186
11076SOL    HW134648   7.332   2.975   6.164  1.0909  1.5290  0.6326
11076SOL    HW234649   7.277   3.115   6.146  0.1281  0.8525 -2.2542
11077SOL     OW34650   0.868   3.650   1.827 -0.0481 -0.4989  0.3128
11077SOL    HW134651   0.800   3.703   1.787 -2.3947 -1.9180  2.1857
11077SOL    HW234652   0.886   3.580   1.763 -0.7682 -0.4409  0.0433
11078SOL     OW34653   0.144   3.834   6.965  0.2659 -0.0877  0.1174
11078SOL    HW134654   0.055   3.802   6.979 -0.1980  1.0486 -0.1028
11078SOL    HW234655   0.171   3.794   6.883 -1.2481  1.9494 -1.4768
11079SOL     OW34656   4.170   7.165   2.170 -0.0718 -0.6161 -0.0233
11079SOL    HW134657   4.238   7.098   2.175 -1.1365 -1.8863 -1.3725
11079SOL    HW234658   4.123   7.158   2.253 -0.8338 -2.3662 -0.5334
11080SOL     OW34659   6.477   1.439   5.276  0.6325  0.3575  0.0829
11080SOL    HW134660   6.410   1.494   5.317 -0.0458 -0.9545  0.7809
11080SOL    HW234661   6.481   1.361   5.331  0.1864 -1.1787 -1.9414
11081SOL     OW34662   6.592   4.467   5.832 -0.3116 -0.1839  0.1858
11081SOL    HW134663   6.498   4.460   5.849 -0.5750  1.4924 -0.3878
11081SOL    HW234664   6.598   4.489   5.739  0.5352  1.2124  0.5326
11082SOL     OW34665   6.744   8.136   6.277  0.2051 -0.3953 -0.0085
11082SOL    HW134666   6.813   8.140   6.211  0.1870  0.4442  0.0044
11082SOL    HW234667   6.778   8.190   6.349 -0.4725  0.0426 -0.0101
11083SOL     OW34668   0.194   6.501   1.367  0.2521 -0.2130 -0.4886
11083SOL    HW134669   0.204   6.576   1.426  1.0167  1.3234 -2.4509
11083SOL    HW234670   0.099   6.489   1.359  0.1305  0.1934  0.2461
11084SOL     OW34671   0.874   2.956   5.828  0.9014 -0.5645 -0.2147
11084SOL    HW134672   0.867   2.965   5.733  0.0336 -0.5025 -0.1588
11084SOL    HW234673   0.784   2.965   5.859  0.9750 -2.0550  0.4959
11085SOL     OW34674   5.239   5.990   4.939  0.2432 -0.3974 -0.0215
11085SOL    HW134675   5.175   5.962   5.005  0.1529  1.3571  0.7015
11085SOL    HW234676   5.321   5.999   4.988  0.3527  0.1684 -0.3034
11086SOL     OW34677   2.451   7.815   4.265  0.5461  0.4590 -0.6215
11086SOL    HW134678   2.545   7.797   4.273  0.7592  0.2648 -2.8610
11086SOL    HW234679   2.417   7.741   4.214 -0.8957  0.4078  0.3561
11087SOL     OW34680   8.135   5.794   6.410 -0.1707  0.0965  0.2991
11087SOL    HW134681   8.054   5.839   6.386  0.5501  1.2051 -0.1824
11087SOL    HW234682   8.204   5.846   6.367  0.9016  0.0548  1.9057
11088SOL     OW34683   6.266   8.154   3.604 -0.1802  0.2955 -0.5724
11088SOL    HW134684   6.275   8.158   3.509 -2.2694  1.1242 -0.7884
11088SOL    HW234685   6.352   8.181   3.637  0.0018  1.9537 -2.2298
11089SOL     OW34686   4.269   1.716   5.990  0.7417 -0.1803  0.0893
11089SOL    HW134687   4.202   1.785   5.989 -0.2194 -1.0489 -1.6362
11089SOL    HW234688   4.329   1.741   6.060 -0.7253  1.2850  0.8953
11090SOL     OW34689   7.066   2.115   5.752  0.4651  0.5824  1.0248
11090SOL    HW134690   6.985   2.116   5.803 -0.4389 -0.0035 -0.3333
11090SOL    HW234691   7.130   2.159   5.808 -0.3996 -0.2423  2.7543
11091SOL     OW34692   7.770   3.085   2.244  0.2019 -0.0023  0.1551
11091SOL    HW134693   7.830   3.124   2.308 -0.9279  0.8795  0.7147
11091SOL    HW234694   7.827   3.043   2.180  1.3861 -0.4565  1.4490
11092SOL     OW34695   6.944   5.186   3.439 -0.3055 -0.4892 -0.0278
11092SOL    HW134696   6.877   5.210   3.503 -1.8461 -0.6417 -1.5065
11092SOL    HW234697   7.013   5.251   3.451 -1.3737  0.5733  0.5881
11093SOL     OW34698   8.036   5.017   1.944 -0.3860  0.0630  0.1651
11093SOL    HW134699   8.067   5.073   2.015 -0.1260  0.5256 -0.3057
11093SOL    HW234700   8.100   5.029   1.874  0.3004 -1.6898  0.4448
11094SOL     OW34701   3.548   5.363   1.645 -0.5260 -0.1459 -0.4463
11094SOL    HW134702   3.485   5.433   1.661 -0.6282 -0.4503  0.5633
11094SOL    HW234703   3.527   5.331   1.557 -1.4312  0.1163 -0.3369
11095SOL     OW34704   3.262   4.715   6.089  0.0700 -0.9831  0.4812
11095SOL    HW134705   3.180   4.760   6.110  0.7106 -0.4489  1.9096
11095SOL    HW234706   3.275   4.732   5.995 -0.5986  0.3246  0.6099
11096SOL     OW34707   1.193   2.772   7.635 -0.0675 -0.4976  0.9295
11096SOL    HW134708   1.196   2.812   7.722  1.5988  1.0870  0.2099
11096SOL    HW234709   1.285   2.761   7.611 -0.4969 -0.7791 -0.6929
11097SOL     OW34710   0.425   6.742   6.275  0.1435  0.2072  0.1309
11097SOL    HW134711   0.387   6.774   6.193  0.0310 -0.0041  0.1003
11097SOL    HW234712   0.515   6.774   6.273 -0.0044  0.6234  0.1563
11098SOL     OW34713   4.751   5.940   5.479 -0.3363  0.1342 -0.1469
11098SOL    HW134714   4.656   5.948   5.469 -0.6660 -1.8570  0.9444
11098SOL    HW234715   4.785   5.930   5.390 -1.2155  0.1283 -0.4834
11099SOL     OW34716   1.503   2.224   4.433  1.0662 -0.2897 -0.6679
11099SOL    HW134717   1.557   2.186   4.502  0.9152  0.3101 -0.2147
11099SOL    HW234718   1.431   2.266   4.479 -0.5946 -2.2693 -1.3131
11100SOL     OW34719   8.007   4.194   7.171 -0.4998 -0.5968 -0.1559
11100SOL    HW134720   8.046   4.208   7.257  0.2612  1.2883 -0.7574
11100SOL    HW234721   7.990   4.282   7.137  0.8182 -1.1970 -2.6494
11101SOL     OW34722   6.102   3.764   6.673 -0.0705  0.0703  0.3554
11101SOL    HW134723   6.019   3.812   6.679 -1.5146 -2.3551  1.6518
11101SOL    HW234724   6.119   3.735   6.763  0.6725 -1.7962 -0.3390
11102SOL     OW34725   6.598   6.939   4.737 -0.1238  0.2236  0.0980
11102SOL    HW134726   6.504   6.956   4.733 -0.2864 -0.5014  0.5559
11102SOL    HW234727   6.620   6.944   4.830  0.4904  1.3288 -0.0832
11103SOL     OW34728   2.596   7.111   5.231 -0.1649 -0.6574 -0.1011
11103SOL    HW134729   2.678   7.127   5.279  0.7133 -1.5933 -1.2188
11103SOL    HW234730   2.578   7.019   5.246  1.6564 -1.7727 -3.6748
11104SOL     OW34731   6.527   1.769   0.380 -0.3493  0.2355  0.3212
11104SOL    HW134732   6.529   1.865   0.381  1.7382  0.2291  1.1757
11104SOL    HW234733   6.596   1.743   0.441 -0.8518 -1.8264  0.0806
11105SOL     OW34734   4.913   3.503   3.830  0.3482  0.2649 -0.0669
11105SOL    HW134735   4.937   3.474   3.742 -2.2192 -0.5394 -0.5741
11105SOL    HW234736   4.844   3.443   3.858  2.1251 -0.5072  3.2106
11106SOL     OW34737   2.186   2.794   0.569 -0.0255  0.0028 -0.7639
11106SOL    HW134738   2.208   2.703   0.548 -0.4460 -0.0084 -1.1810
11106SOL    HW234739   2.099   2.789   0.607  0.4058  0.1160  0.2608
11107SOL     OW34740   5.878   0.132   6.816  0.5555 -0.6034 -0.2617
11107SOL    HW134741   5.928   0.130   6.898 -1.3018 -3.8597  0.9477
11107SOL    HW234742   5.789   0.155   6.843  0.5224  1.6224 -1.9293
11108SOL     OW34743   8.257   1.461   4.844  0.4524 -0.1401  0.0535
11108SOL    HW134744   8.298   1.497   4.766  2.1311 -0.2185  0.8554
11108SOL    HW234745   8.202   1.531   4.877 -0.1953 -0.0725 -1.1187
11109SOL     OW34746   6.102   1.161   6.146  0.1721 -0.5943  0.4606
11109SOL    HW134747   6.090   1.193   6.057 -1.2756  0.1661  0.8787
11109SOL    HW234748   6.097   1.066   6.139 -0.3315 -0.5265 -0.2373
11110SOL     OW34749   8.193   1.171   8.335  0.4133 -0.5399 -0.2437
11110SOL    HW134750   8.211   1.238   8.270 -0.2971  1.6040  1.6059
11110SOL    HW234751   8.103   1.142   8.316 -0.0432  0.5657  0.1265
11111SOL     OW34752   0.162   2.566   1.692  0.0577 -0.2155 -0.2360
11111SOL    HW134753   0.145   2.492   1.634 -0.0234 -1.2909  1.1195
11111SOL    HW234754   0.249   2.550   1.728  0.4241  0.8331 -0.6077
11112SOL     OW34755   5.468   4.773   3.877  0.1317  0.4595 -0.3088
11112SOL    HW134756   5.484   4.814   3.962  0.2203 -1.1436  0.4861
11112SOL    HW234757   5.373   4.773   3.868 -0.0228 -1.1437  0.7708
11113SOL     OW34758   6.441   3.631   0.299 -0.4996  0.1933  0.3987
11113SOL    HW134759   6.515   3.618   0.358 -0.4241 -0.0449  0.2546
11113SOL    HW234760   6.477   3.678   0.224 -0.0977 -1.4039 -0.4655
11114SOL     OW34761   4.771   4.924   3.465  0.2438 -0.5958 -0.9150
11114SOL    HW134762   4.830   4.971   3.523 -1.1520 -0.7235  0.6760
11114SOL    HW234763   4.761   4.981   3.388 -0.8713  1.4401  0.6507
11115SOL     OW34764   4.767   1.126   1.498 -0.0747  0.7145 -0.6840
11115SOL    HW134765   4.824   1.192   1.458  0.6836 -0.4954 -1.6994
11115SOL    HW234766   4.710   1.097   1.427 -0.5889  0.4843 -0.1812
11116SOL     OW34767   4.439   5.705   5.637 -0.3051  0.2002 -0.0161
11116SOL    HW134768   4.475   5.780   5.588 -0.3630  0.4529  0.3264
11116SOL    HW234769   4.349   5.699   5.607 -0.6382  0.9768  0.7738
11117SOL     OW34770   4.452   0.392   7.115  0.2895 -0.0804 -0.4405
11117SOL    HW134771   4.411   0.331   7.177  2.0515 -0.9253 -0.0556
11117SOL    HW234772   4.518   0.340   7.070 -0.1991  0.8083 -2.2666
11118SOL     OW34773   5.108   3.088   1.530  0.0510  0.3230  0.0054
11118SOL    HW134774   5.180   3.077   1.592  0.1757 -0.3699 -0.2573
11118SOL    HW234775   5.068   3.002   1.523 -1.7060  0.9808  1.1935
11119SOL     OW34776   2.996   2.028   1.410  0.2720  0.1057  0.1595
11119SOL    HW134777   3.066   2.091   1.391  0.1388  0.1856 -0.0661
11119SOL    HW234778   2.973   1.991   1.325  0.3605 -0.2628  0.2934
11120SOL     OW34779   5.373   0.989   3.715 -0.7011  0.4224 -0.4213
11120SOL    HW134780   5.366   1.031   3.801 -0.4173 -1.4531  0.5729
11120SOL    HW234781   5.432   1.046   3.665  1.6491  0.0281  1.6814
11121SOL     OW34782   3.538   0.579   3.921  0.5709 -0.8526  0.1819
11121SOL    HW134783   3.490   0.662   3.915 -0.8280 -1.6917 -0.6068
11121SOL    HW234784   3.486   0.517   3.870  1.4768 -2.2890  0.9458
11122SOL     OW34785   1.203   0.538   0.356  0.3320  0.1410 -0.0954
11122SOL    HW134786   1.297   0.530   0.372  0.3451 -0.6528 -0.5179
11122SOL    HW234787   1.182   0.464   0.299 -0.5320  0.3716 -0.0914
11123SOL     OW34788   1.522   4.456   3.108  0.1913 -0.2054 -0.0283
11123SOL    HW134789   1.529   4.459   3.013  0.0050  1.3258 -0.0166
11123SOL    HW234790   1.611   4.438   3.138  0.1681 -1.1387 -0.4958
11124SOL     OW34791   8.262   4.569   3.895 -0.0718  0.5896  0.1043
11124SOL    HW134792   8.231   4.628   3.963 -2.6830 -0.7620  0.1826
11124SOL    HW234793   8.207   4.588   3.819 -0.5303 -1.2258 -0.0740
11125SOL     OW34794   4.172   4.160   4.038 -0.1192 -0.1686 -0.2472
11125SOL    HW134795   4.252   4.137   3.990 -0.6139  0.1342 -1.2286
11125SOL    HW234796   4.202   4.217   4.109  0.7533 -1.4504  0.4502
11126SOL     OW34797   6.610   3.136   4.737  0.3866  0.6257 -0.5153
11126SOL    HW134798   6.669   3.184   4.795  2.2787 -0.0338 -1.7932
11126SOL    HW234799   6.560   3.204   4.692 -1.8061  1.1487  2.3850
11127SOL     OW34800   5.185   2.877   1.157 -0.1398  0.2300 -0.0201
11127SOL    HW134801   5.202   2.883   1.063 -1.1103  0.1567 -0.2159
11127SOL    HW234802   5.221   2.957   1.194 -0.3283  0.5619 -0.5536
11128SOL     OW34803   6.487   0.893   5.646  0.6418  0.2381  0.3122
11128SOL    HW134804   6.552   0.827   5.622  1.5420  1.2088  0.0391
11128SOL    HW234805   6.536   0.961   5.690  0.0680  1.6472 -1.1093
11129SOL     OW34806   0.336   1.859   2.524  0.2226 -0.7107 -0.4257
11129SOL    HW134807   0.392   1.835   2.450 -0.5911 -0.5650 -1.0990
11129SOL    HW234808   0.255   1.890   2.484 -1.0879 -2.6685  0.5429
11130SOL     OW34809   7.145   5.663   4.757  0.4520  0.6784 -0.3228
11130SOL    HW134810   7.124   5.648   4.850  1.1153 -0.0662 -0.2765
11130SOL    HW234811   7.191   5.583   4.730  0.5373  1.0165 -1.2127
11131SOL     OW34812   0.192   3.505   2.487  0.6175 -0.2910  0.0808
11131SOL    HW134813   0.148   3.586   2.514 -0.4944 -1.3365  1.5996
11131SOL    HW234814   0.281   3.513   2.522  0.0875 -0.3123  1.5018
11132SOL     OW34815   5.372   7.450   6.055 -0.1365  0.4870 -0.0155
11132SOL    HW134816   5.426   7.433   5.977  1.0727  1.8033  0.5028
11132SOL    HW234817   5.422   7.413   6.127 -1.0852 -0.4014  0.2224
11133SOL     OW34818   5.415   7.765   6.316  0.7736  0.0261  0.9417
11133SOL    HW134819   5.325   7.769   6.350  0.7599 -2.3677  1.3359
11133SOL    HW234820   5.442   7.674   6.330  2.7242  0.3078 -0.5684
11134SOL     OW34821   4.057   5.325   6.804 -0.4551 -0.8291 -0.1095
11134SOL    HW134822   4.131   5.278   6.841 -0.1060  0.5026  0.9286
11134SOL    HW234823   4.090   5.362   6.722 -0.0736 -0.5047  0.1929
11135SOL     OW34824   4.809   1.216   7.860  0.0706  0.1803 -0.1703
11135SOL    HW134825   4.900   1.189   7.853  0.4580  1.2779  0.3884
11135SOL    HW234826   4.775   1.169   7.936  0.4341  0.4602  0.1686
11136SOL     OW34827   6.234   5.741   6.414 -0.1251  0.7283  0.1371
11136SOL    HW134828   6.243   5.685   6.491  0.3215  0.8941  0.2110
11136SOL    HW234829   6.309   5.718   6.359 -0.7137  0.2521 -0.4883
11137SOL     OW34830   2.515   0.306   7.345 -0.0171 -0.9911  0.1771
11137SOL    HW134831   2.423   0.306   7.371  0.1280 -1.3638  0.7026
11137SOL    HW234832   2.554   0.379   7.394 -0.8067  1.7685 -2.9511
11138SOL     OW34833   2.332   2.640   5.219 -0.1117  0.4927  0.0639
11138SOL    HW134834   2.306   2.670   5.132 -0.9862  0.9690  0.4791
11138SOL    HW234835   2.356   2.719   5.266 -0.6628  0.3500  0.5908
11139SOL     OW34836   5.285   3.450   6.330  0.4695  0.6077 -0.0375
11139SOL    HW134837   5.218   3.392   6.365  0.8086 -0.1393 -0.6065
11139SOL    HW234838   5.320   3.404   6.254 -0.6668  2.4605 -1.7783
11140SOL     OW34839   5.089   3.969   2.018  0.3995  0.6259 -0.3608
11140SOL    HW134840   5.161   4.016   2.059 -0.3124  0.7016  0.8427
11140SOL    HW234841   5.132   3.897   1.971  1.2289  0.3306  0.8042
11141SOL     OW34842   7.050   4.302   6.229  0.3676 -0.2117 -0.4708
11141SOL    HW134843   7.054   4.364   6.302 -0.1364  0.6247 -1.1335
11141SOL    HW234844   7.008   4.224   6.266 -1.3940  0.7891 -0.2353
11142SOL     OW34845   8.234   7.516   6.925  0.5383 -0.4461 -0.0395
11142SOL    HW134846   8.161   7.578   6.922 -0.6187 -1.7369  0.3548
11142SOL    HW234847   8.310   7.567   6.896 -0.4006  1.0845  0.0746
11143SOL     OW34848   3.033   4.045   3.396  0.2671 -0.1450 -0.7235
11143SOL    HW134849   3.097   4.092   3.449 -0.1436  0.6167 -0.8828
11143SOL    HW234850   3.029   4.095   3.314 -0.9910  0.2115 -0.4761
11144SOL     OW34851   0.196   4.413   4.605  0.0464  0.3456  0.0192
11144SOL    HW134852   0.155   4.497   4.628 -1.8376 -0.0463 -1.6750
11144SOL    HW234853   0.220   4.422   4.513  2.7026  0.0721  0.6149
11145SOL     OW34854   6.530   2.613   1.611  0.0368  0.0790 -0.6089
11145SOL    HW134855   6.469   2.562   1.557 -1.6388  1.7680 -0.4202
11145SOL    HW234856   6.609   2.621   1.557 -0.4912 -0.7964 -1.5545
11146SOL     OW34857   2.947   4.176   2.587  0.6768  0.3357  0.1226
11146SOL    HW134858   3.009   4.107   2.611 -0.0757 -0.9451 -1.3848
11146SOL    HW234859   2.997   4.257   2.591  2.6550 -0.6968 -1.5718
11147SOL     OW34860   4.563   6.919   5.765  0.0255  0.3473 -0.0189
11147SOL    HW134861   4.577   6.882   5.678 -0.8425  1.1190 -0.5051
11147SOL    HW234862   4.614   7.000   5.765 -0.6067  0.7519 -0.1027
11148SOL     OW34863   3.046   5.815   2.516  0.2457  0.3943  0.4308
11148SOL    HW134864   3.034   5.821   2.421  1.0522 -1.5162  0.1747
11148SOL    HW234865   2.968   5.857   2.552 -0.0192  1.2856 -1.0486
11149SOL     OW34866   6.709   7.948   5.915  0.0731 -0.2950 -0.3104
11149SOL    HW134867   6.740   7.976   5.828  1.0804  1.8803  0.6707
11149SOL    HW234868   6.782   7.967   5.973 -1.0350 -0.5871  1.2214
11150SOL     OW34869   1.433   6.165   1.961 -0.2375 -0.0922 -0.0396
11150SOL    HW134870   1.456   6.157   1.869 -1.3110  1.2517 -0.4503
11150SOL    HW234871   1.473   6.247   1.989 -1.8571  0.7048  0.0414
11151SOL     OW34872   6.880   1.861   1.163  1.3192  0.0574 -0.3910
11151SOL    HW134873   6.882   1.770   1.191  1.8167  0.2593  0.2758
11151SOL    HW234874   6.841   1.859   1.076 -2.7804 -0.3798  1.2266
11152SOL     OW34875   6.761   0.503   3.044  0.0257 -0.2115  0.6948
11152SOL    HW134876   6.738   0.593   3.025 -0.5956 -0.5729 -0.3349
11152SOL    HW234877   6.778   0.502   3.139 -0.0398  0.9504  0.7332
11153SOL     OW34878   4.491   4.099   2.431  0.3540  0.4769  0.3149
11153SOL    HW134879   4.506   4.022   2.485 -0.0568  1.9992  2.7971
11153SOL    HW234880   4.578   4.124   2.399  0.6871 -0.2094  0.6762
11154SOL     OW34881   4.287   3.219   5.066  0.3410 -0.2143 -0.2578
11154SOL    HW134882   4.299   3.252   5.156  0.3776  1.2921 -0.7918
11154SOL    HW234883   4.252   3.293   5.018 -2.0631 -1.6932 -0.9754
11155SOL     OW34884   7.829   3.936   6.832  0.6682 -0.0349  0.2531
11155SOL    HW134885   7.889   3.955   6.905 -0.3691  0.4797  0.9972
11155SOL    HW234886   7.880   3.880   6.773  1.9648  0.5987  0.7293
11156SOL     OW34887   7.926   2.299   3.935  0.8640 -0.7592  0.1822
11156SOL    HW134888   7.983   2.341   3.871 -0.1480 -1.2892 -1.1341
11156SOL    HW234889   7.849   2.272   3.884  0.6099 -2.4181  1.3523
11157SOL     OW34890   7.947   3.549   0.853 -0.0843  0.1481 -0.0012
11157SOL    HW134891   8.038   3.550   0.822  1.3045  0.1883  3.6224
11157SOL    HW234892   7.910   3.631   0.821  1.5429  0.6950 -0.5962
11158SOL     OW34893   5.639   1.448   6.792  0.0524 -0.0979 -0.1341
11158SOL    HW134894   5.725   1.407   6.781  1.3971  2.1031  1.3450
11158SOL    HW234895   5.578   1.374   6.794  1.9376 -1.7892 -0.6463
11159SOL     OW34896   5.693   4.326   3.189  0.4060 -0.0498 -0.1747
11159SOL    HW134897   5.767   4.302   3.133 -0.7374 -0.0350 -1.7309
11159SOL    HW234898   5.718   4.293   3.276  2.2885  0.0822 -0.6170
11160SOL     OW34899   5.148   2.536   3.265 -0.1053 -0.0147 -0.0276
11160SOL    HW134900   5.158   2.538   3.360  1.4353  1.4214 -0.1691
11160SOL    HW234901   5.225   2.489   3.234 -1.2016 -1.5471 -0.5533
11161SOL     OW34902   0.208   4.776   2.498 -0.2234 -0.2129  0.2305
11161SOL    HW134903   0.269   4.714   2.540  0.2983 -0.4627 -0.8654
11161SOL    HW234904   0.185   4.837   2.568  0.9138 -0.3991  0.7984
11162SOL     OW34905   1.626   0.898   6.876  0.6038 -0.3966 -0.3445
11162SOL    HW134906   1.625   0.888   6.780  0.3593  0.5163 -0.4451
11162SOL    HW234907   1.534   0.903   6.900  0.6900  1.2052 -0.2781
11163SOL     OW34908   5.936   6.063   5.766  0.3391 -0.0800 -1.2215
11163SOL    HW134909   5.932   5.979   5.812 -0.7171 -0.7029 -2.3980
11163SOL    HW234910   5.854   6.106   5.788  1.0651  0.8525 -0.2772
11164SOL     OW34911   3.768   0.282   0.453  0.0633 -0.4020  0.0375
11164SOL    HW134912   3.728   0.219   0.513 -1.1352  0.6528  0.3841
11164SOL    HW234913   3.862   0.262   0.457  0.0072 -0.4988  2.1377
11165SOL     OW34914   6.581   4.234   3.879 -0.2482  0.1280 -0.2080
11165SOL    HW134915   6.537   4.309   3.840 -0.7723  0.2268  0.5586
11165SOL    HW234916   6.518   4.198   3.941  0.6570  0.1611  0.7703
11166SOL     OW34917   8.182   1.886   6.521  0.1712 -0.3323 -0.2973
11166SOL    HW134918   8.180   1.930   6.606  0.9955  1.7912 -1.2954
11166SOL    HW234919   8.274   1.863   6.508 -0.1007 -1.4905 -0.2244
11167SOL     OW34920   1.382   8.265   1.780  0.3535  0.0278  0.7904
11167SOL    HW134921   1.400   8.193   1.840  0.0160  0.4431  1.4043
11167SOL    HW234922   1.352   8.336   1.837 -1.7439 -0.1305 -0.0191
11168SOL     OW34923   1.225   6.046   6.796  0.1072  0.4095  0.2387
11168SOL    HW134924   1.201   6.057   6.704 -0.0834  1.1051  0.3635
11168SOL    HW234925   1.313   6.009   6.794 -0.1232 -0.1422 -0.2193
11169SOL     OW34926   2.455   1.710   3.551 -0.2673  0.0447  0.1760
11169SOL    HW134927   2.539   1.668   3.571  0.1984  1.6862  1.9690
11169SOL    HW234928   2.396   1.678   3.619  0.1307  2.2484  1.6640
11170SOL     OW34929   3.086   2.028   5.672  0.6669 -0.5767 -0.0236
11170SOL    HW134930   3.070   1.970   5.597  1.5996  0.2480 -0.8897
11170SOL    HW234931   3.021   2.001   5.737  2.9765 -4.7604  0.9072
11171SOL     OW34932   6.798   5.840   5.621  0.1675  0.3547 -0.0545
11171SOL    HW134933   6.783   5.873   5.533  2.0790 -1.7750 -1.3150
11171SOL    HW234934   6.711   5.822   5.656 -0.7596  3.3035 -0.5547
11172SOL     OW34935   6.708   4.376   4.723 -0.4724 -0.4915 -0.0345
11172SOL    HW134936   6.652   4.360   4.647 -1.7428  1.9787  0.2707
11172SOL    HW234937   6.721   4.290   4.763 -3.5488 -1.2680 -0.4945
11173SOL     OW34938   8.261   4.115   3.240 -0.0637  0.0512  0.4387
11173SOL    HW134939   8.205   4.120   3.163  2.4481 -0.1251 -1.5511
11173SOL    HW234940   8.253   4.024   3.270  0.8239 -0.6146 -1.2248
11174SOL     OW34941   2.505   8.067   0.670 -0.4885 -0.2629  0.0935
11174SOL    HW134942   2.425   8.051   0.621  0.1748  0.6842 -1.3669
11174SOL    HW234943   2.506   8.000   0.739 -0.6596 -2.6938 -2.1309
11175SOL     OW34944   5.659   0.685   0.568  0.5683 -0.3062 -0.3059
11175SOL    HW134945   5.611   0.604   0.580 -0.2117  0.1258 -0.4537
11175SOL    HW234946   5.592   0.751   0.553  1.2665  0.0096 -2.3638
11176SOL     OW34947   5.424   2.908   6.537 -0.2001 -0.4679  0.2826
11176SOL    HW134948   5.445   2.957   6.458  0.1726 -2.0906 -0.6674
11176SOL    HW234949   5.480   2.946   6.604  0.5340 -0.0025 -0.5719
11177SOL     OW34950   3.483   1.122   5.725 -0.3778 -0.1313  0.5617
11177SOL    HW134951   3.503   1.139   5.633 -1.8517 -1.0815  0.0300
11177SOL    HW234952   3.437   1.200   5.754 -1.0621 -0.3493  0.0986
11178SOL     OW34953   0.098   1.671   4.120  0.0086  0.0169 -0.2958
11178SOL    HW134954   0.098   1.726   4.042 -1.3888 -3.0510 -2.6652
11178SOL    HW234955   0.006   1.652   4.136  0.4584 -2.8543 -0.6233
11179SOL     OW34956   5.770   6.654   0.630 -0.2706 -0.2180  0.3100
11179SOL    HW134957   5.725   6.734   0.657 -0.4799 -0.6441  1.2529
11179SOL    HW234958   5.859   6.663   0.664  0.2727  0.4451 -1.2128
11180SOL     OW34959   6.314   4.513   7.889  0.9555 -0.0859  0.1806
11180SOL    HW134960   6.408   4.507   7.872  1.0028  0.0378  0.3985
11180SOL    HW234961   6.295   4.437   7.945  0.5442 -1.3063 -1.5282
11181SOL     OW34962   7.295   4.764   4.864 -0.1098  0.2364 -0.1805
11181SOL    HW134963   7.358   4.775   4.936  1.5690 -0.5992 -1.4622
11181SOL    HW234964   7.217   4.812   4.893  1.0775  1.2470  1.5072
11182SOL     OW34965   2.395   3.621   5.030 -0.4199 -0.4292 -0.5898
11182SOL    HW134966   2.352   3.612   4.945  1.3776  1.3142 -1.7880
11182SOL    HW234967   2.353   3.698   5.070 -1.4654 -1.4179  0.2862
11183SOL     OW34968   1.248   1.420   5.160  0.0707 -0.3995 -0.2120
11183SOL    HW134969   1.288   1.463   5.236 -1.1892  1.5170 -0.5742
11183SOL    HW234970   1.284   1.331   5.162  3.4396  0.8186  0.1355
11184SOL     OW34971   0.715   6.422   3.473  0.0113  0.0334  0.2370
11184SOL    HW134972   0.624   6.428   3.445  0.3795 -0.1693 -1.0815
11184SOL    HW234973   0.736   6.329   3.466  0.4114  0.1228  0.2316
11185SOL     OW34974   7.763   5.573   1.160 -0.1571  0.7867 -0.5031
11185SOL    HW134975   7.693   5.575   1.226 -1.0263  0.0454 -1.3828
11185SOL    HW234976   7.844   5.576   1.212 -0.8112 -0.2039  0.6333
11186SOL     OW34977   1.258   8.049   2.734 -0.7697 -0.6901  0.2589
11186SOL    HW134978   1.276   8.013   2.821 -0.2660 -0.8266  0.1025
11186SOL    HW234979   1.244   7.973   2.679 -0.3424 -0.6315  0.0635
11187SOL     OW34980   3.317   5.988   4.027 -0.1026 -0.3900 -0.5882
11187SOL    HW134981   3.255   5.936   3.976 -0.2444 -1.2069  0.3866
11187SOL    HW234982   3.387   5.927   4.051 -0.9568 -0.5594  1.7694
11188SOL     OW34983   4.620   3.646   1.207 -0.0806 -1.3002 -0.0801
11188SOL    HW134984   4.604   3.553   1.193  0.7009 -1.5142  0.4033
11188SOL    HW234985   4.631   3.655   1.301  4.9365 -1.6509 -0.3800
11189SOL     OW34986   4.342   5.873   2.089  0.1144  0.1412  0.1130
11189SOL    HW134987   4.414   5.811   2.100  0.6765  0.6851 -0.4585
11189SOL    HW234988   4.312   5.891   2.178  0.9168  0.1799  0.3841
11190SOL     OW34989   8.153   7.964   2.487  0.0148  0.1470 -0.1892
11190SOL    HW134990   8.217   8.035   2.497 -0.3623  0.5228 -0.3860
11190SOL    HW234991   8.114   7.954   2.573  0.7225 -0.4655  0.0721
11191SOL     OW34992   2.733   5.793   2.237 -0.0437 -0.2859  0.2012
11191SOL    HW134993   2.648   5.837   2.245  0.3555  0.4194  0.6458
11191SOL    HW234994   2.713   5.711   2.192 -1.0011 -0.2453  0.5268
11192SOL     OW34995   6.356   0.344   6.276 -0.2459 -0.2225  0.0593
11192SOL    HW134996   6.368   0.347   6.181  0.3843  3.3539  0.1013
11192SOL    HW234997   6.392   0.260   6.302 -0.7068 -1.4482 -2.8643
11193SOL     OW34998   0.456   0.752   0.026 -0.9044  0.2393 -0.6612
11193SOL    HW134999   0.435   0.666   0.061 -2.0370  1.2008  1.1225
11193SOL    HW235000   0.544   0.771   0.060 -2.4433  1.6913  3.0161
11194SOL     OW35001   2.115   0.382   2.111 -0.6765 -0.0823 -0.3119
11194SOL    HW135002   2.115   0.318   2.040  0.0056 -0.1751 -0.2312
11194SOL    HW235003   2.096   0.466   2.068 -0.2330 -0.1317 -0.6080
11195SOL     OW35004   0.485   3.333   1.264 -0.7327 -0.1101 -0.2697
11195SOL    HW135005   0.407   3.389   1.261 -0.0752  1.0962  2.0749
11195SOL    HW235006   0.559   3.394   1.264  0.0006 -0.7792  2.8650
11196SOL     OW35007   7.582   5.356   0.374 -0.0942 -0.2082 -0.6915
11196SOL    HW135008   7.536   5.439   0.364  0.1986 -0.0198 -0.5064
11196SOL    HW235009   7.643   5.371   0.446  0.4835 -0.3472 -1.1439
11197SOL     OW35010   3.885   3.930   0.328 -0.3680  0.4417  0.1797
11197SOL    HW135011   3.964   3.878   0.346 -0.1404  0.9991  0.8343
11197SOL    HW235012   3.858   3.902   0.241  1.5653  1.4685 -0.8302
11198SOL     OW35013   5.572   3.847   8.032  0.3433  0.2048  0.1486
11198SOL    HW135014   5.557   3.805   8.116 -0.8238  0.6774  0.1987
11198SOL    HW235015   5.601   3.935   8.054 -2.6016  1.3001  0.1756
11199SOL     OW35016   3.115   7.277   2.425 -0.1511 -0.1010  0.4787
11199SOL    HW135017   3.081   7.288   2.336  1.6105  3.6102  0.0815
11199SOL    HW235018   3.037   7.270   2.480 -1.4238  1.4868 -1.0189
11200SOL     OW35019   6.500   8.236   3.711 -0.2858 -0.2746  0.4584
11200SOL    HW135020   6.593   8.219   3.726 -0.1044  0.0207 -0.3244
11200SOL    HW235021   6.483   8.318   3.758  0.0447  0.1020 -0.0688
11201SOL     OW35022   1.145   0.393   5.631  0.1991 -0.4505 -0.1843
11201SOL    HW135023   1.078   0.351   5.685 -0.6727  0.6903 -0.3292
11201SOL    HW235024   1.102   0.406   5.546  0.6347  0.2008 -0.3126
11202SOL     OW35025   3.452   5.642   0.465  0.4356 -0.0285 -0.2085
11202SOL    HW135026   3.444   5.568   0.406 -2.3616  1.3009 -1.7031
11202SOL    HW235027   3.400   5.618   0.542  0.1811  0.0721 -0.3487
11203SOL     OW35028   4.858   2.189   7.240  0.2309  0.3779  0.2304
11203SOL    HW135029   4.924   2.206   7.307 -0.2225  2.7659  0.1432
11203SOL    HW235030   4.909   2.172   7.161  0.7360 -0.5016  0.7200
11204SOL     OW35031   3.973   7.931   7.583 -0.4945 -0.0131 -0.8932
11204SOL    HW135032   4.043   7.926   7.518  0.1264 -0.3742 -0.2013
11204SOL    HW235033   3.893   7.931   7.531 -0.1477 -3.3464 -1.6216
11205SOL     OW35034   3.815   6.182   2.446 -0.2513  0.2168  0.2081
11205SOL    HW135035   3.761   6.113   2.406 -1.2448  0.3451  1.2744
11205SOL    HW235036   3.833   6.149   2.534 -0.7768  1.3262  0.7470
11206SOL     OW35037   1.116   8.259   0.712 -0.3633 -0.4946  0.1384
11206SOL    HW135038   1.061   8.210   0.774  1.3494 -2.0362  0.4985
11206SOL    HW235039   1.172   8.194   0.672  1.1207  1.0061 -0.3430
11207SOL     OW35040   7.234   5.785   1.617  0.5284  0.0376 -0.1915
11207SOL    HW135041   7.169   5.735   1.567  0.5613  2.2145 -2.6790
11207SOL    HW235042   7.195   5.795   1.704 -2.1201  0.5242 -1.3341
11208SOL     OW35043   6.863   6.042   1.723  0.4724  0.0233  0.2810
11208SOL    HW135044   6.893   5.985   1.651  1.2124 -0.3866  0.8974
11208SOL    HW235045   6.795   6.097   1.683  0.4957 -0.5609 -0.5976
11209SOL     OW35046   6.208   1.075   2.462 -0.6280 -0.3172 -0.1569
11209SOL    HW135047   6.211   1.170   2.470  0.8441 -0.4772  1.6835
11209SOL    HW235048   6.276   1.054   2.399 -0.7200 -0.1814 -0.3027
11210SOL     OW35049   5.944   8.123   0.208  0.1795 -0.3016 -0.6897
11210SOL    HW135050   5.867   8.072   0.232  0.2693 -0.4720 -0.7608
11210SOL    HW235051   5.946   8.195   0.272  1.7307 -2.0228  1.3601
11211SOL     OW35052   8.036   7.638   2.113 -0.0638 -0.1464  0.4536
11211SOL    HW135053   7.972   7.627   2.183  0.9650 -1.9859  1.1840
11211SOL    HW235054   8.053   7.732   2.110 -1.4634  0.1720  1.4385
11212SOL     OW35055   2.502   6.067   4.388 -0.1859  0.7202  0.1379
11212SOL    HW135056   2.498   6.160   4.406 -0.8679  0.3704  2.0184
11212SOL    HW235057   2.481   6.059   4.295  0.1303  2.4349 -0.1036
11213SOL     OW35058   0.857   1.065   1.882 -0.2750 -0.9108  0.1748
11213SOL    HW135059   0.833   1.057   1.974 -1.4371  1.3807  0.1346
11213SOL    HW235060   0.805   0.998   1.838 -1.0814 -0.8347  0.9864
11214SOL     OW35061   3.197   7.719   5.570  0.4051 -0.1019  0.4103
11214SOL    HW135062   3.168   7.778   5.500 -0.7239 -1.6935 -0.5255
11214SOL    HW235063   3.142   7.742   5.645  0.1969  0.2374  0.1548
11215SOL     OW35064   6.392   1.960   3.132 -0.1107 -0.0158 -0.3490
11215SOL    HW135065   6.371   2.053   3.130 -0.1197 -0.0238 -0.8095
11215SOL    HW235066   6.319   1.918   3.087 -0.6173 -0.3546  0.7663
11216SOL     OW35067   2.853   6.733   8.083  0.2444 -0.1338 -0.0492
11216SOL    HW135068   2.907   6.709   8.007  1.4084  0.9754  0.3959
11216SOL    HW235069   2.867   6.662   8.145  0.3389 -0.3855 -0.3511
11217SOL     OW35070   8.050   5.758   2.164  0.5146 -0.3481  0.0058
11217SOL    HW135071   8.079   5.700   2.094 -0.4892 -2.0143  0.9218
11217SOL    HW235072   7.974   5.804   2.127  0.1766 -0.9872 -0.1014
11218SOL     OW35073   2.328   7.999   5.944  0.4381  0.0082  0.1845
11218SOL    HW135074   2.243   7.990   5.903  1.1530 -0.5620 -1.2365
11218SOL    HW235075   2.358   7.909   5.958  1.3940  0.1748 -0.6465
11219SOL     OW35076   4.819   4.073   7.407 -0.1511 -0.6550 -0.3689
11219SOL    HW135077   4.838   4.077   7.313  1.2960  0.1593 -0.0786
11219SOL    HW235078   4.798   4.164   7.430 -1.0121 -0.9425  0.0061
11220SOL     OW35079   4.524   0.537   7.540  0.7857 -0.1154 -0.0123
11220SOL    HW135080   4.555   0.520   7.629 -0.0480  1.4319  0.5988
11220SOL    HW235081   4.501   0.450   7.506  0.6588 -0.6840  1.4511
11221SOL     OW35082   7.563   3.563   2.829  0.0835 -0.2053  0.2364
11221SOL    HW135083   7.653   3.555   2.859  0.2498  0.4864 -0.0517
11221SOL    HW235084   7.559   3.510   2.749  0.1378 -0.5269  0.4473
11222SOL     OW35085   4.361   6.970   1.871 -0.5186 -0.1357 -0.5082
11222SOL    HW135086   4.378   6.972   1.965 -2.6293  0.4932 -0.0834
11222SOL    HW235087   4.434   6.921   1.834  1.8718  1.9935  1.0893
11223SOL     OW35088   7.752   4.447   1.461  0.1837  0.2163 -0.4158
11223SOL    HW135089   7.789   4.440   1.373 -1.3712 -0.0038 -1.1015
11223SOL    HW235090   7.714   4.535   1.463 -1.4547 -0.4355 -0.7127
11224SOL     OW35091   7.115   0.700   5.025  0.1373  0.8706 -0.6118
11224SOL    HW135092   7.056   0.747   5.084  1.4222  2.0341 -0.2168
11224SOL    HW235093   7.182   0.663   5.082  1.2249  1.7526 -1.2687
11225SOL     OW35094   7.517   6.368   5.759  0.3262 -0.3563  0.5434
11225SOL    HW135095   7.467   6.327   5.829 -0.0097  0.3186  0.7100
11225SOL    HW235096   7.561   6.295   5.714 -0.6748 -0.9462  0.4957
11226SOL     OW35097   6.826   4.725   3.986  0.0860  0.2750 -0.7136
11226SOL    HW135098   6.833   4.650   3.927 -0.4408  1.1876 -1.9867
11226SOL    HW235099   6.738   4.760   3.970 -0.7270 -0.3961  1.8395
11227SOL     OW35100   1.048   5.908   5.606  0.5294  0.3543 -0.4366
11227SOL    HW135101   1.136   5.898   5.643  0.2032 -0.8578  0.0622
11227SOL    HW235102   1.048   5.849   5.530  0.3037  0.7245 -0.7264
11228SOL     OW35103   6.369   3.634   2.120  0.6065 -0.4346  0.1183
11228SOL    HW135104   6.435   3.701   2.137 -0.4428  0.7767 -0.3453
11228SOL    HW235105   6.358   3.636   2.025 -0.5153 -0.1687  0.2411
11229SOL     OW35106   3.759   5.438   4.138 -0.1765 -0.1125 -0.1216
11229SOL    HW135107   3.829   5.444   4.073  2.5311 -1.5860  2.4357
11229SOL    HW235108   3.728   5.348   4.133 -0.3102 -0.0944  0.3290
11230SOL     OW35109   6.649   4.664   6.452  0.4096 -0.3542  0.6435
11230SOL    HW135110   6.743   4.679   6.443  0.2547  0.0816 -0.3799
11230SOL    HW235111   6.628   4.599   6.385 -0.6917  2.5169 -2.0436
11231SOL     OW35112   0.647   7.636   0.630  0.2323  0.2393  0.4072
11231SOL    HW135113   0.583   7.574   0.666  1.8862 -2.1944 -0.6129
11231SOL    HW235114   0.609   7.663   0.546  0.4781 -1.2130 -0.2066
11232SOL     OW35115   5.070   0.341   4.929  0.2163  0.1670 -0.0704
11232SOL    HW135116   5.092   0.397   4.854 -2.1567  2.0099  0.4618
11232SOL    HW235117   5.123   0.376   5.001  0.8923 -0.1883 -0.3899
11233SOL     OW35118   6.453   7.371   4.972 -0.1822  0.1625 -0.4421
11233SOL    HW135119   6.383   7.310   4.996 -0.5224 -0.3320 -2.5626
11233SOL    HW235120   6.419   7.419   4.897  1.8824 -0.4276 -1.8432
11234SOL     OW35121   8.003   5.686   3.909  0.2773 -0.5108 -0.5448
11234SOL    HW135122   8.045   5.606   3.938 -1.5773 -1.3539 -0.0257
11234SOL    HW235123   8.002   5.743   3.985 -0.1471 -0.7843 -0.3391
11235SOL     OW35124   4.434   0.557   8.015 -0.2601  0.0032 -0.0804
11235SOL    HW135125   4.491   0.498   8.064  1.0695  0.7793 -0.6544
11235SOL    HW235126   4.461   0.645   8.042 -3.0693  0.4428  1.7657
11236SOL     OW35127   0.341   6.707   4.066 -0.0963 -0.1053 -0.0282
11236SOL    HW135128   0.285   6.656   4.008  1.3224  0.1307 -1.6947
11236SOL    HW235129   0.351   6.791   4.022  2.5913 -0.5806 -0.4855
11237SOL     OW35130   5.743   1.701   0.275  0.0072  0.0500  0.1642
11237SOL    HW135131   5.796   1.700   0.195 -1.0041  0.9583 -0.5445
11237SOL    HW235132   5.764   1.785   0.317  0.2911 -0.2800  0.6907
11238SOL     OW35133   2.186   5.952   5.059  0.2003 -0.0466  0.1823
11238SOL    HW135134   2.200   5.922   4.970  1.6165 -0.9070  0.6587
11238SOL    HW235135   2.255   6.017   5.074  0.6700 -0.7009  0.9797
11239SOL     OW35136   2.864   6.442   5.687 -0.2145 -0.3870 -0.0190
11239SOL    HW135137   2.859   6.358   5.732  0.1310 -1.5214 -1.9915
11239SOL    HW235138   2.944   6.483   5.721 -0.5126 -0.7141  1.1223
11240SOL     OW35139   0.585   2.843   8.204 -0.5318  0.0030 -0.1110
11240SOL    HW135140   0.637   2.893   8.268 -0.3037 -3.0315  2.3302
11240SOL    HW235141   0.633   2.853   8.122  0.5487  2.1253  0.6901
11241SOL     OW35142   4.884   8.146   6.177  0.2669 -0.2472  0.2759
11241SOL    HW135143   4.877   8.083   6.106 -1.1117 -0.2805  0.4192
11241SOL    HW235144   4.869   8.231   6.135 -2.1283 -0.3860  0.7185
11242SOL     OW35145   5.025   4.322   6.839  0.4218 -0.0111 -0.4689
11242SOL    HW135146   5.006   4.253   6.776  1.3471 -0.5953 -0.1355
11242SOL    HW235147   5.121   4.324   6.844  0.3733 -0.3911  1.3555
11243SOL     OW35148   0.092   7.158   4.381  0.0417  0.4859 -0.0855
11243SOL    HW135149   0.028   7.092   4.356 -1.2468  1.3063  0.9186
11243SOL    HW235150   0.096   7.217   4.306 -0.7923  0.7156  0.0379
11244SOL     OW35151   0.093   8.065   2.654 -0.0232  0.3035  0.1721
11244SOL    HW135152   0.097   8.105   2.741 -0.0838 -1.1554  0.8698
11244SOL    HW235153   0.042   8.126   2.602 -2.6404 -0.1955  1.9789
11245SOL     OW35154   7.747   4.400   6.413  0.1620  0.4497 -0.7567
11245SOL    HW135155   7.686   4.392   6.340  0.5150  0.8712 -1.1038
11245SOL    HW235156   7.740   4.491   6.441  0.0282  0.2886 -0.2640
11246SOL     OW35157   5.241   4.299   6.205  0.3049 -0.2639  0.4399
11246SOL    HW135158   5.304   4.262   6.143  0.1822 -1.4082  0.9818
11246SOL    HW235159   5.160   4.251   6.189 -0.0731  0.2907  0.6544
11247SOL     OW35160   6.542   4.681   4.213  0.4458 -0.2735  0.8985
11247SOL    HW135161   6.583   4.744   4.153  0.6478 -0.5757  0.7154
11247SOL    HW235162   6.524   4.604   4.159 -1.0381  0.1087  0.7988
11248SOL     OW35163   7.129   1.943   2.142 -0.0498  0.1724  0.5819
11248SOL    HW135164   7.189   1.964   2.070  0.7963  0.4242  1.3357
11248SOL    HW235165   7.151   2.006   2.210 -0.4589 -0.4077  1.2628
11249SOL     OW35166   7.484   6.231   0.085  0.0647 -0.0563 -0.5822
11249SOL    HW135167   7.537   6.291   0.137  0.6185 -1.3042  0.3247
11249SOL    HW235168   7.515   6.144   0.109 -0.8966 -0.7329 -1.6843
11250SOL     OW35169   8.192   1.275   4.187  0.6445  0.4132  0.3089
11250SOL    HW135170   8.112   1.234   4.219  0.6911 -0.4872 -0.6642
11250SOL    HW235171   8.261   1.242   4.245  0.6094 -0.5502 -0.1680
11251SOL     OW35172   5.181   5.794   4.196 -0.8631 -0.3270 -0.0073
11251SOL    HW135173   5.260   5.781   4.143 -0.2489  0.4939  0.6843
11251SOL    HW235174   5.110   5.800   4.132 -0.6087 -2.5019 -0.5868
11252SOL     OW35175   4.556   3.835   0.224  0.1432  0.0278  0.3025
11252SOL    HW135176   4.538   3.795   0.139  0.1059  0.1424  0.2564
11252SOL    HW235177   4.483   3.895   0.238  1.4558  1.9601 -0.7760
11253SOL     OW35178   5.928   2.935   0.841  0.2846 -0.2990  0.0296
11253SOL    HW135179   5.952   3.023   0.812 -4.4642  0.8316 -1.3873
11253SOL    HW235180   5.916   2.943   0.936  1.1010  0.1895  0.0976
11254SOL     OW35181   0.603   2.126   0.805  0.0274  0.0629  0.1203
11254SOL    HW135182   0.549   2.195   0.844  1.1141  0.4586  0.9417
11254SOL    HW235183   0.608   2.150   0.712  0.4607  1.1552  0.4082
11255SOL     OW35184   4.677   6.749   7.806  0.0881 -0.2755 -0.4618
11255SOL    HW135185   4.652   6.786   7.722 -2.5687 -1.3648 -0.2520
11255SOL    HW235186   4.649   6.815   7.870  0.9995  0.0179 -0.3508
11256SOL     OW35187   1.060   2.012   4.755  1.1415 -0.2642 -0.0455
11256SOL    HW135188   0.990   1.980   4.698  1.2854 -0.1717 -0.2744
11256SOL    HW235189   1.022   2.089   4.798  0.5371 -1.1525  1.0586
11257SOL     OW35190   4.510   2.404   0.558 -0.1799  0.5751  1.0565
11257SOL    HW135191   4.542   2.477   0.610 -0.2288  0.3657  1.3811
11257SOL    HW235192   4.415   2.409   0.564 -0.2119  1.0366  0.3118
11258SOL     OW35193   2.024   2.776   0.113  0.3653 -0.4815  0.0086
11258SOL    HW135194   2.018   2.864   0.151  2.0842 -0.7255  0.9423
11258SOL    HW235195   1.992   2.786   0.024 -1.2792  0.6707  0.6796
11259SOL     OW35196   3.422   8.163   7.382  0.5233  0.2891 -0.5227
11259SOL    HW135197   3.479   8.114   7.323  0.2512  1.5661 -1.9045
11259SOL    HW235198   3.348   8.104   7.398  0.8186 -0.2471 -1.0809
11260SOL     OW35199   8.200   4.004   2.330  0.2083  0.1904  0.2813
11260SOL    HW135200   8.201   4.001   2.426  1.7534  0.0797  0.2713
11260SOL    HW235201   8.225   3.916   2.303 -0.9781 -0.0078 -0.2582
11261SOL     OW35202   2.262   0.519   4.671  0.0929  0.4194 -0.3787
11261SOL    HW135203   2.189   0.483   4.621  1.1835  0.3270 -2.0044
11261SOL    HW235204   2.238   0.611   4.686 -1.0857 -0.0287  0.5978
11262SOL     OW35205   6.017   4.655   1.354  0.4299  0.6239 -0.2508
11262SOL    HW135206   5.959   4.686   1.284  0.4401  1.1843 -0.0162
11262SOL    HW235207   6.104   4.660   1.316  0.3872  0.4074 -0.3812
11263SOL     OW35208   5.767   3.783   6.450 -0.4680  0.2552 -0.2692
11263SOL    HW135209   5.760   3.837   6.530  0.6851 -0.5194  0.3837
11263SOL    HW235210   5.850   3.810   6.411 -1.0527  0.6652 -1.2600
11264SOL     OW35211   7.907   2.671   6.003 -0.4894  0.2199 -0.0723
11264SOL    HW135212   7.973   2.627   5.951  0.0549 -0.1341  0.9031
11264SOL    HW235213   7.891   2.754   5.957  0.6864  0.3433 -0.2714
11265SOL     OW35214   6.846   4.999   3.257  0.1376  0.5998 -0.5535
11265SOL    HW135215   6.876   5.020   3.168  1.8526 -2.1592 -0.7249
11265SOL    HW235216   6.898   5.056   3.314  1.9555 -0.3811 -1.1605
11266SOL     OW35217   3.555   6.045   6.026  0.3505 -0.1693  0.7839
11266SOL    HW135218   3.533   6.138   6.025 -1.9576 -0.6655 -0.0458
11266SOL    HW235219   3.605   6.033   6.107  1.2040  1.8594  0.6123
11267SOL     OW35220   0.811   0.591   6.744 -0.2085  0.8120  0.3670
11267SOL    HW135221   0.844   0.577   6.655 -0.1717  1.3002  0.3047
11267SOL    HW235222   0.875   0.547   6.800 -0.7485 -0.3559  0.1035
11268SOL     OW35223   6.222   4.832   6.774 -0.1146 -0.3278 -0.0841
11268SOL    HW135224   6.260   4.745   6.787 -1.7761 -1.0333  0.2855
11268SOL    HW235225   6.242   4.879   6.855  0.1022 -0.6275  0.0397
11269SOL     OW35226   6.214   6.684   0.539 -0.1698  0.7246  0.5480
11269SOL    HW135227   6.223   6.776   0.567  1.5549  0.3149  1.5099
11269SOL    HW235228   6.151   6.647   0.600 -0.7899  1.2260  0.2275
11270SOL     OW35229   4.962   5.747   0.523 -0.3821 -0.0184 -0.1924
11270SOL    HW135230   4.927   5.820   0.574  2.2114  0.5542  0.9511
11270SOL    HW235231   4.952   5.671   0.579  1.1421  0.3548  0.6447
11271SOL     OW35232   1.705   0.476   7.261 -0.0731  0.2136 -0.7104
11271SOL    HW135233   1.680   0.477   7.168  0.9504  2.5578 -1.0236
11271SOL    HW235234   1.677   0.562   7.294 -1.5689 -1.0248  1.5324
11272SOL     OW35235   3.601   1.275   3.680 -0.0350  0.3212 -0.1451
11272SOL    HW135236   3.671   1.277   3.614 -0.4639  0.2528 -0.6034
11272SOL    HW235237   3.641   1.231   3.756  0.6501  0.9405 -0.1358
11273SOL     OW35238   1.545   1.376   5.507 -0.0949 -0.1183  0.2503
11273SOL    HW135239   1.639   1.397   5.508  0.1775 -1.2208 -0.2720
11273SOL    HW235240   1.512   1.413   5.589  0.4402  1.7302 -0.3219
11274SOL     OW35241   6.379   5.128   0.670 -0.2318 -0.0929 -0.0037
11274SOL    HW135242   6.339   5.181   0.739  0.6666  1.5827 -0.7169
11274SOL    HW235243   6.361   5.176   0.589 -0.4013 -1.5037 -0.8385
11275SOL     OW35244   6.587   3.449   7.551 -0.2395 -0.4159 -0.3785
11275SOL    HW135245   6.643   3.425   7.624  0.7156  0.6184 -0.7258
11275SOL    HW235246   6.544   3.530   7.579 -0.2982 -0.3230 -0.7240
11276SOL     OW35247   3.025   4.020   6.669 -0.4749  0.3808 -0.3532
11276SOL    HW135248   3.077   3.962   6.725  0.7750  1.1289 -0.6968
11276SOL    HW235249   3.058   4.004   6.580 -0.1765  1.5257 -0.4674
11277SOL     OW35250   6.200   2.988   2.253  0.1540  0.3802  0.2900
11277SOL    HW135251   6.167   2.953   2.336  0.6486 -0.4812  0.1406
11277SOL    HW235252   6.203   3.082   2.267  1.4174  0.1729  1.7268
11278SOL     OW35253   8.157   7.293   0.475 -0.5733  0.3132  0.2639
11278SOL    HW135254   8.195   7.240   0.545  0.7816  1.2132  0.2492
11278SOL    HW235255   8.193   7.255   0.394 -1.0355  0.1330  0.1424
11279SOL     OW35256   5.726   3.210   4.694  0.2016 -0.4114  0.3132
11279SOL    HW135257   5.766   3.245   4.774 -2.9181  1.8512  1.1267
11279SOL    HW235258   5.793   3.220   4.627  2.4937 -1.1681  2.3588
11280SOL     OW35259   4.860   8.143   8.363 -0.1624 -0.3964  0.3394
11280SOL    HW135260   4.951   8.174   8.359 -0.7570  1.3343 -0.9855
11280SOL    HW235261   4.823   8.188   8.439 -0.0206 -0.8241  0.6658
11281SOL     OW35262   1.486   6.445   0.448  0.6366 -0.3332 -0.3483
11281SOL    HW135263   1.402   6.400   0.449 -0.6786  1.9399  0.7651
11281SOL    HW235264   1.493   6.483   0.360  0.4831 -0.4994 -0.4307
11282SOL     OW35265   2.410   3.398   5.215  0.1661 -0.0366  0.1773
11282SOL    HW135266   2.453   3.425   5.296  1.0147 -1.1166  0.1018
11282SOL    HW235267   2.410   3.478   5.161  1.6970  0.1224  0.3542
11283SOL     OW35268   5.609   1.715   7.716  0.6264 -0.5555  0.0262
11283SOL    HW135269   5.689   1.764   7.734  0.4855 -0.8660  1.6836
11283SOL    HW235270   5.630   1.662   7.638  1.8006 -0.1488  0.0463
11284SOL     OW35271   7.366   5.520   7.004  0.4458 -0.2901  0.5410
11284SOL    HW135272   7.273   5.540   7.005  0.3108 -0.9044  1.3933
11284SOL    HW235273   7.409   5.603   7.023  0.1863  0.3791 -1.4941
11285SOL     OW35274   5.054   0.687   1.507 -0.0939  0.0785 -0.0184
11285SOL    HW135275   5.071   0.593   1.495  0.7922  0.0561  1.1880
11285SOL    HW235276   4.975   0.690   1.560 -0.0873  0.0090 -0.0037
11286SOL     OW35277   2.089   3.238   0.625  0.3483  0.0968 -0.0780
11286SOL    HW135278   2.184   3.241   0.613  0.5026 -0.2101  0.9470
11286SOL    HW235279   2.055   3.303   0.563  1.1401 -0.5198 -1.1955
11287SOL     OW35280   2.622   2.782   4.604  0.1238 -0.1139 -0.3595
11287SOL    HW135281   2.713   2.809   4.609 -0.0186  0.3170 -0.0487
11287SOL    HW235282   2.623   2.690   4.632  0.3411  0.1591  0.5705
11288SOL     OW35283   3.461   1.977   3.699 -0.4725 -0.0153 -0.4334
11288SOL    HW135284   3.502   2.029   3.768 -1.3461 -1.4964  1.2988
11288SOL    HW235285   3.533   1.954   3.640 -0.3064  4.6392 -2.4606
11289SOL     OW35286   7.930   0.979   7.794 -0.7251  0.2141  0.3158
11289SOL    HW135287   8.020   0.957   7.767 -0.5720  1.9105 -0.7271
11289SOL    HW235288   7.926   0.952   7.886  0.2724 -1.4776 -0.0790
11290SOL     OW35289   4.978   1.001   8.190 -0.0325  0.1466  0.1623
11290SOL    HW135290   5.070   1.025   8.185  0.1903 -0.8894 -2.3953
11290SOL    HW235291   4.940   1.063   8.252  2.4270  0.3636  1.5707
11291SOL     OW35292   2.702   2.091   1.087 -0.1892 -0.0761 -0.3533
11291SOL    HW135293   2.614   2.074   1.054  0.2799  0.2562 -1.8878
11291SOL    HW235294   2.712   2.186   1.081  0.1211 -0.0700  0.2223
11292SOL     OW35295   4.852   1.283   7.555  0.3437 -0.2545 -0.4906
11292SOL    HW135296   4.830   1.270   7.463  1.8876 -1.7884 -0.7122
11292SOL    HW235297   4.947   1.274   7.558  0.3077 -0.4165  1.2815
11293SOL     OW35298   5.721   6.651   5.356  0.6140  0.2311 -0.1755
11293SOL    HW135299   5.802   6.632   5.403  0.5884  3.1661  1.2216
11293SOL    HW235300   5.657   6.673   5.424 -0.4379  1.1552 -1.3931
11294SOL     OW35301   3.478   0.047   0.159 -0.1543 -0.6203  0.5580
11294SOL    HW135302   3.492  -0.027   0.218 -2.4017 -0.7892  0.9544
11294SOL    HW235303   3.544   0.111   0.186  0.6647 -1.7631  1.4016
11295SOL     OW35304   6.035   2.415   1.742  0.0227  0.0514 -0.1967
11295SOL    HW135305   5.956   2.450   1.782  0.6959 -0.5298  1.7671
11295SOL    HW235306   6.004   2.355   1.674 -1.1856  0.5013 -0.0583
11296SOL     OW35307   3.740   6.429   2.542  0.6409  0.1685 -0.4607
11296SOL    HW135308   3.681   6.460   2.472  1.5629  2.2545 -0.3800
11296SOL    HW235309   3.762   6.339   2.516 -0.3513  0.3203 -1.9720
11297SOL     OW35310   5.555   7.753   3.458 -0.4664  0.2890  0.2889
11297SOL    HW135311   5.542   7.665   3.422 -1.5302  0.3996  0.3569
11297SOL    HW235312   5.649   7.766   3.457 -0.4312  0.2651 -2.3931
11298SOL     OW35313   5.675   5.541   6.155 -0.3389 -0.1143  0.1656
11298SOL    HW135314   5.648   5.626   6.188 -2.3310 -0.1347 -1.2745
11298SOL    HW235315   5.660   5.481   6.228 -1.9211  0.2885  0.2027
11299SOL     OW35316   6.602   6.408   2.872  0.3342  0.1327  0.1865
11299SOL    HW135317   6.623   6.416   2.965  1.6977  0.4336 -0.1181
11299SOL    HW235318   6.509   6.430   2.866  0.2454  0.1765  1.4613
11300SOL     OW35319   1.930   4.054   2.501 -0.0755  0.2515  0.2241
11300SOL    HW135320   1.931   3.975   2.554  0.3498  0.6630  0.8454
11300SOL    HW235321   1.878   4.031   2.424 -1.3085 -0.1420  1.1502
11301SOL     OW35322   7.679   7.796   0.044  0.2749  0.2126  0.5949
11301SOL    HW135323   7.670   7.812   0.138  1.4672  0.2561  0.7196
11301SOL    HW235324   7.686   7.884   0.006 -2.1548  0.2925  0.2108
11302SOL     OW35325   6.123   4.907   5.378  0.3588  0.2394  0.0223
11302SOL    HW135326   6.078   4.946   5.452 -0.2521  0.5934 -0.5254
11302SOL    HW235327   6.214   4.935   5.387 -0.0184  1.6375 -0.2406
11303SOL     OW35328   1.008   3.674   3.156  0.3999  0.3386  0.0462
11303SOL    HW135329   1.036   3.700   3.068 -1.6755  0.5600 -0.6041
11303SOL    HW235330   0.949   3.744   3.183 -1.8355 -1.4618  0.0968
11304SOL     OW35331   6.396   1.070   3.012  0.3067  0.3479  0.8574
11304SOL    HW135332   6.338   1.057   2.937  2.3596 -2.2196 -0.4587
11304SOL    HW235333   6.379   0.995   3.069  1.7282 -0.0344  0.8237
11305SOL     OW35334   1.830   6.717   7.914 -0.2800 -0.5568 -0.1137
11305SOL    HW135335   1.750   6.705   7.862  0.1412 -1.1313 -0.6415
11305SOL    HW235336   1.867   6.799   7.883 -2.1121  1.2785  2.1008
11306SOL     OW35337   0.641   7.284   0.800  0.5000  0.3965 -0.0375
11306SOL    HW135338   0.734   7.295   0.824  0.5912  1.7570 -0.8967
11306SOL    HW235339   0.642   7.275   0.705 -0.2578  0.6209 -0.0725
11307SOL     OW35340   5.838   7.912   1.018  0.1700  0.0850 -0.4301
11307SOL    HW135341   5.908   7.974   1.040  1.1701 -1.1827  0.0675
11307SOL    HW235342   5.823   7.864   1.099 -2.0193  0.9888 -0.2202
11308SOL     OW35343   8.134   6.311   0.882 -0.3250  0.1414  0.5291
11308SOL    HW135344   8.099   6.366   0.811 -0.1095  0.2482  0.5060
11308SOL    HW235345   8.091   6.345   0.961  0.0788  0.5852  0.5642
11309SOL     OW35346   7.295   1.221   4.723 -0.0549 -0.6307 -0.4922
11309SOL    HW135347   7.217   1.172   4.748  1.4257 -2.7354  0.3409
11309SOL    HW235348   7.345   1.230   4.804  1.8749 -1.9264 -1.4694
11310SOL     OW35349   6.752   7.915   1.463  0.3599 -0.7231  0.8960
11310SOL    HW135350   6.793   7.993   1.500 -0.6188  0.0037  0.5002
11310SOL    HW235351   6.825   7.861   1.432  0.9942  1.2555 -1.3014
11311SOL     OW35352   6.302   7.701   5.772  0.9663  0.1708 -0.4696
11311SOL    HW135353   6.247   7.666   5.842  0.6358  1.5193 -0.0188
11311SOL    HW235354   6.369   7.634   5.758  0.3982 -0.5967  0.3784
11312SOL     OW35355   3.936   6.436   4.445  0.1578 -0.3530  0.6022
11312SOL    HW135356   3.934   6.503   4.377  1.0200 -0.8960  0.0204
11312SOL    HW235357   3.881   6.366   4.412 -0.4633 -0.0887  1.0553
11313SOL     OW35358   2.723   7.842   6.671 -0.4518 -0.4473 -0.0552
11313SOL    HW135359   2.777   7.899   6.725  2.0390 -0.7658 -2.0020
11313SOL    HW235360   2.719   7.759   6.718 -1.0498  0.2050  1.0797
11314SOL     OW35361   6.626   6.210   1.648  0.7673 -0.2361 -0.6019
11314SOL    HW135362   6.642   6.298   1.615 -0.4715  0.3835  0.3703
11314SOL    HW235363   6.554   6.177   1.594  1.0283 -0.5350 -0.7678
11315SOL     OW35364   7.806   1.853   5.621  1.0596  0.2587 -0.0528
11315SOL    HW135365   7.727   1.833   5.571  0.6785  1.4795  0.0426
11315SOL    HW235366   7.859   1.773   5.614 -0.0073 -0.4345 -0.4277
11316SOL     OW35367   4.595   3.198   5.419 -0.0286  0.0599  0.4041
11316SOL    HW135368   4.650   3.265   5.460  1.5806 -1.1904  0.3517
11316SOL    HW235369   4.627   3.193   5.329  0.0758 -0.9801  0.4893
11317SOL     OW35370   4.371   4.922   0.836  0.2544 -0.4788 -0.2740
11317SOL    HW135371   4.297   4.958   0.884 -0.2507  1.6371 -2.4444
11317SOL    HW235372   4.335   4.846   0.789 -0.5685  0.4756 -1.2295
11318SOL     OW35373   5.637   6.560   0.856  0.4692 -0.1360 -0.1462
11318SOL    HW135374   5.675   6.562   0.769  1.9502  0.0022  0.4732
11318SOL    HW235375   5.557   6.508   0.847  0.3097  0.3373 -1.6708
11319SOL     OW35376   5.604   6.321   0.526 -0.1416  0.2263 -0.2292
11319SOL    HW135377   5.637   6.260   0.592  0.8196  0.4806 -0.4560
11319SOL    HW235378   5.509   6.308   0.527 -0.1275  0.0491  1.0220
11320SOL     OW35379   1.765   7.984   4.742 -0.5830  0.3718  0.2531
11320SOL    HW135380   1.775   7.925   4.817 -0.8763 -1.0506 -0.7781
11320SOL    HW235381   1.672   7.982   4.723 -0.2932 -0.6126 -1.1598
11321SOL     OW35382   3.487   3.557   0.420  0.1618  0.2167 -0.0264
11321SOL    HW135383   3.529   3.499   0.356 -0.5327  0.7018 -0.9509
11321SOL    HW235384   3.418   3.504   0.460 -0.2674  0.2962 -0.6440
11322SOL     OW35385   3.653   0.292   4.646 -0.9032 -0.2675  0.1119
11322SOL    HW135386   3.586   0.359   4.659 -0.4982  0.0556  0.6123
11322SOL    HW235387   3.715   0.330   4.584 -1.4291 -0.7573 -0.7287
11323SOL     OW35388   6.080   7.799   3.915  0.2706  0.3084  0.2093
11323SOL    HW135389   6.159   7.746   3.923  0.9218  1.2371  0.1597
11323SOL    HW235390   6.056   7.821   4.006  1.6527  2.2416  0.1736
11324SOL     OW35391   3.554   4.927   7.076 -0.0812  0.1396  0.1487
11324SOL    HW135392   3.480   4.883   7.035  0.2610 -1.5789  1.2547
11324SOL    HW235393   3.623   4.926   7.010 -0.0021 -1.2669  0.2225
11325SOL     OW35394   5.205   8.315   3.387 -0.3531 -0.1438  0.1466
11325SOL    HW135395   5.159   8.258   3.448 -1.7747 -1.0004 -1.6125
11325SOL    HW235396   5.136   8.353   3.332  0.7984  1.0839 -0.5315
11326SOL     OW35397   4.171   0.082   2.900 -0.2492  0.0706  0.0730
11326SOL    HW135398   4.096   0.140   2.892 -0.4859 -0.3619 -1.0009
11326SOL    HW235399   4.166   0.026   2.823  1.4231  0.3130 -0.2366
11327SOL     OW35400   7.735   2.026   0.180  0.1929 -0.3603  0.0010
11327SOL    HW135401   7.751   2.055   0.270  0.4422 -0.7227  0.0752
11327SOL    HW235402   7.770   1.937   0.177  0.0669 -0.3967 -0.4197
11328SOL     OW35403   0.687   6.058   5.828 -0.3611  0.9839 -0.0933
11328SOL    HW135404   0.696   6.114   5.751 -2.8049 -0.9979 -1.9944
11328SOL    HW235405   0.622   6.104   5.883  0.0127  1.5096 -0.0792
11329SOL     OW35406   8.103   0.841   5.120 -0.0132  0.6528 -0.1084
11329SOL    HW135407   8.036   0.872   5.059 -0.3388 -0.6431 -0.4381
11329SOL    HW235408   8.085   0.748   5.130  0.5148  0.6913  1.3813
11330SOL     OW35409   8.026   6.994   4.392 -0.0856  0.1570 -0.5373
11330SOL    HW135410   7.972   7.070   4.413 -0.3217 -0.0508 -0.3903
11330SOL    HW235411   7.964   6.922   4.383  0.2056 -0.1869  0.1279
11331SOL     OW35412   1.980   4.358   4.061 -0.0593 -0.2016  0.0159
11331SOL    HW135413   1.912   4.415   4.027 -0.1344 -1.1149 -1.4460
11331SOL    HW235414   1.938   4.273   4.071 -0.3309  0.1806  3.4730
11332SOL     OW35415   7.700   6.373   4.113  0.0311 -0.6730 -0.0982
11332SOL    HW135416   7.623   6.319   4.134 -1.7987  1.5380 -0.6502
11332SOL    HW235417   7.699   6.442   4.179  0.3462  0.5216 -1.3070
11333SOL     OW35418   1.511   1.188   1.646  0.7233 -0.6007  0.9449
11333SOL    HW135419   1.567   1.111   1.662  2.2193  0.4750  1.1243
11333SOL    HW235420   1.515   1.238   1.727  1.1762  0.5108  0.2674
11334SOL     OW35421   6.769   7.423   2.789  0.4938 -0.4234 -0.2803
11334SOL    HW135422   6.718   7.443   2.868  1.2229  2.2667 -0.3928
11334SOL    HW235423   6.740   7.488   2.725  1.2194 -1.4178 -1.6635
11335SOL     OW35424   4.585   2.053   6.026 -0.0747  0.5990  0.5493
11335SOL    HW135425   4.576   2.065   6.120 -0.1278 -1.6907  0.8915
11335SOL    HW235426   4.510   2.100   5.989 -0.8325  0.3993  1.7678
11336SOL     OW35427   6.787   4.833   2.176 -0.0415 -0.4030 -0.5135
11336SOL    HW135428   6.796   4.794   2.263 -2.7765 -4.2338 -1.6979
11336SOL    HW235429   6.864   4.802   2.127 -0.6366 -1.8585 -0.5717
11337SOL     OW35430   3.439   4.720   1.899 -0.0781  0.0582  0.2887
11337SOL    HW135431   3.380   4.684   1.965  0.2168 -0.9470  0.0263
11337SOL    HW235432   3.383   4.740   1.824 -0.3641  0.9076  0.7203
11338SOL     OW35433   4.974   7.877   4.381  0.1266 -0.1179 -0.5573
11338SOL    HW135434   5.032   7.889   4.456  1.2967  0.0647 -1.4651
11338SOL    HW235435   4.957   7.965   4.349 -1.0080 -0.1430 -0.0486
11339SOL     OW35436   7.504   5.360   6.830 -0.0500  0.0830  0.0882
11339SOL    HW135437   7.434   5.408   6.875 -2.8384 -1.8083 -1.8567
11339SOL    HW235438   7.520   5.410   6.750  0.1968  0.0264  0.0998
11340SOL     OW35439   7.674   3.130   2.602 -0.4079 -0.0369  0.3092
11340SOL    HW135440   7.694   3.055   2.657 -2.1927 -0.7252  0.1039
11340SOL    HW235441   7.756   3.151   2.557 -0.0675 -2.4407 -0.3258
11341SOL     OW35442   5.823   2.798   7.020  0.1560 -0.1447  0.2366
11341SOL    HW135443   5.817   2.747   6.939  2.5196 -2.0162  1.1165
11341SOL    HW235444   5.883   2.869   6.999 -2.0155  1.5488 -0.5785
11342SOL     OW35445   3.883   2.046   6.442  0.0042 -0.8942  0.3431
11342SOL    HW135446   3.907   1.958   6.469 -0.5381 -1.0559  0.3037
11342SOL    HW235447   3.790   2.040   6.419 -0.1327 -0.2335  0.6978
11343SOL     OW35448   5.952   0.611   7.963  0.6897 -0.2595  0.8243
11343SOL    HW135449   6.017   0.590   7.896 -0.5698 -0.6871 -0.3189
11343SOL    HW235450   5.929   0.703   7.945 -0.6652 -0.7793 -0.2770
11344SOL     OW35451   4.704   5.239   5.811  0.6091  0.2333 -0.2741
11344SOL    HW135452   4.703   5.262   5.718 -2.4563  3.3467  0.3200
11344SOL    HW235453   4.790   5.265   5.842  1.3081  0.1214 -2.0061
11345SOL     OW35454   4.360   6.748   0.106 -0.1925  0.1637 -0.2942
11345SOL    HW135455   4.337   6.674   0.050 -0.5184  0.6032 -0.7441
11345SOL    HW235456   4.454   6.738   0.122 -0.1776 -0.1830 -0.5943
11346SOL     OW35457   5.629   3.653   6.798 -0.3271 -0.0661 -0.9111
11346SOL    HW135458   5.593   3.570   6.765 -1.4811  0.5897 -1.3893
11346SOL    HW235459   5.560   3.717   6.779 -0.3524  0.6419  1.3409
11347SOL     OW35460   4.218   2.538   0.467  0.6925  0.3170 -0.0660
11347SOL    HW135461   4.176   2.516   0.383  2.3048 -0.4505 -0.7265
11347SOL    HW235462   4.146   2.546   0.529 -0.4365 -0.7944 -1.1725
11348SOL     OW35463   0.589   7.480   5.988  0.4234  0.3757  0.1786
11348SOL    HW135464   0.656   7.442   6.045  1.1420 -0.0667 -0.9232
11348SOL    HW235465   0.609   7.574   5.988  0.1838  0.4287  0.9483
11349SOL     OW35466   3.892   1.281   7.354 -0.4067  0.2370  0.0592
11349SOL    HW135467   3.946   1.325   7.288  0.3474 -1.6685 -0.6543
11349SOL    HW235468   3.953   1.257   7.423 -0.6857 -0.2218  0.1531
11350SOL     OW35469   4.406   2.274   4.480  0.2059  0.2864  0.2821
11350SOL    HW135470   4.440   2.353   4.521  0.1739 -0.0059  0.8738
11350SOL    HW235471   4.469   2.255   4.410 -1.0050  2.1663 -1.4594
11351SOL     OW35472   1.892   0.808   5.030 -0.4856 -0.4584  0.4207
11351SOL    HW135473   1.800   0.785   5.039 -0.7662  0.3208 -0.2862
11351SOL    HW235474   1.911   0.862   5.107 -0.8686  0.1087  0.1271
11352SOL     OW35475   3.162   6.384   1.972  0.0478 -0.2321  0.2708
11352SOL    HW135476   3.199   6.420   2.052 -0.7816  1.9739 -0.2732
11352SOL    HW235477   3.232   6.328   1.936  0.5247 -1.0277  2.3337
11353SOL     OW35478   2.942   8.257   5.002 -0.2269  0.0158  0.0620
11353SOL    HW135479   2.902   8.174   4.977  0.8230 -0.5932  0.3547
11353SOL    HW235480   2.913   8.319   4.935 -1.9193 -0.3131  0.4515
11354SOL     OW35481   7.766   2.325   1.668  0.7917 -0.0545 -0.1686
11354SOL    HW135482   7.720   2.407   1.685 -1.8651 -1.3673 -0.4772
11354SOL    HW235483   7.834   2.321   1.734 -0.0816  1.6415  0.8920
11355SOL     OW35484   7.081   5.353   5.139 -0.2112  0.1744 -1.0364
11355SOL    HW135485   7.093   5.262   5.114  1.8741  0.0278  0.2570
11355SOL    HW235486   7.018   5.350   5.211  0.7444 -0.4050 -0.2018
11356SOL     OW35487   2.012   6.919   1.239 -0.3999 -0.3567  0.4532
11356SOL    HW135488   2.058   6.996   1.274 -1.6646  0.7306 -0.1842
11356SOL    HW235489   1.964   6.884   1.314 -0.3804 -0.0915  0.5928
11357SOL     OW35490   2.648   4.922   2.161  0.2330  0.1682  0.9174
11357SOL    HW135491   2.661   4.842   2.211  0.6854  0.5664  1.4526
11357SOL    HW235492   2.664   4.993   2.224 -1.8591  0.7177  0.9279
11358SOL     OW35493   6.706   2.386   0.202 -0.0060 -0.1299  0.1428
11358SOL    HW135494   6.727   2.295   0.224  0.2498 -0.6673 -2.1179
11358SOL    HW235495   6.785   2.435   0.222  0.1563 -0.5565  0.5489
11359SOL     OW35496   7.632   0.157   6.204  0.2173  0.2969 -0.0764
11359SOL    HW135497   7.605   0.068   6.184  0.4517  0.3861 -0.8132
11359SOL    HW235498   7.638   0.159   6.299 -0.5524 -0.2470 -0.0030
11360SOL     OW35499   1.585   2.898   5.373  0.5830 -0.2094  0.4974
11360SOL    HW135500   1.560   2.823   5.320  1.0043  1.3534 -2.1222
11360SOL    HW235501   1.648   2.864   5.436  1.4788 -1.9160 -1.2270
11361SOL     OW35502   1.560   8.066   2.117 -0.6033 -0.1794  0.2134
11361SOL    HW135503   1.492   8.014   2.161 -0.5843 -0.5968 -0.2427
11361SOL    HW235504   1.523   8.154   2.111 -0.0534  0.2558  2.3250
11362SOL     OW35505   2.755   5.534   5.291 -0.2856 -0.1811 -0.2192
11362SOL    HW135506   2.683   5.544   5.228 -1.0241 -2.8860  0.0711
11362SOL    HW235507   2.731   5.457   5.343  2.9273 -1.4215 -0.3110
11363SOL     OW35508   5.284   4.173   1.159 -0.0278  0.4451  0.3262
11363SOL    HW135509   5.364   4.189   1.210  0.0470 -0.2957  0.4484
11363SOL    HW235510   5.213   4.201   1.216  0.1246  0.8663  0.3162
11364SOL     OW35511   4.378   1.918   1.076  0.1043  0.1394 -0.5088
11364SOL    HW135512   4.282   1.920   1.075  0.1015  1.3404 -2.3538
11364SOL    HW235513   4.403   2.010   1.083  1.1271 -0.1254 -0.6044
11365SOL     OW35514   3.543   2.294   0.554 -0.0442 -0.8128  0.2376
11365SOL    HW135515   3.609   2.231   0.525 -0.0476  0.1687 -2.1677
11365SOL    HW235516   3.591   2.356   0.608  0.5067 -1.3861  0.4183
11366SOL     OW35517   4.913   3.424   1.002  0.2514  0.0587  0.3365
11366SOL    HW135518   4.832   3.455   0.963  0.3966  0.3625  0.2737
11366SOL    HW235519   4.895   3.333   1.026  0.6207 -0.6052 -1.7473
11367SOL     OW35520   7.972   6.703   7.342 -0.0597 -0.0430 -0.3254
11367SOL    HW135521   7.887   6.714   7.386  0.6112  0.6740  0.8483
11367SOL    HW235522   8.036   6.725   7.410  1.1303 -2.2224 -0.6544
11368SOL     OW35523   8.368   6.077   4.969 -0.0373  0.0776 -0.1020
11368SOL    HW135524   8.416   6.023   5.032  0.1295  0.7599  0.3758
11368SOL    HW235525   8.424   6.154   4.955 -0.2353  0.1036 -0.8151
11369SOL     OW35526   5.002   3.124   4.521 -0.1102 -0.0914 -0.4888
11369SOL    HW135527   5.047   3.207   4.536 -1.0114  0.5979 -1.4293
11369SOL    HW235528   4.909   3.147   4.520 -0.3610 -1.0600 -1.0843
11370SOL     OW35529   3.302   4.410   4.852  1.0424 -0.2436 -0.1593
11370SOL    HW135530   3.259   4.343   4.799 -0.8816 -0.9427  2.1299
11370SOL    HW235531   3.395   4.398   4.836  0.5716 -0.6899 -2.9680
11371SOL     OW35532   3.745   4.386   8.174  0.1074 -0.1521 -0.2291
11371SOL    HW135533   3.755   4.307   8.226 -0.1911  1.2461  2.1039
11371SOL    HW235534   3.835   4.413   8.154  0.2005 -1.2905 -1.4464
11372SOL     OW35535   2.614   6.594   0.101  0.6849  0.5350  0.4343
11372SOL    HW135536   2.645   6.512   0.063  0.0070  0.0499  0.9007
11372SOL    HW235537   2.592   6.649   0.025  0.2613 -0.0626  0.1194
11373SOL     OW35538   2.200   1.326   5.452 -0.2773 -0.3758 -0.4829
11373SOL    HW135539   2.200   1.255   5.516  1.0934  0.2334  0.2426
11373SOL    HW235540   2.246   1.398   5.497 -0.4792  0.5130 -1.6690
11374SOL     OW35541   7.546   1.610   7.068  0.1423  0.5829 -0.2292
11374SOL    HW135542   7.473   1.668   7.090  0.1449  0.1021  1.1324
11374SOL    HW235543   7.569   1.567   7.151  2.4112  1.1942 -0.4748
11375SOL     OW35544   0.947   2.751   0.928  0.6653  0.4227  0.6874
11375SOL    HW135545   0.978   2.666   0.960  0.1529  0.2489  0.7370
11375SOL    HW235546   1.018   2.812   0.947  2.1952 -0.4527 -1.6763
11376SOL     OW35547   4.776   4.953   1.139 -0.6553  0.5687 -0.3209
11376SOL    HW135548   4.829   5.002   1.202 -1.0631 -1.9708  2.2024
11376SOL    HW235549   4.686   4.968   1.167 -1.0226  1.1513 -1.7318
11377SOL     OW35550   4.585   1.355   7.531  0.1500 -0.2442  0.3382
11377SOL    HW135551   4.537   1.437   7.535  1.4676  0.5787 -0.1467
11377SOL    HW235552   4.584   1.331   7.438  1.4621  0.2850  0.1726
11378SOL     OW35553   5.467   2.478   5.571  0.2273  0.4199 -0.1112
11378SOL    HW135554   5.519   2.495   5.650  1.2771 -0.5480 -0.5664
11378SOL    HW235555   5.476   2.384   5.556 -1.6452  0.2237 -0.2429
11379SOL     OW35556   5.516   7.361   0.392  0.0706 -0.3845 -0.3022
11379SOL    HW135557   5.576   7.357   0.317  0.1206 -0.1084 -0.2779
11379SOL    HW235558   5.449   7.296   0.372  0.2324 -0.5056 -0.4572
11380SOL     OW35559   5.755   4.724   4.545 -0.5059 -0.6536 -0.1936
11380SOL    HW135560   5.770   4.662   4.616  0.1496  1.8061  1.9981
11380SOL    HW235561   5.839   4.729   4.499  0.4832  0.8288  1.6242
11381SOL     OW35562   4.788   4.507   3.441  0.1835 -0.5391  0.1673
11381SOL    HW135563   4.712   4.465   3.400  1.2079 -0.0507 -2.4311
11381SOL    HW235564   4.855   4.439   3.443 -0.0639 -0.7773  1.8525
11382SOL     OW35565   8.232   6.346   7.527 -0.2615  0.0299  0.0528
11382SOL    HW135566   8.234   6.281   7.597 -1.7253  1.0002  1.0567
11382SOL    HW235567   8.158   6.403   7.549  0.2680  1.3597 -1.4001
11383SOL     OW35568   8.047   0.220   0.428 -0.2988  0.5475 -0.0912
11383SOL    HW135569   8.133   0.257   0.410 -1.2851  2.3434 -1.4250
11383SOL    HW235570   8.009   0.206   0.341 -0.9712 -1.2385  0.4519
11384SOL     OW35571   3.127   5.419   0.500  0.0466  0.1784  0.3303
11384SOL    HW135572   3.032   5.410   0.509  0.2230 -0.8573  1.5462
11384SOL    HW235573   3.139   5.466   0.418 -1.5005 -0.3436 -0.2381
11385SOL     OW35574   5.855   6.382   6.784 -0.4856 -0.2915  0.2261
11385SOL    HW135575   5.791   6.410   6.719  1.1789 -0.8509 -1.7500
11385SOL    HW235576   5.932   6.357   6.733  1.2643  0.1480  2.4784
11386SOL     OW35577   1.538   2.842   3.211  0.0527 -0.8192 -0.2993
11386SOL    HW135578   1.493   2.906   3.265  0.5316  2.4439 -3.3919
11386SOL    HW235579   1.609   2.810   3.266 -0.6260  0.8196  1.6373
11387SOL     OW35580   7.158   2.643   2.155  0.4629 -0.1569  0.3520
11387SOL    HW135581   7.214   2.691   2.216 -0.9763 -0.7103  2.1981
11387SOL    HW235582   7.079   2.697   2.148  0.1571 -0.6634 -0.1345
11388SOL     OW35583   3.752   4.372   6.830  0.6937  0.4188 -0.6516
11388SOL    HW135584   3.806   4.432   6.778 -1.0932 -0.1635 -3.3999
11388SOL    HW235585   3.735   4.298   6.771 -0.3365 -0.9760  1.2796
11389SOL     OW35586   3.608   7.353   4.678  0.2144  0.3415  0.1925
11389SOL    HW135587   3.636   7.310   4.597  0.0517  0.8827 -0.1540
11389SOL    HW235588   3.528   7.306   4.704 -0.6663  1.2242 -0.8546
11390SOL     OW35589   1.827   1.000   3.148  0.4568  0.2684  0.4384
11390SOL    HW135590   1.810   0.907   3.139  0.9937  0.1270  0.8071
11390SOL    HW235591   1.845   1.030   3.059 -0.4747  0.1799  0.2167
11391SOL     OW35592   3.700   4.873   6.152  0.2799 -0.0827  0.5861
11391SOL    HW135593   3.667   4.879   6.241  0.9646  0.1086  0.8311
11391SOL    HW235594   3.783   4.921   6.153  0.3914 -0.2394 -0.1067
11392SOL     OW35595   4.633   3.220   0.887  0.0009 -0.5208  0.0375
11392SOL    HW135596   4.678   3.276   0.824  0.4124 -1.1108 -0.2092
11392SOL    HW235597   4.592   3.280   0.949 -1.1188  0.1233 -1.2559
11393SOL     OW35598   6.505   5.623   4.050 -0.3110  0.0769 -0.1705
11393SOL    HW135599   6.542   5.579   4.127  1.5933  1.2769 -0.3190
11393SOL    HW235600   6.499   5.715   4.076 -0.7886  0.3075 -1.0610
11394SOL     OW35601   3.783   0.373   0.968  0.2364  0.9343 -0.3504
11394SOL    HW135602   3.708   0.355   1.024  1.1577  0.3881  0.7454
11394SOL    HW235603   3.756   0.344   0.881 -0.6966  0.4158  0.1007
11395SOL     OW35604   7.182   0.390   0.212  0.9389 -0.2905 -0.0302
11395SOL    HW135605   7.251   0.429   0.265 -0.6478  1.5428  0.8217
11395SOL    HW235606   7.172   0.451   0.138  0.7245 -0.9502 -0.5597
11396SOL     OW35607   3.769   0.680   6.468  0.5081  0.3295 -0.3380
11396SOL    HW135608   3.785   0.588   6.486  0.2585  0.2811 -0.3653
11396SOL    HW235609   3.709   0.708   6.537  3.2476  1.3549  1.8312
11397SOL     OW35610   0.215   7.170   3.059 -0.2194  0.7959 -0.7056
11397SOL    HW135611   0.151   7.155   3.129 -0.4019  0.3435 -0.9638
11397SOL    HW235612   0.167   7.222   2.995 -0.8666 -0.8578 -1.6377
11398SOL     OW35613   6.916   6.710   5.955  0.1349  0.7405  0.4640
11398SOL    HW135614   6.923   6.626   6.001 -1.9450  0.0246 -0.4314
11398SOL    HW235615   6.996   6.715   5.903  0.1977 -0.7801  0.3783
11399SOL     OW35616   1.384   3.711   6.544 -0.3710 -0.1026 -0.4129
11399SOL    HW135617   1.332   3.792   6.544 -0.3004  0.0346  2.0870
11399SOL    HW235618   1.415   3.703   6.635  2.2236 -1.3088 -1.3046
11400SOL     OW35619   6.842   3.594   6.570 -0.4296 -0.2656  0.1415
11400SOL    HW135620   6.849   3.509   6.614  1.0400 -0.5434 -0.5746
11400SOL    HW235621   6.899   3.586   6.493 -0.3535  1.3296 -0.0009
11401SOL     OW35622   4.796   1.477   6.612  0.0160 -0.3638  0.2381
11401SOL    HW135623   4.851   1.469   6.690 -1.8659  0.1090  1.6918
11401SOL    HW235624   4.827   1.557   6.568  2.2253 -1.5442 -0.5277
11402SOL     OW35625   7.434   2.256   1.374 -0.1562  0.4929 -0.3476
11402SOL    HW135626   7.424   2.288   1.463  0.4074  0.8013 -0.3898
11402SOL    HW235627   7.481   2.326   1.328  1.1341 -0.3932 -0.4355
11403SOL     OW35628   3.711   5.144   3.381  0.3793 -0.3839  0.3702
11403SOL    HW135629   3.759   5.075   3.334 -0.2901 -0.3267 -0.4214
11403SOL    HW235630   3.735   5.224   3.334 -1.0185 -0.4387 -0.4770
11404SOL     OW35631   6.141   0.915   2.943  0.0705  0.6897  0.0067
11404SOL    HW135632   6.150   0.823   2.918  0.6287  0.9885 -0.9340
11404SOL    HW235633   6.169   0.964   2.866 -1.5366  1.6655 -0.0077
11405SOL     OW35634   2.726   1.648   6.928 -0.4158 -0.8214  0.4661
11405SOL    HW135635   2.641   1.661   6.970  0.1380  0.9415  1.1385
11405SOL    HW235636   2.752   1.736   6.899  0.8681 -1.4433 -0.3370
11406SOL     OW35637   6.865   7.682   8.202  0.1420  0.0196 -0.3211
11406SOL    HW135638   6.787   7.655   8.153  0.4446 -0.2589 -0.6532
11406SOL    HW235639   6.893   7.763   8.159  0.1952 -0.0312 -0.3837
11407SOL     OW35640   7.997   1.758   7.192 -0.2950  0.6911  0.3681
11407SOL    HW135641   7.924   1.772   7.133  2.1332  0.2863 -3.0302
11407SOL    HW235642   8.009   1.842   7.237 -1.0500  1.7069 -1.2352
11408SOL     OW35643   7.375   4.052   7.625  0.1239 -0.3328  0.5036
11408SOL    HW135644   7.293   4.035   7.579  2.0681 -0.3998 -3.4563
11408SOL    HW235645   7.402   3.967   7.658 -1.0682 -0.4091  1.3509
11409SOL     OW35646   1.695   1.096   8.023  0.7893 -0.2004 -0.5678
11409SOL    HW135647   1.711   1.179   8.067 -2.8269 -0.5414  1.7962
11409SOL    HW235648   1.674   1.120   7.932  0.4854  1.4315 -0.0942
11410SOL     OW35649   6.571   7.998   7.945  0.0935 -0.6763 -0.3463
11410SOL    HW135650   6.628   8.063   7.987 -0.9436  1.4055 -1.9897
11410SOL    HW235651   6.503   7.980   8.010 -0.3811  0.9830 -0.3387
11411SOL     OW35652   7.992   7.027   7.371  0.0744  0.0601 -0.1286
11411SOL    HW135653   7.996   6.931   7.376  0.7357  0.0449 -0.7799
11411SOL    HW235654   8.071   7.052   7.324  0.8907  1.0784  1.6943
11412SOL     OW35655   1.603   6.744   5.474  0.1651  0.2223 -0.2331
11412SOL    HW135656   1.622   6.697   5.555  1.0893 -0.9113 -1.0830
11412SOL    HW235657   1.602   6.836   5.500 -2.4640 -0.2275  1.6099
11413SOL     OW35658   5.632   0.188   7.690  0.2824 -0.0908 -0.8072
11413SOL    HW135659   5.569   0.183   7.617 -0.4922 -0.8374 -0.1055
11413SOL    HW235660   5.613   0.272   7.732 -1.6867 -1.1784  0.6354
11414SOL     OW35661   7.013   3.624   3.825 -0.5264  0.3265  0.0395
11414SOL    HW135662   7.076   3.555   3.850  0.8833  1.7093  0.4697
11414SOL    HW235663   6.966   3.587   3.750  2.8035  0.2518 -2.2262
11415SOL     OW35664   1.078   5.349   0.309 -0.4109  0.3185  0.1351
11415SOL    HW135665   1.088   5.385   0.221  0.5438  0.2960  0.2257
11415SOL    HW235666   1.162   5.365   0.351 -0.1363 -1.5249  0.3663
11416SOL     OW35667   1.378   2.786   2.665  0.1411 -0.0277 -0.2249
11416SOL    HW135668   1.427   2.814   2.742  1.3389  1.3104 -1.4263
11416SOL    HW235669   1.322   2.715   2.697 -2.0449  2.6949  2.7099
11417SOL     OW35670   4.837   0.053   5.980 -0.0747 -0.5255 -0.1478
11417SOL    HW135671   4.810   0.139   6.012  0.6791 -1.1074  2.1827
11417SOL    HW235672   4.917   0.071   5.930  0.9306 -0.0076  1.5786
11418SOL     OW35673   1.183   2.584   1.236  0.3423  0.3542 -0.5429
11418SOL    HW135674   1.095   2.547   1.230  0.5225 -0.0092 -0.9838
11418SOL    HW235675   1.209   2.600   1.146  1.4589 -1.2963 -0.5680
11419SOL     OW35676   2.546   6.577   6.767  0.4191 -0.1578  0.0346
11419SOL    HW135677   2.482   6.530   6.821  1.4946 -0.7552  0.8339
11419SOL    HW235678   2.541   6.535   6.682 -0.1908 -0.2486  0.1107
11420SOL     OW35679   3.764   3.055   1.638 -0.0165  0.3561  0.0028
11420SOL    HW135680   3.756   3.149   1.648 -0.5152  0.4477 -1.0811
11420SOL    HW235681   3.701   3.018   1.700  0.3277  0.7242  0.5737
11421SOL     OW35682   1.973   5.116   8.244 -0.6395  0.1145  0.4796
11421SOL    HW135683   1.958   5.194   8.191 -0.7850 -0.3544 -0.1796
11421SOL    HW235684   2.044   5.140   8.303 -1.1214  0.9563  0.7245
11422SOL     OW35685   6.985   7.801   0.515  0.3180 -0.5923  0.3988
11422SOL    HW135686   7.007   7.735   0.450  0.4727 -0.3768  0.2323
11422SOL    HW235687   6.890   7.803   0.516  0.3007  0.3944 -0.8295
11423SOL     OW35688   1.647   0.899   1.319  0.1774 -0.0380 -0.1539
11423SOL    HW135689   1.677   0.824   1.371  1.2307 -0.5529 -1.4584
11423SOL    HW235690   1.563   0.923   1.359 -0.3031 -2.0505  0.1746
11424SOL     OW35691   1.816   6.652   6.491 -0.0427 -0.2077  0.0623
11424SOL    HW135692   1.731   6.643   6.448  1.2228  0.4150 -2.8208
11424SOL    HW235693   1.799   6.709   6.567 -2.2960 -0.7976  0.0593
11425SOL     OW35694   7.815   0.966   0.362 -0.0228  0.3157  0.4688
11425SOL    HW135695   7.727   1.004   0.372  1.0720  3.0546  0.6778
11425SOL    HW235696   7.869   1.039   0.332  2.4710 -0.9509  1.6052
11426SOL     OW35697   2.488   2.295   4.039  0.8508 -0.6406 -0.2502
11426SOL    HW135698   2.492   2.369   4.100 -1.2328 -0.9303  0.3204
11426SOL    HW235699   2.447   2.331   3.960  0.6093 -0.9810 -0.2840
11427SOL     OW35700   2.462   5.850   7.746 -0.5017 -0.1344 -0.4209
11427SOL    HW135701   2.417   5.832   7.829 -0.2541 -1.4295 -0.5346
11427SOL    HW235702   2.426   5.786   7.685 -1.5683  1.5873 -1.6846
11428SOL     OW35703   5.565   0.367   1.883 -0.1203 -0.0521 -0.0735
11428SOL    HW135704   5.513   0.320   1.817  0.2819 -1.7284  0.7539
11428SOL    HW235705   5.620   0.426   1.831  0.3962 -1.5283 -1.3135
11429SOL     OW35706   5.749   3.073   5.001  0.5685  0.5076 -0.2704
11429SOL    HW135707   5.696   3.057   5.079  1.1146 -0.1092 -0.0236
11429SOL    HW235708   5.837   3.088   5.035  0.6755  0.9207 -0.7247
11430SOL     OW35709   4.549   6.866   7.008 -0.3080 -0.6063 -0.7220
11430SOL    HW135710   4.516   6.897   6.923 -0.1826 -1.2736 -1.0166
11430SOL    HW235711   4.628   6.816   6.986  0.5700  0.4404 -0.0835
11431SOL     OW35712   6.714   7.225   3.959  0.2824 -0.0064 -0.2650
11431SOL    HW135713   6.806   7.200   3.949  0.7513  1.3440  0.4824
11431SOL    HW235714   6.667   7.142   3.968  1.6952 -0.6577  1.5647
11432SOL     OW35715   0.457   1.152   8.044  0.3695 -0.3306  0.0239
11432SOL    HW135716   0.374   1.198   8.053  1.4174  1.6942 -0.0808
11432SOL    HW235717   0.458   1.089   8.116 -1.2271 -0.3961  0.0154
11433SOL     OW35718   4.441   4.258   2.216 -0.5455  0.2575 -0.6973
11433SOL    HW135719   4.384   4.334   2.229 -0.5733  0.2170 -0.5843
11433SOL    HW235720   4.474   4.237   2.303  0.8948  1.2410 -0.9673
11434SOL     OW35721   7.125   7.239   5.067 -0.0573  0.0053 -0.5153
11434SOL    HW135722   7.135   7.253   4.973  0.4389 -0.7958 -0.5838
11434SOL    HW235723   7.135   7.327   5.104  1.4029  0.1183 -1.0783
11435SOL     OW35724   1.702   6.027   5.402  0.0235  0.0987  0.6036
11435SOL    HW135725   1.749   5.944   5.399 -1.0756 -0.5959  1.7456
11435SOL    HW235726   1.668   6.039   5.313  0.2924 -0.6120  0.4028
11436SOL     OW35727   4.538   7.172   5.425  0.7629  0.2289 -0.0304
11436SOL    HW135728   4.560   7.133   5.340  0.4836  0.1614 -0.0692
11436SOL    HW235729   4.464   7.229   5.407  0.9923  0.5676  0.0809
11437SOL     OW35730   2.481   2.844   7.497 -0.2204 -0.1793  0.2029
11437SOL    HW135731   2.450   2.862   7.586 -0.7042  2.5604 -0.4056
11437SOL    HW235732   2.416   2.784   7.460 -2.3453  1.8199  0.4704
11438SOL     OW35733   7.625   1.475   4.869  0.0785 -0.5622  0.0627
11438SOL    HW135734   7.618   1.503   4.778 -1.9063 -0.5782  0.1685
11438SOL    HW235735   7.673   1.545   4.912  2.0941 -1.0822 -1.1627
11439SOL     OW35736   8.167   6.183   2.982  0.1053 -0.3235 -0.4079
11439SOL    HW135737   8.154   6.177   2.888 -0.5418 -2.9620 -0.2362
11439SOL    HW235738   8.081   6.205   3.017  0.1331 -0.2682 -0.3737
11440SOL     OW35739   3.158   1.088   5.018 -0.1911 -0.1071  0.3335
11440SOL    HW135740   3.110   1.036   4.953 -0.0501 -0.8051  0.7742
11440SOL    HW235741   3.128   1.178   5.004  0.3833 -0.1105 -1.1937
11441SOL     OW35742   0.841   0.579   1.797 -0.5448 -0.1537 -0.1528
11441SOL    HW135743   0.919   0.524   1.799 -0.7556 -0.4390  0.7422
11441SOL    HW235744   0.821   0.589   1.704 -1.4747 -2.9872 -0.3550
11442SOL     OW35745   7.864   4.207   0.358 -0.2146  0.3722  0.2424
11442SOL    HW135746   7.801   4.145   0.394  0.2945 -0.1345  0.2678
11442SOL    HW235747   7.915   4.235   0.434 -0.7452  1.1903  0.3131
11443SOL     OW35748   0.088   5.759   6.949  0.5953 -0.3820  0.4724
11443SOL    HW135749   0.175   5.729   6.973  0.1130 -0.8021  1.7970
11443SOL    HW235750   0.079   5.735   6.857  1.7247 -0.6737  0.4218
11444SOL     OW35751   2.864   6.689   2.207  0.1493 -0.4357  0.0406
11444SOL    HW135752   2.814   6.763   2.242  1.1649 -0.5736  1.9005
11444SOL    HW235753   2.911   6.654   2.283  0.7462 -2.1568 -1.0724
11445SOL     OW35754   1.637   4.146   8.200 -0.3710 -0.1809 -0.3376
11445SOL    HW135755   1.595   4.226   8.229 -0.5522 -0.0911 -0.8370
11445SOL    HW235756   1.713   4.136   8.257 -0.9220 -0.2083  0.3970
11446SOL     OW35757   6.792   2.961   7.437  0.3869 -0.2126 -0.2041
11446SOL    HW135758   6.840   2.879   7.447  0.9977  0.3490  2.0651
11446SOL    HW235759   6.849   3.016   7.383  0.8703 -0.6155 -0.1068
11447SOL     OW35760   5.097   0.292   6.835  0.2348 -0.0301  0.1957
11447SOL    HW135761   5.123   0.207   6.799 -2.0562 -1.4417  1.5865
11447SOL    HW235762   5.102   0.280   6.930 -2.4377  0.4827  0.4861
11448SOL     OW35763   2.503   8.298   4.585  0.0294 -0.0874  0.2308
11448SOL    HW135764   2.476   8.216   4.544  2.8557 -0.4159 -1.2828
11448SOL    HW235765   2.451   8.365   4.542 -0.8080 -0.9055 -0.0583
11449SOL     OW35766   7.215   4.737   5.828  0.7376  0.8443  0.0153
11449SOL    HW135767   7.259   4.794   5.765  2.3208  0.8521  1.0824
11449SOL    HW235768   7.205   4.654   5.782 -0.0581  1.4407 -0.9564
11450SOL     OW35769   4.765   5.320   5.058  0.2261 -0.2857 -0.2266
11450SOL    HW135770   4.786   5.347   4.968 -2.8177 -0.6989 -1.1785
11450SOL    HW235771   4.683   5.366   5.078  0.3041 -1.0000  1.9742
11451SOL     OW35772   2.977   2.264   0.498  0.2545 -0.4225  0.1516
11451SOL    HW135773   2.927   2.225   0.570  0.2032 -0.6586 -0.0108
11451SOL    HW235774   2.937   2.228   0.419 -0.2954  0.5535 -0.0326
11452SOL     OW35775   4.929   4.323   4.322 -0.4479 -0.3302  0.0591
11452SOL    HW135776   4.865   4.394   4.331  0.2942  0.2442  1.0642
11452SOL    HW235777   4.900   4.256   4.382  0.7097  0.5986  1.7552
11453SOL     OW35778   0.057   3.224   6.994 -0.4059  0.1339  0.7831
11453SOL    HW135779  -0.030   3.257   6.968  0.5527  0.0396 -3.3124
11453SOL    HW235780   0.111   3.303   6.999  0.1114 -0.0552 -0.9769
11454SOL     OW35781   0.711   5.932   7.889 -0.0674  0.6565  0.2766
11454SOL    HW135782   0.661   5.969   7.815  1.1725  0.1280 -0.8719
11454SOL    HW235783   0.740   5.846   7.857  1.8212  1.0698  0.7598
11455SOL     OW35784   0.597   4.580   4.939 -0.0670 -0.2103 -0.5593
11455SOL    HW135785   0.509   4.574   4.901 -0.6447  1.4169  0.4305
11455SOL    HW235786   0.583   4.576   5.034  0.9096  0.2384 -0.3810
11456SOL     OW35787   3.363   6.118   2.247  0.1487  0.4707  0.2088
11456SOL    HW135788   3.437   6.099   2.190  0.5725  3.2989 -0.3625
11456SOL    HW235789   3.289   6.132   2.188 -0.5350 -0.9122  0.6901
11457SOL     OW35790   4.568   2.602   6.676  0.5356  0.2255  0.1029
11457SOL    HW135791   4.504   2.552   6.727  0.3915 -1.5871 -1.7319
11457SOL    HW235792   4.653   2.571   6.707  0.4531 -1.8758 -1.5615
11458SOL     OW35793   5.247   1.431   3.246 -0.0634  0.1036  0.4376
11458SOL    HW135794   5.336   1.396   3.247 -0.2979 -0.8917 -2.7531
11458SOL    HW235795   5.238   1.469   3.158 -2.8769 -0.1141  0.5532
11459SOL     OW35796   0.292   3.299   1.703  0.5711 -0.4240  0.1290
11459SOL    HW135797   0.347   3.266   1.773  1.2847  0.6779  0.1234
11459SOL    HW235798   0.352   3.352   1.650 -0.7073  1.7726  0.7739
11460SOL     OW35799   0.885   7.569   2.646 -0.3706  0.3529  0.5046
11460SOL    HW135800   0.883   7.648   2.592  2.8371 -0.8889 -1.7699
11460SOL    HW235801   0.889   7.497   2.583 -0.1181 -1.4394  2.4480
11461SOL     OW35802   5.594   5.984   5.837 -0.1033  0.0105  0.5311
11461SOL    HW135803   5.638   5.949   5.759  0.6848 -0.9962  1.3928
11461SOL    HW235804   5.622   6.076   5.840  0.3937 -0.1121 -0.0084
11462SOL     OW35805   1.063   5.479   7.450  0.1672 -0.0896  0.3258
11462SOL    HW135806   0.981   5.523   7.476  0.4214  1.1121 -0.7989
11462SOL    HW235807   1.063   5.483   7.355  0.4638 -2.1392  0.2075
11463SOL     OW35808   3.331   1.433   0.007  0.5473  0.8829  0.5545
11463SOL    HW135809   3.369   1.474  -0.070 -0.0600  1.4752  0.5617
11463SOL    HW235810   3.273   1.365  -0.029  0.7669  0.7185  0.5109
11464SOL     OW35811   6.054   7.568   5.482 -0.5635 -0.5627 -0.0473
11464SOL    HW135812   6.106   7.502   5.438  1.0724  1.6069 -1.5352
11464SOL    HW235813   6.027   7.628   5.413  0.5819  1.9807  1.5577
11465SOL     OW35814   5.486   0.421   6.010  0.0020  0.1060  0.5324
11465SOL    HW135815   5.394   0.404   6.029  0.1355 -1.2039  0.0759
11465SOL    HW235816   5.493   0.415   5.915  0.4029  1.1002  0.4847
11466SOL     OW35817   0.196   0.026   2.166 -0.3092  0.3892  0.2713
11466SOL    HW135818   0.246   0.005   2.087  0.7974 -0.6526  1.2002
11466SOL    HW235819   0.176   0.119   2.158 -0.6605  0.2070 -1.4517
11467SOL     OW35820   2.058   1.599   0.713 -0.0677  0.1462  0.0126
11467SOL    HW135821   2.020   1.566   0.632 -0.2922 -0.1042  0.2172
11467SOL    HW235822   2.144   1.633   0.687  0.2755 -0.8046 -0.1761
11468SOL     OW35823   3.503   3.792   4.993 -0.0442 -0.3815 -0.4379
11468SOL    HW135824   3.552   3.722   5.036  1.1581  0.5595 -0.2070
11468SOL    HW235825   3.455   3.834   5.063  1.0339  0.4427 -0.1644
11469SOL     OW35826   3.171   3.523   2.522 -0.4237 -0.1287 -0.1709
11469SOL    HW135827   3.194   3.443   2.474 -1.2089 -0.8491  0.6082
11469SOL    HW235828   3.246   3.581   2.509 -0.1936 -0.6715 -1.4346
11470SOL     OW35829   4.497   1.834   7.520 -0.6381 -0.1534  0.0544
11470SOL    HW135830   4.481   1.828   7.615 -0.9333  0.4779  0.0492
11470SOL    HW235831   4.493   1.927   7.501  1.0466 -0.1404 -0.3149
11471SOL     OW35832   4.370   7.224   0.889 -0.0056  0.3227 -0.0435
11471SOL    HW135833   4.362   7.205   0.983  0.4304  1.4836  0.2481
11471SOL    HW235834   4.288   7.268   0.867 -0.4167 -0.5957 -0.3875
11472SOL     OW35835   0.938   7.864   1.352  0.0679  0.7924 -0.4585
11472SOL    HW135836   1.000   7.796   1.376 -0.4967  0.5012  0.2052
11472SOL    HW235837   0.880   7.823   1.288 -1.5682 -0.0624  1.4516
11473SOL     OW35838   3.374   5.459   3.228 -0.5655 -0.0496  0.5154
11473SOL    HW135839   3.288   5.480   3.193 -0.1898  0.0545 -0.3745
11473SOL    HW235840   3.418   5.544   3.237  0.3601 -0.2553 -1.5085
11474SOL     OW35841   3.399   7.900   1.824  0.3690  0.2692 -0.1625
11474SOL    HW135842   3.445   7.822   1.855 -0.7778  0.2281  1.5991
11474SOL    HW235843   3.335   7.867   1.761 -0.0215 -0.2270  0.4770
11475SOL     OW35844   2.977   3.353   1.594 -0.0917 -0.1292 -0.1299
11475SOL    HW135845   2.907   3.401   1.549 -0.3073  1.9770  2.2756
11475SOL    HW235846   3.028   3.420   1.639  0.7982 -1.9940  1.8154
11476SOL     OW35847   7.830   6.540   6.002  0.3905 -0.3849  1.0325
11476SOL    HW135848   7.850   6.634   6.001 -0.6845 -0.1431  0.3411
11476SOL    HW235849   7.910   6.498   5.972  1.0960  0.2644  1.9615
11477SOL     OW35850   2.702   4.061   5.978  0.4219  0.0045  0.1546
11477SOL    HW135851   2.617   4.103   5.988  0.5638  0.5071 -0.6424
11477SOL    HW235852   2.683   3.967   5.985 -0.0544  0.1524  0.8952
11478SOL     OW35853   3.417   1.816   7.789 -0.3559  0.5191 -0.1958
11478SOL    HW135854   3.450   1.903   7.809 -0.6578  0.5358  0.2467
11478SOL    HW235855   3.394   1.779   7.874  0.7875 -0.4083 -0.2649
11479SOL     OW35856   1.749   3.972   6.461 -0.1267  0.0917 -0.6800
11479SOL    HW135857   1.793   4.056   6.445  0.0588 -0.0978 -1.1952
11479SOL    HW235858   1.715   3.979   6.550  0.3940  0.4891 -0.5072
11480SOL     OW35859   8.309   6.984   1.891  0.1430  0.0997 -0.6988
11480SOL    HW135860   8.389   7.025   1.858 -0.4286  2.3143  0.4295
11480SOL    HW235861   8.279   7.044   1.960 -1.7533 -1.3810 -0.1585
11481SOL     OW35862   0.712   4.410   5.854  0.2247 -0.5507 -0.0384
11481SOL    HW135863   0.692   4.489   5.904 -0.0082 -0.3653 -0.4176
11481SOL    HW235864   0.630   4.388   5.811  1.1833  1.2948 -3.1452
11482SOL     OW35865   0.664   2.182   6.850  0.0785 -0.0733 -0.3304
11482SOL    HW135866   0.615   2.214   6.773  2.1677 -1.0325 -2.1680
11482SOL    HW235867   0.717   2.257   6.877 -0.0784  0.0273 -0.2939
11483SOL     OW35868   0.815   0.063   6.391  0.1637 -0.4223 -0.1273
11483SOL    HW135869   0.841   0.151   6.418 -0.3374 -0.2904 -0.0500
11483SOL    HW235870   0.896   0.013   6.387  0.3062 -0.3748  1.3805
11484SOL     OW35871   4.960   2.192   6.664 -0.2065 -0.8951 -0.5809
11484SOL    HW135872   4.945   2.247   6.742  1.9669 -0.1101 -0.6439
11484SOL    HW235873   4.895   2.222   6.601 -0.1754  0.4535 -0.0181
11485SOL     OW35874   5.979   3.956   4.977  0.2836  0.6440  0.3170
11485SOL    HW135875   5.889   3.973   4.952  0.0312 -0.1031  0.6751
11485SOL    HW235876   5.973   3.889   5.045  1.2155 -1.3799 -1.4742
11486SOL     OW35877   8.328   7.209   0.256 -0.4387  0.0837  0.6074
11486SOL    HW135878   8.337   7.209   0.161 -1.1189  0.0733  0.5419
11486SOL    HW235879   8.406   7.162   0.287  0.1995  0.7845  0.1091
11487SOL     OW35880   0.545   0.542   4.569  0.4885 -0.1589  0.1876
11487SOL    HW135881   0.560   0.539   4.474 -1.3053  0.4407 -0.1518
11487SOL    HW235882   0.455   0.510   4.580  0.6631 -0.1896  1.6868
11488SOL     OW35883   0.761   6.852   3.182  0.6010  0.2484  0.4626
11488SOL    HW135884   0.734   6.767   3.218  0.2620  0.6677  1.2142
11488SOL    HW235885   0.853   6.840   3.158  0.5219 -0.3653  0.4435
11489SOL     OW35886   0.398   4.624   4.533 -0.3664  0.0586  0.1098
11489SOL    HW135887   0.455   4.546   4.530 -1.0032 -0.4132  0.0856
11489SOL    HW235888   0.372   4.637   4.442 -0.9665 -0.2315  0.2365
11490SOL     OW35889   4.972   2.544   5.056 -0.0408 -0.4447 -0.6899
11490SOL    HW135890   4.935   2.519   4.972 -4.3362  1.5998  0.2847
11490SOL    HW235891   4.993   2.637   5.046 -2.0774  0.2525  0.7619
11491SOL     OW35892   0.325   0.573   6.669  0.3174 -0.4560  0.2496
11491SOL    HW135893   0.362   0.530   6.746  1.1453 -0.4586 -0.1378
11491SOL    HW235894   0.270   0.642   6.704  2.9745  1.5070  0.8925
11492SOL     OW35895   2.516   7.205   7.859 -0.1623 -0.0378 -0.1924
11492SOL    HW135896   2.571   7.127   7.869 -0.2723  0.1011  2.1132
11492SOL    HW235897   2.556   7.253   7.787  2.0645 -0.5182  0.6286
11493SOL     OW35898   3.245   2.133   5.901 -0.2661 -0.6981 -0.2031
11493SOL    HW135899   3.216   2.114   5.812  0.4963  0.5610 -0.7511
11493SOL    HW235900   3.340   2.143   5.895 -0.4557  2.2911  0.1149
11494SOL     OW35901   4.036   0.943   8.195 -0.3375 -0.5756 -1.0164
11494SOL    HW135902   4.030   1.037   8.213 -1.7288 -0.7121 -0.6732
11494SOL    HW235903   3.966   0.904   8.247 -1.4261 -1.5032 -3.0703
11495SOL     OW35904   2.557   2.380   1.614  0.4213 -0.4470  0.3542
11495SOL    HW135905   2.513   2.384   1.529 -1.5893 -1.5900  1.2534
11495SOL    HW235906   2.603   2.296   1.614  0.2741 -0.5301  0.4268
11496SOL     OW35907   4.280   6.108   4.562 -0.2138  0.1378  0.4299
11496SOL    HW135908   4.294   6.081   4.471  0.1548 -0.8855  0.7807
11496SOL    HW235909   4.223   6.185   4.555  0.3455  0.4846 -0.6972
11497SOL     OW35910   4.136   4.705   8.223 -0.0156  0.2844  0.0733
11497SOL    HW135911   4.172   4.760   8.155  0.4569 -0.1899 -0.0658
11497SOL    HW235912   4.079   4.643   8.177 -0.5232  0.6250  0.2253
11498SOL     OW35913   0.230   6.184   1.854 -0.1036 -0.0316  0.1632
11498SOL    HW135914   0.207   6.091   1.858 -0.7492  0.0271 -1.4629
11498SOL    HW235915   0.207   6.217   1.941 -0.0967 -1.3290  0.6919
11499SOL     OW35916   7.099   4.087   7.319  0.1148  0.0401 -0.0377
11499SOL    HW135917   7.129   4.001   7.347  1.4743  0.7496  0.7802
11499SOL    HW235918   7.015   4.099   7.362  0.1136 -0.6992  0.1780
11500SOL     OW35919   3.355   3.810   0.905  0.3087 -0.8571  0.5761
11500SOL    HW135920   3.431   3.784   0.853 -0.5890 -2.6794  0.0950
11500SOL    HW235921   3.367   3.767   0.989  1.1442  1.1099  1.5365
11501SOL     OW35922   4.200   4.682   6.183  0.1417 -0.0996  0.0278
11501SOL    HW135923   4.240   4.733   6.113  1.3604 -1.8797 -0.6733
11501SOL    HW235924   4.230   4.592   6.166 -1.8345 -1.0382  1.2113
11502SOL     OW35925   3.313   6.134   2.785  0.5044 -0.3468  0.7957
11502SOL    HW135926   3.292   6.129   2.878  0.9122 -2.8437  0.8068
11502SOL    HW235927   3.266   6.060   2.746 -0.3422  1.1269 -1.1539
11503SOL     OW35928   0.433   6.938   3.911 -0.3284 -0.2149 -0.7574
11503SOL    HW135929   0.384   7.002   3.859 -2.8709  0.2636  1.9689
11503SOL    HW235930   0.454   6.984   3.992 -0.1769 -2.1511  0.3580
11504SOL     OW35931   5.086   6.570   6.321  0.6112  0.0827 -0.0511
11504SOL    HW135932   5.036   6.648   6.296  1.9943  0.3436 -2.3001
11504SOL    HW235933   5.141   6.599   6.394  0.1955  0.8516 -0.0363
11505SOL     OW35934   1.615   6.358   2.153 -0.3670 -0.0127  0.3408
11505SOL    HW135935   1.711   6.367   2.152 -0.3125 -0.5587 -0.3214
11505SOL    HW235936   1.586   6.416   2.083 -0.5915  0.7334  1.0325
11506SOL     OW35937   0.184   7.485   8.168 -0.5023 -0.0481  0.7109
11506SOL    HW135938   0.181   7.530   8.252 -0.0306 -0.4019  0.9260
11506SOL    HW235939   0.200   7.553   8.104 -0.4260  0.1684  0.9597
11507SOL     OW35940   3.256   7.562   5.035  0.0301 -0.2206  0.0469
11507SOL    HW135941   3.206   7.609   5.102  0.6017 -1.2157  1.2105
11507SOL    HW235942   3.332   7.618   5.018  0.3517 -0.3772  0.9113
11508SOL     OW35943   8.095   4.987   2.312 -0.0282 -0.3284  0.0097
11508SOL    HW135944   8.131   4.906   2.275  0.1334 -0.4152  0.3495
11508SOL    HW235945   8.143   4.999   2.393  1.4821  1.2802 -1.0694
11509SOL     OW35946   3.615   1.371   2.419 -0.6599 -0.2966  0.2004
11509SOL    HW135947   3.620   1.280   2.388  1.0537 -0.2863  0.3932
11509SOL    HW235948   3.543   1.370   2.482 -1.2532 -1.3058 -0.4518
11510SOL     OW35949   5.284   0.174   4.475  0.1288 -0.2591  0.4206
11510SOL    HW135950   5.313   0.266   4.475 -0.2043 -0.1481  1.1354
11510SOL    HW235951   5.355   0.127   4.430  0.2133  0.3720 -0.1208
11511SOL     OW35952   0.061   0.844   8.226 -0.5335 -0.1626  0.1322
11511SOL    HW135953   0.100   0.757   8.234 -0.5381 -0.1541  0.2584
11511SOL    HW235954  -0.028   0.828   8.197 -0.4469 -0.1844 -0.1240
11512SOL     OW35955   2.700   0.767   3.501 -0.1437 -0.0642  0.4807
11512SOL    HW135956   2.773   0.829   3.494  0.9764 -1.5534 -2.7554
11512SOL    HW235957   2.637   0.798   3.437 -0.4881 -1.1331  0.2983
11513SOL     OW35958   2.103   7.611   3.176 -0.1392 -0.2044 -0.3450
11513SOL    HW135959   2.175   7.590   3.235  1.9580  3.5730 -1.2738
11513SOL    HW235960   2.114   7.551   3.102  1.4381 -0.3932  0.0111
11514SOL     OW35961   3.234   0.297   4.006 -0.0483  0.1802 -0.1877
11514SOL    HW135962   3.202   0.384   3.984  0.0381 -0.3427 -2.6469
11514SOL    HW235963   3.300   0.278   3.940  1.0565 -1.1501  1.2298
11515SOL     OW35964   0.868   5.689   1.216  0.3659 -0.2474 -0.6544
11515SOL    HW135965   0.922   5.636   1.158  0.9821  0.3274 -0.6097
11515SOL    HW235966   0.880   5.650   1.302  2.0036  0.8571 -0.3554
11516SOL     OW35967   0.709   4.025   2.192  0.0492 -0.2676 -0.6010
11516SOL    HW135968   0.761   3.972   2.252 -0.3808  0.3843  0.3825
11516SOL    HW235969   0.770   4.049   2.122  0.9808  0.1867  0.3461
11517SOL     OW35970   4.060   7.897   6.693  0.3004  0.1516  0.2290
11517SOL    HW135971   3.973   7.863   6.672  0.4144 -0.6254  0.9433
11517SOL    HW235972   4.117   7.858   6.626  0.2055  0.0905  0.1827
11518SOL     OW35973   7.311   7.718   2.872  0.2952  0.2615  0.1512
11518SOL    HW135974   7.225   7.676   2.867  0.4010  0.1868 -1.9254
11518SOL    HW235975   7.301   7.799   2.822  1.1928  0.7156  0.6839
11519SOL     OW35976   4.762   6.403   3.610  0.3582 -0.2059 -0.1216
11519SOL    HW135977   4.800   6.468   3.670  1.9122 -1.5350  0.4140
11519SOL    HW235978   4.779   6.319   3.652  0.5730 -1.1223 -1.9437
11520SOL     OW35979   2.624   7.090   0.806 -0.3846  0.1006 -0.0101
11520SOL    HW135980   2.651   7.001   0.784  0.1810  1.0049 -3.7488
11520SOL    HW235981   2.529   7.084   0.817 -0.2478 -1.0641  0.7643
11521SOL     OW35982   1.619   2.783   5.890  0.4920 -0.0148  0.9000
11521SOL    HW135983   1.677   2.744   5.955  0.4566  0.2972  1.1217
11521SOL    HW235984   1.636   2.877   5.897 -1.1456  0.2326  2.0252
11522SOL     OW35985   4.903   1.978   5.134  0.0097 -0.5876  0.0078
11522SOL    HW135986   4.882   2.040   5.204  0.0935  0.3689 -0.8099
11522SOL    HW235987   4.983   1.935   5.165  0.2729  0.1107  0.3207
11523SOL     OW35988   6.861   2.153   5.908  0.0873 -0.1535  0.0197
11523SOL    HW135989   6.881   2.210   5.983  1.0735  1.0719 -1.1312
11523SOL    HW235990   6.777   2.185   5.875  0.0852 -0.1077  0.0681
11524SOL     OW35991   4.696   0.171   2.648 -0.4808 -0.1153 -0.0820
11524SOL    HW135992   4.774   0.211   2.686  0.3358 -1.6132 -0.0847
11524SOL    HW235993   4.647   0.244   2.610  0.7497  0.8984  0.2081
11525SOL     OW35994   0.211   6.075   0.683 -0.2928  0.0522 -0.3621
11525SOL    HW135995   0.210   6.118   0.598  0.7333 -0.6578 -0.7591
11525SOL    HW235996   0.295   6.028   0.685  0.2407  0.9884  1.5001
11526SOL     OW35997   2.615   4.559   6.187  0.1716 -0.1561  0.8631
11526SOL    HW135998   2.663   4.557   6.270  0.0071  1.7349  1.0628
11526SOL    HW235999   2.642   4.480   6.141  1.7129 -0.2907  1.9352
11527SOL     OW36000   0.483   4.647   3.496 -0.5571  0.1684  0.0870
11527SOL    HW136001   0.450   4.627   3.408 -1.0767 -1.3461  0.6044
11527SOL    HW236002   0.567   4.690   3.481 -1.2602  1.1775 -1.1819
11528SOL     OW36003   2.677   6.860   2.864 -0.0619 -0.0434  0.4837
11528SOL    HW136004   2.619   6.788   2.888 -1.3090  0.9379  0.5052
11528SOL    HW236005   2.665   6.925   2.933  1.6839 -0.1239  0.9177
11529SOL     OW36006   3.327   4.749   4.667 -0.5045 -0.5274 -0.3511
11529SOL    HW136007   3.252   4.693   4.646 -0.8876  0.2294 -1.0611
11529SOL    HW236008   3.293   4.839   4.659  0.1998 -0.1832  0.3751
11530SOL     OW36009   0.774   0.141   2.729  0.4078 -0.2861  0.2135
11530SOL    HW136010   0.779   0.221   2.781 -0.5099 -0.0071 -0.1055
11530SOL    HW236011   0.707   0.088   2.772  0.0281 -0.2809 -0.3510
11531SOL     OW36012   2.747   4.613   4.401 -0.2125  0.2259  0.0476
11531SOL    HW136013   2.682   4.620   4.471  0.1261 -0.7893  0.4804
11531SOL    HW236014   2.756   4.519   4.387 -0.0857  0.4182 -1.1912
11532SOL     OW36015   4.550   1.230   5.853  0.4351  0.0752 -0.0258
11532SOL    HW136016   4.626   1.261   5.902  0.7613  2.1575 -1.7194
11532SOL    HW236017   4.474   1.269   5.897  0.7597  2.4009 -1.3617
11533SOL     OW36018   3.768   4.566   6.072  0.1908 -0.3676 -0.2827
11533SOL    HW136019   3.680   4.600   6.058  0.5344  0.8762  0.4778
11533SOL    HW236020   3.786   4.582   6.165  0.4954 -2.3670  0.0657
11534SOL     OW36021   8.064   7.706   3.527  0.7263  0.7989  0.3003
11534SOL    HW136022   8.088   7.658   3.448  0.5875  1.8157 -0.3756
11534SOL    HW236023   8.145   7.712   3.577  0.5347 -1.0516  0.9296
11535SOL     OW36024   2.557   0.210   6.814  0.0352  0.5165  0.3684
11535SOL    HW136025   2.529   0.201   6.905 -0.1079  1.8258  0.4761
11535SOL    HW236026   2.564   0.305   6.801  0.2117  0.3349 -0.9342
11536SOL     OW36027   8.248   2.508   1.208 -0.2908  0.2795 -0.6035
11536SOL    HW136028   8.240   2.512   1.112 -0.9397  1.1223 -0.5305
11536SOL    HW236029   8.332   2.549   1.226  0.1712 -0.5413 -0.8513
11537SOL     OW36030   2.242   8.114   8.234  0.3698 -0.1333 -0.0316
11537SOL    HW136031   2.292   8.162   8.168  3.2618 -1.2867  1.1420
11537SOL    HW236032   2.280   8.141   8.317 -1.1239 -0.9571  0.9709
11538SOL     OW36033   7.280   5.417   0.497 -0.2451  0.0635  0.0739
11538SOL    HW136034   7.204   5.427   0.439 -1.0191  1.4175  1.2375
11538SOL    HW236035   7.335   5.493   0.478 -0.7334  0.7894  1.3657
11539SOL     OW36036   6.058   7.338   4.159  0.0172 -0.1500  0.2414
11539SOL    HW136037   6.103   7.271   4.108  1.8865  0.3542  1.1599
11539SOL    HW236038   5.985   7.292   4.200  1.0541 -1.5433  0.5799
11540SOL     OW36039   3.071   2.758   5.463 -0.3191 -0.4746 -0.8821
11540SOL    HW136040   3.165   2.741   5.457 -0.6355 -3.2906  0.4211
11540SOL    HW236041   3.030   2.679   5.427 -2.2025  0.8313 -1.7317
11541SOL     OW36042   3.813   6.646   6.759  0.0935  0.3929 -0.1843
11541SOL    HW136043   3.853   6.725   6.723 -0.5319  1.2323  0.8992
11541SOL    HW236044   3.721   6.653   6.735  0.4538 -1.3815 -2.4137
11542SOL     OW36045   6.362   0.275   3.266 -0.0350  0.2937  0.5535
11542SOL    HW136046   6.321   0.258   3.181 -0.4264 -1.0358  0.9908
11542SOL    HW236047   6.315   0.351   3.300  1.0804  1.7802 -1.0157
11543SOL     OW36048   4.794   1.045   3.691  0.4075  0.0822  0.0651
11543SOL    HW136049   4.747   1.078   3.768  1.7803 -1.8562  1.8331
11543SOL    HW236050   4.879   1.089   3.695  0.4727 -0.0054 -0.3730
11544SOL     OW36051   7.450   1.739   2.797  0.1019  0.0789  0.3654
11544SOL    HW136052   7.421   1.656   2.833 -1.1740  0.3720  0.0584
11544SOL    HW236053   7.532   1.758   2.842 -0.8682 -0.1029  2.3032
11545SOL     OW36054   0.700   8.185   2.119  0.9203 -0.0164  0.6513
11545SOL    HW136055   0.664   8.111   2.069  0.3536 -0.3468  1.5338
11545SOL    HW236056   0.713   8.150   2.207 -2.0748  1.6809  1.9064
11546SOL     OW36057   7.574   8.133   7.635  0.0701  0.2390 -0.2791
11546SOL    HW136058   7.537   8.199   7.693  0.5160  1.0273 -0.8657
11546SOL    HW236059   7.534   8.150   7.550  1.3036  0.7508 -0.7920
11547SOL     OW36060   7.019   7.812   1.445  0.2555  0.5258 -0.4452
11547SOL    HW136061   7.022   7.769   1.531 -1.4504 -0.4671 -0.8299
11547SOL    HW236062   7.066   7.894   1.458 -1.6066  1.3449  2.0349
11548SOL     OW36063   2.575   6.069   6.300 -0.0157  0.0455  0.0563
11548SOL    HW136064   2.618   6.152   6.322  0.1223  0.0388 -0.1875
11548SOL    HW236065   2.647   6.010   6.279 -0.1441  0.0232 -0.3185
11549SOL     OW36066   4.971   2.035   1.367  0.1933 -0.0497 -0.1295
11549SOL    HW136067   4.984   2.043   1.272  0.1451  0.9074 -0.0644
11549SOL    HW236068   5.052   2.068   1.405 -0.1045  0.3311  0.1764
11550SOL     OW36069   5.615   5.007   1.860 -0.2615  0.2476  0.4184
11550SOL    HW136070   5.646   4.945   1.794 -0.6118  0.1510  0.3444
11550SOL    HW236071   5.560   4.955   1.918 -0.9046  0.5731  0.1099
11551SOL     OW36072   7.969   7.636   6.941 -0.6128 -0.3824  0.2463
11551SOL    HW136073   7.913   7.567   6.907 -2.5761  0.9348  0.6400
11551SOL    HW236074   7.979   7.697   6.868  1.2037 -1.0605 -0.1364
11552SOL     OW36075   5.015   6.021   6.559  0.3417  0.0680 -0.1361
11552SOL    HW136076   4.923   6.046   6.553 -0.3526 -2.4883 -2.2351
11552SOL    HW236077   5.016   5.947   6.620  0.2399 -2.3415 -2.8241
11553SOL     OW36078   6.708   3.740   6.083  0.0829 -0.0448  0.4307
11553SOL    HW136079   6.790   3.736   6.034  0.6756  0.2522  1.3666
11553SOL    HW236080   6.734   3.735   6.175 -0.9271  0.3098  0.7585
11554SOL     OW36081   4.855   2.061   4.797  0.0541 -0.0476 -0.0604
11554SOL    HW136082   4.789   2.098   4.855  1.4287  0.8580  0.9965
11554SOL    HW236083   4.870   1.973   4.830  0.9690  0.5264  1.1572
11555SOL     OW36084   3.497   8.021   6.660 -0.2661  0.5436 -0.4505
11555SOL    HW136085   3.517   7.982   6.574  0.6976 -2.1736  0.8979
11555SOL    HW236086   3.558   8.094   6.668  2.0606 -1.2725 -0.7263
11556SOL     OW36087   5.765   5.316   8.266 -0.0120 -0.0588  0.3372
11556SOL    HW136088   5.695   5.365   8.308 -0.2090  0.0034 -0.0601
11556SOL    HW236089   5.734   5.226   8.264  1.1573 -0.5981  2.8340
11557SOL     OW36090   2.816   7.438   2.022  0.3313 -0.2177  0.2349
11557SOL    HW136091   2.825   7.532   2.034  2.7934 -0.4976  1.2824
11557SOL    HW236092   2.828   7.423   1.929 -1.3124  0.5601 -0.1350
11558SOL     OW36093   5.349   5.050   7.136 -0.1451 -0.7552  0.4921
11558SOL    HW136094   5.270   5.029   7.087  0.8228 -1.2781 -0.9030
11558SOL    HW236095   5.317   5.088   7.218 -1.8095  1.1219 -0.9368
11559SOL     OW36096   1.091   1.858   3.449  0.8465 -0.1758  0.1748
11559SOL    HW136097   0.997   1.875   3.443  0.7821 -0.7008 -0.4273
11559SOL    HW236098   1.130   1.928   3.397  0.6974 -0.7062 -0.6806
11560SOL     OW36099   2.856   2.823   2.119 -0.4950  0.0915 -1.2534
11560SOL    HW136100   2.867   2.790   2.030 -1.1972  0.3839 -1.4611
11560SOL    HW236101   2.907   2.904   2.121 -2.5056  1.4904 -2.2322
11561SOL     OW36102   7.079   0.158   7.999 -0.6252  0.7582  0.4694
11561SOL    HW136103   7.095   0.117   8.084 -0.3191  0.6051  0.3396
11561SOL    HW236104   7.164   0.194   7.973 -0.4274 -0.2151 -0.3050
11562SOL     OW36105   4.857   5.309   8.118 -0.0689  0.1053  0.3095
11562SOL    HW136106   4.786   5.355   8.072  0.2923 -0.1842 -0.5542
11562SOL    HW236107   4.812   5.238   8.165 -0.3155 -0.3212 -0.5517
11563SOL     OW36108   2.169   6.786   7.865 -0.3479  0.1913 -0.6238
11563SOL    HW136109   2.116   6.865   7.867 -0.3311  0.1961 -0.1020
11563SOL    HW236110   2.172   6.761   7.773 -1.1747  0.2376 -0.6688
11564SOL     OW36111   0.090   6.229   3.830 -0.3556 -0.0358  0.0398
11564SOL    HW136112   0.031   6.293   3.789 -1.1974 -0.9983 -0.3143
11564SOL    HW236113   0.036   6.187   3.897 -0.7045 -2.1436 -1.4228
11565SOL     OW36114   4.013   2.625   4.865  0.0271  0.5328  0.0976
11565SOL    HW136115   3.940   2.569   4.839  1.1127 -1.0334  0.2324
11565SOL    HW236116   3.973   2.698   4.912 -1.3883 -0.8205  1.0910
11566SOL     OW36117   4.505   4.530   2.924  0.6012  0.1043 -0.4426
11566SOL    HW136118   4.466   4.466   2.865  1.4444 -1.1781  0.3439
11566SOL    HW236119   4.431   4.562   2.977 -0.1236  1.1273 -1.9991
11567SOL     OW36120   7.369   2.719   3.038 -0.0373 -0.3008 -0.1085
11567SOL    HW136121   7.282   2.737   3.003  0.3096  0.6515 -0.5060
11567SOL    HW236122   7.353   2.675   3.122 -0.8873 -0.7768 -0.5196
11568SOL     OW36123   5.802   1.766   3.334 -0.1567 -0.1707  0.0033
11568SOL    HW136124   5.853   1.846   3.319  0.4466 -0.7618 -1.2107
11568SOL    HW236125   5.859   1.695   3.306 -0.4987 -1.0975  1.5323
11569SOL     OW36126   0.365   4.678   8.005  0.6007 -0.2341  0.3083
11569SOL    HW136127   0.397   4.639   7.923  3.2728 -0.6441  1.4635
11569SOL    HW236128   0.344   4.768   7.981 -1.1975 -1.0073 -1.3596
11570SOL     OW36129   2.655   7.604   1.517  0.6504  0.4432 -0.0873
11570SOL    HW136130   2.629   7.555   1.595  3.5790 -0.4059  0.5107
11570SOL    HW236131   2.697   7.683   1.552  1.2563  0.4530 -0.8096
11571SOL     OW36132   3.712   1.914   2.346 -0.4776  0.1688  0.0644
11571SOL    HW136133   3.762   1.898   2.266 -1.1198  1.7913 -0.7114
11571SOL    HW236134   3.626   1.877   2.329 -0.3239 -0.3474  0.3941
11572SOL     OW36135   5.091   8.035   0.279  0.2388  0.5199  0.3488
11572SOL    HW136136   4.998   8.034   0.301 -0.2727  0.5380 -1.6461
11572SOL    HW236137   5.114   7.943   0.268 -0.1045  0.5896 -1.1968
11573SOL     OW36138   6.712   3.027   6.505 -0.5785  0.2382 -0.5185
11573SOL    HW136139   6.752   3.013   6.590  1.6758  2.4362 -1.0982
11573SOL    HW236140   6.777   2.995   6.442 -1.0108  1.1283 -1.4587
11574SOL     OW36141   3.184   0.970   0.595 -0.7410  0.0533  0.0065
11574SOL    HW136142   3.214   0.943   0.508  1.1237  1.4302  0.1671
11574SOL    HW236143   3.210   0.897   0.653 -0.8522 -0.3132 -0.4034
11575SOL     OW36144   0.060   0.527   0.555  0.5960 -0.0825 -0.0212
11575SOL    HW136145   0.010   0.536   0.474  0.3388  0.6395  0.2103
11575SOL    HW236146   0.033   0.442   0.590  0.0054  0.0190 -0.2211
11576SOL     OW36147   4.547   0.271   0.031 -0.3564  1.1383  0.4638
11576SOL    HW136148   4.579   0.192  -0.012 -1.4666 -0.3389  2.2136
11576SOL    HW236149   4.479   0.305  -0.028  0.2661  0.9186 -0.3956
11577SOL     OW36150   3.872   5.616   6.769 -0.3406 -0.2941 -0.3991
11577SOL    HW136151   3.957   5.650   6.741  0.5901 -0.1374  2.2836
11577SOL    HW236152   3.876   5.522   6.750  0.6672 -0.3728  0.0940
11578SOL     OW36153   2.349   1.827   5.234  0.2417 -0.0638 -0.0249
11578SOL    HW136154   2.355   1.823   5.330 -0.7434  1.0938  0.1162
11578SOL    HW236155   2.340   1.736   5.207  0.2762 -0.3906  0.9977
11579SOL     OW36156   1.791   1.733   5.483  0.1311  0.2245 -0.0723
11579SOL    HW136157   1.733   1.760   5.411 -0.1525 -0.4100 -0.0905
11579SOL    HW236158   1.752   1.773   5.561 -0.3211 -0.1700 -0.0881
11580SOL     OW36159   8.293   4.185   7.879  0.3768  0.5421 -0.0488
11580SOL    HW136160   8.371   4.189   7.823  0.8100 -2.9914  0.0769
11580SOL    HW236161   8.302   4.262   7.936  4.0350  0.1085  0.2386
11581SOL     OW36162   0.764   8.046   2.987  0.0080 -0.0371 -0.3970
11581SOL    HW136163   0.792   8.057   2.896 -2.1523  0.5216 -1.0528
11581SOL    HW236164   0.778   7.953   3.005 -2.1373 -0.8468 -2.3303
11582SOL     OW36165   8.111   0.461   2.093  0.6140 -0.1382  0.2164
11582SOL    HW136166   8.137   0.370   2.105  1.2930 -0.0992 -0.8370
11582SOL    HW236167   8.087   0.491   2.180 -0.7796 -1.6682  0.4177
11583SOL     OW36168   6.776   3.710   4.118 -0.5465 -0.1386 -0.2096
11583SOL    HW136169   6.828   3.772   4.067  0.0638 -0.0952  0.4457
11583SOL    HW236170   6.825   3.627   4.113 -0.6472 -0.2146  0.0339
11584SOL     OW36171   4.649   0.549   3.340  0.4086  0.4547  0.0529
11584SOL    HW136172   4.671   0.478   3.280  2.2546  1.2236 -0.2534
11584SOL    HW236173   4.669   0.514   3.427 -1.5380 -0.3925  0.2043
11585SOL     OW36174   1.447   4.325   4.929 -0.0499 -0.4499 -0.2429
11585SOL    HW136175   1.488   4.293   5.010  1.8768  1.0302 -0.5789
11585SOL    HW236176   1.386   4.393   4.959  1.6043  1.0182 -0.0604
11586SOL     OW36177   3.280   3.036   1.834 -0.7950  0.5046 -0.1756
11586SOL    HW136178   3.214   2.972   1.808 -0.3364 -0.0496 -0.0097
11586SOL    HW236179   3.230   3.112   1.865 -1.3435  0.3083 -0.5802
11587SOL     OW36180   1.893   6.473   1.614  0.0467  0.0697  0.0973
11587SOL    HW136181   1.842   6.423   1.550 -1.4637  0.0014  1.2915
11587SOL    HW236182   1.973   6.422   1.625  0.4876  0.2322 -1.9073
11588SOL     OW36183   5.756   1.617   1.459  0.4821  0.1632  0.2385
11588SOL    HW136184   5.819   1.660   1.517  0.3417 -1.3621  1.5922
11588SOL    HW236185   5.679   1.602   1.513  0.6419 -2.0505 -0.0431
11589SOL     OW36186   0.260   0.901   0.168 -0.1241 -0.1044 -0.5134
11589SOL    HW136187   0.294   0.845   0.098  1.5394  0.4004 -0.1473
11589SOL    HW236188   0.234   0.839   0.236 -1.0396 -0.5595 -1.2486
11590SOL     OW36189   7.701   1.475   6.099 -0.0451  0.4245  0.3641
11590SOL    HW136190   7.707   1.507   6.009  1.7976 -1.9539 -0.4686
11590SOL    HW236191   7.736   1.546   6.153  3.0607  0.3013 -1.2735
11591SOL     OW36192   0.877   1.526   0.020  0.2658 -0.0060  0.6581
11591SOL    HW136193   0.955   1.575  -0.004 -0.2252  1.0620  1.1329
11591SOL    HW236194   0.893   1.497   0.110  0.5158 -0.6409  0.4116
11592SOL     OW36195   6.188   1.105   0.172  0.0194  0.0939  0.1749
11592SOL    HW136196   6.181   1.015   0.140 -1.1563 -0.4656  1.9134
11592SOL    HW236197   6.100   1.141   0.162 -0.2046  0.1374  2.0021
11593SOL     OW36198   3.370   5.091   7.183 -0.1331  0.0330  0.1571
11593SOL    HW136199   3.409   5.167   7.139  0.9161  1.2398  2.9064
11593SOL    HW236200   3.429   5.019   7.162  0.4955  0.6300 -0.1849
11594SOL     OW36201   4.269   1.461   6.259  0.1016 -0.5851 -0.1567
11594SOL    HW136202   4.290   1.546   6.296 -1.2630  0.1479 -0.9893
11594SOL    HW236203   4.276   1.400   6.333  1.6420  0.1317  0.3202
11595SOL     OW36204   4.570   1.813   2.769 -0.2813 -0.2155 -0.6038
11595SOL    HW136205   4.488   1.771   2.794  0.1578 -0.0486  1.3232
11595SOL    HW236206   4.594   1.773   2.686 -1.9979 -0.6935 -0.9096
11596SOL     OW36207   4.924   0.637   3.313  0.4709 -0.2175 -0.3243
11596SOL    HW136208   4.902   0.726   3.343 -1.0621 -0.7017  0.0540
11596SOL    HW236209   4.842   0.604   3.275  0.6964 -1.8948  0.5945
11597SOL     OW36210   2.180   1.430   2.995 -0.3552  0.1386  0.6214
11597SOL    HW136211   2.135   1.361   3.044  1.1145 -2.0187 -0.8598
11597SOL    HW236212   2.161   1.410   2.903  0.0117  1.8162  0.1550
11598SOL     OW36213   1.574   8.342   7.186  0.0915 -0.1435 -0.1476
11598SOL    HW136214   1.635   8.272   7.162 -0.3785 -0.6776  0.1852
11598SOL    HW236215   1.524   8.358   7.107  0.8079  0.4650 -0.4952
11599SOL     OW36216   6.360   3.300   3.027 -0.2010  0.2780  0.0396
11599SOL    HW136217   6.292   3.368   3.023  0.7726  1.2831 -0.0634
11599SOL    HW236218   6.418   3.319   2.953  0.7075  0.0292  0.6634
11600SOL     OW36219   8.079   4.450   7.966  0.1706  0.5047  0.1102
11600SOL    HW136220   8.130   4.501   7.904  0.3211 -1.2400 -1.2537
11600SOL    HW236221   8.037   4.516   8.022 -1.0988  2.2542 -2.6744
11601SOL     OW36222   5.356   6.450   7.376 -0.8686 -0.2793 -0.2771
11601SOL    HW136223   5.390   6.438   7.465  2.1699 -0.5751 -1.3350
11601SOL    HW236224   5.322   6.365   7.352 -0.9325 -0.4281  0.3100
11602SOL     OW36225   0.153   0.496   1.948 -0.0523  0.5896  0.3628
11602SOL    HW136226   0.061   0.521   1.940  0.1180  1.1375  0.0877
11602SOL    HW236227   0.199   0.556   1.890  0.2167 -1.3252 -1.5489
11603SOL     OW36228   4.590   4.858   6.467 -0.5084 -0.0970 -0.0867
11603SOL    HW136229   4.609   4.857   6.561 -0.7433  1.2733  0.0001
11603SOL    HW236230   4.676   4.869   6.426 -0.4748 -0.0192  0.0026
11604SOL     OW36231   2.962   0.895   0.305  0.0784 -0.2395 -0.1119
11604SOL    HW136232   2.983   0.865   0.216 -0.6121  1.3699 -0.8611
11604SOL    HW236233   3.002   0.982   0.311  0.5169 -0.5139  1.3429
11605SOL     OW36234   4.346   6.948   0.576  0.3894  0.2720  0.1871
11605SOL    HW136235   4.294   6.911   0.647 -0.0343  1.1929  0.3677
11605SOL    HW236236   4.324   6.894   0.500 -0.9386  0.7243  0.2253
11606SOL     OW36237   2.929   1.883   7.105  0.3360 -0.0302 -0.1444
11606SOL    HW136238   2.856   1.907   7.048 -0.9150 -1.2380  0.8977
11606SOL    HW236239   3.004   1.933   7.070 -0.7262  0.4361 -1.8689
11607SOL     OW36240   4.841   3.527   7.308 -0.5300  0.2895  0.4745
11607SOL    HW136241   4.817   3.619   7.321  1.8203  0.9101  0.8360
11607SOL    HW236242   4.777   3.478   7.360 -0.9453  1.7987  1.4531
11608SOL     OW36243   1.256   7.189   3.070  0.6308 -0.7621 -0.0841
11608SOL    HW136244   1.224   7.177   3.159 -0.4355  0.0414 -0.3375
11608SOL    HW236245   1.274   7.283   3.063 -1.3330 -0.4208 -1.3298
11609SOL     OW36246   7.197   2.186   0.798 -0.3613 -0.0294 -0.4054
11609SOL    HW136247   7.243   2.104   0.777  1.0883  0.8977 -0.9884
11609SOL    HW236248   7.132   2.161   0.864 -0.5055 -1.7958 -1.1736
11610SOL     OW36249   5.809   0.268   3.276  0.6955 -0.7364 -0.4100
11610SOL    HW136250   5.831   0.353   3.237  2.8470 -1.0336  0.0731
11610SOL    HW236251   5.742   0.232   3.217  1.1066  0.4663 -1.6759
11611SOL     OW36252   5.379   3.783   1.863  0.1299  0.2247  0.0560
11611SOL    HW136253   5.422   3.850   1.810 -1.8024  2.2862  0.9755
11611SOL    HW236254   5.287   3.787   1.838 -0.3503 -0.7837  1.4925
11612SOL     OW36255   7.094   3.866   1.604  0.6561  0.0201 -0.6755
11612SOL    HW136256   7.051   3.889   1.521 -0.8502 -2.2678 -0.6088
11612SOL    HW236257   7.175   3.821   1.577  0.3558 -0.3861 -0.9157
11613SOL     OW36258   6.525   0.391   1.761  0.2150 -0.0426 -0.1956
11613SOL    HW136259   6.474   0.317   1.794 -1.1176  0.6124 -0.7297
11613SOL    HW236260   6.464   0.465   1.762  1.6236  1.1651  0.7053
11614SOL     OW36261   1.034   2.471   0.972  0.0386 -0.0881 -0.2965
11614SOL    HW136262   0.974   2.435   0.906  0.6921  0.0067 -0.9474
11614SOL    HW236263   1.089   2.397   0.998  0.3367  0.0715 -0.4717
11615SOL     OW36264   6.712   0.420   4.387  0.1802  0.2299 -0.1242
11615SOL    HW136265   6.731   0.485   4.455 -0.1754  0.3231 -0.1126
11615SOL    HW236266   6.669   0.348   4.434  1.0783 -0.2723 -0.0401
11616SOL     OW36267   6.146   3.505   4.913  0.8150 -0.1011 -0.8359
11616SOL    HW136268   6.056   3.474   4.923  0.0923  1.9595 -0.6539
11616SOL    HW236269   6.185   3.495   5.000 -0.0555  1.4057 -0.2446
11617SOL     OW36270   8.111   3.783   3.882 -0.6411 -0.0760  0.1265
11617SOL    HW136271   8.071   3.870   3.879 -1.7635 -0.5926 -0.3594
11617SOL    HW236272   8.057   3.730   3.824 -0.2603 -1.2225  0.7920
11618SOL     OW36273   3.031   1.082   5.876  0.0668  0.0611  0.3896
11618SOL    HW136274   2.982   1.025   5.816 -3.2350  0.1947  2.6674
11618SOL    HW236275   3.062   1.154   5.821 -0.1952 -1.3156 -1.6519
11619SOL     OW36276   3.733   7.298   4.088 -0.2131 -0.2186 -0.0933
11619SOL    HW136277   3.758   7.352   4.163 -1.5295  1.7785 -1.0153
11619SOL    HW236278   3.786   7.219   4.097  1.0573  0.7747  1.8780
11620SOL     OW36279   0.428   1.581   2.575 -0.1085  0.3763  0.2813
11620SOL    HW136280   0.408   1.657   2.629 -1.7955  0.1856 -0.0234
11620SOL    HW236281   0.427   1.613   2.485 -0.3721  0.0917  0.1787
11621SOL     OW36282   7.805   6.109   5.218  0.1444  0.3091  0.2819
11621SOL    HW136283   7.788   6.031   5.272 -1.9345 -0.2252 -1.0191
11621SOL    HW236284   7.860   6.077   5.147 -0.7286 -0.0082 -0.2654
11622SOL     OW36285   5.147   0.051   2.231 -0.1190 -0.9145  0.0202
11622SOL    HW136286   5.198   0.129   2.250 -2.9512  1.2033 -0.3258
11622SOL    HW236287   5.155   0.039   2.136  0.6678 -1.3199  0.1350
11623SOL     OW36288   0.087   5.774   0.381 -0.1932 -0.3751  0.0015
11623SOL    HW136289   0.172   5.810   0.405 -0.5055  0.9047 -0.6968
11623SOL    HW236290   0.048   5.745   0.464  0.8226 -0.7828  0.3452
11624SOL     OW36291   8.267   3.166   3.408  0.3634 -0.3373  0.6725
11624SOL    HW136292   8.208   3.189   3.480 -1.7043 -0.1147 -1.0136
11624SOL    HW236293   8.221   3.096   3.360  1.3862 -0.0466 -0.8021
11625SOL     OW36294   1.775   3.499   7.855  0.7599 -0.0408 -0.7383
11625SOL    HW136295   1.718   3.496   7.778 -0.9786  0.8318  0.4416
11625SOL    HW236296   1.822   3.581   7.848 -0.3356  0.6469 -0.2732
11626SOL     OW36297   3.331   0.807   6.498 -0.1582 -0.4772 -0.2851
11626SOL    HW136298   3.325   0.721   6.540  0.4988 -0.3901 -0.0072
11626SOL    HW236299   3.399   0.854   6.547 -0.0992 -0.0102 -0.7993
11627SOL     OW36300   5.040   2.296   2.595 -0.2043 -0.0719  0.6376
11627SOL    HW136301   5.051   2.284   2.501  0.5309 -0.3797  0.7545
11627SOL    HW236302   4.974   2.232   2.621 -0.4693  0.0730  0.3177
11628SOL     OW36303   4.047   5.984   1.176 -0.3361  0.2404  0.0519
11628SOL    HW136304   3.967   5.944   1.210 -0.6007  0.9505  0.2727
11628SOL    HW236305   4.102   5.996   1.253  0.2613 -0.8356 -0.1806
11629SOL     OW36306   6.983   0.022   0.224  0.4916 -0.0152  0.0450
11629SOL    HW136307   6.976   0.013   0.319 -0.1655 -0.8289 -0.0797
11629SOL    HW236308   6.995  -0.067   0.192 -0.2992  0.1413 -0.7160
11630SOL     OW36309   2.486   1.306   2.068  0.1749  0.4023  0.3826
11630SOL    HW136310   2.515   1.384   2.021  0.1065  0.6216  0.7033
11630SOL    HW236311   2.443   1.340   2.146 -1.2446  0.1125 -0.2385
11631SOL     OW36312   3.860   7.336   7.737  0.1285  0.4145  0.1335
11631SOL    HW136313   3.856   7.340   7.641  1.1418 -0.3110  0.0454
11631SOL    HW236314   3.769   7.329   7.765 -0.1460  0.1471 -0.7977
11632SOL     OW36315   4.263   0.084   8.335 -0.0989  0.5115 -0.3285
11632SOL    HW136316   4.238   0.007   8.285  0.1497 -0.4039  0.9044
11632SOL    HW236317   4.303   0.142   8.270  0.1342 -0.5837 -1.2042
11633SOL     OW36318   6.663   1.555   1.746  0.6525  0.3087  1.1419
11633SOL    HW136319   6.707   1.472   1.728  0.1540  0.5412 -1.4647
11633SOL    HW236320   6.573   1.531   1.766  0.7879  0.1707  1.6145
11634SOL     OW36321   5.477   0.641   4.871  0.4581 -0.0987  0.4427
11634SOL    HW136322   5.546   0.680   4.925  1.9755  2.5595 -3.0251
11634SOL    HW236323   5.519   0.566   4.830  0.6512  0.3245 -0.1396
11635SOL     OW36324   2.827   4.730   0.442  0.6352 -0.4038  0.0735
11635SOL    HW136325   2.856   4.664   0.379 -1.2612 -0.2014 -1.1037
11635SOL    HW236326   2.747   4.693   0.481  0.1046  0.7480  0.1247
11636SOL     OW36327   3.036   7.414   4.953  0.3131  0.1414  0.3650
11636SOL    HW136328   3.106   7.476   4.971  0.3599 -0.1089  1.0693
11636SOL    HW236329   3.049   7.344   5.017  0.2719 -0.6083 -0.4315
11637SOL     OW36330   4.635   3.498   2.884  0.0963  0.2782  0.1749
11637SOL    HW136331   4.624   3.506   2.978  1.0283 -1.5505  0.4758
11637SOL    HW236332   4.724   3.530   2.867  0.4744 -0.7303  0.1514
11638SOL     OW36333   2.154   3.545   5.352  0.0676 -0.0278  0.3143
11638SOL    HW136334   2.126   3.512   5.437 -0.5989 -0.6063 -0.1234
11638SOL    HW236335   2.240   3.506   5.338  0.0277 -0.2078  0.5586
11639SOL     OW36336   2.966   2.691   1.314 -0.4618 -0.2458 -0.1760
11639SOL    HW136337   2.900   2.631   1.350 -1.6008 -0.0175 -1.7824
11639SOL    HW236338   2.939   2.777   1.345  0.6682 -0.4116  1.3927
11640SOL     OW36339   6.508   5.262   1.212  0.1634 -0.0731 -0.1322
11640SOL    HW136340   6.553   5.311   1.281  1.8776 -0.9664 -0.5677
11640SOL    HW236341   6.513   5.320   1.135  0.3424 -0.0760 -0.1214
11641SOL     OW36342   1.801   3.757   0.077 -0.2910  0.3941  0.1431
11641SOL    HW136343   1.818   3.767   0.171 -1.1541 -1.7672  0.5855
11641SOL    HW236344   1.877   3.709   0.043 -0.7803 -0.3902  0.1211
11642SOL     OW36345   1.923   4.053   1.939 -0.2539 -0.1749  0.2525
11642SOL    HW136346   1.927   4.000   2.019 -0.8635  0.3543  0.6449
11642SOL    HW236347   1.855   4.011   1.886 -1.9224  1.1143  1.2660
11643SOL     OW36348   3.186   3.727   7.026 -0.3685 -0.2820  0.5146
11643SOL    HW136349   3.135   3.646   7.016 -0.4645 -0.0862 -0.6630
11643SOL    HW236350   3.238   3.712   7.105 -0.7934 -1.2739  0.6240
11644SOL     OW36351   4.549   6.127   7.389  0.0671 -0.0635  0.2891
11644SOL    HW136352   4.490   6.063   7.429  0.8147 -1.1106 -0.2352
11644SOL    HW236353   4.616   6.074   7.346 -0.2503  1.0178 -1.6504
11645SOL     OW36354   3.637   0.147   8.064 -0.1294  0.3290 -0.0553
11645SOL    HW136355   3.561   0.090   8.079 -0.8470  0.7023 -1.9765
11645SOL    HW236356   3.713   0.091   8.078 -0.7552 -0.2403  1.1981
11646SOL     OW36357   7.164   2.421   7.280  0.5629 -0.6174  0.2404
11646SOL    HW136358   7.088   2.451   7.230 -0.1391 -3.1252 -0.3609
11646SOL    HW236359   7.215   2.500   7.296 -3.0272  1.5721  2.3354
11647SOL     OW36360   4.981   3.644   6.135 -0.2385 -0.0860 -0.4600
11647SOL    HW136361   5.013   3.653   6.045 -1.2352 -0.5916 -0.8774
11647SOL    HW236362   4.908   3.582   6.128  0.6475 -1.3602  0.9234
11648SOL     OW36363   4.396   5.739   8.311 -0.1523  0.1597  0.1827
11648SOL    HW136364   4.351   5.809   8.264  0.6699 -0.0553 -0.9759
11648SOL    HW236365   4.447   5.784   8.378 -1.0176  0.5100  0.6194
11649SOL     OW36366   2.433   0.436   3.240 -0.4980 -0.4138 -0.0121
11649SOL    HW136367   2.365   0.503   3.230 -1.6041 -1.4334  0.4543
11649SOL    HW236368   2.477   0.459   3.322 -0.9398 -0.3065  0.2029
11650SOL     OW36369   4.378   5.168   7.960  0.1769 -0.1844  0.3544
11650SOL    HW136370   4.456   5.115   7.945  2.7352  2.9551  1.3940
11650SOL    HW236371   4.359   5.208   7.875 -0.4196 -1.0212  0.0795
11651SOL     OW36372   6.856   6.746   5.405  0.3129 -0.1198 -0.2512
11651SOL    HW136373   6.841   6.738   5.311  1.3362  1.7091 -0.6173
11651SOL    HW236374   6.942   6.705   5.419  1.1685  1.4820 -0.5301
11652SOL     OW36375   0.906   0.183   3.494 -0.2499  0.1006 -0.3839
11652SOL    HW136376   0.929   0.242   3.422  0.4936 -1.7730 -1.7875
11652SOL    HW236377   0.899   0.097   3.452 -0.1066 -1.0050  1.7492
11653SOL     OW36378   5.803   2.360   3.290  0.2260 -0.1259  0.6979
11653SOL    HW136379   5.858   2.406   3.228  0.8521 -0.1915  1.1944
11653SOL    HW236380   5.802   2.270   3.259 -2.0425  0.4028 -1.0143
11654SOL     OW36381   5.554   6.195   7.076 -0.5582 -0.0055  0.4056
11654SOL    HW136382   5.622   6.258   7.101  0.0078 -0.4396  0.0083
11654SOL    HW236383   5.552   6.200   6.980 -0.9050 -0.1834  0.4040
11655SOL     OW36384   3.876   2.356   5.690 -0.1710  0.0383  0.3738
11655SOL    HW136385   3.831   2.285   5.736 -0.8966 -0.2185 -0.6791
11655SOL    HW236386   3.840   2.436   5.729  0.0548 -0.1674  1.0126
11656SOL     OW36387   2.072   1.062   7.658 -0.0853 -0.6238  0.0323
11656SOL    HW136388   2.038   1.025   7.740  1.7002  0.6701  1.4471
11656SOL    HW236389   2.031   1.149   7.653 -0.0504 -0.6293 -0.3616
11657SOL     OW36390   4.042   4.588   3.054  0.0132 -0.1242  1.0286
11657SOL    HW136391   3.996   4.664   3.020  1.9368  0.8541  0.5134
11657SOL    HW236392   3.988   4.559   3.128 -1.9575  0.2988 -0.1739
11658SOL     OW36393   1.573   6.633   6.828  0.0124  0.2894  0.1282
11658SOL    HW136394   1.548   6.586   6.907  2.7653  1.0475  1.5658
11658SOL    HW236395   1.497   6.688   6.807 -1.8545 -2.0011  0.5066
11659SOL     OW36396   7.826   5.749   8.265  0.2136 -0.1386 -0.2469
11659SOL    HW136397   7.830   5.826   8.321  0.6090  0.3469 -0.9274
11659SOL    HW236398   7.879   5.683   8.311 -1.0964 -0.4187  0.9205
11660SOL     OW36399   5.006   3.212   3.360 -0.2526  0.1148  0.5593
11660SOL    HW136400   5.001   3.147   3.290  0.9188  1.0351 -0.4174
11660SOL    HW236401   5.084   3.188   3.410 -0.4743  0.1049  0.9099
11661SOL     OW36402   6.126   6.438   6.411  0.1604 -0.0546 -0.2814
11661SOL    HW136403   6.207   6.480   6.383 -0.5976  0.4007 -1.9226
11661SOL    HW236404   6.127   6.353   6.367 -0.7425  0.3928 -1.1960
11662SOL     OW36405   7.122   4.895   0.248  0.6763  0.0017 -0.1923
11662SOL    HW136406   7.162   4.972   0.288 -0.2861  1.0230 -1.1160
11662SOL    HW236407   7.161   4.891   0.161 -0.1131  0.1257 -0.5578
11663SOL     OW36408   5.311   0.532   0.983  0.7159 -0.5453 -0.4830
11663SOL    HW136409   5.256   0.574   0.918 -0.4041  0.8811  1.2829
11663SOL    HW236410   5.398   0.528   0.943  0.4593  1.8777 -1.4196
11664SOL     OW36411   6.892   1.199   2.157 -0.2546  0.2112  0.9252
11664SOL    HW136412   6.819   1.206   2.218 -1.1003  0.3549 -0.0898
11664SOL    HW236413   6.862   1.139   2.090  0.3849  0.6275  0.2523
11665SOL     OW36414   3.372   3.824   2.946  0.2999 -0.4282  0.1930
11665SOL    HW136415   3.356   3.729   2.939 -0.3483 -0.5267  2.2420
11665SOL    HW236416   3.287   3.864   2.926  0.8573 -0.1823 -1.8189
11666SOL     OW36417   1.260   0.191   3.512  0.2258  0.0250 -0.0233
11666SOL    HW136418   1.212   0.204   3.431 -0.9032 -2.5673  0.1533
11666SOL    HW236419   1.352   0.190   3.486 -0.0226  0.9466 -0.9843
11667SOL     OW36420   8.287   1.871   3.301  0.0963 -0.0034 -0.1946
11667SOL    HW136421   8.269   1.777   3.292  1.1277 -0.0420 -2.7510
11667SOL    HW236422   8.201   1.912   3.293 -0.4742 -0.7165  1.7615
11668SOL     OW36423   7.632   4.649   1.098 -0.1659 -0.6532  0.6722
11668SOL    HW136424   7.660   4.707   1.169  0.8502 -0.7456  0.3648
11668SOL    HW236425   7.538   4.637   1.112 -0.3971  1.0329  0.7675
11669SOL     OW36426   1.671   0.875   6.600  0.1509 -0.0685 -0.3451
11669SOL    HW136427   1.640   0.958   6.564 -0.8187 -0.5578 -0.6620
11669SOL    HW236428   1.621   0.808   6.553 -0.6197 -0.7700  1.3868
11670SOL     OW36429   4.691   1.398   1.953 -0.0952  0.6386 -0.1610
11670SOL    HW136430   4.641   1.370   1.877  0.2338  0.3993 -0.2909
11670SOL    HW236431   4.628   1.447   2.006  0.0066  1.9567 -1.2115
11671SOL     OW36432   2.344   6.511   0.660  0.2949  0.3705 -0.5180
11671SOL    HW136433   2.267   6.544   0.614  1.0197  2.2660 -0.4586
11671SOL    HW236434   2.417   6.559   0.621  1.5548 -1.7671 -0.9573
11672SOL     OW36435   1.756   6.121   3.871 -0.1035 -0.7024  0.0196
11672SOL    HW136436   1.755   6.078   3.956  1.5456  0.5580  0.7297
11672SOL    HW236437   1.818   6.070   3.819  1.5319  0.5009  0.7267
11673SOL     OW36438   3.043   2.229   5.028  0.0232  0.1489  0.7958
11673SOL    HW136439   3.120   2.268   5.070  0.7105 -1.1645  0.8031
11673SOL    HW236440   3.062   2.135   5.026 -0.1837  0.0783 -2.0098
11674SOL     OW36441   6.366   3.636   4.507 -0.3284 -0.6545 -0.4084
11674SOL    HW136442   6.408   3.652   4.422  0.8142 -2.4627 -0.2584
11674SOL    HW236443   6.399   3.706   4.563 -1.1093  0.5779 -1.4323
11675SOL     OW36444   1.220   0.958   2.393 -0.0524  0.5793  0.1727
11675SOL    HW136445   1.205   0.967   2.487  1.2240 -1.1865  0.6034
11675SOL    HW236446   1.306   0.996   2.378  0.5016 -0.6589  0.0612
11676SOL     OW36447   0.286   4.402   5.420 -0.4970 -0.4529  0.1248
11676SOL    HW136448   0.223   4.337   5.448 -1.0839  0.1734  0.2930
11676SOL    HW236449   0.241   4.486   5.431 -0.4505 -0.1173 -1.8683
11677SOL     OW36450   4.611   0.214   7.016  1.1096 -0.2533 -0.3572
11677SOL    HW136451   4.675   0.243   7.081  2.3084 -0.8293 -1.2685
11677SOL    HW236452   4.617   0.119   7.017 -0.4073 -0.3861  0.1864
11678SOL     OW36453   0.024   6.360   4.210 -0.1966  0.2118 -0.0112
11678SOL    HW136454   0.107   6.341   4.255  0.0317 -1.7040 -1.1032
11678SOL    HW236455  -0.043   6.343   4.275  0.1993 -0.7986  0.1587
11679SOL     OW36456   5.597   2.073   2.864  0.2501 -0.3047 -0.4228
11679SOL    HW136457   5.583   2.026   2.782  0.9513  1.0444 -1.3548
11679SOL    HW236458   5.691   2.086   2.869  0.2318 -0.5298  0.7005
11680SOL     OW36459   6.069   7.817   4.190  0.1327  0.2695 -0.2499
11680SOL    HW136460   5.992   7.849   4.237  0.0921  0.0652 -0.1768
11680SOL    HW236461   6.080   7.727   4.221  0.3731  0.2837 -0.2948
11681SOL     OW36462   0.088   5.637   1.050  0.1102 -0.5185 -0.2441
11681SOL    HW136463  -0.004   5.650   1.069  0.2015  0.2873 -0.3308
11681SOL    HW236464   0.091   5.555   0.999 -0.7659  0.4133 -1.8844
11682SOL     OW36465   4.475   7.442   6.802  0.0408  0.1859  0.2877
11682SOL    HW136466   4.554   7.446   6.856  0.7093 -3.1300 -0.2306
11682SOL    HW236467   4.476   7.524   6.753  3.3863  0.1531  0.0587
11683SOL     OW36468   7.674   2.101   1.212 -0.1725 -0.5868 -0.1397
11683SOL    HW136469   7.591   2.129   1.174 -0.3925  2.0173  1.9610
11683SOL    HW236470   7.715   2.182   1.242  1.8098 -2.0778  1.4637
11684SOL     OW36471   0.634   0.395   7.557  0.1908  0.1891  0.5484
11684SOL    HW136472   0.686   0.366   7.632  3.0621 -4.3199 -2.6657
11684SOL    HW236473   0.545   0.364   7.576  0.4799  0.4744  2.5995
11685SOL     OW36474   1.807   5.752   5.398  0.7802 -0.2455  0.2742
11685SOL    HW136475   1.899   5.762   5.374  1.1179 -3.6025 -0.1914
11685SOL    HW236476   1.766   5.713   5.321 -1.4292  2.3524 -0.0269
11686SOL     OW36477   4.349   3.923   6.684  0.4505  0.3750 -0.1006
11686SOL    HW136478   4.301   3.840   6.683 -0.5023  0.8552  1.4481
11686SOL    HW236479   4.434   3.900   6.722  0.1462  0.1196  0.4383
11687SOL     OW36480   8.314   0.018   4.655  0.5568 -0.1263  0.2390
11687SOL    HW136481   8.301   0.113   4.655 -0.2076 -0.2293  0.6639
11687SOL    HW236482   8.227  -0.018   4.646  0.7683 -0.8053  0.8506
11688SOL     OW36483   0.693   3.773   6.085 -0.3278 -0.1576  0.3833
11688SOL    HW136484   0.652   3.694   6.051  2.0317 -0.7371 -1.4018
11688SOL    HW236485   0.728   3.817   6.007  1.5434  0.7656  1.6721
11689SOL     OW36486   5.912   7.591   7.806 -0.2329  0.0550 -0.5091
11689SOL    HW136487   5.879   7.648   7.876  1.4106  0.2981  0.1112
11689SOL    HW236488   5.994   7.632   7.779  0.8610 -1.8533 -0.2233
11690SOL     OW36489   2.101   4.027   0.827  0.1523  0.0624 -0.2232
11690SOL    HW136490   2.180   4.056   0.872 -0.4699 -1.2037  1.8464
11690SOL    HW236491   2.107   3.931   0.828 -0.9219 -0.0357 -0.9904
11691SOL     OW36492   5.990   5.060   5.555  0.5164  0.0701  0.2867
11691SOL    HW136493   5.960   5.148   5.529 -4.5795 -1.5629 -0.4418
11691SOL    HW236494   5.955   5.048   5.643  2.8015 -0.6340  1.1513
11692SOL     OW36495   3.778   1.291   6.829 -0.1958 -0.1439  0.1973
11692SOL    HW136496   3.788   1.265   6.921 -0.9358 -0.0480  0.3075
11692SOL    HW236497   3.690   1.263   6.805  0.6467 -1.9180 -1.0782
11693SOL     OW36498   3.514   7.189   3.958  0.3802  0.3835  0.6035
11693SOL    HW136499   3.464   7.248   4.015 -0.1396 -0.7131  1.3049
11693SOL    HW236500   3.594   7.171   4.007 -0.3435 -1.0602  1.3033
11694SOL     OW36501   3.675   1.576   6.574  0.3139 -0.1101 -0.1318
11694SOL    HW136502   3.759   1.532   6.584 -0.3165 -1.1669  0.7933
11694SOL    HW236503   3.654   1.609   6.661  0.5424  1.6515 -0.7084
11695SOL     OW36504   7.317   1.531   5.819 -0.5307 -0.3311 -0.0137
11695SOL    HW136505   7.393   1.547   5.762  0.5376 -0.4896  1.3060
11695SOL    HW236506   7.348   1.465   5.882 -0.9405  1.3054  2.0336
11696SOL     OW36507   6.417   2.254   3.334 -0.0207 -0.7542  0.0526
11696SOL    HW136508   6.326   2.271   3.356 -0.5370 -0.4746 -2.1469
11696SOL    HW236509   6.440   2.177   3.387 -1.2060 -0.2854  1.3193
11697SOL     OW36510   8.060   1.886   3.719  0.2387 -0.5377  0.2470
11697SOL    HW136511   8.012   1.826   3.775 -1.5983 -1.0882 -1.7675
11697SOL    HW236512   8.105   1.829   3.656  0.0711  0.1254 -0.4909
11698SOL     OW36513   1.107   5.825   7.370 -0.0646 -0.1978 -0.3169
11698SOL    HW136514   1.069   5.894   7.316 -0.2162 -0.1416 -0.1352
11698SOL    HW236515   1.141   5.761   7.306 -1.5427 -0.8538 -0.4831
11699SOL     OW36516   4.235   7.322   7.074 -0.1308  0.0968  0.1803
11699SOL    HW136517   4.291   7.373   7.016  1.2272  0.3296  1.6425
11699SOL    HW236518   4.253   7.355   7.162 -2.0218 -0.3458  0.7919
11700SOL     OW36519   4.878   7.654   5.771 -0.2047  0.4603  0.4349
11700SOL    HW136520   4.839   7.569   5.789 -0.2222  0.7277  1.8426
11700SOL    HW236521   4.804   7.713   5.761 -0.2018  0.2271 -1.0889
11701SOL     OW36522   6.179   0.391   5.729 -0.0079  0.4054 -0.0656
11701SOL    HW136523   6.180   0.485   5.744 -0.8911  0.5414 -0.7540
11701SOL    HW236524   6.134   0.355   5.805 -1.3421  0.7377 -0.6752
11702SOL     OW36525   5.778   0.525   6.063  0.1250  0.1753  0.5528
11702SOL    HW136526   5.686   0.499   6.056  0.0099  0.3156  1.3998
11702SOL    HW236527   5.799   0.512   6.155  1.0180 -0.0443  0.3247
11703SOL     OW36528   3.563   5.515   2.647 -0.2905  0.5703  0.3416
11703SOL    HW136529   3.640   5.461   2.665  0.7439  2.0180  0.4285
11703SOL    HW236530   3.594   5.583   2.588 -1.6778  0.7945 -0.1637
11704SOL     OW36531   2.986   2.582   0.622  0.7251  0.4064 -0.0254
11704SOL    HW136532   2.905   2.587   0.672  1.0982 -3.5150  1.3459
11704SOL    HW236533   2.959   2.551   0.535  0.6589  0.2435  0.0531
11705SOL     OW36534   5.745   3.589   2.947  0.0697 -0.1117 -0.1275
11705SOL    HW136535   5.827   3.551   2.978 -0.7200 -3.3385 -1.5411
11705SOL    HW236536   5.746   3.575   2.852 -0.6916  2.9190 -0.7065
11706SOL     OW36537   1.845   7.682   3.106  0.0579  0.1479  0.3469
11706SOL    HW136538   1.924   7.638   3.139  2.2409  2.1289 -1.8433
11706SOL    HW236539   1.847   7.769   3.147 -0.1309  0.7369 -0.8469
11707SOL     OW36540   3.541   2.025   3.164  0.3548  0.2539 -0.0128
11707SOL    HW136541   3.615   2.015   3.223 -0.0436 -0.3903  0.3843
11707SOL    HW236542   3.513   1.936   3.144  1.2212  0.3798 -2.1478
11708SOL     OW36543   7.078   4.891   7.361  0.1008 -0.0002  0.1814
11708SOL    HW136544   7.036   4.856   7.283  1.8949 -1.9042 -0.0180
11708SOL    HW236545   7.043   4.980   7.370 -3.3923 -1.1667 -0.2909
11709SOL     OW36546   4.676   2.888   1.641  0.4002  0.5175 -0.0057
11709SOL    HW136547   4.723   2.965   1.609  0.1636  1.6914  2.3142
11709SOL    HW236548   4.743   2.819   1.643  1.4552  1.5329  1.0022
11710SOL     OW36549   7.102   4.628   4.011  0.1044 -0.2241 -0.4746
11710SOL    HW136550   7.072   4.661   3.926 -1.4728 -1.1966 -0.3216
11710SOL    HW236551   7.123   4.536   3.994  1.9122  0.1094 -0.2806
11711SOL     OW36552   4.875   0.760   2.780  0.1526 -0.5718 -0.4978
11711SOL    HW136553   4.819   0.684   2.766  0.1594 -0.4946 -0.9551
11711SOL    HW236554   4.906   0.751   2.871 -0.2319 -0.8544 -0.3938
11712SOL     OW36555   1.364   7.130   4.933 -0.5377  0.4121  0.0398
11712SOL    HW136556   1.282   7.176   4.953 -0.7372 -0.3996  1.2575
11712SOL    HW236557   1.338   7.060   4.874 -0.3265  1.4905 -1.3670
11713SOL     OW36558   0.372   6.015   7.514  0.4510 -0.2261 -0.5149
11713SOL    HW136559   0.412   6.058   7.439 -0.0090  1.5292  0.1921
11713SOL    HW236560   0.281   6.045   7.513  0.3878 -0.3429  0.6261
11714SOL     OW36561   3.507   4.528   4.140  0.1601  0.6979  0.1648
11714SOL    HW136562   3.595   4.498   4.120 -0.3445 -0.2223 -0.7581
11714SOL    HW236563   3.489   4.494   4.227  1.0183  1.6198  0.7255
11715SOL     OW36564   4.231   2.978   6.570  0.1650 -0.2805 -0.1206
11715SOL    HW136565   4.200   2.888   6.571  2.3102 -1.0779  1.9351
11715SOL    HW236566   4.320   2.974   6.535  0.1951  1.0778 -0.2796
11716SOL     OW36567   1.499   5.411   8.038  0.3819  0.5811  0.6808
11716SOL    HW136568   1.496   5.325   8.080 -0.0277  0.1708 -0.1624
11716SOL    HW236569   1.451   5.468   8.098 -0.2200 -0.0027  0.7702
11717SOL     OW36570   7.960   4.475   1.660 -0.1726  0.0299 -0.7967
11717SOL    HW136571   7.991   4.554   1.704  1.0928 -0.2578 -1.1365
11717SOL    HW236572   7.866   4.489   1.649  0.3662  2.6385 -3.1719
11718SOL     OW36573   5.256   7.760   5.918 -0.3670 -0.0758  0.0445
11718SOL    HW136574   5.255   7.665   5.912  2.2190 -0.1755 -0.1967
11718SOL    HW236575   5.187   7.782   5.980 -0.4292 -2.1882  0.7889
11719SOL     OW36576   8.084   7.030   6.432 -0.4952  0.2327  0.1820
11719SOL    HW136577   8.090   6.935   6.437 -2.4457  0.0766  0.6211
11719SOL    HW236578   8.148   7.055   6.365 -0.6217 -1.4894 -0.6367
11720SOL     OW36579   3.727   1.733   0.472 -0.1837 -0.7989  0.1218
11720SOL    HW136580   3.799   1.677   0.499 -1.4933 -2.5120  0.1964
11720SOL    HW236581   3.751   1.761   0.383  1.3616  0.1269  0.7774
11721SOL     OW36582   7.178   4.457   2.555 -1.0590  0.7928  0.3068
11721SOL    HW136583   7.231   4.537   2.555 -1.5434  1.1146  0.3020
11721SOL    HW236584   7.088   4.487   2.564 -1.1542  0.1827  1.6776
11722SOL     OW36585   4.632   4.265   3.305  0.4666  1.4005 -0.4401
11722SOL    HW136586   4.641   4.231   3.394  0.8010 -1.4669 -1.4565
11722SOL    HW236587   4.542   4.297   3.300 -0.5832 -1.1497  0.1813
11723SOL     OW36588   6.362   2.512   7.921  0.0719  0.2317  0.1343
11723SOL    HW136589   6.362   2.556   7.836 -0.2465  1.1448  0.5992
11723SOL    HW236590   6.453   2.484   7.933 -0.4073 -2.6703 -1.8723
11724SOL     OW36591   2.204   2.971   6.439  0.2208  0.0321 -0.2356
11724SOL    HW136592   2.272   2.991   6.504  0.6843 -2.2936  0.0765
11724SOL    HW236593   2.252   2.965   6.356  0.1715 -0.2889 -0.2398
11725SOL     OW36594   8.013   5.621   0.044  0.4374 -0.0623 -0.7204
11725SOL    HW136595   7.986   5.557   0.109  1.9860  0.2811  0.3306
11725SOL    HW236596   8.088   5.580   0.000  1.8695  1.2089  0.4096
11726SOL     OW36597   3.300   5.424   0.743  0.4712 -0.3063 -0.3603
11726SOL    HW136598   3.235   5.393   0.680 -0.0254  0.1464 -0.0824
11726SOL    HW236599   3.337   5.345   0.782 -1.2203 -0.5643  0.7981
11727SOL     OW36600   7.041   1.179   5.805  0.2834  0.5901 -0.4913
11727SOL    HW136601   6.998   1.261   5.781 -0.1487  0.7714  0.8210
11727SOL    HW236602   6.969   1.117   5.820  0.3446  1.0722  2.3582
11728SOL     OW36603   3.133   0.534   3.930 -0.0941  0.2500 -0.1982
11728SOL    HW136604   3.045   0.553   3.898 -0.1385  0.1454 -0.1383
11728SOL    HW236605   3.168   0.619   3.957 -0.7623  0.0924  1.2492
11729SOL     OW36606   2.186   1.087   3.275 -0.3272  0.0493  0.0229
11729SOL    HW136607   2.245   1.032   3.223 -0.1260 -0.8655  1.1730
11729SOL    HW236608   2.163   1.032   3.350 -3.1816  0.0977 -0.7030
11730SOL     OW36609   2.313   7.955   0.521 -0.0716  0.2268  0.4745
11730SOL    HW136610   2.253   7.887   0.550 -2.0742  1.0314 -1.5143
11730SOL    HW236611   2.259   8.034   0.514  1.9184  1.8059  1.6119
11731SOL     OW36612   2.137   7.212   7.927  0.7850 -0.4481 -0.0837
11731SOL    HW136613   2.150   7.301   7.895 -0.0040 -0.0710  0.6051
11731SOL    HW236614   2.224   7.184   7.956  0.8868  0.4370  0.5194
11732SOL     OW36615   7.896   1.238   3.776  0.1051 -0.0606  0.3267
11732SOL    HW136616   7.885   1.311   3.836  2.5519  1.5475 -1.0330
11732SOL    HW236617   7.824   1.249   3.713 -0.0483  0.6625  0.6168
11733SOL     OW36618   4.118   0.959   2.426  0.5535  1.0795  0.1038
11733SOL    HW136619   4.112   0.931   2.518 -1.6758  0.6525 -0.1032
11733SOL    HW236620   4.052   0.906   2.381  1.6073  1.2715 -1.7738
11734SOL     OW36621   3.617   2.005   4.890  0.1929  0.2127  0.2798
11734SOL    HW136622   3.710   2.027   4.885  0.0694  0.5673 -0.6272
11734SOL    HW236623   3.573   2.073   4.839 -0.5755  0.0820  0.7433
11735SOL     OW36624   5.199   5.670   3.817 -0.0930 -0.2581 -0.3449
11735SOL    HW136625   5.114   5.630   3.838 -0.4954  0.3121 -0.8556
11735SOL    HW236626   5.238   5.689   3.902 -0.4796 -0.5187 -0.1050
11736SOL     OW36627   6.323   1.378   7.759 -0.7098  0.1133  0.5115
11736SOL    HW136628   6.376   1.408   7.832  0.4397 -2.8607  1.0632
11736SOL    HW236629   6.295   1.458   7.715  1.0898  1.9220  2.4094
11737SOL     OW36630   8.247   4.699   2.215 -0.0387  0.4133  0.0421
11737SOL    HW136631   8.215   4.633   2.153 -3.4081  1.6988  0.1803
11737SOL    HW236632   8.342   4.697   2.204 -0.2503 -1.5090 -2.9679
11738SOL     OW36633   0.723   4.656   4.543  0.2067 -0.1557  0.5158
11738SOL    HW136634   0.757   4.669   4.455  1.1963 -1.6970  0.6494
11738SOL    HW236635   0.653   4.591   4.533 -0.6099  0.6686  0.6968
11739SOL     OW36636   6.617   1.741   1.337 -0.0243 -0.4128  0.1359
11739SOL    HW136637   6.524   1.728   1.353 -0.5302  0.1289 -2.0023
11739SOL    HW236638   6.646   1.659   1.297  0.3250 -0.4180  0.3909
11740SOL     OW36639   4.161   2.472   1.730 -0.1092 -0.0526 -0.0449
11740SOL    HW136640   4.079   2.514   1.702  0.4211  0.4074 -0.9525
11740SOL    HW236641   4.206   2.538   1.782  0.4165  0.2841 -0.9075
11741SOL     OW36642   0.595   3.929   6.581 -0.4255  0.3435 -0.0868
11741SOL    HW136643   0.598   3.927   6.485  0.1977  0.1308 -0.0658
11741SOL    HW236644   0.654   3.859   6.609  0.1094  0.9891  0.4560
11742SOL     OW36645   2.308   0.734   3.891 -1.1786  1.0506  0.5613
11742SOL    HW136646   2.299   0.752   3.985  0.4731  1.7232  0.6338
11742SOL    HW236647   2.398   0.761   3.871 -0.3320 -2.1139 -0.5287
11743SOL     OW36648   2.715   0.788   1.462 -0.2986  0.5791  0.0709
11743SOL    HW136649   2.714   0.865   1.519  0.0500  1.0186 -0.5046
11743SOL    HW236650   2.750   0.820   1.379 -1.8415  0.2223 -0.7715
11744SOL     OW36651   0.258   3.692   2.152  0.1496  0.0148  0.0159
11744SOL    HW136652   0.273   3.787   2.155 -0.4991  0.2908 -2.7012
11744SOL    HW236653   0.345   3.655   2.138  0.0197  0.6059 -2.9504
11745SOL     OW36654   8.182   7.241   5.800 -0.4781  0.1557  0.1567
11745SOL    HW136655   8.199   7.253   5.893 -1.6600  0.0421  0.4068
11745SOL    HW236656   8.142   7.323   5.772  1.4752  0.8833 -0.6891
11746SOL     OW36657   4.191   4.352   6.811 -0.0620 -0.1208  0.1776
11746SOL    HW136658   4.101   4.360   6.779  0.4921 -1.0997 -1.7925
11746SOL    HW236659   4.194   4.266   6.854 -0.5048  0.6971  1.9123
11747SOL     OW36660   8.264   8.353   2.169 -0.2119  0.0224  0.2419
11747SOL    HW136661   8.256   8.267   2.129 -0.4694  0.4272 -0.5830
11747SOL    HW236662   8.356   8.359   2.194  0.4569  0.5495 -2.1185
11748SOL     OW36663   0.170   0.958   7.447  0.4399  0.5459  0.5044
11748SOL    HW136664   0.224   0.880   7.453 -0.6895 -0.2723  0.3512
11748SOL    HW236665   0.218   1.016   7.387  0.7282 -0.5130 -0.3167
11749SOL     OW36666   3.535   6.791   6.759 -0.4984 -0.5999 -0.3435
11749SOL    HW136667   3.527   6.738   6.680 -0.3412  3.3573 -3.3813
11749SOL    HW236668   3.445   6.810   6.785 -0.5531 -1.3784  0.0542
11750SOL     OW36669   0.819   1.434   4.973  0.0758 -0.0008 -0.0125
11750SOL    HW136670   0.773   1.354   4.998  1.2093 -0.5831  0.3168
11750SOL    HW236671   0.843   1.475   5.056 -0.6159  0.7555 -0.1849
11751SOL     OW36672   1.682   5.948   4.070  0.0087  0.9368 -0.0345
11751SOL    HW136673   1.733   5.910   4.141 -1.1372 -0.5835  0.0266
11751SOL    HW236674   1.630   5.875   4.035 -0.0577  1.8042 -1.9130
11752SOL     OW36675   6.585   6.659   4.726 -0.3588  0.2821 -0.2041
11752SOL    HW136676   6.565   6.752   4.736 -0.5622  0.2803 -0.5806
11752SOL    HW236677   6.524   6.615   4.786  0.5167  0.4541  0.8499
11753SOL     OW36678   3.892   3.767   6.764  0.3284  0.4373 -0.2806
11753SOL    HW136679   3.852   3.818   6.694 -1.1913 -0.3491 -0.0359
11753SOL    HW236680   3.868   3.677   6.745  2.3327 -0.1542 -0.2939
11754SOL     OW36681   4.930   5.172   3.980 -0.1994 -0.0452  0.3219
11754SOL    HW136682   5.023   5.179   3.960 -0.3406  1.3441 -0.0016
11754SOL    HW236683   4.897   5.104   3.921  0.8626 -1.6714  1.5168
11755SOL     OW36684   4.493   3.950   2.975  0.0417  0.2151  0.1548
11755SOL    HW136685   4.424   4.013   2.954 -0.2499 -0.9090 -2.5926
11755SOL    HW236686   4.574   4.001   2.973 -0.4503  1.0565  0.9656
11756SOL     OW36687   5.208   7.463   1.694  0.2354 -0.2868  0.3780
11756SOL    HW136688   5.187   7.423   1.778  0.6487  0.1807  0.7086
11756SOL    HW236689   5.215   7.556   1.713 -2.4287  0.2254 -0.6993
11757SOL     OW36690   0.391   6.037   8.010 -0.2525  0.1863  0.4303
11757SOL    HW136691   0.407   5.947   7.981  0.2931  0.3893  0.1021
11757SOL    HW236692   0.296   6.048   8.003 -0.0516  0.6744 -2.6419
11758SOL     OW36693   4.838   6.948   7.341  0.2817 -0.2070 -0.2300
11758SOL    HW136694   4.922   6.904   7.352  0.9880  1.4531  1.7334
11758SOL    HW236695   4.862   7.037   7.313 -0.7648  0.3797  0.6707
11759SOL     OW36696   3.383   6.267   6.906  0.1273  0.0818  0.2341
11759SOL    HW136697   3.335   6.205   6.960 -1.9691  0.5915 -0.8911
11759SOL    HW236698   3.358   6.245   6.816  0.2159  1.7956 -0.2622
11760SOL     OW36699   3.034   7.565   4.394  0.3383 -0.1773 -0.2063
11760SOL    HW136700   3.062   7.652   4.365 -0.5752  0.5385  0.9392
11760SOL    HW236701   3.013   7.518   4.313 -2.1733  1.7410 -0.7978
11761SOL     OW36702   6.701   3.996   4.215  0.3381 -0.1335 -0.1977
11761SOL    HW136703   6.684   4.090   4.220  0.0703 -0.1887 -0.0902
11761SOL    HW236704   6.797   3.989   4.221  0.2760  0.0429  1.3392
11762SOL     OW36705   2.126   3.622   4.421 -0.1808 -0.1105 -0.4862
11762SOL    HW136706   2.168   3.548   4.464  1.0425  0.2141 -1.0843
11762SOL    HW236707   2.089   3.674   4.493  2.1327  0.6161  0.2475
11763SOL     OW36708   2.385   4.239   2.036  0.1521 -0.1644 -0.6228
11763SOL    HW136709   2.367   4.149   2.063  2.6457 -0.6706 -0.4658
11763SOL    HW236710   2.335   4.249   1.955 -1.2086 -1.2202  0.0360
11764SOL     OW36711   3.749   5.431   4.442 -0.0728  0.0850  0.1247
11764SOL    HW136712   3.778   5.516   4.409  0.9355 -0.0186  0.6824
11764SOL    HW236713   3.782   5.368   4.377 -0.7601  0.1128 -0.2530
11765SOL     OW36714   1.467   3.901   7.770  0.0517 -0.0322  0.1052
11765SOL    HW136715   1.465   3.946   7.854 -1.2898 -0.0815  0.1340
11765SOL    HW236716   1.421   3.960   7.710  0.8930 -0.0465 -0.5790
11766SOL     OW36717   1.059   8.149   0.433  0.4551  0.5793 -0.1350
11766SOL    HW136718   0.970   8.152   0.398  0.9269  1.4661 -1.3149
11766SOL    HW236719   1.069   8.058   0.463 -0.8969  0.5162  0.2084
11767SOL     OW36720   6.112   0.617   4.889  0.8192  0.3105 -0.2744
11767SOL    HW136721   6.132   0.596   4.981  0.7312 -2.3690 -0.7733
11767SOL    HW236722   6.017   0.624   4.886  0.7704 -0.2705 -0.2528
11768SOL     OW36723   5.931   1.730   1.663  0.0345 -0.3180 -0.2110
11768SOL    HW136724   5.872   1.805   1.664  0.9936  0.4779  1.7582
11768SOL    HW236725   5.889   1.665   1.720  0.8130  0.1104  0.8982
11769SOL     OW36726   5.097   3.218   2.350  0.1206  0.1922  0.0266
11769SOL    HW136727   5.152   3.141   2.362 -1.3185 -1.2433 -2.0053
11769SOL    HW236728   5.036   3.217   2.423 -1.7074 -2.3080 -1.3980
11770SOL     OW36729   2.673   7.056   0.439 -0.6366 -0.0486  0.8110
11770SOL    HW136730   2.613   6.991   0.477  1.1510 -1.0805  1.9949
11770SOL    HW236731   2.619   7.104   0.377 -2.8126 -0.6332  2.1269
11771SOL     OW36732   0.326   0.968   6.832  0.1845  0.0995 -0.4932
11771SOL    HW136733   0.377   1.024   6.772  0.9179 -0.0540 -0.0263
11771SOL    HW236734   0.270   1.029   6.879 -0.5350  0.2055 -1.4534
11772SOL     OW36735   0.170   5.658   6.175  0.3933  0.5628 -0.4974
11772SOL    HW136736   0.084   5.617   6.183  0.8239 -0.3259 -0.3751
11772SOL    HW236737   0.187   5.661   6.081  0.8254 -0.5220 -0.4591
11773SOL     OW36738   5.808   0.528   2.034  0.2055  0.2556 -0.3814
11773SOL    HW136739   5.782   0.555   1.945 -1.2936 -1.6303 -0.5774
11773SOL    HW236740   5.730   0.544   2.087  0.5838 -0.0984  0.2841
11774SOL     OW36741   7.524   2.518   1.473 -0.4792  0.2637 -0.4820
11774SOL    HW136742   7.468   2.579   1.424  1.3284  1.8242 -0.7527
11774SOL    HW236743   7.475   2.499   1.553 -1.7599  0.8621 -1.0954
11775SOL     OW36744   0.050   1.928   7.265 -0.3062  0.3467  0.1995
11775SOL    HW136745   0.006   1.981   7.200  0.5779 -2.0755 -2.5752
11775SOL    HW236746   0.126   1.980   7.291 -0.0089  0.8990 -1.6590
11776SOL     OW36747   7.201   2.621   3.616 -0.4288  0.0336 -0.7824
11776SOL    HW136748   7.210   2.644   3.708 -1.0239  1.2623 -1.0156
11776SOL    HW236749   7.110   2.591   3.608  0.2966 -2.4842 -0.4986
11777SOL     OW36750   2.202   7.418   4.253 -0.1666  0.1939 -0.3160
11777SOL    HW136751   2.260   7.404   4.328 -0.4926  0.7781  0.0501
11777SOL    HW236752   2.251   7.476   4.194 -0.0974  0.1100 -0.3411
11778SOL     OW36753   4.632   3.927   3.771 -0.3751  0.0151  0.5734
11778SOL    HW136754   4.682   3.850   3.798  0.2920 -0.0087 -0.6521
11778SOL    HW236755   4.695   3.999   3.775 -0.1646 -0.0357 -1.0853
11779SOL     OW36756   1.998   6.090   2.359 -0.5974  0.4188  0.1604
11779SOL    HW136757   2.021   6.011   2.407  0.9093  0.2081 -0.8293
11779SOL    HW236758   2.050   6.159   2.400 -0.0041  0.4038 -0.5335
11780SOL     OW36759   5.535   5.179   6.090  0.1709  0.3429  0.2386
11780SOL    HW136760   5.510   5.086   6.093 -0.9020  0.6011  2.9560
11780SOL    HW236761   5.455   5.224   6.065 -0.4166  0.7018  2.4779
11781SOL     OW36762   1.162   2.328   5.302  1.2184  0.2991  0.0326
11781SOL    HW136763   1.096   2.349   5.236 -0.8687 -2.3016  1.0879
11781SOL    HW236764   1.231   2.284   5.253  0.5984  0.1101 -0.7020
11782SOL     OW36765   6.405   3.556   0.619  0.5955  0.3749 -0.2375
11782SOL    HW136766   6.443   3.610   0.689  0.2212 -0.3173  0.5049
11782SOL    HW236767   6.434   3.599   0.538 -0.5026  2.2881  0.3191
11783SOL     OW36768   5.737   0.830   1.858 -0.4052 -0.2901 -0.2261
11783SOL    HW136769   5.827   0.805   1.879 -0.5905 -0.8981 -0.1317
11783SOL    HW236770   5.745   0.906   1.800  0.1408  0.9905  1.4386
11784SOL     OW36771   0.293   5.419   7.513 -0.4291 -0.2029  0.0559
11784SOL    HW136772   0.241   5.475   7.570  0.1810 -0.0048  0.4265
11784SOL    HW236773   0.323   5.476   7.443 -0.4618 -0.2444  0.0084
11785SOL     OW36774   0.015   2.437   0.860 -0.1281  0.2103 -0.0956
11785SOL    HW136775   0.055   2.517   0.894 -0.4434  1.2441 -1.9737
11785SOL    HW236776  -0.040   2.467   0.787 -1.4510 -1.5660  0.0927
11786SOL     OW36777   0.381   4.352   2.097  0.1525  0.2337 -0.7013
11786SOL    HW136778   0.409   4.425   2.042  1.5121 -0.2789 -0.7349
11786SOL    HW236779   0.370   4.390   2.184 -0.0254  0.6454 -0.9028
11787SOL     OW36780   1.059   0.365   6.739  0.6698 -0.4290 -0.1716
11787SOL    HW136781   1.082   0.342   6.648  0.0019 -2.1917  0.0514
11787SOL    HW236782   1.004   0.292   6.768  2.4420 -0.9396  2.2894
11788SOL     OW36783   5.824   5.968   1.120 -0.2157 -0.4941  0.2271
11788SOL    HW136784   5.746   6.011   1.154 -0.1351  2.1887 -2.5429
11788SOL    HW236785   5.896   6.024   1.148  0.4893 -1.6037  0.6977
11789SOL     OW36786   7.472   2.868   2.811 -0.3681  0.3578 -0.4766
11789SOL    HW136787   7.463   2.787   2.862 -0.1358  0.7591  0.2159
11789SOL    HW236788   7.410   2.929   2.852  1.0131  1.2107  0.4262
11790SOL     OW36789   6.858   3.320   8.096  0.1336  0.0676 -0.5799
11790SOL    HW136790   6.854   3.227   8.117 -2.3135  0.1218 -0.4576
11790SOL    HW236791   6.815   3.363   8.170 -1.5908  0.9715 -2.0247
11791SOL     OW36792   1.982   5.395   1.372  0.1238  0.0825 -0.5859
11791SOL    HW136793   2.076   5.414   1.380 -0.0570  0.0534  3.0209
11791SOL    HW236794   1.953   5.450   1.299  2.6772  1.1129 -0.9249
11792SOL     OW36795   6.950   6.030   2.395 -0.2236  0.1943  0.1165
11792SOL    HW136796   6.958   6.119   2.363  0.8812  0.5717  1.3677
11792SOL    HW236797   6.859   6.024   2.426 -0.7110  0.4313 -1.2175
11793SOL     OW36798   1.516   3.479   4.639  0.8730 -0.4365  0.5473
11793SOL    HW136799   1.476   3.535   4.573  1.6796 -0.8075 -0.2893
11793SOL    HW236800   1.598   3.523   4.662  1.3357 -1.0633  0.1509
11794SOL     OW36801   0.181   6.660   5.654 -0.3216 -0.2041  0.2062
11794SOL    HW136802   0.141   6.711   5.583 -0.4218  3.1076  2.4564
11794SOL    HW236803   0.273   6.684   5.652 -0.0443 -1.1937  0.3800
11795SOL     OW36804   2.736   4.061   8.250  0.1460 -0.3138 -0.4230
11795SOL    HW136805   2.801   4.063   8.320 -1.2622  1.2282  0.9316
11795SOL    HW236806   2.784   4.089   8.172  1.0732  1.0514  0.5832
11796SOL     OW36807   3.430   2.357   6.874  0.3358  0.0018  0.0256
11796SOL    HW136808   3.492   2.384   6.807 -0.6731 -0.8718 -1.3069
11796SOL    HW236809   3.346   2.395   6.846 -0.2293 -0.9200  0.4329
11797SOL     OW36810   7.573   2.419   4.341 -0.0583 -1.1133 -0.2776
11797SOL    HW136811   7.653   2.403   4.391 -0.7070  0.9897  1.5912
11797SOL    HW236812   7.505   2.372   4.390 -0.2531 -1.4792 -0.8881
11798SOL     OW36813   1.867   8.242   4.405  0.1561 -0.8053  0.0610
11798SOL    HW136814   1.816   8.296   4.345  1.0691 -0.3813 -0.3652
11798SOL    HW236815   1.949   8.226   4.358 -0.2111 -2.8762  0.0151
11799SOL     OW36816   6.190   6.322   1.845 -0.0565  0.0204 -0.0438
11799SOL    HW136817   6.095   6.327   1.851 -0.1083 -0.1762 -0.6308
11799SOL    HW236818   6.220   6.413   1.844 -0.3158  0.1053 -0.9562
11800SOL     OW36819   2.798   1.149   2.319 -0.1153  1.0267  0.4636
11800SOL    HW136820   2.789   1.159   2.224  0.1080  1.4026  0.4834
11800SOL    HW236821   2.708   1.143   2.351 -0.1848  0.4068  0.1784
11801SOL     OW36822   2.176   6.863   7.291 -0.3182  0.2759  0.2308
11801SOL    HW136823   2.267   6.842   7.313  0.3098  0.5337 -1.8664
11801SOL    HW236824   2.125   6.794   7.333  0.9809 -0.6703  0.3482
11802SOL     OW36825   1.874   4.839   2.045  0.1685 -0.4259  0.7812
11802SOL    HW136826   1.858   4.843   2.139 -0.8982  0.7223  0.5891
11802SOL    HW236827   1.967   4.859   2.035 -0.1250  1.4798  1.4955
11803SOL     OW36828   5.971   2.405   5.180 -0.3260 -0.3141 -0.3087
11803SOL    HW136829   5.919   2.429   5.103 -0.8081 -0.6457 -0.0896
11803SOL    HW236830   5.917   2.341   5.227  0.2945 -0.7036 -0.1024
11804SOL     OW36831   7.169   1.489   0.371  0.4221  0.2347  0.0499
11804SOL    HW136832   7.233   1.462   0.437 -2.4511 -1.3027  2.4678
11804SOL    HW236833   7.141   1.408   0.330  1.7623  1.1246 -2.8840
11805SOL     OW36834   0.109   8.347   0.820 -0.0638  0.1463 -0.1434
11805SOL    HW136835   0.137   8.437   0.834  0.6790 -0.1769  0.5163
11805SOL    HW236836   0.136   8.327   0.730 -0.5996  0.7039 -0.4372
11806SOL     OW36837   1.873   1.246   0.150  0.0069  0.0567 -0.0544
11806SOL    HW136838   1.905   1.330   0.119 -1.4248  0.7010  0.1217
11806SOL    HW236839   1.920   1.181   0.098 -0.0025  1.0214 -1.2932
11807SOL     OW36840   0.067   1.121   3.282  0.1476 -0.1913 -0.0467
11807SOL    HW136841   0.065   1.032   3.246  0.3178 -0.1848 -0.0740
11807SOL    HW236842  -0.002   1.167   3.234 -0.5256 -0.5352  0.5788
11808SOL     OW36843   0.049   7.908   0.779  0.5548  0.9239  0.5701
11808SOL    HW136844   0.087   7.837   0.829  0.1262 -0.2202 -0.6734
11808SOL    HW236845   0.109   7.920   0.705  0.0315  1.0632  0.1572
11809SOL     OW36846   7.598   6.678   2.540 -0.0489  0.2900 -0.0685
11809SOL    HW136847   7.584   6.601   2.485  0.6329 -1.2508  1.7647
11809SOL    HW236848   7.581   6.753   2.483 -1.0831 -1.2136 -1.8429
11810SOL     OW36849   3.798   5.300   6.871  0.9894 -0.7264  0.1162
11810SOL    HW136850   3.888   5.301   6.836  1.1583 -1.5457  0.4976
11810SOL    HW236851   3.808   5.323   6.963  1.1585 -3.3252  0.8293
11811SOL     OW36852   7.750   7.021   0.316  0.3456  0.2444  0.4534
11811SOL    HW136853   7.826   7.071   0.285  0.2580  1.0575  1.5341
11811SOL    HW236854   7.710   7.076   0.382 -2.0203  0.4412 -1.0395
11812SOL     OW36855   1.038   2.161   6.042 -0.2819  0.0241  0.3662
11812SOL    HW136856   0.987   2.083   6.065 -1.0301  0.3923 -0.0159
11812SOL    HW236857   1.050   2.155   5.947 -0.5790  0.5194  0.2999
11813SOL     OW36858   0.056   4.645   0.362 -0.0319  0.3225 -0.5096
11813SOL    HW136859   0.055   4.629   0.456  1.8633 -0.8278 -0.6253
11813SOL    HW236860   0.044   4.740   0.354 -1.2141  0.3207  0.8013
11814SOL     OW36861   5.340   1.673   1.076  0.3875 -0.0134  0.1826
11814SOL    HW136862   5.332   1.692   1.169 -2.7172  1.3980 -0.2791
11814SOL    HW236863   5.322   1.579   1.069  0.0236 -0.0034  0.9400
11815SOL     OW36864   1.483   4.969   0.143  0.7257 -0.2742  0.0191
11815SOL    HW136865   1.458   5.060   0.159  0.2947 -0.6988  1.9701
11815SOL    HW236866   1.405   4.919   0.164  1.0263 -1.1261 -0.8393
11816SOL     OW36867   7.469   4.649   3.878 -0.3359 -0.2718  0.0854
11816SOL    HW136868   7.429   4.705   3.812  0.3735  0.1073 -0.0352
11816SOL    HW236869   7.422   4.669   3.959 -0.7371 -0.2222 -0.1586
11817SOL     OW36870   6.017   7.593   5.085 -0.5339 -0.2660 -0.4568
11817SOL    HW136871   5.941   7.653   5.081 -1.2576 -1.1807 -0.7961
11817SOL    HW236872   6.085   7.644   5.128 -1.5307  0.3931  0.4028
11818SOL     OW36873   4.165   2.337   4.042  0.3180  0.8988  0.2358
11818SOL    HW136874   4.181   2.243   4.034  0.2524  0.9832 -0.9424
11818SOL    HW236875   4.169   2.353   4.137 -2.4215 -0.7744  0.7609
11819SOL     OW36876   4.380   6.072   4.910  0.3560  0.6136 -0.5320
11819SOL    HW136877   4.324   6.141   4.874  1.0865  0.7657 -1.4202
11819SOL    HW236878   4.469   6.098   4.885  0.7559 -0.0318  0.1688
11820SOL     OW36879   8.282   3.191   0.308 -0.4099  0.5677  0.2406
11820SOL    HW136880   8.357   3.174   0.364 -1.3510 -2.2155  0.7990
11820SOL    HW236881   8.266   3.108   0.263 -1.8841  1.6922 -1.4419
11821SOL     OW36882   7.673   7.926   2.250  0.1022 -0.4107  0.2592
11821SOL    HW136883   7.759   7.946   2.287 -0.3385  1.7962  0.2198
11821SOL    HW236884   7.687   7.922   2.156  0.3924 -1.5357  0.3295
11822SOL     OW36885   6.824   0.175   1.379 -0.0756  0.0781 -0.0368
11822SOL    HW136886   6.851   0.232   1.307 -0.2179 -1.0768 -1.0295
11822SOL    HW236887   6.778   0.233   1.440  0.7392  1.2213 -0.4774
11823SOL     OW36888   3.696   0.688   3.433 -0.5266 -0.2784 -0.3616
11823SOL    HW136889   3.765   0.624   3.451  0.8185  1.3485  0.4970
11823SOL    HW236890   3.683   0.682   3.338  0.2075 -1.1929 -0.4261
11824SOL     OW36891   6.711   7.671   0.362  0.5451  0.0289  0.4815
11824SOL    HW136892   6.721   7.702   0.271  0.1382 -2.0744 -0.3421
11824SOL    HW236893   6.729   7.577   0.356  0.5883 -0.1291  2.6268
11825SOL     OW36894   3.749   7.814   3.774  0.2545 -0.1714 -0.2289
11825SOL    HW136895   3.806   7.766   3.715 -0.8908 -0.3892 -1.2053
11825SOL    HW236896   3.678   7.846   3.718  0.8715  2.5499  0.3747
11826SOL     OW36897   4.790   5.375   0.877  0.1739 -0.4805  0.4932
11826SOL    HW136898   4.834   5.393   0.960 -0.0279  0.0961  0.4840
11826SOL    HW236899   4.708   5.424   0.883  0.3319 -0.1167 -0.1986
11827SOL     OW36900   5.309   1.314   2.388  0.4067 -0.2308  0.1008
11827SOL    HW136901   5.302   1.275   2.474  1.3086  0.0149  0.2982
11827SOL    HW236902   5.300   1.241   2.327  2.3839 -0.8152  0.4668
11828SOL     OW36903   3.144   6.970   3.369  0.4550 -0.1948  0.1825
11828SOL    HW136904   3.104   6.923   3.297  0.2082 -1.2458  0.9903
11828SOL    HW236905   3.072   6.991   3.428  0.5875  1.0364 -0.0461
11829SOL     OW36906   0.581   7.689   4.391  0.1171 -0.1204 -0.2862
11829SOL    HW136907   0.596   7.708   4.299  0.8836 -1.2824 -0.4134
11829SOL    HW236908   0.582   7.594   4.397 -0.8804 -0.0945  0.7759
11830SOL     OW36909   1.328   4.008   6.208  0.3083  0.5997 -0.1277
11830SOL    HW136910   1.339   3.921   6.169  0.6687  0.6257 -0.0827
11830SOL    HW236911   1.261   4.050   6.153  0.1996  0.3286 -0.2041
11831SOL     OW36912   6.991   6.281   1.814  0.2531 -0.4256  0.7631
11831SOL    HW136913   7.055   6.320   1.754 -0.9255  0.9242  0.3327
11831SOL    HW236914   6.961   6.202   1.769 -0.1150  0.2063 -0.1267
11832SOL     OW36915   4.484   1.876   5.719  0.9156 -0.1597 -0.6211
11832SOL    HW136916   4.406   1.855   5.666  0.4515 -1.1002  0.3991
11832SOL    HW236917   4.487   1.807   5.786  2.1662  0.3348 -0.1382
11833SOL     OW36918   5.160   3.683   3.733  0.0382 -0.1147 -0.2995
11833SOL    HW136919   5.166   3.645   3.820  2.6719  0.9310  0.0823
11833SOL    HW236920   5.219   3.629   3.679 -0.4104  0.1513 -1.0779
11834SOL     OW36921   2.075   2.602   1.708 -0.0909 -0.0709 -0.0538
11834SOL    HW136922   2.141   2.652   1.756  1.2769 -0.9631 -0.9645
11834SOL    HW236923   2.069   2.519   1.753  2.3921 -1.5738 -2.2011
11835SOL     OW36924   0.718   1.092   8.001 -0.6574  0.3147 -0.1270
11835SOL    HW136925   0.626   1.116   8.011 -0.5094  0.7551  0.2225
11835SOL    HW236926   0.745   1.064   8.088 -0.4856  0.0986 -0.2499
11836SOL     OW36927   0.138   6.890   5.801 -0.3993  0.0804  0.3219
11836SOL    HW136928   0.191   6.968   5.785 -0.7129  0.6062  1.7625
11836SOL    HW236929   0.164   6.829   5.732  1.1403  0.7993  0.2345
11837SOL     OW36930   1.071   6.522   0.207  0.0015  0.1793 -0.1941
11837SOL    HW136931   1.019   6.587   0.159 -0.0802 -0.8214 -1.5120
11837SOL    HW236932   1.147   6.506   0.151  2.0735  1.9502  1.9048
11838SOL     OW36933   4.406   5.597   4.652  0.8044 -0.0601 -0.1775
11838SOL    HW136934   4.394   5.544   4.574 -0.0140 -1.5287  0.9002
11838SOL    HW236935   4.360   5.679   4.632 -1.4488 -1.2895 -0.4296
11839SOL     OW36936   3.772   5.797   3.409  0.7163  0.2480  0.2070
11839SOL    HW136937   3.773   5.712   3.365  1.2814 -0.0871  0.8454
11839SOL    HW236938   3.776   5.860   3.338 -1.2459 -0.2019 -0.3692
11840SOL     OW36939   6.669   4.936   0.258  0.1620 -0.2582 -0.0746
11840SOL    HW136940   6.745   4.882   0.238  1.0507  1.2245 -0.9624
11840SOL    HW236941   6.700   4.995   0.328 -0.6587 -0.6379  0.6195
11841SOL     OW36942   6.025   8.196   1.992 -0.0402 -0.3469 -0.6818
11841SOL    HW136943   6.117   8.177   1.977  0.0274  0.8928 -1.9551
11841SOL    HW236944   6.022   8.233   2.080  0.7602  0.1258 -0.8466
11842SOL     OW36945   4.240   3.649   3.338  0.0068 -0.2882 -0.3508
11842SOL    HW136946   4.236   3.672   3.245 -0.6472 -1.2788 -0.5869
11842SOL    HW236947   4.150   3.658   3.368  0.5307  2.0143  0.7215
11843SOL     OW36948   6.625   0.583   1.520  0.5057  0.1202  0.2976
11843SOL    HW136949   6.671   0.638   1.456  0.0923  0.1039 -0.0181
11843SOL    HW236950   6.535   0.581   1.489  0.2270  0.4000  1.0850
11844SOL     OW36951   1.804   7.692   1.765  0.1751  0.0811  0.1426
11844SOL    HW136952   1.776   7.743   1.841 -1.3004  0.4270 -0.6121
11844SOL    HW236953   1.818   7.756   1.696  2.0774 -0.1721  0.2302
11845SOL     OW36954   6.734   2.881   5.985  0.1924  0.0997 -0.2418
11845SOL    HW136955   6.778   2.947   6.038  2.0805 -0.4378 -1.0637
11845SOL    HW236956   6.733   2.803   6.041  0.4346  0.0747 -0.2697
11846SOL     OW36957   6.038   8.127   8.311 -0.3324 -0.2795  0.1803
11846SOL    HW136958   6.080   8.209   8.286  3.5031 -1.2183  2.6721
11846SOL    HW236959   6.003   8.144   8.398 -1.6454 -0.6776 -0.2491
11847SOL     OW36960   0.995   3.531   7.207  0.3053 -0.1939 -0.1912
11847SOL    HW136961   1.090   3.536   7.193  0.2468 -0.4465 -0.6925
11847SOL    HW236962   0.959   3.599   7.150  0.2031  0.1182  0.2388
11848SOL     OW36963   1.260   5.026   6.216  0.7661  0.2705  0.2056
11848SOL    HW136964   1.304   5.001   6.134 -0.4211 -0.8644 -0.1085
11848SOL    HW236965   1.231   5.116   6.200 -1.8752 -0.8039 -1.7435
11849SOL     OW36966   8.246   5.440   4.190  0.0881  0.5758  1.0580
11849SOL    HW136967   8.300   5.400   4.258  0.0941  1.7330  1.7468
11849SOL    HW236968   8.307   5.456   4.118  0.1989 -0.1220  0.9854
11850SOL     OW36969   7.729   8.274   4.255  0.4443  0.1094  0.0006
11850SOL    HW136970   7.781   8.216   4.199 -0.8367 -0.2048 -0.9008
11850SOL    HW236971   7.646   8.285   4.209  0.0121  1.3016  0.9839
11851SOL     OW36972   1.212   0.280   1.774 -0.0643  0.6777  0.5377
11851SOL    HW136973   1.166   0.217   1.829  0.6789 -0.3923 -0.0154
11851SOL    HW236974   1.193   0.365   1.812 -0.9622  0.0996  1.4102
11852SOL     OW36975   5.552   4.933   5.048 -0.3578  0.6819 -0.5693
11852SOL    HW136976   5.605   4.974   4.980  0.2616 -0.9931 -1.1433
11852SOL    HW236977   5.601   4.948   5.129  0.9424 -0.6681 -1.0611
11853SOL     OW36978   3.949   0.985   4.945 -0.6876  0.2364  0.3049
11853SOL    HW136979   3.971   0.894   4.925 -0.8959  0.2742 -0.0998
11853SOL    HW236980   3.992   1.002   5.030 -1.4863 -0.5404  0.8808
11854SOL     OW36981   6.981   4.787   7.090 -0.3029  0.1824  0.4147
11854SOL    HW136982   6.930   4.726   7.037 -0.4701 -0.2474  1.0611
11854SOL    HW236983   7.021   4.846   7.026  2.4123 -2.4393 -0.5884
11855SOL     OW36984   0.920   2.935   1.251  0.3881  0.1157  0.4262
11855SOL    HW136985   0.850   2.880   1.288  0.7181 -0.2733  0.4815
11855SOL    HW236986   0.892   3.025   1.268  0.4926 -0.0543  1.5739
11856SOL     OW36987   7.789   4.480   0.359 -0.1942 -0.3526  0.6945
11856SOL    HW136988   7.826   4.402   0.316  0.1462  0.4934 -0.6052
11856SOL    HW236989   7.858   4.510   0.417  0.7166  0.4450 -0.7312
11857SOL     OW36990   6.385   5.256   5.229  0.0986 -0.2973 -0.6383
11857SOL    HW136991   6.451   5.247   5.160  1.7812 -0.3845  0.9134
11857SOL    HW236992   6.335   5.334   5.204  2.0938  0.9702 -0.8587
11858SOL     OW36993   1.516   0.464   3.655  0.1672 -0.2859 -0.2139
11858SOL    HW136994   1.583   0.533   3.661  0.2132 -0.4220  1.2508
11858SOL    HW236995   1.538   0.416   3.576  0.5197  0.9877 -0.9187
11859SOL     OW36996   8.187   6.951   1.474  0.3495 -0.4440 -0.2335
11859SOL    HW136997   8.163   7.013   1.543  0.1546 -1.8843  1.0554
11859SOL    HW236998   8.282   6.954   1.472  0.4254 -1.2885  1.0074
11860SOL     OW36999   6.619   5.279   7.708  0.3551 -0.1441  0.1817
11860SOL    HW137000   6.673   5.253   7.782  0.5778 -1.1752 -0.3194
11860SOL    HW237001   6.530   5.257   7.735  0.3377  0.2982  0.4840
11861SOL     OW37002   7.817   4.070   3.278 -0.3870 -0.0938 -0.4563
11861SOL    HW137003   7.873   4.001   3.243 -1.1166 -1.4957  0.9617
11861SOL    HW237004   7.822   4.141   3.214  2.1238 -0.5764 -0.8915
11862SOL     OW37005   2.016   3.848   7.292 -0.6801 -0.2608  0.2668
11862SOL    HW137006   1.977   3.921   7.340 -0.6936  0.4217 -0.7587
11862SOL    HW237007   2.076   3.807   7.355  1.6786  2.4760 -0.0124
11863SOL     OW37008   2.468   6.259   0.128  0.0250  0.6963  0.5555
11863SOL    HW137009   2.464   6.179   0.077  0.1065  0.3753  1.0485
11863SOL    HW237010   2.377   6.285   0.140  0.0423  1.5858 -1.0041
11864SOL     OW37011   3.681   4.087   5.524 -0.2586  0.2241  0.1511
11864SOL    HW137012   3.731   4.149   5.577 -1.0334 -0.5487  1.8972
11864SOL    HW237013   3.589   4.108   5.543 -0.5473 -1.5670  1.0108
11865SOL     OW37014   6.333   4.356   3.151  0.4816  0.0923  0.5833
11865SOL    HW137015   6.319   4.298   3.225 -1.5340 -1.4816 -0.9199
11865SOL    HW237016   6.267   4.425   3.161 -0.1983 -0.4540 -0.0179
11866SOL     OW37017   0.737   0.925   3.823  0.0130  0.5742 -0.1694
11866SOL    HW137018   0.697   0.993   3.768  0.6254  1.9397  1.0103
11866SOL    HW237019   0.672   0.907   3.891 -1.1087 -1.7408 -1.7116
11867SOL     OW37020   7.470   5.669   1.581 -0.3134 -0.0654 -0.3456
11867SOL    HW137021   7.535   5.738   1.568 -1.4882  1.0603 -0.4962
11867SOL    HW237022   7.387   5.717   1.592 -0.8057 -1.3397  2.0569
11868SOL     OW37023   5.151   8.347   5.940 -0.1757 -0.3855 -0.0102
11868SOL    HW137024   5.185   8.432   5.910 -0.2628 -0.8664 -1.5401
11868SOL    HW237025   5.178   8.342   6.032  0.3306  1.0459 -0.0552
11869SOL     OW37026   4.401   1.993   0.579  0.4937 -0.1118  0.3940
11869SOL    HW137027   4.326   1.988   0.637  1.0687 -1.1648  1.0797
11869SOL    HW237028   4.415   2.086   0.565 -0.2495  0.1229  1.1597
11870SOL     OW37029   2.796   7.716   0.687 -0.1518  0.0898  0.1132
11870SOL    HW137030   2.814   7.644   0.627  0.5337 -0.2581  0.7196
11870SOL    HW237031   2.711   7.750   0.659  0.7053  0.7714 -1.8625
11871SOL     OW37032   7.869   7.215   4.428  0.3321 -0.4323  0.6924
11871SOL    HW137033   7.924   7.238   4.503  0.8281 -1.6856  0.7495
11871SOL    HW237034   7.869   7.293   4.373 -0.3259  0.6367  2.1428
11872SOL     OW37035   2.441   5.196   2.865 -0.4417  0.0691  0.2330
11872SOL    HW137036   2.413   5.143   2.939  1.8206 -1.5668  0.0107
11872SOL    HW237037   2.391   5.161   2.791  0.6714 -1.4972  0.1787
11873SOL     OW37038   7.041   1.330   6.722  0.2347 -0.0184 -0.3578
11873SOL    HW137039   6.970   1.395   6.724 -1.1478 -1.3682 -2.0531
11873SOL    HW237040   7.082   1.337   6.808 -1.2943  1.5339  0.3149
11874SOL     OW37041   7.171   3.985   0.526 -0.1560  0.4779 -0.3219
11874SOL    HW137042   7.264   3.988   0.551 -0.9494  1.8185  3.0247
11874SOL    HW237043   7.155   3.894   0.504  1.5747 -0.1646  0.8600
11875SOL     OW37044   6.771   7.379   0.375  0.5253  0.1997  0.2367
11875SOL    HW137045   6.841   7.314   0.381  0.3290  0.0388  0.8234
11875SOL    HW237046   6.743   7.376   0.283 -0.5146 -1.6216  0.5668
11876SOL     OW37047   5.546   1.393   2.439 -0.2725 -0.4303 -0.0213
11876SOL    HW137048   5.600   1.319   2.411  0.2913 -0.8729  2.0929
11876SOL    HW237049   5.458   1.370   2.411 -0.1439 -2.0511  0.8247
11877SOL     OW37050   8.163   1.710   6.776  0.0502  0.2531  0.5595
11877SOL    HW137051   8.071   1.731   6.792  0.0383  0.8014 -0.1790
11877SOL    HW237052   8.163   1.616   6.756 -0.7285  0.7283 -2.0247
11878SOL     OW37053   7.156   3.530   2.343  0.0747 -0.3818  0.1032
11878SOL    HW137054   7.219   3.500   2.408 -0.1504 -1.2165 -0.0494
11878SOL    HW237055   7.105   3.597   2.388 -1.6783 -2.5880  1.6560
11879SOL     OW37056   6.750   5.260   7.427  0.3555 -0.8481  0.2358
11879SOL    HW137057   6.693   5.227   7.496 -1.7989  2.1698  0.1130
11879SOL    HW237058   6.775   5.348   7.456  0.9619 -0.2224 -1.9440
11880SOL     OW37059   6.999   5.981   4.461  0.0574  0.3125 -0.5797
11880SOL    HW137060   6.973   5.913   4.523  2.4092 -1.5083 -1.4601
11880SOL    HW237061   6.952   5.960   4.380  2.7816 -2.0520 -1.6966
11881SOL     OW37062   2.281   0.699   5.568 -0.4745 -0.3878 -0.1208
11881SOL    HW137063   2.273   0.757   5.493  1.8166 -0.4459 -0.4982
11881SOL    HW237064   2.348   0.635   5.542  1.9911  0.8547  2.6546
11882SOL     OW37065   3.596   4.260   2.080  0.1574  0.2953 -0.2336
11882SOL    HW137066   3.548   4.320   2.138  2.2100  2.9688 -1.0787
11882SOL    HW237067   3.559   4.277   1.993 -3.4786 -4.2693  0.0486
11883SOL     OW37068   4.148   3.225   5.954 -0.2314 -0.4261 -0.2682
11883SOL    HW137069   4.174   3.291   5.890  0.6293 -1.9022 -1.5242
11883SOL    HW237070   4.052   3.233   5.959 -0.1412  0.9050 -0.3716
11884SOL     OW37071   5.846   1.734   7.859 -0.4276  0.0145  0.2316
11884SOL    HW137072   5.914   1.668   7.870  2.7583  2.2134 -3.4621
11884SOL    HW237073   5.845   1.782   7.942  0.5978 -1.6870  1.2798
11885SOL     OW37074   4.309   4.951   6.377 -0.0071  0.0603 -0.3301
11885SOL    HW137075   4.376   4.905   6.427  0.8430  0.5018 -1.0230
11885SOL    HW237076   4.245   4.884   6.352  0.4858 -0.4747 -0.1537
11886SOL     OW37077   6.913   2.654   5.061  0.0138 -0.4598 -0.2004
11886SOL    HW137078   6.926   2.584   4.998  0.8166  0.6186 -1.2759
11886SOL    HW237079   6.884   2.610   5.141 -1.0665 -1.8434 -1.3164
11887SOL     OW37080   6.726   7.435   0.114  0.0656 -0.3386 -0.8293
11887SOL    HW137081   6.770   7.404   0.034 -1.8528 -1.6623 -1.4309
11887SOL    HW237082   6.688   7.519   0.089 -0.4074 -0.6821 -1.2771
11888SOL     OW37083   5.482   4.351   5.097  0.1568 -1.0390 -0.4841
11888SOL    HW137084   5.486   4.382   5.007  2.8656 -0.3592 -0.2124
11888SOL    HW237085   5.472   4.256   5.090 -0.2781 -0.9311 -1.4630
11889SOL     OW37086   2.321   6.894   4.151 -0.1324 -0.2948  0.7554
11889SOL    HW137087   2.229   6.871   4.138  0.4061 -2.0471 -0.2357
11889SOL    HW237088   2.350   6.924   4.065  0.1597  0.5350  1.1380
11890SOL     OW37089   0.647   7.363   2.487 -0.0955 -0.2054 -0.4797
11890SOL    HW137090   0.566   7.405   2.517  1.3520  1.4453  1.3050
11890SOL    HW237091   0.683   7.321   2.565  1.8849  0.9716 -0.7089
11891SOL     OW37092   1.466   2.013   4.814  0.0078 -0.7775  0.5595
11891SOL    HW137093   1.395   1.993   4.753  0.7615  0.1386 -0.6756
11891SOL    HW237094   1.477   2.108   4.808  0.5768 -0.7538  1.6134
11892SOL     OW37095   0.687   3.979   7.213  0.4190  0.2332 -0.1439
11892SOL    HW137096   0.756   4.006   7.152 -0.3923  0.0931 -1.1515
11892SOL    HW237097   0.623   3.935   7.158 -0.0933 -0.3545  0.9054
11893SOL     OW37098   2.729   7.825   4.367  0.1381 -1.1267  0.1689
11893SOL    HW137099   2.744   7.874   4.286  2.1079 -2.3682 -0.2942
11893SOL    HW237100   2.750   7.888   4.437 -0.1070 -0.4890 -0.3235
11894SOL     OW37101   7.816   5.933   5.445  0.4707 -0.2846  0.3723
11894SOL    HW137102   7.797   5.884   5.525  2.5256  0.4383  1.3634
11894SOL    HW237103   7.861   5.871   5.389  0.3579 -0.3708  0.3747
11895SOL     OW37104   7.298   6.046   2.291  0.1353 -0.3603 -0.1939
11895SOL    HW137105   7.264   6.101   2.221  0.4895  0.6780  0.4386
11895SOL    HW237106   7.256   5.961   2.277  0.2315 -0.1794 -1.6770
11896SOL     OW37107   5.813   0.542   0.408 -0.1945  0.0102 -0.8248
11896SOL    HW137108   5.760   0.581   0.478  1.5124  0.6406  0.1969
11896SOL    HW237109   5.803   0.448   0.419  0.3707  0.0829  0.5948
11897SOL     OW37110   6.947   3.716   8.061 -0.2139 -0.7947 -0.1009
11897SOL    HW137111   7.021   3.745   8.114 -0.8012  2.6042 -0.8827
11897SOL    HW237112   6.936   3.624   8.083  1.1963 -0.2482  3.6617
11898SOL     OW37113   6.677   7.301   0.679  0.0751 -0.4083 -0.2732
11898SOL    HW137114   6.702   7.338   0.594 -0.2054 -0.8546 -0.5501
11898SOL    HW237115   6.707   7.366   0.742  1.1702 -0.5174 -0.6478
11899SOL     OW37116   7.245   5.545   2.741  0.0424 -0.4853 -0.3082
11899SOL    HW137117   7.161   5.514   2.775 -0.0204 -0.2963 -0.2922
11899SOL    HW237118   7.260   5.492   2.662  0.1804 -0.9125  0.0042
11900SOL     OW37119   2.965   4.838   2.989 -0.1644  0.2740 -0.0988
11900SOL    HW137120   2.950   4.783   3.067 -0.4502 -0.5265 -0.7013
11900SOL    HW237121   3.049   4.807   2.954  0.5033  1.3784  0.4916
11901SOL     OW37122   5.393   7.554   2.385  0.7190 -0.4145  0.4414
11901SOL    HW137123   5.400   7.631   2.328  1.5044 -0.3984  0.5549
11901SOL    HW237124   5.343   7.585   2.461  0.8549 -0.0719  0.3919
11902SOL     OW37125   2.660   5.029   4.877 -0.2896 -0.2987 -0.2626
11902SOL    HW137126   2.672   4.937   4.852  0.1445  0.1717 -1.9256
11902SOL    HW237127   2.675   5.078   4.796  1.1932  1.3706  0.9565
11903SOL     OW37128   6.051   2.412   2.338  0.5805 -0.1538  0.0299
11903SOL    HW137129   6.031   2.357   2.262  4.6123  0.2591 -1.5771
11903SOL    HW237130   6.039   2.355   2.413  0.5405 -1.9101 -1.2573
11904SOL     OW37131   3.098   1.285   8.250  0.8223  0.0553 -0.4255
11904SOL    HW137132   3.017   1.288   8.299  0.0701  2.4524 -1.6460
11904SOL    HW237133   3.087   1.212   8.189 -0.6262  0.6029 -0.8576
11905SOL     OW37134   2.534   7.598   3.453 -0.2214 -0.3515  0.0395
11905SOL    HW137135   2.541   7.503   3.464 -0.8511 -0.4059  0.0338
11905SOL    HW237136   2.624   7.628   3.440 -0.0502 -0.9855 -0.2672
11906SOL     OW37137   1.638   1.849   0.786  0.2770  0.4728 -0.0276
11906SOL    HW137138   1.684   1.916   0.736  1.1314 -1.4326 -1.9590
11906SOL    HW237139   1.699   1.775   0.790 -1.9242 -1.5758 -1.3088
11907SOL     OW37140   7.237   0.141   0.152  0.1168 -0.1228  0.1707
11907SOL    HW137141   7.221   0.235   0.166 -1.3104 -0.0285 -1.6477
11907SOL    HW237142   7.170   0.097   0.205  1.1454 -0.1784  1.4767
11908SOL     OW37143   1.643   0.171   4.792  0.0745 -0.3509  0.3164
11908SOL    HW137144   1.630   0.191   4.884  0.4175  0.0006  0.2908
11908SOL    HW237145   1.695   0.244   4.758 -2.0268  0.7581 -0.7104
11909SOL     OW37146   6.054   3.358   6.406 -0.3196  0.2465  0.3171
11909SOL    HW137147   6.111   3.297   6.360 -1.0742 -0.5464  0.3900
11909SOL    HW237148   6.113   3.410   6.461  0.2201 -1.5501  1.5326
11910SOL     OW37149   6.127   6.067   4.774 -0.4428  0.0508 -0.1355
11910SOL    HW137150   6.170   6.152   4.783  0.4310 -0.2333 -1.3761
11910SOL    HW237151   6.043   6.078   4.818  0.1260  1.1953  0.7261
11911SOL     OW37152   3.677   5.044   6.846 -0.1000  0.3581  0.1203
11911SOL    HW137153   3.720   5.130   6.851 -0.0133  0.3865 -0.8084
11911SOL    HW237154   3.588   5.064   6.818  0.0146  0.1297 -0.4166
11912SOL     OW37155   7.430   8.365   7.736  0.0871 -0.0903  0.3033
11912SOL    HW137156   7.339   8.338   7.731  0.3486 -0.8729 -0.6706
11912SOL    HW237157   7.456   8.348   7.827 -1.2851  2.1025  1.1845
11913SOL     OW37158   8.271   4.367   4.583 -0.8930 -0.1274  0.3126
11913SOL    HW137159   8.202   4.432   4.596 -0.8391  0.0073 -0.0617
11913SOL    HW237160   8.299   4.344   4.671  1.1090  2.5507  0.4879
11914SOL     OW37161   0.196   4.846   4.356  0.2647  0.2193  0.2009
11914SOL    HW137162   0.238   4.929   4.336  0.9021 -0.3737 -1.0543
11914SOL    HW237163   0.261   4.780   4.334 -1.1664 -0.7278 -1.5159
11915SOL     OW37164   5.127   1.838   4.269 -0.2640 -0.1695  0.1420
11915SOL    HW137165   5.220   1.819   4.278 -0.2363 -0.5984 -0.8690
11915SOL    HW237166   5.116   1.924   4.309  1.1202  1.1829 -2.1616
11916SOL     OW37167   5.828   2.903   6.560 -0.0994 -0.5720  0.6767
11916SOL    HW137168   5.801   2.967   6.494  0.1385 -2.0430 -0.9247
11916SOL    HW237169   5.765   2.912   6.631 -2.0898 -0.8286 -0.9881
11917SOL     OW37170   5.834   1.239   1.881 -0.1462 -0.1163 -0.1588
11917SOL    HW137171   5.887   1.170   1.843 -2.0807 -1.6999 -0.1831
11917SOL    HW237172   5.797   1.285   1.806  0.2023  0.1895 -0.1461
11918SOL     OW37173   1.717   3.258   3.689  0.1361  0.1157 -0.8399
11918SOL    HW137174   1.794   3.207   3.711 -0.9759 -1.0453  0.5980
11918SOL    HW237175   1.692   3.301   3.771 -1.6686 -0.8711 -0.8174
11919SOL     OW37176   5.652   0.125   5.509  0.0450 -0.5754 -0.2128
11919SOL    HW137177   5.594   0.185   5.462 -2.2100 -1.6415  1.0204
11919SOL    HW237178   5.679   0.175   5.587 -1.7621 -1.0153  0.7705
11920SOL     OW37179   6.414   7.277   2.191 -0.1090  0.1864 -0.2615
11920SOL    HW137180   6.417   7.240   2.103 -0.6063 -0.6343  0.0519
11920SOL    HW237181   6.389   7.369   2.178 -2.3472 -0.4431 -0.8712
11921SOL     OW37182   5.655   3.582   3.946  0.0975 -0.6153 -0.0960
11921SOL    HW137183   5.583   3.543   3.997  0.9183 -1.1581  0.6953
11921SOL    HW237184   5.681   3.658   3.997 -0.1784 -0.1776 -0.6007
11922SOL     OW37185   7.727   2.625   2.203 -0.3492 -0.3797  0.2848
11922SOL    HW137186   7.635   2.644   2.219 -0.6888  0.6168 -2.4064
11922SOL    HW237187   7.726   2.558   2.134  0.8722  0.8529 -1.0085
11923SOL     OW37188   1.779   3.580   7.007 -0.1490 -0.7821  0.1414
11923SOL    HW137189   1.825   3.659   7.035 -0.4827 -0.0478 -1.2906
11923SOL    HW237190   1.792   3.577   6.913 -2.0349 -1.1829 -0.1480
11924SOL     OW37191   6.461   7.559   7.309  0.2756  0.0432  0.1851
11924SOL    HW137192   6.431   7.514   7.389  1.1462 -0.6068  0.1646
11924SOL    HW237193   6.416   7.513   7.238 -1.3622  1.3360  0.3379
11925SOL     OW37194   3.181   1.911   0.680 -0.0493 -0.3150 -0.4537
11925SOL    HW137195   3.224   1.979   0.629  1.5424 -0.4524  0.6152
11925SOL    HW237196   3.189   1.832   0.625  0.7261 -0.2464 -0.4584
11926SOL     OW37197   5.505   3.335   5.227  0.4085 -0.0973 -0.7531
11926SOL    HW137198   5.534   3.244   5.242 -1.4584 -0.6267 -0.0284
11926SOL    HW237199   5.452   3.331   5.148 -2.5538 -0.4301  1.0818
11927SOL     OW37200   1.619   3.246   3.420  0.2716 -0.2508  0.1563
11927SOL    HW137201   1.651   3.238   3.510  0.0397 -2.6798  0.0764
11927SOL    HW237202   1.524   3.235   3.427  0.1996  0.0162 -0.3481
11928SOL     OW37203   3.206   8.370   7.984 -0.0069  0.3967 -0.3723
11928SOL    HW137204   3.230   8.346   7.894 -0.9044  1.7106 -0.9874
11928SOL    HW237205   3.290   8.380   8.029  0.4808  0.3802 -1.2553
11929SOL     OW37206   2.357   5.678   1.104 -0.0586  0.3117  0.5087
11929SOL    HW137207   2.387   5.587   1.109 -1.2391 -0.0528  1.7241
11929SOL    HW237208   2.434   5.731   1.125  0.3403 -0.4586  1.0024
11930SOL     OW37209   2.127   0.186   7.658  0.5108 -0.0059  0.1052
11930SOL    HW137210   2.204   0.150   7.701  1.1783 -2.0359 -2.5515
11930SOL    HW237211   2.058   0.122   7.676 -0.0839  0.8181  0.8395
11931SOL     OW37212   8.128   5.385   3.129  0.0633  0.4748 -0.2777
11931SOL    HW137213   8.075   5.313   3.162  0.4767  0.1106 -0.3995
11931SOL    HW237214   8.086   5.412   3.048 -0.7553  1.1386  0.3428
11932SOL     OW37215   6.868   6.112   0.212 -0.3296  0.3300  0.0757
11932SOL    HW137216   6.869   6.094   0.118 -1.3436 -0.4372  0.1926
11932SOL    HW237217   6.775   6.104   0.237  0.1643 -1.9239  1.5560
11933SOL     OW37218   1.043   2.319   8.190  0.1578 -0.1229 -0.2341
11933SOL    HW137219   1.016   2.228   8.203  0.8611 -0.1009  1.5618
11933SOL    HW237220   1.113   2.314   8.125 -0.2833 -0.7816 -0.6665
11934SOL     OW37221   3.999   4.191   0.308 -0.6076 -0.0864 -0.0605
11934SOL    HW137222   3.972   4.256   0.243  1.0409 -1.8751 -2.7015
11934SOL    HW237223   3.923   4.133   0.316 -1.8302  1.5912  1.8063
11935SOL     OW37224   4.135   1.183   1.726 -0.2553  0.3254  0.6442
11935SOL    HW137225   4.169   1.113   1.671 -0.2531  0.4220  0.5218
11935SOL    HW237226   4.200   1.253   1.719 -0.2332  0.3210  0.8046
11936SOL     OW37227   5.466   7.772   5.020  0.0881 -0.5947  0.3898
11936SOL    HW137228   5.421   7.690   5.041 -1.8799  0.6470  1.2899
11936SOL    HW237229   5.496   7.805   5.105 -0.0243  0.1034  0.1624
11937SOL     OW37230   2.081   3.758   0.808  0.5730  0.0734 -0.3824
11937SOL    HW137231   2.080   3.705   0.729 -0.0128  0.2091 -0.4654
11937SOL    HW237232   2.110   3.698   0.877  1.1216 -0.0340 -0.6963
11938SOL     OW37233   0.887   2.576   0.124  0.3846  0.1349 -0.2870
11938SOL    HW137234   0.861   2.511   0.058  0.5038  0.1382 -0.3368
11938SOL    HW237235   0.966   2.616   0.088  1.4669 -1.0861  0.6768
11939SOL     OW37236   2.559   5.490   5.109 -0.2341  0.0559  0.3266
11939SOL    HW137237   2.573   5.444   5.026 -1.4539 -0.3028  0.3024
11939SOL    HW237238   2.504   5.566   5.085 -1.3418 -0.5386  0.9172
11940SOL     OW37239   0.002   8.370   3.071 -0.5387 -0.6912  0.1076
11940SOL    HW137240   0.011   8.390   2.978  2.8414 -0.5652  0.3196
11940SOL    HW237241  -0.037   8.448   3.109 -1.9480 -0.7425 -1.1541
11941SOL     OW37242   4.129   5.736   2.282  0.1781  0.2510 -0.0906
11941SOL    HW137243   4.177   5.811   2.315 -0.1534  0.1448  0.6496
11941SOL    HW237244   4.037   5.755   2.302 -0.2120  0.7710 -2.0769
11942SOL     OW37245   3.174   2.251   1.462  0.5129 -0.7195 -0.7422
11942SOL    HW137246   3.190   2.346   1.460  0.5988 -0.7203 -0.1901
11942SOL    HW237247   3.234   2.218   1.529  0.0436 -1.0791 -0.4924
11943SOL     OW37248   6.008   7.727   5.919  0.1518 -0.6290  0.6053
11943SOL    HW137249   5.934   7.764   5.968 -0.2835 -0.8549  0.1235
11943SOL    HW237250   5.968   7.688   5.841  0.8795  0.0305 -0.1040
11944SOL     OW37251   7.618   5.703   7.611 -0.5249  0.1913 -0.0674
11944SOL    HW137252   7.685   5.676   7.547  0.0780 -0.7839  0.9379
11944SOL    HW237253   7.609   5.628   7.669 -0.1259  1.5026  1.7665
11945SOL     OW37254   2.247   6.995   2.102  0.1336 -0.3491 -0.2187
11945SOL    HW137255   2.164   6.976   2.146 -0.4151 -0.2275 -1.1891
11945SOL    HW237256   2.313   6.982   2.171 -0.5980 -1.3473  0.3351
11946SOL     OW37257   4.215   3.929   1.932  0.2033 -0.5539 -0.0772
11946SOL    HW137258   4.204   3.890   1.845  1.3240  0.3688 -0.6559
11946SOL    HW237259   4.281   3.997   1.919 -0.1680  0.0957  1.3530
11947SOL     OW37260   2.468   1.268   1.220  0.6276  0.5556  0.1961
11947SOL    HW137261   2.383   1.267   1.263  0.7369 -1.8229  0.5117
11947SOL    HW237262   2.448   1.270   1.127  0.2477  0.6303  0.2767
11948SOL     OW37263   3.051   8.297   5.864  0.2520  0.2552 -0.2319
11948SOL    HW137264   3.097   8.335   5.939  1.4817 -0.1868 -0.7391
11948SOL    HW237265   3.080   8.349   5.789  0.5335 -0.5264 -0.6701
11949SOL     OW37266   1.843   4.106   4.810 -0.1299 -0.7196  0.0882
11949SOL    HW137267   1.818   4.196   4.829  2.1321 -0.4166  2.2805
11949SOL    HW237268   1.798   4.054   4.876  2.9485 -0.3865  2.7351
11950SOL     OW37269   7.395   2.130   3.934 -0.3892 -0.0920 -0.4108
11950SOL    HW137270   7.458   2.135   4.006 -0.1126  2.4349 -0.7439
11950SOL    HW237271   7.357   2.042   3.942  0.8279 -0.4974  1.7688
11951SOL     OW37272   3.303   3.710   3.977  0.1992 -0.6750 -0.0858
11951SOL    HW137273   3.284   3.637   3.918  2.1171 -1.9949  0.8496
11951SOL    HW237274   3.302   3.672   4.064 -0.1939  0.7395  0.5544
11952SOL     OW37275   7.221   1.839   1.728 -0.4029  0.0783 -0.4403
11952SOL    HW137276   7.138   1.876   1.698 -0.4545 -0.4179 -0.9369
11952SOL    HW237277   7.200   1.749   1.752 -0.0583  0.0248 -0.3354
11953SOL     OW37278   1.721   2.441   3.468 -0.3285 -0.0863  0.5023
11953SOL    HW137279   1.659   2.419   3.398 -0.3675  0.2517  0.4293
11953SOL    HW237280   1.807   2.416   3.433 -0.5569 -1.8070  1.1241
11954SOL     OW37281   4.908   4.548   6.115 -0.4550 -0.0283  0.1962
11954SOL    HW137282   4.985   4.530   6.060 -0.2613  1.3066 -0.0124
11954SOL    HW237283   4.938   4.616   6.175 -0.9238 -0.8781  1.4104
11955SOL     OW37284   6.121   2.595   2.836  0.6164  0.3735  0.4440
11955SOL    HW137285   6.176   2.667   2.806  0.4017  0.1251 -0.5718
11955SOL    HW237286   6.173   2.517   2.817  0.3499  0.1957  0.4495
11956SOL     OW37287   6.096   7.910   0.880 -0.0484 -0.4960 -0.6313
11956SOL    HW137288   6.132   7.995   0.855  0.1719 -0.1288  0.8300
11956SOL    HW237289   6.066   7.922   0.970 -5.4084 -0.2403 -2.0635
11957SOL     OW37290   3.628   4.814   1.137  0.1157 -0.1631 -0.2227
11957SOL    HW137291   3.653   4.906   1.128  1.6730 -0.6793 -1.6240
11957SOL    HW237292   3.708   4.770   1.165 -0.1711 -1.3463 -1.2103
11958SOL     OW37293   3.036   4.379   2.143 -0.0514 -0.3218 -0.5800
11958SOL    HW137294   3.085   4.369   2.224 -0.1206 -1.3256 -0.6476
11958SOL    HW237295   2.957   4.427   2.167 -0.0115 -0.5084 -0.0802
11959SOL     OW37296   8.176   2.402   8.359 -0.3935  0.0357 -0.3002
11959SOL    HW137297   8.164   2.375   8.450 -0.9645 -1.8202 -0.8865
11959SOL    HW237298   8.155   2.495   8.360 -1.8931 -0.2512  1.2139
11960SOL     OW37299   4.789   6.605   6.696 -0.2563 -0.8208 -0.3218
11960SOL    HW137300   4.703   6.647   6.708 -0.3233 -0.3920 -2.1504
11960SOL    HW237301   4.771   6.531   6.638  0.9009  0.5019 -2.4922
11961SOL     OW37302   6.833   0.237   5.551 -0.5270 -0.0502  0.3259
11961SOL    HW137303   6.793   0.150   5.545  2.2694 -1.3558 -2.1828
11961SOL    HW237304   6.807   0.281   5.470 -1.5729  1.3657  1.3809
11962SOL     OW37305   3.757   5.318   0.744  0.0845 -0.2936 -0.0889
11962SOL    HW137306   3.705   5.354   0.672  0.4871 -0.0534 -0.2595
11962SOL    HW237307   3.848   5.332   0.717  0.2523  1.1173  1.1137
11963SOL     OW37308   8.325   7.670   4.053 -0.2739  0.4905  0.0678
11963SOL    HW137309   8.388   7.741   4.067  1.2425 -1.0636  1.5041
11963SOL    HW237310   8.377   7.598   4.017 -1.0315 -1.1017  1.9982
11964SOL     OW37311   5.226   0.265   6.204  0.3204 -0.2106  0.1076
11964SOL    HW137312   5.260   0.269   6.294  0.1062  2.2202  0.1472
11964SOL    HW237313   5.132   0.254   6.214  0.1855  0.9406  0.2404
11965SOL     OW37314   6.910   3.281   1.248  0.2629  0.1644  0.0590
11965SOL    HW137315   6.826   3.236   1.257 -0.1207  1.0020  0.8534
11965SOL    HW237316   6.973   3.223   1.289 -0.4369  0.9008  2.3387
11966SOL     OW37317   6.981   6.809   2.822  0.5349 -0.3644  0.0783
11966SOL    HW137318   6.952   6.877   2.761  1.8450 -0.3422 -0.5672
11966SOL    HW237319   6.958   6.843   2.908 -1.6438 -0.5391 -0.4007
11967SOL     OW37320   8.196   7.064   6.777 -0.3222  0.1190  0.0898
11967SOL    HW137321   8.244   7.038   6.856  0.7983  1.2523 -0.1882
11967SOL    HW237322   8.255   7.042   6.705 -0.5413  0.8387 -0.3138
11968SOL     OW37323   7.864   5.466   3.627 -0.1647  0.6858 -0.1929
11968SOL    HW137324   7.930   5.508   3.571 -0.1241  1.9525  0.7659
11968SOL    HW237325   7.887   5.373   3.625  1.5670  1.0650 -0.0178
11969SOL     OW37326   4.158   3.091   7.097 -0.4366  0.1331  0.2869
11969SOL    HW137327   4.179   3.037   7.021  0.9737  2.0077 -0.7312
11969SOL    HW237328   4.155   3.180   7.063  0.1611  1.0267  2.4213
11970SOL     OW37329   5.966   5.205   0.457 -0.2729  0.7694 -0.5008
11970SOL    HW137330   5.965   5.294   0.423  2.5441  0.9362 -0.4232
11970SOL    HW237331   5.886   5.165   0.424 -1.6564  3.3109 -0.4748
11971SOL     OW37332   6.968   1.593   7.012  0.0682  0.3157 -0.7228
11971SOL    HW137333   6.928   1.638   7.087  0.0902 -2.0089  0.7837
11971SOL    HW237334   7.037   1.653   6.983 -0.4391  1.6277  0.6244
11972SOL     OW37335   1.352   7.164   7.197  0.0766 -0.0848  0.1063
11972SOL    HW137336   1.356   7.204   7.284 -2.1693 -0.5564  0.4860
11972SOL    HW237337   1.311   7.231   7.142  3.7274  1.2267 -1.3254
11973SOL     OW37338   2.326   5.043   3.096 -0.0345  0.5357  0.7051
11973SOL    HW137339   2.359   4.971   3.043 -0.3306  1.5806 -0.9956
11973SOL    HW237340   2.370   5.033   3.181  2.0786 -0.0395 -0.3893
11974SOL     OW37341   0.168   0.315   6.046 -0.3888  0.2963 -0.6323
11974SOL    HW137342   0.152   0.225   6.017 -0.7926  0.4251 -0.8240
11974SOL    HW237343   0.261   0.330   6.030 -0.4470  0.1123 -1.1736
11975SOL     OW37344   2.053   0.795   4.512 -0.1872 -0.8104 -0.0847
11975SOL    HW137345   2.136   0.838   4.487  0.8959  0.2036  4.4360
11975SOL    HW237346   1.992   0.867   4.523 -1.3321 -1.4398 -1.8583
11976SOL     OW37347   0.328   3.034   3.784 -0.0757 -0.2329  0.0811
11976SOL    HW137348   0.276   3.041   3.863 -0.4042  1.2919 -0.2479
11976SOL    HW237349   0.272   2.987   3.722 -0.6467  0.4326  0.0856
11977SOL     OW37350   7.908   3.900   1.979 -0.5497 -0.4206 -0.1352
11977SOL    HW137351   7.813   3.891   1.983 -0.8084  1.6596 -0.3664
11977SOL    HW237352   7.931   3.946   2.060 -0.0487  1.0300 -1.0676
11978SOL     OW37353   1.222   3.206   7.011  0.3049 -0.3295  0.0686
11978SOL    HW137354   1.171   3.148   7.068 -0.1983 -0.5038 -0.5490
11978SOL    HW237355   1.157   3.246   6.953  0.7938 -0.0676 -0.3055
11979SOL     OW37356   6.236   8.143   6.722 -0.1661 -0.0135 -0.2070
11979SOL    HW137357   6.167   8.200   6.757 -0.8987 -1.7182  1.3044
11979SOL    HW237358   6.206   8.121   6.634 -0.4374  0.9975 -0.3821
11980SOL     OW37359   0.355   3.361   2.849 -0.6146 -0.1444  0.4108
11980SOL    HW137360   0.365   3.456   2.854  0.1587 -0.2416  1.0836
11980SOL    HW237361   0.269   3.344   2.886  0.0608  0.1613  2.2501
11981SOL     OW37362   4.873   4.373   0.699 -0.6657 -0.1934 -0.0043
11981SOL    HW137363   4.844   4.434   0.630 -1.1280 -2.1335 -1.6259
11981SOL    HW237364   4.794   4.324   0.722 -0.1844 -0.5718  0.8696
11982SOL     OW37365   1.060   4.259   3.260 -0.1499 -0.2313 -0.2094
11982SOL    HW137366   0.992   4.292   3.201  0.9819  0.5677 -1.1254
11982SOL    HW237367   1.141   4.268   3.210  0.6946 -0.6971  1.0317
11983SOL     OW37368   2.194   3.782   7.882  0.3740  0.2598 -0.1226
11983SOL    HW137369   2.288   3.791   7.891  0.3941  1.5290 -1.2358
11983SOL    HW237370   2.161   3.872   7.880 -0.6159 -0.0872 -1.6968
11984SOL     OW37371   6.508   6.566   6.519 -0.2182  0.2322  0.2670
11984SOL    HW137372   6.598   6.589   6.543  0.2827 -0.3443 -1.0028
11984SOL    HW237373   6.497   6.477   6.553  0.5372 -0.6375 -1.6173
11985SOL     OW37374   8.025   4.565   7.679  0.0145  0.3301 -0.2640
11985SOL    HW137375   7.986   4.623   7.745 -0.0152  0.5699 -0.4907
11985SOL    HW237376   8.110   4.541   7.714 -0.4383 -0.4217  0.3714
11986SOL     OW37377   6.202   5.067   2.085  0.0113 -0.5281  0.2258
11986SOL    HW137378   6.173   5.145   2.132 -1.9997 -0.5906 -0.7854
11986SOL    HW237379   6.150   5.068   2.004  1.2427 -1.9696 -0.6342
11987SOL     OW37380   0.060   8.259   4.446  0.0296  0.2343 -0.0646
11987SOL    HW137381   0.066   8.327   4.379  2.2299  1.9718  1.7099
11987SOL    HW237382   0.028   8.305   4.524 -1.1496 -1.4155  0.4833
11988SOL     OW37383   5.314   4.950   8.203  0.0627  0.0433 -0.4994
11988SOL    HW137384   5.331   4.866   8.160 -0.0233  0.4156 -1.2855
11988SOL    HW237385   5.359   4.944   8.287 -0.5768 -1.0824 -0.2146
11989SOL     OW37386   5.892   8.006   4.984  0.8769 -0.1718 -0.2853
11989SOL    HW137387   5.864   8.055   4.907  1.0410 -0.5598 -0.5946
11989SOL    HW237388   5.881   8.067   5.057 -0.0086 -0.0499 -0.5100
11990SOL     OW37389   2.014   6.830   0.967  0.2594 -0.0421  0.2673
11990SOL    HW137390   2.068   6.751   0.980 -0.4421 -0.4813  0.5312
11990SOL    HW237391   2.010   6.870   1.054 -0.7191 -0.5892  0.4912
11991SOL     OW37392   4.272   2.148   7.299  0.0857 -0.2968 -0.1262
11991SOL    HW137393   4.242   2.214   7.362 -0.6385 -1.7619  1.1250
11991SOL    HW237394   4.366   2.144   7.312  0.3019  1.2437 -0.9997
11992SOL     OW37395   6.728   0.599   1.809 -0.0529  0.2570 -0.2950
11992SOL    HW137396   6.677   0.587   1.729 -0.5384  1.1727 -0.1318
11992SOL    HW237397   6.751   0.509   1.835 -0.5481 -0.1003 -1.0303
11993SOL     OW37398   3.806   8.285   0.076 -0.4014  0.0058 -0.1968
11993SOL    HW137399   3.767   8.357   0.126 -0.4836  0.2972 -0.6617
11993SOL    HW237400   3.889   8.267   0.120  1.2387  2.6169 -1.8868
11994SOL     OW37401   7.924   8.290   0.835  0.3218 -0.1438 -0.0989
11994SOL    HW137402   7.991   8.296   0.767  0.2957 -1.3033 -0.2538
11994SOL    HW237403   7.849   8.339   0.800  0.5469 -0.1623 -0.6135
11995SOL     OW37404   7.783   3.209   4.465 -0.0840 -0.0740  0.5718
11995SOL    HW137405   7.828   3.129   4.493 -1.0287 -0.5439  0.8040
11995SOL    HW237406   7.721   3.227   4.536  1.1374  1.7431  1.2543
11996SOL     OW37407   4.852   3.774   3.458  0.4073 -0.3239 -0.3020
11996SOL    HW137408   4.811   3.835   3.397  1.4552  1.2240  0.4861
11996SOL    HW237409   4.800   3.694   3.450 -1.9903  1.1346 -0.2494
11997SOL     OW37410   1.080   5.945   3.360 -0.2654 -0.0616  0.6432
11997SOL    HW137411   1.054   5.992   3.280 -2.4568  2.0328  2.4251
11997SOL    HW237412   1.124   6.011   3.413 -0.1737 -0.9918  1.7632
11998SOL     OW37413   3.985   5.690   3.571 -0.2809  0.0129 -0.1582
11998SOL    HW137414   3.915   5.727   3.518 -1.2616  0.0232  1.0941
11998SOL    HW237415   3.943   5.622   3.623 -0.5441  2.9633  3.9955
11999SOL     OW37416   7.235   4.651   6.085  0.2572 -0.4722 -0.1388
11999SOL    HW137417   7.240   4.692   5.999 -0.4993 -1.3912 -0.6421
11999SOL    HW237418   7.159   4.691   6.127  0.3669 -0.3350 -0.0722
12000SOL     OW37419   7.777   3.554   7.373  0.0398  0.0287  0.5634
12000SOL    HW137420   7.827   3.603   7.438  0.8617 -1.9055  1.4649
12000SOL    HW237421   7.720   3.497   7.424 -0.0708 -0.7705 -0.4184
12001SOL     OW37422   1.530   3.919   7.061 -0.3738 -0.6969  0.3529
12001SOL    HW137423   1.541   3.883   7.149 -0.8985 -2.1532 -0.1401
12001SOL    HW237424   1.607   3.975   7.047 -0.4281 -0.2319  1.8223
12002SOL     OW37425   2.209   2.563   1.989  0.0835  0.0274 -0.5365
12002SOL    HW137426   2.205   2.655   1.962  0.5444  0.5035  0.9244
12002SOL    HW237427   2.292   2.555   2.036 -1.0732 -0.5075  1.5087
12003SOL     OW37428   6.861   0.267   5.237 -0.0789 -0.0072  0.8537
12003SOL    HW137429   6.911   0.334   5.284 -0.0489  1.5818 -1.2979
12003SOL    HW237430   6.771   0.301   5.236 -0.0062  0.1731 -0.5187
12004SOL     OW37431   2.821   2.158   4.119  0.5379 -0.0082  0.3915
12004SOL    HW137432   2.869   2.214   4.180 -0.8611 -0.5628  2.0444
12004SOL    HW237433   2.773   2.096   4.174  2.0806 -2.9992 -1.3379
12005SOL     OW37434   6.555   5.279   6.800  0.3419 -0.0856  0.2024
12005SOL    HW137435   6.602   5.290   6.717  1.7857 -0.7880  0.9034
12005SOL    HW237436   6.616   5.308   6.867 -0.4835 -0.3635  1.1037
12006SOL     OW37437   3.352   4.377   1.031 -0.3306  0.6634 -0.4814
12006SOL    HW137438   3.333   4.305   1.091 -0.3568  1.4216  0.4481
12006SOL    HW237439   3.419   4.428   1.076 -2.7830  3.2210  0.5802
12007SOL     OW37440   7.265   7.327   4.782 -0.0440  0.1367  0.3447
12007SOL    HW137441   7.306   7.403   4.824 -0.8684  1.0119 -0.3706
12007SOL    HW237442   7.240   7.359   4.695 -0.5135 -0.9266  0.0750
12008SOL     OW37443   3.229   6.090   7.051  0.7504  0.3675 -0.3203
12008SOL    HW137444   3.295   6.021   7.050  0.0478 -0.3333  0.0205
12008SOL    HW237445   3.148   6.046   7.026  0.2202  0.9960  0.2396
12009SOL     OW37446   5.813   7.753   8.001 -0.2356  0.1966  0.7273
12009SOL    HW137447   5.863   7.819   8.050 -1.1915  1.3911  0.1291
12009SOL    HW237448   5.725   7.758   8.038 -0.6156  0.1299 -0.1567
12010SOL     OW37449   4.365   8.366   7.052 -0.1679 -0.0112 -0.2159
12010SOL    HW137450   4.366   8.443   7.109  0.0934  0.4593 -0.8463
12010SOL    HW237451   4.292   8.382   6.992 -0.4885 -0.5370  0.0268
12011SOL     OW37452   1.715   4.034   2.839 -0.8047  0.0898 -0.0510
12011SOL    HW137453   1.655   3.983   2.785 -2.1035  0.1090  1.3021
12011SOL    HW237454   1.666   4.051   2.919  1.3117 -0.6574  1.5024
12012SOL     OW37455   2.985   2.762   3.597  0.2000  0.0351  0.1341
12012SOL    HW137456   3.075   2.757   3.567  0.7972  1.0247  1.6321
12012SOL    HW237457   2.978   2.693   3.664 -0.5156 -0.7985 -0.7620
12013SOL     OW37458   2.179   6.944   0.576  0.1495 -0.5172  0.2380
12013SOL    HW137459   2.120   6.968   0.647  0.5018 -2.1360  1.1464
12013SOL    HW237460   2.201   6.852   0.594 -0.2090 -1.1760 -2.3053
12014SOL     OW37461   7.054   3.391   0.236  0.4198 -0.1767 -0.4032
12014SOL    HW137462   7.088   3.338   0.308 -1.5946  0.1590  0.8613
12014SOL    HW237463   7.007   3.328   0.180  0.0493 -0.0874 -0.1919
12015SOL     OW37464   3.411   6.803   5.545  0.3929 -0.0529  0.2820
12015SOL    HW137465   3.411   6.832   5.637  1.8867 -1.0928  0.6400
12015SOL    HW237466   3.437   6.711   5.549  0.1988 -0.1882 -1.1792
12016SOL     OW37467   5.381   7.606   6.621  0.6703 -0.0149  0.8401
12016SOL    HW137468   5.357   7.574   6.534 -1.1874  1.3152  0.7980
12016SOL    HW237469   5.310   7.574   6.678 -0.1761  2.2205  1.1464
12017SOL     OW37470   6.252   1.204   6.364  0.1359 -0.1229 -0.0682
12017SOL    HW137471   6.216   1.189   6.277  1.8819  2.1421 -1.2972
12017SOL    HW237472   6.233   1.297   6.382 -1.7650 -0.9411  2.8175
12018SOL     OW37473   0.616   1.398   5.542  0.0493 -0.3520  0.3352
12018SOL    HW137474   0.632   1.338   5.615 -1.0351 -1.3890 -0.2527
12018SOL    HW237475   0.638   1.347   5.464 -1.4254 -0.1994 -0.2076
12019SOL     OW37476   6.866   4.188   3.642  0.2572  0.4470  0.2743
12019SOL    HW137477   6.949   4.159   3.604 -1.1007 -0.5050 -2.2486
12019SOL    HW237478   6.866   4.154   3.731  2.3627  0.1003  0.1844
12020SOL     OW37479   2.770   8.343   2.651 -0.4448  0.4084  0.2114
12020SOL    HW137480   2.812   8.260   2.674  0.3585  0.7409 -0.0308
12020SOL    HW237481   2.843   8.403   2.637 -0.8931  0.3900 -2.6422
12021SOL     OW37482   5.720   5.545   4.732 -0.0678 -0.1476  0.2651
12021SOL    HW137483   5.779   5.589   4.793 -0.0580  0.8402 -0.4387
12021SOL    HW237484   5.778   5.494   4.675 -0.1402 -1.8887  1.6817
12022SOL     OW37485   2.566   4.380   2.211  0.3202  0.8160  0.0833
12022SOL    HW137486   2.507   4.342   2.146  0.3097  0.1854  0.4488
12022SOL    HW237487   2.522   4.364   2.295  1.3492 -0.3386  0.4236
12023SOL     OW37488   3.562   5.054   8.290  0.2010  0.4259  0.7515
12023SOL    HW137489   3.576   5.126   8.352  1.6398  1.1313 -0.3157
12023SOL    HW237490   3.472   5.025   8.306 -0.7325  2.9983  0.7167
12024SOL     OW37491   5.731   4.830   6.674 -0.3310 -0.0080 -0.6455
12024SOL    HW137492   5.648   4.807   6.717 -0.4563  1.4221 -0.0915
12024SOL    HW237493   5.793   4.764   6.707 -0.9710 -0.3828 -0.1523
12025SOL     OW37494   3.002   7.512   8.160 -0.3572  0.3430 -0.1211
12025SOL    HW137495   3.096   7.520   8.142 -0.5460  1.3488 -0.7345
12025SOL    HW237496   2.973   7.439   8.107  0.1713 -0.2940  0.4515
12026SOL     OW37497   3.576   7.853   3.551  0.1108 -1.1529  0.2300
12026SOL    HW137498   3.526   7.928   3.521 -0.2317 -1.4403  0.0819
12026SOL    HW237499   3.604   7.808   3.471  1.2499 -0.5812  0.2843
12027SOL     OW37500   4.614   5.153   7.242  0.2554  0.2380  0.6290
12027SOL    HW137501   4.583   5.079   7.190 -0.4247  0.5881  0.5117
12027SOL    HW237502   4.570   5.229   7.204  2.2775  0.9668 -0.3683
12028SOL     OW37503   1.634   0.285   4.123  0.3606  0.2878  0.1584
12028SOL    HW137504   1.593   0.367   4.096  1.0941  0.5864 -0.0689
12028SOL    HW237505   1.687   0.309   4.199 -0.3799 -0.2209  0.8541
12029SOL     OW37506   0.451   0.512   6.925 -0.1556 -0.1777  0.6808
12029SOL    HW137507   0.402   0.493   7.005 -1.9398 -0.4169 -0.4046
12029SOL    HW237508   0.495   0.595   6.942  1.4051 -1.3386  2.7118
12030SOL     OW37509   0.462   7.127   3.135 -0.4199  0.2854  0.4343
12030SOL    HW137510   0.371   7.146   3.114 -0.3833  0.6157  0.5603
12030SOL    HW237511   0.471   7.032   3.124 -0.3487  0.4667 -1.1952
12031SOL     OW37512   2.979   2.461   3.387 -0.1779 -0.2900  0.1498
12031SOL    HW137513   3.068   2.484   3.360 -0.2791 -0.2944 -0.1969
12031SOL    HW237514   2.990   2.416   3.471  0.0221  1.1464  0.9274
12032SOL     OW37515   1.742   4.790   7.875 -0.2990 -0.2887  0.0021
12032SOL    HW137516   1.654   4.762   7.848 -0.4511 -0.9222  1.0752
12032SOL    HW237517   1.776   4.716   7.925  0.5259  0.2706  0.2862
12033SOL     OW37518   1.429   0.798   4.753  0.2507 -0.2891 -0.0519
12033SOL    HW137519   1.504   0.784   4.694 -0.2198  0.8173 -0.9614
12033SOL    HW237520   1.365   0.731   4.727  0.8070 -1.0634  0.5451
12034SOL     OW37521   0.161   0.680   6.865 -1.0690  0.6172  0.1486
12034SOL    HW137522   0.148   0.651   6.956 -2.5000  0.6833 -0.0214
12034SOL    HW237523   0.184   0.772   6.872  0.1185  0.3227  0.4938
12035SOL     OW37524   3.417   3.913   7.207 -0.2115 -1.2467 -0.3282
12035SOL    HW137525   3.486   3.852   7.180  0.9360 -0.9345  1.6559
12035SOL    HW237526   3.402   3.891   7.299 -1.2579  0.0955 -0.1586
12036SOL     OW37527   2.354   7.411   2.518  0.4071 -0.3020 -0.1285
12036SOL    HW137528   2.310   7.407   2.433 -1.3331 -1.8649  0.7769
12036SOL    HW237529   2.437   7.365   2.504 -0.0704 -0.9566 -0.8715
12037SOL     OW37530   5.035   0.199   1.226  0.3181 -0.1934  0.1442
12037SOL    HW137531   4.993   0.147   1.157  0.5061  0.9417 -0.8545
12037SOL    HW237532   5.097   0.139   1.266 -0.3196 -1.0929 -0.1803
12038SOL     OW37533   6.186   5.524   0.149  0.1197  0.3920 -0.2528
12038SOL    HW137534   6.279   5.543   0.162 -0.0273  1.2801 -0.4223
12038SOL    HW237535   6.173   5.534   0.055 -0.2062  0.5389 -0.1918
12039SOL     OW37536   4.965   0.822   3.067 -0.0880 -0.1418 -0.3927
12039SOL    HW137537   5.043   0.866   3.098  0.0846 -0.3376 -0.5429
12039SOL    HW237538   4.892   0.875   3.098  0.0576 -0.6210  0.8088
12040SOL     OW37539   2.765   2.465   8.152 -0.0081  0.5288 -0.2261
12040SOL    HW137540   2.677   2.456   8.189 -0.8178 -0.2860 -2.1952
12040SOL    HW237541   2.753   2.523   8.077  1.2010  0.6627 -0.3309
12041SOL     OW37542   6.922   0.478   3.885 -0.2546 -0.0496  0.3118
12041SOL    HW137543   6.963   0.408   3.834 -0.9016 -0.1364 -0.1083
12041SOL    HW237544   6.896   0.436   3.967 -0.4957 -0.2699  0.1259
12042SOL     OW37545   1.090   4.451   2.927 -0.0631  0.0710  0.2237
12042SOL    HW137546   1.085   4.515   2.998 -0.7659  2.4129 -1.8146
12042SOL    HW237547   1.004   4.409   2.926 -0.3703  0.6905  0.2045
12043SOL     OW37548   3.037   7.757   4.659 -0.2412  0.2450 -0.0290
12043SOL    HW137549   2.977   7.807   4.604  1.0509  1.2954 -0.5375
12043SOL    HW237550   3.084   7.701   4.598 -0.0004  0.1589  0.2350
12044SOL     OW37551   7.457   1.836   3.213 -0.3729 -0.0042 -0.6514
12044SOL    HW137552   7.438   1.886   3.134 -0.4611  0.3347 -0.4176
12044SOL    HW237553   7.411   1.753   3.200  0.8685 -0.5683 -1.6305
12045SOL     OW37554   1.360   6.152   3.749  0.1084  0.2527  0.1297
12045SOL    HW137555   1.382   6.081   3.809 -1.2731  0.9196  1.4956
12045SOL    HW237556   1.371   6.232   3.800 -2.3127  0.7703 -0.0415
12046SOL     OW37557   5.388   6.525   1.112  0.0002  0.1294 -0.5078
12046SOL    HW137558   5.396   6.617   1.137 -1.4621  0.4104 -0.9685
12046SOL    HW237559   5.293   6.511   1.105  0.1897 -1.5219 -0.0383
12047SOL     OW37560   4.919   6.526   2.038 -0.3486  0.3590  0.0038
12047SOL    HW137561   4.876   6.482   1.965  0.2489  0.7264 -0.5814
12047SOL    HW237562   4.898   6.472   2.114  0.6119 -1.1181 -0.7410
12048SOL     OW37563   7.365   1.999   8.070 -0.0722 -0.5864 -0.4862
12048SOL    HW137564   7.320   2.083   8.082 -1.3587 -1.3194  0.0965
12048SOL    HW237565   7.442   2.006   8.126 -1.1630 -0.4551  1.1009
12049SOL     OW37566   0.181   6.523   7.132  0.0519 -0.4185 -0.1656
12049SOL    HW137567   0.143   6.439   7.107  0.4540 -0.8405  0.5895
12049SOL    HW237568   0.185   6.573   7.051 -1.2806 -0.6887 -0.4088
12050SOL     OW37569   5.511   3.416   6.674 -0.0344 -0.0329 -0.4662
12050SOL    HW137570   5.496   3.378   6.761  0.2168  0.4744 -0.1985
12050SOL    HW237571   5.509   3.341   6.614 -3.5266 -0.0869 -0.4735
12051SOL     OW37572   5.390   3.475   1.545 -0.0288  0.6394  0.3115
12051SOL    HW137573   5.328   3.512   1.608 -2.2240  1.5794 -2.1956
12051SOL    HW237574   5.425   3.551   1.499 -0.1556 -0.0791 -1.0193
12052SOL     OW37575   8.232   4.247   6.304 -0.2766  0.1788 -0.1356
12052SOL    HW137576   8.240   4.335   6.269  1.7543 -0.0249 -0.3205
12052SOL    HW237577   8.159   4.251   6.365 -0.5234  1.8595 -0.5133
12053SOL     OW37578   3.423   6.803   4.099 -0.4992  0.6865 -0.0263
12053SOL    HW137579   3.395   6.759   4.180 -0.3358  0.5971 -0.0171
12053SOL    HW237580   3.394   6.744   4.029 -1.8549  1.4077 -0.1160
12054SOL     OW37581   5.770   7.911   0.296 -0.2837  0.7114 -0.3125
12054SOL    HW137582   5.675   7.909   0.307 -0.1663  1.5813  1.1522
12054SOL    HW237583   5.790   7.830   0.248 -1.6718  0.0119  0.2185
12055SOL     OW37584   2.770   8.236   4.469 -0.7558  0.1053 -0.6512
12055SOL    HW137585   2.751   8.191   4.387 -0.8862 -0.6797 -0.2021
12055SOL    HW237586   2.685   8.272   4.496 -0.8925 -0.3448 -0.4556
12056SOL     OW37587   0.549   5.477   5.220 -0.2709 -0.0399 -0.7073
12056SOL    HW137588   0.604   5.555   5.220 -0.0326 -0.1664  0.8283
12056SOL    HW237589   0.517   5.470   5.130 -0.7929  2.1412 -0.7455
12057SOL     OW37590   3.985   0.883   7.927 -0.0652  0.3126  0.0301
12057SOL    HW137591   4.007   0.882   8.020 -1.2749 -2.2326  0.3903
12057SOL    HW237592   3.940   0.966   7.913  2.2737  1.8407  1.1068
12058SOL     OW37593   6.465   6.690   1.337 -0.5828  0.0512 -0.7090
12058SOL    HW137594   6.400   6.738   1.286 -1.5309  0.1732  0.5667
12058SOL    HW237595   6.419   6.665   1.417  1.1931  0.9843  0.6733
12059SOL     OW37596   4.469   7.762   0.145  0.2005 -0.0360 -0.0778
12059SOL    HW137597   4.416   7.741   0.068  1.0337 -1.3544 -0.3155
12059SOL    HW237598   4.558   7.741   0.119  0.4870 -0.5934  1.2698
12060SOL     OW37599   5.806   0.032   6.430 -0.2605  0.5942  0.3216
12060SOL    HW137600   5.768  -0.034   6.372  0.0029 -0.6310  1.4992
12060SOL    HW237601   5.900   0.013   6.429 -0.2471  0.6035  1.0880
12061SOL     OW37602   1.182   2.250   0.565  0.3838  0.2023  0.6425
12061SOL    HW137603   1.207   2.326   0.513  2.6341 -0.2799  0.9325
12061SOL    HW237604   1.087   2.245   0.555 -0.0413  3.7366  1.5836
12062SOL     OW37605   0.104   0.542   1.526 -0.3889 -0.0818 -0.1994
12062SOL    HW137606   0.070   0.457   1.553 -0.8195 -0.9627 -3.1099
12062SOL    HW237607   0.029   0.585   1.484  0.0074  1.4946  0.6106
12063SOL     OW37608   3.977   6.454   5.346 -0.1430  0.2857 -0.1661
12063SOL    HW137609   3.973   6.549   5.331  2.9251  0.9622  2.1323
12063SOL    HW237610   4.040   6.422   5.281  0.4690  0.2434  0.4375
12064SOL     OW37611   2.968   5.077   4.993  0.2722 -0.3081  0.4114
12064SOL    HW137612   2.985   4.992   4.953 -0.8655 -0.1832 -0.3993
12064SOL    HW237613   2.914   5.057   5.069 -0.6494 -0.2678 -0.2181
12065SOL     OW37614   2.300   7.473   1.562 -0.5244 -0.3347  0.5499
12065SOL    HW137615   2.223   7.416   1.562 -0.6255 -0.2011  1.2787
12065SOL    HW237616   2.347   7.450   1.642  0.7779 -1.1719 -0.4125
12066SOL     OW37617   4.849   3.223   2.892 -0.1537  0.0220  0.2635
12066SOL    HW137618   4.944   3.209   2.890 -0.0778  0.5920 -0.9373
12066SOL    HW237619   4.825   3.206   2.983  1.0180 -0.6378  0.4817
12067SOL     OW37620   4.392   4.390   0.759 -0.3690 -0.4685  0.1224
12067SOL    HW137621   4.346   4.401   0.842 -0.9304  1.0535 -0.3616
12067SOL    HW237622   4.484   4.403   0.782 -0.1969 -2.6430  0.9327
12068SOL     OW37623   2.540   1.082   6.400 -0.3306 -0.2030  0.4166
12068SOL    HW137624   2.601   1.107   6.331 -0.6567 -0.7317 -0.0624
12068SOL    HW237625   2.593   1.030   6.461 -0.8942 -3.1437 -1.4456
12069SOL     OW37626   7.815   6.410   2.495  0.6115 -0.2154  0.9508
12069SOL    HW137627   7.844   6.367   2.575 -0.9696  0.3292  1.8503
12069SOL    HW237628   7.720   6.417   2.503  0.4542  0.2913 -0.7563
12070SOL     OW37629   4.890   3.319   7.960 -0.1018 -0.1548 -0.1056
12070SOL    HW137630   4.942   3.246   7.994 -0.5848  0.0753  1.1590
12070SOL    HW237631   4.805   3.280   7.938  1.1232 -0.9781 -4.1260
12071SOL     OW37632   8.051   0.918   1.434 -0.1203  0.0590 -0.1635
12071SOL    HW137633   7.970   0.942   1.478  0.5356  1.0156  0.5533
12071SOL    HW237634   8.110   0.990   1.452  1.2216 -1.0810  0.1635
12072SOL     OW37635   4.465   3.623   5.971  0.3292 -0.0261 -0.2057
12072SOL    HW137636   4.428   3.582   6.050  5.5133  2.3396  4.0837
12072SOL    HW237637   4.408   3.697   5.953 -0.5010 -0.0685  1.9874
12073SOL     OW37638   4.972   5.271   3.258  0.1006  0.3690  0.3961
12073SOL    HW137639   4.961   5.364   3.238  2.8204  0.2043 -2.7909
12073SOL    HW237640   5.066   5.263   3.277 -0.2896 -1.5952  1.6852
12074SOL     OW37641   1.366   8.340   2.352 -0.0855  0.5075  0.5271
12074SOL    HW137642   1.301   8.408   2.373  0.7736  2.0828 -1.5361
12074SOL    HW237643   1.442   8.362   2.405  0.4151  1.6243 -0.5882
12075SOL     OW37644   5.789   5.477   3.088  0.3365  0.4796 -0.7555
12075SOL    HW137645   5.862   5.485   3.149  0.9740 -0.4331 -1.3852
12075SOL    HW237646   5.745   5.396   3.114  0.4253  0.2503 -1.3118
12076SOL     OW37647   3.039   5.092   3.106 -0.2311  0.9350  0.0191
12076SOL    HW137648   3.092   5.090   3.186 -0.6932  3.3344  0.4651
12076SOL    HW237649   3.005   5.003   3.097  3.8338 -0.8289 -0.3467
12077SOL     OW37650   4.797   5.685   5.587  0.1145 -0.3430 -0.2204
12077SOL    HW137651   4.791   5.774   5.550  0.6293 -1.1488 -2.4238
12077SOL    HW237652   4.776   5.696   5.679  1.0264  2.2079 -0.2263
12078SOL     OW37653   6.573   3.108   7.895 -0.0904 -0.2388 -0.0746
12078SOL    HW137654   6.643   3.125   7.831  0.3588  1.3567  0.7897
12078SOL    HW237655   6.509   3.056   7.847  0.6398  0.1762 -1.5683
12079SOL     OW37656   0.383   1.498   7.934  0.2381  0.2080 -0.5946
12079SOL    HW137657   0.434   1.423   7.964  1.7192  1.7698  1.0217
12079SOL    HW237658   0.305   1.460   7.894  0.1527 -2.1662  1.5889
12080SOL     OW37659   0.093   5.284   6.082 -0.2114  0.0919  0.3909
12080SOL    HW137660   0.070   5.227   6.155 -0.7670 -1.1389 -0.6977
12080SOL    HW237661   0.187   5.297   6.090 -0.4302  0.9285  1.9553
12081SOL     OW37662   4.570   6.961   7.264 -0.2207 -0.4791 -0.5002
12081SOL    HW137663   4.563   6.922   7.177 -0.2699  1.6387 -1.5119
12081SOL    HW237664   4.657   6.935   7.295 -0.6062 -2.1051 -0.7048
12082SOL     OW37665   5.957   4.255   3.724  0.3668 -0.4809  0.2955
12082SOL    HW137666   5.910   4.337   3.707  2.0447  0.5411  0.4222
12082SOL    HW237667   5.898   4.187   3.691 -0.0791  0.9075 -1.9790
12083SOL     OW37668   6.091   7.976   2.141  0.4135 -0.1437 -0.0223
12083SOL    HW137669   6.183   8.001   2.131  0.5237  0.1760  1.5637
12083SOL    HW237670   6.042   8.055   2.121  0.5792  0.2179  0.9658
12084SOL     OW37671   0.532   1.671   5.236  0.5241 -0.2255 -0.3113
12084SOL    HW137672   0.530   1.756   5.192 -0.5518  0.4929  1.0358
12084SOL    HW237673   0.521   1.608   5.165  0.1538  0.8124 -1.2216
12085SOL     OW37674   3.774   6.815   7.974  0.3555 -0.3937  0.1069
12085SOL    HW137675   3.863   6.825   7.939 -0.4540  0.0232 -2.0144
12085SOL    HW237676   3.778   6.852   8.062  2.4793 -1.2256  0.4224
12086SOL     OW37677   1.649   7.502   3.193  0.5931 -0.2386  0.3962
12086SOL    HW137678   1.698   7.580   3.167 -0.2544  0.8735  1.9874
12086SOL    HW237679   1.714   7.432   3.195  1.2756  0.2584 -1.5741
12087SOL     OW37680   4.853   0.623   5.481  0.2268 -0.0420 -0.2568
12087SOL    HW137681   4.836   0.529   5.490  1.0896 -0.0515  1.9137
12087SOL    HW237682   4.947   0.629   5.467  0.4936  0.5246  1.4935
12088SOL     OW37683   7.195   7.392   3.635 -0.1848  0.1512 -0.3554
12088SOL    HW137684   7.249   7.404   3.714 -2.9304  0.8454  1.5817
12088SOL    HW237685   7.105   7.390   3.668 -1.3669 -2.0369 -3.2572
12089SOL     OW37686   2.049   1.399   1.972 -0.5078 -0.4602  0.2113
12089SOL    HW137687   1.972   1.388   1.916 -0.7000 -2.6296  0.8080
12089SOL    HW237688   2.117   1.433   1.913 -1.4912  0.0415 -0.6626
12090SOL     OW37689   1.756   0.156   5.615 -0.1521 -0.4301 -0.4235
12090SOL    HW137690   1.826   0.195   5.562 -0.6331 -1.1554 -1.6251
12090SOL    HW237691   1.706   0.231   5.647  0.6538  0.0572 -0.2573
12091SOL     OW37692   3.465   2.443   6.522 -0.0422  0.2799 -0.5759
12091SOL    HW137693   3.410   2.366   6.527  0.5604 -0.1929 -1.0404
12091SOL    HW237694   3.495   2.446   6.431  1.7424 -0.2304 -0.0525
12092SOL     OW37695   0.026   6.113   7.248  0.1027  0.4124 -0.2602
12092SOL    HW137696   0.083   6.115   7.325  0.0526 -1.0028 -0.1671
12092SOL    HW237697   0.076   6.065   7.183 -0.6695 -0.1489 -0.4426
12093SOL     OW37698   0.931   2.330   5.492 -0.3524 -0.0670 -0.6868
12093SOL    HW137699   1.023   2.314   5.469 -0.1535  1.8397 -1.3703
12093SOL    HW237700   0.897   2.243   5.516  1.3857 -0.9506 -1.2486
12094SOL     OW37701   6.521   4.314   5.137  0.2065 -0.1577  0.1437
12094SOL    HW137702   6.487   4.403   5.148  0.2840 -0.0063 -0.7534
12094SOL    HW237703   6.611   4.326   5.107  0.4958 -0.5478  0.8434
12095SOL     OW37704   2.457   1.904   0.473 -0.2602  0.1074 -0.6647
12095SOL    HW137705   2.434   1.938   0.560  1.2369 -1.9672  0.6203
12095SOL    HW237706   2.395   1.948   0.414 -1.8716  0.9902  1.5144
12096SOL     OW37707   6.807   7.171   0.952  0.8907 -0.6136 -0.0573
12096SOL    HW137708   6.733   7.205   0.901  0.3592  1.6682  2.0469
12096SOL    HW237709   6.777   7.175   1.043  4.4124  2.9733  1.2023
12097SOL     OW37710   2.472   0.953   0.995 -0.0714 -0.3277  0.8830
12097SOL    HW137711   2.449   1.017   1.063 -0.2755  0.6191 -0.0416
12097SOL    HW237712   2.539   0.898   1.035 -1.3107 -0.8136  2.3916
12098SOL     OW37713   0.493   5.464   3.175 -0.5404 -0.5621  0.0556
12098SOL    HW137714   0.477   5.505   3.260  2.2042  0.9742 -0.0537
12098SOL    HW237715   0.552   5.391   3.194 -1.6171 -1.5471 -0.3112
12099SOL     OW37716   2.968   7.394   2.245  0.2240  0.0606  0.1775
12099SOL    HW137717   3.022   7.461   2.202  0.5193  0.9846  1.8925
12099SOL    HW237718   2.891   7.385   2.188 -0.0161  2.1679  0.0716
12100SOL     OW37719   5.103   4.879   5.779 -0.5057  0.0415  0.1989
12100SOL    HW137720   5.109   4.852   5.871 -2.1360 -0.4214  0.2135
12100SOL    HW237721   5.099   4.796   5.730 -0.2039  0.2858 -0.2454
12101SOL     OW37722   0.663   1.663   4.875 -0.1853 -0.1311  0.1021
12101SOL    HW137723   0.659   1.719   4.952 -1.7574  0.3672 -0.3182
12101SOL    HW237724   0.682   1.576   4.910  1.0446  0.4191  0.8615
12102SOL     OW37725   2.922   3.888   0.019 -0.2495 -0.2525  0.4025
12102SOL    HW137726   2.882   3.918   0.101  0.1432 -1.3042  0.9953
12102SOL    HW237727   2.891   3.798   0.008  0.9286 -0.6597  0.2146
12103SOL     OW37728   1.600   5.874   4.473 -0.7070 -0.2990  0.0392
12103SOL    HW137729   1.646   5.865   4.556 -0.2194  1.3163 -0.0357
12103SOL    HW237730   1.665   5.906   4.412 -1.8317  1.8585 -0.1148
12104SOL     OW37731   1.962   2.157   0.159 -0.0898 -0.3011 -0.2712
12104SOL    HW137732   2.041   2.107   0.140  0.3666  0.0792  0.5372
12104SOL    HW237733   1.988   2.249   0.146 -0.0647 -0.0998  1.0624
12105SOL     OW37734   1.562   1.988   4.002  0.2669  0.2314  0.3766
12105SOL    HW137735   1.568   2.022   4.091  1.2223 -1.0958  0.8556
12105SOL    HW237736   1.468   1.980   3.986  0.0209  2.3222  0.5013
12106SOL     OW37737   0.592   6.547   0.649  0.2936 -0.3256  0.2040
12106SOL    HW137738   0.507   6.589   0.660  0.7389  0.8558 -0.5203
12106SOL    HW237739   0.625   6.583   0.566  0.5248 -2.4988 -0.7146
12107SOL     OW37740   6.021   5.727   7.781 -0.5361 -0.2158 -0.2033
12107SOL    HW137741   5.950   5.732   7.846  0.5613  1.7345  0.9341
12107SOL    HW237742   5.991   5.780   7.708 -0.9295 -0.7763 -0.4592
12108SOL     OW37743   4.596   3.498   2.038  0.6697  0.0413 -0.5170
12108SOL    HW137744   4.517   3.476   2.087  0.8120  0.4949 -0.0767
12108SOL    HW237745   4.659   3.430   2.062  0.1906 -0.7695 -1.4615
12109SOL     OW37746   2.506   2.629   1.739 -0.3908  0.5822 -0.3235
12109SOL    HW137747   2.537   2.692   1.673 -0.4746  0.9887  0.0206
12109SOL    HW237748   2.548   2.547   1.715  1.5915  1.2739  0.5644
12110SOL     OW37749   7.942   3.795   3.232 -0.4890  0.3508  0.4400
12110SOL    HW137750   7.907   3.788   3.144  0.3169  1.5370 -0.0101
12110SOL    HW237751   7.901   3.724   3.281 -0.2270 -0.9189 -1.1272
12111SOL     OW37752   4.647   5.582   5.217 -0.6766 -0.7294 -0.4596
12111SOL    HW137753   4.652   5.597   5.123  1.2146  0.9290 -0.1613
12111SOL    HW237754   4.586   5.649   5.248 -0.7386 -0.8018 -0.4261
12112SOL     OW37755   1.290   3.028   2.474  0.1485 -0.0426 -0.1559
12112SOL    HW137756   1.325   2.955   2.524 -0.2797 -0.5836 -0.6317
12112SOL    HW237757   1.215   3.058   2.525 -0.1700 -0.4702 -0.3612
12113SOL     OW37758   6.198   2.729   6.662 -0.0906 -0.6207 -0.0888
12113SOL    HW137759   6.197   2.823   6.643 -0.0949 -0.8905 -1.5400
12113SOL    HW237760   6.278   2.714   6.712 -0.4182  0.2438  0.7209
12114SOL     OW37761   5.527   2.682   2.942 -0.1585 -0.1906  0.6404
12114SOL    HW137762   5.565   2.715   3.024 -0.0996  0.7962  0.2267
12114SOL    HW237763   5.602   2.651   2.892 -0.0084  0.7398  0.2796
12115SOL     OW37764   4.244   1.218   3.110 -0.3255  0.3547 -0.0897
12115SOL    HW137765   4.162   1.219   3.061 -0.1555 -2.5280 -0.6285
12115SOL    HW237766   4.219   1.239   3.200 -1.6777 -0.4842 -0.2521
12116SOL     OW37767   8.051   3.315   4.642 -0.4141  0.3530  0.5014
12116SOL    HW137768   8.032   3.237   4.692 -0.8767  0.2989  0.2448
12116SOL    HW237769   7.980   3.376   4.663 -0.8541  0.1737 -0.4057
12117SOL     OW37770   5.659   3.774   4.855 -0.0001 -0.6739  0.4357
12117SOL    HW137771   5.665   3.698   4.797 -0.8057 -1.5075  1.4135
12117SOL    HW237772   5.568   3.776   4.883 -0.1079  0.9544  0.0529
12118SOL     OW37773   0.894   3.609   4.207  0.4517 -0.1460  0.1101
12118SOL    HW137774   0.851   3.682   4.252 -0.2821 -0.5896  0.1554
12118SOL    HW237775   0.882   3.628   4.114 -0.3574 -0.5448  0.1213
12119SOL     OW37776   6.667   3.623   0.972  0.5225 -0.0721  0.1188
12119SOL    HW137777   6.676   3.628   1.067  0.3228  1.9378  0.0727
12119SOL    HW237778   6.756   3.612   0.939  0.4448 -2.6287  0.5602
12120SOL     OW37779   4.171   0.865   7.721 -0.4843  0.4358 -0.3849
12120SOL    HW137780   4.158   0.953   7.687 -2.3374  0.0168 -0.8842
12120SOL    HW237781   4.112   0.859   7.797  1.7324  0.5299  1.4619
12121SOL     OW37782   5.144   2.848   2.801  0.3072  0.4464  0.6956
12121SOL    HW137783   5.130   2.776   2.862  2.5357 -0.8045 -0.1455
12121SOL    HW237784   5.227   2.888   2.829  1.6969 -0.5063 -1.7052
12122SOL     OW37785   0.996   6.433   0.950 -0.3502  0.6925  0.0519
12122SOL    HW137786   1.042   6.508   0.913 -0.7780 -0.1779 -2.4128
12122SOL    HW237787   1.030   6.358   0.902  0.0387 -0.7522  2.4260
12123SOL     OW37788   6.505   7.161   6.296 -0.4484 -0.0208 -0.1376
12123SOL    HW137789   6.456   7.121   6.367 -2.0708 -0.9107 -1.6694
12123SOL    HW237790   6.443   7.163   6.222  1.7560 -1.1493 -2.1722
12124SOL     OW37791   7.951   0.304   6.538  0.3630 -0.6316  0.0643
12124SOL    HW137792   7.951   0.362   6.462  0.1916 -1.0322 -0.2395
12124SOL    HW237793   7.923   0.360   6.611 -1.0074 -0.6171 -0.4502
12125SOL     OW37794   7.660   2.383   6.932 -0.3918 -0.0305  0.0271
12125SOL    HW137795   7.594   2.448   6.911  0.1864  0.0975 -1.4988
12125SOL    HW237796   7.680   2.397   7.025 -1.0517  1.2391 -0.0156
12126SOL     OW37797   1.102   3.856   1.156  0.4795 -0.2070 -0.3419
12126SOL    HW137798   1.054   3.933   1.126  0.2582  0.2535  1.1052
12126SOL    HW237799   1.146   3.823   1.078  0.6943  1.4679 -0.9640
12127SOL     OW37800   4.854   5.739   6.314  0.5624  0.3266 -0.1821
12127SOL    HW137801   4.776   5.753   6.368  1.0134 -1.1294  0.8917
12127SOL    HW237802   4.854   5.646   6.293  2.8116 -0.0528  1.1663
12128SOL     OW37803   1.087   3.973   0.678  0.0953 -0.0740  0.0608
12128SOL    HW137804   1.013   3.941   0.626  1.5124 -0.5916 -1.7676
12128SOL    HW237805   1.109   3.900   0.736  0.0479 -0.4691 -0.4104
12129SOL     OW37806   8.137   2.618   0.506  0.0248 -0.1276  0.6680
12129SOL    HW137807   8.188   2.550   0.549  0.0834 -0.7737 -0.4025
12129SOL    HW237808   8.049   2.581   0.498 -0.2740  0.4373  1.2487
12130SOL     OW37809   3.946   0.692   4.817 -0.0789 -0.3219  0.2119
12130SOL    HW137810   3.960   0.678   4.911  0.4973  0.7936  0.3033
12130SOL    HW237811   3.852   0.679   4.805 -0.1379 -0.5953  0.9204
12131SOL     OW37812   1.609   7.505   1.502 -0.9903  0.1528  0.0528
12131SOL    HW137813   1.683   7.560   1.474 -1.9244  0.8181 -1.2348
12131SOL    HW237814   1.635   7.472   1.588  0.9357  0.1204 -0.4820
12132SOL     OW37815   1.771   3.922   4.244  0.4766  0.1868  0.0145
12132SOL    HW137816   1.785   3.831   4.216  0.7571 -0.0471  0.8618
12132SOL    HW237817   1.676   3.929   4.254  0.4837 -0.1793  0.4263
12133SOL     OW37818   0.704   2.103   7.568 -0.2242  0.1250 -0.4373
12133SOL    HW137819   0.763   2.028   7.567 -0.5427 -0.1576  0.7383
12133SOL    HW237820   0.689   2.121   7.661 -1.8116  0.3181 -0.7045
12134SOL     OW37821   5.097   6.523   8.007 -0.0083 -0.5717 -0.4971
12134SOL    HW137822   5.168   6.586   7.998  0.1959 -0.4538  1.4942
12134SOL    HW237823   5.048   6.529   7.925  2.4961 -0.9876 -2.1275
12135SOL     OW37824   5.144   0.015   4.049  0.3898  0.5901  0.2640
12135SOL    HW137825   5.080  -0.006   3.981  1.5500  0.9558 -0.9841
12135SOL    HW237826   5.226  -0.025   4.018  1.2319  1.8094  0.8354
12136SOL     OW37827   2.408   2.303   7.782 -0.1545 -0.0569  0.5166
12136SOL    HW137828   2.462   2.248   7.840  2.1318  1.3794 -0.1079
12136SOL    HW237829   2.385   2.245   7.710  1.8933 -0.3944  0.0574
12137SOL     OW37830   6.451   2.863   1.415  0.0907  0.5419 -0.3169
12137SOL    HW137831   6.485   2.897   1.498 -0.4172 -1.7712  0.9050
12137SOL    HW237832   6.380   2.805   1.439 -0.7170  0.5192 -2.4708
12138SOL     OW37833   7.651   0.905   5.038 -0.3615 -0.3885  0.1899
12138SOL    HW137834   7.729   0.960   5.042 -1.6411  1.4884  1.0085
12138SOL    HW237835   7.644   0.880   4.946  0.2789  0.8290 -0.2053
12139SOL     OW37836   3.441   1.269   7.801  0.0329  0.3273 -0.1084
12139SOL    HW137837   3.493   1.337   7.757 -0.7919 -0.0606 -1.7971
12139SOL    HW237838   3.350   1.296   7.786 -0.3103 -1.1218 -0.8272
12140SOL     OW37839   6.901   5.151   3.904 -0.3685 -0.1709 -0.1205
12140SOL    HW137840   6.924   5.136   3.996  0.3646  0.0667 -0.2566
12140SOL    HW237841   6.857   5.236   3.903 -1.1801 -0.5741  0.1261
12141SOL     OW37842   2.364   8.325   1.985  0.0497 -0.0231  0.2105
12141SOL    HW137843   2.402   8.247   1.943 -0.9065 -0.2833 -0.2043
12141SOL    HW237844   2.430   8.352   2.048  0.5923 -0.9153  0.0544
12142SOL     OW37845   4.835   7.363   4.735  0.0725  0.3477  0.0481
12142SOL    HW137846   4.879   7.362   4.820 -0.2023 -2.3584  0.2664
12142SOL    HW237847   4.749   7.401   4.751 -0.9606 -2.3685  1.6518
12143SOL     OW37848   2.967   2.988   3.162  0.3263 -0.0434  0.0307
12143SOL    HW137849   2.970   2.987   3.257  0.2059  1.5870  0.0861
12143SOL    HW237850   2.975   3.081   3.139 -0.5946 -0.3147 -1.5141
12144SOL     OW37851   8.317   2.241   6.132 -0.1405  0.4907 -0.7759
12144SOL    HW137852   8.228   2.209   6.122  0.0234  0.3437 -1.9229
12144SOL    HW237853   8.355   2.236   6.044  2.1084 -2.6168  0.1809
12145SOL     OW37854   6.894   8.183   2.193  0.0258  0.1892 -0.1289
12145SOL    HW137855   6.826   8.188   2.126 -0.0094 -0.1671 -0.1227
12145SOL    HW237856   6.951   8.258   2.175  0.3815 -0.2549 -0.9688
12146SOL     OW37857   2.824   4.807   5.566 -0.0250  0.6096 -0.1156
12146SOL    HW137858   2.844   4.715   5.548  2.5911  1.2718 -1.1205
12146SOL    HW237859   2.732   4.816   5.542 -0.1150 -1.5356 -0.8574
12147SOL     OW37860   3.275   0.155   6.044  0.1609  0.1184 -0.0132
12147SOL    HW137861   3.328   0.182   6.119  3.6705 -2.2660 -1.3219
12147SOL    HW237862   3.302   0.212   5.973  0.8975 -0.9714 -0.6454
12148SOL     OW37863   1.369   2.780   2.351  0.0187 -0.2743  0.1518
12148SOL    HW137864   1.453   2.762   2.393  1.5437  2.6713 -1.3490
12148SOL    HW237865   1.358   2.874   2.359 -1.8216 -0.2221 -2.0986
12149SOL     OW37866   7.248   1.759   0.844  0.1784 -0.0003 -0.3413
12149SOL    HW137867   7.154   1.769   0.853  0.3354 -0.1112  2.6213
12149SOL    HW237868   7.281   1.846   0.823 -0.5237  0.1644 -0.7656
12150SOL     OW37869   0.308   1.266   5.861  0.2193  0.2979  0.6684
12150SOL    HW137870   0.339   1.230   5.777  1.3837  0.8751  0.8331
12150SOL    HW237871   0.375   1.330   5.886 -0.8933  1.2324  1.2989
12151SOL     OW37872   5.537   2.789   5.888 -0.4238  0.2510 -0.3529
12151SOL    HW137873   5.609   2.848   5.910 -0.6875  0.0906  1.0519
12151SOL    HW237874   5.466   2.846   5.861 -0.4027  0.5290  0.1703
12152SOL     OW37875   1.384   0.547   8.250 -0.2067 -0.2165 -0.2215
12152SOL    HW137876   1.387   0.495   8.330  0.6408 -0.0667 -0.1439
12152SOL    HW237877   1.303   0.520   8.206 -0.0700 -1.1722  0.1004
12153SOL     OW37878   5.390   1.564   6.163 -0.0888 -0.0750  0.0594
12153SOL    HW137879   5.391   1.502   6.090  1.9701  1.4976 -1.3419
12153SOL    HW237880   5.362   1.647   6.124 -2.4829  0.0819  1.8383
12154SOL     OW37881   2.664   1.726   2.323  0.2673  0.1378 -0.0302
12154SOL    HW137882   2.732   1.761   2.265 -2.1728  0.6308 -2.8435
12154SOL    HW237883   2.695   1.639   2.346  0.9353 -0.5748 -3.1288
12155SOL     OW37884   2.476   3.816   4.615  0.2375  0.1752  0.1192
12155SOL    HW137885   2.385   3.840   4.598  0.4494 -0.3093 -1.9654
12155SOL    HW237886   2.478   3.721   4.608  1.2471  0.3061 -1.9249
12156SOL     OW37887   0.502   3.400   1.536 -0.6180 -0.2085  0.6315
12156SOL    HW137888   0.475   3.492   1.538 -1.6330 -0.5035  1.6991
12156SOL    HW237889   0.501   3.377   1.443 -0.4628  0.8262  0.3598
12157SOL     OW37890   5.084   5.496   6.806  0.5146  0.3071  0.5648
12157SOL    HW137891   5.068   5.590   6.802 -1.8311  0.0106  1.4004
12157SOL    HW237892   5.052   5.470   6.892  2.1641 -1.1119  0.8023
12158SOL     OW37893   4.177   7.690   6.541 -0.2844 -0.6548 -0.3345
12158SOL    HW137894   4.225   7.615   6.506  0.8619 -0.5912  1.0498
12158SOL    HW237895   4.100   7.651   6.583 -0.2452 -0.9639 -0.5452
12159SOL     OW37896   2.716   3.489   3.683 -0.6147  0.5628 -0.3509
12159SOL    HW137897   2.757   3.516   3.765 -1.4871  0.3072  0.1785
12159SOL    HW237898   2.736   3.561   3.622 -0.2482  0.9113  0.1694
12160SOL     OW37899   5.253   8.307   6.247 -0.4841 -0.0358 -0.1616
12160SOL    HW137900   5.184   8.306   6.314 -0.1151  1.6474  0.2932
12160SOL    HW237901   5.300   8.225   6.259  1.3533  1.3505  3.5995
12161SOL     OW37902   1.837   7.962   3.179 -0.3252 -0.1454  0.3395
12161SOL    HW137903   1.917   7.968   3.126 -0.0281 -0.3865  0.7600
12161SOL    HW237904   1.806   8.053   3.185 -0.1841 -0.0751  0.0240
12162SOL     OW37905   6.534   0.618   2.001  0.1643 -0.4847 -0.3386
12162SOL    HW137906   6.456   0.611   1.946 -0.7247  3.1776  0.1674
12162SOL    HW237907   6.605   0.582   1.948 -1.6248 -3.0210 -1.1904
12163SOL     OW37908   4.538   1.239   3.369  0.3710  0.7541 -0.5970
12163SOL    HW137909   4.560   1.267   3.458  0.2134  1.7802 -0.8678
12163SOL    HW237910   4.445   1.261   3.359  0.3714  0.5838 -1.0022
12164SOL     OW37911   0.502   3.707   0.595 -0.0111  0.0931  0.3384
12164SOL    HW137912   0.518   3.662   0.678  0.9257  0.6056  0.4522
12164SOL    HW237913   0.427   3.662   0.557  1.3708 -2.0823  0.0660
12165SOL     OW37914   4.182   3.842   3.035  0.6700  0.0084  0.3716
12165SOL    HW137915   4.115   3.864   2.971  0.1903 -0.8739  0.5545
12165SOL    HW237916   4.254   3.806   2.983  0.9875  0.8766  0.1842
12166SOL     OW37917   4.597   3.364   1.800 -0.0506 -1.0026  0.1259
12166SOL    HW137918   4.622   3.430   1.864 -0.0252 -1.7097  0.8587
12166SOL    HW237919   4.639   3.284   1.830 -2.4468 -2.0581  0.9327
12167SOL     OW37920   6.315   7.525   2.162 -0.0797  0.5679 -0.6416
12167SOL    HW137921   6.287   7.545   2.252 -0.2489 -1.1405 -0.2824
12167SOL    HW237922   6.325   7.611   2.121 -1.7738  1.3578  0.4607
12168SOL     OW37923   4.072   5.777   5.046 -0.1709 -0.2265 -0.0820
12168SOL    HW137924   4.005   5.844   5.057  1.2634  1.1153  0.8211
12168SOL    HW237925   4.030   5.710   4.992 -2.0441  0.8130  0.0099
12169SOL     OW37926   8.018   1.175   7.385 -0.3738  0.1979  0.2181
12169SOL    HW137927   7.966   1.096   7.373  0.5273 -0.3480 -0.1740
12169SOL    HW237928   7.963   1.246   7.351 -1.9902  0.0565  2.3562
12170SOL     OW37929   5.120   7.710   5.634  0.4259 -0.2524 -0.0368
12170SOL    HW137930   5.182   7.782   5.647  1.7643 -1.4533  0.6018
12170SOL    HW237931   5.062   7.715   5.710 -0.0107  0.6402 -0.4222
12171SOL     OW37932   5.734   7.363   5.679  0.0436 -0.0456  0.2203
12171SOL    HW137933   5.769   7.452   5.685  0.3398 -0.1099 -0.4556
12171SOL    HW237934   5.731   7.345   5.585 -0.6243 -0.5153  0.3223
12172SOL     OW37935   6.224   5.582   4.502  0.1303  0.1373  0.2176
12172SOL    HW137936   6.281   5.515   4.539  0.5345  0.8662  0.9675
12172SOL    HW237937   6.173   5.537   4.435 -0.0281 -1.0408  1.1039
12173SOL     OW37938   4.080   7.314   6.636 -0.6590 -0.5317  0.3042
12173SOL    HW137939   4.145   7.322   6.566 -1.1981 -0.9538 -0.2556
12173SOL    HW237940   4.037   7.400   6.637  0.7055  0.1975  1.5201
12174SOL     OW37941   2.779   2.040   7.810 -0.2101  0.5374 -0.3384
12174SOL    HW137942   2.796   1.949   7.788  0.2548  0.4617  0.2871
12174SOL    HW237943   2.842   2.090   7.758  0.5202  0.3966  0.3897
12175SOL     OW37944   7.169   3.200   7.301 -0.0107 -0.7789 -0.2474
12175SOL    HW137945   7.213   3.170   7.380  0.3535 -2.5390 -1.0881
12175SOL    HW237946   7.108   3.130   7.278 -0.1623 -0.2825 -1.4873
12176SOL     OW37947   4.515   0.979   2.578  0.1154 -0.0062 -0.0238
12176SOL    HW137948   4.506   0.922   2.655  0.6254  1.2062  0.9817
12176SOL    HW237949   4.601   0.957   2.542 -0.0031 -0.3814 -0.0835
12177SOL     OW37950   7.294   5.136   1.999 -0.1814  0.6241  0.1116
12177SOL    HW137951   7.257   5.123   2.087 -1.6094  2.0563 -0.2073
12177SOL    HW237952   7.384   5.104   2.005 -0.7042 -0.6786  1.6706
12178SOL     OW37953   7.951   6.821   2.393  0.3076 -0.0336 -0.5573
12178SOL    HW137954   7.936   6.826   2.487 -1.5896 -0.3416 -0.8102
12178SOL    HW237955   7.885   6.759   2.361  1.6168 -0.7744 -1.9620
12179SOL     OW37956   6.880   7.211   4.353  0.1493 -0.0200 -0.5931
12179SOL    HW137957   6.836   7.244   4.275  0.4009  2.4028  0.1969
12179SOL    HW237958   6.809   7.180   4.410 -0.3111  1.0138 -0.5805
12180SOL     OW37959   6.937   2.820   2.196  0.2437  0.0514  0.3322
12180SOL    HW137960   6.868   2.838   2.132  0.0895  0.8950  0.7194
12180SOL    HW237961   6.955   2.905   2.236 -0.8627 -0.7012  2.6088
12181SOL     OW37962   0.157   5.121   7.711 -0.5872  0.0963  0.3754
12181SOL    HW137963   0.142   5.184   7.640 -0.2683 -0.0307  0.1907
12181SOL    HW237964   0.076   5.122   7.762 -0.7343  0.3570  0.1395
12182SOL     OW37965   5.995   4.323   3.994  1.0115  0.0139 -0.4746
12182SOL    HW137966   6.034   4.252   3.943 -0.0756 -0.9422 -0.0265
12182SOL    HW237967   5.901   4.313   3.981  0.7573  0.2939  0.9942
12183SOL     OW37968   0.718   1.088   1.374  0.1298 -0.5579  0.4531
12183SOL    HW137969   0.703   1.163   1.432 -0.4393  0.5019 -1.0081
12183SOL    HW237970   0.634   1.073   1.331  1.3130  1.0421 -2.7460
12184SOL     OW37971   1.500   3.039   6.798 -0.0487 -0.7679 -0.5688
12184SOL    HW137972   1.435   2.973   6.824 -0.1189 -0.7922 -0.7997
12184SOL    HW237973   1.510   3.095   6.874 -1.5831  0.2510 -1.0708
12185SOL     OW37974   4.760   4.459   4.581  0.1750  0.1268  0.3684
12185SOL    HW137975   4.848   4.433   4.609  0.4365  3.3441  2.9814
12185SOL    HW237976   4.701   4.414   4.642  0.0995 -0.3226 -0.0241
12186SOL     OW37977   7.686   8.234   3.100  0.1065 -0.3875  0.2642
12186SOL    HW137978   7.712   8.278   3.181 -1.3574  1.7247 -0.3303
12186SOL    HW237979   7.621   8.170   3.128 -0.4859  0.4189  0.7860
12187SOL     OW37980   5.750   4.936   0.154 -0.0373 -0.1668  0.8936
12187SOL    HW137981   5.842   4.938   0.127 -1.0296  2.1868 -3.2009
12187SOL    HW237982   5.740   5.013   0.210 -0.0198  1.5607 -1.3304
12188SOL     OW37983   5.195   5.571   7.213 -0.1616 -0.1304  0.0752
12188SOL    HW137984   5.192   5.644   7.151 -2.3687  0.8279  1.1734
12188SOL    HW237985   5.196   5.613   7.299  0.6883 -1.4291  0.7352
12189SOL     OW37986   0.087   3.306   0.087  0.4551 -0.4005  0.4340
12189SOL    HW137987   0.095   3.384   0.142 -0.4705  0.5119 -0.6554
12189SOL    HW237988  -0.007   3.292   0.080  0.5432 -0.3402 -1.0983
12190SOL     OW37989   0.997   4.454   7.608  0.2457 -0.2466  0.3348
12190SOL    HW137990   0.999   4.516   7.681  2.9332  0.6091 -0.3272
12190SOL    HW237991   0.958   4.502   7.536  0.1397 -0.1477  0.4585
12191SOL     OW37992   2.717   7.015   4.786  0.2581  0.1601  0.0407
12191SOL    HW137993   2.732   7.107   4.805 -0.2968  0.2625 -0.0044
12191SOL    HW237994   2.778   6.995   4.714 -0.1200  0.6814 -0.4341
12192SOL     OW37995   0.010   5.221   7.484 -0.0815  0.0645 -0.1756
12192SOL    HW137996  -0.022   5.270   7.408 -0.7372  0.3244  0.2675
12192SOL    HW237997   0.052   5.144   7.446  0.8872  0.9050 -0.8845
12193SOL     OW37998   2.036   6.051   2.086  0.3364 -0.3038 -0.6085
12193SOL    HW137999   1.976   6.119   2.056  0.1709  0.1225  0.6346
12193SOL    HW238000   2.025   6.049   2.181  0.6882 -1.7507 -0.5782
12194SOL     OW38001   0.957   8.148   2.814  0.1273 -0.2488  0.3243
12194SOL    HW138002   1.015   8.185   2.881 -1.3489 -0.2766  1.6804
12194SOL    HW238003   1.015   8.120   2.744  1.5899  1.4330  0.7970
12195SOL     OW38004   8.160   3.321   6.899 -0.1711  0.7452 -0.2005
12195SOL    HW138005   8.112   3.399   6.871 -1.5897 -0.5243 -1.4885
12195SOL    HW238006   8.091   3.258   6.921  0.8731 -0.9345 -1.5303
12196SOL     OW38007   4.271   0.949   1.630  0.1108  0.2131 -0.5897
12196SOL    HW138008   4.256   0.892   1.554  0.3695  0.4746 -0.8384
12196SOL    HW238009   4.366   0.951   1.640  0.0544 -1.8095  1.2663
12197SOL     OW38010   4.170   7.754   6.135  0.2090 -0.2282  0.7227
12197SOL    HW138011   4.242   7.771   6.195  0.2997 -0.5523  0.7025
12197SOL    HW238012   4.202   7.784   6.050 -0.9975  3.1880  1.2983
12198SOL     OW38013   6.285   8.020   7.999 -0.2452  0.2658 -0.0240
12198SOL    HW138014   6.218   8.086   7.980 -1.1180 -0.7345 -0.5756
12198SOL    HW238015   6.244   7.937   7.974  1.1213 -0.4054 -0.1363
12199SOL     OW38016   3.616   8.271   3.392  0.7327 -0.5044  0.2639
12199SOL    HW138017   3.574   8.185   3.395  0.4367 -0.3354  1.1151
12199SOL    HW238018   3.603   8.300   3.301 -1.6495 -0.1556  0.6349
12200SOL     OW38019   0.302   6.981   6.814  0.1500  0.0654 -0.2848
12200SOL    HW138020   0.292   6.977   6.719  1.2997  0.8298 -0.4575
12200SOL    HW238021   0.296   6.889   6.843  1.4181 -0.3616 -1.2874
12201SOL     OW38022   5.908   2.772   3.336  0.2718 -0.6334 -0.4281
12201SOL    HW138023   5.954   2.848   3.372  1.9820 -2.4735  1.5678
12201SOL    HW238024   5.944   2.762   3.248  0.3038  0.6251 -0.5748
12202SOL     OW38025   6.579   5.832   5.984 -0.2651 -0.5592 -0.5065
12202SOL    HW138026   6.569   5.829   5.888 -0.2586 -1.1024 -0.4922
12202SOL    HW238027   6.663   5.790   6.000 -0.0537 -0.0582 -0.2917
12203SOL     OW38028   5.333   1.345   5.319  0.5172  0.1684 -0.6267
12203SOL    HW138029   5.358   1.355   5.227 -0.6550  1.5559 -0.8245
12203SOL    HW238030   5.344   1.432   5.356  1.7136 -0.5406  0.7706
12204SOL     OW38031   8.329   6.860   8.331 -0.1005  0.0384 -0.5265
12204SOL    HW138032   8.401   6.807   8.297  0.6195  1.2753 -1.0070
12204SOL    HW238033   8.302   6.816   8.412  1.5474 -0.1866 -0.0700
12205SOL     OW38034   7.864   3.578   1.601  0.1057  0.2228 -0.3560
12205SOL    HW138035   7.832   3.565   1.690 -0.1805  0.8961 -0.3505
12205SOL    HW238036   7.894   3.492   1.573  0.3776  0.0437  0.4566
12206SOL     OW38037   4.958   0.489   2.130  0.0670  0.2883 -0.0445
12206SOL    HW138038   4.993   0.569   2.091  0.3856  0.7367  1.1450
12206SOL    HW238039   4.969   0.500   2.224  0.8882 -1.5198  0.1148
12207SOL     OW38040   7.621   8.087   8.091 -0.0375  0.3831  0.0241
12207SOL    HW138041   7.707   8.062   8.058  0.6554 -0.0626  2.0172
12207SOL    HW238042   7.562   8.019   8.059  0.8664 -0.8550  0.9080
12208SOL     OW38043   3.508   1.868   4.014  0.1961 -0.1789 -0.2953
12208SOL    HW138044   3.543   1.846   3.927  1.5947  1.6541 -0.2621
12208SOL    HW238045   3.525   1.791   4.067 -0.5299 -1.2736 -1.5712
12209SOL     OW38046   0.954   6.746   0.102  0.0198 -0.0804  0.1356
12209SOL    HW138047   0.887   6.808   0.075 -0.0975  0.5753  1.8252
12209SOL    HW238048   1.035   6.781   0.065 -0.3594 -0.1735 -0.8124
12210SOL     OW38049   7.181   7.060   3.870 -0.0564 -0.0988  0.3551
12210SOL    HW138050   7.091   7.069   3.837 -0.5899  0.4203  1.8658
12210SOL    HW238051   7.179   6.980   3.923  0.3139  0.0531  0.6025
12211SOL     OW38052   0.851   3.824   7.931 -0.2125 -0.3435 -0.2474
12211SOL    HW138053   0.885   3.772   8.004 -1.6172  0.6948  1.2135
12211SOL    HW238054   0.762   3.792   7.918  0.2707 -1.0529 -2.0832
12212SOL     OW38055   3.254   0.957   3.565  0.4849  0.2733  0.1809
12212SOL    HW138056   3.322   0.998   3.618  1.1886  0.4725 -0.8573
12212SOL    HW238057   3.289   0.870   3.544  0.2947  0.2742 -0.1367
12213SOL     OW38058   8.037   3.143   4.051 -0.2521 -0.0175 -0.3327
12213SOL    HW138059   7.981   3.175   3.980 -0.3290  0.0493 -0.2412
12213SOL    HW238060   8.019   3.202   4.124 -0.0889 -0.0172 -0.2916
12214SOL     OW38061   8.251   5.516   5.129 -0.3775  0.6490 -0.1994
12214SOL    HW138062   8.239   5.474   5.043 -1.2599  0.3657  0.0553
12214SOL    HW238063   8.346   5.519   5.140 -0.2665 -1.7847  0.0003
12215SOL     OW38064   4.207   6.361   4.502  0.0668 -0.1491  0.5782
12215SOL    HW138065   4.119   6.393   4.482 -0.3303 -1.9263 -0.7415
12215SOL    HW238066   4.261   6.439   4.505 -1.4337  0.9263  0.8046
12216SOL     OW38067   0.233   3.032   1.163 -0.4455  0.4236  0.5901
12216SOL    HW138068   0.219   2.973   1.088 -1.9646  0.6032  0.6947
12216SOL    HW238069   0.191   2.987   1.236  0.7260  0.4148  1.2824
12217SOL     OW38070   3.994   0.395   6.317 -0.3325  0.2145 -0.1051
12217SOL    HW138071   4.008   0.486   6.292  0.0543 -0.4965 -2.6995
12217SOL    HW238072   3.905   0.375   6.287 -0.0329 -0.5402 -0.5213
12218SOL     OW38073   2.163   4.853   1.195 -0.9988  0.2965  0.2495
12218SOL    HW138074   2.250   4.892   1.205 -0.4845 -0.8365  0.3690
12218SOL    HW238075   2.114   4.882   1.272 -0.9235  1.4135 -0.1144
12219SOL     OW38076   0.372   4.375   1.364 -1.1269  0.1020 -0.2133
12219SOL    HW138077   0.287   4.365   1.408 -0.8058 -2.2360 -0.0023
12219SOL    HW238078   0.351   4.418   1.281 -2.5752 -0.7132 -0.3060
12220SOL     OW38079   5.270   3.946   4.394 -0.0727  0.3635 -0.2303
12220SOL    HW138080   5.324   3.912   4.323  0.5853 -2.4362  1.4610
12220SOL    HW238081   5.183   3.909   4.379  0.1507 -0.5219  0.5504
12221SOL     OW38082   4.040   3.142   1.374  0.4773 -0.0705 -0.8881
12221SOL    HW138083   4.054   3.197   1.450  2.2432  1.0870 -1.9849
12221SOL    HW238084   3.945   3.143   1.360  0.2378  0.5380  0.6500
12222SOL     OW38085   6.218   2.061   4.364 -0.0900 -0.3886  0.0170
12222SOL    HW138086   6.191   2.127   4.428  1.1531  1.3118 -1.0938
12222SOL    HW238087   6.169   2.084   4.285  1.7810  0.5059 -0.9593
12223SOL     OW38088   8.223   8.218   6.566  0.0367  0.5908  0.1369
12223SOL    HW138089   8.313   8.215   6.535 -0.2167  0.1798 -0.5935
12223SOL    HW238090   8.188   8.299   6.528 -0.7438 -0.7001 -2.0722
12224SOL     OW38091   3.050   6.783   0.824 -0.0427 -0.0727  0.4646
12224SOL    HW138092   3.093   6.780   0.739 -1.2418 -0.3913 -0.1504
12224SOL    HW238093   3.073   6.699   0.865 -0.9911 -0.7533 -0.3411
12225SOL     OW38094   7.889   8.270   0.491 -0.1471 -0.1404 -0.3955
12225SOL    HW138095   7.980   8.251   0.467  0.0642  0.9782 -0.5494
12225SOL    HW238096   7.855   8.322   0.418 -0.9849 -0.7196 -0.4365
12226SOL     OW38097   3.075   1.854   1.652 -0.3468  0.2550 -0.0949
12226SOL    HW138098   3.136   1.917   1.691  1.4403 -2.2143  1.4524
12226SOL    HW238099   3.052   1.892   1.567 -2.2847  4.6529  2.0662
12227SOL     OW38100   5.208   5.137   6.653 -0.2979  0.2749 -0.7864
12227SOL    HW138101   5.149   5.118   6.727 -0.2284  1.1483 -0.4942
12227SOL    HW238102   5.163   5.206   6.604  0.0251  0.2526 -1.1124
12228SOL     OW38103   0.038   5.663   6.675 -0.0848  0.1250 -0.1359
12228SOL    HW138104   0.108   5.660   6.610  0.2117  2.0387  0.0126
12228SOL    HW238105   0.014   5.572   6.690  1.2080 -0.4664 -1.4479
12229SOL     OW38106   2.973   1.372   7.850 -0.3175 -0.5676 -0.0325
12229SOL    HW138107   2.893   1.411   7.814 -0.5760 -0.0443  1.0531
12229SOL    HW238108   2.962   1.278   7.836 -0.3362 -0.3902 -1.4069
12230SOL     OW38109   0.160   5.228   2.676  0.3877  0.3171  0.3371
12230SOL    HW138110   0.227   5.283   2.635 -0.9496  0.9863 -1.0506
12230SOL    HW238111   0.077   5.261   2.641 -0.5520 -1.7109  0.5146
12231SOL     OW38112   8.056   1.384   5.615 -0.0611  0.8437  0.2863
12231SOL    HW138113   8.037   1.297   5.581  0.1562  1.2721 -0.9871
12231SOL    HW238114   8.121   1.370   5.684 -1.1508 -0.1252  1.1597
12232SOL     OW38115   1.446   0.686   3.001  0.2935  0.9284 -0.3402
12232SOL    HW138116   1.484   0.632   3.070 -2.1414 -0.6920 -0.1762
12232SOL    HW238117   1.504   0.674   2.926  0.5424 -0.8710  0.1096
12233SOL     OW38118   3.164   5.885   0.525 -0.3841  0.4535 -0.4338
12233SOL    HW138119   3.211   5.944   0.584  0.4539 -1.8896  1.3973
12233SOL    HW238120   3.085   5.861   0.573 -0.4016 -0.3970 -0.8703
12234SOL     OW38121   2.097   4.889   7.114  0.3681 -0.4389  0.1381
12234SOL    HW138122   2.022   4.937   7.080  1.2441  1.0469  0.1982
12234SOL    HW238123   2.064   4.801   7.132 -1.3250  0.1679  0.1221
12235SOL     OW38124   6.417   5.973   2.172 -0.1270 -0.4998 -0.6282
12235SOL    HW138125   6.408   5.945   2.081  0.5240 -0.0911 -0.8198
12235SOL    HW238126   6.379   6.061   2.174  0.3622 -0.2879 -0.6233
12236SOL     OW38127   1.052   6.273   6.344  0.2989 -0.8785  0.4106
12236SOL    HW138128   1.147   6.268   6.335  0.4125  0.7069  0.5429
12236SOL    HW238129   1.024   6.336   6.278 -0.3170  0.8138  2.1811
12237SOL     OW38130   0.992   0.483   3.632  0.3119  0.1060  0.4930
12237SOL    HW138131   1.028   0.536   3.561 -1.1002  0.7517  0.2239
12237SOL    HW238132   1.007   0.393   3.605 -1.2594  0.3038 -1.2475
12238SOL     OW38133   6.755   0.354   1.599 -0.7824 -0.3499  0.7205
12238SOL    HW138134   6.709   0.353   1.683 -1.1936 -0.1441  0.5010
12238SOL    HW238135   6.724   0.433   1.555 -1.3981 -1.0098 -0.0700
12239SOL     OW38136   4.067   3.947   1.356 -0.1119  0.1570 -0.9144
12239SOL    HW138137   4.045   3.910   1.271 -1.3058 -1.5083  0.0676
12239SOL    HW238138   4.109   3.876   1.404  0.4245  1.0218 -0.0514
12240SOL     OW38139   0.451   1.173   0.038 -0.1593  0.4693 -0.4947
12240SOL    HW138140   0.411   1.086   0.038  1.8283 -0.5421  1.3530
12240SOL    HW238141   0.535   1.161  -0.007  0.8196  1.0050  1.1029
12241SOL     OW38142   4.707   7.129   2.931  0.6038  0.1328  0.8781
12241SOL    HW138143   4.701   7.115   2.836 -0.8115  1.7288  0.6762
12241SOL    HW238144   4.674   7.048   2.970 -0.7328  0.1820 -0.0623
12242SOL     OW38145   0.692   6.812   6.328 -0.0410  1.1163  0.3023
12242SOL    HW138146   0.782   6.830   6.353  0.4482 -0.3853 -0.2581
12242SOL    HW238147   0.650   6.898   6.326  1.8601  2.1081 -1.2444
12243SOL     OW38148   8.214   7.876   5.508 -0.2084  0.0374  0.1710
12243SOL    HW138149   8.180   7.885   5.596 -1.2039 -0.0470 -0.1960
12243SOL    HW238150   8.304   7.909   5.513 -0.6431  1.1620  0.9455
12244SOL     OW38151   4.375   4.538   6.683  0.5621 -0.2944  0.0167
12244SOL    HW138152   4.375   4.524   6.589  2.9973 -0.3004 -0.0481
12244SOL    HW238153   4.309   4.478   6.717  0.8276 -1.5187 -1.5426
12245SOL     OW38154   6.706   0.201   3.083  0.5623  0.0211 -0.5159
12245SOL    HW138155   6.690   0.296   3.075  0.9955  0.1345 -0.0862
12245SOL    HW238156   6.678   0.165   2.999 -1.7594  0.2180  0.1027
12246SOL     OW38157   7.692   4.574   6.138 -0.2400 -0.0609  0.6653
12246SOL    HW138158   7.724   4.486   6.119  0.5316  0.2829  0.3133
12246SOL    HW238159   7.597   4.565   6.146 -0.5279 -0.4472 -2.2441
12247SOL     OW38160   3.351   8.247   1.578  0.1277  0.7668 -0.3581
12247SOL    HW138161   3.402   8.165   1.574 -0.6728  0.2662 -0.4389
12247SOL    HW238162   3.336   8.269   1.486  1.5301  1.7810 -0.3880
12248SOL     OW38163   6.458   7.415   4.166  0.0554 -0.0824 -0.2533
12248SOL    HW138164   6.399   7.480   4.128  0.3792  0.8580  0.8019
12248SOL    HW238165   6.400   7.344   4.194 -0.5453  0.6375  0.3875
12249SOL     OW38166   4.665   1.887   1.018  1.1859 -0.0054  0.0093
12249SOL    HW138167   4.577   1.858   0.992  0.4969  0.3254  1.8295
12249SOL    HW238168   4.675   1.972   0.976  0.4795  0.1119  0.0647
12250SOL     OW38169   8.005   3.292   7.947 -0.2910 -0.2583 -0.3013
12250SOL    HW138170   7.932   3.290   8.009  0.1046  2.3459  0.3250
12250SOL    HW238171   8.083   3.278   8.001 -0.0862  0.0826 -0.5072
12251SOL     OW38172   8.073   2.192   2.504 -0.6980  0.0104  0.0554
12251SOL    HW138173   7.998   2.136   2.526 -0.4514  0.2314  1.5930
12251SOL    HW238174   8.036   2.259   2.446 -1.3809 -0.6914 -0.3458
12252SOL     OW38175   5.481   8.117   0.770  0.5701  0.2622 -0.2372
12252SOL    HW138176   5.410   8.106   0.707  1.2934  0.6659 -1.1456
12252SOL    HW238177   5.494   8.212   0.774 -0.9141  0.4479  2.1836
12253SOL     OW38178   7.484   1.594   0.625  0.6580  0.0358  0.0680
12253SOL    HW138179   7.541   1.619   0.697  0.7059 -0.8575  0.3521
12253SOL    HW238180   7.460   1.676   0.583  3.6310  0.3590 -1.2368
12254SOL     OW38181   2.294   3.326   8.091  0.2428  0.0260 -0.9574
12254SOL    HW138182   2.297   3.307   7.997  0.3507 -1.2411 -0.7099
12254SOL    HW238183   2.213   3.286   8.121  0.3562  0.1674 -0.4556
12255SOL     OW38184   4.095   8.304   0.737 -0.1361 -0.2374  0.1999
12255SOL    HW138185   4.143   8.384   0.716 -0.3709 -0.0281  0.4562
12255SOL    HW238186   4.062   8.272   0.653 -0.5055  0.2287  0.1702
12256SOL     OW38187   4.506   1.943   4.740 -0.5507  0.6988 -0.3957
12256SOL    HW138188   4.470   1.882   4.675 -0.2669  0.3383 -0.2171
12256SOL    HW238189   4.433   2.002   4.760 -1.0145  0.0406 -0.1173
12257SOL     OW38190   0.943   5.475   7.788  0.7031 -0.7354  0.5769
12257SOL    HW138191   0.927   5.383   7.806  0.3509 -0.6689  0.6115
12257SOL    HW238192   1.034   5.489   7.812  0.4372 -0.8059  1.6690
12258SOL     OW38193   0.323   4.029   6.573 -0.3122 -0.3933  0.3758
12258SOL    HW138194   0.320   3.952   6.515 -1.0465  0.6499 -1.0395
12258SOL    HW238195   0.412   4.029   6.608  0.7282 -0.1590 -2.0902
12259SOL     OW38196   2.539   4.209   8.180 -0.0343  0.0046 -0.2658
12259SOL    HW138197   2.464   4.213   8.240 -0.5474 -1.6149 -0.7543
12259SOL    HW238198   2.600   4.149   8.222  0.0061 -0.4195 -0.9302
12260SOL     OW38199   3.299   6.434   7.234  0.2026  0.7932  0.1704
12260SOL    HW138200   3.212   6.436   7.196 -0.3508  1.1859  1.4039
12260SOL    HW238201   3.356   6.471   7.167 -0.5839  0.6277 -0.6035
12261SOL     OW38202   1.160   2.664   6.884  0.1801 -0.1939 -0.1656
12261SOL    HW138203   1.233   2.612   6.850  0.0826 -0.6534  0.3149
12261SOL    HW238204   1.156   2.641   6.977  0.5247  1.1271  0.1997
12262SOL     OW38205   6.596   2.952   2.942  0.2517  0.5907 -0.0089
12262SOL    HW138206   6.639   3.032   2.911 -0.9250  2.4107  2.6856
12262SOL    HW238207   6.549   2.979   3.021 -1.9151 -2.3337 -0.1260
12263SOL     OW38208   6.409   4.419   4.432  0.3035 -0.4330 -0.1481
12263SOL    HW138209   6.345   4.440   4.364 -0.8563 -0.5460  0.8702
12263SOL    HW238210   6.402   4.491   4.495 -0.2757 -1.4356  0.9720
12264SOL     OW38211   2.792   1.483   2.795  0.1420 -0.0762  0.2543
12264SOL    HW138212   2.707   1.520   2.769 -0.8448 -2.6725 -0.5430
12264SOL    HW238213   2.824   1.441   2.715  1.6477 -0.0965  0.8522
12265SOL     OW38214   7.613   2.802   3.423  0.2150  0.4771  0.8877
12265SOL    HW138215   7.552   2.804   3.497 -0.0139 -0.1970  0.7302
12265SOL    HW238216   7.587   2.724   3.373  1.5690 -0.1630  1.1400
12266SOL     OW38217   3.815   6.783   0.702  0.0657  0.2690 -0.5891
12266SOL    HW138218   3.865   6.840   0.643  1.0060  1.0770  0.9536
12266SOL    HW238219   3.733   6.830   0.717  1.6950  2.4513  2.4362
12267SOL     OW38220   4.372   5.452   4.406 -0.0733  0.2462  0.1693
12267SOL    HW138221   4.290   5.416   4.440  0.4244 -0.5127  0.5981
12267SOL    HW238222   4.432   5.378   4.403  0.3365  0.6004 -1.0144
12268SOL     OW38223   1.665   5.400   7.177  0.0955 -0.2982  0.0665
12268SOL    HW138224   1.622   5.358   7.252 -1.7135  0.0484 -0.7141
12268SOL    HW238225   1.687   5.328   7.119 -0.1169 -0.4315  0.1492
12269SOL     OW38226   8.047   3.921   1.270  0.3785 -0.5076 -0.0741
12269SOL    HW138227   8.026   3.979   1.343  1.5081  0.0430 -0.1581
12269SOL    HW238228   7.998   3.957   1.196 -1.3487 -1.4951  0.5385
12270SOL     OW38229   7.953   4.762   7.198  0.3743  0.2373 -1.1568
12270SOL    HW138230   7.872   4.769   7.248  0.5887  0.8553 -0.8867
12270SOL    HW238231   7.998   4.686   7.235  0.0527  0.0700 -1.1099
12271SOL     OW38232   0.977   7.231   7.294 -0.1374  0.3417 -0.1046
12271SOL    HW138233   0.892   7.206   7.329 -0.3495  0.5252 -0.4823
12271SOL    HW238234   0.961   7.248   7.201  0.0905  1.3671  0.0274
12272SOL     OW38235   0.984   0.409   7.321  0.0878 -0.2016  0.6881
12272SOL    HW138236   1.063   0.413   7.374  0.8508 -0.3522 -0.4041
12272SOL    HW238237   0.932   0.339   7.362  1.4722 -1.5848  0.1997
12273SOL     OW38238   5.426   5.656   1.341 -0.1672 -0.1658  0.2484
12273SOL    HW138239   5.405   5.563   1.327 -0.9484  0.2388 -1.5163
12273SOL    HW238240   5.513   5.655   1.380  0.1202 -1.6276 -0.3749
12274SOL     OW38241   7.519   3.506   6.606 -0.0048  0.7903 -0.4115
12274SOL    HW138242   7.608   3.502   6.571  1.1027 -0.8053  2.3262
12274SOL    HW238243   7.523   3.571   6.675 -0.8857  0.4840 -0.0616
12275SOL     OW38244   6.147   7.224   6.680  0.1298  0.7566  0.0005
12275SOL    HW138245   6.173   7.313   6.659 -1.5829  1.1052 -0.8356
12275SOL    HW238246   6.061   7.214   6.639 -1.2186 -0.2020  2.8246
12276SOL     OW38247   0.819   4.984   6.925 -0.4397 -0.4255  0.4390
12276SOL    HW138248   0.851   4.963   6.838 -0.1286  2.7583 -0.3391
12276SOL    HW238249   0.894   4.966   6.983  1.1112  1.9292 -0.6653
12277SOL     OW38250   7.150   0.350   6.269  0.0981 -0.3664  0.7088
12277SOL    HW138251   7.184   0.261   6.263 -2.0999 -1.1866 -2.4644
12277SOL    HW238252   7.079   0.344   6.333  0.6153 -0.6501  1.2559
12278SOL     OW38253   6.317   5.344   4.649 -0.5093  0.1366  0.0904
12278SOL    HW138254   6.294   5.395   4.727 -1.3259 -1.8365  1.2164
12278SOL    HW238255   6.397   5.299   4.673 -0.7381 -0.4419 -0.2216
12279SOL     OW38256   3.992   0.841   6.567  0.1113  0.2582  0.3219
12279SOL    HW138257   3.933   0.799   6.505  0.0425  0.9472 -0.0855
12279SOL    HW238258   3.967   0.805   6.652 -0.9401  0.5926  0.1641
12280SOL     OW38259   3.822   0.957   3.292 -0.2827  0.0195 -0.4980
12280SOL    HW138260   3.802   0.899   3.365  0.9721 -0.7297 -0.7135
12280SOL    HW238261   3.901   0.920   3.253  0.7848  2.0556 -0.4399
12281SOL     OW38262   4.454   3.839   3.580  0.1594  0.1787  0.2335
12281SOL    HW138263   4.539   3.877   3.602 -0.0492  1.1490 -0.5453
12281SOL    HW238264   4.414   3.820   3.665  1.6258 -1.4572  0.6221
12282SOL     OW38265   2.130   5.558   2.530  0.4340  0.0714  0.4384
12282SOL    HW138266   2.159   5.630   2.475 -3.3986 -0.0565 -2.0484
12282SOL    HW238267   2.120   5.597   2.617  2.9466  1.2339  0.2913
12283SOL     OW38268   1.435   3.746   2.497 -0.3099  0.1871  0.0444
12283SOL    HW138269   1.421   3.802   2.421  1.4586 -1.0390 -1.2396
12283SOL    HW238270   1.418   3.657   2.466  0.1677 -0.3075  1.1412
12284SOL     OW38271   0.704   5.712   2.766  0.2378 -0.0151 -0.0702
12284SOL    HW138272   0.790   5.736   2.731  0.4172  0.1734  0.5004
12284SOL    HW238273   0.702   5.749   2.854  0.7018 -2.3802  1.0359
12285SOL     OW38274   2.836   3.760   7.299 -0.1077  0.2770 -0.0563
12285SOL    HW138275   2.879   3.825   7.243  0.6149  1.5718  1.8898
12285SOL    HW238276   2.905   3.696   7.317 -0.4798 -0.4099 -0.9994
12286SOL     OW38277   2.617   6.270   2.713  0.4156 -0.0503 -0.5235
12286SOL    HW138278   2.575   6.270   2.799 -0.8611 -1.6857 -1.0894
12286SOL    HW238279   2.711   6.266   2.731  0.2234  0.8535  0.7785
12287SOL     OW38280   7.123   7.084   2.152  0.0888 -0.4862  0.4053
12287SOL    HW138281   7.191   7.129   2.101 -1.1449  1.1711  0.1409
12287SOL    HW238282   7.077   7.155   2.197 -1.2877 -1.5962  0.8019
12288SOL     OW38283   4.906   0.362   2.967 -0.1918  0.1015  0.1030
12288SOL    HW138284   4.892   0.288   3.027  2.2737 -0.9608 -0.5263
12288SOL    HW238285   4.895   0.324   2.880 -0.4321  0.8634 -0.2082
12289SOL     OW38286   8.357   4.541   2.763  0.3103  0.3091  0.0101
12289SOL    HW138287   8.359   4.631   2.793 -0.0112  0.0036  0.9671
12289SOL    HW238288   8.348   4.548   2.668 -1.6788  1.2839  0.2269
12290SOL     OW38289   2.786   6.676   5.804  0.7863  0.3741  0.0711
12290SOL    HW138290   2.692   6.662   5.810  0.6274  0.7150 -1.4109
12290SOL    HW238291   2.823   6.588   5.803  0.3308  0.1740 -1.3063
12291SOL     OW38292   0.749   4.392   7.415  0.2504 -0.3763 -0.2577
12291SOL    HW138293   0.814   4.410   7.347 -0.6914  1.0515 -0.8436
12291SOL    HW238294   0.675   4.353   7.368 -0.7989  1.5089 -0.3020
12292SOL     OW38295   7.218   1.246   3.778  0.0228 -0.1949 -0.5093
12292SOL    HW138296   7.229   1.204   3.693  0.9981  0.4420 -0.7189
12292SOL    HW238297   7.197   1.175   3.838  0.8130 -0.8568 -1.0084
12293SOL     OW38298   3.284   2.677   8.227  0.1314  0.3096 -0.3294
12293SOL    HW138299   3.246   2.622   8.296  0.5278  0.3277 -0.0927
12293SOL    HW238300   3.322   2.615   8.165  2.4506  0.2926  0.9847
12294SOL     OW38301   4.756   1.736   5.134 -0.2058 -0.0089 -0.0261
12294SOL    HW138302   4.688   1.742   5.067 -3.4662  0.3857  3.0330
12294SOL    HW238303   4.789   1.825   5.143  0.6050 -0.1507 -1.3327
12295SOL     OW38304   3.015   5.203   6.146 -0.3105  0.1024  0.2883
12295SOL    HW138305   3.051   5.144   6.212  1.2757  1.2620  0.5378
12295SOL    HW238306   2.967   5.146   6.086  1.0829 -1.4459  0.5609
12296SOL     OW38307   3.422   2.636   1.182 -0.0294  0.0724 -0.2589
12296SOL    HW138308   3.405   2.706   1.244  1.8256  0.9953 -0.7010
12296SOL    HW238309   3.371   2.660   1.104  1.0896  1.3426 -0.6427
12297SOL     OW38310   2.961   0.673   1.215  0.2508 -0.0184 -0.0278
12297SOL    HW138311   2.917   0.742   1.165  0.7674  0.8726  0.7043
12297SOL    HW238312   2.894   0.606   1.229 -0.0159 -0.0982 -1.5358
12298SOL     OW38313   7.668   3.777   4.041  0.2859  0.2098 -0.3025
12298SOL    HW138314   7.645   3.685   4.055  3.0070 -0.8041 -1.7071
12298SOL    HW238315   7.649   3.793   3.949 -1.0081  1.3939  0.1319
12299SOL     OW38316   7.674   6.508   2.098  0.6369  0.1542  0.5371
12299SOL    HW138317   7.588   6.485   2.134 -0.4851 -0.2412 -2.1451
12299SOL    HW238318   7.722   6.544   2.172 -2.1756  1.2965  1.9689
12300SOL     OW38319   6.664   4.615   7.346  0.0042  0.7646  0.2978
12300SOL    HW138320   6.689   4.669   7.271  0.5216  0.3418  0.1700
12300SOL    HW238321   6.583   4.656   7.378  1.1461  2.5195  1.0999
12301SOL     OW38322   0.107   6.287   6.955 -0.3889 -0.2973 -0.5310
12301SOL    HW138323   0.012   6.296   6.958 -0.2194  2.2673 -0.7692
12301SOL    HW238324   0.125   6.211   7.010 -2.6262 -1.5673 -1.4348
12302SOL     OW38325   3.040   1.485   7.398  0.2388 -0.1619  0.8482
12302SOL    HW138326   3.099   1.557   7.420  0.8951  0.1182 -1.5644
12302SOL    HW238327   2.998   1.512   7.316  0.8924 -2.6716 -0.4231
12303SOL     OW38328   6.236   3.807   4.095 -0.2677 -0.0265 -0.0466
12303SOL    HW138329   6.316   3.850   4.064  0.4674 -0.1020  1.5928
12303SOL    HW238330   6.259   3.715   4.102 -1.3175 -0.4880 -1.9296
12304SOL     OW38331   2.834   5.637   7.036  0.1010  0.0128  0.2293
12304SOL    HW138332   2.752   5.686   7.032  0.3624  0.6198  1.7262
12304SOL    HW238333   2.839   5.591   6.952 -1.8486 -0.1801  0.1759
12305SOL     OW38334   4.548   7.421   0.440 -0.2237 -0.2529 -0.4198
12305SOL    HW138335   4.515   7.501   0.399  1.9179  0.7780 -0.2596
12305SOL    HW238336   4.597   7.377   0.371 -0.7647 -1.0714 -0.2966
12306SOL     OW38337   3.957   1.039   4.671 -0.0461  0.9935  0.0419
12306SOL    HW138338   4.024   0.971   4.660 -0.9682  0.0050  0.3314
12306SOL    HW238339   3.931   1.032   4.763 -0.8725  1.0409 -0.1827
12307SOL     OW38340   1.507   3.079   7.658  0.3593 -0.4056 -0.1243
12307SOL    HW138341   1.514   3.160   7.608  0.4493 -0.6047 -0.4415
12307SOL    HW238342   1.483   3.013   7.593 -0.4453 -0.4997  0.2526
12308SOL     OW38343   7.511   3.496   6.927  0.0032 -0.0005 -0.1382
12308SOL    HW138344   7.442   3.508   6.992  0.4995  0.2450  0.3535
12308SOL    HW238345   7.569   3.571   6.940 -0.2469  0.4268 -1.3274
12309SOL     OW38346   0.679   4.911   2.699 -0.3528  0.0015  0.0922
12309SOL    HW138347   0.585   4.891   2.704 -0.5258  0.5039 -0.8781
12309SOL    HW238348   0.703   4.936   2.788 -1.2258  0.2535  0.2702
12310SOL     OW38349   0.572   4.181   4.976  0.5342 -0.6101 -0.2666
12310SOL    HW138350   0.607   4.250   4.920 -1.8203  0.1523 -0.9107
12310SOL    HW238351   0.545   4.226   5.056 -2.5354 -0.3311 -1.3163
12311SOL     OW38352   7.933   3.018   6.602 -0.9880  0.0839 -0.3934
12311SOL    HW138353   7.989   2.974   6.666  0.5209  1.1262 -0.9375
12311SOL    HW238354   7.866   2.953   6.580  0.0710 -1.2534  0.2132
12312SOL     OW38355   6.557   3.179   0.617 -0.5452  0.8386 -0.0863
12312SOL    HW138356   6.585   3.180   0.526  2.3437  0.7578  0.6771
12312SOL    HW238357   6.520   3.092   0.631 -0.4426  0.6411 -1.0247
12313SOL     OW38358   7.385   5.291   3.474  0.0502 -0.2829 -0.0532
12313SOL    HW138359   7.446   5.358   3.443  0.4584 -0.6900 -0.1273
12313SOL    HW238360   7.409   5.212   3.426 -0.8905 -0.3131 -0.4891
12314SOL     OW38361   3.212   3.504   3.855  0.9676 -0.0709 -0.6739
12314SOL    HW138362   3.153   3.478   3.784  0.8220 -0.5140 -0.3901
12314SOL    HW238363   3.210   3.431   3.916 -0.4346  1.1209  0.7907
12315SOL     OW38364   5.340   0.557   5.444  0.0863 -0.0038 -0.4713
12315SOL    HW138365   5.327   0.594   5.531 -1.4932 -0.9684 -0.2350
12315SOL    HW238366   5.344   0.632   5.386 -0.0424  0.6259  0.3163
12316SOL     OW38367   4.530   0.966   1.648 -0.0045 -0.3532  0.2316
12316SOL    HW138368   4.579   0.917   1.715  1.5127  0.0609 -0.5377
12316SOL    HW238369   4.589   0.971   1.574 -0.7064  1.3729 -0.2503
12317SOL     OW38370   0.196   5.029   5.034  0.2453  0.0748 -0.2865
12317SOL    HW138371   0.230   4.970   4.967 -1.2983 -0.8688 -0.2962
12317SOL    HW238372   0.115   4.987   5.064 -0.6084  1.8929  0.1249
12318SOL     OW38373   1.578   5.027   6.670  0.0903  0.4346 -0.3154
12318SOL    HW138374   1.529   5.048   6.591  1.2203  0.8889 -0.9181
12318SOL    HW238375   1.522   5.058   6.742 -0.4731  0.9919 -0.9802
12319SOL     OW38376   3.927   5.411   7.603 -0.4537 -0.2002 -0.1071
12319SOL    HW138377   3.986   5.455   7.543 -0.8743  0.9724  0.3175
12319SOL    HW238378   3.901   5.331   7.557  1.3669 -0.7132 -0.3290
12320SOL     OW38379   0.208   2.047   5.980  0.1323  0.0171 -0.6710
12320SOL    HW138380   0.227   2.012   5.893  1.4706  0.4418 -0.5636
12320SOL    HW238381   0.294   2.065   6.018 -0.4526  0.2841  0.5587
12321SOL     OW38382   3.535   7.962   7.213 -0.5578  0.2840  0.0451
12321SOL    HW138383   3.598   7.892   7.231 -0.0468 -0.0163 -2.6336
12321SOL    HW238384   3.496   7.938   7.129 -0.2318  3.2845 -1.0683
12322SOL     OW38385   0.532   7.452   7.461  0.3440  0.7287 -0.3538
12322SOL    HW138386   0.559   7.542   7.481  0.6328  0.4226  0.6804
12322SOL    HW238387   0.444   7.444   7.496 -0.4090  1.1302 -2.0300
12323SOL     OW38388   0.056   4.024   3.036  0.4942 -0.4793  0.0824
12323SOL    HW138389   0.052   4.107   2.989 -0.5033 -1.1063 -0.9990
12323SOL    HW238390   0.036   4.046   3.127  2.7808  0.8226  0.3530
12324SOL     OW38391   4.563   3.384   1.518  1.2171  0.9187 -0.1700
12324SOL    HW138392   4.636   3.418   1.465  0.3016  1.3336 -1.2107
12324SOL    HW238393   4.602   3.367   1.603  3.1422 -1.3023 -1.3760
12325SOL     OW38394   5.856   0.474   8.173 -0.0524 -0.4422 -0.4595
12325SOL    HW138395   5.880   0.512   8.089 -0.7903 -1.8006 -1.3000
12325SOL    HW238396   5.887   0.539   8.237  4.5978 -1.3175 -1.4313
12326SOL     OW38397   1.598   0.612   0.614  1.1685  0.0146  0.0903
12326SOL    HW138398   1.641   0.627   0.530 -1.4066  0.3664 -1.2854
12326SOL    HW238399   1.585   0.517   0.617  0.2449  0.1085 -0.5002
12327SOL     OW38400   0.166   2.363   6.961 -0.0346  0.3357  0.2829
12327SOL    HW138401   0.242   2.324   7.005  1.4180  0.9149 -1.5518
12327SOL    HW238402   0.141   2.436   7.017  0.0229 -0.5551  1.5022
12328SOL     OW38403   6.562   5.291   4.741  0.2401 -0.3955 -0.0988
12328SOL    HW138404   6.637   5.338   4.706  1.0319 -0.8884  0.8598
12328SOL    HW238405   6.583   5.198   4.729  0.0455 -0.5512  0.6639
12329SOL     OW38406   3.952   5.362   3.303  0.1813 -0.0915 -0.6446
12329SOL    HW138407   4.036   5.410   3.301 -0.3171  0.9081  0.8471
12329SOL    HW238408   3.976   5.273   3.327  0.9615 -0.2480 -1.8671
12330SOL     OW38409   2.166   0.077   1.150  0.0375 -0.3444  0.2452
12330SOL    HW138410   2.141   0.068   1.058 -0.4162 -1.1749  0.4308
12330SOL    HW238411   2.082   0.078   1.197  0.2360  0.8227  0.6028
12331SOL     OW38412   4.034   4.525   3.721 -0.1315  0.3344 -0.4588
12331SOL    HW138413   3.974   4.596   3.744 -0.2454  0.5098 -1.2858
12331SOL    HW238414   4.028   4.464   3.795 -1.9463 -0.0550 -0.8892
12332SOL     OW38415   4.918   3.505   2.863  0.5181 -0.2193 -0.2483
12332SOL    HW138416   4.859   3.431   2.877  1.1130 -0.4342  1.3957
12332SOL    HW238417   5.004   3.465   2.848  0.6924  0.1217 -0.1765
12333SOL     OW38418   5.204   1.178   7.038  0.3966 -0.4337  0.5609
12333SOL    HW138419   5.203   1.244   6.969 -0.4290 -1.3847 -0.3868
12333SOL    HW238420   5.267   1.112   7.007 -0.5427 -1.2454  0.3106
12334SOL     OW38421   4.313   3.289   2.420 -0.2235 -0.3048 -0.0750
12334SOL    HW138422   4.223   3.279   2.450 -0.3177 -0.2988 -0.3510
12334SOL    HW238423   4.350   3.201   2.425  0.1433 -0.0833  1.2509
12335SOL     OW38424   4.344   3.635   1.709  0.0071 -0.4666 -0.8176
12335SOL    HW138425   4.369   3.671   1.794 -0.1876  0.1149 -1.0065
12335SOL    HW238426   4.344   3.540   1.723  0.5606 -0.4049 -0.3325
12336SOL     OW38427   3.503   1.055   1.185  0.3631  0.0444 -0.1098
12336SOL    HW138428   3.443   1.128   1.169 -0.6699 -0.9065 -0.7605
12336SOL    HW238429   3.445   0.982   1.206  1.3760 -0.6217  0.3897
12337SOL     OW38430   5.222   2.500   7.522  0.1072 -0.4549 -0.6277
12337SOL    HW138431   5.177   2.575   7.483 -1.1870 -0.7605  0.2466
12337SOL    HW238432   5.315   2.524   7.518 -0.1973  0.6926 -1.3998
12338SOL     OW38433   4.767   8.341   7.874 -0.2553  0.2031 -0.0200
12338SOL    HW138434   4.718   8.308   7.799  1.3681 -0.9018 -0.6483
12338SOL    HW238435   4.816   8.416   7.840  1.1179 -0.7908 -0.3384
12339SOL     OW38436   8.304   1.420   2.882 -0.5338  0.3904  0.0468
12339SOL    HW138437   8.342   1.412   2.970 -0.2895 -0.9034 -0.1664
12339SOL    HW238438   8.243   1.347   2.875  0.0595 -0.0045 -1.1627
12340SOL     OW38439   6.980   7.881   2.675  0.3389  0.1147  0.4463
12340SOL    HW138440   7.006   7.807   2.620  0.5274 -0.3997  1.2200
12340SOL    HW238441   6.931   7.842   2.747 -1.8627  0.9675 -0.4782
12341SOL     OW38442   0.512   0.077   2.830  0.0175  0.0352  0.1342
12341SOL    HW138443   0.442   0.142   2.826 -0.2693 -0.2938 -0.2819
12341SOL    HW238444   0.531   0.068   2.923 -1.5210 -0.9697  0.3785
12342SOL     OW38445   3.633   7.765   3.250 -0.4095  0.4219  0.1219
12342SOL    HW138446   3.538   7.758   3.252 -0.4097  0.0912  3.2956
12342SOL    HW238447   3.663   7.674   3.250 -0.0344  0.5202 -1.0938
12343SOL     OW38448   2.345   6.989   0.280 -0.1549 -0.7342 -0.0740
12343SOL    HW138449   2.342   6.979   0.185  1.4880  0.2288 -0.2689
12343SOL    HW238450   2.253   6.999   0.306 -0.5323  2.9426 -2.0703
12344SOL     OW38451   0.013   1.480   3.472 -0.4766 -0.0645  0.1349
12344SOL    HW138452   0.101   1.492   3.438 -1.2887  1.2596 -1.6714
12344SOL    HW238453   0.005   1.545   3.542 -0.1943  0.1804 -0.0627
12345SOL     OW38454   2.295   7.114   4.350 -0.0324 -0.5595 -0.2731
12345SOL    HW138455   2.265   7.038   4.302 -0.0869 -0.2401 -0.7481
12345SOL    HW238456   2.381   7.134   4.313 -0.5443  0.3548 -1.0201
12346SOL     OW38457   0.809   1.619   4.334  0.8427 -0.1151 -0.3888
12346SOL    HW138458   0.798   1.530   4.369  1.9719 -0.2943 -0.4347
12346SOL    HW238459   0.847   1.669   4.406 -3.7687  1.5949  1.2303
12347SOL     OW38460   6.057   5.118   1.863 -0.2073  1.0223  0.7783
12347SOL    HW138461   6.074   5.212   1.873 -0.8640  1.2785 -0.3067
12347SOL    HW238462   5.988   5.114   1.797  0.7802 -0.2757 -0.2239
12348SOL     OW38463   4.937   5.613   5.322  0.5236 -0.4954 -0.1591
12348SOL    HW138464   4.900   5.632   5.408  1.1463  1.1793 -0.2411
12348SOL    HW238465   4.860   5.597   5.266  0.0007  0.8630  0.1492
12349SOL     OW38466   2.712   2.390   7.232  0.5480 -0.6109  0.7213
12349SOL    HW138467   2.631   2.381   7.282 -0.2556 -1.5966 -0.6797
12349SOL    HW238468   2.712   2.481   7.202  0.6920 -0.2097  1.8862
12350SOL     OW38469   0.975   0.851   0.797  0.1212  0.3678 -0.6363
12350SOL    HW138470   0.920   0.783   0.758 -1.4530  0.0377  1.9393
12350SOL    HW238471   0.991   0.913   0.725 -1.7313 -0.6969 -2.0554
12351SOL     OW38472   6.897   0.529   3.547  0.0235  0.4521 -0.2913
12351SOL    HW138473   6.877   0.455   3.605  1.0999 -0.9876 -1.6623
12351SOL    HW238474   6.973   0.570   3.587  0.8973 -0.6644 -0.7667
12352SOL     OW38475   6.674   6.902   8.031 -0.3470  0.3977 -0.0804
12352SOL    HW138476   6.623   6.983   8.022  0.1111  0.8602  1.3355
12352SOL    HW238477   6.694   6.896   8.124  2.1962  0.2426 -0.5646
12353SOL     OW38478   1.394   7.535   7.625  0.2256 -0.4312  0.4631
12353SOL    HW138479   1.341   7.491   7.692  0.1728 -0.1127  0.6322
12353SOL    HW238480   1.476   7.556   7.669 -0.6622  1.9245  1.1970
12354SOL     OW38481   3.970   7.281   4.633  0.2863 -0.5757  0.1655
12354SOL    HW138482   3.970   7.297   4.728 -2.1416  1.5512 -0.0981
12354SOL    HW238483   3.891   7.228   4.618  0.0364  0.0463 -0.7709
12355SOL     OW38484   0.776   8.161   4.262 -0.0687  0.0847  0.4559
12355SOL    HW138485   0.810   8.179   4.175 -0.6415  1.9034  0.5750
12355SOL    HW238486   0.739   8.244   4.292  0.7709 -0.2746  2.7315
12356SOL     OW38487   8.017   7.016   0.908  0.3479 -0.3421  0.6795
12356SOL    HW138488   8.079   6.991   0.977  0.4940 -0.7427  0.4066
12356SOL    HW238489   7.993   6.934   0.866 -0.8355 -0.2635  1.1581
12357SOL     OW38490   7.946   0.575   3.902  0.1481 -0.1194  0.2023
12357SOL    HW138491   7.934   0.584   3.996 -3.0514 -1.6077  0.0598
12357SOL    HW238492   7.958   0.665   3.871  0.8699  0.4317  1.9562
12358SOL     OW38493   6.689   4.484   1.352  0.1905 -0.0893  0.1961
12358SOL    HW138494   6.614   4.464   1.295 -0.5641 -1.1631  1.5214
12358SOL    HW238495   6.661   4.455   1.439  2.4427 -1.2200  0.5932
12359SOL     OW38496   0.619   4.139   0.067 -0.6104 -0.4275 -0.1052
12359SOL    HW138497   0.614   4.235   0.072  0.2816 -0.4227  2.3297
12359SOL    HW238498   0.694   4.122   0.010  1.4152  0.4979  2.0737
12360SOL     OW38499   1.311   1.202   0.480  0.7908  0.7024 -0.5201
12360SOL    HW138500   1.249   1.143   0.437  0.7411  0.7456 -0.5076
12360SOL    HW238501   1.310   1.176   0.572  1.4323  0.1326 -0.6596
12361SOL     OW38502   1.123   3.148   4.699  0.2232 -0.4366  0.0387
12361SOL    HW138503   1.094   3.057   4.689  1.5590 -0.9930  0.9332
12361SOL    HW238504   1.091   3.174   4.785  0.9765 -0.5258  0.3554
12362SOL     OW38505   3.150   3.289   4.038  0.0356  0.3520  0.2229
12362SOL    HW138506   3.068   3.323   4.074 -0.3059  0.2640 -0.4583
12362SOL    HW238507   3.124   3.208   3.993  0.5282  0.2189  0.1776
12363SOL     OW38508   0.638   4.997   0.071 -0.3951 -0.0701  0.3247
12363SOL    HW138509   0.618   4.994  -0.023 -2.0797  2.1958  0.5342
12363SOL    HW238510   0.684   5.079   0.083 -0.2495 -0.3157  1.4997
12364SOL     OW38511   8.187   6.149   2.294 -0.7066 -0.1112  0.2534
12364SOL    HW138512   8.221   6.059   2.293 -0.6367 -0.0896  0.4971
12364SOL    HW238513   8.092   6.138   2.306 -0.6353 -0.1438  0.8514
12365SOL     OW38514   7.401   1.843   1.216 -0.0341  0.0727  0.0864
12365SOL    HW138515   7.415   1.841   1.311 -1.7303  0.5484  0.3750
12365SOL    HW238516   7.371   1.932   1.198  2.8905  0.8878 -1.3625
12366SOL     OW38517   2.605   1.429   4.268 -0.1110  0.0399  0.1123
12366SOL    HW138518   2.517   1.454   4.239 -1.9948 -0.7225  4.3652
12366SOL    HW238519   2.642   1.509   4.304  0.5285  0.1155 -0.6872
12367SOL     OW38520   7.456   2.021   3.398 -0.2559 -0.1169 -0.0363
12367SOL    HW138521   7.395   1.983   3.461  1.1682 -2.2794  0.1349
12367SOL    HW238522   7.472   1.951   3.335  0.9167  0.8933 -0.8987
12368SOL     OW38523   1.349   7.073   0.107  0.1398 -0.6260 -0.2600
12368SOL    HW138524   1.258   7.046   0.124 -0.2537 -0.5167 -2.0501
12368SOL    HW238525   1.400   6.995   0.127 -0.3418 -0.7265  0.6581
12369SOL     OW38526   7.508   3.223   2.136 -0.1998  0.8466 -0.2919
12369SOL    HW138527   7.567   3.176   2.076 -0.8357  1.3224 -1.3147
12369SOL    HW238528   7.421   3.210   2.099 -0.8972 -0.5296  1.6412
12370SOL     OW38529   5.630   3.053   5.256 -0.3424 -0.5232  0.8590
12370SOL    HW138530   5.600   2.963   5.268 -3.2751  0.5915  3.0443
12370SOL    HW238531   5.682   3.071   5.334  1.5927 -0.7228 -0.3221
12371SOL     OW38532   5.932   2.407   6.085  0.2735 -0.5025 -0.6759
12371SOL    HW138533   5.967   2.487   6.122  0.2564 -1.1312  0.7644
12371SOL    HW238534   5.846   2.396   6.126  1.1141 -2.2911  0.7467
12372SOL     OW38535   4.378   1.563   0.001  0.4518  0.0611  0.2444
12372SOL    HW138536   4.389   1.524  -0.085  0.9786  0.0419  0.3201
12372SOL    HW238537   4.284   1.559   0.017 -0.1694  3.0901 -1.7777
12373SOL     OW38538   0.387   4.410   7.371  0.1480 -0.0383 -0.1550
12373SOL    HW138539   0.449   4.371   7.309 -0.5554  0.6348 -1.3257
12373SOL    HW238540   0.408   4.503   7.372 -1.3440  0.3410 -1.2173
12374SOL     OW38541   3.370   8.139   5.203 -0.3203  0.4543  0.0567
12374SOL    HW138542   3.349   8.048   5.184  0.3284  0.0534  1.1212
12374SOL    HW238543   3.329   8.156   5.288  0.7407  0.7034  0.5375
12375SOL     OW38544   5.150   5.843   0.734  0.0555 -0.0508 -0.3579
12375SOL    HW138545   5.140   5.787   0.657  3.1179 -0.2081 -0.7703
12375SOL    HW238546   5.115   5.927   0.707  0.7231 -0.2163 -1.8391
12376SOL     OW38547   3.170   6.056   4.385 -0.6472  0.2107  0.1331
12376SOL    HW138548   3.084   6.094   4.405 -1.1369  0.1400 -1.6640
12376SOL    HW238549   3.155   5.961   4.386 -0.7819  0.2086 -0.8454
12377SOL     OW38550   2.169   5.420   6.415  0.1831  0.4952 -0.5689
12377SOL    HW138551   2.232   5.349   6.424  0.4674  0.8507  0.3907
12377SOL    HW238552   2.156   5.452   6.505  0.3692  1.9170 -1.0189
12378SOL     OW38553   4.626   3.234   8.223 -0.2381  0.5233 -0.6891
12378SOL    HW138554   4.678   3.186   8.159 -2.0031  0.1196 -1.8867
12378SOL    HW238555   4.620   3.174   8.298 -1.4068 -0.6878 -1.6981
12379SOL     OW38556   6.803   8.167   1.153 -0.1315  0.1053 -0.2444
12379SOL    HW138557   6.882   8.130   1.192  0.1067 -1.6891 -2.2523
12379SOL    HW238558   6.733   8.107   1.176 -0.8389  1.3003  0.9024
12380SOL     OW38559   2.107   4.343   0.988 -0.3042 -0.0193  0.4245
12380SOL    HW138560   2.138   4.374   1.074  0.4751 -1.1102  0.5459
12380SOL    HW238561   2.156   4.396   0.925 -1.5581  1.4458  0.6291
12381SOL     OW38562   0.208   0.295   1.228 -0.6838  0.0555 -0.0275
12381SOL    HW138563   0.244   0.375   1.267 -0.3201 -0.3720  0.5409
12381SOL    HW238564   0.143   0.326   1.165  1.5292  0.9298 -2.0300
12382SOL     OW38565   3.451   8.041   5.511 -0.1200  0.1075  0.4075
12382SOL    HW138566   3.470   7.992   5.431 -1.6869  0.1639 -0.0402
12382SOL    HW238567   3.443   7.975   5.579 -2.2799 -0.3200 -0.2057
12383SOL     OW38568   2.184   1.661   5.038  0.0670  0.8836  0.1644
12383SOL    HW138569   2.144   1.620   4.962 -1.2413  1.3875  0.5349
12383SOL    HW238570   2.264   1.612   5.053 -0.8032 -0.7138 -0.1617
12384SOL     OW38571   4.020   2.745   2.091 -0.0989  0.1878 -0.8399
12384SOL    HW138572   4.089   2.795   2.134  1.4565 -1.8597 -0.7889
12384SOL    HW238573   3.961   2.719   2.161  0.7217 -0.5105 -0.3862
12385SOL     OW38574   2.316   3.273   7.376 -0.4720 -0.6894 -0.2073
12385SOL    HW138575   2.356   3.280   7.463  1.0632  0.1027 -0.9344
12385SOL    HW238576   2.228   3.308   7.387  0.0284  0.3186  0.8184
12386SOL     OW38577   1.291   1.610   5.709  0.0210  0.4310  0.1598
12386SOL    HW138578   1.290   1.541   5.774  0.1947  0.8442  0.6055
12386SOL    HW238579   1.269   1.690   5.757  1.4344  0.9572 -0.0209
12387SOL     OW38580   6.851   7.411   8.254  0.2557 -0.2966 -0.0708
12387SOL    HW138581   6.862   7.505   8.241 -1.7355  0.1130  0.7934
12387SOL    HW238582   6.939   7.379   8.274  1.0187  1.3233 -0.6376
12388SOL     OW38583   5.915   7.384   5.897  0.2795  0.3483  0.5096
12388SOL    HW138584   5.943   7.450   5.834  1.5591  1.4952  2.1816
12388SOL    HW238585   5.820   7.397   5.905  0.3255  1.1319 -0.1040
12389SOL     OW38586   7.647   6.547   4.324  0.6425 -0.5099  0.8955
12389SOL    HW138587   7.649   6.641   4.340  0.1851 -0.6671  1.9170
12389SOL    HW238588   7.650   6.507   4.411 -2.9919 -1.3866  0.7738
12390SOL     OW38589   0.985   1.798   6.941 -0.0703  0.0039  0.0543
12390SOL    HW138590   0.907   1.765   6.896  0.4781  1.2743 -1.9636
12390SOL    HW238591   0.968   1.891   6.953  0.2990 -0.0959  1.5259
12391SOL     OW38592   7.439   6.530   6.553  0.4432  0.1317 -0.0714
12391SOL    HW138593   7.423   6.578   6.471 -0.1662  0.1029  0.0264
12391SOL    HW238594   7.399   6.584   6.621  0.3444 -0.1868  0.1234
12392SOL     OW38595   5.358   0.595   4.045  0.3483 -0.1768 -0.0365
12392SOL    HW138596   5.265   0.575   4.044  0.2391  0.3171 -1.0963
12392SOL    HW238597   5.379   0.617   3.955  2.0522 -2.7579 -0.3642
12393SOL     OW38598   8.070   3.866   5.883  0.0433  0.1503 -0.0617
12393SOL    HW138599   8.135   3.929   5.852  0.2174  0.5974  1.1729
12393SOL    HW238600   7.986   3.912   5.874  0.1359  0.4326  0.5253
12394SOL     OW38601   1.773   4.024   4.554 -0.2678 -0.2945  0.0348
12394SOL    HW138602   1.851   4.018   4.498 -1.0027 -1.7467 -0.8903
12394SOL    HW238603   1.805   4.062   4.636  0.7147  2.7126 -1.5772
12395SOL     OW38604   8.167   0.768   1.708 -0.1956 -0.3243 -0.1329
12395SOL    HW138605   8.135   0.858   1.702 -0.5026 -0.4348 -0.1842
12395SOL    HW238606   8.250   0.768   1.660  1.0778  0.5048  1.9438
12396SOL     OW38607   7.450   6.178   1.261 -0.0057 -0.0056 -0.5495
12396SOL    HW138608   7.374   6.135   1.299 -0.4907 -1.0780 -2.5899
12396SOL    HW238609   7.514   6.182   1.332 -0.4873 -2.7874  0.1454
12397SOL     OW38610   6.747   6.773   7.103 -0.1807 -0.3324 -0.1828
12397SOL    HW138611   6.759   6.708   7.171  0.9713  0.8255  0.7608
12397SOL    HW238612   6.833   6.782   7.062 -0.0263  1.3479  0.4376
12398SOL     OW38613   1.907   8.294   1.728 -0.0591 -0.4828  0.3432
12398SOL    HW138614   1.978   8.358   1.715  0.4208 -0.8304  1.2012
12398SOL    HW238615   1.869   8.317   1.813 -0.7212 -0.5515  0.0722
12399SOL     OW38616   1.410   3.940   5.630  0.3531 -0.1877 -0.5428
12399SOL    HW138617   1.487   3.917   5.579  0.3240  0.4856 -0.9117
12399SOL    HW238618   1.413   3.883   5.706  2.5662  1.4647  0.7152
12400SOL     OW38619   4.158   4.804   1.187  0.2522 -0.3825 -0.3988
12400SOL    HW138620   4.175   4.875   1.249  0.9540 -1.0414  0.1784
12400SOL    HW238621   4.217   4.734   1.214 -0.3852 -1.1683 -1.0011
12401SOL     OW38622   5.909   4.907   7.836  0.3219  0.4137 -0.5656
12401SOL    HW138623   5.928   4.832   7.779 -0.2494 -0.5814  0.5016
12401SOL    HW238624   5.881   4.976   7.776  0.4374 -0.3638 -1.5494
12402SOL     OW38625   1.780   6.810   3.870 -0.2030 -0.4531 -0.2938
12402SOL    HW138626   1.858   6.758   3.854  0.5765  0.6152 -0.1091
12402SOL    HW238627   1.751   6.783   3.957  1.5322  0.9747  0.8127
12403SOL     OW38628   3.968   0.232   6.572  0.4450  0.1065  0.5048
12403SOL    HW138629   4.012   0.258   6.653  0.5103  1.3290  0.0921
12403SOL    HW238630   4.019   0.272   6.502  0.0344 -0.4260 -0.1210
12404SOL     OW38631   3.666   4.037   4.003 -0.0511  0.5688  0.0596
12404SOL    HW138632   3.751   4.051   4.045 -0.6301  0.9145  1.1742
12404SOL    HW238633   3.635   3.955   4.040  0.0085  0.1945 -0.7189
12405SOL     OW38634   8.276   4.529   3.461 -0.0625 -0.1297 -0.2548
12405SOL    HW138635   8.230   4.492   3.387 -0.5303  0.1780 -0.1247
12405SOL    HW238636   8.334   4.595   3.423  0.1266 -0.3777 -0.3990
12406SOL     OW38637   5.867   7.638   6.963 -0.1328  0.1990  0.4091
12406SOL    HW138638   5.837   7.709   6.906 -1.1670  1.3074  2.2490
12406SOL    HW238639   5.945   7.673   7.007 -1.2492  0.6838  2.1172
12407SOL     OW38640   7.045   7.011   7.385  0.1932  0.0723  0.4136
12407SOL    HW138641   7.126   6.972   7.418  0.2114  0.5372  0.9402
12407SOL    HW238642   6.997   7.035   7.464  0.4237  1.5844  0.1204
12408SOL     OW38643   4.855   1.585   1.528 -0.6915  0.2599  0.0183
12408SOL    HW138644   4.810   1.669   1.516  0.8263  1.0652 -0.1735
12408SOL    HW238645   4.879   1.583   1.620  2.2030  1.6092 -0.6111
12409SOL     OW38646   6.577   1.835   3.315 -0.5137  0.2898  0.7497
12409SOL    HW138647   6.671   1.849   3.309 -0.6176  1.4092  1.5186
12409SOL    HW238648   6.541   1.876   3.237 -0.3756 -0.0810  0.4886
12410SOL     OW38649   8.268   4.256   4.912  1.2018 -0.0674  0.1014
12410SOL    HW138650   8.189   4.237   4.863  1.0763 -1.5003  0.7920
12410SOL    HW238651   8.335   4.200   4.873  1.2324 -0.7989  1.1678
12411SOL     OW38652   3.535   7.032   4.449 -0.0077  0.7595  0.2479
12411SOL    HW138653   3.575   6.997   4.370 -0.0315 -1.7907  1.2470
12411SOL    HW238654   3.452   6.985   4.457  0.0895  0.7848  1.8723
12412SOL     OW38655   2.481   6.817   4.539 -0.1648 -0.0798  0.1592
12412SOL    HW138656   2.570   6.781   4.546  0.7359  1.2045 -2.9515
12412SOL    HW238657   2.429   6.743   4.507  1.0283  0.3970 -3.2358
12413SOL     OW38658   3.591   6.373   0.736  0.1611  0.1727 -0.2635
12413SOL    HW138659   3.686   6.385   0.730  0.2389  0.0582  0.6456
12413SOL    HW238660   3.575   6.289   0.694  0.3162  0.6896 -1.4131
12414SOL     OW38661   7.596   0.473   7.706 -0.3885 -0.1013 -0.9478
12414SOL    HW138662   7.679   0.437   7.737 -0.1363  1.5111  0.4189
12414SOL    HW238663   7.530   0.410   7.734  0.0023  0.5242  1.5795
12415SOL     OW38664   4.825   7.757   0.494  0.2058  0.0292  0.0979
12415SOL    HW138665   4.815   7.771   0.588 -1.0930  1.1162 -0.1665
12415SOL    HW238666   4.861   7.839   0.461 -2.3357  0.9001 -0.7428
12416SOL     OW38667   7.918   0.254   5.237 -0.0756  0.0411  0.0345
12416SOL    HW138668   7.992   0.266   5.296  0.4913 -1.2698 -0.3764
12416SOL    HW238669   7.951   0.281   5.151  0.4637 -1.9977 -0.4480
12417SOL     OW38670   5.412   0.177   7.191 -0.1541  0.7810  0.4101
12417SOL    HW138671   5.326   0.151   7.225 -1.1276 -0.1036 -2.4957
12417SOL    HW238672   5.447   0.097   7.152  1.4901  1.4316  0.4866
12418SOL     OW38673   5.035   3.354   7.186  0.4026 -0.0059 -0.4046
12418SOL    HW138674   4.986   3.431   7.215  1.9136  1.0145 -0.5025
12418SOL    HW238675   4.969   3.300   7.141 -1.5291 -0.5709  2.7859
12419SOL     OW38676   5.020   3.810   4.662  0.8763 -0.5513 -0.1404
12419SOL    HW138677   4.943   3.821   4.606  0.4076 -0.7081  0.4619
12419SOL    HW238678   5.002   3.866   4.738  1.4822 -0.3733 -0.1275
12420SOL     OW38679   6.361   1.084   3.415 -0.2502  0.1563  0.0607
12420SOL    HW138680   6.435   1.143   3.432 -0.9832  1.1066  0.0882
12420SOL    HW238681   6.311   1.086   3.497 -0.4334 -0.2832 -0.0420
12421SOL     OW38682   0.362   0.451   0.551  0.0894 -0.1168  0.3136
12421SOL    HW138683   0.271   0.461   0.580 -0.0448  1.7225 -0.6402
12421SOL    HW238684   0.357   0.391   0.477 -0.1881 -0.8597  0.9132
12422SOL     OW38685   1.842   2.541   7.809  0.1852  0.3342  0.6676
12422SOL    HW138686   1.778   2.589   7.862 -0.0044 -0.7504  1.4421
12422SOL    HW238687   1.831   2.450   7.834  1.6643  0.0560  0.4098
12423SOL     OW38688   5.518   2.880   3.602  0.1109  0.2653  0.1923
12423SOL    HW138689   5.454   2.909   3.537 -1.9591 -0.3017  1.8729
12423SOL    HW238690   5.602   2.916   3.571 -1.0683  1.4657 -1.8123
12424SOL     OW38691   3.904   1.015   4.108 -0.7426 -0.4651  1.1364
12424SOL    HW138692   3.890   1.107   4.133 -1.5750 -0.4753  0.7462
12424SOL    HW238693   3.868   0.964   4.180 -1.3730 -0.4851  0.8131
12425SOL     OW38694   7.138   3.915   4.489 -0.6015 -0.0359  0.1742
12425SOL    HW138695   7.176   3.884   4.570 -1.4044  0.3443  0.7187
12425SOL    HW238696   7.056   3.866   4.480 -1.4460  1.2331  0.5923
12426SOL     OW38697   3.372   2.080   6.315 -0.2248 -0.0996  0.3474
12426SOL    HW138698   3.339   2.002   6.271 -0.0441  0.9758 -1.8648
12426SOL    HW238699   3.312   2.150   6.288 -0.3878  0.5638  2.2695
12427SOL     OW38700   0.971   1.951   1.173  0.0745  0.4318  0.2317
12427SOL    HW138701   1.019   1.878   1.133 -0.4618 -0.9987  2.0614
12427SOL    HW238702   0.984   2.024   1.113  0.0185 -1.3508 -2.0762
12428SOL     OW38703   1.921   5.340   2.843  0.4735 -0.2624  0.0984
12428SOL    HW138704   1.985   5.312   2.909  0.3380 -2.0625 -0.4656
12428SOL    HW238705   1.955   5.305   2.761 -0.1225  0.6745 -0.5678
12429SOL     OW38706   4.616   6.969   3.129 -0.0033  0.5560  0.3653
12429SOL    HW138707   4.590   6.912   3.201  0.3545  0.8580  0.7383
12429SOL    HW238708   4.641   7.051   3.171 -1.1221  1.2245 -0.2122
12430SOL     OW38709   0.208   7.661   7.652  0.2874  0.1233 -0.2535
12430SOL    HW138710   0.262   7.737   7.674  0.6321 -1.2184  4.7807
12430SOL    HW238711   0.122   7.681   7.689 -0.3197 -0.9527 -1.0479
12431SOL     OW38712   5.375   3.260   7.415  0.1197  0.3359  0.0054
12431SOL    HW138713   5.355   3.307   7.334  1.7132  0.6155 -0.2554
12431SOL    HW238714   5.470   3.262   7.421  0.1335 -1.3506  0.9043
12432SOL     OW38715   4.580   5.297   6.098 -0.0109 -0.1625 -0.2605
12432SOL    HW138716   4.505   5.241   6.119 -0.4850  0.2915 -0.7169
12432SOL    HW238717   4.654   5.237   6.096 -0.2957 -0.5613  0.5591
12433SOL     OW38718   1.078   8.111   3.365 -0.4902 -0.0192  0.0032
12433SOL    HW138719   1.079   8.048   3.437  0.7463  0.9640  0.9081
12433SOL    HW238720   1.148   8.083   3.307 -0.4983  0.0332 -0.0329
12434SOL     OW38721   8.228   6.338   4.432  0.3370  0.4826 -0.2493
12434SOL    HW138722   8.146   6.374   4.399 -1.3854 -2.4219  0.4228
12434SOL    HW238723   8.201   6.281   4.505  2.9186 -0.7766 -0.1756
12435SOL     OW38724   1.586   0.163   0.778 -0.7463  0.0958 -0.0823
12435SOL    HW138725   1.553   0.181   0.866  0.2792 -0.4923  0.4457
12435SOL    HW238726   1.528   0.096   0.743 -0.0078 -1.1279  0.9342
12436SOL     OW38727   2.695   0.160   1.582  0.5034 -0.6801 -0.0301
12436SOL    HW138728   2.754   0.174   1.656 -1.1968 -1.1834  1.4938
12436SOL    HW238729   2.631   0.096   1.614 -0.6202 -0.4849 -1.7556
12437SOL     OW38730   3.651   5.745   3.640 -0.1644 -0.2149 -0.5027
12437SOL    HW138731   3.590   5.819   3.642 -0.4782 -0.4820 -0.0928
12437SOL    HW238732   3.697   5.754   3.557 -1.1476 -0.3251 -1.0746
12438SOL     OW38733   1.343   2.691   1.038 -0.1127 -0.8259 -0.0269
12438SOL    HW138734   1.421   2.636   1.026  0.5320 -0.0582  0.5843
12438SOL    HW238735   1.378   2.778   1.057 -1.1202 -0.1617 -1.0799
12439SOL     OW38736   4.501   5.536   6.630  0.0984  0.1496 -0.0058
12439SOL    HW138737   4.469   5.454   6.592 -0.1913  1.3590 -2.5166
12439SOL    HW238738   4.433   5.562   6.692 -0.6262 -0.5931 -0.4718
12440SOL     OW38739   1.730   2.984   7.793 -0.3131 -0.1096  0.8214
12440SOL    HW138740   1.764   3.064   7.833  0.9964 -0.4805  0.5016
12440SOL    HW238741   1.646   3.010   7.755  1.1148  1.7519 -1.3214
12441SOL     OW38742   5.175   3.381   5.635  0.6285 -0.0280 -0.5294
12441SOL    HW138743   5.245   3.319   5.614  0.8856  0.2485 -0.5036
12441SOL    HW238744   5.110   3.329   5.682 -0.1268 -0.7443 -2.2932
12442SOL     OW38745   5.994   7.606   1.339  0.0057  0.1472 -0.2262
12442SOL    HW138746   6.055   7.654   1.284 -0.7754  1.9851  0.4227
12442SOL    HW238747   5.955   7.541   1.281  1.4997 -0.0837 -0.9995
12443SOL     OW38748   3.798   0.962   0.960 -0.4130 -0.2689 -0.2567
12443SOL    HW138749   3.835   1.033   1.012 -0.8061 -0.5515  0.4199
12443SOL    HW238750   3.711   0.992   0.937  0.3433  0.5764 -2.2096
12444SOL     OW38751   7.699   1.596   6.834 -0.0778 -0.5485 -0.4983
12444SOL    HW138752   7.664   1.570   6.919 -0.0024  0.3866 -0.1693
12444SOL    HW238753   7.776   1.541   6.822 -0.2366 -0.8684 -0.0911
12445SOL     OW38754   7.947   8.068   5.066 -0.4489 -0.2846 -0.1047
12445SOL    HW138755   7.968   7.999   5.129 -0.7828  0.8688  1.3091
12445SOL    HW238756   8.006   8.052   4.993  0.9910 -0.7921  1.1205
12446SOL     OW38757   0.073   2.270   5.771  0.4770  0.4638 -0.1442
12446SOL    HW138758  -0.021   2.261   5.789 -0.1254  3.3770 -1.1838
12446SOL    HW238759   0.102   2.182   5.750 -1.4763 -0.9490  2.4317
12447SOL     OW38760   0.313   1.780   5.680  0.0590 -0.4649 -0.4170
12447SOL    HW138761   0.361   1.716   5.626  1.6646 -0.9596  1.4744
12447SOL    HW238762   0.295   1.734   5.762 -0.6074  0.8560  0.2050
12448SOL     OW38763   0.446   3.948   0.101 -0.3227  0.1566 -0.1232
12448SOL    HW138764   0.503   3.883   0.060 -0.4473  1.1475 -2.0323
12448SOL    HW238765   0.494   4.030   0.092 -2.1014  1.0864 -2.1557
12449SOL     OW38766   6.845   5.814   2.121  0.3439 -0.3716 -0.2030
12449SOL    HW138767   6.898   5.887   2.088  0.2950 -0.0750  0.3509
12449SOL    HW238768   6.800   5.850   2.198 -1.5012 -0.2842 -1.2591
12450SOL     OW38769   7.056   2.385   6.090 -0.3340 -0.1962 -0.1192
12450SOL    HW138770   6.990   2.434   6.140  0.1058  0.8589 -0.5385
12450SOL    HW238771   7.102   2.452   6.040  0.3139 -1.0551 -0.6932
12451SOL     OW38772   1.619   8.003   6.503  0.3337 -0.7777 -0.2365
12451SOL    HW138773   1.610   8.070   6.571  0.0949 -0.1743 -0.8511
12451SOL    HW238774   1.538   8.008   6.453  0.5789 -1.0933 -0.6746
12452SOL     OW38775   5.282   1.419   1.087  0.6661  0.2083 -0.2525
12452SOL    HW138776   5.233   1.376   1.016  0.6076 -0.0993 -0.0271
12452SOL    HW238777   5.312   1.347   1.142  1.2293  0.4093 -0.2962
12453SOL     OW38778   7.251   1.001   5.739  0.4131 -0.1532 -0.1255
12453SOL    HW138779   7.249   0.929   5.802  0.4425 -0.7345 -0.7822
12453SOL    HW238780   7.198   1.070   5.780 -0.3557 -0.8744  0.1152
12454SOL     OW38781   2.590   8.276   1.669  0.1363 -0.4482  0.0253
12454SOL    HW138782   2.529   8.208   1.643  1.7974 -1.7095 -0.7823
12454SOL    HW238783   2.608   8.258   1.762 -1.4346  0.5555  0.5584
12455SOL     OW38784   0.907   1.188   3.902 -0.6148  0.2448 -0.7335
12455SOL    HW138785   0.812   1.196   3.896 -0.5229  1.7118 -0.7047
12455SOL    HW238786   0.932   1.138   3.824 -1.4772 -1.0020 -0.2348
12456SOL     OW38787   6.719   2.721   6.602 -0.1407 -0.9123  0.2143
12456SOL    HW138788   6.753   2.809   6.615  0.1257 -0.9197 -0.3960
12456SOL    HW238789   6.795   2.664   6.612 -0.0775 -0.9770 -0.5205
12457SOL     OW38790   8.234   0.981   6.109 -0.9510 -0.0595  0.1004
12457SOL    HW138791   8.264   1.047   6.046  1.7192 -1.1919  0.0177
12457SOL    HW238792   8.187   0.917   6.056  2.2551 -1.6138 -1.1930
12458SOL     OW38793   4.717   0.871   1.845  0.0659  0.0411  0.6356
12458SOL    HW138794   4.714   0.808   1.917 -0.4016 -2.2393 -1.2497
12458SOL    HW238795   4.785   0.934   1.871  0.6015 -1.2469  2.6006
12459SOL     OW38796   4.441   7.782   7.523  0.1538  0.0928  0.0135
12459SOL    HW138797   4.405   7.762   7.436  2.7165 -2.0754 -0.6722
12459SOL    HW238798   4.511   7.845   7.506  1.1692 -0.9158  0.3561
12460SOL     OW38799   7.640   7.235   1.631  0.1108  0.2471  0.5458
12460SOL    HW138800   7.617   7.315   1.679  1.8506  0.3814  1.2321
12460SOL    HW238801   7.615   7.164   1.689 -0.7158  0.2994  0.2686
12461SOL     OW38802   3.354   3.416   0.942  0.5071  0.1417  0.5366
12461SOL    HW138803   3.299   3.487   0.976 -0.9385  0.6480 -2.5458
12461SOL    HW238804   3.302   3.337   0.955  0.3109  0.2212  0.2388
12462SOL     OW38805   3.744   6.530   2.811  0.3140 -0.4939 -0.3610
12462SOL    HW138806   3.828   6.545   2.854  0.0486 -0.8302  0.2890
12462SOL    HW238807   3.767   6.515   2.719  0.9439 -0.3734 -0.2310
12463SOL     OW38808   5.196   6.891   2.442  0.0201 -0.0399 -0.3011
12463SOL    HW138809   5.272   6.934   2.481 -0.0088 -1.3249  1.2793
12463SOL    HW238810   5.121   6.938   2.478 -0.0077 -1.2326  1.3339
12464SOL     OW38811   7.675   1.723   8.039 -0.0437 -0.4258  0.2409
12464SOL    HW138812   7.695   1.816   8.031 -0.8773 -0.3279 -0.9170
12464SOL    HW238813   7.712   1.698   8.124  0.5844  0.8462  0.3688
12465SOL     OW38814   3.110   8.218   2.589  0.2416 -0.5818  0.0715
12465SOL    HW138815   3.112   8.310   2.560 -0.0587  0.0142  1.8333
12465SOL    HW238816   3.149   8.220   2.676  0.1008 -2.1187  0.1873
12466SOL     OW38817   3.028   3.419   3.679  0.3313 -0.2267 -0.3665
12466SOL    HW138818   3.039   3.324   3.669  0.6760 -0.3502  1.0581
12466SOL    HW238819   3.007   3.450   3.590 -2.1259 -1.9356 -0.4889
12467SOL     OW38820   8.370   3.488   3.445  0.0873 -0.2255 -0.3106
12467SOL    HW138821   8.349   3.419   3.507 -1.2048  3.0222  3.2507
12467SOL    HW238822   8.465   3.498   3.451  0.0711 -0.5335  0.4726
12468SOL     OW38823   1.366   7.718   5.710  0.7063 -0.1505 -0.2444
12468SOL    HW138824   1.405   7.805   5.697 -0.3374  0.5795  1.1527
12468SOL    HW238825   1.423   7.676   5.775  1.4094 -0.6704 -1.1778
12469SOL     OW38826   0.486   6.913   1.549 -0.2183  0.2607 -0.2717
12469SOL    HW138827   0.571   6.887   1.513  0.6390  1.6737  0.6340
12469SOL    HW238828   0.471   6.852   1.621  0.4376  0.5045  0.0809
12470SOL     OW38829   3.578   3.400   4.320  0.2826  0.8296  0.1239
12470SOL    HW138830   3.614   3.316   4.349  0.8061  1.6008  1.9032
12470SOL    HW238831   3.583   3.398   4.225 -1.1844 -1.7693  0.0247
12471SOL     OW38832   2.913   0.708   0.491  0.3280 -0.0676  0.1279
12471SOL    HW138833   2.912   0.770   0.418  1.8007 -2.0759 -1.7455
12471SOL    HW238834   2.844   0.645   0.469  0.2892 -0.2919  0.8695
12472SOL     OW38835   0.433   4.589   1.963 -0.6726  0.3133  0.0736
12472SOL    HW138836   0.366   4.658   1.957  0.4750  1.4051 -0.6471
12472SOL    HW238837   0.516   4.636   1.957  0.1591 -1.0806  0.2950
12473SOL     OW38838   4.188   4.519   7.846  0.4186  0.5964  0.6809
12473SOL    HW138839   4.246   4.578   7.893  1.3934 -0.0643  0.3678
12473SOL    HW238840   4.194   4.548   7.755 -1.3666  1.7991  0.9001
12474SOL     OW38841   1.104   4.630   5.725 -0.1758  0.7297 -0.1219
12474SOL    HW138842   1.040   4.561   5.710 -0.1206  0.5432  0.4661
12474SOL    HW238843   1.189   4.586   5.719 -0.1600  0.5972  0.9578
12475SOL     OW38844   5.149   4.966   6.339 -0.3579  0.1594  0.2662
12475SOL    HW138845   5.135   5.058   6.317  0.5723  0.3138  0.2638
12475SOL    HW238846   5.232   4.965   6.387 -0.9998 -0.5175  1.4047
12476SOL     OW38847   5.236   4.436   3.829 -0.2605 -0.0114  0.5011
12476SOL    HW138848   5.246   4.527   3.857  0.9765 -0.0668  0.3007
12476SOL    HW238849   5.219   4.441   3.735  0.5151 -0.0035  0.3555
12477SOL     OW38850   1.797   2.627   8.351  0.4142  0.4580 -0.4276
12477SOL    HW138851   1.719   2.669   8.388  0.8587  1.0949 -0.1995
12477SOL    HW238852   1.767   2.589   8.269 -0.3313 -0.0191  0.0538
12478SOL     OW38853   2.828   6.935   4.558 -0.1339  0.1750 -0.1374
12478SOL    HW138854   2.813   6.847   4.523 -2.0369  0.6395 -0.6409
12478SOL    HW238855   2.882   6.979   4.492 -2.5388  0.6021 -2.0027
12479SOL     OW38856   3.644   7.271   0.125 -0.1910  0.3390 -0.1795
12479SOL    HW138857   3.731   7.252   0.089 -0.6665 -0.6593 -0.8365
12479SOL    HW238858   3.601   7.322   0.056  0.3153  2.0505  0.6942
12480SOL     OW38859   1.570   7.313   1.093 -0.1779 -0.4078 -0.0816
12480SOL    HW138860   1.581   7.388   1.035 -0.4737 -1.2911 -1.3198
12480SOL    HW238861   1.484   7.326   1.132 -0.0765  0.0760 -0.0071
12481SOL     OW38862   5.253   2.130   5.328 -0.5183 -0.0367 -0.3079
12481SOL    HW138863   5.160   2.128   5.347 -0.6284  1.0225 -0.6773
12481SOL    HW238864   5.295   2.155   5.410 -0.4954 -1.0307  0.0020
12482SOL     OW38865   8.226   4.479   7.067 -0.0196  0.3408 -0.4800
12482SOL    HW138866   8.134   4.455   7.065  0.5762 -2.2135 -1.3015
12482SOL    HW238867   8.272   4.402   7.033  2.5607  0.8452  1.5080
12483SOL     OW38868   4.025   3.389   7.336 -0.5162 -0.0779 -0.1091
12483SOL    HW138869   4.030   3.425   7.248 -0.4476 -1.0315 -0.5014
12483SOL    HW238870   3.932   3.391   7.358 -0.5157  0.3020 -0.1346
12484SOL     OW38871   7.457   8.212   3.981 -0.0298  0.2634 -0.4128
12484SOL    HW138872   7.407   8.273   4.035  0.5392  0.3457  0.0249
12484SOL    HW238873   7.511   8.267   3.925  0.1576  0.1687 -0.3262
12485SOL     OW38874   3.538   2.325   8.293 -0.0537 -0.2430 -0.1809
12485SOL    HW138875   3.523   2.366   8.379  1.4742 -0.4776  0.2226
12485SOL    HW238876   3.518   2.394   8.230  0.6608  0.5508  0.4362
12486SOL     OW38877   6.699   5.795   7.338  0.0960  0.1686 -0.0280
12486SOL    HW138878   6.612   5.814   7.374  0.4328  1.3990  0.1817
12486SOL    HW238879   6.701   5.842   7.254  0.0886 -0.9432 -0.6633
12487SOL     OW38880   1.195   3.487   7.441 -0.0680 -0.3437 -0.4713
12487SOL    HW138881   1.210   3.503   7.348  0.7921 -0.5663 -0.3800
12487SOL    HW238882   1.251   3.550   7.486  1.3221 -1.7651 -0.1174
12488SOL     OW38883   0.359   3.679   3.836  0.4775  0.1983 -0.1606
12488SOL    HW138884   0.348   3.599   3.887  1.6636 -1.5202 -2.4067
12488SOL    HW238885   0.445   3.670   3.795  0.4538  2.4319 -0.8442
12489SOL     OW38886   0.358   0.723   1.152  0.2463  0.5713  0.3688
12489SOL    HW138887   0.326   0.675   1.228 -0.6411 -0.6796 -0.7473
12489SOL    HW238888   0.288   0.787   1.134  0.1288  0.3959  0.1966
12490SOL     OW38889   1.851   2.255   6.537 -0.4018  0.1253 -0.0888
12490SOL    HW138890   1.829   2.330   6.482 -0.7723 -0.5954 -0.9541
12490SOL    HW238891   1.871   2.293   6.622 -2.6834  1.0629  0.1039
12491SOL     OW38892   4.914   5.778   2.849 -0.7319 -0.0282  0.2341
12491SOL    HW138893   4.891   5.724   2.773  0.5063  0.8868 -0.8280
12491SOL    HW238894   4.989   5.734   2.888 -0.4447  0.2927  0.0489
12492SOL     OW38895   3.636   2.093   7.632  0.2031  0.6139  0.3094
12492SOL    HW138896   3.628   2.049   7.548 -1.2613  2.6634 -0.7156
12492SOL    HW238897   3.561   2.063   7.683  1.0293 -0.5426  0.8844
12493SOL     OW38898   1.477   3.634   7.348 -0.3207 -0.3439 -0.4897
12493SOL    HW138899   1.555   3.606   7.301  0.1586  0.2247 -0.0447
12493SOL    HW238900   1.412   3.566   7.329  0.2074 -0.7035 -1.0452
12494SOL     OW38901   1.903   6.039   5.881 -0.0819 -0.2328  0.0830
12494SOL    HW138902   1.940   5.954   5.857  2.8111  0.8582  0.2244
12494SOL    HW238903   1.873   6.076   5.798  0.3035 -0.6608 -0.2526
12495SOL     OW38904   3.689   3.784   7.677 -0.1074  0.4097 -0.0642
12495SOL    HW138905   3.767   3.779   7.622 -0.0965  0.9454 -0.1089
12495SOL    HW238906   3.716   3.749   7.761  0.8297  2.5612  0.5967
12496SOL     OW38907   0.897   3.266   7.253 -0.1950 -0.0172  0.3334
12496SOL    HW138908   0.932   3.209   7.184 -0.9999  0.5115 -0.5446
12496SOL    HW238909   0.920   3.354   7.225 -0.1924  0.1837  0.9521
12497SOL     OW38910   3.981   5.500   5.009 -0.4112 -0.0520  0.1040
12497SOL    HW138911   3.890   5.498   5.038 -1.2489  0.2372 -2.2385
12497SOL    HW238912   4.026   5.436   5.064 -2.0883 -0.3839  1.1422
12498SOL     OW38913   6.360   6.055   0.351  0.0176 -0.3627  0.1985
12498SOL    HW138914   6.282   6.019   0.394 -0.2538 -1.9827 -1.5381
12498SOL    HW238915   6.343   6.149   0.346 -0.1090 -0.1079  3.1559
12499SOL     OW38916   4.199   5.718   2.730 -0.1575 -0.1275  0.0606
12499SOL    HW138917   4.139   5.772   2.678 -0.5496 -0.8849 -0.2892
12499SOL    HW238918   4.256   5.782   2.774 -0.1133  0.5413 -0.9266
12500SOL     OW38919   8.099   0.558   6.583 -0.0444  0.1163 -0.5267
12500SOL    HW138920   8.111   0.653   6.591  2.7528  0.0603 -2.6951
12500SOL    HW238921   8.073   0.545   6.492 -1.2422 -1.2036 -0.0365
12501SOL     OW38922   4.251   6.353   1.432  0.2108  0.3033  0.2353
12501SOL    HW138923   4.212   6.415   1.371 -1.4677 -1.5352 -0.6858
12501SOL    HW238924   4.234   6.390   1.519 -1.2067  0.8681 -0.2654
12502SOL     OW38925   3.445   6.323   4.591  0.4765 -0.0470 -0.0005
12502SOL    HW138926   3.492   6.359   4.666 -0.5535  0.0647  0.5992
12502SOL    HW238927   3.374   6.272   4.629  0.4749 -0.7329 -0.8921
12503SOL     OW38928   6.717   3.347   0.191 -0.0713 -0.5236 -0.2730
12503SOL    HW138929   6.659   3.300   0.131  0.5545 -2.5912  0.6237
12503SOL    HW238930   6.748   3.279   0.252  1.1762  1.0243  0.9137
12504SOL     OW38931   1.601   6.097   8.117  0.4718  0.4128  0.2945
12504SOL    HW138932   1.551   6.016   8.109 -0.4429  0.9626  0.3311
12504SOL    HW238933   1.565   6.155   8.050 -0.2946  1.4858  1.5782
12505SOL     OW38934   5.260   1.454   4.331  0.1032  0.1405 -0.2364
12505SOL    HW138935   5.335   1.397   4.352 -0.3565 -0.8357 -1.1298
12505SOL    HW238936   5.287   1.541   4.360 -0.3165 -0.9313  3.9731
12506SOL     OW38937   1.806   4.603   0.285  0.6894 -0.3266 -0.1531
12506SOL    HW138938   1.847   4.582   0.369 -0.9638 -0.9469  0.5549
12506SOL    HW238939   1.714   4.621   0.307 -0.0227 -1.4819 -1.9243
12507SOL     OW38940   0.138   7.527   3.864  0.2665  0.4752 -0.0588
12507SOL    HW138941   0.200   7.543   3.935 -1.2317  0.6285  1.2688
12507SOL    HW238942   0.126   7.432   3.863 -1.1700  0.6140  1.2275
12508SOL     OW38943   7.332   3.643   5.797  0.0475 -0.6160 -0.2571
12508SOL    HW138944   7.251   3.650   5.747  1.2050 -0.6551 -2.2387
12508SOL    HW238945   7.341   3.549   5.815 -0.7583 -0.5164  0.7290
12509SOL     OW38946   1.807   6.414   0.300 -0.1840  0.0827  0.6931
12509SOL    HW138947   1.761   6.405   0.216  2.0954  0.9317 -0.7329
12509SOL    HW238948   1.791   6.331   0.345  0.0033 -1.1505 -1.3784
12510SOL     OW38949   0.072   7.992   1.261  0.2129 -0.1823 -0.3828
12510SOL    HW138950   0.095   8.034   1.178 -2.4853 -0.1514 -1.1950
12510SOL    HW238951   0.079   8.063   1.326 -0.2227  0.4914 -1.0506
12511SOL     OW38952   8.075   6.721   3.785  0.1515  0.0637  0.2198
12511SOL    HW138953   8.028   6.659   3.728  0.6415  1.2869 -1.6211
12511SOL    HW238954   8.006   6.760   3.839 -0.2987 -1.3184  0.6879
12512SOL     OW38955   6.721   7.596   5.678 -0.3200  0.3972 -0.4448
12512SOL    HW138956   6.635   7.557   5.662  0.0930 -0.4632 -0.6115
12512SOL    HW238957   6.782   7.523   5.674  0.3066  0.8136  0.7549
12513SOL     OW38958   4.838   1.681   0.854  0.3292  0.2722 -0.0567
12513SOL    HW138959   4.804   1.738   0.785 -0.5262 -0.6080 -0.3888
12513SOL    HW238960   4.874   1.740   0.920  0.5872  1.1487 -0.9641
12514SOL     OW38961   1.981   1.704   6.412  0.6535 -0.2084  0.0785
12514SOL    HW138962   1.889   1.690   6.437  0.0750 -0.9610 -2.1763
12514SOL    HW238963   2.005   1.786   6.454 -1.5076  0.7146 -0.3353
12515SOL     OW38964   0.926   1.148   4.368 -0.3279  0.2467 -0.2092
12515SOL    HW138965   0.861   1.078   4.355  1.0879 -0.8880 -1.7161
12515SOL    HW238966   0.927   1.195   4.284 -1.5453  2.4212  0.9115
12516SOL     OW38967   4.044   5.505   2.580  0.6108  0.3719  0.1662
12516SOL    HW138968   4.080   5.468   2.660  0.5502 -0.0180  0.0198
12516SOL    HW238969   4.071   5.596   2.580 -1.1048  0.9335  1.6667
12517SOL     OW38970   2.767   5.887   6.254 -0.0241 -1.1263  0.0720
12517SOL    HW138971   2.746   5.814   6.312  0.7428 -0.4019  1.3062
12517SOL    HW238972   2.835   5.852   6.196  0.2587 -1.4425  0.5816
12518SOL     OW38973   2.893   6.820   4.842  0.1962  0.3028  0.0111
12518SOL    HW138974   2.838   6.898   4.846 -0.8244 -0.3485 -0.8411
12518SOL    HW238975   2.841   6.756   4.793  0.1837 -1.5658  2.2747
12519SOL     OW38976   0.593   5.230   6.458  0.8597  0.0537 -0.0930
12519SOL    HW138977   0.614   5.324   6.465  1.2416  0.0048 -0.5097
12519SOL    HW238978   0.579   5.216   6.365  1.5069 -0.4475 -0.1245
12520SOL     OW38979   0.339   5.944   4.976 -0.0920  0.0350 -0.3160
12520SOL    HW138980   0.351   5.902   5.061 -0.3942  0.1418 -0.2227
12520SOL    HW238981   0.406   6.012   4.973 -1.0421  1.0290  0.4596
12521SOL     OW38982   7.855   0.670   6.364  0.1144 -0.2778  0.4418
12521SOL    HW138983   7.820   0.677   6.453 -0.5220  2.5639  0.0864
12521SOL    HW238984   7.799   0.728   6.312  0.5883 -1.7111 -1.8033
12522SOL     OW38985   7.615   7.868   0.293 -0.1454 -0.3987 -0.6762
12522SOL    HW138986   7.551   7.935   0.317  0.0469 -0.7780  0.9645
12522SOL    HW238987   7.570   7.785   0.309  0.1782 -0.6806 -1.1778
12523SOL     OW38988   6.345   6.402   8.191  0.0146 -0.1824 -0.3584
12523SOL    HW138989   6.331   6.465   8.262 -1.6330  0.0194 -0.8195
12523SOL    HW238990   6.435   6.372   8.203 -0.9174 -2.0592  3.3096
12524SOL     OW38991   7.304   6.078   6.595 -0.2865 -0.0810 -0.3649
12524SOL    HW138992   7.226   6.022   6.585 -1.2030  0.8654  1.1695
12524SOL    HW238993   7.323   6.075   6.689  2.7071 -1.7636 -0.9051
12525SOL     OW38994   7.969   1.638   5.608 -0.8386  0.6469 -0.3946
12525SOL    HW138995   8.013   1.662   5.527 -1.1651  0.3521 -0.6599
12525SOL    HW238996   7.988   1.544   5.618  0.8572  1.0774  0.8869
12526SOL     OW38997   6.440   5.442   3.232  0.2021  0.2676 -0.3347
12526SOL    HW138998   6.441   5.406   3.321 -2.1903  0.8037 -0.0118
12526SOL    HW238999   6.413   5.369   3.177 -3.3051  0.9921  0.1451
12527SOL     OW39000   0.735   3.916   5.342  0.6094  0.4294  0.1816
12527SOL    HW139001   0.764   3.879   5.259 -0.1126 -0.6505  0.3830
12527SOL    HW239002   0.653   3.960   5.321  0.0693 -0.4364  0.4331
12528SOL     OW39003   3.712   7.743   5.685 -0.0866  0.2010 -0.1313
12528SOL    HW139004   3.757   7.697   5.614 -1.8682 -0.2992 -0.9994
12528SOL    HW239005   3.633   7.778   5.644 -2.1461 -1.6735  1.9221
12529SOL     OW39006   2.034   7.201   1.341  0.1029 -0.2713  0.0788
12529SOL    HW139007   1.939   7.214   1.340 -0.1893 -1.6741 -3.2199
12529SOL    HW239008   2.070   7.284   1.312 -0.2897 -0.3531 -0.6652
12530SOL     OW39009   3.273   6.697   7.749  0.8968  1.2086  0.2376
12530SOL    HW139010   3.217   6.690   7.672  0.5886 -1.0305  0.5849
12530SOL    HW239011   3.357   6.662   7.720  0.7357  0.2129  0.9063
12531SOL     OW39012   7.705   5.403   1.881 -0.2966 -0.2855  0.3295
12531SOL    HW139013   7.761   5.479   1.894  0.1495 -0.7033  0.9162
12531SOL    HW239014   7.622   5.439   1.849  0.2821  0.3470 -0.5286
12532SOL     OW39015   6.241   2.350   2.741 -0.1593  0.2961 -0.1295
12532SOL    HW139016   6.302   2.315   2.806 -1.4684 -1.6789  0.1321
12532SOL    HW239017   6.297   2.382   2.670  1.2157 -1.6321  0.0064
12533SOL     OW39018   6.331   5.764   8.224 -0.0855  0.0220  0.2560
12533SOL    HW139019   6.237   5.773   8.210 -0.0134  0.6767  0.1600
12533SOL    HW239020   6.365   5.730   8.141 -0.0757  0.9673 -0.1434
12534SOL     OW39021   7.681   5.731   0.230  0.3093 -0.2309  0.2448
12534SOL    HW139022   7.697   5.697   0.142  0.1528 -0.6058  0.3605
12534SOL    HW239023   7.750   5.692   0.284  0.7433  0.4361  0.1846
12535SOL     OW39024   8.361   4.847   7.730 -0.1453  0.4943  1.3806
12535SOL    HW139025   8.442   4.898   7.730  0.1025  0.1287  2.0940
12535SOL    HW239026   8.343   4.829   7.638  1.9276 -1.4478  1.2486
12536SOL     OW39027   7.283   5.142   0.417 -0.3631  0.8889 -0.4920
12536SOL    HW139028   7.198   5.141   0.460  1.1691 -0.8272  2.9287
12536SOL    HW239029   7.329   5.217   0.455 -0.3984  2.1119 -2.6765
12537SOL     OW39030   0.593   0.885   7.395 -0.0795  0.2626  0.5896
12537SOL    HW139031   0.563   0.976   7.405  2.6199  1.3721 -0.3774
12537SOL    HW239032   0.688   0.891   7.399  0.3434 -2.0955 -2.2876
12538SOL     OW39033   1.645   1.817   8.228  0.2290  0.1168  0.8156
12538SOL    HW139034   1.717   1.793   8.170 -0.7417  0.2725 -0.5091
12538SOL    HW239035   1.685   1.874   8.294  1.0741  1.4566 -0.7686
12539SOL     OW39036   3.471   3.084   8.064  0.3115 -0.2274 -0.3655
12539SOL    HW139037   3.488   3.009   8.121  0.0429 -0.0543 -0.0515
12539SOL    HW239038   3.405   3.053   8.003  1.2576 -0.6946 -1.1669
12540SOL     OW39039   6.707   5.628   4.550 -0.2278  0.2923  0.0784
12540SOL    HW139040   6.762   5.703   4.571  0.7597 -0.2701 -0.3825
12540SOL    HW239041   6.753   5.553   4.589 -0.2267 -0.2895 -0.9839
12541SOL     OW39042   2.676   5.925   2.767 -0.5904 -0.5691 -0.1830
12541SOL    HW139043   2.588   5.911   2.802 -0.3017 -0.5557  0.5646
12541SOL    HW239044   2.710   5.837   2.750 -0.8458 -0.5657 -0.7369
12542SOL     OW39045   5.799   6.546   3.872 -0.2108  0.0254 -0.4047
12542SOL    HW139046   5.805   6.640   3.887 -1.3691 -0.1077  1.1081
12542SOL    HW239047   5.825   6.506   3.956 -1.4177 -0.9328 -0.4470
12543SOL     OW39048   4.954   2.524   2.416  0.4511  0.1358  0.1395
12543SOL    HW139049   4.903   2.578   2.477  0.8235 -0.1600  0.7180
12543SOL    HW239050   4.990   2.454   2.470  2.8150  1.2190  0.0835
12544SOL     OW39051   0.319   0.841   2.802  0.0007 -0.6494  0.2021
12544SOL    HW139052   0.406   0.874   2.823 -0.0877  0.2960 -0.8103
12544SOL    HW239053   0.277   0.913   2.756  0.4640 -2.7463 -3.9302
12545SOL     OW39054   6.213   1.820   8.078 -0.2905  0.0085  0.0384
12545SOL    HW139055   6.308   1.808   8.084 -0.3001 -0.2792 -0.3770
12545SOL    HW239056   6.177   1.750   8.133 -0.2702 -0.0250  0.0088
12546SOL     OW39057   8.320   2.761   4.885 -0.3825  0.0735 -0.0720
12546SOL    HW139058   8.327   2.753   4.790 -0.2235 -1.0374  0.0226
12546SOL    HW239059   8.259   2.691   4.910 -1.6100  1.2955  0.4956
12547SOL     OW39060   0.245   5.429   4.801  0.0883 -0.3476 -0.4450
12547SOL    HW139061   0.237   5.504   4.860 -0.0828 -0.6941 -0.0299
12547SOL    HW239062   0.289   5.465   4.723  3.0459 -0.4781  0.9958
12548SOL     OW39063   6.880   7.378   5.670 -0.4059 -0.4126 -0.0162
12548SOL    HW139064   6.930   7.333   5.602 -0.8275  1.0239 -1.3378
12548SOL    HW239065   6.875   7.315   5.742  0.8947 -1.6157 -0.9269
12549SOL     OW39066   4.024   2.202   0.347  0.3973 -0.1678  0.8399
12549SOL    HW139067   4.001   2.266   0.280  0.1489 -2.7959 -1.7560
12549SOL    HW239068   3.945   2.195   0.401 -0.1787  0.4386  0.1002
12550SOL     OW39069   5.620   2.993   6.757  0.2760 -0.5804  0.4267
12550SOL    HW139070   5.639   2.952   6.842  1.6873  2.2265  1.5852
12550SOL    HW239071   5.626   3.087   6.774  0.2924  0.0944 -2.7452
12551SOL     OW39072   4.015   7.589   0.370  0.8751 -0.7101  0.1801
12551SOL    HW139073   3.949   7.633   0.318  1.8842 -1.1390 -1.5510
12551SOL    HW239074   3.976   7.580   0.457 -1.2674 -0.8624 -0.7501
12552SOL     OW39075   8.032   2.591   1.370  0.0917  0.1675  0.1076
12552SOL    HW139076   7.963   2.532   1.397  0.1726 -0.1455 -0.3520
12552SOL    HW239077   8.112   2.539   1.374  0.2471  0.4148  0.2694
12553SOL     OW39078   1.993   4.143   1.656  0.6629  0.1762 -0.0777
12553SOL    HW139079   1.972   4.061   1.700 -0.6736 -1.5177 -3.4741
12553SOL    HW239080   2.074   4.125   1.609 -0.7241 -0.1028 -2.5582
12554SOL     OW39081   0.308   5.157   5.911  0.6498 -0.1051  0.3696
12554SOL    HW139082   0.307   5.199   5.997  3.7735 -1.0808  1.0108
12554SOL    HW239083   0.329   5.065   5.930  3.1785  0.0035 -1.4446
12555SOL     OW39084   4.970   6.944   5.472 -0.2993  0.0285 -0.4967
12555SOL    HW139085   4.875   6.951   5.469 -0.2639  1.7408  0.9005
12555SOL    HW239086   4.988   6.881   5.542 -0.4392  2.7439  2.1684
12556SOL     OW39087   2.562   0.775   4.952 -0.4629  0.5896 -0.3100
12556SOL    HW139088   2.522   0.783   4.866  0.0881 -0.1974 -0.6588
12556SOL    HW239089   2.506   0.827   5.010 -3.9573 -2.8706 -0.1233
12557SOL     OW39090   5.000   7.794   1.298 -0.4189 -0.3000  0.3906
12557SOL    HW139091   4.999   7.722   1.362  0.2036 -0.4568  0.2354
12557SOL    HW239092   4.915   7.835   1.307 -0.0104  0.2768  1.9977
12558SOL     OW39093   7.492   5.518   4.799 -0.7111  0.1682  0.1931
12558SOL    HW139094   7.496   5.439   4.853 -2.3695  1.8395  3.0738
12558SOL    HW239095   7.414   5.564   4.831 -0.2245  2.6247 -1.8567
12559SOL     OW39096   0.554   8.006   4.259  0.1671 -0.0583 -0.1717
12559SOL    HW139097   0.582   7.950   4.332  0.5911 -0.5813 -0.7287
12559SOL    HW239098   0.630   8.061   4.240  1.2026 -2.0458 -2.2251
12560SOL     OW39099   0.752   7.506   1.514 -0.1139  0.3330 -0.1989
12560SOL    HW139100   0.728   7.506   1.422  0.0020 -0.4556 -0.2325
12560SOL    HW239101   0.675   7.542   1.559 -1.0039 -1.2394 -0.4016
12561SOL     OW39102   8.142   3.454   5.813  0.0963  0.0472 -0.2603
12561SOL    HW139103   8.078   3.399   5.857  0.3651  1.6719  2.3566
12561SOL    HW239104   8.189   3.394   5.755 -1.9757 -1.6921 -0.2745
12562SOL     OW39105   0.504   6.256   3.222 -0.1680  0.1772  0.2686
12562SOL    HW139106   0.415   6.230   3.245 -0.4289  0.9538  0.1690
12562SOL    HW239107   0.493   6.333   3.166  0.5263 -0.4492 -0.7791
12563SOL     OW39108   0.057   1.716   1.528 -0.1882 -0.2946  0.3439
12563SOL    HW139109   0.102   1.775   1.468 -1.3215  0.4516  0.1910
12563SOL    HW239110   0.072   1.628   1.492  0.1991  0.0333 -0.3142
12564SOL     OW39111   6.739   1.409   5.354  0.2371  0.0310 -0.0073
12564SOL    HW139112   6.735   1.322   5.394  0.7596  0.2321  0.5012
12564SOL    HW239113   6.648   1.431   5.335  0.1510 -0.8651 -0.6604
12565SOL     OW39114   5.140   4.489   0.992  0.1513  0.0141 -0.0282
12565SOL    HW139115   5.086   4.477   1.070  0.1937 -0.6577 -0.1037
12565SOL    HW239116   5.129   4.409   0.941  0.6266  0.1811 -0.4071
12566SOL     OW39117   1.731   2.093   3.365 -0.3539 -0.5869  0.3351
12566SOL    HW139118   1.765   2.110   3.278  1.5500 -2.7931  0.5730
12566SOL    HW239119   1.658   2.032   3.351 -1.6324  0.8942  0.1753
12567SOL     OW39120   1.700   1.103   4.660 -0.0772 -0.0392 -0.0528
12567SOL    HW139121   1.616   1.116   4.616  0.2293  1.0034 -0.3488
12567SOL    HW239122   1.756   1.063   4.593 -0.5621 -1.5762  0.4003
12568SOL     OW39123   7.206   2.667   5.706 -0.0972  0.2847 -0.2212
12568SOL    HW139124   7.142   2.727   5.743 -0.3110 -1.1332  1.8833
12568SOL    HW239125   7.154   2.597   5.668  0.1729 -0.3613  0.5820
12569SOL     OW39126   0.386   1.834   0.004 -0.0799  0.0223  0.0804
12569SOL    HW139127   0.478   1.810  -0.011 -0.2091 -0.7264  0.4459
12569SOL    HW239128   0.345   1.753   0.034 -0.4624  0.7458  1.6052
12570SOL     OW39129   3.568   2.391   2.031  0.1949  0.5845 -0.3148
12570SOL    HW139130   3.623   2.315   2.050 -0.8882 -0.0146  0.5366
12570SOL    HW239131   3.531   2.416   2.116 -0.7726  1.0246 -0.8487
12571SOL     OW39132   5.507   5.475   3.700 -0.0666  0.0815  0.1851
12571SOL    HW139133   5.463   5.557   3.722 -0.4622 -0.1002  0.0807
12571SOL    HW239134   5.547   5.446   3.783 -0.6050 -0.0285  0.4085
12572SOL     OW39135   1.010   0.374   3.320 -0.3896 -0.2893 -0.6940
12572SOL    HW139136   1.083   0.341   3.268 -0.2411 -1.4278  0.1937
12572SOL    HW239137   1.003   0.466   3.297  2.1623  0.1801  0.1380
12573SOL     OW39138   4.130   7.375   0.862  0.1160  0.3131 -0.3425
12573SOL    HW139139   4.073   7.428   0.805 -0.0241 -0.9261 -1.4106
12573SOL    HW239140   4.133   7.423   0.945 -1.2595  1.1803 -0.7632
12574SOL     OW39141   3.663   4.610   8.295 -0.1950  0.0763  0.2981
12574SOL    HW139142   3.645   4.525   8.254 -0.6572 -0.2728  1.1791
12574SOL    HW239143   3.749   4.599   8.336  0.6756  0.7186 -1.2922
12575SOL     OW39144   4.076   1.459   4.799  0.4229 -0.5603 -0.0910
12575SOL    HW139145   4.140   1.514   4.845  0.3848 -0.8608  0.3279
12575SOL    HW239146   4.042   1.401   4.867 -0.1019 -0.5804 -0.3672
12576SOL     OW39147   6.019   4.086   5.812  0.2318 -0.4548 -0.0350
12576SOL    HW139148   5.939   4.134   5.835  0.2989  0.0203 -0.7564
12576SOL    HW239149   5.989   4.005   5.773  0.1147 -1.2151  1.5423
12577SOL     OW39150   0.558   1.927   3.468 -0.2032  0.1079 -0.0719
12577SOL    HW139151   0.528   1.998   3.411 -1.2968 -0.2778  0.0067
12577SOL    HW239152   0.543   1.847   3.418 -2.0337 -0.3160  1.0508
12578SOL     OW39153   3.761   3.098   5.606 -0.6172  0.3541  0.0581
12578SOL    HW139154   3.800   3.185   5.615 -1.2715  1.1291 -3.3105
12578SOL    HW239155   3.836   3.038   5.609 -0.0658  1.0709  1.4657
12579SOL     OW39156   0.141   1.759   5.432 -0.1621  0.3399  0.0447
12579SOL    HW139157   0.166   1.837   5.383 -0.0765  0.7353  0.7137
12579SOL    HW239158   0.179   1.772   5.519 -0.5254 -0.2386  0.2940
12580SOL     OW39159   0.276   1.656   0.741 -0.1876  0.8379 -0.3056
12580SOL    HW139160   0.296   1.749   0.733  4.0176  0.1431  0.0321
12580SOL    HW239161   0.305   1.617   0.659  0.1217 -0.4176  0.3686
12581SOL     OW39162   7.497   2.935   3.174  0.5666  0.5616  0.3551
12581SOL    HW139163   7.451   2.854   3.152 -1.4466  1.5789  0.5819
12581SOL    HW239164   7.561   2.910   3.241  2.0457 -1.3245 -1.5927
12582SOL     OW39165   0.260   3.083   0.829  0.4165  0.4388 -0.1074
12582SOL    HW139166   0.336   3.066   0.773  1.4952  0.2358  1.3508
12582SOL    HW239167   0.246   3.001   0.876 -1.3835  0.1413 -1.0743
12583SOL     OW39168   1.778   5.212   2.149 -0.0410  0.5349  0.1622
12583SOL    HW139169   1.862   5.246   2.180 -0.4668 -0.1202  2.2228
12583SOL    HW239170   1.781   5.119   2.170 -0.8907  0.2959 -0.6972
12584SOL     OW39171   4.284   6.267   3.646 -0.4598  0.3685  0.9644
12584SOL    HW139172   4.271   6.245   3.738 -0.5384 -1.4360  0.5490
12584SOL    HW239173   4.358   6.328   3.647  0.4312 -0.6697  2.1235
12585SOL     OW39174   2.397   1.068   8.142 -0.3226 -0.5302 -0.2277
12585SOL    HW139175   2.467   1.046   8.203 -0.7399  0.2919  0.5656
12585SOL    HW239176   2.411   1.161   8.122  0.2438 -0.9379 -1.9767
12586SOL     OW39177   6.029   5.168   4.284 -0.2139  0.4219  0.0380
12586SOL    HW139178   6.093   5.175   4.354 -0.3650  0.7759  0.1432
12586SOL    HW239179   5.965   5.105   4.316 -0.4509  0.8177  0.3542
12587SOL     OW39180   2.672   1.714   5.171  0.4818 -0.5188  0.1009
12587SOL    HW139181   2.704   1.800   5.143  1.9307 -0.2190  2.3729
12587SOL    HW239182   2.729   1.651   5.127  1.2191 -0.1670  0.5263
12588SOL     OW39183   5.915   6.788   7.230  0.2937 -0.0778  0.5198
12588SOL    HW139184   5.916   6.729   7.155  0.3996 -2.3662  2.2135
12588SOL    HW239185   5.984   6.852   7.211  1.0435 -1.2407 -0.8731
12589SOL     OW39186   7.317   4.232   5.603 -0.2351 -0.3549 -1.2796
12589SOL    HW139187   7.305   4.276   5.519  2.3006  1.5124 -0.7732
12589SOL    HW239188   7.246   4.264   5.658 -2.4000 -2.1805 -2.7977
12590SOL     OW39189   1.086   0.494   7.872 -0.6569  0.2079  0.1806
12590SOL    HW139190   1.049   0.582   7.880  1.6782  1.3426 -0.7017
12590SOL    HW239191   1.121   0.490   7.784 -2.3166 -2.3436 -0.4716
12591SOL     OW39192   5.514   3.897   0.961 -0.0007 -0.1257  0.4550
12591SOL    HW139193   5.445   3.842   0.922  0.1877 -0.5695  0.7428
12591SOL    HW239194   5.593   3.875   0.911  0.1253 -0.2952  0.7251
12592SOL     OW39195   5.951   0.678   5.554 -0.3871  0.4781  0.4942
12592SOL    HW139196   5.892   0.745   5.588 -1.0447 -0.9246  2.2324
12592SOL    HW239197   5.955   0.612   5.622  1.3927 -0.5867 -0.5598
12593SOL     OW39198   2.751   3.436   7.084 -0.3064 -0.3231 -0.5510
12593SOL    HW139199   2.681   3.401   7.138 -0.2701  0.3299 -0.0710
12593SOL    HW239200   2.819   3.369   7.085 -0.9555 -0.9975 -1.0938
12594SOL     OW39201   7.720   7.816   2.662  0.2411 -0.3615 -0.6510
12594SOL    HW139202   7.673   7.811   2.745  2.2642 -0.7583  0.5241
12594SOL    HW239203   7.681   7.746   2.609 -1.0556 -0.1212 -0.0638
12595SOL     OW39204   2.760   3.907   3.903  0.4827  0.2479  0.0011
12595SOL    HW139205   2.670   3.879   3.915  0.6788  0.2456  1.7669
12595SOL    HW239206   2.767   3.928   3.810 -1.3171  0.2094 -0.1754
12596SOL     OW39207   0.732   3.709   6.696 -0.2084  0.2276 -0.0886
12596SOL    HW139208   0.732   3.667   6.782  0.5338  0.5880  0.0906
12596SOL    HW239209   0.825   3.724   6.677 -0.4740  2.2261  0.0561
12597SOL     OW39210   2.451   6.577   2.142 -0.0711  0.1807 -0.0806
12597SOL    HW139211   2.423   6.652   2.089 -0.6002 -1.0163 -1.5381
12597SOL    HW239212   2.533   6.548   2.102  0.8108  0.7129  1.2507
12598SOL     OW39213   0.659   3.507   4.909  0.2872 -0.3796  0.1024
12598SOL    HW139214   0.711   3.456   4.969  1.0727 -0.4917 -0.6554
12598SOL    HW239215   0.672   3.465   4.824  0.9421  1.0428 -0.5325
12599SOL     OW39216   4.026   5.646   5.750  0.1458 -0.1436 -0.1047
12599SOL    HW139217   4.091   5.682   5.810  0.9713 -0.2492 -0.9172
12599SOL    HW239218   3.969   5.721   5.730 -1.0222 -0.4335  1.8954
12600SOL     OW39219   4.375   5.819   5.041  0.1880 -0.0544 -0.3041
12600SOL    HW139220   4.280   5.831   5.043  0.3314  1.1751  0.9217
12600SOL    HW239221   4.405   5.883   4.976  0.1375 -0.9616 -1.2426
12601SOL     OW39222   0.792   0.407   1.341  0.2808  0.2532 -0.6975
12601SOL    HW139223   0.870   0.365   1.305 -1.2240 -1.9604 -1.6142
12601SOL    HW239224   0.760   0.346   1.408 -1.5776  0.2235 -1.5319
12602SOL     OW39225   6.703   6.625   8.338  0.7063  0.2781 -0.0285
12602SOL    HW139226   6.636   6.631   8.405  0.0462  0.0398 -0.6552
12602SOL    HW239227   6.781   6.665   8.378  0.2577  0.3681  0.7748
12603SOL     OW39228   2.568   4.403   7.957  0.0874 -0.1826 -0.1018
12603SOL    HW139229   2.556   4.320   8.004 -0.0012 -0.0324  0.1417
12603SOL    HW239230   2.655   4.395   7.917  0.3943 -0.0994  0.5309
12604SOL     OW39231   8.189   0.759   3.079 -0.0949 -0.7169  0.0185
12604SOL    HW139232   8.213   0.848   3.053  1.2771 -1.4774 -1.4682
12604SOL    HW239233   8.270   0.720   3.111 -1.2052 -0.6459  3.3255
12605SOL     OW39234   2.374   5.158   2.540 -0.6693 -0.3919  0.6791
12605SOL    HW139235   2.409   5.248   2.538 -0.4850 -0.4601 -1.4080
12605SOL    HW239236   2.451   5.102   2.530 -0.8793 -0.7537  1.0500
12606SOL     OW39237   8.323   6.917   5.223 -0.2150  0.4639 -0.4376
12606SOL    HW139238   8.364   6.957   5.146 -0.0952 -0.0441 -0.6433
12606SOL    HW239239   8.238   6.961   5.231 -0.1522  0.6436 -0.7543
12607SOL     OW39240   5.792   8.189   8.000  0.2229  0.1819 -0.3761
12607SOL    HW139241   5.789   8.170   7.907  1.8121  0.9011 -0.6145
12607SOL    HW239242   5.776   8.283   8.006  1.2255  0.3406 -0.0336
12608SOL     OW39243   2.851   0.855   6.018  0.5235 -0.1804 -0.0058
12608SOL    HW139244   2.810   0.917   5.957 -2.0415  1.0011  2.6629
12608SOL    HW239245   2.791   0.780   6.018 -0.5920  0.6139  2.2821
12609SOL     OW39246   2.293   8.089   5.425  0.4848  0.8203 -0.3100
12609SOL    HW139247   2.299   8.183   5.439  0.7751  0.6535  0.8159
12609SOL    HW239248   2.384   8.059   5.428  0.2525 -0.0498  3.8839
12610SOL     OW39249   5.707   3.420   8.260  0.0082 -0.2500 -0.1674
12610SOL    HW139250   5.695   3.504   8.305  0.7525 -0.4588  0.4280
12610SOL    HW239251   5.672   3.355   8.321  1.1003 -0.5435  0.1595
12611SOL     OW39252   2.129   2.485   5.306  0.3335  0.5582  0.0438
12611SOL    HW139253   2.066   2.550   5.337  0.9396  1.0320  0.3151
12611SOL    HW239254   2.213   2.531   5.306  0.7067 -0.1017 -0.1641
12612SOL     OW39255   3.150   5.134   2.826  0.2904 -0.5532 -0.2045
12612SOL    HW139256   3.201   5.055   2.807 -0.4775 -0.4795 -2.9581
12612SOL    HW239257   3.113   5.117   2.913  1.1381 -2.6859 -0.1827
12613SOL     OW39258   1.875   1.084   4.881  0.5991 -0.1471 -0.2689
12613SOL    HW139259   1.816   1.010   4.886 -0.3507  0.6013 -0.0151
12613SOL    HW239260   1.829   1.148   4.827  0.2089  1.2751  1.6189
12614SOL     OW39261   0.675   8.195   6.346 -0.0370  0.3108 -0.2067
12614SOL    HW139262   0.723   8.278   6.349 -0.4109  0.5272 -0.1969
12614SOL    HW239263   0.631   8.197   6.261 -0.7673  0.5280  0.1659
12615SOL     OW39264   6.165   4.837   0.421 -0.1340 -0.5894 -0.6648
12615SOL    HW139265   6.180   4.845   0.515  0.6538 -0.0574 -0.8213
12615SOL    HW239266   6.247   4.865   0.382 -0.7153 -0.0680 -1.5353
12616SOL     OW39267   1.461   5.451   5.645  0.8388 -0.2629 -0.3736
12616SOL    HW139268   1.518   5.527   5.641  0.1279  0.4271  1.5680
12616SOL    HW239269   1.513   5.383   5.687  0.1481  0.5457  1.9493
12617SOL     OW39270   0.411   6.562   2.417  0.3332 -0.8039  0.2819
12617SOL    HW139271   0.392   6.472   2.443 -1.4102  0.3521  3.6313
12617SOL    HW239272   0.326   6.598   2.392  0.6702  0.4428  0.8762
12618SOL     OW39273   0.842   2.797   6.726 -0.0919  0.3872  0.8611
12618SOL    HW139274   0.927   2.803   6.682 -1.1732 -1.1189 -1.6656
12618SOL    HW239275   0.825   2.886   6.757  0.8605  1.6006 -1.7718
12619SOL     OW39276   6.560   5.241   5.937  0.0019  0.0583  0.1147
12619SOL    HW139277   6.653   5.222   5.924  0.1522  0.6104  0.3579
12619SOL    HW239278   6.551   5.333   5.915 -0.8340 -0.3935 -1.6108
12620SOL     OW39279   5.146   4.484   5.935  0.0423  0.1943  0.0761
12620SOL    HW139280   5.209   4.515   5.870 -0.0824 -0.1159 -0.1945
12620SOL    HW239281   5.091   4.422   5.888  0.3413 -0.5076  0.6202
12621SOL     OW39282   6.961   7.387   4.566  0.2108  0.6997 -0.1039
12621SOL    HW139283   7.054   7.368   4.561  0.1441  0.5888 -1.1841
12621SOL    HW239284   6.926   7.358   4.482 -1.0866 -0.7771  0.8974
12622SOL     OW39285   5.730   2.596   3.448 -0.1284 -0.1475 -0.9729
12622SOL    HW139286   5.763   2.539   3.379  2.2983 -0.1970  0.1375
12622SOL    HW239287   5.763   2.683   3.426  1.6330 -0.3527  0.6145
12623SOL     OW39288   2.511   2.359   6.602  0.0623 -0.6272 -0.1961
12623SOL    HW139289   2.460   2.342   6.681 -0.7241 -0.6365 -0.6841
12623SOL    HW239290   2.591   2.401   6.633 -0.0817 -0.9444  0.6260
12624SOL     OW39291   2.841   1.356   8.350 -0.1279  0.5743  0.3522
12624SOL    HW139292   2.784   1.410   8.405 -0.5396  0.7113 -0.1977
12624SOL    HW239293   2.836   1.397   8.263  0.5020  0.3536  0.2064
12625SOL     OW39294   3.864   5.593   5.316  0.3423 -0.3746  0.4255
12625SOL    HW139295   3.825   5.522   5.265  1.4980 -1.3483  0.8636
12625SOL    HW239296   3.804   5.604   5.390  0.1048 -0.8167  0.3029
12626SOL     OW39297   0.253   4.472   3.581  0.2480  0.1933  0.2849
12626SOL    HW139298   0.342   4.483   3.547  0.3392  1.7092  0.9601
12626SOL    HW239299   0.250   4.526   3.660 -1.2658  0.1403  0.2951
12627SOL     OW39300   1.186   2.628   3.897  0.3124  0.4668  0.0494
12627SOL    HW139301   1.258   2.627   3.834  0.9882  0.4335  0.8178
12627SOL    HW239302   1.184   2.718   3.929 -0.3584  0.6144 -0.3768
12628SOL     OW39303   0.417   3.616   0.251  0.1429  0.3280  0.4551
12628SOL    HW139304   0.393   3.650   0.337 -2.5620 -0.0178 -0.0677
12628SOL    HW239305   0.397   3.687   0.190 -0.6618 -0.3861 -0.1365
12629SOL     OW39306   3.974   3.376   5.391 -0.1779  0.0414  0.5487
12629SOL    HW139307   3.944   3.416   5.309  1.1664  0.4775  0.2478
12629SOL    HW239308   4.009   3.291   5.364  1.0113  0.5144  0.5157
12630SOL     OW39309   6.531   0.234   5.316 -0.1500  0.5477  0.5645
12630SOL    HW139310   6.486   0.254   5.398  0.4600  0.0348  1.0334
12630SOL    HW239311   6.482   0.159   5.280  0.2570  0.0524  1.0249
12631SOL     OW39312   2.402   7.245   7.115  0.4723 -0.0660  0.4943
12631SOL    HW139313   2.375   7.158   7.086 -0.6649 -0.4925  2.6118
12631SOL    HW239314   2.331   7.302   7.087  0.9200  0.1052 -0.3374
12632SOL     OW39315   8.008   2.029   1.169 -0.1198  0.4757  0.6551
12632SOL    HW139316   8.097   2.012   1.199 -0.6029 -1.2308  1.2052
12632SOL    HW239317   7.995   2.123   1.185  0.6648  0.2256  3.1255
12633SOL     OW39318   7.907   5.193   3.624 -0.0179  0.2725  0.4194
12633SOL    HW139319   7.965   5.179   3.699 -2.1463  0.6356  2.2497
12633SOL    HW239320   7.919   5.115   3.570  2.7609  0.7284  0.2418
12634SOL     OW39321   2.884   0.449   7.214  0.0845  0.2095  0.0813
12634SOL    HW139322   2.973   0.468   7.186  0.0516 -1.5976 -1.4757
12634SOL    HW239323   2.894   0.403   7.298  0.6921 -0.8330 -0.5512
12635SOL     OW39324   3.656   0.489   4.140 -0.5309  0.2410 -0.4516
12635SOL    HW139325   3.614   0.523   4.061 -1.4137 -0.2640 -0.2174
12635SOL    HW239326   3.663   0.564   4.198 -0.1999  0.5403 -0.8733
12636SOL     OW39327   6.883   0.182   0.701 -0.5301 -0.2191 -0.1149
12636SOL    HW139328   6.878   0.138   0.786 -0.1139  1.7430  0.9995
12636SOL    HW239329   6.976   0.198   0.688 -0.6486  0.1039 -0.5961
12637SOL     OW39330   4.887   1.323   5.513  0.0614  0.2486  0.0190
12637SOL    HW139331   4.971   1.302   5.472 -0.7417 -0.8434 -1.1773
12637SOL    HW239332   4.822   1.281   5.457 -1.3397  1.5550  0.5791
12638SOL     OW39333   5.076   6.077   0.640 -0.1070  0.0307 -0.2801
12638SOL    HW139334   5.018   6.105   0.569  0.4725  0.4088 -0.6217
12638SOL    HW239335   5.107   6.159   0.678 -0.0490 -0.1712  0.1079
12639SOL     OW39336   2.846   4.957   7.400  0.1566 -0.0750  0.2546
12639SOL    HW139337   2.868   4.930   7.489 -2.0074 -1.2028  0.4982
12639SOL    HW239338   2.772   5.017   7.410 -0.2222 -0.3407 -0.8027
12640SOL     OW39339   6.742   0.731   5.198 -0.3836 -0.4464 -0.5856
12640SOL    HW139340   6.722   0.648   5.241 -3.3368  0.0517 -0.8354
12640SOL    HW239341   6.769   0.706   5.110  1.0048 -1.2023  0.0115
12641SOL     OW39342   0.885   6.265   3.129  0.3219  0.0084  0.1420
12641SOL    HW139343   0.824   6.219   3.187  0.0300  0.2294  0.0171
12641SOL    HW239344   0.912   6.342   3.180  0.7779 -0.2750  0.3353
12642SOL     OW39345   4.456   1.798   6.153 -0.3314 -0.9622 -0.3031
12642SOL    HW139346   4.428   1.776   6.242  2.6444  2.2236  1.6594
12642SOL    HW239347   4.551   1.805   6.158 -0.2199  2.0379 -2.9651
12643SOL     OW39348   3.207   3.872   2.376  0.3605  0.3116 -0.2335
12643SOL    HW139349   3.262   3.794   2.385  1.3080  0.7115 -2.1458
12643SOL    HW239350   3.135   3.845   2.319  0.5069  0.7473 -0.6265
12644SOL     OW39351   3.771   8.236   7.351 -0.6566 -0.3561  0.1576
12644SOL    HW139352   3.727   8.287   7.419 -1.0269  0.0613 -0.3946
12644SOL    HW239353   3.773   8.293   7.275  0.2511 -0.6149 -0.0295
12645SOL     OW39354   4.984   3.422   4.402  0.2980  0.0371 -0.2932
12645SOL    HW139355   4.894   3.419   4.434  0.2386 -1.4430 -0.5042
12645SOL    HW239356   5.020   3.503   4.437 -1.6348  1.5435 -1.6334
12646SOL     OW39357   0.979   2.178   0.168 -0.0688  0.3618 -0.2031
12646SOL    HW139358   1.049   2.238   0.191  0.1020  0.0972 -0.0308
12646SOL    HW239359   1.009   2.134   0.089 -0.5690  1.1249 -0.8288
12647SOL     OW39360   0.780   4.298   0.599  0.1802  0.0409 -0.3295
12647SOL    HW139361   0.862   4.291   0.549 -0.1866  0.9428 -1.0845
12647SOL    HW239362   0.712   4.273   0.536 -0.1033 -1.2288  0.4463
12648SOL     OW39363   2.525   0.873   1.723 -0.1780 -0.0265 -0.3527
12648SOL    HW139364   2.507   0.920   1.804  0.9510 -0.0521 -0.0726
12648SOL    HW239365   2.439   0.862   1.682 -0.6937  0.4738  0.5645
12649SOL     OW39366   4.287   3.526   4.368 -0.2059 -0.4672 -0.5839
12649SOL    HW139367   4.337   3.580   4.307  1.6733  0.0592  1.2775
12649SOL    HW239368   4.352   3.467   4.406 -1.5085 -1.4866  0.1474
12650SOL     OW39369   3.897   4.136   1.853  0.3351  0.5261 -0.2359
12650SOL    HW139370   3.818   4.165   1.808  0.9556  0.5088 -1.3688
12650SOL    HW239371   3.879   4.152   1.946 -0.3024  2.2086 -0.6118
12651SOL     OW39372   3.199   7.922   4.877  0.8824 -0.1497  0.2588
12651SOL    HW139373   3.147   7.860   4.928 -0.1666  0.7354  0.2850
12651SOL    HW239374   3.201   7.885   4.789 -0.7954  0.3821 -0.0277
12652SOL     OW39375   7.514   5.275   1.251 -0.1177 -0.0476  0.0286
12652SOL    HW139376   7.591   5.253   1.199 -0.7431  0.1007 -0.9695
12652SOL    HW239377   7.533   5.363   1.285 -1.2324  1.5383 -3.0390
12653SOL     OW39378   7.248   8.094   4.370 -0.2609 -0.3484  0.4593
12653SOL    HW139379   7.176   8.075   4.431 -0.6116 -2.2194 -0.4567
12653SOL    HW239380   7.312   8.024   4.387 -0.1280 -0.5887 -0.9361
12654SOL     OW39381   7.834   3.998   5.858 -0.0026  0.4951 -0.6672
12654SOL    HW139382   7.784   4.013   5.778 -0.7644  1.4176 -0.0296
12654SOL    HW239383   7.768   3.986   5.926  0.6252  1.3615  0.1183
12655SOL     OW39384   6.393   3.474   1.155  0.0806 -0.5665  0.1071
12655SOL    HW139385   6.462   3.533   1.122 -0.8148 -0.2476 -1.2833
12655SOL    HW239386   6.428   3.386   1.142  1.2380 -0.3884  1.7588
12656SOL     OW39387   5.935   8.004   6.771  0.1258  0.0171 -0.0014
12656SOL    HW139388   5.891   8.039   6.694  1.6950  0.8676 -0.5460
12656SOL    HW239389   5.978   8.079   6.812  1.6010 -0.8527  0.1385
12657SOL     OW39390   3.800   2.326   1.832  0.3700  0.2654  0.0179
12657SOL    HW139391   3.816   2.313   1.926  0.6448 -0.1093 -0.0820
12657SOL    HW239392   3.738   2.257   1.808 -0.6856  1.1113  0.1865
12658SOL     OW39393   3.717   4.380   0.851  0.3431 -0.0273 -0.2052
12658SOL    HW139394   3.752   4.291   0.849 -0.4509 -0.3462 -2.3770
12658SOL    HW239395   3.630   4.372   0.812 -1.7010  0.9707  3.7060
12659SOL     OW39396   1.607   5.589   1.495  0.1558 -0.3864  0.0586
12659SOL    HW139397   1.603   5.548   1.409  1.6132  0.7716 -0.6076
12659SOL    HW239398   1.521   5.573   1.533 -0.4416 -1.1312 -1.5170
12660SOL     OW39399   7.520   7.091   5.106 -0.8419  0.2867  0.9822
12660SOL    HW139400   7.533   7.107   5.013 -1.0518 -2.5100  0.3800
12660SOL    HW239401   7.607   7.098   5.145 -0.5193  0.0958  0.3099
12661SOL     OW39402   0.298   6.272   6.735 -0.4061 -0.5016  0.2708
12661SOL    HW139403   0.301   6.186   6.693 -1.7152 -1.0337  1.1991
12661SOL    HW239404   0.241   6.259   6.811 -0.1211  1.0458  0.7758
12662SOL     OW39405   4.735   7.439   5.857  0.0330  0.2207 -0.0918
12662SOL    HW139406   4.671   7.397   5.801 -0.3103  0.3138  0.2246
12662SOL    HW239407   4.687   7.459   5.938 -0.0133  1.8446 -0.4744
12663SOL     OW39408   0.764   4.441   2.167  0.5164  0.0846 -0.3479
12663SOL    HW139409   0.758   4.432   2.071  2.1436  0.1805 -0.4952
12663SOL    HW239410   0.752   4.534   2.183 -2.1290 -0.2211 -0.1950
12664SOL     OW39411   0.710   6.886   0.937 -0.4911 -0.4153  0.3438
12664SOL    HW139412   0.688   6.845   0.853  0.1566 -0.2358  0.0885
12664SOL    HW239413   0.789   6.937   0.920  0.9611 -2.1214  1.5659
12665SOL     OW39414   1.043   1.039   0.620 -0.4807 -0.0023 -0.3872
12665SOL    HW139415   1.125   1.069   0.660 -1.0823  1.0476  0.1016
12665SOL    HW239416   1.069   1.006   0.534  0.7140 -1.4840  0.4784
12666SOL     OW39417   1.105   2.839   7.905  0.0659  0.2137  0.3203
12666SOL    HW139418   1.073   2.917   7.948 -1.1359  0.7938 -1.4964
12666SOL    HW239419   1.051   2.768   7.939 -0.3353  0.5352  0.3506
12667SOL     OW39420   1.792   6.502   0.684 -0.4700 -0.2275  0.0162
12667SOL    HW139421   1.735   6.432   0.651 -1.0444  0.3129 -0.1509
12667SOL    HW239422   1.833   6.538   0.606  0.8953 -1.2748  0.2185
12668SOL     OW39423   3.884   3.269   2.692 -1.0609 -0.2342  0.3663
12668SOL    HW139424   3.944   3.321   2.745 -1.6525  0.7172  0.1271
12668SOL    HW239425   3.822   3.232   2.756 -1.6583  0.7532  0.3751
12669SOL     OW39426   7.922   4.858   6.835 -0.2149  0.3482 -0.2843
12669SOL    HW139427   7.983   4.784   6.836 -0.0292  0.4826  1.2775
12669SOL    HW239428   7.978   4.936   6.836 -0.4076  0.4834  0.1082
12670SOL     OW39429   3.157   3.801   2.005  0.3583 -0.7699 -0.3570
12670SOL    HW139430   3.105   3.789   2.084  1.1516 -0.9939  0.1503
12670SOL    HW239431   3.171   3.895   1.999 -1.9623 -0.4602 -1.7473
12671SOL     OW39432   8.291   3.478   7.063 -0.2069 -0.7336  0.2321
12671SOL    HW139433   8.252   3.426   6.992 -1.3409 -0.7416  0.8322
12671SOL    HW239434   8.293   3.418   7.138 -2.1873  0.2481  1.1310
12672SOL     OW39435   7.121   5.621   7.018  0.0830 -0.7049  0.2541
12672SOL    HW139436   7.105   5.640   7.111 -2.1411  0.6030 -0.3335
12672SOL    HW239437   7.060   5.677   6.971  1.1216 -1.3780 -2.0415
12673SOL     OW39438   3.416   7.977   0.471 -0.4870  0.1762 -0.7012
12673SOL    HW139439   3.475   7.908   0.503 -0.9769  0.7177  1.6127
12673SOL    HW239440   3.339   7.930   0.440 -0.4975 -0.3831  0.1278
12674SOL     OW39441   4.755   3.136   1.884  0.2321  0.5068  0.1517
12674SOL    HW139442   4.833   3.184   1.856  0.6125  0.2301  0.7058
12674SOL    HW239443   4.778   3.102   1.971  0.4000 -1.5919 -0.6624
12675SOL     OW39444   7.413   5.191   5.176  0.3637  0.2562 -0.1720
12675SOL    HW139445   7.328   5.162   5.211  0.6360  0.4571  0.6861
12675SOL    HW239446   7.476   5.129   5.213  0.5751  0.0281 -0.9144
12676SOL     OW39447   7.912   0.108   0.196 -0.0465 -0.0107  0.2001
12676SOL    HW139448   7.825   0.084   0.227  0.4447  0.0285  1.6655
12676SOL    HW239449   7.930   0.047   0.125 -1.5851  0.5143 -0.6947
12677SOL     OW39450   7.092   3.191   0.443 -0.3074 -0.2378  0.9508
12677SOL    HW139451   7.022   3.151   0.391 -0.9274  2.2669 -0.3084
12677SOL    HW239452   7.100   3.135   0.520  0.5943 -4.1274 -1.6934
12678SOL     OW39453   3.814   8.050   4.039  0.2715  0.6949  0.1017
12678SOL    HW139454   3.831   8.015   3.952 -0.7164 -1.1876  0.5891
12678SOL    HW239455   3.899   8.080   4.071  0.7337  0.9010 -1.2834
12679SOL     OW39456   6.714   8.214   2.852 -0.5431 -0.2781  0.3355
12679SOL    HW139457   6.737   8.148   2.787 -0.9409 -0.1346  0.0396
12679SOL    HW239458   6.700   8.165   2.933  1.5599 -0.2909  0.7506
12680SOL     OW39459   3.783   2.243   4.371 -0.2054  0.0497  0.2255
12680SOL    HW139460   3.739   2.209   4.294 -0.5916  0.5882  0.2081
12680SOL    HW239461   3.796   2.336   4.353  2.6169 -0.3955 -0.5950
12681SOL     OW39462   3.511   5.547   4.181  0.6752  0.2245 -0.1247
12681SOL    HW139463   3.484   5.495   4.257  0.5901  0.6750  0.1550
12681SOL    HW239464   3.605   5.535   4.177  0.6205 -0.1863 -0.2360
12682SOL     OW39465   2.655   7.985   5.693  0.1565  0.3563 -0.2931
12682SOL    HW139466   2.625   7.958   5.606  2.4946  0.1495 -1.0961
12682SOL    HW239467   2.665   8.080   5.686 -0.0910  0.3981 -0.0964
12683SOL     OW39468   5.049   7.247   1.026 -0.1450  0.5715 -0.0270
12683SOL    HW139469   5.134   7.287   1.041  0.7024 -1.0686 -0.1668
12683SOL    HW239470   5.034   7.256   0.932  0.5616 -0.3507 -0.2486
12684SOL     OW39471   4.253   5.255   1.458  0.6317  0.0987 -0.7982
12684SOL    HW139472   4.231   5.334   1.409  1.8170  0.4205 -0.8531
12684SOL    HW239473   4.313   5.285   1.527 -0.1743 -0.5081  0.1977
12685SOL     OW39474   7.682   6.312   0.630 -0.3548 -0.6719 -0.1208
12685SOL    HW139475   7.764   6.284   0.589  0.8891  1.6054  0.6467
12685SOL    HW239476   7.686   6.275   0.718 -0.0244 -0.3757 -0.0077
12686SOL     OW39477   0.512   1.838   2.872 -0.0508 -0.0737 -0.0390
12686SOL    HW139478   0.523   1.745   2.894 -0.9965 -0.0733  0.4741
12686SOL    HW239479   0.537   1.884   2.952  0.1130  0.1059 -0.1931
12687SOL     OW39480   0.502   3.556   2.508 -0.4823 -0.5349  0.0024
12687SOL    HW139481   0.498   3.490   2.439  0.0170 -0.8832  0.3010
12687SOL    HW239482   0.562   3.622   2.475 -0.3186 -0.6539  0.0604
12688SOL     OW39483   2.360   6.781   2.007 -0.6131 -0.0052  0.1246
12688SOL    HW139484   2.313   6.864   2.015 -0.2236  0.2608 -0.3640
12688SOL    HW239485   2.320   6.738   1.931 -0.0914  0.2112 -0.2782
12689SOL     OW39486   0.466   3.807   7.545  0.3791 -0.0428  0.0716
12689SOL    HW139487   0.386   3.839   7.588  0.4154 -1.6839  1.4573
12689SOL    HW239488   0.447   3.812   7.452 -0.2326  2.3369  0.2650
12690SOL     OW39489   4.514   1.480   6.628 -0.7849  1.1452 -0.6156
12690SOL    HW139490   4.505   1.527   6.711 -0.9535  2.3627 -1.2968
12690SOL    HW239491   4.607   1.459   6.622 -1.2970 -2.8248  1.8662
12691SOL     OW39492   0.885   6.820   1.690 -0.2925 -0.2430  0.1458
12691SOL    HW139493   0.819   6.775   1.638  1.2250 -0.9574 -1.2237
12691SOL    HW239494   0.954   6.756   1.702 -0.7460 -0.2862  3.5187
12692SOL     OW39495   5.081   1.160   1.508 -0.4034  0.6894  0.4500
12692SOL    HW139496   5.039   1.209   1.437 -0.1338  0.4809  0.1482
12692SOL    HW239497   5.061   1.212   1.587  1.1805  2.1669 -0.0455
12693SOL     OW39498   6.697   5.208   2.999 -0.2732 -0.1983  0.2859
12693SOL    HW139499   6.634   5.226   2.928 -0.9009  0.1898  0.9283
12693SOL    HW239500   6.645   5.215   3.079  0.3809 -0.8822  0.7744
12694SOL     OW39501   1.421   7.422   4.899  0.0578  0.0528  0.2131
12694SOL    HW139502   1.437   7.337   4.860 -1.8110  0.1231 -0.8197
12694SOL    HW239503   1.396   7.403   4.989 -0.7900 -0.5622 -0.1325
12695SOL     OW39504   4.518   3.756   0.779  0.4396  0.1246 -0.2100
12695SOL    HW139505   4.439   3.797   0.813  0.3723 -0.4364  0.3175
12695SOL    HW239506   4.542   3.810   0.703  0.6078  1.4003  0.7266
12696SOL     OW39507   5.064   0.665   4.932  0.1617 -0.5749  0.0443
12696SOL    HW139508   5.139   0.618   4.896  0.0728 -0.2303 -0.6046
12696SOL    HW239509   5.103   0.739   4.980  0.2176  0.2737 -1.2614
12697SOL     OW39510   0.122   2.393   5.519 -0.1218 -0.4184  0.6213
12697SOL    HW139511   0.045   2.355   5.476  0.2411 -0.8544  0.3562
12697SOL    HW239512   0.134   2.339   5.598  0.7212 -1.2227 -0.0351
12698SOL     OW39513   4.084   3.592   7.680 -0.4594  0.4661  0.4064
12698SOL    HW139514   4.030   3.599   7.601  1.5608  0.3247 -1.0728
12698SOL    HW239515   4.083   3.499   7.702  0.4508  0.2067 -0.5841
12699SOL     OW39516   3.839   6.115   6.709 -0.5887 -0.1228 -0.4273
12699SOL    HW139517   3.864   6.206   6.729 -1.5532  0.0405  0.0915
12699SOL    HW239518   3.798   6.120   6.623 -0.1888 -0.1533 -0.6229
12700SOL     OW39519   1.563   0.586   4.080  0.1200 -0.0972 -0.2076
12700SOL    HW139520   1.490   0.567   4.139 -0.5056  2.5121  0.0006
12700SOL    HW239521   1.522   0.627   4.004  1.1735 -0.9093 -1.2409
12701SOL     OW39522   4.737   3.791   4.595  0.1396  0.1622  0.2446
12701SOL    HW139523   4.742   3.699   4.569  1.1218  0.1041  0.5913
12701SOL    HW239524   4.665   3.826   4.544  0.1602 -0.6477 -0.3700
12702SOL     OW39525   2.990   3.797   2.237  0.1586  0.0081 -0.3833
12702SOL    HW139526   2.953   3.866   2.292 -0.8406 -0.8570  0.0548
12702SOL    HW239527   2.924   3.728   2.237  1.1794 -0.9969 -0.7368
12703SOL     OW39528   4.989   2.688   0.396 -0.2722 -0.1333 -0.2729
12703SOL    HW139529   5.068   2.710   0.346 -0.3152  0.2273 -0.1845
12703SOL    HW239530   4.997   2.594   0.414 -0.5987 -0.4163 -1.5471
12704SOL     OW39531   1.405   2.615   3.745  0.4481 -0.2181  0.3043
12704SOL    HW139532   1.471   2.545   3.745  0.1568 -0.5200 -1.1606
12704SOL    HW239533   1.456   2.696   3.749  0.9338 -0.4481 -0.9097
12705SOL     OW39534   4.610   6.765   5.533  0.4511 -0.2190 -0.1730
12705SOL    HW139535   4.669   6.778   5.459 -0.4347 -3.7520 -1.6661
12705SOL    HW239536   4.647   6.691   5.581 -0.7256 -0.0222  1.1288
12706SOL     OW39537   5.166   0.611   3.206 -0.1913 -0.2070 -0.3284
12706SOL    HW139538   5.212   0.660   3.274 -0.7964  0.6056 -0.4913
12706SOL    HW239539   5.073   0.626   3.224 -0.3586  0.1621 -1.4260
12707SOL     OW39540   5.609   7.578   8.154  0.2256 -0.0658  0.0871
12707SOL    HW139541   5.641   7.553   8.240 -1.0734 -0.2713  0.5371
12707SOL    HW239542   5.625   7.501   8.099 -0.3506 -0.5241  0.5433
12708SOL     OW39543   1.114   7.954   3.841  0.4182 -0.4298  0.2806
12708SOL    HW139544   1.162   7.884   3.796 -0.2738 -1.4763  1.1198
12708SOL    HW239545   1.173   7.982   3.911  0.6442 -0.2309  0.0190
12709SOL     OW39546   7.146   7.254   0.556  0.0862 -0.2027 -0.1446
12709SOL    HW139547   7.218   7.303   0.514 -0.8796  2.8688  1.5225
12709SOL    HW239548   7.181   7.228   0.641 -0.2469 -0.1176  0.0202
12710SOL     OW39549   3.949   1.859   5.191 -0.3677  0.3880 -0.1399
12710SOL    HW139550   3.892   1.798   5.145 -0.1252 -0.8704  1.1587
12710SOL    HW239551   3.935   1.840   5.284  2.1895 -0.0458  0.2429
12711SOL     OW39552   0.845   6.293   8.303  0.3590 -0.5809 -0.4961
12711SOL    HW139553   0.852   6.209   8.258  0.6072 -1.2185  0.6896
12711SOL    HW239554   0.850   6.271   8.396  1.0430  0.8070 -0.1782
12712SOL     OW39555   5.723   2.974   1.384  0.6553  0.4438  0.0883
12712SOL    HW139556   5.689   3.062   1.367  2.6160  0.9913 -1.3701
12712SOL    HW239557   5.788   2.987   1.453  0.1509 -0.0636  0.6623
12713SOL     OW39558   4.212   2.643   7.051 -0.2141 -0.4828  0.7825
12713SOL    HW139559   4.286   2.688   7.010 -1.4429  1.9043  1.0098
12713SOL    HW239560   4.234   2.640   7.144  0.0277 -0.6862  0.7203
12714SOL     OW39561   1.653   6.707   2.803  0.4524 -0.3903  0.4060
12714SOL    HW139562   1.590   6.734   2.870 -0.1993 -0.8325 -0.0182
12714SOL    HW239563   1.732   6.685   2.852  0.6397  1.1780  0.8644
12715SOL     OW39564   5.944   5.452   8.027  0.3569  0.2874 -0.1983
12715SOL    HW139565   5.880   5.522   8.034  0.1248  0.2397 -1.6011
12715SOL    HW239566   5.911   5.383   8.085 -1.4462 -0.1604 -1.6906
12716SOL     OW39567   7.120   5.634   3.690 -0.1240  0.2474  0.0383
12716SOL    HW139568   7.131   5.728   3.676  0.1137  0.1579 -0.3974
12716SOL    HW239569   7.191   5.609   3.748 -0.1050  0.3127  0.0423
12717SOL     OW39570   3.272   5.412   2.290  1.2088 -0.4764 -0.3749
12717SOL    HW139571   3.364   5.435   2.304  1.2068 -0.2345 -0.7554
12717SOL    HW239572   3.233   5.414   2.378  1.4512 -0.0871 -0.2746
12718SOL     OW39573   2.319   2.852   5.756  0.3773  0.0696 -0.1080
12718SOL    HW139574   2.371   2.824   5.831 -0.2453  0.9401  0.6825
12718SOL    HW239575   2.317   2.947   5.763  0.7143  0.1962 -1.5251
12719SOL     OW39576   6.603   4.927   8.350 -0.3062  0.2407  0.1849
12719SOL    HW139577   6.624   4.934   8.444  3.4189 -1.5554 -0.3383
12719SOL    HW239578   6.520   4.973   8.341 -0.2920  1.4359  4.1723
12720SOL     OW39579   2.271   3.132   0.039 -0.0399 -0.2936 -0.4721
12720SOL    HW139580   2.221   3.203  -0.002 -0.7181 -1.6481 -2.0797
12720SOL    HW239581   2.317   3.090  -0.033  0.8605 -1.1176  0.5508
12721SOL     OW39582   6.707   2.016   1.284 -0.5489  0.0132 -0.5950
12721SOL    HW139583   6.776   1.985   1.225 -0.0872  1.6840 -0.9644
12721SOL    HW239584   6.695   1.943   1.345  0.9082 -0.6723 -1.0646
12722SOL     OW39585   2.657   8.080   7.158  0.5031  0.3319 -0.1341
12722SOL    HW139586   2.590   8.083   7.090 -0.2228 -1.1370  0.4663
12722SOL    HW239587   2.697   8.167   7.157 -1.5792  1.3512 -0.3522
12723SOL     OW39588   3.454   0.044   0.802 -0.4262 -0.4051 -0.2873
12723SOL    HW139589   3.443   0.031   0.708 -2.0721  0.3480 -0.2415
12723SOL    HW239590   3.365   0.055   0.835  0.2520  2.6094  0.8497
12724SOL     OW39591   1.623   3.467   7.196  0.4727  0.4178  0.3069
12724SOL    HW139592   1.584   3.400   7.140  0.7708  0.7281 -0.2795
12724SOL    HW239593   1.690   3.509   7.141  0.2546  1.2337  0.6413
12725SOL     OW39594   5.486   1.710   3.597  0.1447 -0.0009  0.4619
12725SOL    HW139595   5.582   1.721   3.596 -0.0093  1.6115  0.6080
12725SOL    HW239596   5.453   1.789   3.553 -1.0815 -1.2714 -0.9925
12726SOL     OW39597   0.175   1.455   5.406  0.1207 -0.4367  0.1618
12726SOL    HW139598   0.093   1.468   5.453 -0.2308  1.0369 -0.7842
12726SOL    HW239599   0.224   1.536   5.421  1.3124 -1.1957  0.4995
12727SOL     OW39600   2.526   2.894   7.245 -0.5157 -0.1323  0.1132
12727SOL    HW139601   2.620   2.907   7.229 -0.6035  0.3423 -0.0124
12727SOL    HW239602   2.515   2.908   7.339 -0.7629  1.6597 -0.1618
12728SOL     OW39603   2.164   8.271   6.627  0.3760  0.8979 -0.2192
12728SOL    HW139604   2.247   8.313   6.648  0.6468  0.0884  0.3532
12728SOL    HW239605   2.097   8.332   6.658  0.7536  1.3262 -0.2413
12729SOL     OW39606   5.297   0.843   6.199 -0.1164  0.3795  0.2800
12729SOL    HW139607   5.259   0.910   6.142 -2.6399 -0.6580  0.6315
12729SOL    HW239608   5.385   0.828   6.163 -0.7282  1.4818 -1.8301
12730SOL     OW39609   4.324   5.467   7.525 -0.0751  0.2995  0.0072
12730SOL    HW139610   4.268   5.532   7.482  1.2559 -0.9780 -4.2261
12730SOL    HW239611   4.402   5.517   7.550  0.0813  0.7740 -1.3142
12731SOL     OW39612   6.103   4.507   3.520 -0.1900  0.3129 -0.5803
12731SOL    HW139613   6.083   4.524   3.428 -0.3973 -0.9281 -0.7823
12731SOL    HW239614   6.018   4.502   3.564 -0.0675  2.0200 -0.0805
12732SOL     OW39615   7.368   6.152   6.876  0.3722 -0.1245  0.0467
12732SOL    HW139616   7.361   6.190   6.964  0.0816  1.0661 -0.4700
12732SOL    HW239617   7.458   6.169   6.850  1.0929 -2.3193  0.8933
12733SOL     OW39618   3.847   7.597   1.207  0.0919 -0.6149 -0.9164
12733SOL    HW139619   3.828   7.689   1.193  0.9836 -0.2952 -0.1491
12733SOL    HW239620   3.762   7.554   1.205 -0.7629  0.7087  2.2215
12734SOL     OW39621   8.311   7.778   2.251  0.3356  0.8291 -0.3731
12734SOL    HW139622   8.233   7.810   2.297  0.2579  0.8379 -0.5125
12734SOL    HW239623   8.305   7.683   2.259  0.4018  0.8361 -0.2337
12735SOL     OW39624   2.379   3.006   5.015  0.5016 -0.6393 -0.5416
12735SOL    HW139625   2.331   3.067   5.071  3.2307 -1.4663  3.1363
12735SOL    HW239626   2.440   3.062   4.967  0.8437 -0.1372  0.4303
12736SOL     OW39627   0.410   7.675   1.341 -0.1702 -0.1427 -0.1369
12736SOL    HW139628   0.439   7.741   1.405 -0.5366 -0.5186  0.4277
12736SOL    HW239629   0.465   7.599   1.359  0.9343  0.3059 -1.4368
12737SOL     OW39630   7.457   3.619   5.246  0.4327 -0.1569  0.2485
12737SOL    HW139631   7.468   3.628   5.340  1.9546 -0.4657  0.1263
12737SOL    HW239632   7.540   3.584   5.215 -0.4146 -1.1034 -1.0762
12738SOL     OW39633   6.005   8.215   3.588 -0.2480  0.4259  0.2094
12738SOL    HW139634   6.093   8.183   3.608 -0.5570 -0.8564 -0.3813
12738SOL    HW239635   5.950   8.175   3.654 -0.6698 -0.4558 -0.6522
12739SOL     OW39636   5.045   2.066   7.036 -0.1719  0.2640  0.0018
12739SOL    HW139637   5.003   1.980   7.045  0.3166 -0.0532 -0.6729
12739SOL    HW239638   5.123   2.059   7.091  0.6311 -0.2394 -1.1675
12740SOL     OW39639   6.109   4.029   6.799  0.3613  0.1895  0.0002
12740SOL    HW139640   6.132   3.973   6.873 -0.3267  0.3125  0.3188
12740SOL    HW239641   6.043   4.089   6.834 -0.5113 -0.2199 -0.8979
12741SOL     OW39642   1.488   3.742   6.841 -0.2810 -0.0961  0.5939
12741SOL    HW139643   1.577   3.765   6.812 -0.4160 -0.5952 -0.2577
12741SOL    HW239644   1.461   3.816   6.896  0.0368  0.8639 -0.4910
12742SOL     OW39645   2.051   7.336   1.981 -0.3279  0.0591  0.4252
12742SOL    HW139646   2.033   7.301   2.068 -1.4031 -0.8701 -0.1432
12742SOL    HW239647   1.996   7.414   1.974 -1.3382 -0.6544  0.0905
12743SOL     OW39648   7.269   3.000   6.934  0.1951  0.1100  0.3160
12743SOL    HW139649   7.324   2.997   6.855  1.4760 -0.8291  1.2042
12743SOL    HW239650   7.274   3.091   6.963 -0.0719  0.4015 -0.5309
12744SOL     OW39651   4.678   4.434   4.312 -0.1739  0.1190  0.5659
12744SOL    HW139652   4.661   4.462   4.402 -1.6544  1.2394 -0.0174
12744SOL    HW239653   4.618   4.486   4.259  0.7888 -0.3968 -1.1018
12745SOL     OW39654   8.109   4.624   4.163 -0.8067 -0.1783  0.2716
12745SOL    HW139655   8.025   4.597   4.126 -0.7651  1.5072 -1.2214
12745SOL    HW239656   8.117   4.717   4.140  1.1495 -0.1027  0.9906
12746SOL     OW39657   4.597   6.576   4.698 -0.3312 -0.0988  0.5009
12746SOL    HW139658   4.597   6.516   4.772  0.4889  1.0970  1.4969
12746SOL    HW239659   4.648   6.652   4.727  1.2917 -0.1923 -1.7707
12747SOL     OW39660   7.013   1.711   6.649 -0.3875  0.1441  0.1450
12747SOL    HW139661   7.073   1.677   6.582 -0.8822  1.5583 -1.0682
12747SOL    HW239662   6.958   1.636   6.672  0.6601 -0.7091 -0.0416
12748SOL     OW39663   2.961   2.101   1.948  0.9841 -0.0593 -0.1246
12748SOL    HW139664   2.885   2.101   1.890  1.2037  1.2164 -0.4396
12748SOL    HW239665   3.036   2.107   1.889  1.1554  3.1138  0.2729
12749SOL     OW39666   2.711   2.154   6.721 -0.3256  0.2626  0.1977
12749SOL    HW139667   2.677   2.106   6.646  0.2263 -0.2381  0.2577
12749SOL    HW239668   2.734   2.240   6.686  1.0096 -0.3414 -0.4791
12750SOL     OW39669   4.154   5.807   1.899 -0.0014 -0.1334  0.6563
12750SOL    HW139670   4.218   5.833   1.965  0.2511 -1.3937  0.9400
12750SOL    HW239671   4.173   5.714   1.883 -0.0537  0.1393 -1.1996
12751SOL     OW39672   2.570   2.870   8.079  0.4169 -0.3081  0.1834
12751SOL    HW139673   2.659   2.898   8.102  1.2009 -2.1146 -0.4736
12751SOL    HW239674   2.572   2.858   7.984 -0.5171 -0.4317  0.1674
12752SOL     OW39675   2.985   2.838   7.673  0.8337 -0.1191  0.4729
12752SOL    HW139676   3.032   2.841   7.590 -1.5109 -1.0617 -1.0056
12752SOL    HW239677   2.917   2.905   7.664 -1.2708 -2.1350  0.3362
12753SOL     OW39678   1.292   2.016   4.597 -0.2311 -0.7264 -0.5042
12753SOL    HW139679   1.252   2.086   4.546 -2.5241 -1.6768 -0.1443
12753SOL    HW239680   1.219   1.976   4.645  0.8965 -3.5487 -0.9255
12754SOL     OW39681   7.081   3.045   0.661  0.2216 -0.0099  0.3973
12754SOL    HW139682   7.021   2.998   0.719  1.1968 -0.7465  0.8405
12754SOL    HW239683   7.136   2.977   0.622 -0.3039  0.4854 -1.3080
12755SOL     OW39684   4.062   0.198   0.089 -0.3124  0.9333  0.5647
12755SOL    HW139685   4.141   0.172   0.042 -0.7360  0.2642  0.2023
12755SOL    HW239686   4.025   0.116   0.121 -1.6380  1.0623 -0.5353
12756SOL     OW39687   8.294   6.797   4.113  0.2999  0.1370  0.2144
12756SOL    HW139688   8.311   6.702   4.113 -0.0226  0.0747  0.8457
12756SOL    HW239689   8.212   6.806   4.065  0.8649  0.2082 -0.7642
12757SOL     OW39690   6.269   3.151   8.287  0.5342  0.4077  0.1983
12757SOL    HW139691   6.329   3.146   8.213 -0.5830 -0.0450 -0.7121
12757SOL    HW239692   6.205   3.217   8.262 -0.4507 -0.4873  0.2983
12758SOL     OW39693   3.158   4.121   7.994  0.3741  0.4093  0.3392
12758SOL    HW139694   3.236   4.077   7.961 -0.1268  0.4773 -0.9783
12758SOL    HW239695   3.130   4.068   8.069 -0.0993 -1.4219 -1.0721
12759SOL     OW39696   3.316   6.502   1.435  0.1577  0.1832  0.2367
12759SOL    HW139697   3.362   6.524   1.353  0.0016 -2.5168 -0.6698
12759SOL    HW239698   3.350   6.416   1.459  0.5446  1.0955  3.3656
12760SOL     OW39699   1.025   7.760   7.547 -0.1879  0.0185 -0.3854
12760SOL    HW139700   0.933   7.739   7.531 -0.2281 -0.0682 -0.0385
12760SOL    HW239701   1.072   7.679   7.527 -0.2774 -0.2097  0.3040
12761SOL     OW39702   0.302   8.142   0.382 -0.3305 -0.1887  0.9689
12761SOL    HW139703   0.327   8.054   0.354 -2.4183 -0.3310 -0.7489
12761SOL    HW239704   0.347   8.201   0.321 -0.0859 -0.1598  1.1793
12762SOL     OW39705   7.637   6.157   5.562 -0.2061 -0.4007  0.1670
12762SOL    HW139706   7.720   6.200   5.538 -1.6277  0.5994 -3.6311
12762SOL    HW239707   7.650   6.066   5.536 -0.4201 -0.1295 -0.9556
12763SOL     OW39708   7.679   6.239   0.897  0.4092  0.0614  0.0046
12763SOL    HW139709   7.650   6.153   0.926 -0.4556  0.3753  0.1116
12763SOL    HW239710   7.707   6.283   0.977  0.8409 -0.1123 -0.0487
12764SOL     OW39711   2.175   6.099   0.243 -0.9352  0.1224  0.0239
12764SOL    HW139712   2.152   6.184   0.282  1.1660  0.2475  1.1942
12764SOL    HW239713   2.236   6.060   0.306 -1.4022 -2.0187 -0.7701
12765SOL     OW39714   3.785   3.921   7.146 -0.3235 -0.1084 -0.3024
12765SOL    HW139715   3.802   3.991   7.209 -2.8288 -1.0210  1.5575
12765SOL    HW239716   3.732   3.961   7.078 -1.0694  0.0243  0.3405
12766SOL     OW39717   2.799   1.847   3.929 -0.5451  0.4279 -0.0084
12766SOL    HW139718   2.724   1.901   3.907 -0.9842 -0.1238  0.1309
12766SOL    HW239719   2.870   1.910   3.946 -0.7166  0.9197 -1.0530
12767SOL     OW39720   1.871   7.458   6.265  0.5733 -0.2566  0.0629
12767SOL    HW139721   1.952   7.490   6.304  0.5188 -1.6763  1.4393
12767SOL    HW239722   1.821   7.537   6.244  0.5487  0.6372  3.0449
12768SOL     OW39723   8.053   5.340   6.489  0.3268 -0.6237 -0.2472
12768SOL    HW139724   8.060   5.335   6.584 -0.2519 -3.1015 -0.2641
12768SOL    HW239725   8.141   5.321   6.457  0.1019 -1.8451 -0.1910
12769SOL     OW39726   7.566   6.814   1.576 -1.0447 -0.5232  0.5045
12769SOL    HW139727   7.616   6.732   1.577  0.1561  0.1397 -0.9931
12769SOL    HW239728   7.498   6.800   1.510 -1.1265 -0.4617  0.5755
12770SOL     OW39729   1.405   4.470   1.686 -0.3204 -0.2319 -0.4641
12770SOL    HW139730   1.449   4.386   1.670  2.4164  0.9349  0.4238
12770SOL    HW239731   1.359   4.488   1.604  1.4759 -1.2256 -1.7763
12771SOL     OW39732   6.659   3.677   5.773  0.4736 -0.1350 -0.4711
12771SOL    HW139733   6.735   3.719   5.813  0.2112 -0.9726  1.0094
12771SOL    HW239734   6.612   3.748   5.730  0.9975  0.7654  0.3873
12772SOL     OW39735   7.292   7.871   1.235 -0.3400  0.5273  0.3293
12772SOL    HW139736   7.343   7.870   1.154 -1.1367  0.0226 -0.1868
12772SOL    HW239737   7.329   7.801   1.288 -0.6957 -0.0507 -0.1772
12773SOL     OW39738   3.852   2.486   2.922  0.3611 -0.0198 -0.0106
12773SOL    HW139739   3.938   2.501   2.882 -0.5292 -0.5782 -2.2589
12773SOL    HW239740   3.826   2.571   2.957  1.2933  0.4261 -0.3659
12774SOL     OW39741   0.905   2.060   6.951 -0.7025 -0.1198 -0.3682
12774SOL    HW139742   0.985   2.073   6.900 -0.6768 -1.5361 -0.7303
12774SOL    HW239743   0.837   2.106   6.902 -0.3301  0.0870 -0.6927
12775SOL     OW39744   3.335   8.064   4.069  0.0749 -0.7531 -0.1014
12775SOL    HW139745   3.266   8.057   4.003 -0.9155  0.7645  0.7134
12775SOL    HW239746   3.413   8.088   4.019 -0.6436  0.3017 -0.7579
12776SOL     OW39747   0.417   7.946   4.958 -0.0313 -0.2638 -0.2955
12776SOL    HW139748   0.335   7.946   5.006  0.3740  0.6850  0.4397
12776SOL    HW239749   0.406   8.014   4.892  0.0420 -0.3542 -0.4011
12777SOL     OW39750   7.157   0.605   0.033  0.1831 -0.1339  0.3711
12777SOL    HW139751   7.139   0.618  -0.060  0.8810  1.3456  0.4137
12777SOL    HW239752   7.117   0.680   0.076  1.1294 -0.0201  1.0888
12778SOL     OW39753   3.084   2.739   2.604  0.5145 -0.1366 -0.1221
12778SOL    HW139754   3.030   2.736   2.525  0.4380  0.6683 -0.1121
12778SOL    HW239755   3.070   2.827   2.639 -1.2075 -1.1831  2.0224
12779SOL     OW39756   1.265   3.195   4.440  0.0484 -0.5857  0.9389
12779SOL    HW139757   1.260   3.147   4.523  1.3074  0.2303  1.5113
12779SOL    HW239758   1.174   3.210   4.415 -0.3697 -2.5062  1.1725
12780SOL     OW39759   5.065   6.587   7.363  0.7688 -0.4789  0.4179
12780SOL    HW139760   4.988   6.576   7.419  1.1085 -2.0629  0.6111
12780SOL    HW239761   5.138   6.595   7.423  0.6617  2.7268  0.2973
12781SOL     OW39762   2.776   7.515   5.751 -0.5325 -0.0058 -0.1529
12781SOL    HW139763   2.705   7.530   5.688 -0.7765  0.2402  0.1832
12781SOL    HW239764   2.766   7.584   5.817  0.1600  0.1754 -0.2255
12782SOL     OW39765   8.002   6.498   2.102  0.6875  0.2688 -0.1492
12782SOL    HW139766   7.984   6.536   2.016 -2.8976  0.8501  0.6871
12782SOL    HW239767   8.033   6.410   2.083  1.7629  0.9918 -2.0250
12783SOL     OW39768   0.790   5.573   0.832 -0.1274  0.3332  0.0876
12783SOL    HW139769   0.746   5.529   0.905  0.4305  0.5947  0.5972
12783SOL    HW239770   0.743   5.655   0.822 -1.2443 -0.4081 -0.9417
12784SOL     OW39771   7.106   7.479   5.214 -0.4185  0.7324  0.4046
12784SOL    HW139772   7.044   7.544   5.181 -2.2061 -0.4003  1.3617
12784SOL    HW239773   7.085   7.471   5.307  0.3855 -0.5577  0.5010
12785SOL     OW39774   0.620   6.674   2.829  0.1533  0.8913  0.4596
12785SOL    HW139775   0.659   6.703   2.746  0.5957  2.6840  1.2665
12785SOL    HW239776   0.695   6.648   2.883 -0.2184 -2.8819 -0.5133
12786SOL     OW39777   7.051   2.023   6.918  0.0151  0.6679 -0.0875
12786SOL    HW139778   7.146   2.030   6.910  0.1726 -0.0218  0.9737
12786SOL    HW239779   7.033   1.930   6.908 -0.7044  0.9339 -1.5526
12787SOL     OW39780   0.616   7.031   6.893 -0.4902  0.3794  0.0976
12787SOL    HW139781   0.596   7.060   6.982 -1.6049 -1.7717  0.6394
12787SOL    HW239782   0.539   6.981   6.866  1.1330 -1.8814 -0.7339
12788SOL     OW39783   2.625   7.662   0.911 -0.0628 -0.1195 -0.2239
12788SOL    HW139784   2.572   7.699   0.840 -0.5154  1.2176  0.7716
12788SOL    HW239785   2.704   7.717   0.912  0.7708 -1.2703 -0.8339
12789SOL     OW39786   7.748   3.813   2.353 -0.2517 -0.2321  0.1876
12789SOL    HW139787   7.750   3.893   2.299 -0.7347 -0.6521 -0.4629
12789SOL    HW239788   7.775   3.743   2.293 -0.9314 -0.7267  0.4568
12790SOL     OW39789   3.538   7.530   7.494  0.1756 -0.1077  0.3771
12790SOL    HW139790   3.444   7.535   7.509  0.0592 -0.2891 -0.2947
12790SOL    HW239791   3.571   7.615   7.523 -0.2832  0.2071 -0.0069
12791SOL     OW39792   2.857   4.133   4.597 -0.2703 -0.3383  0.2321
12791SOL    HW139793   2.777   4.086   4.573 -0.3518 -0.5066  0.8400
12791SOL    HW239794   2.925   4.066   4.594 -0.4548 -0.5960  1.5144
12792SOL     OW39795   1.312   7.448   2.089  0.2948  0.1252  0.2999
12792SOL    HW139796   1.338   7.414   2.174  2.8129  0.2207 -0.3548
12792SOL    HW239797   1.241   7.390   2.061  0.8549 -1.2299  1.5452
12793SOL     OW39798   5.900   1.320   4.006  0.3536 -0.4326 -0.2070
12793SOL    HW139799   5.890   1.385   3.937  2.2019 -1.5087 -1.6206
12793SOL    HW239800   5.889   1.369   4.087 -0.1673  1.2428 -1.2282
12794SOL     OW39801   4.669   3.393   7.469  0.4479  0.4995  0.1048
12794SOL    HW139802   4.581   3.428   7.480 -0.1194 -0.9694  0.4015
12794SOL    HW239803   4.695   3.363   7.556  0.9380  0.2128 -0.1333
12795SOL     OW39804   4.003   2.493   0.671 -0.3687  0.0034  0.3512
12795SOL    HW139805   4.050   2.557   0.725 -1.2869  1.8547 -0.9167
12795SOL    HW239806   3.963   2.433   0.733  0.3302  0.8029  1.6123
12796SOL     OW39807   3.978   0.052   7.947  0.3219  0.0773  0.3927
12796SOL    HW139808   3.963  -0.043   7.952 -0.7053  0.1773 -0.4253
12796SOL    HW239809   3.931   0.087   8.023  0.7014 -0.0680  0.6956
12797SOL     OW39810   0.619   8.165   6.994 -0.4499 -0.6023  0.6053
12797SOL    HW139811   0.568   8.246   6.996  1.1589  0.4707  0.0178
12797SOL    HW239812   0.672   8.167   7.073 -0.2828 -1.0079  0.5075
12798SOL     OW39813   7.396   0.752   5.355 -0.3679  0.3795  0.2250
12798SOL    HW139814   7.424   0.703   5.278 -1.1354 -0.2024  0.2955
12798SOL    HW239815   7.310   0.787   5.331 -0.6072  0.2026  0.8086
12799SOL     OW39816   2.274   3.233   4.681  0.2928 -0.2177 -0.0109
12799SOL    HW139817   2.280   3.163   4.616  2.6717  0.2025 -0.3161
12799SOL    HW239818   2.234   3.191   4.757  0.4097 -1.5561 -0.6568
12800SOL     OW39819   8.002   3.286   4.285  0.1115 -0.0842 -0.4052
12800SOL    HW139820   7.949   3.311   4.360  1.5046 -1.8493  1.2511
12800SOL    HW239821   8.073   3.234   4.321  0.9047 -0.9374 -2.9496
12801SOL     OW39822   2.016   3.665   3.266  0.1195 -0.4614 -0.4110
12801SOL    HW139823   2.008   3.571   3.281 -1.6334 -0.1073  1.1856
12801SOL    HW239824   2.054   3.699   3.348  1.1296  0.1989 -1.1245
12802SOL     OW39825   0.251   6.382   5.484 -0.5012  0.0436 -0.0024
12802SOL    HW139826   0.233   6.291   5.459  1.6187 -0.3190 -0.4373
12802SOL    HW239827   0.226   6.433   5.407 -0.0684 -0.3784 -0.4320
12803SOL     OW39828   6.051   2.810   4.368 -0.6628 -0.5240  0.5599
12803SOL    HW139829   6.145   2.806   4.383 -0.1459 -0.2236 -2.1055
12803SOL    HW239830   6.027   2.720   4.346 -0.4126 -0.1423 -1.4568
12804SOL     OW39831   7.228   2.379   4.302 -0.2426 -0.1892  0.7495
12804SOL    HW139832   7.267   2.329   4.229  1.8889  1.5995  0.5497
12804SOL    HW239833   7.277   2.350   4.379  1.3703  1.8063  0.5587
12805SOL     OW39834   6.585   6.173   0.708  0.0466 -0.4000  0.1801
12805SOL    HW139835   6.619   6.132   0.628  1.4421 -0.9132  1.0121
12805SOL    HW239836   6.492   6.188   0.689  0.9391  2.4276 -2.7479
12806SOL     OW39837   3.058   0.515   5.061 -0.4578 -0.1166  0.3796
12806SOL    HW139838   3.075   0.543   4.971 -1.1650  0.1065  0.3056
12806SOL    HW239839   3.037   0.421   5.053 -1.3257  0.0807  0.1944
12807SOL     OW39840   3.525   2.449   4.183 -0.0827  0.2299 -0.3237
12807SOL    HW139841   3.576   2.372   4.157  0.8045  0.8364 -0.4155
12807SOL    HW239842   3.591   2.516   4.201 -0.8782  1.2563 -1.1399
12808SOL     OW39843   3.936   5.822   7.730 -0.0462 -0.3738  0.0095
12808SOL    HW139844   3.849   5.837   7.766 -0.8588 -1.3442 -1.4227
12808SOL    HW239845   3.920   5.789   7.641  1.8040  0.3355 -0.6531
12809SOL     OW39846   4.449   4.396   5.804 -0.5719 -0.1525  0.3219
12809SOL    HW139847   4.539   4.384   5.775 -0.4797  0.2217  0.4422
12809SOL    HW239848   4.421   4.477   5.761 -0.5179  0.2737  1.0674
12810SOL     OW39849   8.142   5.073   5.771 -0.6422  0.4495  0.7051
12810SOL    HW139850   8.205   5.048   5.839 -0.6484 -0.8526  0.2498
12810SOL    HW239851   8.119   5.164   5.793 -0.3470  0.1924  2.2010
12811SOL     OW39852   4.788   6.097   6.396 -0.1759  0.7621 -0.1171
12811SOL    HW139853   4.811   6.188   6.414  0.8577  0.7998 -1.5000
12811SOL    HW239854   4.860   6.063   6.343 -0.7578 -0.7387 -0.0132
12812SOL     OW39855   2.091   7.401   5.601  0.1298 -0.6278 -0.2312
12812SOL    HW139856   2.020   7.394   5.665 -0.5122 -0.5552 -0.9218
12812SOL    HW239857   2.051   7.441   5.524  0.9910 -0.3213 -0.5359
12813SOL     OW39858   7.735   4.065   1.375  0.2537  0.0254 -0.0673
12813SOL    HW139859   7.794   3.999   1.413 -0.2305 -0.4373 -0.1008
12813SOL    HW239860   7.764   4.075   1.285  0.3100 -0.1707 -0.0706
12814SOL     OW39861   1.574   2.200   3.589  0.3375 -0.5551  0.6461
12814SOL    HW139862   1.662   2.198   3.551  1.2032 -0.6099  2.5805
12814SOL    HW239863   1.567   2.119   3.639 -0.3246  0.0393  1.5420
12815SOL     OW39864   2.961   8.052   7.126  0.2600 -0.2966 -0.4717
12815SOL    HW139865   2.935   8.140   7.098 -0.5645 -0.5728 -0.5876
12815SOL    HW239866   2.966   8.058   7.221 -0.3977 -0.2804 -0.4344
12816SOL     OW39867   0.083   8.175   5.770 -0.1188  0.0820  0.2245
12816SOL    HW139868   0.150   8.237   5.741  0.4540 -0.2882  0.7405
12816SOL    HW239869   0.001   8.211   5.736  0.5196 -0.4439 -2.0627
12817SOL     OW39870   2.867   7.907   7.862 -0.2295  0.1108  0.7550
12817SOL    HW139871   2.881   7.950   7.777 -0.5087  0.2607  0.7847
12817SOL    HW239872   2.794   7.955   7.901 -0.3727 -0.2263  0.9004
12818SOL     OW39873   5.901   5.969   6.906 -0.2970  0.0078  0.3812
12818SOL    HW139874   5.834   5.981   6.974 -0.2422  0.0108  0.4341
12818SOL    HW239875   5.860   6.005   6.826  0.3254  1.7094  0.7914
12819SOL     OW39876   5.655   4.110   7.985 -0.2456  0.6641 -0.0240
12819SOL    HW139877   5.659   4.169   8.060 -1.7486  2.8397 -1.4985
12819SOL    HW239878   5.646   4.169   7.909 -2.4316 -1.4466 -1.5607
12820SOL     OW39879   5.970   2.587   3.951 -0.3504  0.2090  0.1720
12820SOL    HW139880   5.882   2.605   3.984  0.3206  1.1098  1.5983
12820SOL    HW239881   5.963   2.594   3.856 -2.0268 -0.7738  0.1977
12821SOL     OW39882   4.144   5.385   4.759 -0.0097  0.2057  0.4213
12821SOL    HW139883   4.136   5.299   4.717 -0.6276  0.0120  0.9101
12821SOL    HW239884   4.122   5.368   4.851  0.2371  0.8211  0.5963
12822SOL     OW39885   0.756   4.973   6.065 -0.1057  0.2494 -0.4286
12822SOL    HW139886   0.814   4.916   6.115 -0.0907 -1.3497 -2.1637
12822SOL    HW239887   0.814   5.038   6.025 -0.0635  1.2328  1.1575
12823SOL     OW39888   7.962   1.252   7.650 -0.5926 -0.0884  0.0766
12823SOL    HW139889   7.975   1.251   7.555  1.3631  0.4984  0.2919
12823SOL    HW239890   7.928   1.165   7.671 -0.8346 -0.2990 -1.1367
12824SOL     OW39891   2.047   5.539   7.404 -0.5957 -0.2303 -0.0554
12824SOL    HW139892   1.972   5.593   7.377 -0.1218  0.2791 -0.3625
12824SOL    HW239893   2.105   5.540   7.329 -0.7243 -1.4507 -0.1862
12825SOL     OW39894   6.044   1.751   5.357 -0.4043 -0.1223  0.0488
12825SOL    HW139895   5.986   1.707   5.295  1.7976 -0.9212 -1.5781
12825SOL    HW239896   6.042   1.843   5.330 -1.3627 -0.0185  0.4253
12826SOL     OW39897   3.227   6.340   3.778  0.2057  0.2689  0.1543
12826SOL    HW139898   3.307   6.387   3.754  0.8794 -0.4119  0.9966
12826SOL    HW239899   3.251   6.290   3.856 -0.3711 -1.7699 -0.8949
12827SOL     OW39900   7.455   0.170   5.401 -0.3827 -0.3541 -0.5260
12827SOL    HW139901   7.446   0.157   5.307 -2.3103  0.1739 -0.4498
12827SOL    HW239902   7.369   0.202   5.430  0.2904 -0.0918  1.3439
12828SOL     OW39903   7.437   1.933   4.716 -0.0293  0.1949  0.4109
12828SOL    HW139904   7.430   1.894   4.629  0.3201  2.0204 -0.4864
12828SOL    HW239905   7.405   1.865   4.776  1.8715 -1.9854 -0.8929
12829SOL     OW39906   6.650   6.607   4.465 -0.4528  0.2777 -0.1873
12829SOL    HW139907   6.707   6.537   4.496  1.3551  1.8621  0.3019
12829SOL    HW239908   6.590   6.623   4.538 -1.2409 -1.0399 -0.5007
12830SOL     OW39909   3.835   4.905   3.265  0.2407  0.4132  0.2760
12830SOL    HW139910   3.856   4.851   3.341  1.0534  0.4343  0.0767
12830SOL    HW239911   3.915   4.904   3.212 -0.4998 -0.0868 -0.8679
12831SOL     OW39912   7.608   5.805   0.646 -0.3273 -0.1223  0.6228
12831SOL    HW139913   7.515   5.786   0.658 -1.0341  2.0971 -0.7209
12831SOL    HW239914   7.610   5.884   0.592  2.3318  0.9104  2.0168
12832SOL     OW39915   7.900   4.054   2.826  0.6727  0.1098  0.2109
12832SOL    HW139916   7.862   4.042   2.739 -1.1049  0.6044  0.8753
12832SOL    HW239917   7.834   4.019   2.886  1.8631 -0.2119  1.3789
12833SOL     OW39918   5.122   8.203   0.035  0.4587  0.1547 -0.9679
12833SOL    HW139919   5.136   8.132   0.097  0.1279  0.0493 -1.0092
12833SOL    HW239920   5.157   8.280   0.078 -1.3277  0.4240  0.1199
12834SOL     OW39921   5.062   6.582   6.793 -0.7045 -0.0563 -0.4664
12834SOL    HW139922   4.969   6.587   6.768 -0.7203  2.5239 -0.2206
12834SOL    HW239923   5.104   6.539   6.718 -2.0042 -0.6909 -0.8702
12835SOL     OW39924   1.827   1.480   1.781  0.2346  0.3024 -0.4842
12835SOL    HW139925   1.870   1.395   1.768 -0.1994 -0.0199  0.1356
12835SOL    HW239926   1.735   1.458   1.793 -0.0412  0.9462 -1.2847
12836SOL     OW39927   5.170   5.783   8.262  0.2850  0.1426 -0.0622
12836SOL    HW139928   5.110   5.718   8.301  0.6213 -0.6347 -0.8163
12836SOL    HW239929   5.122   5.865   8.267 -0.6667 -0.3881 -0.2372
12837SOL     OW39930   5.970   4.639   7.001 -0.4345 -0.1551  0.7710
12837SOL    HW139931   5.929   4.673   7.080 -1.9179 -1.7307  0.7280
12837SOL    HW239932   5.921   4.559   6.980 -0.1108  0.2112 -1.7516
12838SOL     OW39933   7.707   3.353   7.535  0.3226  0.0496  0.9614
12838SOL    HW139934   7.791   3.306   7.535  0.1127 -0.3514  1.7481
12838SOL    HW239935   7.657   3.312   7.464  1.1201  0.9352 -0.1515
12839SOL     OW39936   2.115   2.620   7.695  0.1280  0.2960  0.3444
12839SOL    HW139937   2.148   2.548   7.747  0.3260  1.3799  1.7867
12839SOL    HW239938   2.021   2.603   7.686  0.0151  0.2801  1.4135
12840SOL     OW39939   0.682   0.774   0.200 -0.5518 -0.0938 -0.0760
12840SOL    HW139940   0.737   0.852   0.197  1.9338 -1.7591 -1.7154
12840SOL    HW239941   0.737   0.708   0.244 -1.1086 -1.8636 -1.8702
12841SOL     OW39942   1.686   5.838   3.585 -0.4542 -0.2770 -0.5407
12841SOL    HW139943   1.729   5.921   3.564 -0.7120 -0.1292 -0.4921
12841SOL    HW239944   1.729   5.773   3.530  0.5045 -0.3034  0.2034
12842SOL     OW39945   2.296   7.698   4.456 -0.9474 -0.2974 -0.0528
12842SOL    HW139946   2.206   7.709   4.425 -0.7281 -0.4000 -0.7473
12842SOL    HW239947   2.347   7.761   4.405 -0.4325 -1.1246 -0.5780
12843SOL     OW39948   1.988   3.609   8.275  0.1638 -0.1584  0.0553
12843SOL    HW139949   2.047   3.648   8.340 -1.0407  0.7568  0.6528
12843SOL    HW239950   2.044   3.586   8.201  1.2327  0.8073  0.5418
12844SOL     OW39951   6.281   2.648   1.724  0.4933 -0.6779 -0.3621
12844SOL    HW139952   6.351   2.638   1.659  1.2402  0.4394  0.2277
12844SOL    HW239953   6.245   2.560   1.734 -0.8472 -0.6594 -3.5438
12845SOL     OW39954   8.291   0.037   5.710  0.3198 -0.2500  0.4117
12845SOL    HW139955   8.195   0.044   5.711  0.1040 -1.4016 -2.5526
12845SOL    HW239956   8.321   0.122   5.740 -1.6800  0.8771 -0.5196
12846SOL     OW39957   7.705   0.194   2.543 -0.6780 -0.0390 -0.4885
12846SOL    HW139958   7.742   0.148   2.618  0.1145  1.1131 -0.1552
12846SOL    HW239959   7.611   0.176   2.548 -0.4182 -1.4392 -0.2620
12847SOL     OW39960   0.176   6.661   2.276 -0.2419 -0.1539 -0.1558
12847SOL    HW139961   0.090   6.623   2.258 -0.6632 -0.0935  1.5585
12847SOL    HW239962   0.178   6.740   2.223 -3.0288  2.1588  2.7728
12848SOL     OW39963   4.619   7.528   3.327 -0.0277  0.8704 -0.6063
12848SOL    HW139964   4.612   7.573   3.412 -1.1218 -0.5542  0.1024
12848SOL    HW239965   4.561   7.578   3.269 -2.1930 -0.2377  0.4900
12849SOL     OW39966   6.532   2.162   8.036  0.6432  0.1162 -0.4871
12849SOL    HW139967   6.595   2.232   8.023  3.1017 -1.7247  0.7816
12849SOL    HW239968   6.559   2.094   7.974  1.1411 -1.4467  1.3723
12850SOL     OW39969   4.234   6.995   3.421  0.4445  0.1771 -0.1452
12850SOL    HW139970   4.141   7.003   3.399  0.1186  0.6184  1.2579
12850SOL    HW239971   4.260   7.084   3.446  1.2801  0.0729 -0.6140
12851SOL     OW39972   3.108   4.060   5.566 -0.2173 -0.3372  0.4367
12851SOL    HW139973   3.158   4.023   5.640 -1.3365 -3.0040 -0.0099
12851SOL    HW239974   3.059   3.985   5.531 -1.2814  1.2834 -1.7646
12852SOL     OW39975   0.247   1.333   0.140  0.4707 -0.0211 -0.6169
12852SOL    HW139976   0.206   1.276   0.205  0.9968  0.2058 -0.0721
12852SOL    HW239977   0.336   1.297   0.129  1.7777  2.1840  1.7132
12853SOL     OW39978   5.691   0.359   7.434 -0.4489 -0.6075 -0.0949
12853SOL    HW139979   5.659   0.270   7.421 -3.4261  0.2091  0.7947
12853SOL    HW239980   5.756   0.351   7.504 -1.6998 -1.9407  0.9744
12854SOL     OW39981   0.777   3.331   3.281  0.0307 -0.3387  0.0544
12854SOL    HW139982   0.825   3.334   3.199 -0.7317 -0.6325 -0.4054
12854SOL    HW239983   0.691   3.296   3.258 -1.2370  2.2205  0.4354
12855SOL     OW39984   3.083   2.998   2.691 -0.8356  0.5920 -0.3003
12855SOL    HW139985   3.111   3.038   2.608 -2.6400  0.9733 -0.7583
12855SOL    HW239986   3.060   3.071   2.747  0.7320  0.3547  0.7321
12856SOL     OW39987   2.898   0.485   1.673  0.2800 -0.4745 -0.5538
12856SOL    HW139988   2.809   0.510   1.647  0.4657  1.9766  0.7981
12856SOL    HW239989   2.894   0.391   1.688 -2.0145 -0.4696 -0.8598
12857SOL     OW39990   4.032   6.538   2.890 -0.5319  0.1171  0.0807
12857SOL    HW139991   4.109   6.539   2.946  0.1541  0.5497 -0.8485
12857SOL    HW239992   4.066   6.540   2.801 -1.6007 -0.8152 -0.3707
12858SOL     OW39993   5.110   0.461   5.599  0.6496  0.9919  0.0015
12858SOL    HW139994   5.098   0.419   5.514 -2.4435 -0.1674  0.8575
12858SOL    HW239995   5.162   0.539   5.581  0.1116  0.7630 -2.9613
12859SOL     OW39996   3.291   4.451   0.502 -0.0612 -0.0693  0.3714
12859SOL    HW139997   3.262   4.367   0.538  3.4010 -0.9742  1.3912
12859SOL    HW239998   3.341   4.491   0.572  0.2828  1.8132 -0.8848
12860SOL     OW39999   4.337   6.588   8.228 -0.5588 -0.1942 -0.0807
12860SOL    HW140000   4.407   6.586   8.164 -0.7272  1.5210 -0.3671
12860SOL    HW240001   4.258   6.603   8.176 -0.9053 -0.3734  0.3915
12861SOL     OW40002   4.471   0.075   6.340  0.1592  0.2319  0.7077
12861SOL    HW140003   4.502   0.111   6.258 -0.4602 -1.3268 -0.2469
12861SOL    HW240004   4.448   0.152   6.393  1.2511  1.2671 -0.2733
12862SOL     OW40005   3.730   1.111   6.408 -0.5475  0.6224  0.3566
12862SOL    HW140006   3.772   1.040   6.360 -1.0126 -0.1813  1.1079
12862SOL    HW240007   3.780   1.117   6.490  0.5839  2.3437 -0.4010
12863SOL     OW40008   6.596   3.498   7.991  0.4972 -0.1902  0.1484
12863SOL    HW140009   6.675   3.459   8.027  0.6118  1.6453  2.1580
12863SOL    HW240010   6.594   3.587   8.028 -2.1776  0.0343 -0.2776
12864SOL     OW40011   0.886   0.106   2.371 -0.6836  0.4216 -0.1682
12864SOL    HW140012   0.906   0.067   2.286  1.6860  0.2511  0.3920
12864SOL    HW240013   0.898   0.200   2.357 -1.0032  0.4568 -0.1999
12865SOL     OW40014   2.001   8.156   2.721 -0.3650  0.4564  0.8293
12865SOL    HW140015   1.919   8.106   2.715 -1.4163  2.0412  1.5947
12865SOL    HW240016   2.039   8.147   2.634 -1.2445 -0.4637  0.5035
12866SOL     OW40017   3.031   5.167   2.537  0.0301  0.7843 -0.0809
12866SOL    HW140018   3.057   5.208   2.619 -1.2850  0.2408  0.6259
12866SOL    HW240019   2.971   5.230   2.497  0.0872  0.7160 -0.2776
12867SOL     OW40020   6.546   1.960   1.831  0.0842  0.0190 -0.0579
12867SOL    HW140021   6.599   1.883   1.854  0.3174 -0.6641 -2.5979
12867SOL    HW240022   6.479   1.925   1.772 -0.8210  1.5174  0.0484
12868SOL     OW40023   4.697   0.495   4.465  0.1221  0.5369 -0.1875
12868SOL    HW140024   4.674   0.577   4.508 -0.8138 -1.2234  2.9938
12868SOL    HW240025   4.616   0.466   4.424 -0.3768 -0.1168  1.1841
12869SOL     OW40026   7.055   3.445   4.777 -0.2259 -0.4621 -0.1123
12869SOL    HW140027   7.004   3.480   4.850 -1.1855  0.2602 -1.1001
12869SOL    HW240028   6.990   3.406   4.719 -0.0956  2.7505 -2.7165
12870SOL     OW40029   1.729   4.554   5.219  0.2006 -0.3859 -0.7176
12870SOL    HW140030   1.660   4.497   5.185 -1.3763  1.2454 -0.3948
12870SOL    HW240031   1.729   4.630   5.160  1.0996  0.0747 -0.1592
12871SOL     OW40032   2.648   8.250   5.645 -0.2460 -0.0189 -0.0564
12871SOL    HW140033   2.683   8.286   5.564  1.2940  0.6374  0.8589
12871SOL    HW240034   2.649   8.323   5.706  0.8870 -1.0404  1.2196
12872SOL     OW40035   0.031   5.341   0.048 -0.3727  1.0209 -0.0986
12872SOL    HW140036  -0.060   5.347   0.019  0.1450  1.2511 -1.7481
12872SOL    HW240037   0.037   5.405   0.120 -1.8767 -0.1275  1.1397
12873SOL     OW40038   2.553   5.775   1.502 -0.3097  0.0563  0.0037
12873SOL    HW140039   2.558   5.865   1.534  0.9201  0.2638 -0.7166
12873SOL    HW240040   2.520   5.783   1.413  0.9386 -0.0880 -0.4864
12874SOL     OW40041   5.946   5.196   3.975  0.4213  0.8706 -0.0114
12874SOL    HW140042   5.859   5.168   4.003  1.1278 -1.9026 -0.3387
12874SOL    HW240043   5.931   5.240   3.892 -0.6579  0.3979 -0.0897
12875SOL     OW40044   0.127   7.305   2.815 -0.5079 -0.2179 -0.1201
12875SOL    HW140045   0.192   7.373   2.798  1.2877 -1.5767  0.8983
12875SOL    HW240046   0.161   7.227   2.771 -0.5351 -1.3897  1.7912
12876SOL     OW40047   5.444   0.634   6.415 -0.4752  0.1888 -0.0520
12876SOL    HW140048   5.421   0.623   6.507 -1.3860  1.8763 -0.0445
12876SOL    HW240049   5.360   0.646   6.370  0.0795  3.7559 -0.4352
12877SOL     OW40050   4.642   4.820   3.760  0.1832 -0.0534 -0.3228
12877SOL    HW140051   4.568   4.836   3.701  0.0866  1.3226  0.1411
12877SOL    HW240052   4.672   4.907   3.785 -0.3712 -0.5752  2.4042
12878SOL     OW40053   3.714   3.670   0.002 -0.0633 -0.3431 -0.1757
12878SOL    HW140054   3.625   3.701   0.019  0.3259  0.0765  1.1472
12878SOL    HW240055   3.743   3.632   0.084  1.2123  0.0819 -0.4013
12879SOL     OW40056   5.927   4.432   0.512 -0.6262 -0.4198  0.1010
12879SOL    HW140057   5.911   4.438   0.607 -0.1579 -0.0676  0.1611
12879SOL    HW240058   5.840   4.427   0.473 -0.8202 -2.3367  0.6552
12880SOL     OW40059   0.752   8.144   1.241 -0.8051  0.2709  0.0260
12880SOL    HW140060   0.845   8.122   1.237 -0.7087  0.1803  1.8243
12880SOL    HW240061   0.708   8.069   1.201 -0.1627 -0.3443  0.4543
12881SOL     OW40062   4.528   2.375   5.748 -0.1477 -0.1471  0.5287
12881SOL    HW140063   4.468   2.449   5.761 -0.4667  0.0094 -1.4960
12881SOL    HW240064   4.471   2.298   5.747 -0.4686  0.0447 -1.8848
12882SOL     OW40065   8.061   6.392   5.950 -0.0253 -0.1479  0.1784
12882SOL    HW140066   8.045   6.319   5.891 -0.0170 -2.0799  2.4318
12882SOL    HW240067   8.117   6.451   5.900  0.9266 -2.2222 -1.3563
12883SOL     OW40068   6.266   4.373   7.334 -0.6908 -0.1588 -0.5312
12883SOL    HW140069   6.343   4.368   7.277  1.7594 -3.3091  2.6076
12883SOL    HW240070   6.294   4.426   7.408 -1.8084 -0.7302  0.3324
12884SOL     OW40071   1.661   7.229   4.696  0.6278 -0.2138 -0.1962
12884SOL    HW140072   1.732   7.282   4.660  1.2519 -1.2282 -0.5014
12884SOL    HW240073   1.704   7.172   4.760 -0.2724  0.7048  1.2934
12885SOL     OW40074   6.202   2.220   2.046 -0.0943 -0.1646 -0.5524
12885SOL    HW140075   6.116   2.218   2.088 -0.5357 -0.3896 -1.4418
12885SOL    HW240076   6.263   2.194   2.115 -0.4178  2.3652  0.7835
12886SOL     OW40077   2.087   4.091   5.311  0.3099  0.5102  0.6100
12886SOL    HW140078   2.124   4.009   5.343  0.1463 -0.1512 -0.7965
12886SOL    HW240079   2.056   4.136   5.389 -0.2113 -1.0779  1.3675
12887SOL     OW40080   7.481   6.089   4.683 -0.1117 -0.1795 -0.4266
12887SOL    HW140081   7.573   6.087   4.708  0.4167 -2.0100 -2.2593
12887SOL    HW240082   7.434   6.098   4.766  1.6451 -0.8808  0.7071
12888SOL     OW40083   6.494   7.761   4.884  0.9067 -0.0304 -0.3760
12888SOL    HW140084   6.480   7.788   4.974 -0.1489  0.4476 -0.6627
12888SOL    HW240085   6.415   7.791   4.837  1.1972 -0.7145 -1.3491
12889SOL     OW40086   3.280   3.095   0.086  0.1461 -0.0800 -0.5171
12889SOL    HW140087   3.348   3.055   0.140 -0.2759  1.0560  0.9402
12889SOL    HW240088   3.209   3.032   0.085 -0.3791  0.4096  1.4668
12890SOL     OW40089   6.290   1.821   7.191  0.2903  0.1354 -0.0084
12890SOL    HW140090   6.311   1.856   7.104  0.3391 -0.0998 -0.0928
12890SOL    HW240091   6.318   1.730   7.187 -0.5392 -0.1261 -0.0532
12891SOL     OW40092   7.253   1.865   0.068  0.1479 -0.3791  0.0049
12891SOL    HW140093   7.282   1.951   0.099  0.6137 -0.6171  0.2380
12891SOL    HW240094   7.319   1.804   0.101 -0.9180 -1.0156  1.0386
12892SOL     OW40095   1.177   5.201   8.136 -0.1647 -0.1591  0.2502
12892SOL    HW140096   1.106   5.142   8.115 -2.1499  1.7952  1.0530
12892SOL    HW240097   1.144   5.288   8.111 -0.0755  1.4687  4.8522
12893SOL     OW40098   7.020   7.863   4.839 -0.0334 -0.4790 -0.1115
12893SOL    HW140099   6.988   7.800   4.774 -2.8449  1.5784 -0.8999
12893SOL    HW240100   7.089   7.816   4.886  0.9061 -2.6918 -3.3609
12894SOL     OW40101   6.079   5.327   3.175 -0.0397 -0.1448  0.0031
12894SOL    HW140102   6.160   5.288   3.143  0.3841 -1.1234  2.1137
12894SOL    HW240103   6.087   5.420   3.154  0.3819 -0.6245 -2.2086
12895SOL     OW40104   5.543   5.344   7.885 -0.5142  0.4081 -0.1415
12895SOL    HW140105   5.585   5.411   7.831 -0.4181  0.3544 -0.1317
12895SOL    HW240106   5.614   5.289   7.917 -0.8377 -2.0181 -3.2052
12896SOL     OW40107   4.177   2.326   2.645 -0.2813 -0.4152  0.4085
12896SOL    HW140108   4.229   2.406   2.656 -1.9199  0.9244 -1.0446
12896SOL    HW240109   4.242   2.256   2.638  1.3365  1.1295 -0.8430
12897SOL     OW40110   5.747   2.427   2.988  0.0155  0.5617  0.2819
12897SOL    HW140111   5.679   2.415   2.923  1.1073 -1.0898 -0.6130
12897SOL    HW240112   5.702   2.416   3.072 -0.7595 -0.8601 -0.2971
12898SOL     OW40113   7.203   6.225   3.429 -0.4131  0.6463  0.3364
12898SOL    HW140114   7.273   6.183   3.480  0.0565 -0.6736 -1.3245
12898SOL    HW240115   7.247   6.297   3.384 -0.1122 -0.1109 -0.6146
12899SOL     OW40116   4.835   2.252   6.109  0.3056  0.5989  0.1416
12899SOL    HW140117   4.836   2.156   6.110  1.8843  0.5836  1.4165
12899SOL    HW240118   4.822   2.275   6.017 -0.7785 -0.8158 -0.0974
12900SOL     OW40119   4.693   1.175   3.900 -0.1177 -0.2032  0.0390
12900SOL    HW140120   4.741   1.202   3.978  2.3012  0.7397 -1.6511
12900SOL    HW240121   4.629   1.245   3.886 -1.2644 -0.8641  1.6340
12901SOL     OW40122   7.442   3.461   3.449 -0.1892 -0.1434  0.4246
12901SOL    HW140123   7.374   3.491   3.388  1.4653  1.2390 -0.8416
12901SOL    HW240124   7.501   3.409   3.395  0.3482 -0.4359  1.2761
12902SOL     OW40125   0.246   1.170   0.960 -0.6538  0.3160  0.0982
12902SOL    HW140126   0.339   1.158   0.978 -0.9858 -1.2847  0.9804
12902SOL    HW240127   0.239   1.165   0.864 -0.0695 -2.0913  0.1020
12903SOL     OW40128   7.657   6.514   3.450 -0.7359  0.3338 -0.0111
12903SOL    HW140129   7.584   6.562   3.489 -2.0290 -0.9661 -0.7387
12903SOL    HW240130   7.616   6.454   3.387  0.9254 -0.6710 -0.2053
12904SOL     OW40131   1.297   8.218   3.156 -0.5063  0.1433 -0.3200
12904SOL    HW140132   1.326   8.284   3.218  0.5358  0.2592 -0.9124
12904SOL    HW240133   1.341   8.137   3.183 -0.7189  0.0000 -0.3979
12905SOL     OW40134   2.577   2.231   0.362 -0.0197  0.3523 -0.2067
12905SOL    HW140135   2.670   2.234   0.340  0.3267  0.7081  1.2036
12905SOL    HW240136   2.546   2.148   0.327  0.8164  0.2400 -0.7032
12906SOL     OW40137   4.101   6.336   6.045  0.3671  0.0236  0.0678
12906SOL    HW140138   4.133   6.426   6.057  3.1448 -0.9856  0.9918
12906SOL    HW240139   4.108   6.296   6.132 -0.3740 -1.2347 -0.4294
12907SOL     OW40140   0.644   0.487   1.964 -1.0629  0.4777  0.8068
12907SOL    HW140141   0.704   0.549   1.923 -0.8096  0.1129  0.6234
12907SOL    HW240142   0.674   0.401   1.936 -1.1593  0.2436  1.3891
12908SOL     OW40143   3.201   0.412   6.788  0.0152  0.2586 -0.0401
12908SOL    HW140144   3.226   0.321   6.803  1.6241  0.7659  0.5792
12908SOL    HW240145   3.111   0.407   6.757 -0.4094 -1.4591  1.2870
12909SOL     OW40146   4.361   1.241   4.688  0.4334  0.3468  0.0455
12909SOL    HW140147   4.402   1.231   4.602  0.6915  0.6706  0.1274
12909SOL    HW240148   4.432   1.224   4.750  0.0258 -0.8412  0.2154
12910SOL     OW40149   7.568   0.966   1.349  0.2420  0.4283  0.8994
12910SOL    HW140150   7.564   0.895   1.413  2.4813 -0.1936  0.4125
12910SOL    HW240151   7.516   1.036   1.388 -2.2742 -1.4922  1.3021
12911SOL     OW40152   7.963   7.637   5.458 -0.6049 -0.1307 -0.2400
12911SOL    HW140153   7.874   7.613   5.481 -0.3367  1.3760  2.9440
12911SOL    HW240154   7.974   7.726   5.494  1.8133  0.2070 -1.5734
12912SOL     OW40155   3.074   2.869   0.063  0.1455 -0.7594 -0.5269
12912SOL    HW140156   3.044   2.778   0.075 -0.3934 -0.5944 -0.6178
12912SOL    HW240157   3.001   2.913   0.022 -0.4629  0.2645  1.5178
12913SOL     OW40158   2.851   5.712   0.792 -0.2669 -0.2378  0.4708
12913SOL    HW140159   2.880   5.679   0.707 -0.7154 -1.6631  0.8506
12913SOL    HW240160   2.931   5.743   0.834  0.1318 -0.6472  0.0271
12914SOL     OW40161   6.957   0.477   6.030  0.2532 -0.4070  0.2139
12914SOL    HW140162   7.013   0.525   5.969 -1.9236  3.2501  0.8094
12914SOL    HW240163   7.012   0.460   6.106  1.8659 -1.4643 -1.1297
12915SOL     OW40164   5.057   3.965   0.729  0.3423 -0.4972  0.2603
12915SOL    HW140165   5.131   3.955   0.790  0.6996 -4.0368 -0.5409
12915SOL    HW240166   5.095   4.008   0.652  1.3243 -1.1966  0.3310
12916SOL     OW40167   2.305   0.173   3.889  0.7113  0.3060  0.9490
12916SOL    HW140168   2.274   0.263   3.891 -1.3364 -0.3644  1.4617
12916SOL    HW240169   2.278   0.140   3.803  0.4742 -0.1236  1.1815
12917SOL     OW40170   2.566   0.175   0.045 -0.0082  0.2858 -0.7426
12917SOL    HW140171   2.576   0.171   0.140  1.0955  0.2269 -0.8479
12917SOL    HW240172   2.477   0.209   0.032 -0.3765 -0.2230  0.2978
12918SOL     OW40173   6.663   4.855   4.853 -0.3329 -0.4306 -0.4680
12918SOL    HW140174   6.571   4.848   4.829 -0.6660  1.1980  0.2127
12918SOL    HW240175   6.664   4.841   4.948  0.6106 -3.9429 -0.8485
12919SOL     OW40176   6.009   5.896   0.783  0.1982  0.0567  0.0130
12919SOL    HW140177   6.078   5.907   0.848  2.3910 -4.2977 -1.1761
12919SOL    HW240178   5.943   5.842   0.828  0.0844 -0.1553 -0.4062
12920SOL     OW40179   4.581   6.902   8.045  0.3715 -0.6592  0.2469
12920SOL    HW140180   4.576   6.995   8.067 -1.3939 -0.5711 -0.3642
12920SOL    HW240181   4.589   6.857   8.129  2.1238  0.0584  0.5036
12921SOL     OW40182   5.282   4.282   6.485  0.0889 -0.4159  0.0980
12921SOL    HW140183   5.263   4.302   6.393  0.1199 -0.4479  0.0845
12921SOL    HW240184   5.238   4.352   6.534  1.9880  0.9786 -0.0549
12922SOL     OW40185   2.865   3.623   0.939  0.7487  0.1713 -0.3102
12922SOL    HW140186   2.941   3.665   0.899  0.3293 -0.3361 -1.7021
12922SOL    HW240187   2.893   3.533   0.958  0.9567  0.4196  0.5950
12923SOL     OW40188   6.853   8.119   2.485  0.5262  0.4672 -0.0459
12923SOL    HW140189   6.879   8.208   2.509  0.9257  0.6899 -1.2299
12923SOL    HW240190   6.778   8.131   2.426 -0.8205 -0.0829  1.4926
12924SOL     OW40191   6.988   8.144   7.804  0.0681 -0.0293 -0.8335
12924SOL    HW140192   7.010   8.237   7.798 -2.8555  0.8587  0.4023
12924SOL    HW240193   6.893   8.142   7.805  0.0368 -2.9349  0.4882
12925SOL     OW40194   4.086   4.375   3.495  0.4022  0.2445 -0.5100
12925SOL    HW140195   4.085   4.436   3.568  0.3762 -0.3419 -0.0077
12925SOL    HW240196   4.132   4.298   3.529 -1.2157 -0.7730 -0.5028
12926SOL     OW40197   3.117   7.424   7.348  0.2983  0.2457 -0.0107
12926SOL    HW140198   3.124   7.329   7.360  0.1693  0.2394  0.0233
12926SOL    HW240199   3.199   7.458   7.382  1.3263 -0.0287 -2.0732
12927SOL     OW40200   8.151   5.769   5.023  0.3507  0.0961 -0.3413
12927SOL    HW140201   8.175   5.776   4.931  1.0804 -1.5177 -0.3184
12927SOL    HW240202   8.199   5.692   5.054 -2.2585 -1.2585  0.6178
12928SOL     OW40203   7.240   7.108   8.360  0.3254 -0.8604  0.3565
12928SOL    HW140204   7.321   7.144   8.396 -0.4867  1.5750 -0.0141
12928SOL    HW240205   7.192   7.074   8.436  0.0944  1.1554  1.1829
12929SOL     OW40206   6.296   4.401   0.634  0.1818  0.0295 -0.1291
12929SOL    HW140207   6.338   4.337   0.691  1.5956  2.8215  2.2731
12929SOL    HW240208   6.328   4.381   0.546 -0.0944 -2.9368  0.3532
12930SOL     OW40209   6.962   5.205   7.877  0.1336  0.4480 -0.2790
12930SOL    HW140210   6.992   5.296   7.885 -0.8109  0.9229 -1.6638
12930SOL    HW240211   6.868   5.214   7.859  0.1298 -0.7951 -0.9175
12931SOL     OW40212   5.740   2.796   4.830  0.1728 -0.6010 -0.4224
12931SOL    HW140213   5.722   2.706   4.803  0.5624 -0.5308 -0.9348
12931SOL    HW240214   5.699   2.850   4.762  2.4410 -0.4419 -1.7615
12932SOL     OW40215   2.672   1.500   0.143  0.1834 -0.6431 -0.1841
12932SOL    HW140216   2.576   1.503   0.147  0.1809 -0.3268 -0.5651
12932SOL    HW240217   2.699   1.590   0.127  0.4641 -0.9985 -1.8811
12933SOL     OW40218   0.145   1.046   2.642 -0.5411 -0.1105 -0.4763
12933SOL    HW140219   0.180   1.134   2.631 -0.3983 -0.1430 -0.2682
12933SOL    HW240220   0.050   1.056   2.629 -0.7091  0.3194  0.9872
12934SOL     OW40221   0.207   2.738   0.526  0.4402 -0.3801  0.1630
12934SOL    HW140222   0.293   2.724   0.487 -0.4544 -0.9244 -1.7116
12934SOL    HW240223   0.145   2.728   0.454 -1.3134 -1.2860  1.6944
12935SOL     OW40224   1.411   4.928   5.708 -0.3482 -0.1345 -0.4983
12935SOL    HW140225   1.379   5.007   5.666  2.3495  0.3151 -1.9277
12935SOL    HW240226   1.506   4.939   5.711 -0.1568 -1.3588  3.4125
12936SOL     OW40227   5.047   4.172   0.390  0.2642 -0.1461 -0.4983
12936SOL    HW140228   5.108   4.155   0.462  0.1118  1.9608  0.2168
12936SOL    HW240229   5.065   4.263   0.365 -2.4309  0.4821 -0.3979
12937SOL     OW40230   1.401   7.905   4.411 -0.7179  0.1739  0.1378
12937SOL    HW140231   1.480   7.951   4.439  0.0876  0.4248 -2.3555
12937SOL    HW240232   1.406   7.903   4.316 -2.3539 -2.2592 -0.0007
12938SOL     OW40233   0.148   1.556   8.197  0.1263 -0.0396  0.0370
12938SOL    HW140234   0.061   1.519   8.215 -0.0805  0.7013  0.6108
12938SOL    HW240235   0.137   1.602   8.114 -0.0830  0.1891  0.1871
12939SOL     OW40236   6.102   6.006   7.074 -0.5035  0.6068 -0.6430
12939SOL    HW140237   6.027   5.976   7.024 -0.2863  0.4800 -0.8915
12939SOL    HW240238   6.085   6.099   7.090  0.6326  1.3418 -3.1799
12940SOL     OW40239   0.447   5.755   4.351  0.1663 -0.3965 -0.0614
12940SOL    HW140240   0.470   5.809   4.275  0.9932  0.6085  0.8581
12940SOL    HW240241   0.391   5.811   4.404 -0.9804 -1.3440 -0.2477
12941SOL     OW40242   4.925   1.963   0.129  0.2313 -0.2964 -0.0569
12941SOL    HW140243   4.959   1.988   0.215  0.8085  0.2038 -0.4272
12941SOL    HW240244   4.848   1.909   0.149  0.0133  0.2931  0.7736
12942SOL     OW40245   4.131   6.479   1.930  0.1866  0.2348  0.1023
12942SOL    HW140246   4.204   6.427   1.964 -0.2716 -0.3635  0.1919
12942SOL    HW240247   4.053   6.426   1.949 -0.1552  0.2701 -1.1299
12943SOL     OW40248   5.768   4.772   3.538  0.0656 -0.2856 -0.0977
12943SOL    HW140249   5.783   4.752   3.445  0.7978 -0.6511  0.0983
12943SOL    HW240250   5.724   4.857   3.536 -0.1090 -0.3790 -0.7904
12944SOL     OW40251   7.323   1.961   6.646 -0.3514 -0.2665 -0.5300
12944SOL    HW140252   7.372   1.984   6.567  1.5985  1.2361  0.9954
12944SOL    HW240253   7.352   1.873   6.668  1.3941  0.4079  0.0603
12945SOL     OW40254   7.455   7.022   1.179  0.1781  0.3097 -0.5797
12945SOL    HW140255   7.447   7.018   1.274 -0.0055 -0.5154 -0.6219
12945SOL    HW240256   7.504   7.103   1.162 -0.1075  0.6527  0.1905
12946SOL     OW40257   1.684   5.346   0.992  0.3913  0.7675 -0.1396
12946SOL    HW140258   1.709   5.410   1.059  1.5274 -0.8849  1.1094
12946SOL    HW240259   1.693   5.261   1.036 -0.6995 -0.2907 -1.8382
12947SOL     OW40260   7.251   6.332   6.461 -0.0574  0.4870 -0.5659
12947SOL    HW140261   7.274   6.419   6.493 -0.3178  0.5789 -0.6276
12947SOL    HW240262   7.292   6.272   6.523 -2.6871  0.6615  1.4780
12948SOL     OW40263   3.443   5.987   3.102  0.0028  0.2408  0.0061
12948SOL    HW140264   3.434   5.945   3.017  2.2614 -0.8068  0.2015
12948SOL    HW240265   3.354   5.988   3.138 -0.7743 -0.5631 -1.7664
12949SOL     OW40266   7.298   3.069   6.435 -0.5820 -0.0324 -0.6409
12949SOL    HW140267   7.274   3.134   6.369 -1.0995  0.1669 -0.2630
12949SOL    HW240268   7.386   3.041   6.410 -0.7297  0.1196 -1.3520
12950SOL     OW40269   6.800   4.771   1.531  0.7744 -0.2939  0.3828
12950SOL    HW140270   6.713   4.807   1.517  0.8356 -0.9764 -2.2562
12950SOL    HW240271   6.785   4.691   1.581 -0.2025 -0.7693 -0.6434
12951SOL     OW40272   8.190   2.359   2.687 -0.0778 -0.4482 -0.4993
12951SOL    HW140273   8.103   2.341   2.723 -0.0798 -1.1797 -0.8490
12951SOL    HW240274   8.187   2.324   2.598 -0.2235  1.7404 -1.4122
12952SOL     OW40275   0.463   3.541   6.375 -0.0046  0.4461 -0.5375
12952SOL    HW140276   0.448   3.495   6.457  1.0258  1.4153  0.2214
12952SOL    HW240277   0.558   3.547   6.368 -0.0352 -0.3123 -2.2155
12953SOL     OW40278   5.683   0.853   6.726  0.4098 -0.2560  0.1224
12953SOL    HW140279   5.769   0.891   6.738 -0.4932  2.4848 -1.3657
12953SOL    HW240280   5.643   0.904   6.656 -1.5644 -2.9979 -0.9454
12954SOL     OW40281   3.411   2.351   4.696 -0.4187 -0.4269 -0.1807
12954SOL    HW140282   3.483   2.307   4.652 -0.6688  0.5716 -1.6284
12954SOL    HW240283   3.365   2.398   4.627 -1.4194  0.3834  0.9917
12955SOL     OW40284   8.063   0.484   3.234 -0.0595 -0.0409 -0.1931
12955SOL    HW140285   8.022   0.444   3.311  2.2066 -0.5833  0.8166
12955SOL    HW240286   8.022   0.570   3.227  0.6437  0.6283  2.5717
12956SOL     OW40287   3.520   7.395   0.923 -0.4872  0.4375 -0.0364
12956SOL    HW140288   3.428   7.376   0.941 -0.3350 -0.6371 -0.3304
12956SOL    HW240289   3.536   7.479   0.965 -1.1395 -0.1851  1.5015
12957SOL     OW40290   4.606   2.093   7.928  0.1646 -0.1223 -0.1057
12957SOL    HW140291   4.604   2.060   7.838  3.7782  0.8442 -0.6787
12957SOL    HW240292   4.556   2.175   7.924  0.2026 -0.1337 -1.2014
12958SOL     OW40293   5.533   4.546   3.740  0.0757 -0.0928  0.1598
12958SOL    HW140294   5.491   4.570   3.658 -0.5047 -0.8508  0.2179
12958SOL    HW240295   5.520   4.622   3.797 -1.1831 -0.2750  0.1496
12959SOL     OW40296   2.259   5.055   4.708 -0.4248 -0.0276 -0.3933
12959SOL    HW140297   2.282   5.037   4.799  0.8342 -1.2486 -0.9162
12959SOL    HW240298   2.214   4.976   4.678 -0.1968  0.0763 -1.0290
12960SOL     OW40299   5.349   2.406   3.127  0.6114 -0.5025 -0.3049
12960SOL    HW140300   5.413   2.344   3.163  0.9698  0.2406  0.3598
12960SOL    HW240301   5.372   2.411   3.034 -1.0826 -3.3533 -0.9963
12961SOL     OW40302   7.442   2.623   4.221 -0.4003  0.7129 -0.3601
12961SOL    HW140303   7.482   2.552   4.271 -0.9995 -0.4029 -1.4175
12961SOL    HW240304   7.396   2.676   4.287  1.4606  1.1347  0.6624
12962SOL     OW40305   6.939   7.188   7.166 -0.2845 -0.0143  0.5158
12962SOL    HW140306   6.963   7.116   7.223 -0.7266  0.8330  1.8101
12962SOL    HW240307   6.990   7.263   7.197 -1.3558  0.7322  0.5371
12963SOL     OW40308   0.111   4.962   2.671 -0.4604  0.0027  0.3104
12963SOL    HW140309   0.048   4.940   2.740  1.6054 -1.8996  1.7213
12963SOL    HW240310   0.123   5.057   2.679 -0.1128 -0.1927  2.7486
12964SOL     OW40311   4.408   6.157   0.504 -0.3179  0.1127  0.0237
12964SOL    HW140312   4.372   6.089   0.561 -1.6418  0.2486 -0.6084
12964SOL    HW240313   4.396   6.239   0.552 -1.6232  0.2522 -0.4982
12965SOL     OW40314   4.415   2.367   7.427  0.2477 -0.4625 -0.0719
12965SOL    HW140315   4.510   2.372   7.418  0.4569 -1.8524  0.9829
12965SOL    HW240316   4.398   2.391   7.518 -0.4829  0.3323 -0.4034
12966SOL     OW40317   5.670   3.249   7.374  0.0256  0.4286  0.1169
12966SOL    HW140318   5.734   3.248   7.445  1.6974 -0.3851 -1.3139
12966SOL    HW240319   5.703   3.315   7.313 -2.2159  2.2455  0.7351
12967SOL     OW40320   4.366   1.170   1.985  0.3901 -0.2218 -0.3492
12967SOL    HW140321   4.342   1.094   2.038 -1.0724 -0.8765 -1.8417
12967SOL    HW240322   4.366   1.243   2.046  1.5832 -1.3571  1.0792
12968SOL     OW40323   6.396   2.851   7.489 -0.0838 -0.5101 -0.5630
12968SOL    HW140324   6.359   2.928   7.534 -1.6820 -0.9670 -1.0196
12968SOL    HW240325   6.445   2.887   7.416  0.9637  0.1604  0.4424
12969SOL     OW40326   3.489   6.132   8.102 -0.5518 -0.1485  0.0476
12969SOL    HW140327   3.476   6.212   8.051 -0.4696  0.4936  1.0104
12969SOL    HW240328   3.403   6.092   8.105 -0.5227 -0.2978 -0.7450
12970SOL     OW40329   3.693   6.483   6.359  0.5190 -0.0288  0.2523
12970SOL    HW140330   3.705   6.458   6.267  1.1732  0.5493  0.1667
12970SOL    HW240331   3.781   6.477   6.397  0.2936 -0.0274  0.7818
12971SOL     OW40332   5.515   7.072   3.620  0.5604  0.3256  0.1798
12971SOL    HW140333   5.535   7.164   3.609  2.5458 -0.0619  0.1814
12971SOL    HW240334   5.421   7.069   3.638  0.8707  2.5424  2.6903
12972SOL     OW40335   3.286   6.581   0.202 -0.1192  0.4639 -0.0112
12972SOL    HW140336   3.319   6.526   0.273 -0.6501 -0.1873 -0.2559
12972SOL    HW240337   3.362   6.597   0.146 -0.2726 -1.3908 -0.8204
12973SOL     OW40338   5.334   0.079   0.064 -0.1227  0.2800 -0.1600
12973SOL    HW140339   5.370   0.076  -0.024 -1.8680 -1.3151 -0.9060
12973SOL    HW240340   5.410   0.076   0.122  1.0415  0.9614 -1.6053
12974SOL     OW40341   5.784   5.355   0.707  0.6595 -0.3218  0.3178
12974SOL    HW140342   5.777   5.418   0.778 -0.2234 -0.3319  0.2509
12974SOL    HW240343   5.863   5.305   0.727  0.4016 -0.3527  1.3116
12975SOL     OW40344   6.794   3.968   2.583 -0.5342 -0.1708  0.0190
12975SOL    HW140345   6.750   3.985   2.666  0.6249 -1.4061  0.9418
12975SOL    HW240346   6.818   4.054   2.550 -1.8029  0.3929  0.5043
12976SOL     OW40347   2.863   0.353   0.646 -0.0269 -0.4306  0.1377
12976SOL    HW140348   2.826   0.422   0.591  0.3177 -0.8262 -0.6115
12976SOL    HW240349   2.841   0.378   0.735 -0.9722  0.0032 -0.2117
12977SOL     OW40350   5.263   6.722   6.949 -0.6997  0.0960 -0.7546
12977SOL    HW140351   5.329   6.659   6.978  0.5635  2.0794  0.9783
12977SOL    HW240352   5.197   6.668   6.905 -0.3787 -2.6420  1.7393
12978SOL     OW40353   2.135   2.923   7.608 -0.5295 -0.1442 -0.1108
12978SOL    HW140354   2.044   2.895   7.593 -0.6038 -0.3718  0.7197
12978SOL    HW240355   2.186   2.842   7.605 -0.4048 -0.0626 -0.1981
12979SOL     OW40356   4.306   5.248   7.345 -0.2580 -0.1425  0.7792
12979SOL    HW140357   4.318   5.307   7.419  0.1147  1.9420 -0.8397
12979SOL    HW240358   4.271   5.304   7.276 -0.7945 -2.0524 -0.5693
12980SOL     OW40359   6.111   4.730   2.884  0.2807  0.1820 -0.2473
12980SOL    HW140360   6.021   4.700   2.870  0.0408 -0.3590  2.0842
12980SOL    HW240361   6.102   4.806   2.941  1.3402 -0.7295  1.1879
12981SOL     OW40362   2.305   2.070   3.818 -0.0589 -0.2386  0.4808
12981SOL    HW140363   2.318   2.165   3.828 -0.7698  0.0253 -0.8091
12981SOL    HW240364   2.250   2.045   3.891 -1.6482  0.7671 -0.3272
12982SOL     OW40365   1.281   1.149   0.746 -0.3022  0.1449  0.2519
12982SOL    HW140366   1.262   1.098   0.825 -1.7887  1.9582  1.1734
12982SOL    HW240367   1.320   1.230   0.780 -1.2229  1.0717 -0.8349
12983SOL     OW40368   1.560   4.068   1.966  0.4993 -0.0741  0.6508
12983SOL    HW140369   1.575   4.025   1.881 -0.4874  0.0604  0.3935
12983SOL    HW240370   1.620   4.143   1.966  2.0376 -1.2497  0.9826
12984SOL     OW40371   5.656   1.159   1.082  0.4598 -0.0379 -0.1211
12984SOL    HW140372   5.690   1.094   1.143 -0.7991 -0.5343  0.0866
12984SOL    HW240373   5.594   1.110   1.027  1.5284  0.4047 -1.7924
12985SOL     OW40374   4.371   3.545   3.572  0.0963  0.2748 -0.0505
12985SOL    HW140375   4.344   3.617   3.630 -1.2325  0.2337 -0.5848
12985SOL    HW240376   4.359   3.580   3.484  0.3732 -0.2754 -0.3084
12986SOL     OW40377   7.930   0.756   2.530  0.0800 -0.1266  0.2018
12986SOL    HW140378   7.847   0.713   2.509  0.5865 -1.8374  1.4249
12986SOL    HW240379   7.922   0.780   2.622  0.6417  0.4416  0.1097
12987SOL     OW40380   1.773   6.143   2.968  0.2634  0.0737  0.0555
12987SOL    HW140381   1.830   6.167   2.895  1.8503  1.3512  1.6224
12987SOL    HW240382   1.685   6.140   2.930  1.0458  0.5505 -1.9154
12988SOL     OW40383   6.127   3.081   1.900 -0.3423  0.2084  0.1073
12988SOL    HW140384   6.115   3.054   1.809  1.6107 -0.6290  0.0659
12988SOL    HW240385   6.041   3.069   1.940 -0.9616 -0.4574 -1.3591
12989SOL     OW40386   1.078   7.312   2.090  0.9204 -0.1993 -0.9387
12989SOL    HW140387   1.067   7.226   2.050  0.2832 -0.3883 -0.3844
12989SOL    HW240388   1.074   7.296   2.185 -2.1668  0.7271 -0.7869
12990SOL     OW40389   4.756   7.200   7.989  0.7847 -0.1071  0.3260
12990SOL    HW140390   4.690   7.243   8.043  0.5784  2.2741 -1.6392
12990SOL    HW240391   4.836   7.249   8.007  1.0453 -0.2600 -0.4134
12991SOL     OW40392   7.038   1.311   7.065 -0.0491 -0.1304 -0.8710
12991SOL    HW140393   7.025   1.403   7.042 -1.5086  0.9751  3.3862
12991SOL    HW240394   6.953   1.270   7.048 -0.0286 -0.1938 -0.8221
12992SOL     OW40395   3.253   4.855   0.519 -0.3316 -0.2162 -0.3938
12992SOL    HW140396   3.235   4.780   0.461  3.8063 -0.8733 -1.1575
12992SOL    HW240397   3.269   4.815   0.604  0.8430 -0.1347 -0.5617
12993SOL     OW40398   0.307   4.757   7.419 -0.5001  0.5673  0.0318
12993SOL    HW140399   0.392   4.713   7.414 -1.5336 -1.5241 -0.0616
12993SOL    HW240400   0.262   4.714   7.492 -1.3690  1.9025  0.3192
12994SOL     OW40401   7.625   7.462   8.075  0.3190 -0.0625 -0.0751
12994SOL    HW140402   7.604   7.507   8.157 -0.7647  0.9371 -0.8761
12994SOL    HW240403   7.622   7.369   8.097 -1.9669  0.1170  0.5759
12995SOL     OW40404   5.046   3.332   0.738 -0.3800  0.1001 -0.0284
12995SOL    HW140405   5.082   3.413   0.773  0.5419 -0.7451  1.0548
12995SOL    HW240406   4.958   3.355   0.710 -1.4035  0.7599  3.3543
12996SOL     OW40407   3.970   7.129   6.790  0.3540  0.2718  0.0394
12996SOL    HW140408   4.021   7.201   6.753  0.1131  0.3055 -0.2313
12996SOL    HW240409   4.011   7.111   6.875  1.0157  0.0811 -0.3214
12997SOL     OW40410   1.399   8.345   0.746 -0.1951 -0.1156  0.2258
12997SOL    HW140411   1.304   8.337   0.740 -0.1302 -0.1317 -1.3401
12997SOL    HW240412   1.428   8.265   0.790 -0.9058 -0.0718  0.7854
12998SOL     OW40413   4.079   8.042   0.607  0.1970  0.5660  0.6793
12998SOL    HW140414   4.132   8.017   0.683  0.1354  1.5772  1.0780
12998SOL    HW240415   4.138   8.034   0.532 -0.0262 -1.3960  0.6849
12999SOL     OW40416   6.520   2.434   6.222 -0.0371  0.3766 -0.2971
12999SOL    HW140417   6.467   2.437   6.142  0.5595 -0.9829 -0.7856
12999SOL    HW240418   6.473   2.489   6.284 -1.6020 -0.1347 -0.9695
13000SOL     OW40419   4.970   6.953   2.601 -0.1413 -0.0194  0.0218
13000SOL    HW140420   5.009   7.036   2.630  0.6942  1.3556 -4.3674
13000SOL    HW240421   4.879   6.974   2.584  0.1160  0.1087 -1.2840
13001SOL     OW40422   1.094   2.033   1.678 -0.1007  0.1642  0.5077
13001SOL    HW140423   1.134   1.990   1.602 -1.0928  0.3690 -0.1471
13001SOL    HW240424   1.167   2.076   1.722  0.4310  0.4267 -0.5848
13002SOL     OW40425   2.187   0.745   6.457  0.5198  0.1082 -0.2656
13002SOL    HW140426   2.189   0.827   6.506  0.5144 -0.4938  0.7547
13002SOL    HW240427   2.209   0.678   6.521  1.4406 -0.6025 -1.2822
13003SOL     OW40428   8.213   5.321   4.943 -0.3558 -0.4076  0.0924
13003SOL    HW140429   8.297   5.294   4.905 -0.2924  1.2013 -1.0167
13003SOL    HW240430   8.155   5.333   4.868 -1.8780 -2.2723  0.8828
13004SOL     OW40431   8.227   4.178   0.940 -0.1927  0.2503  0.2628
13004SOL    HW140432   8.161   4.213   1.000  0.4661 -0.5171  1.4932
13004SOL    HW240433   8.309   4.216   0.970  0.0920  0.2101 -0.4535
13005SOL     OW40434   0.410   8.216   1.014  0.1499 -0.4514 -0.7101
13005SOL    HW140435   0.327   8.232   0.970  1.3163  1.4788 -2.3260
13005SOL    HW240436   0.399   8.256   1.100 -0.4664  0.1280 -1.0485
13006SOL     OW40437   1.009   3.971   5.701 -0.3436 -0.0905  0.3038
13006SOL    HW140438   0.987   3.973   5.608 -2.1893 -1.0650  0.6749
13006SOL    HW240439   1.078   4.037   5.711  0.5935 -0.6377 -1.9042
13007SOL     OW40440   1.779   2.545   7.514  0.3856 -0.0630 -0.2171
13007SOL    HW140441   1.791   2.537   7.608  0.4373 -0.1775 -0.2330
13007SOL    HW240442   1.685   2.541   7.501  0.3635  0.1874 -0.1499
13008SOL     OW40443   5.997   4.857   2.421  0.1354  0.2381  0.9585
13008SOL    HW140444   6.023   4.847   2.329 -1.8576 -1.0068  0.4539
13008SOL    HW240445   6.045   4.789   2.468 -0.8479 -0.9299  0.3360
13009SOL     OW40446   5.993   2.474   3.098 -0.4110  0.2718  0.1230
13009SOL    HW140447   6.020   2.562   3.072 -2.0164  1.3776  1.8616
13009SOL    HW240448   5.914   2.457   3.047 -2.2782  1.5224  2.3523
13010SOL     OW40449   4.538   7.332   7.640 -0.6057  0.4639 -0.5799
13010SOL    HW140450   4.466   7.310   7.582 -0.3079  1.3154 -1.3063
13010SOL    HW240451   4.547   7.427   7.632 -0.0659  0.5008  0.2851
13011SOL     OW40452   6.979   0.598   4.673 -0.6797  0.3256 -0.3899
13011SOL    HW140453   7.022   0.548   4.603 -0.5996  0.6083 -0.5435
13011SOL    HW240454   7.026   0.682   4.674 -0.7783  0.3764 -0.0962
13012SOL     OW40455   6.974   1.271   1.878 -0.0955 -0.3073 -0.0777
13012SOL    HW140456   6.919   1.235   1.947 -1.1286 -0.1738 -0.8009
13012SOL    HW240457   7.063   1.243   1.900 -0.2801  0.4002  1.7322
13013SOL     OW40458   2.224   6.861   2.673 -0.0827 -0.9022  0.0614
13013SOL    HW140459   2.146   6.807   2.680 -1.2267  0.4970 -1.3089
13013SOL    HW240460   2.217   6.924   2.744 -1.6239  0.8802 -1.5578
13014SOL     OW40461   6.737   0.200   0.172 -0.2166 -0.1150  0.0094
13014SOL    HW140462   6.772   0.274   0.220 -1.5546  0.9572 -0.5921
13014SOL    HW240463   6.811   0.140   0.162  0.4349  0.2668  2.1216
13015SOL     OW40464   1.706   0.753   2.606 -0.2498 -0.2215 -0.3956
13015SOL    HW140465   1.787   0.802   2.593  0.0159 -0.4053  0.5333
13015SOL    HW240466   1.699   0.699   2.527  0.6936 -0.4325 -0.3523
13016SOL     OW40467   3.083   0.276   1.952 -0.2989  0.7429  0.3254
13016SOL    HW140468   3.085   0.367   1.922  0.9205  0.4765 -0.4889
13016SOL    HW240469   3.166   0.239   1.922 -0.5810 -0.5256  1.0282
13017SOL     OW40470   5.690   4.137   4.319  0.1866 -0.3055  0.0816
13017SOL    HW140471   5.627   4.108   4.385 -0.3523 -0.1373 -0.3534
13017SOL    HW240472   5.639   4.144   4.238  0.5623  0.6734 -0.0925
13018SOL     OW40473   1.871   4.365   5.857 -0.0209  0.5143  0.1394
13018SOL    HW140474   1.895   4.273   5.857 -2.2151 -0.1130  1.0105
13018SOL    HW240475   1.915   4.401   5.934  0.8137  0.2252 -0.1872
13019SOL     OW40476   2.156   5.038   0.067  0.0896  0.1154  0.1427
13019SOL    HW140477   2.128   4.948   0.083 -0.3979  0.1110 -0.6960
13019SOL    HW240478   2.248   5.030   0.039  0.0628 -0.1192  0.1223
13020SOL     OW40479   1.805   3.642   3.881  0.0179 -0.0639 -0.6689
13020SOL    HW140480   1.803   3.672   3.972 -1.9746 -2.5704  0.2318
13020SOL    HW240481   1.714   3.640   3.854  0.5730  0.6855 -2.8215
13021SOL     OW40482   7.333   4.588   5.409  0.1844 -0.2425 -0.4855
13021SOL    HW140483   7.256   4.549   5.449  0.2045 -0.1979 -0.4018
13021SOL    HW240484   7.372   4.518   5.357  1.2123 -0.8851  1.0486
13022SOL     OW40485   5.929   2.376   2.778  0.2132 -0.7849 -0.0646
13022SOL    HW140486   6.007   2.429   2.792  0.1012 -0.8459  0.8421
13022SOL    HW240487   5.864   2.412   2.838  0.1419 -1.9711  0.5956
13023SOL     OW40488   4.036   0.168   6.888 -0.1790  0.9453 -0.3044
13023SOL    HW140489   4.094   0.236   6.923  0.8221 -0.4668  0.9398
13023SOL    HW240490   4.095   0.096   6.863 -1.3067 -0.2714  0.3724
13024SOL     OW40491   2.318   7.323   5.385 -0.4223 -0.2917  0.0383
13024SOL    HW140492   2.225   7.346   5.376 -0.5408 -0.2513  1.1291
13024SOL    HW240493   2.348   7.308   5.296 -1.7062 -1.1513 -0.2829
13025SOL     OW40494   3.138   5.577   7.093 -0.2927 -0.0612  0.1138
13025SOL    HW140495   3.091   5.593   7.011 -0.3954 -1.0846 -0.0366
13025SOL    HW240496   3.078   5.607   7.161 -1.1952 -1.3793 -0.0731
13026SOL     OW40497   2.098   7.903   7.174 -0.2405  0.3818  0.0389
13026SOL    HW140498   2.097   7.985   7.125  0.5919  1.0344  1.0719
13026SOL    HW240499   2.061   7.926   7.260  1.8147  0.1919  1.0445
13027SOL     OW40500   6.892   5.380   0.707 -0.0048 -0.1695 -0.3388
13027SOL    HW140501   6.894   5.297   0.754 -1.9436 -0.7498 -1.1920
13027SOL    HW240502   6.946   5.439   0.760  0.2510 -1.5734  1.0347
13028SOL     OW40503   1.741   0.197   7.104  0.1326 -0.2515  0.0875
13028SOL    HW140504   1.712   0.119   7.151 -1.4763 -0.0629 -0.5390
13028SOL    HW240505   1.705   0.187   7.016  2.3276 -0.1603 -0.8907
13029SOL     OW40506   3.748   0.961   4.546 -0.1636  0.4724  0.3780
13029SOL    HW140507   3.822   0.995   4.597  0.6213 -0.4067 -0.1452
13029SOL    HW240508   3.680   1.027   4.556  0.4070  0.9110  1.5438
13030SOL     OW40509   0.523   3.387   2.304 -0.3952 -0.5196  0.1165
13030SOL    HW140510   0.567   3.306   2.280 -1.4662 -0.8915 -0.6526
13030SOL    HW240511   0.561   3.454   2.247  0.9446 -0.3200  1.1835
13031SOL     OW40512   6.360   7.330   7.777 -0.4762 -0.0933  0.9673
13031SOL    HW140513   6.439   7.384   7.788  0.0435 -0.5969 -0.1035
13031SOL    HW240514   6.384   7.246   7.816 -0.5303 -0.2014  0.7676
13032SOL     OW40515   2.321   8.233   0.996  0.2359  0.4727  0.4464
13032SOL    HW140516   2.253   8.173   1.023  1.0822 -0.1485  1.2471
13032SOL    HW240517   2.365   8.259   1.077  1.7969 -0.1774 -0.1488
13033SOL     OW40518   0.076   1.845   3.932 -0.3558  0.1133 -0.4462
13033SOL    HW140519   0.063   1.927   3.979  2.3757 -0.1101  0.8446
13033SOL    HW240520   0.145   1.865   3.868 -1.6949 -0.4820 -2.1774
13034SOL     OW40521   5.255   5.286   3.256  0.1407  0.6523  0.4180
13034SOL    HW140522   5.321   5.217   3.248  0.3261  1.0582 -2.9062
13034SOL    HW240523   5.291   5.346   3.321  2.1830 -0.0469  0.0045
13035SOL     OW40524   3.605   7.191   1.875 -0.6625  0.3492  0.5127
13035SOL    HW140525   3.663   7.205   1.801 -0.8630  0.7332  0.4228
13035SOL    HW240526   3.653   7.132   1.933  0.7051  2.2319  1.4178
13036SOL     OW40527   0.586   0.484   4.074  0.2610 -0.7908 -0.1666
13036SOL    HW140528   0.586   0.461   3.981  0.4617  0.8109 -0.5987
13036SOL    HW240529   0.664   0.539   4.085 -0.1732 -0.3454  0.7847
13037SOL     OW40530   0.440   3.028   0.644 -0.2033  0.2438 -0.2169
13037SOL    HW140531   0.487   3.056   0.565  1.9768 -0.0681  0.8723
13037SOL    HW240532   0.460   2.935   0.652 -0.6735  0.1971  0.5035
13038SOL     OW40533   2.378   8.358   5.708  0.2478  0.0961 -0.3507
13038SOL    HW140534   2.456   8.303   5.699  0.8388  0.8793 -0.1287
13038SOL    HW240535   2.383   8.392   5.797  0.2304  0.9965 -0.6803
13039SOL     OW40536   2.314   0.118   4.599 -0.3073 -0.5227  0.7528
13039SOL    HW140537   2.367   0.163   4.665  0.2012  0.2451 -0.1541
13039SOL    HW240538   2.343   0.155   4.515 -0.9097 -1.5009  0.0878
13040SOL     OW40539   1.792   7.975   4.204  0.4748 -0.4107 -0.2123
13040SOL    HW140540   1.787   7.989   4.298 -0.9913  0.8904 -0.4504
13040SOL    HW240541   1.855   7.903   4.194  0.1691 -1.0151  1.7833
13041SOL     OW40542   1.351   4.113   7.620 -0.0683 -0.9658  0.5910
13041SOL    HW140543   1.364   4.180   7.689 -0.7043 -0.2414  0.0212
13041SOL    HW240544   1.309   4.161   7.549  1.7924 -1.3864 -0.8537
13042SOL     OW40545   4.308   0.449   8.279  0.2254  0.3252 -0.4897
13042SOL    HW140546   4.333   0.519   8.219  1.3243  0.4776  0.1199
13042SOL    HW240547   4.313   0.369   8.225  2.9936  0.2253 -0.2259
13043SOL     OW40548   3.720   2.172   3.673 -0.3715 -0.2273 -0.1823
13043SOL    HW140549   3.755   2.088   3.645 -0.8255 -0.5962  0.3468
13043SOL    HW240550   3.679   2.209   3.594  0.5470 -0.1218 -0.6196
13044SOL     OW40551   7.475   7.989   0.636 -0.4467  0.0580  0.5555
13044SOL    HW140552   7.491   7.910   0.687  1.2204 -1.0081 -1.4538
13044SOL    HW240553   7.393   7.972   0.589 -0.4070 -0.2306  0.5935
13045SOL     OW40554   2.252   6.247   2.201  0.2006 -0.2181  0.1792
13045SOL    HW140555   2.196   6.188   2.151 -1.2280  0.5249  0.8441
13045SOL    HW240556   2.327   6.264   2.143 -0.1823 -1.3407 -0.6720
13046SOL     OW40557   3.992   2.337   3.682 -0.4244 -0.0532 -0.0636
13046SOL    HW140558   3.943   2.266   3.639  0.5280 -0.7974  0.0612
13046SOL    HW240559   3.925   2.402   3.703 -1.2460 -0.6937 -0.6251
13047SOL     OW40560   0.254   8.123   1.773 -0.0463 -0.4871  0.4234
13047SOL    HW140561   0.300   8.052   1.817 -0.9093 -2.1494 -1.2275
13047SOL    HW240562   0.320   8.165   1.718  0.1623 -0.9442  0.3226
13048SOL     OW40563   5.913   4.494   5.301  0.0436 -0.4657 -0.0398
13048SOL    HW140564   5.939   4.402   5.307 -0.5479 -0.5932  0.7593
13048SOL    HW240565   5.831   4.492   5.252 -0.3274 -0.4419  0.5698
13049SOL     OW40566   7.314   3.517   4.744 -0.1616 -0.0639 -0.2839
13049SOL    HW140567   7.320   3.588   4.808 -0.8562  0.2159 -0.5208
13049SOL    HW240568   7.233   3.472   4.766  0.0661 -0.5353 -0.3934
13050SOL     OW40569   0.362   4.982   6.428  0.1312 -0.2361  0.2961
13050SOL    HW140570   0.300   5.040   6.384 -0.2934 -0.4218  0.6332
13050SOL    HW240571   0.422   5.041   6.473  0.8466 -0.0376 -0.8810
13051SOL     OW40572   7.716   1.136   2.685 -0.3583 -0.1953  0.0916
13051SOL    HW140573   7.790   1.125   2.746  0.1806 -0.5380 -0.6160
13051SOL    HW240574   7.756   1.156   2.601 -1.0614 -0.6710 -0.3698
13052SOL     OW40575   4.394   2.455   6.865 -0.1076 -0.2773  0.2928
13052SOL    HW140576   4.308   2.412   6.871 -0.1246 -0.2086  0.5109
13052SOL    HW240577   4.412   2.487   6.953 -0.2007  0.3784  0.0781
13053SOL     OW40578   7.008   5.456   0.459  0.0462  0.0942 -0.1968
13053SOL    HW140579   6.964   5.434   0.377  0.0368 -0.0884 -0.1429
13053SOL    HW240580   6.961   5.406   0.526 -0.4958  0.8929  0.0392
13054SOL     OW40581   2.025   7.285   0.887  0.2931 -0.4736 -0.0291
13054SOL    HW140582   2.037   7.261   0.795  0.9839  0.2824 -0.1521
13054SOL    HW240583   1.940   7.249   0.911 -0.6446  0.6854 -1.4419
13055SOL     OW40584   4.903   3.883   4.969 -0.2531  0.2636 -0.3876
13055SOL    HW140585   4.922   3.946   5.039  1.9178 -0.7332  0.0066
13055SOL    HW240586   4.876   3.804   5.015 -0.5506  0.1416 -0.7684
13056SOL     OW40587   2.115   4.547   0.403 -0.2046  0.4868 -0.1957
13056SOL    HW140588   2.044   4.490   0.434  3.1853 -2.3703  3.4732
13056SOL    HW240589   2.101   4.630   0.449 -1.8199  0.4952 -0.6334
13057SOL     OW40590   3.732   1.394   4.085  0.2971  0.2781  0.1903
13057SOL    HW140591   3.638   1.410   4.070  0.4391  1.0633  0.1106
13057SOL    HW240592   3.742   1.397   4.180  0.2930  0.5290  0.1845
13058SOL     OW40593   3.138   1.668   0.567 -0.2164 -0.3415  0.3202
13058SOL    HW140594   3.049   1.689   0.539  0.2717 -0.4027 -1.3865
13058SOL    HW240595   3.164   1.595   0.510  1.7712  1.2256 -0.9301
13059SOL     OW40596   4.512   1.754   6.848 -0.3241  0.0034  0.1794
13059SOL    HW140597   4.439   1.718   6.899 -1.1239 -0.4353 -1.2399
13059SOL    HW240598   4.476   1.769   6.761  0.7976  1.5358 -0.0535
13060SOL     OW40599   8.180   0.094   5.221 -0.2968 -0.1387 -0.0952
13060SOL    HW140600   8.088   0.110   5.242  0.0082  0.5750  0.7758
13060SOL    HW240601   8.178   0.050   5.136 -1.3525  1.6660 -1.0655
13061SOL     OW40602   2.930   2.437   5.320  0.0285 -0.1923 -0.3594
13061SOL    HW140603   2.899   2.465   5.407  1.0165 -3.7604  1.3033
13061SOL    HW240604   3.013   2.484   5.309 -0.4391  0.8326  0.2925
13062SOL     OW40605   5.205   7.293   5.451 -0.2061  0.3093  0.2446
13062SOL    HW140606   5.116   7.286   5.484 -0.4692  0.1775 -0.4663
13062SOL    HW240607   5.249   7.353   5.511 -0.6794  0.1158  0.7865
13063SOL     OW40608   6.718   4.915   7.644  0.3095  0.2538  0.0057
13063SOL    HW140609   6.806   4.919   7.606  0.8215  0.3998  1.1597
13063SOL    HW240610   6.731   4.940   7.736 -1.1790  1.8732 -0.1725
13064SOL     OW40611   7.987   6.769   0.800 -0.1084 -0.2444  0.0625
13064SOL    HW140612   8.003   6.753   0.893 -0.8696  0.9901  0.4289
13064SOL    HW240613   7.928   6.699   0.773 -2.3862  1.0612  1.3101
13065SOL     OW40614   1.020   3.232   4.312 -0.2440 -0.7510  0.4090
13065SOL    HW140615   0.992   3.144   4.290  0.7439 -0.9250 -0.2359
13065SOL    HW240616   0.940   3.284   4.312 -0.7998 -1.5929  0.5507
13066SOL     OW40617   7.929   2.214   1.886  0.0029 -0.2757  0.2972
13066SOL    HW140618   7.945   2.308   1.882 -0.2919 -0.2364 -0.0198
13066SOL    HW240619   7.971   2.186   1.968 -1.2443  0.3866  1.2014
13067SOL     OW40620   2.234   4.524   0.851 -0.2648 -0.0326 -0.1710
13067SOL    HW140621   2.203   4.613   0.864 -0.1215 -0.0480  0.3061
13067SOL    HW240622   2.272   4.523   0.763  0.4607  0.5939  0.1223
13068SOL     OW40623   4.073   4.212   8.179  0.2803  0.0721  0.3392
13068SOL    HW140624   4.140   4.145   8.189 -1.3685 -1.7722 -0.2562
13068SOL    HW240625   4.000   4.182   8.233 -1.3008  0.2241 -1.5627
13069SOL     OW40626   2.850   1.735   4.555 -0.3339  0.3717 -0.0085
13069SOL    HW140627   2.850   1.815   4.608 -0.1117  1.4666 -1.5820
13069SOL    HW240628   2.941   1.725   4.527 -0.3716 -0.4219  0.1306
13070SOL     OW40629   3.743   6.964   0.124  0.0906  0.2749  0.4295
13070SOL    HW140630   3.686   7.038   0.144  0.9291  0.7064  1.3067
13070SOL    HW240631   3.778   6.938   0.209  1.9987  0.6872 -0.1884
13071SOL     OW40632   8.004   1.296   0.494 -0.2166  0.0646 -0.3228
13071SOL    HW140633   7.993   1.202   0.507 -0.3332  0.1392  0.1160
13071SOL    HW240634   8.003   1.333   0.582 -1.4402  0.6167 -0.5524
13072SOL     OW40635   2.017   8.047   8.072  0.1525  0.1611 -0.1716
13072SOL    HW140636   2.083   8.077   8.134  1.0071  2.3984 -2.0390
13072SOL    HW240637   2.058   7.973   8.027  0.7592  0.4965 -0.1790
13073SOL     OW40638   2.962   5.181   7.283 -0.1871  0.6551  0.4173
13073SOL    HW140639   2.891   5.228   7.241 -0.7845 -0.4252  0.1737
13073SOL    HW240640   2.920   5.106   7.325  0.7369  0.3062  0.7527
13074SOL     OW40641   0.515   3.820   7.092  0.1933 -0.5660  0.4057
13074SOL    HW140642   0.488   3.843   7.003  0.3120  0.4908  0.6333
13074SOL    HW240643   0.549   3.731   7.084 -0.6448 -0.8315 -0.4300
13075SOL     OW40644   6.660   2.361   4.776  0.1348  0.6766 -0.5438
13075SOL    HW140645   6.682   2.278   4.817 -0.1208  0.4424 -0.8751
13075SOL    HW240646   6.734   2.418   4.797 -0.3294  0.7924  0.8507
13076SOL     OW40647   5.642   6.406   3.690 -0.8715  0.2219 -0.2764
13076SOL    HW140648   5.627   6.472   3.622 -2.4826  0.7707  0.5429
13076SOL    HW240649   5.696   6.451   3.755 -0.3268  0.0897 -0.6377
13077SOL     OW40650   4.404   3.054   2.460 -0.7129 -0.1389 -0.6704
13077SOL    HW140651   4.368   3.030   2.545 -1.0641  2.5404  0.0335
13077SOL    HW240652   4.479   2.996   2.448 -1.1091 -1.0748  1.1157
13078SOL     OW40653   1.344   4.595   4.116 -0.0711 -0.3269 -0.6069
13078SOL    HW140654   1.336   4.622   4.024  0.9400  3.2699  0.2007
13078SOL    HW240655   1.255   4.602   4.151  0.2419  3.9001 -0.1376
13079SOL     OW40656   6.359   7.444   2.655 -0.7068 -0.3804  0.0362
13079SOL    HW140657   6.406   7.406   2.581  0.9069 -0.9771  1.3079
13079SOL    HW240658   6.335   7.369   2.709 -0.3274  0.1564  0.9739
13080SOL     OW40659   6.844   1.921   3.278  0.7956  0.6346  0.3071
13080SOL    HW140660   6.853   2.009   3.242  0.6460  0.2886 -0.6169
13080SOL    HW240661   6.927   1.878   3.259  1.4758  1.0455  2.1633
13081SOL     OW40662   4.853   7.222   0.725 -0.0165 -0.3337 -0.1511
13081SOL    HW140663   4.818   7.191   0.809 -0.9399  1.7371  0.2987
13081SOL    HW240664   4.827   7.314   0.721  1.9230  0.2171 -1.7144
13082SOL     OW40665   4.509   6.372   1.828  0.0663 -0.4189 -0.3444
13082SOL    HW140666   4.528   6.369   1.734  0.7944 -0.9999 -0.1879
13082SOL    HW240667   4.471   6.287   1.847 -0.4753 -0.1468 -0.1829
13083SOL     OW40668   8.270   7.336   6.670 -0.4767  0.4655 -0.1080
13083SOL    HW140669   8.265   7.245   6.699 -1.6283 -0.5095 -2.9671
13083SOL    HW240670   8.246   7.387   6.748  1.7797 -1.4865  2.0345
13084SOL     OW40671   7.332   7.633   6.278 -0.9709 -0.1224 -0.1145
13084SOL    HW140672   7.377   7.704   6.324 -1.4304 -0.6728  1.2346
13084SOL    HW240673   7.267   7.676   6.223  0.1468  0.5954 -0.9062
13085SOL     OW40674   2.037   7.951   0.155  0.2272  0.0498  0.4192
13085SOL    HW140675   2.016   7.906   0.073  1.4180  0.5107 -0.1622
13085SOL    HW240676   2.132   7.961   0.153  0.1186  1.4413  1.1371
13086SOL     OW40677   7.134   3.387   1.936 -0.4424 -0.3365  0.0713
13086SOL    HW140678   7.167   3.474   1.912 -0.3294 -0.7589 -1.4122
13086SOL    HW240679   7.206   3.328   1.915 -1.0113 -0.9300 -0.2340
13087SOL     OW40680   2.158   0.660   1.994  0.2578  0.5567  0.4127
13087SOL    HW140681   2.244   0.641   1.956  0.4415  0.3705  0.9230
13087SOL    HW240682   2.110   0.703   1.922  0.3835 -0.3520 -0.2317
13088SOL     OW40683   6.736   7.252   6.119 -0.1290 -0.5430 -0.4562
13088SOL    HW140684   6.784   7.170   6.116  0.5771 -0.2176  1.2244
13088SOL    HW240685   6.671   7.240   6.188  0.1577  0.3948 -0.0036
13089SOL     OW40686   2.782   4.692   4.817  0.1567 -0.0214  0.0600
13089SOL    HW140687   2.777   4.597   4.827  0.1543  0.0452  0.7902
13089SOL    HW240688   2.721   4.713   4.747  0.3457 -0.5868 -0.2736
13090SOL     OW40689   7.015   7.237   6.459  0.2523  0.2097 -0.2364
13090SOL    HW140690   7.035   7.290   6.382 -4.4434  0.9857 -1.2218
13090SOL    HW240691   6.951   7.173   6.428  0.6287 -1.6326  2.4361
13091SOL     OW40692   5.013   4.865   3.813 -0.6079  0.2114 -0.6134
13091SOL    HW140693   5.041   4.937   3.756 -1.4356  0.4077 -0.7863
13091SOL    HW240694   4.923   4.847   3.786  0.1712 -2.1825 -1.8524
13092SOL     OW40695   7.521   7.229   7.223  0.5316 -0.4239  0.9838
13092SOL    HW140696   7.527   7.135   7.204  0.9679  0.1387 -1.9889
13092SOL    HW240697   7.610   7.262   7.209  0.2727  0.5565  1.5401
13093SOL     OW40698   5.622   7.638   1.906  0.1093  0.0247  0.4296
13093SOL    HW140699   5.642   7.713   1.849 -1.4662  0.6114  0.6111
13093SOL    HW240700   5.590   7.571   1.846  1.1671 -0.4009  0.3133
13094SOL     OW40701   6.450   7.024   8.302 -0.0551  0.2017 -0.1563
13094SOL    HW140702   6.532   6.978   8.319 -0.5152 -0.2869  0.8523
13094SOL    HW240703   6.391   6.957   8.267  0.5279  0.9578 -2.7516
13095SOL     OW40704   6.865   4.074   3.896  0.2814  0.0539  0.0296
13095SOL    HW140705   6.903   4.066   3.983 -0.2599 -0.6906  0.1955
13095SOL    HW240706   6.777   4.107   3.910 -0.5150 -1.9218 -0.0852
13096SOL     OW40707   7.102   4.885   1.232 -0.1057 -0.2380 -0.3165
13096SOL    HW140708   7.098   4.909   1.325  0.0051  0.4863 -0.5003
13096SOL    HW240709   7.133   4.963   1.188 -1.7524 -0.0266 -1.1895
13097SOL     OW40710   3.884   7.844   0.588 -0.1713  0.0756 -0.2996
13097SOL    HW140711   3.945   7.917   0.601  0.0851  0.1320 -1.6377
13097SOL    HW240712   3.935   7.766   0.611 -0.2380  0.2611  0.5020
13098SOL     OW40713   2.267   4.906   7.346  0.1843 -0.5651  0.2250
13098SOL    HW140714   2.228   4.902   7.259 -0.1973 -0.2464  0.3817
13098SOL    HW240715   2.297   4.997   7.355  0.4398 -0.6590  0.3322
13099SOL     OW40716   2.780   0.302   2.662 -0.0161 -0.5627  0.5043
13099SOL    HW140717   2.802   0.323   2.753 -1.8742 -2.4597  1.4807
13099SOL    HW240718   2.859   0.259   2.628  0.7935  0.4090  1.1011
13100SOL     OW40719   1.972   2.041   8.230  0.2208  0.2184  0.4499
13100SOL    HW140720   1.949   1.966   8.175  0.7570  0.3288  0.0699
13100SOL    HW240721   2.034   2.006   8.294  0.5269  0.3422  0.2280
13101SOL     OW40722   4.001   7.000   4.563  0.0266 -0.7905 -0.6895
13101SOL    HW140723   3.962   6.984   4.649 -1.5575  0.4380 -1.1188
13101SOL    HW240724   3.968   6.930   4.508  0.8851 -1.4664 -0.3643
13102SOL     OW40725   1.921   0.991   2.690 -0.4563 -0.4093 -0.1477
13102SOL    HW140726   1.962   1.060   2.637 -0.2309 -1.0373 -0.8260
13102SOL    HW240727   1.995   0.941   2.725 -0.3255  2.4100  4.3411
13103SOL     OW40728   2.092   6.724   4.554 -0.0002 -0.6377  0.1195
13103SOL    HW140729   2.021   6.696   4.613 -0.0719 -0.6955  0.0053
13103SOL    HW240730   2.047   6.753   4.475  0.2223 -3.4023 -1.1321
13104SOL     OW40731   7.652   3.061   5.776  0.1342 -0.1403  0.2974
13104SOL    HW140732   7.739   3.065   5.737  1.3601  1.6255  2.9544
13104SOL    HW240733   7.592   3.074   5.702  2.0489 -1.4534 -1.6028
13105SOL     OW40734   3.644   4.826   1.768  0.0800 -0.1200 -0.3837
13105SOL    HW140735   3.590   4.769   1.824 -0.6915  2.6009  1.8511
13105SOL    HW240736   3.597   4.909   1.765  1.6455  0.7859 -2.7092
13106SOL     OW40737   3.854   3.466   3.527 -0.1730 -0.0624 -0.2282
13106SOL    HW140738   3.918   3.413   3.575  1.4200  2.4647  0.6083
13106SOL    HW240739   3.775   3.464   3.582  1.3514  2.1081  2.2656
13107SOL     OW40740   2.425   5.609   1.697  0.2500  0.0036  0.6615
13107SOL    HW140741   2.392   5.520   1.695 -3.5558  1.2608 -0.0283
13107SOL    HW240742   2.447   5.628   1.605  0.5768 -0.0508  0.7272
13108SOL     OW40743   8.085   7.279   7.878 -0.4058 -0.2504  0.0185
13108SOL    HW140744   8.061   7.256   7.967 -0.2499 -0.4730  0.0036
13108SOL    HW240745   8.157   7.220   7.856 -0.7739 -0.5429 -0.4290
13109SOL     OW40746   1.304   7.303   5.986  0.4469  0.4260 -0.0317
13109SOL    HW140747   1.400   7.300   5.986  0.4596 -1.7462  1.5188
13109SOL    HW240748   1.280   7.292   5.895  1.6257  2.9518 -0.7381
13110SOL     OW40749   6.149   0.698   2.776 -0.0120  0.3349  0.0688
13110SOL    HW140750   6.092   0.628   2.806 -1.7427  1.9287  0.6539
13110SOL    HW240751   6.103   0.738   2.702  0.9449  0.8585 -0.2761
13111SOL     OW40752   3.574   6.942   4.739  0.0233  0.6948 -0.3329
13111SOL    HW140753   3.586   7.020   4.685  4.0725  1.2027  0.9886
13111SOL    HW240754   3.541   6.975   4.822 -2.4341  0.3504 -1.0775
13112SOL     OW40755   3.121   3.108   1.502  0.3010  0.1247  0.8849
13112SOL    HW140756   3.081   3.193   1.521 -0.6271  0.2251 -1.2597
13112SOL    HW240757   3.087   3.049   1.569 -0.8289  0.9499  1.0600
13113SOL     OW40758   1.566   1.729   5.650 -0.2904  0.1313 -0.5345
13113SOL    HW140759   1.510   1.652   5.651 -0.6944  0.4185  0.8587
13113SOL    HW240760   1.506   1.803   5.655  0.0627  0.5926 -2.3803
13114SOL     OW40761   2.817   7.691   2.061 -0.4255  0.1759  0.1782
13114SOL    HW140762   2.781   7.707   2.148  0.1972  2.7573  0.0301
13114SOL    HW240763   2.894   7.748   2.056 -1.1410  1.0366 -2.4977
13115SOL     OW40764   2.502   6.838   0.458 -0.6632  0.6942 -0.4551
13115SOL    HW140765   2.437   6.870   0.396 -1.0177  0.3538 -0.2630
13115SOL    HW240766   2.521   6.749   0.428 -0.9094  0.4921 -0.0231
13116SOL     OW40767   1.525   6.149   7.843  0.3084  0.5035  0.0322
13116SOL    HW140768   1.595   6.209   7.817 -1.2415  3.0164  1.2845
13116SOL    HW240769   1.529   6.078   7.778  2.4096  1.7851 -1.3649
13117SOL     OW40770   4.520   2.971   7.764  0.1613  0.0795  0.2339
13117SOL    HW140771   4.476   2.998   7.683  0.9540  1.8375  0.3515
13117SOL    HW240772   4.535   2.877   7.753 -1.5052 -0.1041 -0.7996
13118SOL     OW40773   7.877   6.595   3.046 -0.1768  0.2998  0.4932
13118SOL    HW140774   7.941   6.660   3.018 -0.7426  1.3825  1.5693
13118SOL    HW240775   7.857   6.619   3.137 -1.6611 -0.3417  0.3729
13119SOL     OW40776   3.050   5.146   3.689  0.0360  0.0992  0.9106
13119SOL    HW140777   3.026   5.057   3.713  0.3559 -0.0534  0.6691
13119SOL    HW240778   3.098   5.179   3.766  0.2052 -0.0519  0.8714
13120SOL     OW40779   7.123   3.104   4.614 -0.2317  0.1559 -0.2198
13120SOL    HW140780   7.101   3.089   4.706  0.5135 -0.5166 -0.1472
13120SOL    HW240781   7.041   3.137   4.576 -0.8833 -0.6778  0.4158
13121SOL     OW40782   0.471   8.236   5.851  0.1941 -0.0106 -0.5827
13121SOL    HW140783   0.548   8.288   5.827  0.0540  0.1218 -0.7479
13121SOL    HW240784   0.397   8.291   5.828  0.0509 -0.1072 -0.3468
13122SOL     OW40785   4.260   6.294   4.802  0.2952  0.7759  0.8795
13122SOL    HW140786   4.258   6.348   4.723  0.3154 -1.0164 -0.3920
13122SOL    HW240787   4.173   6.255   4.806  1.3795 -2.0088 -0.3912
13123SOL     OW40788   1.910   6.105   1.685 -0.0603  0.4071 -0.1054
13123SOL    HW140789   1.958   6.188   1.682 -0.8487  0.8939  0.4829
13123SOL    HW240790   1.971   6.043   1.725  0.5242  0.7013 -0.5216
13124SOL     OW40791   4.290   1.400   6.523 -0.0217  0.3260 -0.1048
13124SOL    HW140792   4.276   1.315   6.566  0.7620  0.7099  0.9575
13124SOL    HW240793   4.382   1.421   6.541  0.4354  0.3692 -2.2727
13125SOL     OW40794   5.408   0.104   7.555  0.2466 -0.6504  0.7158
13125SOL    HW140795   5.424   0.110   7.461 -1.5886 -0.2208  0.3916
13125SOL    HW240796   5.358   0.023   7.566 -0.5814 -0.0854  1.1557
13126SOL     OW40797   4.164   0.139   5.046  0.1424 -0.2395  0.7318
13126SOL    HW140798   4.102   0.212   5.044  1.4487  0.9286  0.7395
13126SOL    HW240799   4.182   0.125   5.139  0.1964 -0.2909  0.7142
13127SOL     OW40800   2.152   7.490   0.296 -0.6570  0.0741 -0.4603
13127SOL    HW140801   2.215   7.563   0.298  1.0903 -1.3611 -0.2498
13127SOL    HW240802   2.198   7.421   0.249 -1.4206 -1.6363  1.2091
13128SOL     OW40803   5.849   6.667   0.191 -0.8205 -0.2685  0.2626
13128SOL    HW140804   5.819   6.591   0.242 -1.1948 -0.1648  0.1969
13128SOL    HW240805   5.880   6.729   0.257 -0.5676 -0.4523  0.3201
13129SOL     OW40806   7.026   4.590   3.322 -0.0404  0.2129  0.6973
13129SOL    HW140807   7.087   4.626   3.386 -0.3944  0.2467  1.0180
13129SOL    HW240808   7.029   4.495   3.336 -1.2223  0.3102  1.7842
13130SOL     OW40809   1.485   3.329   4.388 -0.0470  0.2878 -0.0931
13130SOL    HW140810   1.416   3.270   4.419 -0.5395  1.1628  0.4857
13130SOL    HW240811   1.530   3.357   4.467  1.1329 -0.4290 -0.4763
13131SOL     OW40812   3.307   3.464   2.217  0.3977  0.3618 -0.1890
13131SOL    HW140813   3.317   3.533   2.283 -1.2766 -0.0595  0.5397
13131SOL    HW240814   3.310   3.382   2.267  2.8523 -0.2154 -1.0916
13132SOL     OW40815   1.878   0.394   1.648  0.0206 -0.3429 -0.1324
13132SOL    HW140816   1.817   0.460   1.617 -0.3359 -0.3822  0.4556
13132SOL    HW240817   1.957   0.443   1.672  0.0932 -0.2475 -0.5738
13133SOL     OW40818   7.707   7.457   3.816 -0.7220 -0.0502  0.7220
13133SOL    HW140819   7.719   7.517   3.890 -2.3071  0.8728  0.2715
13133SOL    HW240820   7.785   7.471   3.761 -1.0416  1.6052  0.6374
13134SOL     OW40821   0.300   8.273   3.138 -0.0267 -0.3938 -0.3367
13134SOL    HW140822   0.331   8.359   3.168 -0.3369 -0.0595 -0.9600
13134SOL    HW240823   0.216   8.291   3.097 -2.1079 -1.5408  3.0110
13135SOL     OW40824   4.912   6.749   2.194  0.0999 -0.1264  0.3947
13135SOL    HW140825   4.999   6.776   2.167 -0.9706  1.5468 -1.6138
13135SOL    HW240826   4.885   6.686   2.128 -0.0079 -1.1428  1.3728
13136SOL     OW40827   5.718   5.026   7.667 -0.4228  0.0984  0.0677
13136SOL    HW140828   5.662   5.032   7.744 -1.1553  1.1082 -0.5295
13136SOL    HW240829   5.666   4.977   7.603 -0.9424  1.6639 -0.7426
13137SOL     OW40830   7.112   7.057   1.272 -0.6342  0.2868 -0.8874
13137SOL    HW140831   7.019   7.041   1.254 -0.0802 -0.8011 -3.2087
13137SOL    HW240832   7.135   6.991   1.337 -1.4430  0.4745 -0.3966
13138SOL     OW40833   6.265   0.571   8.350 -0.5553  0.1881  0.2877
13138SOL    HW140834   6.318   0.564   8.271 -2.3354 -1.8356 -0.8227
13138SOL    HW240835   6.328   0.561   8.422  0.9159  0.7336 -0.8577
13139SOL     OW40836   5.929   5.921   7.616  0.6460 -0.0078  0.3384
13139SOL    HW140837   5.857   5.887   7.563  0.0322 -2.1870  2.3794
13139SOL    HW240838   5.893   6.000   7.656 -0.1749 -0.3635  0.3305
13140SOL     OW40839   5.819   0.757   2.852  0.1848  0.3700 -0.3909
13140SOL    HW140840   5.814   0.828   2.788  0.2670  0.5617 -0.1863
13140SOL    HW240841   5.755   0.692   2.822  0.6755  0.1703 -1.0223
13141SOL     OW40842   7.456   0.079   4.367  0.1381 -0.1301  0.4012
13141SOL    HW140843   7.445   0.010   4.432  0.5950 -1.0758 -0.4968
13141SOL    HW240844   7.385   0.064   4.304 -1.0555  1.5112  1.2721
13142SOL     OW40845   3.818   4.742   0.322  0.0963 -0.1381  1.0409
13142SOL    HW140846   3.763   4.706   0.391 -1.4456  0.0659 -0.0120
13142SOL    HW240847   3.894   4.778   0.367 -0.6099 -0.4920  2.5560
13143SOL     OW40848   1.631   2.296   2.112  0.4806 -0.4235 -0.2875
13143SOL    HW140849   1.546   2.285   2.069 -0.6517  1.5819  1.2783
13143SOL    HW240850   1.678   2.358   2.056  0.1195  0.0382 -0.0747
13144SOL     OW40851   2.719   5.628   2.447 -0.0019  0.4922  0.3136
13144SOL    HW140852   2.763   5.696   2.396 -2.4857  1.1718 -1.0932
13144SOL    HW240853   2.646   5.600   2.391  0.0853 -2.3152  1.4668
13145SOL     OW40854   0.759   2.221   2.997  0.8824 -0.0074  0.0010
13145SOL    HW140855   0.842   2.252   2.961  0.8730  0.4052  0.3444
13145SOL    HW240856   0.733   2.287   3.061  0.3335 -0.1787 -0.0375
13146SOL     OW40857   5.991   1.620   0.937 -0.2639  0.3180  0.3899
13146SOL    HW140858   6.012   1.531   0.910 -2.4513 -0.5514  1.2779
13146SOL    HW240859   6.076   1.661   0.954  0.7795 -1.8293  0.7047
13147SOL     OW40860   1.985   3.481   4.250 -0.0672 -0.1822  0.2121
13147SOL    HW140861   2.049   3.410   4.248 -1.1430 -1.2054 -1.2718
13147SOL    HW240862   2.022   3.546   4.309  1.8935 -1.1156  0.1027
13148SOL     OW40863   3.868   0.382   1.506 -0.6557  0.2895 -0.1787
13148SOL    HW140864   3.854   0.393   1.600 -1.7185  0.2113 -0.3113
13148SOL    HW240865   3.805   0.441   1.466 -0.8025 -0.3036 -0.8426
13149SOL     OW40866   3.936   2.015   0.090  0.0695  0.0912  0.0697
13149SOL    HW140867   3.940   1.930   0.132  1.7642  0.9563  1.8362
13149SOL    HW240868   3.844   2.028   0.069 -0.1016 -2.5123 -1.1058
13150SOL     OW40869   6.174   3.159   5.328  0.0090  0.2582  0.0250
13150SOL    HW140870   6.177   3.245   5.369  0.8754  0.0960  0.3249
13150SOL    HW240871   6.252   3.114   5.361  0.1807 -0.2334 -1.0101
13151SOL     OW40872   6.900   2.417   3.366 -0.1412  0.5009  0.0298
13151SOL    HW140873   6.825   2.456   3.322 -1.8028 -3.4885 -1.0769
13151SOL    HW240874   6.961   2.395   3.296 -0.4623 -1.1888  0.2345
13152SOL     OW40875   2.875   3.065   7.874 -0.5642  0.1783  0.1989
13152SOL    HW140876   2.863   3.120   7.952 -0.6753  0.3818  0.0392
13152SOL    HW240877   2.965   3.035   7.880 -0.4727  0.4530  0.2423
13153SOL     OW40878   2.358   1.383   3.749 -0.2422  0.1696 -0.1196
13153SOL    HW140879   2.359   1.290   3.771 -1.5082  0.2526  0.3287
13153SOL    HW240880   2.418   1.424   3.812  0.7900 -0.3989 -0.6994
13154SOL     OW40881   1.404   2.648   5.791  0.4124  0.0119  0.1096
13154SOL    HW140882   1.486   2.691   5.816 -1.4966  1.8240  4.0904
13154SOL    HW240883   1.411   2.560   5.827 -0.8478  1.4794  4.4932
13155SOL     OW40884   5.800   2.184   8.204  0.3913 -0.0094 -0.0579
13155SOL    HW140885   5.755   2.269   8.204  0.3277 -0.0206 -1.4499
13155SOL    HW240886   5.892   2.205   8.191  0.2239 -0.1802 -1.7730
13156SOL     OW40887   3.877   6.378   4.710  0.2428 -0.0995  0.7572
13156SOL    HW140888   3.903   6.420   4.628 -0.4803  0.3429  0.7509
13156SOL    HW240889   3.913   6.289   4.704 -0.3901 -0.2929 -0.3444
13157SOL     OW40890   7.897   6.341   2.754 -0.6774  0.7872  0.0884
13157SOL    HW140891   7.887   6.255   2.711  3.5799  0.6784 -1.2288
13157SOL    HW240892   7.879   6.324   2.846 -0.9599 -1.2938 -0.2922
13158SOL     OW40893   6.856   6.534   6.264  0.3411  0.1996 -0.0748
13158SOL    HW140894   6.906   6.479   6.204  1.3949  0.8049  0.2367
13158SOL    HW240895   6.855   6.485   6.346 -0.5820 -0.3438 -0.3912
13159SOL     OW40896   5.537   2.382   1.574 -0.2512  0.1503  0.0831
13159SOL    HW140897   5.444   2.391   1.596 -0.5149 -0.5312 -0.7015
13159SOL    HW240898   5.550   2.443   1.501  0.2889  1.3562  1.1438
13160SOL     OW40899   2.298   7.885   5.123  0.8419 -0.3162 -0.6305
13160SOL    HW140900   2.229   7.938   5.082 -0.4143 -1.2561  0.1859
13160SOL    HW240901   2.340   7.839   5.050 -0.4565 -0.9264 -1.0168
13161SOL     OW40902   7.596   4.881   2.196  0.3517 -0.4385 -0.0449
13161SOL    HW140903   7.568   4.907   2.284 -0.7064 -0.4519 -0.3548
13161SOL    HW240904   7.591   4.962   2.145 -1.0764 -0.8135 -0.5592
13162SOL     OW40905   5.756   7.546   4.639 -0.3030  0.4812  0.3972
13162SOL    HW140906   5.669   7.537   4.598 -0.6689  2.0260  0.7579
13162SOL    HW240907   5.761   7.473   4.700 -0.2750 -1.1198 -1.4471
13163SOL     OW40908   5.977   5.664   1.905  0.0270  0.2241  0.1174
13163SOL    HW140909   6.059   5.711   1.893 -0.1533  0.6970  0.6753
13163SOL    HW240910   5.991   5.578   1.864  0.5687  0.5411 -0.3637
13164SOL     OW40911   1.355   2.750   6.363  0.7726  0.1403 -0.1328
13164SOL    HW140912   1.295   2.745   6.289 -1.4873  0.0474  1.5810
13164SOL    HW240913   1.339   2.669   6.412  1.6095  0.5546  0.8599
13165SOL     OW40914   1.840   3.035   0.682  0.2320  0.1234 -0.3194
13165SOL    HW140915   1.917   3.086   0.654  0.6366 -0.5003 -0.3770
13165SOL    HW240916   1.856   2.948   0.646  1.6522 -1.2698  3.2149
13166SOL     OW40917   3.959   5.474   2.941  0.2764  0.1228 -0.0090
13166SOL    HW140918   3.887   5.516   2.988 -0.2246  1.0786 -1.5704
13166SOL    HW240919   4.038   5.514   2.977 -0.1563  1.8774 -0.9134
13167SOL     OW40920   7.426   0.161   2.456 -0.2070 -0.2209 -0.6385
13167SOL    HW140921   7.389   0.073   2.444  0.6626 -0.7780  0.6015
13167SOL    HW240922   7.356   0.211   2.499  0.6903 -1.5716  2.7250
13168SOL     OW40923   7.481   7.941   3.989  0.6324 -0.1092 -0.5152
13168SOL    HW140924   7.466   8.035   3.999  1.0723 -0.1597  0.7791
13168SOL    HW240925   7.404   7.909   3.943  0.0131  0.7284 -0.0788
13169SOL     OW40926   6.389   4.925   0.236 -0.2186 -0.4726  0.5101
13169SOL    HW140927   6.481   4.934   0.262 -0.2240 -0.3448  0.4843
13169SOL    HW240928   6.381   4.979   0.158 -0.4707  0.0398  0.8864
13170SOL     OW40929   2.700   4.010   4.988  0.5207 -0.5381 -0.1801
13170SOL    HW140930   2.690   3.915   4.980  0.0764 -0.3510 -2.8774
13170SOL    HW240931   2.779   4.022   5.040 -0.5146 -2.3155  1.9803
13171SOL     OW40932   4.878   5.921   1.179  0.0963  0.1099  0.0460
13171SOL    HW140933   4.927   5.968   1.111 -0.1123  1.0874  0.5502
13171SOL    HW240934   4.935   5.850   1.206  0.0985 -0.4311 -1.3037
13172SOL     OW40935   5.870   2.131   5.882  0.0249  0.0762  0.3020
13172SOL    HW140936   5.871   2.053   5.827 -2.3170  0.7469 -0.8163
13172SOL    HW240937   5.825   2.103   5.962  1.9946 -0.4726  1.2857
13173SOL     OW40938   8.024   2.714   3.901  0.1487 -0.1530  0.1178
13173SOL    HW140939   7.962   2.651   3.938  0.6314 -2.0228 -1.9918
13173SOL    HW240940   7.973   2.765   3.839  0.0188  0.7258  0.9334
13174SOL     OW40941   3.381   2.464   0.403  0.6099 -0.1794  0.2993
13174SOL    HW140942   3.440   2.399   0.440  1.0035  0.0953  0.1660
13174SOL    HW240943   3.391   2.455   0.308  1.7154  0.9937  0.2788
13175SOL     OW40944   6.487   7.630   7.775  0.3335  0.0429 -0.7221
13175SOL    HW140945   6.547   7.614   7.703 -0.4714 -0.3083 -1.3383
13175SOL    HW240946   6.400   7.625   7.735 -0.2110 -1.8718  0.5794
13176SOL     OW40947   5.123   6.409   6.583 -0.0026 -0.7606  0.2128
13176SOL    HW140948   5.083   6.381   6.501 -1.1687  1.4051 -0.0375
13176SOL    HW240949   5.079   6.357   6.650  0.3402 -1.9193 -0.4208
13177SOL     OW40950   6.787   3.838   7.378  0.0226 -0.1950  0.3058
13177SOL    HW140951   6.836   3.912   7.414  0.2374  0.4717 -1.2860
13177SOL    HW240952   6.824   3.824   7.291 -0.9807 -1.2647  0.0175
13178SOL     OW40953   2.838   0.161   5.627  0.0140  0.3843  0.0429
13178SOL    HW140954   2.794   0.238   5.662 -0.2229  0.0986  0.3893
13178SOL    HW240955   2.783   0.133   5.554 -1.4783 -1.0650  1.6076
13179SOL     OW40956   3.666   2.770   0.703  0.5496  0.0915  0.0706
13179SOL    HW140957   3.598   2.837   0.693  1.0563  0.8223  1.3250
13179SOL    HW240958   3.617   2.688   0.712 -0.1382  0.4989  0.1192
13180SOL     OW40959   0.281   3.571   4.659 -0.1663 -0.0964 -0.4263
13180SOL    HW140960   0.230   3.516   4.600 -0.0562  0.7364 -1.3158
13180SOL    HW240961   0.259   3.538   4.747  0.3273 -1.9038 -0.9419
13181SOL     OW40962   6.590   1.399   7.580  0.3683  0.1726 -0.5753
13181SOL    HW140963   6.506   1.396   7.533  1.3276  0.4385 -2.3814
13181SOL    HW240964   6.601   1.491   7.603 -0.0380  0.0631  0.0963
13182SOL     OW40965   7.885   3.645   2.666  0.0947 -0.1477  0.0327
13182SOL    HW140966   7.953   3.665   2.602  1.5512 -0.0083  1.5400
13182SOL    HW240967   7.834   3.726   2.672 -0.1882 -0.2295 -1.0690
13183SOL     OW40968   6.304   4.489   2.093 -0.1390  0.1836 -0.1456
13183SOL    HW140969   6.284   4.513   2.183  1.0865  0.6996  0.0126
13183SOL    HW240970   6.330   4.571   2.051  0.1181 -0.1854 -0.7278
13184SOL     OW40971   0.912   1.942   7.261  0.0992  0.2203  0.0441
13184SOL    HW140972   0.962   2.000   7.318  0.1743 -0.0240  0.2306
13184SOL    HW240973   0.960   1.941   7.179  0.3124  0.1151  0.1688
13185SOL     OW40974   6.581   0.130   1.910 -0.8806  0.5825 -0.0986
13185SOL    HW140975   6.503   0.150   1.962 -0.7060 -0.3007  0.5191
13185SOL    HW240976   6.638   0.206   1.922 -1.8493  1.4855 -0.9940
13186SOL     OW40977   7.184   0.313   3.458 -0.1085  0.1710  0.1774
13186SOL    HW140978   7.101   0.267   3.472 -0.8026  0.2342 -2.9409
13186SOL    HW240979   7.164   0.404   3.481 -0.3647 -0.1185  1.1260
13187SOL     OW40980   2.832   4.450   0.068  0.2691  0.4308  0.0132
13187SOL    HW140981   2.888   4.383   0.028  1.3376  0.7198  0.9734
13187SOL    HW240982   2.874   4.533   0.046 -0.5629  0.7531 -0.4194
13188SOL     OW40983   5.132   3.047   7.024 -0.0317 -0.3488 -0.2004
13188SOL    HW140984   5.185   3.014   7.097 -0.3854  0.8128  0.6001
13188SOL    HW240985   5.169   3.004   6.947  1.9680  0.2713  0.3443
13189SOL     OW40986   0.615   2.991   7.151  0.6620 -0.2605 -0.2661
13189SOL    HW140987   0.584   2.943   7.074  0.8295 -0.9994  0.1256
13189SOL    HW240988   0.711   2.984   7.146  0.7887  1.4551 -1.1129
13190SOL     OW40989   2.091   5.907   1.816 -0.2458 -0.0969 -0.3320
13190SOL    HW140990   2.155   5.970   1.783  0.8908 -0.3394  1.3229
13190SOL    HW240991   2.134   5.822   1.807 -1.2044 -0.5158 -1.1942
13191SOL     OW40992   7.304   7.749   4.711 -0.4384 -0.6273  0.1221
13191SOL    HW140993   7.252   7.707   4.779  0.6235  0.3930  1.6320
13191SOL    HW240994   7.368   7.801   4.758  0.0522  0.5070 -1.6793
13192SOL     OW40995   8.104   4.663   6.199 -0.3997 -0.1750 -0.0649
13192SOL    HW140996   8.064   4.594   6.252 -0.7309 -1.2846 -1.6790
13192SOL    HW240997   8.178   4.620   6.155 -1.3685  0.0917 -2.0795
13193SOL     OW40998   0.807   2.476   2.010 -0.1711  0.8204  0.1944
13193SOL    HW140999   0.800   2.440   2.099 -1.1657  0.8503  0.1394
13193SOL    HW241000   0.724   2.521   1.996 -0.8397 -0.8155 -1.4800
13194SOL     OW41001   2.091   6.301   1.746  0.2025 -0.2558  0.0258
13194SOL    HW141002   2.186   6.305   1.758  0.1696 -2.5833  1.7684
13194SOL    HW241003   2.055   6.363   1.809  0.5412 -0.0449  0.0126
13195SOL     OW41004   4.822   2.922   0.313  0.4228 -0.0908  0.1901
13195SOL    HW141005   4.736   2.893   0.284 -0.1030 -0.3730  1.9278
13195SOL    HW241006   4.871   2.841   0.328  0.7300  0.0470 -0.0674
13196SOL     OW41007   6.256   4.752   3.479 -0.3576  0.2789  0.3201
13196SOL    HW141008   6.276   4.683   3.542  1.2812  0.3441 -0.0884
13196SOL    HW241009   6.186   4.802   3.520 -0.7017 -0.8674  1.1840
13197SOL     OW41010   4.213   1.339   0.270  0.0883  0.4844 -0.3470
13197SOL    HW141011   4.306   1.331   0.247 -0.0744 -1.2981 -0.5232
13197SOL    HW241012   4.195   1.262   0.324 -0.4899  2.5166  2.6568
13198SOL     OW41013   3.498   5.957   1.632 -0.1700  0.0970  0.2428
13198SOL    HW141014   3.582   5.961   1.679 -0.4805 -2.3051  1.1310
13198SOL    HW241015   3.522   5.956   1.540  0.7517 -0.0753  0.4751
13199SOL     OW41016   4.523   1.475   1.561  0.1934 -0.1606  0.2253
13199SOL    HW141017   4.555   1.407   1.620  2.4395  1.1513  0.6245
13199SOL    HW241018   4.516   1.431   1.476 -1.2726 -1.5817  1.0204
13200SOL     OW41019   3.137   7.669   2.423  0.2262 -0.4743 -0.6357
13200SOL    HW141020   3.203   7.634   2.363  3.3242  2.0831  0.9568
13200SOL    HW241021   3.153   7.623   2.505  0.0003  0.1260 -0.2464
13201SOL     OW41022   7.571   5.637   3.035 -0.4794 -0.0798  0.1441
13201SOL    HW141023   7.660   5.602   3.036 -0.9009 -1.3010  2.1572
13201SOL    HW241024   7.567   5.695   3.111 -1.3184  0.1678 -0.0780
13202SOL     OW41025   0.525   0.442   4.951  0.2191 -0.8335 -0.2451
13202SOL    HW141026   0.557   0.420   5.038  0.0464  1.9015  0.6082
13202SOL    HW241027   0.430   0.431   4.957  0.0040  1.0954  0.5540
13203SOL     OW41028   7.832   4.729   7.537  0.1667  0.0270  0.1305
13203SOL    HW141029   7.904   4.667   7.530  1.4034  1.4792 -0.7143
13203SOL    HW241030   7.766   4.698   7.476  1.6368  0.6093 -1.8508
13204SOL     OW41031   5.441   8.067   0.348 -0.3793 -0.4395  0.2537
13204SOL    HW141032   5.472   8.087   0.259 -0.2250 -0.8940  0.2041
13204SOL    HW241033   5.422   7.974   0.347 -0.3096 -0.4626  0.7197
13205SOL     OW41034   6.242   7.156   7.424 -0.6888  0.5487  0.0137
13205SOL    HW141035   6.179   7.162   7.352 -1.6490 -1.0632  0.6491
13205SOL    HW241036   6.303   7.088   7.396 -0.3380  0.7881  0.1977
13206SOL     OW41037   1.033   6.727   5.777 -0.4628 -0.0524  0.2196
13206SOL    HW141038   0.964   6.661   5.776 -1.3867  0.8917  0.4226
13206SOL    HW241039   1.005   6.790   5.843 -0.0294  0.9962 -0.5728
13207SOL     OW41040   4.954   4.293   5.854 -0.1228  0.3565 -0.0755
13207SOL    HW141041   4.993   4.313   5.769  0.1133 -0.5709 -0.1961
13207SOL    HW241042   5.010   4.224   5.890 -0.7765  0.0713  0.4055
13208SOL     OW41043   3.769   3.575   8.103  0.1462  0.2284  0.0489
13208SOL    HW141044   3.748   3.592   8.012  1.1389 -1.3793 -0.5233
13208SOL    HW241045   3.685   3.584   8.150 -0.9869 -1.7571 -1.4649
13209SOL     OW41046   8.058   2.328   0.241 -0.3321 -0.1054 -0.4987
13209SOL    HW141047   8.021   2.350   0.327  0.9812  1.3811 -0.2722
13209SOL    HW241048   8.087   2.237   0.250 -1.6960 -0.5064  0.0805
13210SOL     OW41049   7.410   6.883   8.227 -0.2996 -0.1842  0.2075
13210SOL    HW141050   7.336   6.891   8.287  0.1273 -1.9788  1.0630
13210SOL    HW241051   7.382   6.820   8.161  0.3160 -0.5964  0.3286
13211SOL     OW41052   1.412   0.744   3.904  0.8103 -0.3389  0.5046
13211SOL    HW141053   1.419   0.825   3.953  0.8370  0.4456 -0.7579
13211SOL    HW241054   1.338   0.757   3.845  1.8400 -0.5637 -0.8967
13212SOL     OW41055   1.095   7.654   4.569 -0.2954 -0.4519 -0.1594
13212SOL    HW141056   1.056   7.633   4.654 -0.5230  2.5039  0.5702
13212SOL    HW241057   1.021   7.655   4.508 -0.4444 -0.6353  0.0172
13213SOL     OW41058   1.813   8.104   7.892  0.5257 -0.0923 -0.2125
13213SOL    HW141059   1.899   8.086   7.932  0.1253  0.0221  0.7248
13213SOL    HW241060   1.757   8.034   7.925  0.3476 -0.4060 -1.1576
13214SOL     OW41061   1.759   7.704   0.238 -0.1549  0.0906 -0.4387
13214SOL    HW141062   1.732   7.757   0.163 -1.4303 -0.9715 -0.7693
13214SOL    HW241063   1.722   7.617   0.221 -1.7665  0.1850  2.1154
13215SOL     OW41064   1.895   5.332   3.371  0.1152 -0.4219 -0.2014
13215SOL    HW141065   1.874   5.271   3.442  1.1248 -0.1605  0.3383
13215SOL    HW241066   1.828   5.400   3.377 -0.8042 -1.2682 -0.5765
13216SOL     OW41067   4.523   4.988   4.000 -0.3022  0.1920  0.1597
13216SOL    HW141068   4.443   4.939   4.023  0.3691 -0.4836  1.1431
13216SOL    HW241069   4.505   5.077   4.029 -1.4373  0.5129 -1.4009
13217SOL     OW41070   2.674   1.302   7.856  0.1229 -0.4461 -0.2870
13217SOL    HW141071   2.581   1.289   7.842 -0.0479  1.5572 -1.4382
13217SOL    HW241072   2.715   1.222   7.823 -1.0010  0.0191 -3.1494
13218SOL     OW41073   6.769   8.172   0.884  0.0869 -0.1686  0.9548
13218SOL    HW141074   6.863   8.169   0.899  0.3103  1.4546  0.0959
13218SOL    HW241075   6.730   8.148   0.969  1.2498 -0.8489  1.3118
13219SOL     OW41076   3.191   7.089   5.146  0.8153 -0.1081  0.0565
13219SOL    HW141077   3.254   7.065   5.214  0.8684  0.4390  0.2023
13219SOL    HW241078   3.120   7.025   5.156  1.8328 -1.4214 -0.8141
13220SOL     OW41079   6.406   2.471   2.538  0.1871 -0.3034 -0.2585
13220SOL    HW141080   6.423   2.554   2.494  2.3880 -0.7278 -0.3341
13220SOL    HW241081   6.469   2.410   2.499 -0.8823 -1.8316  0.3080
13221SOL     OW41082   3.313   4.975   8.332  0.3377  0.6294 -0.2440
13221SOL    HW141083   3.348   4.967   8.420  0.0007  0.8078 -0.0926
13221SOL    HW241084   3.221   4.949   8.339  0.4198  0.2122 -0.6282
13222SOL     OW41085   0.339   7.518   6.110  0.1857  0.7023 -0.7531
13222SOL    HW141086   0.432   7.498   6.097  0.1773  0.8507 -1.0472
13222SOL    HW241087   0.321   7.589   6.048  0.2552  1.7555  0.3872
13223SOL     OW41088   5.475   0.191   1.390  0.3247 -0.5125 -0.2231
13223SOL    HW141089   5.466   0.219   1.298  2.1876  0.8847 -0.0647
13223SOL    HW241090   5.429   0.108   1.395  1.8369 -1.6563 -2.9568
13224SOL     OW41091   1.259   3.409   4.729 -0.3155  0.5621 -0.1397
13224SOL    HW141092   1.269   3.339   4.794 -0.2237  1.6185  1.0253
13224SOL    HW241093   1.347   3.420   4.692 -0.6552 -1.0413 -1.5681
13225SOL     OW41094   3.529   7.692   2.660  0.0272 -0.3632  0.4497
13225SOL    HW141095   3.496   7.749   2.591  0.4932  3.0068  2.7669
13225SOL    HW241096   3.623   7.686   2.644  0.1125  0.3034  0.6631
13226SOL     OW41097   5.998   4.018   1.971  0.1277  0.4941  0.3479
13226SOL    HW141098   6.075   4.074   1.980 -0.1872  0.8467  0.9520
13226SOL    HW241099   5.999   3.991   1.880 -0.0181  1.9536 -0.1151
13227SOL     OW41100   2.334   1.361   0.687 -0.4497 -0.2812  0.1974
13227SOL    HW141101   2.323   1.333   0.596  1.3106  0.5655 -0.3129
13227SOL    HW241102   2.318   1.455   0.684  1.1891  0.0316  0.4333
13228SOL     OW41103   2.457   3.802   7.955 -0.1486 -0.0870 -0.6575
13228SOL    HW141104   2.510   3.824   8.032 -1.0866 -0.7944  0.2156
13228SOL    HW241105   2.513   3.825   7.881  1.1310 -0.2119  0.2295
13229SOL     OW41106   0.847   4.610   8.356  0.2224  0.2443  0.3080
13229SOL    HW141107   0.776   4.661   8.318  0.5672  0.8203  0.4223
13229SOL    HW241108   0.862   4.539   8.294  0.9996  1.3470 -0.8382
13230SOL     OW41109   0.234   0.288   6.975 -0.1035 -0.6270 -0.1325
13230SOL    HW141110   0.154   0.335   6.995  0.4495  0.1462  0.2962
13230SOL    HW241111   0.300   0.326   7.033  0.6034 -1.1631 -0.5626
13231SOL     OW41112   2.974   0.817   6.498 -0.0570 -0.7910  0.0498
13231SOL    HW141113   2.898   0.839   6.444  0.8727  0.2990 -0.8434
13231SOL    HW241114   3.012   0.902   6.522  1.8718 -1.3373 -0.9457
13232SOL     OW41115   4.845   4.748   6.973  0.0248 -0.2502 -0.0290
13232SOL    HW141116   4.913   4.682   6.961  0.4032  0.2249 -0.5989
13232SOL    HW241117   4.814   4.735   7.062  3.2012  1.6285  1.5478
13233SOL     OW41118   4.102   4.524   0.786 -0.1512  0.5204 -0.4432
13233SOL    HW141119   4.115   4.469   0.709 -0.3697  1.2907 -1.0449
13233SOL    HW241120   4.173   4.588   0.782  0.4544 -0.0530  0.5748
13234SOL     OW41121   5.913   1.472   6.473  0.0862 -0.1364  0.5145
13234SOL    HW141122   5.914   1.391   6.423 -0.3933 -0.4604  1.0255
13234SOL    HW241123   5.932   1.540   6.408  2.6707 -0.8140  0.4383
13235SOL     OW41124   5.558   1.644   2.631  0.3210 -0.0377  0.5632
13235SOL    HW141125   5.555   1.562   2.582 -0.7524  0.6952 -0.6617
13235SOL    HW241126   5.575   1.617   2.721 -0.9276 -1.6843  0.3692
13236SOL     OW41127   7.462   4.556   4.486 -0.1713 -0.0507 -0.8525
13236SOL    HW141128   7.382   4.523   4.445  0.6077  0.6459 -3.1209
13236SOL    HW241129   7.440   4.646   4.511  0.1499  0.5123 -2.4539
13237SOL     OW41130   2.514   3.858   2.247 -0.4162 -0.1692  0.0511
13237SOL    HW141131   2.564   3.936   2.219  0.9255 -0.2848  1.9366
13237SOL    HW241132   2.522   3.797   2.173  1.0427  0.3742 -0.2788
13238SOL     OW41133   2.008   5.236   7.193 -0.5575  0.3364  0.3811
13238SOL    HW141134   2.006   5.290   7.272  1.0924 -0.6905  1.1744
13238SOL    HW241135   2.096   5.246   7.159  0.0566 -2.3162  0.9484
13239SOL     OW41136   4.457   3.214   3.543 -0.6374 -0.5107  0.4755
13239SOL    HW141137   4.442   3.280   3.611 -0.6751  1.3156 -1.2266
13239SOL    HW241138   4.539   3.240   3.501 -0.7206 -1.4695 -0.3311
13240SOL     OW41139   5.640   8.198   3.934  0.1397 -0.3244 -0.1991
13240SOL    HW141140   5.649   8.293   3.926  1.2959 -0.2845  1.3018
13240SOL    HW241141   5.688   8.163   3.859 -0.0214  0.2581 -0.5809
13241SOL     OW41142   0.510   7.318   6.243 -0.2179  0.2600 -0.6247
13241SOL    HW141143   0.498   7.225   6.222 -1.4612  0.4149 -0.6749
13241SOL    HW241144   0.430   7.360   6.211  1.2352  1.7044 -2.6121
13242SOL     OW41145   6.756   1.506   4.543  0.1090 -0.3229 -0.0481
13242SOL    HW141146   6.702   1.474   4.471 -0.4678  1.3832 -0.4092
13242SOL    HW241147   6.754   1.435   4.607  0.4510 -1.7733 -1.5906
13243SOL     OW41148   3.911   7.124   5.674 -0.3708 -0.2106  0.3916
13243SOL    HW141149   3.866   7.153   5.595  1.2502 -0.4150 -0.6471
13243SOL    HW241150   3.985   7.073   5.642 -0.1397 -0.9942  2.0717
13244SOL     OW41151   6.072   0.333   2.670  0.1690  0.0522  0.1897
13244SOL    HW141152   5.989   0.291   2.692  0.1032 -0.2184 -0.5461
13244SOL    HW241153   6.047   0.416   2.629  0.1997 -0.7591 -1.5421
13245SOL     OW41154   6.406   4.741   2.844 -0.2084  0.7791 -0.1986
13245SOL    HW141155   6.436   4.738   2.935  1.7125  0.3051 -0.8073
13245SOL    HW241156   6.310   4.735   2.850 -0.0833  0.0818  1.7478
13246SOL     OW41157   3.982   2.701   4.135  0.2192  0.1662  0.2634
13246SOL    HW141158   3.969   2.725   4.227 -0.4724 -1.0438  0.5095
13246SOL    HW241159   4.071   2.665   4.133 -0.8910 -2.9920  1.2599
13247SOL     OW41160   1.182   1.855   5.813  0.0359  0.3658 -0.1748
13247SOL    HW141161   1.135   1.840   5.895  0.3602 -0.8302 -0.1797
13247SOL    HW241162   1.115   1.851   5.745  0.0124 -0.4561 -0.1094
13248SOL     OW41163   2.403   1.037   3.107  0.1986 -0.1499 -0.3350
13248SOL    HW141164   2.395   1.080   3.022 -1.2367 -1.5479 -0.9543
13248SOL    HW241165   2.405   0.943   3.086  2.4978 -0.4626  1.0156
13249SOL     OW41166   6.621   5.442   0.055 -0.4297 -0.2651 -0.2929
13249SOL    HW141167   6.600   5.525   0.099 -0.8660  0.7012 -2.1936
13249SOL    HW241168   6.704   5.414   0.094 -0.9644  0.3398  1.3511
13250SOL     OW41169   7.650   5.409   8.008  0.0962  0.3800 -0.0717
13250SOL    HW141170   7.707   5.335   8.031  0.4841 -0.0574 -2.2874
13250SOL    HW241171   7.710   5.482   7.998  0.0021  0.4335 -0.2451
13251SOL     OW41172   0.778   6.653   2.202 -0.3974  0.0279 -0.3799
13251SOL    HW141173   0.840   6.647   2.274 -0.6984  0.3079 -0.0901
13251SOL    HW241174   0.831   6.671   2.125  0.1020 -1.9421 -0.5417
13252SOL     OW41175   5.301   2.569   5.923 -0.3696  0.4434 -0.0960
13252SOL    HW141176   5.385   2.614   5.918  0.4730 -1.1868 -1.8957
13252SOL    HW241177   5.244   2.631   5.969  0.9373  2.9270 -1.5733
13253SOL     OW41178   3.754   7.906   5.205 -0.9522 -0.4641 -0.6100
13253SOL    HW141179   3.779   7.850   5.132  0.1089  0.0557 -0.6726
13253SOL    HW241180   3.836   7.948   5.232 -1.4935  0.0736  0.2619
13254SOL     OW41181   5.040   8.148   1.494  0.4562  0.2395  0.3744
13254SOL    HW141182   5.040   8.226   1.550  0.5592  0.5747 -0.0857
13254SOL    HW241183   4.961   8.157   1.441  0.2925 -0.1425  0.5518
13255SOL     OW41184   5.024   7.443   0.070  0.6284  0.4680  0.0873
13255SOL    HW141185   4.977   7.466   0.151  1.8655  0.4065  0.8519
13255SOL    HW241186   4.968   7.377   0.028 -1.5246  2.6102 -0.6613
13256SOL     OW41187   6.104   4.175   2.830 -0.0367  0.4041 -0.3257
13256SOL    HW141188   6.114   4.137   2.917  1.6867 -0.8751 -1.0352
13256SOL    HW241189   6.176   4.138   2.779 -0.9478  1.1923 -2.2761
13257SOL     OW41190   4.037   2.055   2.340  0.1601 -0.0574 -0.2354
13257SOL    HW141191   4.111   2.105   2.305 -0.4634  0.3148 -1.0715
13257SOL    HW241192   4.016   2.098   2.423  0.3460  0.3694 -0.4042
13258SOL     OW41193   0.259   2.083   4.941  0.6182 -0.5370 -0.1089
13258SOL    HW141194   0.238   1.990   4.948  1.3739 -0.8088 -1.2218
13258SOL    HW241195   0.182   2.127   4.977 -0.1205 -1.5678 -0.3527
13259SOL     OW41196   4.840   3.753   8.022  0.4084 -0.0927  0.6535
13259SOL    HW141197   4.908   3.694   7.990  3.0405  2.9928  0.1879
13259SOL    HW241198   4.860   3.838   7.984 -2.9336  1.3308  1.6511
13260SOL     OW41199   4.065   3.611   2.002 -0.6066 -0.2850 -0.0836
13260SOL    HW141200   4.024   3.659   1.930 -0.2975 -1.6316 -1.1974
13260SOL    HW241201   4.011   3.533   2.013 -1.5257  0.5867  2.1848
13261SOL     OW41202   2.216   3.463   6.108 -0.2914  0.2171  0.3869
13261SOL    HW141203   2.293   3.446   6.054 -0.5979  1.1886 -0.3695
13261SOL    HW241204   2.249   3.456   6.198  0.5275 -0.0345  0.0817
13262SOL     OW41205   0.222   3.855   7.675  0.7628  0.2219  0.8011
13262SOL    HW141206   0.235   3.813   7.760 -0.8608 -0.8344  0.5562
13262SOL    HW241207   0.179   3.788   7.622  2.7811  0.4426 -1.2460
13263SOL     OW41208   4.871   8.036   7.595 -0.1086 -0.4100  0.1405
13263SOL    HW141209   4.939   8.032   7.528 -1.0658  0.3062 -0.9200
13263SOL    HW241210   4.918   8.041   7.678  1.1984  2.1140 -0.6571
13264SOL     OW41211   4.964   8.049   5.540 -0.4765 -0.5412  0.0322
13264SOL    HW141212   4.886   8.104   5.532  0.2783  0.6077  0.4820
13264SOL    HW241213   5.018   8.091   5.606  0.0524 -1.9261  0.5233
13265SOL     OW41214   7.799   3.253   6.088  0.4224 -0.2509  0.1424
13265SOL    HW141215   7.742   3.323   6.054  0.2106 -0.5764 -0.1905
13265SOL    HW241216   7.880   3.261   6.037  0.9148  0.6003  1.0430
13266SOL     OW41217   2.942   2.160   7.587 -0.4542  0.2353 -0.0902
13266SOL    HW141218   2.922   2.176   7.495 -1.2170  2.2396  0.3700
13266SOL    HW241219   3.036   2.141   7.587 -0.5568 -0.4172 -1.3238
13267SOL     OW41220   6.325   2.694   3.087  0.1685  0.1742 -0.4056
13267SOL    HW141221   6.326   2.724   2.996  1.8057  0.5617 -0.2963
13267SOL    HW241222   6.412   2.656   3.100 -0.7178 -1.6738  0.4361
13268SOL     OW41223   6.453   8.243   1.846  0.0669  0.7447 -0.4266
13268SOL    HW141224   6.443   8.268   1.754 -0.0394  0.8653 -0.3827
13268SOL    HW241225   6.502   8.315   1.886 -2.2662  2.0768  0.2284
13269SOL     OW41226   2.653   5.164   7.445 -0.4108 -0.4410 -0.2193
13269SOL    HW141227   2.601   5.218   7.386 -0.3477 -0.3970 -0.2347
13269SOL    HW241228   2.689   5.225   7.509 -0.3202 -0.4609 -0.2509
13270SOL     OW41229   7.731   8.138   6.624  0.3435 -0.0481 -0.6575
13270SOL    HW141230   7.778   8.220   6.637 -1.0237  0.8238 -1.0906
13270SOL    HW241231   7.753   8.110   6.535  1.1231 -0.3837 -0.3716
13271SOL     OW41232   1.992   0.191   5.191  0.2360 -0.7954 -0.1430
13271SOL    HW141233   2.086   0.196   5.178  0.2192 -0.1285 -0.0339
13271SOL    HW241234   1.958   0.157   5.108  0.4461  0.3024 -0.7019
13272SOL     OW41235   1.411   4.721   5.519 -0.0075  0.3677 -0.3533
13272SOL    HW141236   1.403   4.786   5.588 -0.9607  0.8901 -0.9469
13272SOL    HW241237   1.396   4.637   5.564 -0.4254  0.6846  0.1075
13273SOL     OW41238   2.921   6.268   2.724  0.2191  0.7797 -0.1399
13273SOL    HW141239   2.947   6.243   2.635 -1.6510  0.3598 -0.6149
13273SOL    HW241240   2.914   6.185   2.771 -1.2602  0.7685 -0.3411
13274SOL     OW41241   7.253   0.775   1.963  0.2887  0.0787  0.6912
13274SOL    HW141242   7.209   0.801   1.882  0.1796 -3.4433 -0.5262
13274SOL    HW241243   7.346   0.784   1.943  0.2562 -0.4743  0.2762
13275SOL     OW41244   0.353   3.294   0.170 -0.2032 -0.0555 -0.0119
13275SOL    HW141245   0.263   3.266   0.153 -0.9866 -0.6370  4.0887
13275SOL    HW241246   0.407   3.218   0.150 -0.8885 -0.4213 -0.4750
13276SOL     OW41247   7.206   5.133   6.460 -0.4680  0.0150 -0.4847
13276SOL    HW141248   7.131   5.156   6.515  0.4375  1.7525  0.1188
13276SOL    HW241249   7.171   5.136   6.370 -1.2242  0.4134 -0.1902
13277SOL     OW41250   0.405   2.513   1.811  0.3620 -0.0548  0.0010
13277SOL    HW141251   0.460   2.591   1.796 -0.1169  0.1030 -1.0685
13277SOL    HW241252   0.447   2.445   1.758  0.0463 -0.1703 -0.1007
13278SOL     OW41253   3.360   1.731   8.301  0.2498 -0.4783 -0.3502
13278SOL    HW141254   3.418   1.776   8.362 -1.2190  0.4673  0.4250
13278SOL    HW241255   3.272   1.758   8.328 -0.5800 -2.1279 -1.2465
13279SOL     OW41256   7.549   0.963   2.524 -0.4677  0.3033 -0.0766
13279SOL    HW141257   7.622   0.925   2.474 -1.0367  0.3152 -0.9450
13279SOL    HW241258   7.591   1.005   2.599  0.2046 -1.8775  0.8611
13280SOL     OW41259   0.533   4.240   7.901 -0.1841 -0.1818 -0.0502
13280SOL    HW141260   0.582   4.245   7.819  2.8593  0.4848  1.6746
13280SOL    HW241261   0.487   4.156   7.897  2.2766 -1.5672 -1.2022
13281SOL     OW41262   1.196   0.916   5.401 -1.0682  0.2334  0.1300
13281SOL    HW141263   1.283   0.954   5.411 -2.4111  3.3747  1.2916
13281SOL    HW241264   1.178   0.875   5.486 -0.1670 -1.9281 -0.6585
13282SOL     OW41265   2.585   7.629   7.288 -0.3163 -0.1411 -0.6651
13282SOL    HW141266   2.593   7.701   7.225 -0.1166  0.0054 -0.4723
13282SOL    HW241267   2.560   7.553   7.235  0.0834 -0.0738 -0.9546
13283SOL     OW41268   0.512   2.105   1.773 -0.6175 -0.7956  0.5538
13283SOL    HW141269   0.493   2.190   1.732 -2.3842 -1.1110  0.6474
13283SOL    HW241270   0.498   2.041   1.704  0.1674 -1.0630  0.6352
13284SOL     OW41271   1.506   3.282   6.992 -0.0655  0.3461 -0.5601
13284SOL    HW141272   1.418   3.249   7.006  0.4671 -0.6280  0.6265
13284SOL    HW241273   1.494   3.360   6.937 -1.8036  1.1641  0.8960
13285SOL     OW41274   3.376   1.557   2.530  0.6177 -0.0455 -0.3572
13285SOL    HW141275   3.301   1.510   2.566  0.7545 -0.7185 -0.9280
13285SOL    HW241276   3.368   1.546   2.435  1.0973  0.4010 -0.4519
13286SOL     OW41277   4.764   3.689   1.614 -0.2486  0.2814  0.2708
13286SOL    HW141278   4.774   3.716   1.705  1.3403  0.1533  0.1690
13286SOL    HW241279   4.726   3.765   1.570 -1.2539  0.2558  1.0750
13287SOL     OW41280   0.843   0.040   0.790  0.7724  0.3462  0.0715
13287SOL    HW141281   0.801  -0.020   0.729  2.3294  1.2127 -1.9827
13287SOL    HW241282   0.931   0.004   0.803  0.3124 -0.1253  2.3338
13288SOL     OW41283   7.566   8.135   0.422 -0.2603 -0.1430 -0.1635
13288SOL    HW141284   7.629   8.201   0.450  1.1637 -1.6272  0.2883
13288SOL    HW241285   7.548   8.083   0.501 -0.6819 -0.8325 -0.6965
13289SOL     OW41286   2.140   7.258   4.685  0.0417  0.4639 -0.4008
13289SOL    HW141287   2.200   7.298   4.622 -0.4201 -0.0831 -1.2048
13289SOL    HW241288   2.122   7.171   4.649  0.4542 -0.2057  0.9368
13290SOL     OW41289   4.942   0.566   0.151 -0.3300  0.2022 -0.0615
13290SOL    HW141290   4.990   0.534   0.227 -1.2804 -0.2337  0.3720
13290SOL    HW241291   5.002   0.628   0.109  0.7199 -0.5722  0.2713
13291SOL     OW41292   6.308   1.425   1.358 -0.2049  0.8780  0.1634
13291SOL    HW141293   6.255   1.413   1.279  0.1481 -1.5483  0.1930
13291SOL    HW241294   6.296   1.343   1.407  2.7056  0.6489  0.6638
13292SOL     OW41295   6.235   2.033   6.581  0.0610  0.3863  0.2671
13292SOL    HW141296   6.142   2.013   6.593  0.0513  1.5680  3.0024
13292SOL    HW241297   6.276   1.949   6.562 -1.5692 -0.1122 -1.3064
13293SOL     OW41298   0.891   7.127   0.876  0.1996 -0.0779  0.3200
13293SOL    HW141299   0.977   7.160   0.852 -0.3954  1.1434 -0.1873
13293SOL    HW241300   0.886   7.139   0.971  0.6567 -0.3579  0.3835
13294SOL     OW41301   2.800   7.998   4.617 -0.0832 -0.1627  0.0925
13294SOL    HW141302   2.831   8.073   4.567  0.4042 -1.0795 -1.0488
13294SOL    HW241303   2.779   8.033   4.703 -0.6021  1.4046 -0.6367
13295SOL     OW41304   4.280   7.993   1.963  0.5441 -0.3684 -0.8054
13295SOL    HW141305   4.206   7.964   2.016  0.3016  1.7197  0.0797
13295SOL    HW241306   4.343   7.921   1.969 -0.8876 -1.6714 -0.6036
13296SOL     OW41307   1.997   1.186   6.641 -0.4247  0.5727 -0.0295
13296SOL    HW141308   2.093   1.184   6.645 -0.4411  0.5164  0.5411
13296SOL    HW241309   1.977   1.215   6.552  0.1068 -0.9381 -0.6717
13297SOL     OW41310   3.652   7.314   1.363  0.0601  0.0938  0.4248
13297SOL    HW141311   3.728   7.260   1.340 -0.5077 -1.2197  1.4811
13297SOL    HW241312   3.590   7.300   1.292  0.5364  0.6742 -0.1235
13298SOL     OW41313   7.935   5.557   1.394 -0.6956  0.0845 -0.3634
13298SOL    HW141314   8.003   5.495   1.370 -1.6483 -0.9192 -0.5423
13298SOL    HW241315   7.925   5.547   1.489 -1.7790 -1.0666 -0.5623
13299SOL     OW41316   7.636   2.847   5.958 -0.0320 -0.3365 -0.4744
13299SOL    HW141317   7.618   2.934   5.921  0.0613 -0.2889 -0.4090
13299SOL    HW241318   7.632   2.788   5.883  0.2203 -0.2317 -0.5726
13300SOL     OW41319   1.723   8.311   7.662 -0.0652  0.0219 -0.4311
13300SOL    HW141320   1.662   8.371   7.705 -2.6422 -2.0237 -0.9527
13300SOL    HW241321   1.770   8.269   7.734 -0.0456  0.8665  0.0575
13301SOL     OW41322   8.066   4.667   2.480  0.2242 -0.0638 -0.2360
13301SOL    HW141323   7.980   4.651   2.441  0.3274 -1.5514  0.0490
13301SOL    HW241324   8.071   4.604   2.552  1.3656  0.3314  0.0522
13302SOL     OW41325   5.525   7.379   3.564 -0.5204 -0.5457  0.0107
13302SOL    HW141326   5.467   7.434   3.512 -0.0286  0.4242  0.4479
13302SOL    HW241327   5.504   7.401   3.654  0.3953 -0.3099  0.1744
13303SOL     OW41328   4.893   2.900   3.554 -0.3212 -0.4288 -0.3732
13303SOL    HW141329   4.876   2.983   3.599 -1.3513 -0.9515  0.2396
13303SOL    HW241330   4.978   2.871   3.589 -1.3052 -1.0581  1.6973
13304SOL     OW41331   7.336   1.969   2.769  0.1312 -0.1525  0.4647
13304SOL    HW141332   7.243   1.962   2.791  0.1171 -1.1576  0.1335
13304SOL    HW241333   7.371   1.881   2.784  0.8620  0.0186 -0.1661
13305SOL     OW41334   1.498   5.004   1.921 -0.0056  0.6561  0.0460
13305SOL    HW141335   1.532   4.975   2.006  0.6329  0.8361 -0.1410
13305SOL    HW241336   1.441   4.933   1.893 -2.2856  1.6885  1.7871
13306SOL     OW41337   1.929   7.060   3.014  0.1492  0.2028  0.6484
13306SOL    HW141338   1.835   7.072   2.997 -0.1491 -1.8349  0.6989
13306SOL    HW241339   1.971   7.102   2.939 -0.9188 -1.3198 -0.8833
13307SOL     OW41340   3.455   6.023   5.287  0.2305 -0.0642  0.3540
13307SOL    HW141341   3.487   5.933   5.278  1.5056  0.3549  0.4440
13307SOL    HW241342   3.383   6.017   5.349 -2.3742 -1.5853 -2.5684
13308SOL     OW41343   5.269   3.846   1.591 -0.0369 -0.0820  0.0949
13308SOL    HW141344   5.175   3.855   1.605 -0.3900 -1.8969 -0.8114
13308SOL    HW241345   5.281   3.857   1.497  0.0306 -3.5937 -0.4686
13309SOL     OW41346   2.727   1.453   8.056 -0.1489  0.2104  0.0665
13309SOL    HW141347   2.699   1.391   7.989 -0.2147 -0.4291  0.6721
13309SOL    HW241348   2.717   1.539   8.016  0.5989 -0.1966 -1.0318
13310SOL     OW41349   1.382   3.657   4.466 -0.2480  0.5069  0.0367
13310SOL    HW141350   1.298   3.675   4.425  0.3363 -0.2712 -1.5645
13310SOL    HW241351   1.444   3.714   4.421  0.3386 -0.0159  0.1712
13311SOL     OW41352   0.128   7.846   3.557 -0.3841  0.0735  0.8076
13311SOL    HW141353   0.090   7.933   3.558 -0.4378  0.0517  1.5331
13311SOL    HW241354   0.223   7.860   3.561 -0.3472  0.1079  0.0070
13312SOL     OW41355   6.030   3.864   5.395  0.5011  0.3917  0.0122
13312SOL    HW141356   5.992   3.935   5.343 -0.4195 -0.1243 -0.0316
13312SOL    HW241357   6.084   3.816   5.332  1.9883  1.6415  0.2716
13313SOL     OW41358   1.105   7.380   0.996 -0.2109 -0.0908  0.2588
13313SOL    HW141359   1.062   7.399   0.912 -0.9357  0.3655  0.7267
13313SOL    HW241360   1.188   7.340   0.971 -1.1984 -1.6788 -0.6697
13314SOL     OW41361   5.826   1.442   0.086 -0.2765 -0.7758 -0.1380
13314SOL    HW141362   5.841   1.535   0.069 -3.1943  0.1194  1.3890
13314SOL    HW241363   5.768   1.414   0.015 -1.3526 -0.7235  0.6896
13315SOL     OW41364   0.951   1.430   5.217  0.0238  0.0351  0.5284
13315SOL    HW141365   0.933   1.363   5.283 -0.9462 -1.2022 -0.9171
13315SOL    HW241366   1.045   1.422   5.200 -0.1034 -1.0736  0.2748
13316SOL     OW41367   6.005   8.074   6.093 -0.0214 -0.4463  0.9892
13316SOL    HW141368   6.093   8.080   6.132  1.2423 -1.8060 -1.4400
13316SOL    HW241369   6.002   8.146   6.030 -1.6594  1.0868  2.6761
13317SOL     OW41370   3.910   5.789   1.335  0.7605 -0.3210 -0.0324
13317SOL    HW141371   3.867   5.730   1.398  1.4496 -3.1733 -2.0182
13317SOL    HW241372   3.994   5.748   1.318  0.9910  0.8906 -2.0635
13318SOL     OW41373   4.641   0.071   7.387  0.8045 -0.0727  0.2530
13318SOL    HW141374   4.586  -0.002   7.358 -0.0981  0.3623  0.8213
13318SOL    HW241375   4.717   0.068   7.329  0.6875 -1.3274  0.1253
13319SOL     OW41376   4.734   1.437   4.193 -0.1328  0.1749  0.1170
13319SOL    HW141377   4.754   1.502   4.125  1.4604  0.7250  1.0574
13319SOL    HW241378   4.672   1.481   4.251 -0.9264 -0.0346 -0.5498
13320SOL     OW41379   3.089   1.871   6.342  0.3967  0.1960  0.1274
13320SOL    HW141380   3.054   1.949   6.385  0.7037  2.0660 -2.7775
13320SOL    HW241381   3.014   1.832   6.298  0.5634 -0.1715  0.1638
13321SOL     OW41382   4.086   3.042   4.939 -0.7540  0.2274 -0.4535
13321SOL    HW141383   4.169   3.064   4.981 -0.3774 -0.1509 -0.9782
13321SOL    HW241384   4.045   2.979   4.998  0.2808 -1.1541 -1.1698
13322SOL     OW41385   2.177   1.785   3.305 -0.0658  0.8709  0.3113
13322SOL    HW141386   2.136   1.759   3.222  0.1943  0.4966  0.2977
13322SOL    HW241387   2.104   1.798   3.365 -0.2472  1.0027  0.0622
13323SOL     OW41388   5.740   2.121   2.235 -0.2291 -0.0674  0.4105
13323SOL    HW141389   5.715   2.029   2.223 -0.0070 -0.0196 -0.4439
13323SOL    HW241390   5.658   2.166   2.256 -0.3130 -0.4822  0.9965
13324SOL     OW41391   4.192   0.213   6.325 -0.1118  0.3347  0.5795
13324SOL    HW141392   4.264   0.270   6.354 -0.5559  0.2518  1.8968
13324SOL    HW241393   4.122   0.273   6.301  0.6532  0.4542 -1.5442
13325SOL     OW41394   6.560   4.958   7.891  0.0507 -0.2502  0.2230
13325SOL    HW141395   6.543   5.046   7.926 -1.9037 -0.6259  0.3498
13325SOL    HW241396   6.519   4.958   7.805  2.3323 -0.2571 -0.9467
13326SOL     OW41397   8.295   6.786   4.933  0.4910 -0.1093  0.3312
13326SOL    HW141398   8.322   6.788   4.841  0.5020 -0.4518  0.3275
13326SOL    HW241399   8.342   6.860   4.973 -0.5979  0.9241 -0.2318
13327SOL     OW41400   7.952   0.012   5.993  0.1436  0.1895 -0.6733
13327SOL    HW141401   7.942   0.106   6.011 -1.2209  0.1286 -0.9642
13327SOL    HW241402   7.877  -0.028   6.038  0.6505 -0.7521 -0.6552
13328SOL     OW41403   1.437   6.552   5.903 -0.1026  0.0127 -0.1405
13328SOL    HW141404   1.370   6.609   5.866 -0.6261 -0.1941  0.4876
13328SOL    HW241405   1.448   6.582   5.993 -1.2850 -1.6361  0.6136
13329SOL     OW41406   0.749   5.331   5.841  0.3911 -0.2883  0.8957
13329SOL    HW141407   0.822   5.288   5.885 -0.2469 -0.6726  1.5890
13329SOL    HW241408   0.696   5.259   5.806  1.2798  0.0106 -1.1924
13330SOL     OW41409   2.990   0.852   7.478 -0.3521 -0.1458  0.0432
13330SOL    HW141410   3.024   0.764   7.493 -0.3267 -0.0308  0.6514
13330SOL    HW241411   2.996   0.863   7.383  0.4497 -0.4733  0.0468
13331SOL     OW41412   6.039   0.877   2.539  0.2076 -1.0078  0.0264
13331SOL    HW141413   5.981   0.931   2.593  0.6803  0.5978 -0.9839
13331SOL    HW241414   6.104   0.939   2.506  0.1604 -1.9835 -2.0534
13332SOL     OW41415   7.798   6.139   3.977 -0.0264  0.1273  0.1154
13332SOL    HW141416   7.787   6.152   3.883  1.4173  0.5389 -0.0147
13332SOL    HW241417   7.794   6.227   4.014  1.4245  0.1840  0.1900
13333SOL     OW41418   1.178   3.948   7.269 -0.1347  0.3585 -0.3262
13333SOL    HW141419   1.109   3.996   7.314 -0.0031  0.8250 -0.6149
13333SOL    HW241420   1.253   3.953   7.328 -0.6012 -0.9283  0.4050
13334SOL     OW41421   0.185   3.097   8.300  0.2691 -0.2730  0.3103
13334SOL    HW141422   0.260   3.134   8.253 -1.5259  0.3594 -2.3065
13334SOL    HW241423   0.158   3.167   8.360 -0.1183  0.7822 -1.0497
13335SOL     OW41424   4.669   4.890   8.278 -0.4470 -0.4141  0.4653
13335SOL    HW141425   4.694   4.852   8.362 -1.8251 -0.4780  0.8725
13335SOL    HW241426   4.734   4.857   8.216  0.4766 -0.5218  1.4612
13336SOL     OW41427   4.811   0.491   4.959  0.5050  0.6141 -0.6785
13336SOL    HW141428   4.903   0.507   4.937  0.9271 -0.7330 -0.0231
13336SOL    HW241429   4.774   0.454   4.879  0.3970  1.6068 -1.0979
13337SOL     OW41430   3.024   5.384   1.544  0.3693 -0.1735  0.2553
13337SOL    HW141431   2.935   5.404   1.516 -0.1861 -2.0923  0.4823
13337SOL    HW241432   3.037   5.435   1.624  0.1085  1.3831 -0.6521
13338SOL     OW41433   6.996   0.555   2.076 -0.7432  0.0484 -0.5171
13338SOL    HW141434   7.090   0.548   2.088 -0.7498  0.0528 -0.4650
13338SOL    HW241435   6.958   0.509   2.151 -0.7860  1.1157  0.1349
13339SOL     OW41436   7.777   1.409   2.105 -0.7835 -0.0376 -0.4767
13339SOL    HW141437   7.720   1.342   2.143 -0.7016  0.3751  0.3890
13339SOL    HW241438   7.866   1.381   2.128 -0.8075  1.0644  1.0892
13340SOL     OW41439   1.033   6.068   7.269 -0.1236 -0.2376  0.0802
13340SOL    HW141440   0.985   6.142   7.233 -0.5130  0.3375  1.6882
13340SOL    HW241441   1.123   6.081   7.239 -0.6132 -0.3895 -1.5379
13341SOL     OW41442   2.146   8.131   2.180  0.1203 -0.1146 -0.1944
13341SOL    HW141443   2.239   8.131   2.202  0.2651 -0.3301 -0.7938
13341SOL    HW241444   2.133   8.052   2.128 -0.5648 -0.4962  0.5562
13342SOL     OW41445   6.324   1.117   6.908 -0.0862  0.5700  0.5061
13342SOL    HW141446   6.392   1.051   6.891  0.0671  0.6306  0.8765
13342SOL    HW241447   6.327   1.175   6.832  0.0175  0.3521  0.3425
13343SOL     OW41448   1.728   5.049   7.733  0.1859  0.6501 -0.3837
13343SOL    HW141449   1.753   5.007   7.651  0.8611 -0.5975  0.4469
13343SOL    HW241450   1.714   4.977   7.794 -0.5850  1.5507  0.5394
13344SOL     OW41451   5.520   7.780   5.545  0.6092 -0.4468  0.3932
13344SOL    HW141452   5.468   7.823   5.613 -0.2455 -1.5759  0.4925
13344SOL    HW241453   5.460   7.717   5.505  1.3422 -0.3871 -0.8591
13345SOL     OW41454   6.430   0.503   4.133 -0.5583  0.6957  0.1869
13345SOL    HW141455   6.419   0.568   4.063 -0.0885  1.1063  0.4919
13345SOL    HW241456   6.367   0.529   4.200 -0.0193  1.1392  0.5278
13346SOL     OW41457   3.813   3.579   4.797  0.0461  0.1329 -0.1245
13346SOL    HW141458   3.742   3.620   4.747 -0.2163 -0.5285 -0.3064
13346SOL    HW241459   3.772   3.503   4.840  0.1343  0.9936  1.5559
13347SOL     OW41460   1.147   7.907   3.517 -0.1844 -0.3232 -0.1660
13347SOL    HW141461   1.197   7.863   3.587 -1.9003  0.9013  1.9511
13347SOL    HW241462   1.118   7.835   3.461  1.9452 -1.2755 -0.1648
13348SOL     OW41463   4.492   5.453   6.300  0.4468  0.1235  0.0758
13348SOL    HW141464   4.576   5.484   6.335  0.2665 -0.0197  0.6574
13348SOL    HW241465   4.515   5.402   6.223  0.9385 -0.3401  0.5216
13349SOL     OW41466   7.358   7.178   1.740  0.0521  0.8415  0.6704
13349SOL    HW141467   7.420   7.250   1.750  2.6349 -1.1911  0.4808
13349SOL    HW241468   7.366   7.152   1.648  0.0263 -0.3324  0.9748
13350SOL     OW41469   6.639   2.274   5.802 -0.1974 -0.3969 -0.9348
13350SOL    HW141470   6.583   2.338   5.757 -1.8754  0.1862  1.7506
13350SOL    HW241471   6.595   2.190   5.787  0.4567 -0.5604 -2.1003
13351SOL     OW41472   7.995   1.363   2.280 -0.0100  0.3179 -0.0187
13351SOL    HW141473   8.074   1.389   2.233  0.0478 -1.3618 -0.8978
13351SOL    HW241474   8.021   1.366   2.372  0.8589  0.4747 -0.2550
13352SOL     OW41475   7.360   7.935   7.736  0.6604 -0.3950 -0.8375
13352SOL    HW141476   7.320   8.008   7.688 -0.0170 -0.4781 -0.4051
13352SOL    HW241477   7.454   7.952   7.731  0.5677 -0.1021 -1.7167
13353SOL     OW41478   5.711   1.082   7.431 -0.2611  0.2434 -0.0531
13353SOL    HW141479   5.756   1.015   7.483 -1.5098 -1.5108 -1.0967
13353SOL    HW241480   5.648   1.032   7.379 -0.2305  2.1151 -1.9797
13354SOL     OW41481   5.454   1.221   0.861 -0.4266  0.0194  0.5257
13354SOL    HW141482   5.477   1.313   0.847  0.1653  0.2870  2.8541
13354SOL    HW241483   5.359   1.222   0.873 -0.9686 -0.2138 -2.6747
13355SOL     OW41484   4.348   5.732   7.301  0.3437  0.2721 -0.0474
13355SOL    HW141485   4.428   5.680   7.306 -0.1006 -0.4432 -0.2203
13355SOL    HW241486   4.355   5.794   7.373  0.6979 -0.3043  0.4247
13356SOL     OW41487   4.557   5.511   7.019 -0.0371  0.1902  0.0115
13356SOL    HW141488   4.511   5.550   6.946 -0.6181  2.0124  1.2950
13356SOL    HW241489   4.544   5.416   7.008 -1.9689  0.5317 -1.0221
13357SOL     OW41490   1.942   0.309   1.383  0.0331  0.3515  0.1172
13357SOL    HW141491   1.896   0.241   1.334  0.5219  0.0071  0.1297
13357SOL    HW241492   1.913   0.298   1.474  0.0666  0.2002  0.1091
13358SOL     OW41493   0.824   4.963   7.567  0.2118  0.2149  0.1274
13358SOL    HW141494   0.777   5.038   7.602 -0.4221 -0.2643  0.3304
13358SOL    HW241495   0.917   4.987   7.572 -0.0101  1.2369 -0.4235
13359SOL     OW41496   5.161   2.834   3.618 -0.2439  0.3483  0.5288
13359SOL    HW141497   5.173   2.829   3.712  0.2860 -0.5896  0.4272
13359SOL    HW241498   5.182   2.746   3.586  3.2203  1.4651 -0.8506
13360SOL     OW41499   8.120   4.803   0.337 -0.0948  0.1486 -0.1577
13360SOL    HW141500   8.184   4.856   0.384 -0.6963 -0.3973  1.3168
13360SOL    HW241501   8.043   4.859   0.328 -0.4486 -0.1786  0.7062
13361SOL     OW41502   7.979   7.971   6.129 -0.0460 -0.1455  0.4922
13361SOL    HW141503   8.041   7.961   6.201  1.2440 -0.9738 -0.6883
13361SOL    HW241504   7.977   7.885   6.087  0.4769  0.7206 -1.4203
13362SOL     OW41505   5.030   1.756   1.051 -0.0965 -0.4327  0.1561
13362SOL    HW141506   5.028   1.787   1.142 -1.8412  1.7090 -0.5291
13362SOL    HW241507   5.123   1.759   1.028  0.3457 -0.6708  1.7561
13363SOL     OW41508   6.910   3.290   3.172 -0.0349  0.7830  0.3048
13363SOL    HW141509   6.909   3.374   3.126  1.5545  0.0045 -1.2947
13363SOL    HW241510   6.915   3.224   3.103 -0.5687 -0.6158  1.5329
13364SOL     OW41511   3.431   7.792   8.045  0.0726 -0.0734  0.2251
13364SOL    HW141512   3.511   7.808   7.996 -0.2819 -1.2966 -0.8360
13364SOL    HW241513   3.450   7.713   8.096 -0.5294 -0.5693 -0.2904
13365SOL     OW41514   6.877   2.809   3.964  0.2738  0.5746 -0.1572
13365SOL    HW141515   6.953   2.766   3.925  0.8248  1.4210 -0.0242
13365SOL    HW241516   6.807   2.795   3.900 -0.0840 -2.1162  0.6715
13366SOL     OW41517   7.027   0.165   3.052  0.3267  0.7680 -0.5953
13366SOL    HW141518   7.091   0.152   3.123  0.5910 -2.6264 -1.3080
13366SOL    HW241519   6.943   0.145   3.092  0.6409 -2.9903 -1.4704
13367SOL     OW41520   1.287   7.517   6.889 -0.2312  0.4827 -0.6711
13367SOL    HW141521   1.246   7.577   6.827 -0.7357  0.6186 -0.2169
13367SOL    HW241522   1.380   7.520   6.868 -0.4055  0.4659 -1.4647
13368SOL     OW41523   6.542   3.356   4.594 -0.4674 -0.1997  0.1629
13368SOL    HW141524   6.551   3.449   4.616  2.2004 -0.2444 -0.3674
13368SOL    HW241525   6.494   3.356   4.512 -0.1712  0.7583 -0.0336
13369SOL     OW41526   0.919   1.596   7.183  0.6251 -0.1049 -0.5341
13369SOL    HW141527   0.868   1.536   7.129  1.9045 -1.2626 -0.5028
13369SOL    HW241528   0.918   1.678   7.134 -1.9956  0.2036 -0.0763
13370SOL     OW41529   1.784   1.673   5.813  0.8245 -0.4018 -0.1306
13370SOL    HW141530   1.801   1.580   5.800  1.5202 -0.1540 -1.1663
13370SOL    HW241531   1.708   1.691   5.759  1.1056 -0.2366 -0.4759
13371SOL     OW41532   0.471   4.402   4.110 -0.0537  0.3961 -0.4849
13371SOL    HW141533   0.446   4.474   4.052 -3.4027  0.0495  0.3032
13371SOL    HW241534   0.468   4.324   4.056 -0.8592  0.3539 -0.3927
13372SOL     OW41535   5.752   8.224   6.241  0.3676  0.3419 -0.3761
13372SOL    HW141536   5.679   8.185   6.193 -0.1375 -0.4780  0.9970
13372SOL    HW241537   5.830   8.183   6.203 -0.0632 -0.8253 -0.0485
13373SOL     OW41538   4.235   3.853   7.172  0.0565  0.0651 -0.1831
13373SOL    HW141539   4.199   3.842   7.083  0.7428 -1.2884 -0.3188
13373SOL    HW241540   4.281   3.937   7.169 -0.1244  0.1475 -1.0419
13374SOL     OW41541   5.760   0.983   5.924  0.4944 -0.2129  0.0751
13374SOL    HW141542   5.806   1.051   5.875 -0.7567  0.6387  0.0274
13374SOL    HW241543   5.709   1.031   5.989  0.3035 -1.1796  0.6621
13375SOL     OW41544   5.305   6.333   6.770  0.2808 -0.4697  0.1903
13375SOL    HW141545   5.247   6.364   6.701  1.0793 -0.8985 -0.7002
13375SOL    HW241546   5.374   6.285   6.724  1.1143 -0.3252  1.2433
13376SOL     OW41547   0.829   5.916   1.479  0.4123 -0.1969 -0.4840
13376SOL    HW141548   0.773   5.949   1.549  0.4089 -0.7135 -0.2374
13376SOL    HW241549   0.829   5.985   1.413  1.2211  0.7392  0.4575
13377SOL     OW41550   8.245   2.902   3.645 -0.3636 -0.0940  0.1591
13377SOL    HW141551   8.238   2.965   3.717  0.2906  2.3885 -1.7812
13377SOL    HW241552   8.158   2.902   3.604 -0.2675 -0.1802 -0.0483
13378SOL     OW41553   2.142   0.460   2.492  0.0069  0.3919  0.0473
13378SOL    HW141554   2.228   0.465   2.534  1.0036 -0.1733 -1.7940
13378SOL    HW241555   2.126   0.549   2.461  0.4432  0.2945 -0.4931
13379SOL     OW41556   4.767   3.768   2.190 -0.6108  0.2449 -0.1388
13379SOL    HW141557   4.773   3.690   2.246  1.5051  0.6136  0.2717
13379SOL    HW241558   4.838   3.825   2.222  0.0665  0.8933 -2.5651
13380SOL     OW41559   7.630   4.112   4.613  0.5983 -0.2604  0.0525
13380SOL    HW141560   7.559   4.173   4.633  0.6213 -0.1631 -0.1550
13380SOL    HW241561   7.688   4.116   4.689  0.6254  0.0135  0.0169
13381SOL     OW41562   2.861   5.708   0.239  0.3131  0.0843  0.3548
13381SOL    HW141563   2.914   5.784   0.215  0.4303  0.0426  0.4792
13381SOL    HW241564   2.903   5.634   0.195 -0.2781  0.2088 -0.4304
13382SOL     OW41565   3.083   5.931   7.950  0.1801  0.2671  0.6188
13382SOL    HW141566   2.992   5.941   7.923  0.8602  0.5130 -1.8323
13382SOL    HW241567   3.099   5.837   7.946 -0.0072  0.1925  1.3474
13383SOL     OW41568   4.191   1.114   2.800 -0.2642 -0.6265 -0.0985
13383SOL    HW141569   4.179   1.029   2.758  1.5608 -1.8766  1.6857
13383SOL    HW241570   4.120   1.119   2.865 -1.5088  0.1284 -1.4604
13384SOL     OW41571   1.670   7.156   7.719 -0.3268  0.0518 -0.1773
13384SOL    HW141572   1.748   7.133   7.668 -0.1113 -0.5875  0.4366
13384SOL    HW241573   1.597   7.116   7.671 -0.2964  0.7027 -0.7860
13385SOL     OW41574   1.711   1.172   1.960 -0.4061 -0.2784 -0.0948
13385SOL    HW141575   1.637   1.176   1.899  0.8909 -0.7462 -1.7549
13385SOL    HW241576   1.730   1.079   1.969  1.2232 -0.0943 -1.2823
13386SOL     OW41577   5.143   2.874   5.243 -0.1883  0.2773  0.0144
13386SOL    HW141578   5.098   2.853   5.161 -0.8724  0.4670  0.3319
13386SOL    HW241579   5.079   2.852   5.311 -0.1364  1.4101  0.4417
13387SOL     OW41580   2.186   8.199   3.221  0.1053 -0.2313  0.1079
13387SOL    HW141581   2.157   8.186   3.130 -2.4270 -1.4498  0.9970
13387SOL    HW241582   2.195   8.110   3.256  1.9578  0.2020  0.8471
13388SOL     OW41583   8.179   4.052   6.658 -0.1752 -0.3865 -0.2099
13388SOL    HW141584   8.140   3.969   6.632 -0.9894 -0.4953  1.2265
13388SOL    HW241585   8.272   4.033   6.668 -0.3329 -1.1011 -0.0383
13389SOL     OW41586   0.075   1.622   0.337  0.0928  0.3414 -0.2894
13389SOL    HW141587   0.145   1.586   0.282 -0.7877  1.2433 -2.0797
13389SOL    HW241588   0.119   1.688   0.391  0.7331  0.4680 -0.9476
13390SOL     OW41589   3.385   7.105   6.944  0.1092  0.4105  0.2356
13390SOL    HW141590   3.323   7.138   6.879  0.9193  0.5582 -0.4762
13390SOL    HW241591   3.461   7.077   6.893  1.0181  1.1143  1.1499
13391SOL     OW41592   4.418   5.761   7.778 -0.3347  0.5766 -0.4609
13391SOL    HW141593   4.335   5.717   7.766  0.6726 -1.7043  0.3708
13391SOL    HW241594   4.406   5.814   7.857 -0.6694 -0.6126  0.2979
13392SOL     OW41595   4.359   6.315   6.751  0.1114  0.2870 -0.3295
13392SOL    HW141596   4.322   6.403   6.766 -0.5592 -0.2409  1.3297
13392SOL    HW241597   4.454   6.329   6.750  0.2588  0.6637  3.4560
13393SOL     OW41598   6.469   2.278   0.116  0.1624 -0.0866  0.8601
13393SOL    HW141599   6.387   2.309   0.154 -0.9860 -2.5647  0.6267
13393SOL    HW241600   6.537   2.328   0.161 -1.4497  2.1691  0.9400
13394SOL     OW41601   5.259   0.960   4.182  0.7151  0.5645 -0.1288
13394SOL    HW141602   5.231   1.046   4.152  0.4643  0.5035 -0.0734
13394SOL    HW241603   5.219   0.899   4.119 -0.6203  0.3667  0.8660
13395SOL     OW41604   7.891   6.040   0.258  0.0533  0.0289  0.4097
13395SOL    HW141605   7.861   6.050   0.168  1.2113  0.5393  0.0564
13395SOL    HW241606   7.886   5.946   0.275  0.2574 -0.1294 -0.3547
13396SOL     OW41607   7.937   5.805   0.387  0.0671  0.0382 -0.0441
13396SOL    HW141608   7.881   5.810   0.465 -0.1393  0.1696 -0.1989
13396SOL    HW241609   8.018   5.850   0.412  0.3426 -0.6725  0.3812
13397SOL     OW41610   0.448   3.226   1.945 -0.1463 -0.1254  0.6877
13397SOL    HW141611   0.541   3.247   1.953 -0.2414  0.4228  0.4180
13397SOL    HW241612   0.440   3.136   1.977  1.0024 -1.3693 -2.2447
13398SOL     OW41613   4.578   8.228   4.783  0.2601  0.2364  0.5751
13398SOL    HW141614   4.645   8.269   4.838  1.0836  0.4609 -0.5618
13398SOL    HW241615   4.611   8.140   4.767  1.1815  0.8863 -1.3913
13399SOL     OW41616   7.425   4.063   6.373 -0.1027 -0.5106  0.1503
13399SOL    HW141617   7.470   3.999   6.428  0.5969 -0.5528 -0.4642
13399SOL    HW241618   7.388   4.012   6.301  1.1808 -0.1444 -0.8062
13400SOL     OW41619   5.429   4.725   8.051  0.5744  0.6218 -0.1287
13400SOL    HW141620   5.403   4.671   8.125  0.0098 -0.8866 -1.3837
13400SOL    HW241621   5.520   4.700   8.033  0.0682 -0.5369 -1.1993
13401SOL     OW41622   2.256   7.719   3.485  0.3881 -0.3080 -0.2114
13401SOL    HW141623   2.276   7.808   3.457 -2.5630  0.2755 -0.7123
13401SOL    HW241624   2.337   7.670   3.467  1.1638  1.6565 -2.5583
13402SOL     OW41625   4.201   4.716   0.375 -0.2226  0.1131  0.1644
13402SOL    HW141626   4.195   4.717   0.280 -1.1935  0.8925  0.2180
13402SOL    HW241627   4.248   4.636   0.395 -0.9039 -0.5889 -0.9316
13403SOL     OW41628   0.789   1.022   7.180 -0.7650  0.1446 -0.3144
13403SOL    HW141629   0.774   1.073   7.259  0.1375 -0.9464  0.5991
13403SOL    HW241630   0.704   1.018   7.137 -0.9168  2.1029 -0.2499
13404SOL     OW41631   2.548   5.239   5.768 -0.6066 -0.1661  0.6656
13404SOL    HW141632   2.545   5.193   5.852 -1.9969  0.4162  0.9708
13404SOL    HW241633   2.466   5.214   5.724 -0.7261  0.8917  0.2467
13405SOL     OW41634   6.968   4.857   5.820 -0.4514  0.1036 -0.2488
13405SOL    HW141635   6.906   4.863   5.893  1.3941  0.9835  1.2983
13405SOL    HW241636   7.046   4.817   5.857  0.6428  0.8269 -1.6699
13406SOL     OW41637   6.111   6.364   6.671 -0.2581 -0.2807  0.2044
13406SOL    HW141638   6.133   6.408   6.589 -0.9199  0.2981  0.3253
13406SOL    HW241639   6.143   6.275   6.660  0.2298 -0.0329 -0.4347
13407SOL     OW41640   6.375   4.465   2.724 -0.6243  0.0902 -0.0086
13407SOL    HW141641   6.390   4.559   2.724  0.9547 -0.1261 -1.1721
13407SOL    HW241642   6.297   4.453   2.670 -1.9808  0.8285  1.6772
13408SOL     OW41643   7.055   6.434   7.220 -0.1152  0.4697  0.8454
13408SOL    HW141644   7.056   6.358   7.162  0.3038 -1.9456  3.7535
13408SOL    HW241645   6.962   6.450   7.237 -0.2754  1.6374 -0.9147
13409SOL     OW41646   0.302   4.947   8.348  0.2027 -0.3131  0.2524
13409SOL    HW141647   0.299   4.948   8.444  2.4185 -2.2555  0.4354
13409SOL    HW241648   0.339   4.862   8.326  0.7690  0.4943 -2.3063
13410SOL     OW41649   5.623   6.140   5.157 -0.3828  0.3334 -0.1260
13410SOL    HW141650   5.553   6.087   5.120 -0.1495 -0.5722  0.6826
13410SOL    HW241651   5.585   6.176   5.238 -0.0056  0.0488  0.1802
13411SOL     OW41652   4.382   6.519   4.958 -0.0490 -0.3676 -0.1119
13411SOL    HW141653   4.340   6.459   4.897 -1.9940  2.2258 -1.5049
13411SOL    HW241654   4.346   6.494   5.044 -0.9511 -1.0730 -0.6715
13412SOL     OW41655   5.638   5.717   4.150 -0.1402  0.2202  0.0172
13412SOL    HW141656   5.695   5.771   4.204  0.1599  0.5536 -0.6213
13412SOL    HW241657   5.696   5.655   4.108 -0.1643  0.9110 -1.0590
13413SOL     OW41658   8.003   6.449   0.714  0.7458 -0.0094 -0.1695
13413SOL    HW141659   7.998   6.525   0.772 -2.8525 -0.0711 -0.2112
13413SOL    HW241660   8.024   6.485   0.628  2.1593  0.5296  0.3787
13414SOL     OW41661   5.701   7.461   1.625  0.0669 -0.3357 -0.3078
13414SOL    HW141662   5.763   7.500   1.687 -0.2952  0.3238 -0.3538
13414SOL    HW241663   5.635   7.528   1.611 -0.1024 -0.6471 -1.0650
13415SOL     OW41664   5.532   4.629   2.019 -0.3302  0.1588 -0.1523
13415SOL    HW141665   5.491   4.605   1.936 -2.1984 -1.0275  1.0415
13415SOL    HW241666   5.496   4.715   2.040 -2.1535 -0.7891  0.7899
13416SOL     OW41667   3.309   2.915   5.102  0.1045 -0.6072  0.3587
13416SOL    HW141668   3.217   2.901   5.079  0.1362 -0.3820  0.0891
13416SOL    HW241669   3.357   2.884   5.025  0.2209 -0.0501  0.2048
13417SOL     OW41670   7.332   7.348   1.490 -0.4762 -0.2101 -0.1853
13417SOL    HW141671   7.331   7.428   1.542 -1.0360 -1.1164  1.2549
13417SOL    HW241672   7.287   7.372   1.409 -2.1033  0.5287  0.8815
13418SOL     OW41673   2.715   0.140   7.299  0.4103  0.1847  0.0767
13418SOL    HW141674   2.659   0.203   7.344  0.1664 -0.9758  1.4361
13418SOL    HW241675   2.800   0.149   7.341  0.3219 -0.5213  0.4217
13419SOL     OW41676   2.103   6.762   6.605 -0.1501  0.7536  0.1112
13419SOL    HW141677   2.012   6.764   6.576 -0.4510 -1.5504  0.6685
13419SOL    HW241678   2.154   6.764   6.523 -0.8136 -0.3605 -0.3615
13420SOL     OW41679   1.389   1.156   5.458  0.3030  0.0349  0.4449
13420SOL    HW141680   1.387   1.142   5.553 -1.6447  1.2026  0.6090
13420SOL    HW241681   1.445   1.233   5.446 -0.7016  0.8373  0.8039
13421SOL     OW41682   6.421   6.565   6.854 -0.2049 -0.1125 -0.0457
13421SOL    HW141683   6.383   6.525   6.776 -2.3568  1.8617 -0.1410
13421SOL    HW241684   6.396   6.508   6.926 -1.7714  0.1563 -0.3553
13422SOL     OW41685   0.747   3.726   4.793  0.1967 -0.4208  0.2362
13422SOL    HW141686   0.710   3.657   4.849 -1.7612 -0.2280 -0.7402
13422SOL    HW241687   0.678   3.745   4.730  1.8776  0.2250 -1.5107
13423SOL     OW41688   7.732   5.285   1.076 -0.2340  0.3840  0.1842
13423SOL    HW141689   7.743   5.379   1.087  0.8247  0.2491  0.4475
13423SOL    HW241690   7.793   5.262   1.006 -0.1722 -0.1623  0.4117
13424SOL     OW41691   1.782   5.993   1.933 -0.1035  0.1652  0.2235
13424SOL    HW141692   1.877   6.000   1.940 -0.1803  1.1995  0.3116
13424SOL    HW241693   1.764   6.001   1.839 -0.2625  2.3303  0.4045
13425SOL     OW41694   1.286   0.226   7.065  0.0485  0.3330 -0.4642
13425SOL    HW141695   1.267   0.320   7.059 -2.5972  0.1619  2.5447
13425SOL    HW241696   1.275   0.205   7.158 -0.4393 -3.1530 -1.1753
13426SOL     OW41697   6.869   5.193   4.519 -0.0484 -0.1276  0.5939
13426SOL    HW141698   6.877   5.185   4.424  0.9783  1.6481  0.4820
13426SOL    HW241699   6.816   5.118   4.545  0.2639 -1.0645 -1.2852
13427SOL     OW41700   5.620   7.950   6.342  0.2170 -0.1261 -0.0685
13427SOL    HW141701   5.545   7.891   6.346 -1.3773  1.8092 -0.0371
13427SOL    HW241702   5.619   7.985   6.253  0.0117  1.2267  0.4431
13428SOL     OW41703   7.397   2.021   2.047 -0.1321 -0.2263 -0.2405
13428SOL    HW141704   7.386   1.928   2.070 -1.8937  0.1562  0.6245
13428SOL    HW241705   7.427   2.062   2.128 -0.9269  0.2080 -0.1581
13429SOL     OW41706   0.997   8.290   6.827 -0.0937 -0.6901 -0.4026
13429SOL    HW141707   1.086   8.327   6.827 -0.5880  0.5649 -1.1945
13429SOL    HW241708   0.948   8.344   6.889 -0.1930 -1.7491  0.4817
13430SOL     OW41709   3.175   6.298   5.369  0.1292 -0.8404 -0.8110
13430SOL    HW141710   3.210   6.303   5.458  3.0084  2.0019 -1.9034
13430SOL    HW241711   3.173   6.204   5.350  0.5324 -1.4758  1.8074
13431SOL     OW41712   5.460   1.442   2.140 -0.2817 -0.2183  0.2422
13431SOL    HW141713   5.533   1.384   2.161 -0.9295 -1.0289  0.3028
13431SOL    HW241714   5.458   1.504   2.213 -0.8265 -1.3634  1.2451
13432SOL     OW41715   6.501   1.543   6.773 -0.3734  0.2430 -0.3080
13432SOL    HW141716   6.438   1.587   6.715 -1.1631 -0.6088 -0.1169
13432SOL    HW241717   6.456   1.537   6.857 -0.6558 -1.7189 -0.5570
13433SOL     OW41718   7.855   6.327   3.019  0.1071  0.0300 -0.6025
13433SOL    HW141719   7.763   6.335   3.042  0.2250  0.6914 -0.3299
13433SOL    HW241720   7.891   6.415   3.032  0.9319 -0.3760  0.0047
13434SOL     OW41721   5.271   4.311   0.103  0.8606 -0.2332 -0.0457
13434SOL    HW141722   5.227   4.264   0.032  0.3230  1.2594 -0.7325
13434SOL    HW241723   5.311   4.242   0.156 -1.2979 -1.5998 -0.0508
13435SOL     OW41724   3.111   1.902   3.235 -0.0859 -0.4759 -0.0080
13435SOL    HW141725   3.189   1.919   3.288 -0.5180 -2.1238  1.2249
13435SOL    HW241726   3.039   1.900   3.299 -0.8086 -1.2387 -0.8287
13436SOL     OW41727   6.092   4.697   0.868 -0.7156  0.3125  0.3594
13436SOL    HW141728   6.165   4.666   0.813 -0.1017  2.2165  0.0358
13436SOL    HW241729   6.014   4.676   0.817 -0.4222 -1.5312  0.5919
13437SOL     OW41730   4.762   2.475   3.494 -0.0020 -0.1545  0.5008
13437SOL    HW141731   4.707   2.492   3.417  2.0677  0.1060 -1.0321
13437SOL    HW241732   4.752   2.552   3.549 -1.1138 -0.1003  0.2297
13438SOL     OW41733   6.053   7.515   0.054 -0.2188 -0.2739  0.0179
13438SOL    HW141734   6.105   7.595   0.057 -2.2443  1.1489 -0.6314
13438SOL    HW241735   6.080   7.471  -0.026 -0.8207  1.0366 -0.9236
13439SOL     OW41736   3.209   6.470   2.236 -0.1907  0.5245 -0.0110
13439SOL    HW141737   3.224   6.556   2.276  2.5040  0.0395  0.2220
13439SOL    HW241738   3.233   6.407   2.304  2.2208 -0.3244 -1.4917
13440SOL     OW41739   2.493   7.707   6.417 -0.4013 -0.3293 -0.1387
13440SOL    HW141740   2.445   7.721   6.336 -0.4911  0.0095 -0.0296
13440SOL    HW241741   2.585   7.703   6.391 -0.5079 -1.3113 -0.3888
13441SOL     OW41742   5.033   1.536   6.074 -0.1569 -0.1014  0.3070
13441SOL    HW141743   5.028   1.556   6.168 -2.7215 -0.1320  0.2551
13441SOL    HW241744   4.944   1.552   6.042 -0.0007 -2.5534 -1.6343
13442SOL     OW41745   4.049   6.142   5.846 -0.0328 -0.2348  0.3944
13442SOL    HW141746   3.980   6.085   5.880  0.2773 -0.2088  1.0903
13442SOL    HW241747   4.082   6.188   5.923  1.3267 -0.8650  0.2259
13443SOL     OW41748   5.217   1.836   6.385  0.0460  0.4245  0.3756
13443SOL    HW141749   5.153   1.907   6.386  2.8011  3.1192  0.6275
13443SOL    HW241750   5.270   1.853   6.307  0.5247 -1.7040  0.1653
13444SOL     OW41751   1.898   2.040   4.396 -0.5499  0.0538  0.0633
13444SOL    HW141752   1.938   1.954   4.414 -0.2735  0.4636  1.5909
13444SOL    HW241753   1.972   2.098   4.382 -0.6924  0.2582  0.1566
13445SOL     OW41754   7.564   7.641   3.617 -0.3777 -0.1929  0.1677
13445SOL    HW141755   7.634   7.705   3.607  0.2289 -1.0481 -1.3992
13445SOL    HW241756   7.602   7.573   3.673 -1.0479  0.7985  1.8951
13446SOL     OW41757   3.105   2.367   0.760 -0.8244  0.0661  0.2504
13446SOL    HW141758   3.096   2.409   0.846  0.2913  1.1747 -0.1476
13446SOL    HW241759   3.039   2.409   0.706  2.3147  3.9648 -1.0720
13447SOL     OW41760   6.595   7.625   6.528 -0.6968  0.2952 -0.4192
13447SOL    HW141761   6.645   7.560   6.577  0.0456  0.6044 -0.7517
13447SOL    HW241762   6.578   7.583   6.443 -0.5002  0.4098 -0.5155
13448SOL     OW41763   7.490   1.038   2.102  0.4454 -0.4184  0.2605
13448SOL    HW141764   7.541   1.115   2.125  0.0999 -0.2163  0.3563
13448SOL    HW241765   7.400   1.060   2.126  0.1082 -0.3043 -1.0402
13449SOL     OW41766   7.409   6.077   0.858  0.5084 -0.1225  0.5949
13449SOL    HW141767   7.396   6.043   0.769  2.1625  0.0515  0.2520
13449SOL    HW241768   7.321   6.099   0.888 -0.3410 -2.2704 -0.1400
13450SOL     OW41769   6.554   1.898   4.042 -0.5171  0.1854  0.3360
13450SOL    HW141770   6.631   1.850   4.012 -1.2880 -0.0649 -1.4373
13450SOL    HW241771   6.501   1.832   4.088 -1.2534 -0.5830 -1.4974
13451SOL     OW41772   5.097   6.025   0.010 -0.0553  0.0266  0.6810
13451SOL    HW141773   5.019   6.027   0.065  0.2731  0.0750  1.1530
13451SOL    HW241774   5.169   6.010   0.071  0.3433  0.3538  0.2990
13452SOL     OW41775   3.657   3.160   7.082  0.4548 -0.2784  0.1842
13452SOL    HW141776   3.732   3.122   7.038 -0.5816 -0.8085 -1.2053
13452SOL    HW241777   3.604   3.197   7.011 -0.5796  0.1051  1.1238
13453SOL     OW41778   1.494   6.508   1.978  0.4858  0.2895  0.6056
13453SOL    HW141779   1.525   6.504   1.888 -1.0814  0.6046  0.0264
13453SOL    HW241780   1.405   6.541   1.972  0.1440 -0.2139  2.2292
13454SOL     OW41781   6.314   7.102   6.476 -0.0083  0.5039 -0.0722
13454SOL    HW141782   6.340   7.011   6.495  0.7669  0.8802  0.7173
13454SOL    HW241783   6.289   7.138   6.561 -0.4853  0.9951 -0.4116
13455SOL     OW41784   1.051   4.808   2.254 -0.0582  0.6691 -0.2620
13455SOL    HW141785   1.119   4.774   2.312 -2.1446 -1.2362  1.2222
13455SOL    HW241786   0.998   4.866   2.310 -1.1532  0.0905 -0.6721
13456SOL     OW41787   7.136   6.702   4.954  0.0434  0.0523 -0.0593
13456SOL    HW141788   7.077   6.633   4.983  0.4391 -1.4469 -2.5596
13456SOL    HW241789   7.222   6.678   4.989  0.2457 -0.9650 -1.2025
13457SOL     OW41790   8.107   6.490   2.654  0.0964  0.0060  0.2394
13457SOL    HW141791   8.146   6.490   2.741  0.3534 -2.3885  0.1891
13457SOL    HW241792   8.032   6.431   2.662  0.7970 -1.1653 -1.4046
13458SOL     OW41793   3.144   3.658   0.821 -0.6564 -0.8096 -0.6323
13458SOL    HW141794   3.219   3.684   0.874 -0.7573 -2.1097  0.1826
13458SOL    HW241795   3.151   3.712   0.742 -0.6013  1.2990  0.7221
13459SOL     OW41796   2.461   1.844   2.634 -0.0081  0.3060  0.6362
13459SOL    HW141797   2.377   1.817   2.670 -0.0516 -0.2833  0.1053
13459SOL    HW241798   2.499   1.764   2.599  0.6903  0.6013  0.6944
13460SOL     OW41799   4.755   4.801   5.729 -0.0447  0.1804  0.6196
13460SOL    HW141800   4.760   4.783   5.636 -1.0613 -0.3523  0.6506
13460SOL    HW241801   4.846   4.799   5.759  0.4378  1.8827 -0.6077
13461SOL     OW41802   6.985   4.327   3.151 -0.5038  0.2622 -0.3335
13461SOL    HW141803   6.928   4.342   3.226 -2.3583 -1.6046 -1.2768
13461SOL    HW241804   6.928   4.288   3.085  1.6711 -0.7782 -1.7046
13462SOL     OW41805   7.474   6.768   3.557  0.4852  0.3887  0.1988
13462SOL    HW141806   7.506   6.735   3.641 -0.0996 -0.1147  0.2215
13462SOL    HW241807   7.384   6.796   3.574 -0.2966 -1.4420 -0.6717
13463SOL     OW41808   2.860   5.041   3.383 -0.7153  0.1115  0.4252
13463SOL    HW141809   2.955   5.047   3.373 -0.9602  1.0986 -1.9659
13463SOL    HW241810   2.844   4.948   3.401  0.6130 -0.4466 -1.0126
13464SOL     OW41811   7.744   4.651   1.793  0.1332 -0.3800 -0.4813
13464SOL    HW141812   7.659   4.609   1.787 -0.4678  0.7894 -0.4843
13464SOL    HW241813   7.755   4.670   1.886  0.4721 -0.6827 -0.4582
13465SOL     OW41814   7.941   8.190   5.455  0.4997 -0.2982 -0.0354
13465SOL    HW141815   7.903   8.185   5.543  1.3449  1.0536  0.4410
13465SOL    HW241816   8.031   8.220   5.470  0.4521  0.6100 -1.3963
13466SOL     OW41817   4.472   5.388   0.878 -0.3961 -0.1731 -1.0343
13466SOL    HW141818   4.490   5.296   0.895 -0.8560 -0.3290 -1.3648
13466SOL    HW241819   4.376   5.394   0.879 -0.3591  0.3754 -0.6202
13467SOL     OW41820   2.533   4.731   7.366  0.3319 -0.4206 -0.0234
13467SOL    HW141821   2.476   4.655   7.377 -0.9696  0.4088 -0.7856
13467SOL    HW241822   2.474   4.803   7.345  1.6729  0.4432 -1.0579
13468SOL     OW41823   2.974   4.420   6.468 -0.1485 -0.2260  0.4098
13468SOL    HW141824   2.918   4.366   6.523 -0.0576  1.0973  1.8783
13468SOL    HW241825   3.051   4.365   6.451 -0.7089 -1.0893  0.5902
13469SOL     OW41826   5.933   1.910   4.009  0.8560  0.0387  0.8742
13469SOL    HW141827   5.919   1.954   3.925  3.1848 -0.1190  0.3252
13469SOL    HW241828   5.882   1.960   4.072 -1.1630  0.0085 -0.6533
13470SOL     OW41829   4.542   3.928   7.244  1.1486  0.4324  0.2211
13470SOL    HW141830   4.496   3.918   7.328  0.6832  0.5090 -0.0232
13470SOL    HW241831   4.634   3.938   7.269  0.9190  1.3047  0.7794
13471SOL     OW41832   1.017   2.407   2.601 -0.0934  0.5251  0.2731
13471SOL    HW141833   0.958   2.347   2.645  1.0839  0.2958  1.5979
13471SOL    HW241834   1.023   2.373   2.512 -0.5764 -0.4582  0.6062
13472SOL     OW41835   0.816   4.150   3.830  0.7340 -0.3112  0.4003
13472SOL    HW141836   0.769   4.233   3.831  0.4033 -0.4979  0.8388
13472SOL    HW241837   0.789   4.107   3.749 -1.8226 -1.5124  1.7765
13473SOL     OW41838   4.296   1.388   5.526 -0.2699  0.5713 -0.0562
13473SOL    HW141839   4.238   1.399   5.601 -0.5066  0.1519 -0.1708
13473SOL    HW241840   4.268   1.455   5.464 -2.1759 -1.0397 -1.0520
13474SOL     OW41841   6.859   5.663   3.612 -0.0521 -0.4143 -0.0325
13474SOL    HW141842   6.898   5.731   3.556 -2.1866  1.5381  0.6683
13474SOL    HW241843   6.928   5.643   3.676  1.0474  0.1927 -0.9702
13475SOL     OW41844   4.970   4.318   3.452  0.4580 -0.2456  0.8918
13475SOL    HW141845   5.008   4.234   3.428  1.7134  0.4022  0.5263
13475SOL    HW241846   5.043   4.367   3.491  0.3238  1.4655 -0.8768
13476SOL     OW41847   2.073   6.602   5.858 -0.3107  0.4673  0.3770
13476SOL    HW141848   2.073   6.686   5.903  0.2632  0.5706  0.1959
13476SOL    HW241849   2.151   6.605   5.802 -1.1068  0.4290 -0.7713
13477SOL     OW41850   0.424   7.346   3.295 -0.1535 -0.2736 -0.1373
13477SOL    HW141851   0.443   7.270   3.240 -0.4488 -0.3728 -0.1049
13477SOL    HW241852   0.425   7.420   3.234  0.5752 -0.2417 -0.0941
13478SOL     OW41853   1.793   4.697   3.432  0.2729  0.1686 -0.1206
13478SOL    HW141854   1.887   4.700   3.416  0.1555  0.3575 -0.7966
13478SOL    HW241855   1.757   4.766   3.376 -0.2389  0.2687  0.3304
13479SOL     OW41856   6.169   7.631   7.319 -0.1288  0.0437 -0.1441
13479SOL    HW141857   6.170   7.609   7.413  0.3213  0.9774  0.0802
13479SOL    HW241858   6.259   7.615   7.290 -0.0560  0.5625 -0.2155
13480SOL     OW41859   5.558   6.255   6.453 -0.1723  0.3559 -0.6448
13480SOL    HW141860   5.507   6.185   6.493  0.0377  0.3943 -0.3049
13480SOL    HW241861   5.497   6.329   6.447  0.3619  1.0776  1.6645
13481SOL     OW41862   4.401   2.276   8.224 -0.3971  0.6852 -0.1525
13481SOL    HW141863   4.487   2.300   8.261 -0.1406  1.3123 -1.1189
13481SOL    HW241864   4.348   2.254   8.300  0.6202  0.2924  0.4705
13482SOL     OW41865   5.389   7.986   1.889  0.2666 -0.1398 -0.1178
13482SOL    HW141866   5.347   8.046   1.952 -0.7943  0.0435 -0.9687
13482SOL    HW241867   5.401   7.905   1.939  1.9602  0.8073  1.1321
13483SOL     OW41868   4.866   3.660   0.255 -0.4198  0.6011  0.0595
13483SOL    HW141869   4.842   3.666   0.348 -1.4483  1.7755 -0.2526
13483SOL    HW241870   4.957   3.632   0.255  0.1595  2.3081  1.4834
13484SOL     OW41871   4.614   4.158   1.672 -0.3247 -0.3138  0.5292
13484SOL    HW141872   4.530   4.200   1.693 -0.1123  0.0422  0.6662
13484SOL    HW241873   4.594   4.064   1.671 -0.7395 -0.2277  0.5018
13485SOL     OW41874   5.081   0.448   3.477 -0.3895 -0.4232 -0.4707
13485SOL    HW141875   5.155   0.499   3.511 -0.5903 -0.1569 -0.4221
13485SOL    HW241876   5.037   0.508   3.417 -1.6378  0.1033  0.8910
13486SOL     OW41877   0.279   2.372   3.826 -0.1679 -0.3439  0.1068
13486SOL    HW141878   0.208   2.339   3.771 -0.7865 -0.1052  0.7576
13486SOL    HW241879   0.356   2.368   3.769 -0.5474 -1.3166 -0.3697
13487SOL     OW41880   8.282   0.978   2.879 -0.0339  0.0611 -0.4002
13487SOL    HW141881   8.235   1.061   2.872 -0.6593 -0.1614  0.7762
13487SOL    HW241882   8.267   0.934   2.796  0.3714  1.1521 -1.0669
13488SOL     OW41883   3.867   4.852   4.885 -0.1750 -0.3098 -0.2167
13488SOL    HW141884   3.936   4.905   4.847 -0.5874 -1.0255 -2.0722
13488SOL    HW241885   3.786   4.897   4.862 -0.4047  0.2386  1.4780
13489SOL     OW41886   4.362   4.598   4.823  0.2697 -0.2925 -0.1803
13489SOL    HW141887   4.290   4.648   4.783  0.9464 -0.4057 -1.5870
13489SOL    HW241888   4.419   4.666   4.859 -0.6957 -0.2111  1.2878
13490SOL     OW41889   0.723   8.255   5.452  0.2857 -0.3093  0.0803
13490SOL    HW141890   0.792   8.301   5.405 -0.1257  1.4670  1.1249
13490SOL    HW241891   0.672   8.211   5.384  0.6892  0.8142 -0.9645
13491SOL     OW41892   6.948   7.122   5.254 -0.4468  0.3678  0.1433
13491SOL    HW141893   7.003   7.157   5.184 -2.3684  1.7343 -0.7689
13491SOL    HW241894   6.959   7.027   5.248  0.6737  0.5488 -0.9421
13492SOL     OW41895   4.504   3.343   5.710 -0.1327 -0.5872  0.4441
13492SOL    HW141896   4.580   3.400   5.697 -0.8077  0.3736  0.5521
13492SOL    HW241897   4.521   3.300   5.794  0.4704 -0.6693  0.2821
13493SOL     OW41898   7.122   6.563   0.543 -0.5127 -0.3669 -0.1977
13493SOL    HW141899   7.142   6.473   0.567 -2.1380 -0.8806 -0.5945
13493SOL    HW241900   7.140   6.614   0.621 -1.3797 -1.3356  0.6642
13494SOL     OW41901   0.727   5.089   2.238 -0.0847 -0.2206  0.4942
13494SOL    HW141902   0.816   5.086   2.204  0.0742 -0.0574  0.8936
13494SOL    HW241903   0.719   5.175   2.280  0.4408 -1.2096  2.7728
13495SOL     OW41904   7.911   7.898   7.686 -0.7918 -0.1413 -0.4994
13495SOL    HW141905   7.905   7.840   7.762 -1.2501  0.4748 -0.0631
13495SOL    HW241906   7.895   7.840   7.611 -0.2980 -0.7564 -0.1340
13496SOL     OW41907   0.113   2.936   7.756  0.5704 -0.2770  0.0467
13496SOL    HW141908   0.056   2.911   7.829  0.4972  0.7969  0.3847
13496SOL    HW241909   0.080   2.886   7.682 -1.2214  0.7375  0.0895
13497SOL     OW41910   7.949   2.929   3.436 -0.0493  0.2425  0.6807
13497SOL    HW141911   7.896   2.939   3.514 -1.6804 -0.0121 -0.3431
13497SOL    HW241912   7.906   2.982   3.370  0.8058 -0.2029 -0.2775
13498SOL     OW41913   1.423   6.187   8.350  0.8551 -0.4217  0.4351
13498SOL    HW141914   1.343   6.205   8.301  0.4476 -0.9861  0.8855
13498SOL    HW241915   1.476   6.133   8.291  1.0008  0.1268  0.0568
13499SOL     OW41916   5.291   4.891   6.568 -0.7124 -0.4155 -0.4011
13499SOL    HW141917   5.266   4.981   6.585  0.0082 -0.1389 -0.7676
13499SOL    HW241918   5.333   4.862   6.649 -0.9543 -0.4347 -0.2796
13500SOL     OW41919   5.304   3.331   1.340 -0.1384 -0.1951  0.3838
13500SOL    HW141920   5.323   3.374   1.424  1.1483 -1.0809  0.5786
13500SOL    HW241921   5.379   3.353   1.285 -0.4801 -0.4787 -0.2013
13501SOL     OW41922   8.227   6.209   6.451  0.0159 -0.2899  0.1523
13501SOL    HW141923   8.257   6.135   6.399  1.5756  0.5939 -0.2940
13501SOL    HW241924   8.289   6.213   6.524 -0.5437  0.0787  0.6117
13502SOL     OW41925   1.982   6.135   0.631  0.2615 -0.0671 -0.2031
13502SOL    HW141926   2.040   6.174   0.565  3.5454 -3.0448  0.6247
13502SOL    HW241927   1.919   6.084   0.580  1.2185 -0.3575 -1.1340
13503SOL     OW41928   4.417   0.349   6.441 -0.0896 -0.4986 -0.3444
13503SOL    HW141929   4.436   0.434   6.402 -3.0784  0.5689  0.2548
13503SOL    HW241930   4.467   0.349   6.523 -0.3034  0.8632 -0.1835
13504SOL     OW41931   0.716   4.186   2.836  0.1366 -0.8889 -0.3576
13504SOL    HW141932   0.775   4.128   2.788 -0.1042 -0.1888 -1.5524
13504SOL    HW241933   0.658   4.128   2.885  0.3814 -1.6314 -0.9385
13505SOL     OW41934   0.175   5.301   5.325 -0.3519  0.5693  0.2867
13505SOL    HW141935   0.238   5.289   5.254  1.4530 -1.0265  2.0485
13505SOL    HW241936   0.104   5.239   5.306 -0.6191  1.1982 -0.8463
13506SOL     OW41937   5.501   0.330   5.390  0.1989 -0.1359  0.9269
13506SOL    HW141938   5.470   0.283   5.312  0.6595  0.5549  0.3148
13506SOL    HW241939   5.438   0.401   5.401  0.0433 -0.3265  1.2865
13507SOL     OW41940   4.030   2.006   7.413 -0.0861 -0.0407  0.5129
13507SOL    HW141941   4.014   2.040   7.501 -3.0949 -0.9037  0.4229
13507SOL    HW241942   4.090   2.069   7.373 -0.8053  1.8705  2.2994
13508SOL     OW41943   3.487   6.158   3.824 -0.0988  0.0764 -0.2488
13508SOL    HW141944   3.516   6.074   3.787  1.0203  0.0943  0.5264
13508SOL    HW241945   3.443   6.134   3.905 -1.3020  0.1373 -0.8624
13509SOL     OW41946   4.759   5.402   4.001  0.5161 -0.0102  0.0709
13509SOL    HW141947   4.759   5.399   3.906 -0.2568 -0.1205  0.0728
13509SOL    HW241948   4.818   5.331   4.028  1.0548  0.2771 -0.3228
13510SOL     OW41949   7.096   2.348   5.602  0.0507  0.4119 -0.0810
13510SOL    HW141950   7.076   2.269   5.652 -2.0896 -0.5431 -2.2437
13510SOL    HW241951   7.011   2.377   5.568  1.2241  1.6227 -2.2087
13511SOL     OW41952   1.765   5.145   2.493 -0.3396 -0.2098 -0.3730
13511SOL    HW141953   1.721   5.109   2.570 -1.0361 -0.1897 -0.7464
13511SOL    HW241954   1.825   5.210   2.527 -0.5943 -0.2520  0.1593
13512SOL     OW41955   6.614   0.626   4.878  0.3069 -0.5378  0.0168
13512SOL    HW141956   6.542   0.667   4.927 -1.3871 -1.0601 -1.9120
13512SOL    HW241957   6.679   0.695   4.869 -0.2248  0.1627  1.2167
13513SOL     OW41958   2.493   0.029   3.999  0.0106 -0.5264 -0.3177
13513SOL    HW141959   2.506  -0.058   3.962 -0.4146 -1.0386  0.6906
13513SOL    HW241960   2.416   0.063   3.954 -0.2948 -0.9983 -0.1591
13514SOL     OW41961   4.603   7.171   5.867 -0.0504 -0.3422 -0.1114
13514SOL    HW141962   4.515   7.144   5.890 -0.5401  0.9141 -0.4049
13514SOL    HW241963   4.650   7.176   5.951 -0.4044 -0.5326  0.0976
13515SOL     OW41964   7.996   1.459   1.458 -0.5698  0.1929 -0.6504
13515SOL    HW141965   7.935   1.390   1.482  1.0057 -0.3680  2.2568
13515SOL    HW241966   7.969   1.534   1.511 -0.1437  0.6628 -1.0914
13516SOL     OW41967   5.041   5.849   7.256  0.4501  0.0297  0.0577
13516SOL    HW141968   4.980   5.832   7.184  0.5165 -0.8364  0.1960
13516SOL    HW241969   5.001   5.921   7.305 -0.3933 -0.4344  0.0703
13517SOL     OW41970   8.366   0.614   6.385 -0.0266 -0.3294 -0.3307
13517SOL    HW141971   8.288   0.664   6.366 -1.7842 -2.2437  1.3025
13517SOL    HW241972   8.356   0.533   6.335  1.8727  0.1207 -1.5496
13518SOL     OW41973   3.362   3.305   2.503 -0.2128  0.3572 -0.4105
13518SOL    HW141974   3.440   3.360   2.500 -1.0599  1.6352  0.0405
13518SOL    HW241975   3.391   3.225   2.548  0.3156  1.7581  1.9497
13519SOL     OW41976   4.210   0.400   2.889  0.1100  0.3491 -1.2354
13519SOL    HW141977   4.256   0.474   2.929 -1.0713  0.8929 -0.8397
13519SOL    HW241978   4.249   0.391   2.802  1.0363  0.7099 -0.8701
13520SOL     OW41979   6.456   2.405   5.615  0.2337 -0.1183 -0.6736
13520SOL    HW141980   6.497   2.386   5.530 -0.1246 -0.5893 -0.7442
13520SOL    HW241981   6.423   2.494   5.607  2.3930  0.7990 -0.1750
13521SOL     OW41982   3.234   7.899   5.150  0.2350 -0.1333 -0.2074
13521SOL    HW141983   3.183   7.933   5.077  0.9117  2.2744  0.3507
13521SOL    HW241984   3.174   7.843   5.198 -2.0134  2.6221  0.4564
13522SOL     OW41985   4.230   8.200   8.237 -0.2738 -0.1064 -0.1135
13522SOL    HW141986   4.269   8.129   8.186  0.4826 -1.0015  1.6334
13522SOL    HW241987   4.140   8.170   8.253 -0.7347  0.4902 -1.4350
13523SOL     OW41988   4.362   1.023   4.219  0.0479 -0.1678 -0.0992
13523SOL    HW141989   4.353   0.964   4.293 -0.1364  1.3814  1.1542
13523SOL    HW241990   4.361   1.111   4.257 -0.0498  0.6779 -1.9328
13524SOL     OW41991   7.575   0.880   7.992 -0.2507  0.7791 -0.1787
13524SOL    HW141992   7.669   0.867   7.989 -0.2124  0.8687  0.5527
13524SOL    HW241993   7.555   0.926   7.911  0.3712  1.0154 -0.2014
13525SOL     OW41994   7.814   0.810   8.092  0.6289  0.3579  0.3019
13525SOL    HW141995   7.786   0.768   8.174 -0.6358 -1.2162 -0.8648
13525SOL    HW241996   7.906   0.787   8.083  0.7995  0.5965  1.2847
13526SOL     OW41997   5.645   5.288   7.470 -0.1303 -0.3387  0.3620
13526SOL    HW141998   5.735   5.280   7.500 -0.1812  3.1377  1.8829
13526SOL    HW241999   5.637   5.380   7.442 -3.3373 -0.3754  0.8132
13527SOL     OW42000   2.042   5.527   4.592  0.6457 -0.0444 -0.2092
13527SOL    HW142001   2.086   5.450   4.628 -0.0795 -0.6653 -0.6336
13527SOL    HW242002   1.998   5.496   4.513  2.3218  1.3095 -1.7958
13528SOL     OW42003   7.263   6.738   2.625 -0.0177  0.1270 -0.2218
13528SOL    HW142004   7.315   6.755   2.547 -3.3580  0.1372 -2.6786
13528SOL    HW242005   7.178   6.780   2.608 -1.2666 -0.7246  3.0072
13529SOL     OW42006   6.303   2.652   0.760  0.3508  0.0947  0.2906
13529SOL    HW142007   6.292   2.640   0.665  2.3330 -0.3877  0.0722
13529SOL    HW242008   6.397   2.641   0.774  0.1050  0.3049  2.3117
13530SOL     OW42009   0.696   1.589   5.725  0.6480  0.3140 -0.2876
13530SOL    HW142010   0.663   1.564   5.638  1.5066  0.2230 -0.5966
13530SOL    HW242011   0.756   1.518   5.749  0.5954  0.4564  0.2810
13531SOL     OW42012   0.063   3.354   2.680 -0.1682 -0.2172  0.0026
13531SOL    HW142013   0.002   3.410   2.728 -0.0964 -0.9687  0.9954
13531SOL    HW242014   0.088   3.407   2.604 -0.4802  0.9062  0.6468
13532SOL     OW42015   8.119   1.386   3.684 -0.9232 -0.1067 -0.0678
13532SOL    HW142016   8.161   1.372   3.769 -0.0406 -1.7323 -0.7105
13532SOL    HW242017   8.029   1.357   3.697 -1.0966  0.6682  0.5692
13533SOL     OW42018   3.569   1.416   7.600  0.8273 -0.3672  0.0513
13533SOL    HW142019   3.531   1.348   7.545  0.0014 -0.7053  1.0191
13533SOL    HW242020   3.653   1.437   7.557 -0.6891  0.9177 -2.5327
13534SOL     OW42021   4.479   4.465   0.220  0.1615  0.0285  0.2379
13534SOL    HW142022   4.500   4.549   0.261 -2.3072  0.3772  0.9629
13534SOL    HW242023   4.502   4.400   0.287  1.4370  0.1600 -0.0581
13535SOL     OW42024   1.122   5.010   5.780 -0.1860 -0.4020  0.4826
13535SOL    HW142025   1.212   5.012   5.748 -0.3033  0.8430  0.2008
13535SOL    HW242026   1.082   5.089   5.745 -1.3120 -0.7893  0.8525
13536SOL     OW42027   7.996   6.986   4.681  0.1099  0.1057  0.2579
13536SOL    HW142028   7.982   6.939   4.599 -2.1201  0.3238  0.4364
13536SOL    HW242029   8.078   7.034   4.668 -0.9090  1.3474 -2.4637
13537SOL     OW42030   6.738   0.435   2.520 -0.1239 -0.3188  0.1051
13537SOL    HW142031   6.646   0.445   2.546  0.7829  1.8201  2.9196
13537SOL    HW242032   6.773   0.368   2.579  0.7130  0.7189  0.8062
13538SOL     OW42033   1.039   8.326   4.783  0.2009 -0.0879 -0.0574
13538SOL    HW142034   1.037   8.300   4.691 -0.8173  0.0065 -0.0718
13538SOL    HW242035   1.002   8.252   4.830  2.6310 -1.0292  0.5415
13539SOL     OW42036   0.072   3.364   7.348 -0.1197 -0.3618  0.1190
13539SOL    HW142037   0.013   3.425   7.393  0.7514  1.3121 -0.9002
13539SOL    HW242038   0.015   3.296   7.313 -1.2894  0.5397  0.2199
13540SOL     OW42039   0.901   7.972   5.251 -0.0972 -0.0088  0.3389
13540SOL    HW142040   0.822   7.931   5.217 -0.3265  0.8531 -0.1738
13540SOL    HW242041   0.945   7.902   5.300 -1.8061 -0.1697  1.7155
13541SOL     OW42042   4.589   5.600   7.589  0.8270 -0.0299 -0.5757
13541SOL    HW142043   4.574   5.693   7.602 -0.1756  0.0254 -1.8522
13541SOL    HW242044   4.673   5.582   7.632  1.8493  1.7889 -1.6840
13542SOL     OW42045   4.713   5.916   2.976 -0.5396 -0.6478 -0.0633
13542SOL    HW142046   4.744   5.919   3.066  0.1984  0.5635 -0.3444
13542SOL    HW242047   4.790   5.891   2.924 -0.5961  0.0419 -0.4996
13543SOL     OW42048   4.001   5.341   0.579 -0.5414 -0.0317  0.2212
13543SOL    HW142049   4.068   5.309   0.639 -0.4245 -1.9287 -0.8263
13543SOL    HW242050   4.037   5.323   0.492 -1.8903  0.0156 -0.3751
13544SOL     OW42051   2.189   4.961   5.904 -0.3746  0.1498 -0.3578
13544SOL    HW142052   2.159   4.916   5.825  0.5919  0.8351 -1.1359
13544SOL    HW242053   2.248   5.029   5.872  2.3667 -1.3831  1.0844
13545SOL     OW42054   4.093   8.283   2.711 -0.5167 -0.0414  0.4421
13545SOL    HW142055   4.025   8.263   2.647  0.0620  0.9177 -0.5088
13545SOL    HW242056   4.143   8.202   2.719 -0.2354 -0.0094 -0.7898
13546SOL     OW42057   1.557   1.915   6.113 -0.3413 -0.1140 -0.1535
13546SOL    HW142058   1.613   1.837   6.118  0.6697  0.6320  0.4371
13546SOL    HW242059   1.611   1.986   6.148 -1.5323  0.7015  0.0926
13547SOL     OW42060   4.117   1.960   1.040 -0.2830  0.0500 -0.2425
13547SOL    HW142061   4.069   1.881   1.015 -0.6312 -0.4248  1.8102
13547SOL    HW242062   4.051   2.016   1.081  0.5256  0.1474  0.9752
13548SOL     OW42063   3.671   1.914   1.255  0.3733  0.2388 -0.6110
13548SOL    HW142064   3.655   1.932   1.162  0.3133  0.6847 -0.5171
13548SOL    HW242065   3.652   1.997   1.299  2.1043  0.5656 -0.4061
13549SOL     OW42066   5.685   4.017   7.556 -0.3277  0.0683  0.0779
13549SOL    HW142067   5.632   4.012   7.636 -3.5668  1.1234 -1.7991
13549SOL    HW242068   5.735   3.935   7.556 -1.4139 -0.7101  2.3843
13550SOL     OW42069   5.070   5.523   2.101 -0.1974 -0.0537 -0.1438
13550SOL    HW142070   5.144   5.565   2.145 -2.5593  0.0931  4.2892
13550SOL    HW242071   5.096   5.431   2.094  1.1854  0.3541 -0.6115
13551SOL     OW42072   8.354   4.872   8.015 -0.7395 -0.4292 -0.2143
13551SOL    HW142073   8.441   4.907   8.035 -0.4078 -2.6947  3.1636
13551SOL    HW242074   8.355   4.860   7.920  2.6566 -0.3676 -0.3337
13552SOL     OW42075   1.553   7.282   6.457 -0.0610  0.1648  0.1491
13552SOL    HW142076   1.624   7.218   6.469 -0.0800 -0.6787 -3.2703
13552SOL    HW242077   1.598   7.364   6.437  0.0382 -0.1856 -1.2035
13553SOL     OW42078   6.244   8.157   1.022  0.2044  0.0477  0.1603
13553SOL    HW142079   6.311   8.101   0.982 -0.0866 -1.4681  1.6799
13553SOL    HW242080   6.186   8.096   1.067 -0.5415  1.5426  1.3038
13554SOL     OW42081   0.884   0.422   0.867  0.1451 -0.4674  0.2015
13554SOL    HW142082   0.837   0.341   0.888 -0.0214 -0.8389 -1.4576
13554SOL    HW242083   0.976   0.396   0.866  0.2815 -0.1252  1.7753
13555SOL     OW42084   2.253   1.922   2.431 -0.3183 -0.7917  0.3214
13555SOL    HW142085   2.169   1.968   2.431 -0.9360 -1.8305 -1.4668
13555SOL    HW242086   2.318   1.991   2.443 -1.3772  0.0899  1.2459
13556SOL     OW42087   1.862   5.204   3.133  0.2886 -0.3891  0.3443
13556SOL    HW142088   1.876   5.241   3.220 -0.0873 -0.6377  0.5113
13556SOL    HW242089   1.946   5.217   3.088 -0.1272  1.5932  0.0363
13557SOL     OW42090   5.094   7.613   6.218  0.3934  0.5014  0.3783
13557SOL    HW142091   5.070   7.530   6.176  1.8201  0.5808 -0.6557
13557SOL    HW242092   5.055   7.680   6.163 -1.5606  0.5598  1.7266
13558SOL     OW42093   8.080   1.039   6.925 -0.1913 -0.1986  0.3664
13558SOL    HW142094   8.018   1.038   6.852 -0.9637  0.4576  1.0017
13558SOL    HW242095   8.162   1.010   6.886 -1.1944 -2.5232 -0.2080
13559SOL     OW42096   5.878   5.658   4.910  0.0818  0.6647 -0.2136
13559SOL    HW142097   5.852   5.731   4.966 -1.0947  1.3432 -1.5699
13559SOL    HW242098   5.947   5.693   4.854  0.7919  0.1800  0.3293
13560SOL     OW42099   2.289   2.288   6.444 -0.4140  1.1119 -0.6478
13560SOL    HW142100   2.262   2.378   6.457 -0.4409  1.0477 -0.2387
13560SOL    HW242101   2.371   2.280   6.492 -0.1789  1.0381 -1.0563
13561SOL     OW42102   3.438   1.487   3.742  0.1200 -0.2860  0.9949
13561SOL    HW142103   3.377   1.534   3.684 -0.7324  0.2710  2.3124
13561SOL    HW242104   3.482   1.424   3.684 -0.1303  0.7835 -0.4208
13562SOL     OW42105   7.592   7.034   3.500 -0.4536 -0.2005 -0.0019
13562SOL    HW142106   7.558   6.946   3.488  2.1218 -1.3708  0.7333
13562SOL    HW242107   7.566   7.058   3.589  1.4929 -1.5373  0.9741
13563SOL     OW42108   1.104   5.538   6.075 -0.1065 -0.2180 -0.0773
13563SOL    HW142109   1.166   5.609   6.088 -1.4686  1.4472 -2.1899
13563SOL    HW242110   1.116   5.510   5.984 -1.4655 -0.8191 -0.1126
13564SOL     OW42111   3.070   2.127   3.815  0.4053  0.0272  0.1574
13564SOL    HW142112   2.998   2.179   3.850 -0.0390  0.0964 -0.8151
13564SOL    HW242113   3.083   2.057   3.879 -0.6677 -0.1015  0.2512
13565SOL     OW42114   4.107   6.912   8.370 -0.1609  0.0014 -0.0676
13565SOL    HW142115   4.187   6.861   8.380 -0.4001 -0.7320 -1.6363
13565SOL    HW242116   4.137   7.002   8.356  0.3664 -0.1952 -0.2119
13566SOL     OW42117   2.161   1.963   5.573 -0.3541 -0.0657 -0.3460
13566SOL    HW142118   2.252   1.941   5.591 -0.5770 -1.0552 -0.3485
13566SOL    HW242119   2.130   1.890   5.519 -1.1920  0.1728 -0.1954
13567SOL     OW42120   6.139   2.104   3.438  0.1724  0.3282  0.0852
13567SOL    HW142121   6.130   2.164   3.364 -0.8418 -4.2538 -4.0155
13567SOL    HW242122   6.049   2.077   3.458  0.5390  0.5755  2.2820
13568SOL     OW42123   5.513   0.995   4.273 -0.3248  0.2071  0.6184
13568SOL    HW142124   5.532   0.921   4.331 -2.8713  0.5202  1.9764
13568SOL    HW242125   5.420   0.985   4.251 -0.4143  2.3323 -0.1774
13569SOL     OW42126   0.788   2.146   5.653 -0.5136  0.2363  0.1407
13569SOL    HW142127   0.801   2.052   5.641  3.5848  0.3885  1.7395
13569SOL    HW242128   0.768   2.156   5.746 -0.7231  0.9672  0.0223
13570SOL     OW42129   7.923   6.726   1.916  0.0448  0.3199  0.2094
13570SOL    HW142130   7.847   6.677   1.884  0.8258 -2.2428  2.0051
13570SOL    HW242131   7.987   6.720   1.844 -0.7194  0.7816 -0.5221
13571SOL     OW42132   3.221   2.900   4.056  0.2874  0.3169 -0.3979
13571SOL    HW142133   3.312   2.872   4.069 -0.3339 -0.7603  2.2811
13571SOL    HW242134   3.179   2.825   4.014  0.6066  0.8833 -1.8077
13572SOL     OW42135   6.086   3.663   6.931 -0.1625  0.0329 -0.0664
13572SOL    HW142136   6.169   3.648   6.976  1.2025  1.8296 -1.8746
13572SOL    HW242137   6.047   3.575   6.924  2.2229 -1.0677 -0.4074
13573SOL     OW42138   3.846   4.502   4.406 -0.0676 -0.2041 -0.1527
13573SOL    HW142139   3.783   4.446   4.361  2.3615 -3.2824 -0.0543
13573SOL    HW242140   3.907   4.529   4.338  0.7132 -0.6004  0.3683
13574SOL     OW42141   3.133   0.812   1.350  0.2041 -0.2060  0.0838
13574SOL    HW142142   3.103   0.745   1.288  1.8828 -1.8748  0.9533
13574SOL    HW242143   3.220   0.782   1.376 -0.0807  0.9218  2.5558
13575SOL     OW42144   8.085   5.224   7.583  0.1330 -0.6120 -0.0785
13575SOL    HW142145   8.150   5.190   7.522  0.7152  0.1303  0.1099
13575SOL    HW242146   8.122   5.307   7.614 -0.4852 -0.6211  0.7250
13576SOL     OW42147   1.569   7.729   0.451 -0.0800 -0.2023  0.1308
13576SOL    HW142148   1.516   7.745   0.374 -1.2061  1.4105  1.1831
13576SOL    HW242149   1.659   7.724   0.418 -0.5282  0.4785 -1.2641
13577SOL     OW42150   0.993   0.624   2.294  0.0341  0.1915  0.1927
13577SOL    HW142151   1.011   0.676   2.372 -1.1368  1.9855 -0.6544
13577SOL    HW242152   0.985   0.689   2.224 -2.4381 -1.0121 -0.7703
13578SOL     OW42153   0.951   6.678   2.786  0.1278 -0.7288 -0.5764
13578SOL    HW142154   0.952   6.698   2.692  0.4258 -0.4117 -0.5097
13578SOL    HW242155   1.024   6.729   2.821 -0.5565 -0.1067 -0.0283
13579SOL     OW42156   3.898   0.078   0.950 -0.2735 -0.9273 -0.2350
13579SOL    HW142157   3.947   0.160   0.943 -1.3722 -0.0893  1.2606
13579SOL    HW242158   3.946   0.017   0.894  1.2453  0.4097 -0.4864
13580SOL     OW42159   2.486   8.362   2.252 -0.0445 -0.4644 -0.5710
13580SOL    HW142160   2.441   8.446   2.246 -0.2885 -0.5805 -0.3560
13580SOL    HW242161   2.569   8.383   2.295 -0.4815 -0.4735  0.2984
13581SOL     OW42162   6.830   4.597   6.964  0.2134 -0.0216 -0.6365
13581SOL    HW142163   6.874   4.553   6.891  1.7562 -1.5153  1.1102
13581SOL    HW242164   6.823   4.529   7.032 -1.2955  1.2802  0.5831
13582SOL     OW42165   7.639   1.859   2.584 -0.5273 -0.2828  0.0006
13582SOL    HW142166   7.640   1.863   2.680  0.7390  0.2190 -0.0125
13582SOL    HW242167   7.642   1.766   2.564  0.7708 -0.3676  0.4746
13583SOL     OW42168   0.238   3.958   3.356 -0.2511 -0.2571  0.4894
13583SOL    HW142169   0.211   4.049   3.341 -0.6002 -0.0433  2.2169
13583SOL    HW242170   0.156   3.909   3.361 -0.1353 -0.4084  1.0100
13584SOL     OW42171   0.433   3.591   1.072  0.5651 -0.0676 -0.4076
13584SOL    HW142172   0.413   3.497   1.068 -0.4801  0.0483  1.1667
13584SOL    HW242173   0.350   3.632   1.098  0.2198  1.6523 -3.6494
13585SOL     OW42174   0.880   7.610   5.293  0.8998  0.0348 -0.3348
13585SOL    HW142175   0.786   7.611   5.274  1.0189  0.7074 -0.8822
13585SOL    HW242176   0.886   7.563   5.377  0.1064 -0.2525 -0.4276
13586SOL     OW42177   6.472   4.706   1.275  0.4499 -0.8083 -0.7875
13586SOL    HW142178   6.443   4.753   1.353  0.0647  0.3861 -1.6096
13586SOL    HW242179   6.393   4.695   1.222  0.9912  0.0706 -1.8325
13587SOL     OW42180   6.296   0.717   0.881 -0.2179  0.0313 -0.2287
13587SOL    HW142181   6.371   0.770   0.857  0.3714 -1.7502 -2.7243
13587SOL    HW242182   6.333   0.632   0.904 -1.3473 -0.2490  0.6661
13588SOL     OW42183   3.003   0.153   2.576  0.0590 -0.3107  0.0927
13588SOL    HW142184   3.084   0.188   2.611 -0.2522  1.4137 -0.8045
13588SOL    HW242185   3.027   0.119   2.489 -0.2860  0.8686 -0.4837
13589SOL     OW42186   7.430   4.937   0.382  0.3237 -0.2085 -0.0831
13589SOL    HW142187   7.366   5.007   0.399  1.3578  0.5622  0.7673
13589SOL    HW242188   7.377   4.862   0.357 -0.8610  0.6908 -0.3817
13590SOL     OW42189   0.721   3.978   0.293 -0.3035 -0.4234 -0.5264
13590SOL    HW142190   0.645   4.012   0.341 -0.7713 -0.4193 -1.2629
13590SOL    HW242191   0.733   4.039   0.220 -0.4774 -1.2300 -1.2358
13591SOL     OW42192   8.000   1.492   4.199 -0.4274 -0.0419 -0.6759
13591SOL    HW142193   7.988   1.405   4.236 -1.0896  0.5543  0.5678
13591SOL    HW242194   7.970   1.552   4.267  1.0676  1.2102 -1.0606
13592SOL     OW42195   8.046   7.847   3.882 -0.0267 -0.0551 -0.0658
13592SOL    HW142196   8.132   7.807   3.874 -0.4029 -0.8591 -0.2376
13592SOL    HW242197   8.055   7.933   3.841  0.6155 -0.2481 -0.3407
13593SOL     OW42198   6.513   2.719   1.892  0.4413 -0.5578  0.7044
13593SOL    HW142199   6.463   2.675   1.824  1.4076  0.3572 -0.6741
13593SOL    HW242200   6.449   2.744   1.958 -1.0686  1.0034 -1.2206
13594SOL     OW42201   4.727   0.946   3.151  0.6643  0.1274 -0.5549
13594SOL    HW142202   4.741   1.011   3.220 -0.0788 -1.0198  0.7486
13594SOL    HW242203   4.646   0.973   3.108  1.4054  1.1391 -1.3366
13595SOL     OW42204   3.668   3.389   0.251 -0.3653 -0.2369  0.3234
13595SOL    HW142205   3.699   3.326   0.185 -0.0958 -0.5317  0.7279
13595SOL    HW242206   3.741   3.398   0.312 -0.4042  0.4674  0.2798
13596SOL     OW42207   4.219   1.722   5.691  0.1577 -0.3029 -0.0905
13596SOL    HW142208   4.213   1.634   5.654 -2.3655 -0.6622  1.0006
13596SOL    HW242209   4.208   1.709   5.785 -1.1342  1.2498  0.0071
13597SOL     OW42210   8.285   7.308   6.058 -0.1324  0.2692 -0.6985
13597SOL    HW142211   8.240   7.280   6.138 -0.8245  2.7668 -0.0961
13597SOL    HW242212   8.368   7.262   6.060 -0.5112 -0.4364  0.9972
13598SOL     OW42213   1.625   3.166   1.899 -0.0011 -0.3603 -0.2386
13598SOL    HW142214   1.688   3.095   1.907  0.6157  0.2227  0.1647
13598SOL    HW242215   1.616   3.181   1.805 -0.8388 -1.5763 -0.3822
13599SOL     OW42216   6.898   2.859   3.416  0.0412  0.0306 -0.0023
13599SOL    HW142217   6.992   2.876   3.426 -0.1117  0.7313  0.2345
13599SOL    HW242218   6.881   2.872   3.323  0.6037 -2.2804 -0.5053
13600SOL     OW42219   7.670   3.898   6.502 -0.2727 -0.4951  0.2873
13600SOL    HW142220   7.715   3.818   6.474  1.9669  0.6295  0.4986
13600SOL    HW242221   7.704   3.967   6.446 -1.9122  0.4126  0.3423
13601SOL     OW42222   3.575   0.863   7.794  0.0292 -0.2537  0.4738
13601SOL    HW142223   3.620   0.907   7.865  0.5645  1.1752 -0.6898
13601SOL    HW242224   3.510   0.926   7.764 -1.0210 -1.3010  0.4587
13602SOL     OW42225   4.627   1.713   4.836 -0.0870 -0.0457 -0.9369
13602SOL    HW142226   4.578   1.786   4.799  1.3976  0.3066 -2.3040
13602SOL    HW242227   4.599   1.637   4.785  0.5370  0.1060 -1.5221
13603SOL     OW42228   2.310   8.265   2.804  0.6761 -0.4154  0.2030
13603SOL    HW142229   2.292   8.357   2.822  0.3842  0.2541 -2.8355
13603SOL    HW242230   2.374   8.266   2.732  0.7698 -2.5746  0.1763
13604SOL     OW42231   8.194   3.286   7.253 -0.1630  0.5762 -0.8811
13604SOL    HW142232   8.117   3.342   7.253  0.7222  1.9510  1.5707
13604SOL    HW242233   8.160   3.199   7.273 -1.1161  1.1410  0.0778
13605SOL     OW42234   0.717   3.566   6.432 -0.8057  0.0615  0.2937
13605SOL    HW142235   0.714   3.621   6.511  0.4623 -1.7623  1.7124
13605SOL    HW242236   0.809   3.541   6.424 -1.1693 -0.9610 -0.9494
13606SOL     OW42237   4.463   3.667   1.463 -0.3303  0.8642 -0.4543
13606SOL    HW142238   4.433   3.666   1.554  0.3334  1.3929 -0.2191
13606SOL    HW242239   4.500   3.580   1.448  0.9429  1.2581  0.2688
13607SOL     OW42240   7.641   3.578   0.544 -0.0183 -0.1805  0.5498
13607SOL    HW142241   7.666   3.503   0.598 -1.5108 -0.1398  1.3405
13607SOL    HW242242   7.546   3.582   0.551 -0.0310  1.3076 -0.1438
13608SOL     OW42243   4.439   0.912   0.780 -0.5427  0.2750  0.1932
13608SOL    HW142244   4.411   0.979   0.719 -0.0220 -0.2120 -0.6004
13608SOL    HW242245   4.522   0.944   0.815  0.7255 -0.7930 -1.6555
13609SOL     OW42246   0.513   4.701   3.767 -0.2865 -0.2732 -0.0237
13609SOL    HW142247   0.478   4.787   3.744 -0.7966 -0.2179  0.8889
13609SOL    HW242248   0.496   4.646   3.691 -0.1539  0.3748 -0.5305
13610SOL     OW42249   2.037   7.138   4.040 -0.1276 -0.2746  0.1930
13610SOL    HW142250   2.057   7.070   3.975  1.3726 -0.2075  0.5450
13610SOL    HW242251   1.996   7.208   3.990 -1.7582 -1.4461 -0.1701
13611SOL     OW42252   5.300   3.727   2.610 -0.4212  0.2995  0.1146
13611SOL    HW142253   5.228   3.719   2.672 -0.1331 -0.2217  0.3915
13611SOL    HW242254   5.262   3.771   2.534 -1.1402 -0.3103  0.1052
13612SOL     OW42255   0.439   4.293   7.610  0.3455  0.1239  0.3224
13612SOL    HW142256   0.428   4.355   7.539  0.9453 -0.0787  0.0511
13612SOL    HW242257   0.373   4.225   7.593  2.2269 -1.3651 -1.6081
13613SOL     OW42258   6.590   5.181   3.264 -0.5339 -0.2393  0.9352
13613SOL    HW142259   6.514   5.135   3.299 -0.7364 -1.5581 -1.0381
13613SOL    HW242260   6.662   5.118   3.272  0.0559  0.4984  1.5708
13614SOL     OW42261   0.281   3.612   0.502  0.1501 -0.3227  0.3688
13614SOL    HW142262   0.262   3.539   0.560  0.8811 -1.0248 -0.2522
13614SOL    HW242263   0.209   3.674   0.517 -1.1237 -1.6736  0.0407
13615SOL     OW42264   6.458   2.020   2.554  0.4170  0.2627  0.4603
13615SOL    HW142265   6.533   1.971   2.519 -0.0501  0.2266 -0.5356
13615SOL    HW242266   6.469   2.108   2.519  0.0850  0.2979  0.4426
13616SOL     OW42267   5.835   5.300   6.554 -0.0959 -0.4169  0.2417
13616SOL    HW142268   5.780   5.225   6.533 -1.4025 -0.2494  2.7961
13616SOL    HW242269   5.791   5.344   6.626  1.4235  1.9712 -0.1599
13617SOL     OW42270   5.291   4.987   7.479  0.2340 -0.0474 -0.0882
13617SOL    HW142271   5.331   5.053   7.423  0.1013  0.3754  0.3081
13617SOL    HW242272   5.304   5.020   7.568 -0.2436 -0.3264  0.0896
13618SOL     OW42273   3.117   0.599   3.198 -0.3506  0.4587  0.0062
13618SOL    HW142274   3.164   0.619   3.117 -0.8656 -0.0911 -0.4414
13618SOL    HW242275   3.170   0.532   3.241 -1.3613 -1.1884 -1.1667
13619SOL     OW42276   0.147   2.755   0.245  0.0876  0.0461 -0.8731
13619SOL    HW142277   0.241   2.749   0.227  0.1531 -0.0493 -0.4945
13619SOL    HW242278   0.117   2.664   0.249  0.0339  0.0708 -0.6979
13620SOL     OW42279   7.743   6.836   4.558 -0.5413 -0.1648  0.0888
13620SOL    HW142280   7.706   6.751   4.581  0.1910 -0.4280  0.3412
13620SOL    HW242281   7.723   6.847   4.465 -0.5075 -0.6907  0.0162
13621SOL     OW42282   6.508   4.119   7.539 -0.1356  0.7785  0.3100
13621SOL    HW142283   6.447   4.180   7.581 -1.2909  0.3191 -0.6500
13621SOL    HW242284   6.576   4.105   7.604 -1.4131  0.7784  1.7032
13622SOL     OW42285   2.159   4.958   2.849 -0.2080 -0.4196 -0.4115
13622SOL    HW142286   2.082   4.998   2.889 -0.9812 -1.5861 -0.6974
13622SOL    HW242287   2.159   4.868   2.880  1.0113 -0.4633 -0.4750
13623SOL     OW42288   7.682   6.562   1.606  0.5847  0.5200  0.4735
13623SOL    HW142289   7.750   6.496   1.588 -0.5116 -0.4045 -0.4185
13623SOL    HW242290   7.706   6.599   1.691 -0.2435 -2.9933  2.4208
13624SOL     OW42291   5.198   2.825   3.877  0.6930  0.5834  0.6045
13624SOL    HW142292   5.163   2.773   3.949 -0.6112 -0.7850 -0.9470
13624SOL    HW242293   5.292   2.807   3.877  0.1421 -3.2664 -0.8869
13625SOL     OW42294   3.848   4.127   1.343  0.2718  0.1971  0.4001
13625SOL    HW142295   3.822   4.093   1.257  0.8330 -0.7981  0.6089
13625SOL    HW242296   3.931   4.084   1.361 -0.7750 -1.1760  2.3191
13626SOL     OW42297   1.558   1.305   0.367  0.2024  0.1491  0.1597
13626SOL    HW142298   1.567   1.219   0.326 -0.9653  0.4173 -0.7364
13626SOL    HW242299   1.487   1.294   0.430 -0.4536  0.6130 -0.4784
13627SOL     OW42300   6.600   6.122   4.678  0.2474 -0.0023 -0.6025
13627SOL    HW142301   6.510   6.110   4.646 -0.2427 -0.1938  0.7531
13627SOL    HW242302   6.589   6.161   4.765  1.3542 -2.1233  0.5880
13628SOL     OW42303   5.627   6.160   7.493 -0.0414 -0.1637  0.3329
13628SOL    HW142304   5.576   6.236   7.518 -1.6320 -0.8852 -0.5814
13628SOL    HW242305   5.627   6.104   7.570  1.0761  0.6859  0.9846
13629SOL     OW42306   2.128   3.087   2.361 -0.5579  0.5207  0.2337
13629SOL    HW142307   2.193   3.023   2.331  0.3565  2.0691 -1.2458
13629SOL    HW242308   2.045   3.040   2.356 -0.2868  0.1451 -3.4363
13630SOL     OW42309   0.044   2.794   1.596 -0.1783  0.0558 -0.3759
13630SOL    HW142310   0.014   2.818   1.683  0.2789  0.8999 -0.4309
13630SOL    HW242311   0.110   2.726   1.611  0.4117  0.6938 -0.0011
13631SOL     OW42312   4.502   1.678   3.855  0.1848 -0.3694  0.1441
13631SOL    HW142313   4.508   1.582   3.857  1.9654 -0.3033  0.2367
13631SOL    HW242314   4.490   1.703   3.947 -0.4591 -0.5108  0.0992
13632SOL     OW42315   2.176   0.039   6.192 -0.4593  0.1900  0.0604
13632SOL    HW142316   2.145  -0.051   6.183 -3.9115  1.2979 -0.6442
13632SOL    HW242317   2.155   0.062   6.283  1.4027  0.0333  0.5758
13633SOL     OW42318   3.013   1.406   5.992  0.2170 -0.2815  0.2994
13633SOL    HW142319   2.989   1.325   5.948  0.7722 -1.5880  2.2744
13633SOL    HW242320   2.965   1.404   6.075 -0.1817  1.6996  0.1858
13634SOL     OW42321   1.429   4.095   3.889 -0.0472 -0.0318  0.5401
13634SOL    HW142322   1.489   4.091   3.815  0.0414 -0.8866  0.6479
13634SOL    HW242323   1.342   4.079   3.851 -0.0661  0.0544  0.5469
13635SOL     OW42324   0.529   1.706   7.977  0.4233  0.0044  0.0669
13635SOL    HW142325   0.590   1.685   7.906  1.9184  0.3190  1.2071
13635SOL    HW242326   0.461   1.640   7.970  0.9280 -0.4177 -1.2034
13636SOL     OW42327   0.769   2.076   1.924 -0.2689  0.4075  0.2871
13636SOL    HW142328   0.681   2.078   1.886 -0.2219  0.0533  0.1536
13636SOL    HW242329   0.820   2.023   1.863 -0.4317 -1.0171  1.3396
13637SOL     OW42330   4.640   3.422   0.150  0.0436  0.0228 -0.0461
13637SOL    HW142331   4.711   3.474   0.113  0.5883 -0.3807  0.4097
13637SOL    HW242332   4.571   3.424   0.084 -0.8806  3.1805  0.8555
13638SOL     OW42333   7.640   2.431   3.611  0.2540 -0.1546  0.0190
13638SOL    HW142334   7.666   2.345   3.578 -1.0563 -0.9594  0.9991
13638SOL    HW242335   7.545   2.429   3.609  0.1665  2.1016 -1.9541
13639SOL     OW42336   4.290   8.065   2.727 -0.3840  0.1198 -0.3384
13639SOL    HW142337   4.277   7.999   2.658 -2.7908  1.6252 -1.4941
13639SOL    HW242338   4.381   8.091   2.718  0.5447 -2.7222 -0.0874
13640SOL     OW42339   1.451   2.963   5.703  0.6291 -0.3902 -0.2969
13640SOL    HW142340   1.488   2.974   5.791  0.8501 -1.5609 -0.2240
13640SOL    HW242341   1.525   2.932   5.650  1.0671  2.3204 -1.4530
13641SOL     OW42342   8.337   2.227   3.381  0.0831  0.4567  0.3031
13641SOL    HW142343   8.282   2.148   3.376  2.1828 -1.0531 -0.2365
13641SOL    HW242344   8.283   2.296   3.342 -1.0853 -1.1487 -1.1064
13642SOL     OW42345   2.847   1.807   6.218 -0.0584 -0.2422  1.0040
13642SOL    HW142346   2.813   1.863   6.148  1.3467 -2.0651 -1.3143
13642SOL    HW242347   2.771   1.787   6.272 -0.6829  3.5393  1.8042
13643SOL     OW42348   0.646   2.148   5.057 -0.3331 -0.1215  0.3561
13643SOL    HW142349   0.693   2.144   5.141  0.5889  1.6132 -0.0264
13643SOL    HW242350   0.593   2.227   5.064  0.4708  0.5798 -1.0158
13644SOL     OW42351   1.692   3.159   8.257 -0.1870  0.1287 -0.4189
13644SOL    HW142352   1.702   3.174   8.351 -1.3135  1.2581 -0.4567
13644SOL    HW242353   1.681   3.246   8.220 -1.8805 -0.4268 -1.3336
13645SOL     OW42354   2.480   3.816   3.856 -0.0973  0.1788  0.4272
13645SOL    HW142355   2.452   3.843   3.769  0.0212 -1.5349 -0.1794
13645SOL    HW242356   2.402   3.827   3.911 -0.0014  1.8443  0.2605
13646SOL     OW42357   7.588   4.892   2.966 -0.6065 -0.3768 -0.1738
13646SOL    HW142358   7.550   4.876   2.880 -0.7110  2.0989 -0.6730
13646SOL    HW242359   7.513   4.890   3.026 -0.9741  0.6058 -0.5791
13647SOL     OW42360   6.268   3.238   5.801  0.1682  0.3013 -0.1159
13647SOL    HW142361   6.243   3.146   5.793 -0.2156  0.2949  1.0547
13647SOL    HW242362   6.214   3.272   5.872  0.1872  1.4821 -0.6394
13648SOL     OW42363   3.712   1.121   2.039 -0.2949 -0.2063  0.1701
13648SOL    HW142364   3.784   1.164   1.993  0.4343  0.2717  1.6968
13648SOL    HW242365   3.633   1.150   1.992  0.2599  1.9685  0.4833
13649SOL     OW42366   5.912   7.573   4.036  0.5167 -0.7411  0.3954
13649SOL    HW142367   5.914   7.496   4.093 -0.8970 -0.3610  1.0170
13649SOL    HW242368   5.877   7.643   4.092 -0.6204 -0.2866 -0.8331
13650SOL     OW42369   1.094   3.626   0.049  0.0235 -0.3254  0.3262
13650SOL    HW142370   1.177   3.589   0.020 -0.0464 -0.4845  0.3279
13650SOL    HW242371   1.033   3.552   0.048 -0.1307 -0.1987  0.2749
13651SOL     OW42372   3.076   4.717   7.934 -0.1987 -0.0762 -0.1778
13651SOL    HW142373   3.135   4.792   7.942 -0.1689 -0.0030 -1.0054
13651SOL    HW242374   3.126   4.652   7.884 -0.0475 -0.8457  0.9188
13652SOL     OW42375   5.776   5.860   2.543 -0.0478 -0.0423  0.0764
13652SOL    HW142376   5.741   5.813   2.619  0.7460 -0.5769  0.1241
13652SOL    HW242377   5.864   5.824   2.531 -0.4570 -0.5938 -1.6101
13653SOL     OW42378   1.467   0.303   0.314 -0.0018  0.6564  0.5580
13653SOL    HW142379   1.506   0.390   0.304  0.6014  0.2636 -0.7479
13653SOL    HW242380   1.535   0.251   0.355  0.9332 -0.0186 -1.6835
13654SOL     OW42381   1.561   5.077   2.701  0.0055  0.0133 -0.4501
13654SOL    HW142382   1.473   5.113   2.692 -0.0633  0.2800  1.0161
13654SOL    HW242383   1.589   5.103   2.789  1.3654 -0.4715 -0.7081
13655SOL     OW42384   5.875   2.170   5.358  0.0309 -0.7524  0.1329
13655SOL    HW142385   5.921   2.192   5.439  0.0858 -1.4555  0.2945
13655SOL    HW242386   5.939   2.122   5.306 -0.1968 -0.8314 -0.0763
13656SOL     OW42387   7.795   3.171   1.052 -0.5780 -0.1641 -0.6774
13656SOL    HW142388   7.788   3.096   1.111  0.4789 -1.8358 -2.5695
13656SOL    HW242389   7.887   3.198   1.057 -0.1617 -1.1009 -2.3677
13657SOL     OW42390   6.943   3.764   4.365 -0.0262 -0.6245  0.1313
13657SOL    HW142391   6.866   3.750   4.310 -0.0925 -1.6261  0.4493
13657SOL    HW242392   6.915   3.733   4.452  0.5982 -0.5689  0.3540
13658SOL     OW42393   5.207   2.238   3.914 -0.4638 -0.5424 -0.4270
13658SOL    HW142394   5.182   2.146   3.924 -0.4474 -0.4708  0.3803
13658SOL    HW242395   5.262   2.256   3.991  1.0039 -0.3407 -1.4760
13659SOL     OW42396   5.418   7.725   3.797  0.1232  0.6888 -0.0794
13659SOL    HW142397   5.457   7.640   3.776 -1.4314 -0.3296  0.8929
13659SOL    HW242398   5.460   7.752   3.878  1.1574  1.2403 -0.7803
13660SOL     OW42399   4.994   4.682   4.145 -0.5237 -0.1081 -0.0275
13660SOL    HW142400   4.925   4.710   4.084 -1.8028 -0.0517  1.4080
13660SOL    HW242401   4.951   4.679   4.230  1.0264 -1.0027  0.7549
13661SOL     OW42402   1.183   1.815   2.564 -0.3909  0.3051 -0.7861
13661SOL    HW142403   1.093   1.821   2.532 -0.9178  0.3169  0.6237
13661SOL    HW242404   1.175   1.784   2.654  1.0685 -0.3754 -0.8580
13662SOL     OW42405   6.981   1.752   4.166  0.2669  0.3415  0.4026
13662SOL    HW142406   6.956   1.767   4.075 -0.4307 -0.3903  0.4648
13662SOL    HW242407   6.898   1.734   4.211  0.8116 -1.5679  0.7326
13663SOL     OW42408   0.780   3.176   1.280 -0.9124  0.3538 -0.3529
13663SOL    HW142409   0.697   3.224   1.288 -1.6784 -0.7628 -1.2105
13663SOL    HW242410   0.769   3.124   1.200 -0.5866 -2.1034  1.1050
13664SOL     OW42411   3.599   2.730   0.130  0.0748 -0.2781  1.0341
13664SOL    HW142412   3.681   2.744   0.178  0.0694  1.4620  0.6131
13664SOL    HW242413   3.606   2.788   0.055 -1.3653 -0.4480  0.7476
13665SOL     OW42414   0.420   4.476   6.792 -0.3639 -0.4738  0.5590
13665SOL    HW142415   0.385   4.559   6.760 -0.0106  0.1947  1.8353
13665SOL    HW242416   0.385   4.410   6.732  0.7634  0.7543 -1.5400
13666SOL     OW42417   3.030   1.066   8.119  0.0694  0.1947 -0.5054
13666SOL    HW142418   3.076   1.014   8.053 -0.8853 -0.0593 -0.9835
13666SOL    HW242419   2.942   1.077   8.084 -0.1387  0.9792  0.2342
13667SOL     OW42420   1.533   1.034   6.379 -0.1389  0.2471 -0.0949
13667SOL    HW142421   1.508   1.101   6.315 -0.5737 -0.0839 -0.2764
13667SOL    HW242422   1.502   0.952   6.341 -0.2877  0.0301  0.4809
13668SOL     OW42423   0.906   7.387   0.609  0.1753 -0.4539  0.4419
13668SOL    HW142424   0.948   7.337   0.540  1.4293 -0.1724  0.9694
13668SOL    HW242425   0.825   7.420   0.570 -0.0142 -1.7613 -0.3211
13669SOL     OW42426   6.990   0.246   6.451 -0.0034  0.1870  0.4105
13669SOL    HW142427   6.981   0.283   6.538 -2.0122 -0.9445  0.7312
13669SOL    HW242428   7.024   0.158   6.466 -0.2472  0.0285  0.0501
13670SOL     OW42429   3.177   4.387   6.954 -0.7547 -0.3964  0.6131
13670SOL    HW142430   3.181   4.406   7.048 -1.2668  0.7803  0.4196
13670SOL    HW242431   3.269   4.389   6.926 -0.6629  0.2160  0.9224
13671SOL     OW42432   7.623   4.203   1.654 -0.1148  0.0501  0.2452
13671SOL    HW142433   7.692   4.222   1.717 -0.7279  0.7004  0.7269
13671SOL    HW242434   7.668   4.200   1.569  0.3139  1.7470  0.3914
13672SOL     OW42435   6.033   8.304   4.512  0.6672  0.4823  0.3832
13672SOL    HW142436   5.973   8.374   4.488  1.7669  0.6565 -2.0745
13672SOL    HW242437   6.096   8.346   4.572  0.2069  1.0984  0.4442
13673SOL     OW42438   7.032   0.204   5.763  0.1863  0.1245  0.4847
13673SOL    HW142439   7.112   0.247   5.731 -0.6646  1.8224  0.5771
13673SOL    HW242440   6.964   0.229   5.700 -0.4716 -0.6007  0.8857
13674SOL     OW42441   8.071   5.329   5.702  0.0322  0.1331 -0.2841
13674SOL    HW142442   8.027   5.370   5.627 -0.8834 -0.1136  0.0951
13674SOL    HW242443   8.137   5.393   5.729 -2.4516  2.2179  1.3392
13675SOL     OW42444   0.648   4.392   1.383 -0.1790 -0.5557 -0.0713
13675SOL    HW142445   0.673   4.315   1.333 -2.3215 -0.8124 -0.8558
13675SOL    HW242446   0.553   4.382   1.397 -0.6166  2.1200 -0.5603
13676SOL     OW42447   2.903   1.475   1.689 -0.1368 -0.0622 -0.0199
13676SOL    HW142448   2.990   1.491   1.652  1.0332 -1.1047  2.0972
13676SOL    HW242449   2.846   1.535   1.641  1.9229  1.4908 -0.7165
13677SOL     OW42450   0.464   6.713   7.913 -0.5014 -0.2872  0.2485
13677SOL    HW142451   0.542   6.762   7.886  0.6147 -1.8609  0.4463
13677SOL    HW242452   0.438   6.664   7.835 -1.8257  0.8346 -0.0541
13678SOL     OW42453   2.693   1.110   8.182  0.1211 -0.1117  0.0231
13678SOL    HW142454   2.726   1.198   8.162  0.2061 -0.5333 -1.8270
13678SOL    HW242455   2.731   1.090   8.268 -1.4188  2.3768  1.4190
13679SOL     OW42456   3.729   8.053   5.798  0.3929  0.2059 -0.0331
13679SOL    HW142457   3.821   8.075   5.781  0.5490  0.8428  1.4371
13679SOL    HW242458   3.680   8.110   5.738  0.9164  1.8180  0.9889
13680SOL     OW42459   0.618   5.637   6.900 -0.1163 -0.0683  0.2595
13680SOL    HW142460   0.663   5.721   6.894 -0.7292  0.4917  2.5392
13680SOL    HW242461   0.608   5.609   6.809  0.0992  2.3104 -0.5742
13681SOL     OW42462   5.258   5.947   0.335 -0.5384 -0.3712 -0.2352
13681SOL    HW142463   5.283   5.915   0.421 -1.5364  2.7649  1.3662
13681SOL    HW242464   5.165   5.923   0.326 -0.3636 -0.9474 -0.6258
13682SOL     OW42465   4.421   4.801   6.023 -0.2205 -1.0780  0.2667
13682SOL    HW142466   4.507   4.761   6.029 -0.6634 -1.9799  0.8876
13682SOL    HW242467   4.419   4.842   5.936  0.8978 -0.8622  0.3318
13683SOL     OW42468   7.589   0.069   1.405  0.2459  0.0285  0.3735
13683SOL    HW142469   7.504   0.069   1.450  0.4203 -1.3674  0.7472
13683SOL    HW242470   7.576   0.126   1.330 -0.2171  2.0131  1.8637
13684SOL     OW42471   2.896   8.224   3.798  0.3242  0.5071 -0.6766
13684SOL    HW142472   2.853   8.279   3.863  0.0174 -0.4983  0.0001
13684SOL    HW242473   2.850   8.243   3.716 -1.3554 -0.4188 -0.0121
13685SOL     OW42474   4.758   3.139   4.816  0.2058  0.7772  0.3144
13685SOL    HW142475   4.673   3.133   4.860 -0.3327  0.1860 -0.7522
13685SOL    HW242476   4.822   3.129   4.886 -0.6004  1.4480  1.1677
13686SOL     OW42477   3.141   6.089   2.083 -0.2015  0.5660 -0.4474
13686SOL    HW142478   3.127   6.181   2.059  2.0159  0.8672 -0.8386
13686SOL    HW242479   3.136   6.042   2.000  1.5639  0.7740 -0.6996
13687SOL     OW42480   6.691   6.871   6.631  0.1962  0.2926  0.3431
13687SOL    HW142481   6.717   6.798   6.687 -1.8185  0.4160  1.5294
13687SOL    HW242482   6.724   6.847   6.544  1.4008 -1.0014  1.1195
13688SOL     OW42483   8.270   8.275   7.161  0.2283  0.6955 -0.3324
13688SOL    HW142484   8.235   8.330   7.232 -0.8358 -1.8456  1.2401
13688SOL    HW242485   8.210   8.291   7.088 -1.4017  0.0862  0.7920
13689SOL     OW42486   8.039   1.820   0.389  0.1824  0.1404  0.2939
13689SOL    HW142487   8.115   1.771   0.359  1.6788  2.7182 -0.5072
13689SOL    HW242488   7.973   1.806   0.322  0.6207 -0.6451  0.0144
13690SOL     OW42489   4.177   3.560   8.079  0.1486  0.3213  0.2428
13690SOL    HW142490   4.193   3.651   8.054 -0.5830  0.6890  1.0565
13690SOL    HW242491   4.117   3.566   8.153 -0.4040 -0.8580 -0.0946
13691SOL     OW42492   4.106   6.710   5.473 -0.2031  0.0286 -0.1548
13691SOL    HW142493   4.198   6.701   5.450  0.6762 -0.1235  3.0157
13691SOL    HW242494   4.096   6.803   5.494 -1.4086  0.5320 -2.6269
13692SOL     OW42495   5.267   6.208   4.730  0.0398 -0.0347  0.7186
13692SOL    HW142496   5.300   6.183   4.644 -0.1058  1.5848  0.1532
13692SOL    HW242497   5.217   6.132   4.760  1.4265 -1.2435  0.1040
13693SOL     OW42498   8.090   1.028   1.716  0.1732  0.1257  0.1645
13693SOL    HW142499   8.073   1.074   1.798  1.3328  0.1681  0.4006
13693SOL    HW242500   8.090   1.097   1.650  0.4619  0.2645  0.3080
13694SOL     OW42501   4.859   0.206   4.013  0.3578  0.0171 -0.1482
13694SOL    HW142502   4.776   0.241   3.981  0.0505 -0.0814  0.5228
13694SOL    HW242503   4.838   0.170   4.099  0.5890 -2.0428 -0.8845
13695SOL     OW42504   4.679   3.391   6.617 -0.4291  0.1628  0.4105
13695SOL    HW142505   4.600   3.392   6.562 -0.2674  1.4387  0.1624
13695SOL    HW242506   4.735   3.324   6.578 -0.6562  0.4899 -0.5141
13696SOL     OW42507   7.822   7.154   5.117  0.7351 -0.2115  0.2448
13696SOL    HW142508   7.866   7.192   5.040 -0.1892  0.0605 -0.1649
13696SOL    HW242509   7.863   7.068   5.128  1.8324  0.3061  0.2855
13697SOL     OW42510   0.762   4.421   0.260  0.1060  0.0061  0.0243
13697SOL    HW142511   0.730   4.428   0.170 -0.1678 -0.2759  0.1002
13697SOL    HW242512   0.686   4.440   0.315 -0.2780 -1.9458  0.2238
13698SOL     OW42513   4.387   5.049   0.067 -0.5059 -0.2878 -0.6922
13698SOL    HW142514   4.474   5.053   0.027 -1.2355 -0.1803 -2.3425
13698SOL    HW242515   4.362   4.957   0.061 -1.1236 -0.0701 -1.6482
13699SOL     OW42516   7.385   4.085   5.208  0.2044 -0.1800  0.0649
13699SOL    HW142517   7.367   4.000   5.168  0.0380  0.0021 -0.2480
13699SOL    HW242518   7.467   4.113   5.168 -0.2486  0.2616 -0.5872
13700SOL     OW42519   5.754   2.742   2.790  0.5833 -0.2785  0.5197
13700SOL    HW142520   5.783   2.685   2.719  1.9241 -1.6361  2.0638
13700SOL    HW242521   5.823   2.809   2.797 -0.2761  0.7368 -0.3597
13701SOL     OW42522   3.733   5.540   3.319  0.5324  0.0543  0.1422
13701SOL    HW142523   3.658   5.512   3.371  1.0529 -1.7854  0.0098
13701SOL    HW242524   3.804   5.481   3.346  1.5719  0.8896 -0.6506
13702SOL     OW42525   6.627   2.560   0.002 -0.1221 -0.1401  0.0652
13702SOL    HW142526   6.564   2.498  -0.035  0.9127 -0.5270 -1.1042
13702SOL    HW242527   6.660   2.517   0.081 -0.2433 -0.5880 -0.1264
13703SOL     OW42528   8.106   4.794   5.719 -0.3665 -0.1362 -0.0286
13703SOL    HW142529   8.015   4.788   5.690 -0.5412  0.3784  0.3925
13703SOL    HW242530   8.119   4.887   5.738  0.6678  0.0389 -1.4186
13704SOL     OW42531   3.026   3.784   7.738  0.2507 -0.5249  0.5856
13704SOL    HW142532   2.951   3.822   7.692  0.5142 -0.1314  0.4746
13704SOL    HW242533   3.069   3.730   7.672 -0.6198 -1.7448  0.9785
13705SOL     OW42534   1.426   2.853   1.361  0.5525 -0.4730  0.2847
13705SOL    HW142535   1.421   2.761   1.386 -0.4201 -0.9464 -1.4979
13705SOL    HW242536   1.340   2.873   1.324  1.3065  0.6528 -0.9580
13706SOL     OW42537   4.692   3.810   0.982  0.2108  0.6488 -0.2477
13706SOL    HW142538   4.642   3.785   0.904 -2.9342  1.2352  1.4246
13706SOL    HW242539   4.681   3.736   1.043  1.5628  0.7357  0.1361
13707SOL     OW42540   3.731   6.915   6.233 -0.3638  0.3561 -0.8177
13707SOL    HW142541   3.643   6.879   6.241 -1.3871  2.5250 -1.5097
13707SOL    HW242542   3.759   6.930   6.323 -1.4175  1.2231 -0.6176
13708SOL     OW42543   3.728   5.835   6.231  0.3685  0.6084 -0.0493
13708SOL    HW142544   3.667   5.768   6.203  1.3532  0.1460 -1.1964
13708SOL    HW242545   3.813   5.805   6.199  1.0395  1.7406  0.5898
13709SOL     OW42546   7.063   5.584   5.011  0.4203  0.5457 -0.4988
13709SOL    HW142547   7.063   5.490   5.026  0.7304  0.7811  1.1597
13709SOL    HW242548   6.999   5.618   5.075 -0.7019  1.3421 -1.9848
13710SOL     OW42549   0.121   3.928   4.644 -0.1109  0.2787 -0.2907
13710SOL    HW142550   0.084   3.844   4.672 -1.1905  0.8196 -0.0111
13710SOL    HW242551   0.135   3.919   4.550  2.3238 -1.1204  0.1407
13711SOL     OW42552   1.309   0.046   7.820  0.1303 -0.0717  0.0964
13711SOL    HW142553   1.363   0.114   7.861  0.0929  0.1418 -0.2114
13711SOL    HW242554   1.363  -0.033   7.825 -0.5725 -0.4938  2.2081
13712SOL     OW42555   2.665   1.399   5.190  0.1400 -0.2555 -0.4065
13712SOL    HW142556   2.624   1.442   5.265  0.3786  0.8869 -0.9163
13712SOL    HW242557   2.751   1.442   5.182  0.3458 -0.7647 -0.9816
13713SOL     OW42558   5.562   0.520   2.265 -0.4230  0.0877  0.2071
13713SOL    HW142559   5.534   0.438   2.306  1.3607 -1.0698 -0.7853
13713SOL    HW242560   5.494   0.538   2.201  0.8650 -2.6979 -2.1962
13714SOL     OW42561   0.916   3.969   2.718 -0.0611 -0.9298 -0.1496
13714SOL    HW142562   0.913   3.980   2.813 -1.2877 -0.8742 -0.1792
13714SOL    HW242563   0.990   4.022   2.690  0.9645 -1.7544  0.8724
13715SOL     OW42564   5.629   7.335   0.151 -0.6760 -0.2444 -0.1544
13715SOL    HW142565   5.685   7.404   0.116  0.3349 -1.3341 -0.7289
13715SOL    HW242566   5.548   7.342   0.100 -0.7543  0.7962  0.0993
13716SOL     OW42567   0.673   4.844   5.782 -0.2134  0.1028 -0.3690
13716SOL    HW142568   0.725   4.861   5.861 -2.1622 -3.0532  1.8320
13716SOL    HW242569   0.621   4.924   5.771 -0.8879  0.1844  2.4852
13717SOL     OW42570   2.061   1.015   1.039  0.0949 -0.1956  0.1755
13717SOL    HW142571   1.970   1.032   1.066 -0.0621 -1.2819  0.3577
13717SOL    HW242572   2.112   1.077   1.091 -0.5989  1.0859 -0.6075
13718SOL     OW42573   1.298   6.024   6.443 -0.2996  0.2605 -0.2075
13718SOL    HW142574   1.208   6.028   6.477 -0.5138  1.7857 -0.8939
13718SOL    HW242575   1.350   6.074   6.507  0.1215 -0.7752  0.2892
13719SOL     OW42576   7.533   6.862   0.964  0.2399 -0.4209  0.2781
13719SOL    HW142577   7.481   6.918   1.022 -0.5397  1.1791 -1.8223
13719SOL    HW242578   7.615   6.909   0.954  0.0510 -0.2469 -0.5290
13720SOL     OW42579   4.770   2.929   4.190  0.2484 -0.2791  0.1747
13720SOL    HW142580   4.855   2.951   4.228  0.0147  0.4470  0.2922
13720SOL    HW242581   4.751   2.842   4.224  0.7023 -0.2319  0.5707
13721SOL     OW42582   3.414   4.719   3.639  0.5552 -0.4825 -0.2083
13721SOL    HW142583   3.425   4.700   3.732  0.5052  0.3490 -0.0165
13721SOL    HW242584   3.484   4.670   3.596  1.0465 -0.2871  0.3452
13722SOL     OW42585   6.288   0.029   7.554  0.0173 -0.3060 -0.0514
13722SOL    HW142586   6.241  -0.052   7.531  0.3855 -0.5459  0.0355
13722SOL    HW242587   6.219   0.094   7.563 -0.1918 -0.3217 -1.3077
13723SOL     OW42588   3.470   1.561   1.093  0.4223  0.1209  0.5250
13723SOL    HW142589   3.550   1.546   1.042 -0.1454  0.9351 -0.6593
13723SOL    HW242590   3.407   1.595   1.029 -1.5051 -2.2835  0.9950
13724SOL     OW42591   5.686   4.298   8.177 -0.5700  0.0399  0.7216
13724SOL    HW142592   5.736   4.366   8.131 -2.5120 -0.6616 -2.7154
13724SOL    HW242593   5.595   4.328   8.173 -1.1872 -1.6618  1.2042
13725SOL     OW42594   3.153   2.994   1.195 -0.2598 -0.3360 -0.4883
13725SOL    HW142595   3.120   3.051   1.265  2.7175  2.4812 -1.1483
13725SOL    HW242596   3.129   3.038   1.114  0.1915 -1.1919 -1.1036
13726SOL     OW42597   1.715   4.593   7.613  0.3522  0.1213 -0.1869
13726SOL    HW142598   1.676   4.673   7.578  0.4234 -0.2027 -1.0370
13726SOL    HW242599   1.704   4.529   7.543  2.0787 -0.0816 -0.3242
13727SOL     OW42600   3.707   4.296   6.530 -0.0801  0.3968  0.3628
13727SOL    HW142601   3.655   4.356   6.476 -2.5066 -1.5161  0.4163
13727SOL    HW242602   3.765   4.253   6.468 -1.6566 -0.5530 -0.5154
13728SOL     OW42603   5.924   0.641   4.110 -0.1920  0.7422  0.0329
13728SOL    HW142604   5.880   0.575   4.056 -1.3901  1.4980  0.0373
13728SOL    HW242605   5.892   0.725   4.075 -0.9096  1.2599  1.8406
13729SOL     OW42606   0.584   7.702   7.083 -0.2991 -0.3330  0.4644
13729SOL    HW142607   0.521   7.756   7.131 -1.3317  0.0306 -1.1991
13729SOL    HW242608   0.626   7.763   7.023 -0.2296 -1.0573 -0.2382
13730SOL     OW42609   8.309   4.623   0.964 -0.1025 -0.1619 -0.1022
13730SOL    HW142610   8.257   4.659   1.036  0.6407 -0.9548  0.8577
13730SOL    HW242611   8.247   4.568   0.916 -0.8135  1.0207 -0.5849
13731SOL     OW42612   3.739   6.863   1.397  0.0703 -0.1529 -0.1257
13731SOL    HW142613   3.835   6.862   1.400  0.0748  0.7413  0.1041
13731SOL    HW242614   3.713   6.939   1.448 -0.8349 -1.2277  1.1085
13732SOL     OW42615   6.261   6.294   7.721  0.1694  0.5157 -0.1246
13732SOL    HW142616   6.271   6.202   7.745  0.2454  0.6444  0.3542
13732SOL    HW242617   6.245   6.339   7.804 -1.7256  0.6886 -0.5538
13733SOL     OW42618   0.411   7.445   2.575 -0.8168 -0.3139 -0.5460
13733SOL    HW142619   0.369   7.419   2.657 -0.8049  1.8543  0.2040
13733SOL    HW242620   0.398   7.540   2.571 -0.3319 -0.2972 -2.7913
13734SOL     OW42621   3.782   0.776   2.429  0.3097  0.1012 -0.5866
13734SOL    HW142622   3.696   0.808   2.455 -0.0006 -1.5632  0.6238
13734SOL    HW242623   3.818   0.845   2.373 -1.0741  1.6170  0.3130
13735SOL     OW42624   4.998   5.100   1.003  0.7164  0.4983 -0.3524
13735SOL    HW142625   5.054   5.132   1.074 -1.2864  0.4513  1.3674
13735SOL    HW242626   4.933   5.046   1.047 -2.1523  2.4924 -1.8199
13736SOL     OW42627   0.518   6.110   6.997 -0.1986 -0.2909  0.0246
13736SOL    HW142628   0.529   6.143   6.907  0.3863 -1.3091 -0.2934
13736SOL    HW242629   0.566   6.173   7.051 -1.8400  1.2055 -0.1652
13737SOL     OW42630   8.320   2.100   4.462 -0.1156  0.1035  0.2821
13737SOL    HW142631   8.288   2.020   4.504 -2.4441  0.9195  0.2123
13737SOL    HW242632   8.291   2.092   4.371  3.0595 -0.6791 -0.7872
13738SOL     OW42633   2.557   3.146   5.762  0.0157  0.4184  0.2275
13738SOL    HW142634   2.589   3.148   5.852 -0.0554 -0.1400  0.2687
13738SOL    HW242635   2.477   3.198   5.763  2.1006  3.9438 -0.3712
13739SOL     OW42636   0.793   4.698   4.809  0.1702 -0.6836  0.1198
13739SOL    HW142637   0.762   4.688   4.719 -0.6584 -1.0397  0.4392
13739SOL    HW242638   0.718   4.674   4.863  0.2527  0.7330  0.9126
13740SOL     OW42639   1.513   0.938   2.621  0.3346  0.0178 -0.3753
13740SOL    HW142640   1.508   0.970   2.531  2.2756 -0.7025 -0.7792
13740SOL    HW242641   1.555   0.853   2.614  0.4471 -0.0891  1.2168
13741SOL     OW42642   7.727   3.958   4.406  0.4515  0.1684 -0.0362
13741SOL    HW142643   7.698   3.872   4.435 -0.0304  0.3554  0.0534
13741SOL    HW242644   7.690   4.018   4.471 -1.6713  0.7227 -1.6859
13742SOL     OW42645   0.630   3.735   8.360  0.2483 -0.6285 -0.4019
13742SOL    HW142646   0.620   3.750   8.266  0.9397  1.6223 -0.1656
13742SOL    HW242647   0.720   3.759   8.379  0.3367 -1.7418  0.7559
13743SOL     OW42648   5.618   1.181   6.108 -0.3802  0.4220  0.3088
13743SOL    HW142649   5.701   1.229   6.103  0.0394 -0.4004 -1.2533
13743SOL    HW242650   5.563   1.222   6.041 -0.5407 -0.2980 -0.0039
13744SOL     OW42651   1.861   5.083   6.682  0.3835 -0.1605  0.3552
13744SOL    HW142652   1.769   5.056   6.679  0.3421  0.0390 -2.0413
13744SOL    HW242653   1.898   5.052   6.600  1.9035  1.6588  0.2914
13745SOL     OW42654   3.233   0.494   7.950  0.7687 -0.0547  0.2946
13745SOL    HW142655   3.314   0.532   7.916  0.5942 -0.7720 -0.9954
13745SOL    HW242656   3.190   0.566   7.995  1.6510  0.5984  0.1214
13746SOL     OW42657   0.053   0.414   1.040  0.2106 -0.8091  0.7345
13746SOL    HW142658   0.128   0.438   0.985 -0.6444  0.0420 -0.1225
13746SOL    HW242659   0.016   0.337   0.997 -1.3367  0.7081 -0.8641
13747SOL     OW42660   7.930   5.315   4.994 -0.2508 -0.4416  0.2568
13747SOL    HW142661   8.020   5.338   4.972 -0.7815  0.6510 -0.8677
13747SOL    HW242662   7.891   5.286   4.911 -1.0739 -0.4168  0.6225
13748SOL     OW42663   0.491   3.361   6.123 -0.3454  0.0953  0.0407
13748SOL    HW142664   0.585   3.360   6.138 -0.3024  0.7322 -0.1337
13748SOL    HW242665   0.474   3.446   6.083 -0.8929 -0.3094 -0.6115
13749SOL     OW42666   6.439   4.046   0.332  0.0841 -0.1253 -0.3321
13749SOL    HW142667   6.431   4.042   0.237  0.1202  0.9075 -0.3840
13749SOL    HW242668   6.364   3.996   0.364 -0.5992  0.5256 -0.8948
13750SOL     OW42669   6.673   3.289   0.943 -0.1221 -0.3144  0.9549
13750SOL    HW142670   6.767   3.277   0.956  0.1280 -0.7555 -0.9189
13750SOL    HW242671   6.662   3.384   0.942  0.9146 -0.1060 -2.0089
13751SOL     OW42672   2.004   6.552   6.124  0.3640 -0.6527  0.3079
13751SOL    HW142673   1.940   6.619   6.148  1.6586  0.2778  1.2507
13751SOL    HW242674   2.040   6.581   6.040 -0.6697 -1.3762 -0.4192
13752SOL     OW42675   7.023   2.063   3.783  0.1494  0.0230 -0.7654
13752SOL    HW142676   7.030   2.159   3.782 -2.0375  0.2349 -0.8340
13752SOL    HW242677   6.943   2.046   3.834  0.9098 -1.8176 -0.1209
13753SOL     OW42678   4.242   3.674   6.693  0.1396  0.0826  0.0781
13753SOL    HW142679   4.165   3.630   6.656 -0.9043  1.3506  0.6534
13753SOL    HW242680   4.277   3.611   6.756 -1.2651 -0.0065  0.8198
13754SOL     OW42681   1.546   5.612   4.326 -0.1559 -0.2204  0.2367
13754SOL    HW142682   1.579   5.525   4.350 -1.4987 -0.9382 -0.4070
13754SOL    HW242683   1.553   5.663   4.406 -0.8897 -1.4163  1.0947
13755SOL     OW42684   4.637   6.070   5.970 -0.1486 -0.9766 -0.5770
13755SOL    HW142685   4.634   6.159   5.937  0.3608 -0.5364  0.5233
13755SOL    HW242686   4.547   6.051   5.995  0.2203  0.4999  2.3260
13756SOL     OW42687   5.673   0.048   7.410 -0.0595  0.2190 -0.0897
13756SOL    HW142688   5.660  -0.009   7.486  1.7628 -0.0245  0.0711
13756SOL    HW242689   5.701  -0.011   7.340 -2.4181  0.3275 -1.2257
13757SOL     OW42690   5.386   6.563   0.567  0.3214  0.5202 -0.5137
13757SOL    HW142691   5.363   6.483   0.615  1.5066  0.4154 -0.0825
13757SOL    HW242692   5.426   6.532   0.486  0.5496  0.6612 -0.4595
13758SOL     OW42693   3.615   3.367   2.105  1.1045  0.4552  0.1125
13758SOL    HW142694   3.569   3.293   2.064  1.9222  0.1191 -0.2281
13758SOL    HW242695   3.634   3.336   2.194  0.1114  0.8475  0.4774
13759SOL     OW42696   3.316   0.352   1.566 -0.5085 -0.3782 -0.2237
13759SOL    HW142697   3.261   0.429   1.550  0.6199  0.7044  0.8880
13759SOL    HW242698   3.367   0.342   1.485 -0.3466  0.3322 -0.2213
13760SOL     OW42699   4.934   8.044   1.766 -0.0617 -0.0990  0.3714
13760SOL    HW142700   4.973   7.960   1.789  1.9849  0.8932  0.7675
13760SOL    HW242701   4.910   8.084   1.850 -1.8642 -0.6109  0.1445
13761SOL     OW42702   7.236   6.857   3.578  0.0367  0.0661 -0.0959
13761SOL    HW142703   7.249   6.934   3.632 -1.2037  1.6111 -1.8708
13761SOL    HW242704   7.197   6.890   3.497  0.5008 -2.2896 -1.3934
13762SOL     OW42705   0.495   7.100   4.344 -0.8464 -0.3150  0.5708
13762SOL    HW142706   0.442   7.158   4.398  1.2793  1.9885  0.3437
13762SOL    HW242707   0.562   7.156   4.306  0.0592 -2.5527 -1.4310
13763SOL     OW42708   5.284   2.780   4.221 -0.1110 -0.0004 -0.0661
13763SOL    HW142709   5.207   2.827   4.253 -0.5452  0.2223 -1.4123
13763SOL    HW242710   5.355   2.808   4.279 -0.9645  0.0016  1.0150
13764SOL     OW42711   6.812   3.343   3.921 -0.0256  0.7551 -0.2006
13764SOL    HW142712   6.787   3.251   3.916 -1.1028  0.9500  1.2354
13764SOL    HW242713   6.806   3.374   3.830  0.9422 -0.7100 -0.8041
13765SOL     OW42714   5.717   6.817   3.020 -0.1609  0.0449  0.1991
13765SOL    HW142715   5.738   6.883   3.086  1.4596  0.5356 -0.7399
13765SOL    HW242716   5.624   6.829   3.003 -0.3917  0.5482  1.6797
13766SOL     OW42717   0.380   2.423   0.195  0.3572  0.0895 -0.5272
13766SOL    HW142718   0.427   2.480   0.257 -0.1278 -2.0120  1.9227
13766SOL    HW242719   0.449   2.390   0.137  1.4095 -0.3266  0.8889
13767SOL     OW42720   0.664   0.560   8.280 -0.3316  0.8892  0.2888
13767SOL    HW142721   0.758   0.574   8.285 -0.3063  0.5207  1.1316
13767SOL    HW242722   0.637   0.546   8.371 -1.0840  0.2975 -0.0056
13768SOL     OW42723   5.330   7.696   7.650 -0.2894  0.5936 -0.0916
13768SOL    HW142724   5.344   7.733   7.737  0.3587  0.7016 -0.2400
13768SOL    HW242725   5.418   7.688   7.612 -0.3907 -1.1575 -0.0404
13769SOL     OW42726   7.662   2.105   7.043 -0.2371  0.4789  0.2166
13769SOL    HW142727   7.623   2.151   6.968 -2.2760  1.0162  1.5289
13769SOL    HW242728   7.588   2.089   7.102  1.2809 -0.1156  2.0301
13770SOL     OW42729   2.116   0.720   2.315 -0.1603  0.3342  0.3025
13770SOL    HW142730   2.026   0.733   2.286 -0.4128  0.3272  1.0552
13770SOL    HW242731   2.167   0.782   2.263 -0.4299 -0.4379 -0.9300
13771SOL     OW42732   3.571   1.405   0.578  0.3804  0.6139 -0.2948
13771SOL    HW142733   3.652   1.456   0.569 -0.3151  2.1707  1.4557
13771SOL    HW242734   3.600   1.315   0.592  1.7409  0.8974 -1.1633
13772SOL     OW42735   7.851   0.282   6.046  0.0606  0.4396  0.1225
13772SOL    HW142736   7.791   0.235   6.104 -0.8862 -0.0959 -1.2556
13772SOL    HW242737   7.794   0.329   5.985  1.0199  1.9017  0.2904
13773SOL     OW42738   7.929   8.113   0.156  0.2436  0.0248 -0.1378
13773SOL    HW142739   7.905   8.060   0.232 -2.9988 -0.1917 -1.1522
13773SOL    HW242740   7.859   8.097   0.093  1.0949  2.6571 -1.9211
13774SOL     OW42741   2.661   5.051   7.749 -0.1869  0.3964 -0.0312
13774SOL    HW142742   2.688   5.130   7.703 -1.2230  0.6110 -0.2771
13774SOL    HW242743   2.718   4.982   7.714  0.3321  0.9177 -0.2255
13775SOL     OW42744   1.737   0.222   0.436  0.3069 -0.3917  0.4746
13775SOL    HW142745   1.832   0.228   0.428  0.2101  0.8275  0.0781
13775SOL    HW242746   1.714   0.141   0.390  0.8966  0.6617 -1.7673
13776SOL     OW42747   2.407   5.883   2.852  0.3396  0.2663  0.6463
13776SOL    HW142748   2.338   5.950   2.846  0.7736  0.7198  0.6376
13776SOL    HW242749   2.415   5.865   2.946 -0.2628 -0.2886  0.5947
13777SOL     OW42750   7.382   3.231   1.871  0.6642  0.2160  0.2399
13777SOL    HW142751   7.409   3.210   1.782 -1.2171  0.3210 -0.4094
13777SOL    HW242752   7.426   3.313   1.891  0.9729  0.2851 -0.6755
13778SOL     OW42753   7.055   1.978   6.625 -0.3312  0.1152 -0.1764
13778SOL    HW142754   7.043   1.885   6.642 -1.2647  0.3921  0.8211
13778SOL    HW242755   7.148   1.987   6.605 -0.7085 -1.4275 -3.2042
13779SOL     OW42756   1.106   6.376   1.892 -0.2020 -0.0359  0.3686
13779SOL    HW142757   1.183   6.393   1.839 -1.2381 -0.1678 -1.2620
13779SOL    HW242758   1.050   6.452   1.878 -1.3776 -1.0120 -0.4202
13780SOL     OW42759   5.762   2.859   2.021  0.3540 -0.5838 -0.3899
13780SOL    HW142760   5.700   2.791   2.050  1.2314 -1.0984  0.3243
13780SOL    HW242761   5.845   2.813   2.010  1.3938  0.6058  1.7039
13781SOL     OW42762   2.075   6.742   3.552 -0.0201 -0.2749  0.1844
13781SOL    HW142763   2.132   6.792   3.493  0.2025  0.3128  0.8825
13781SOL    HW242764   2.120   6.658   3.562 -0.3843 -0.6351 -0.9820
13782SOL     OW42765   5.815   4.313   5.536 -0.5228  0.6025 -0.7650
13782SOL    HW142766   5.844   4.399   5.565 -0.2279  0.2737 -0.0667
13782SOL    HW242767   5.759   4.331   5.461 -2.9651  1.6195  1.1691
13783SOL     OW42768   0.869   0.092   7.863 -0.1196 -0.1787  0.2260
13783SOL    HW142769   0.940   0.089   7.927  0.0062  2.0359  0.2388
13783SOL    HW242770   0.913   0.083   7.778 -0.0654 -0.8717  0.3171
13784SOL     OW42771   3.937   3.197   1.969  0.6252  0.6125 -0.0147
13784SOL    HW142772   3.964   3.225   2.057 -0.4681 -0.8774  0.8423
13784SOL    HW242773   3.916   3.279   1.924 -1.6162  1.3189  2.0937
13785SOL     OW42774   0.696   6.615   0.371 -0.3027  0.1560 -0.4017
13785SOL    HW142775   0.780   6.648   0.403  0.0636  0.3769 -1.5777
13785SOL    HW242776   0.694   6.638   0.279 -2.3167  1.4810 -0.0850
13786SOL     OW42777   5.462   6.228   3.624  1.0981 -0.2875  0.1827
13786SOL    HW142778   5.534   6.280   3.661  0.2364 -0.1116  1.6914
13786SOL    HW242779   5.385   6.284   3.632  0.0270 -1.9117  2.3569
13787SOL     OW42780   0.758   6.444   4.319 -0.4758 -0.1118  0.1592
13787SOL    HW142781   0.744   6.447   4.414 -0.5603 -0.5783  0.1676
13787SOL    HW242782   0.853   6.442   4.309 -0.4663 -0.0564  0.2347
13788SOL     OW42783   4.803   0.239   7.197  0.0227 -0.0864  0.2476
13788SOL    HW142784   4.878   0.265   7.145 -1.7997  0.9069 -2.0387
13788SOL    HW242785   4.804   0.299   7.272  1.1957  0.2386 -0.0064
13789SOL     OW42786   3.777   1.626   3.507  0.0220  0.3821 -0.3076
13789SOL    HW142787   3.808   1.585   3.587 -0.0443  1.4806  0.3100
13789SOL    HW242788   3.847   1.687   3.482 -0.0405  0.1904 -0.9889
13790SOL     OW42789   6.967   6.086   0.841  0.3196 -0.0036  0.5557
13790SOL    HW142790   6.965   6.141   0.762  0.4342 -0.0670  0.5078
13790SOL    HW242791   7.043   6.118   0.890  0.3525 -0.0813  0.5556
13791SOL     OW42792   5.203   7.991   1.240  0.4587 -0.5992 -0.0345
13791SOL    HW142793   5.147   8.048   1.187 -0.1758  0.5568  1.7972
13791SOL    HW242794   5.147   7.918   1.264 -0.1690  0.2975  1.3614
13792SOL     OW42795   4.751   6.332   7.981  0.1507  0.3984 -0.0858
13792SOL    HW142796   4.682   6.364   7.924  0.5466 -0.2022 -0.9258
13792SOL    HW242797   4.812   6.287   7.922 -0.4306 -2.0220  1.0250
13793SOL     OW42798   4.470   4.171   0.995 -0.5168  0.1496  0.4723
13793SOL    HW142799   4.412   4.186   1.070  0.7513  2.8130  1.0388
13793SOL    HW242800   4.430   4.098   0.948 -1.7046 -1.2581  3.3830
13794SOL     OW42801   0.789   0.361   7.776  0.4034 -0.4797 -0.1215
13794SOL    HW142802   0.854   0.431   7.763  0.1403  0.0336  1.1665
13794SOL    HW242803   0.840   0.287   7.808  0.3219  0.0820  1.3741
13795SOL     OW42804   3.912   3.832   0.608  0.1505 -0.7048 -0.5678
13795SOL    HW142805   4.002   3.862   0.598  0.1117 -0.9199 -1.6817
13795SOL    HW242806   3.916   3.738   0.593  0.0948 -1.1416  1.8191
13796SOL     OW42807   7.463   3.857   4.229  0.6411 -0.7661  0.7673
13796SOL    HW142808   7.500   3.801   4.297 -0.0052 -1.2736  0.7094
13796SOL    HW242809   7.528   3.854   4.158  1.3496 -0.1846  1.3628
13797SOL     OW42810   2.905   1.703   0.437 -0.1803 -0.3262  0.1559
13797SOL    HW142811   2.842   1.773   0.420 -0.3076 -0.7364 -1.1738
13797SOL    HW242812   2.858   1.622   0.418 -0.0303 -0.7940  1.6691
13798SOL     OW42813   1.634   0.201   5.074  0.5917  0.0585 -0.1912
13798SOL    HW142814   1.637   0.116   5.117  0.1542 -0.2279 -0.7170
13798SOL    HW242815   1.683   0.259   5.132 -2.2441  0.3426  2.1207
13799SOL     OW42816   7.670   4.134   5.286 -0.4220  0.4482 -0.0803
13799SOL    HW142817   7.763   4.135   5.261 -0.3615  0.3973  0.1339
13799SOL    HW242818   7.644   4.043   5.276 -1.0795  0.8260 -2.3688
13800SOL     OW42819   5.037   7.791   1.780  0.2820  0.1581 -0.5294
13800SOL    HW142820   4.960   7.742   1.811  0.6902 -0.2653 -0.1694
13800SOL    HW242821   5.039   7.774   1.686 -0.1309  0.2669 -0.5617
13801SOL     OW42822   6.947   2.170   8.034  0.0432 -0.2100  0.6881
13801SOL    HW142823   6.995   2.132   7.960 -2.0972 -1.7869  0.0021
13801SOL    HW242824   6.992   2.136   8.111  1.1084 -0.1641  0.1046
13802SOL     OW42825   5.623   6.700   0.019 -0.1111 -0.2622  0.1509
13802SOL    HW142826   5.581   6.772   0.067 -0.7952 -1.0685  0.8121
13802SOL    HW242827   5.693   6.670   0.077  0.4228  0.1100 -0.2934
13803SOL     OW42828   1.490   0.116   1.028 -0.5084  0.2931 -0.2867
13803SOL    HW142829   1.446   0.033   1.049 -0.2891  0.1523 -0.3890
13803SOL    HW242830   1.501   0.159   1.113 -0.4703  0.1430 -0.2153
13804SOL     OW42831   1.850   1.774   1.873  0.2702  0.3366 -0.1565
13804SOL    HW142832   1.865   1.693   1.922  0.4678  0.6122  0.2513
13804SOL    HW242833   1.760   1.766   1.841  0.9965 -1.0306 -2.0451
13805SOL     OW42834   8.315   0.954   6.838  0.2935 -0.0753 -0.2474
13805SOL    HW142835   8.376   0.959   6.764  2.4335  2.0045  1.4945
13805SOL    HW242836   8.371   0.962   6.915 -2.1475  1.4627  1.5071
13806SOL     OW42837   5.931   0.742   2.213  0.7111 -0.5994  0.2484
13806SOL    HW142838   5.915   0.723   2.121  1.7926 -1.0696  0.1465
13806SOL    HW242839   5.846   0.770   2.247 -0.0287 -1.7794 -0.5623
13807SOL     OW42840   1.101   7.116   2.575 -0.5339 -0.1446 -0.6186
13807SOL    HW142841   1.072   7.028   2.550 -0.1011  0.2289 -2.6226
13807SOL    HW242842   1.185   7.101   2.619 -1.4906 -0.8616  1.0612
13808SOL     OW42843   4.108   4.419   2.806 -0.1992 -0.3587 -0.1846
13808SOL    HW142844   4.015   4.439   2.818 -0.1045  0.4617 -0.7447
13808SOL    HW242845   4.144   4.418   2.895 -0.7439 -0.6888  0.0316
13809SOL     OW42846   1.801   7.584   7.802 -0.4545 -0.3717 -0.0943
13809SOL    HW142847   1.794   7.645   7.729  1.4883 -0.8554 -0.7553
13809SOL    HW242848   1.893   7.589   7.828 -0.9439 -0.7708  1.8459
13810SOL     OW42849   3.832   1.605   4.841  0.0647 -0.5556  0.3791
13810SOL    HW142850   3.907   1.556   4.806 -0.9139 -0.7121 -1.6401
13810SOL    HW242851   3.755   1.557   4.809 -0.9173  1.3398 -0.3076
13811SOL     OW42852   7.552   3.373   8.267 -0.0650 -0.6124 -0.0207
13811SOL    HW142853   7.505   3.317   8.206 -0.9287 -0.6787  0.6768
13811SOL    HW242854   7.488   3.391   8.337  1.2163 -1.4127  1.4134
13812SOL     OW42855   6.550   2.401   7.008 -0.0018  0.1293  0.0440
13812SOL    HW142856   6.629   2.375   6.960 -1.0544 -1.3503 -0.9857
13812SOL    HW242857   6.492   2.324   7.003  0.0984 -0.4710  4.4665
13813SOL     OW42858   4.378   2.940   5.669 -0.7024 -0.3453 -0.3651
13813SOL    HW142859   4.374   3.036   5.672 -1.6707 -0.3822 -0.0884
13813SOL    HW242860   4.468   2.919   5.691 -0.4424  0.5100 -0.5626
13814SOL     OW42861   2.311   4.388   6.027  0.1774 -1.3041 -0.4922
13814SOL    HW142862   2.227   4.367   6.067 -0.1118 -2.7232 -1.7137
13814SOL    HW242863   2.305   4.481   6.004 -0.1464 -0.8148  1.4664
13815SOL     OW42864   5.009   2.404   5.276 -0.2105  0.4767  0.3432
13815SOL    HW142865   5.061   2.462   5.332  0.1798  1.3121 -0.8254
13815SOL    HW242866   4.985   2.460   5.202  0.5168 -0.9730 -1.0273
13816SOL     OW42867   6.157   8.002   4.557  0.7612  0.4158  0.0693
13816SOL    HW142868   6.069   7.983   4.524  0.9570  0.9056 -0.7630
13816SOL    HW242869   6.155   8.096   4.575  0.8318  0.2552  0.9438
13817SOL     OW42870   2.131   5.495   6.729  0.1925 -0.1324  0.3711
13817SOL    HW142871   2.176   5.481   6.813 -0.1595 -0.0952  0.5670
13817SOL    HW242872   2.130   5.590   6.719  1.9005 -0.1756 -0.5883
13818SOL     OW42873   8.020   7.318   4.622 -0.0974  0.0193  0.0675
13818SOL    HW142874   7.993   7.272   4.702  1.9365 -0.3406  0.6140
13818SOL    HW242875   7.966   7.396   4.619  0.0786  0.2579  2.0554
13819SOL     OW42876   1.658   6.722   2.201  0.3385  0.3938  0.2010
13819SOL    HW142877   1.693   6.681   2.280 -0.6864 -0.9275  0.0101
13819SOL    HW242878   1.572   6.756   2.228  0.6480  1.3328  0.0366
13820SOL     OW42879   6.626   4.106   2.764  0.1800  0.9785 -0.1462
13820SOL    HW142880   6.587   4.095   2.677 -1.0973 -0.9466  0.5920
13820SOL    HW242881   6.555   4.139   2.818  0.4958  0.5717  0.5259
13821SOL     OW42882   1.687   6.559   1.787 -0.6928  0.6563 -0.8155
13821SOL    HW142883   1.747   6.540   1.715 -0.8172 -1.1335 -0.4759
13821SOL    HW242884   1.742   6.598   1.854  0.0485 -0.5900 -0.6676
13822SOL     OW42885   7.074   3.116   4.894  0.3898  0.1189  0.4968
13822SOL    HW142886   7.020   3.126   4.972  0.7545 -0.2267  0.7969
13822SOL    HW242887   7.115   3.030   4.904  0.3267  0.0057 -0.1445
13823SOL     OW42888   5.369   3.719   2.133  0.1094 -0.5112 -0.3969
13823SOL    HW142889   5.376   3.748   2.042 -1.1908 -1.1272 -0.7152
13823SOL    HW242890   5.401   3.629   2.132  1.9820  0.1051  0.1605
13824SOL     OW42891   0.920   8.226   6.561  0.0817  0.1739 -0.0567
13824SOL    HW142892   0.954   8.245   6.649 -0.7843  0.1778  0.2848
13824SOL    HW242893   0.830   8.257   6.563 -1.0022 -2.6682  0.1039
13825SOL     OW42894   5.704   4.351   1.406 -0.0489  0.5874 -0.0665
13825SOL    HW142895   5.767   4.355   1.478  1.3912 -0.7782 -1.1809
13825SOL    HW242896   5.691   4.442   1.380 -0.0870  1.0500  1.4661
13826SOL     OW42897   2.267   1.275   6.605  0.8382  0.1231  0.7689
13826SOL    HW142898   2.244   1.368   6.608  0.4739  0.0108  1.8316
13826SOL    HW242899   2.363   1.274   6.606  1.0292  0.5575 -2.6520
13827SOL     OW42900   2.431   0.788   2.973 -0.1462  0.4590 -0.1420
13827SOL    HW142901   2.388   0.704   2.958  0.3863  0.1740 -0.0975
13827SOL    HW242902   2.489   0.798   2.897 -0.4658  0.9502 -0.3221
13828SOL     OW42903   6.472   5.616   0.780 -0.0128 -0.0344 -0.4355
13828SOL    HW142904   6.482   5.707   0.755  1.2670  0.1005  0.4688
13828SOL    HW242905   6.522   5.567   0.714 -1.2557 -0.1577 -1.3103
13829SOL     OW42906   0.396   5.078   4.500 -0.0536  0.7167  0.1421
13829SOL    HW142907   0.470   5.138   4.504  0.4651  0.0649  0.8031
13829SOL    HW242908   0.374   5.072   4.407  1.4052  0.1340 -0.2007
13830SOL     OW42909   0.668   6.393   0.860  0.6012  0.1572 -0.5936
13830SOL    HW142910   0.673   6.433   0.773 -0.3000  2.4169  0.3111
13830SOL    HW242911   0.746   6.425   0.906 -0.3067  1.2049  0.2599
13831SOL     OW42912   0.887   1.960   6.107 -0.0470 -0.1638 -0.4701
13831SOL    HW142913   0.872   1.925   6.194  1.9432 -2.1832 -0.8476
13831SOL    HW242914   0.826   1.911   6.051 -1.1300  0.9394 -0.3012
13832SOL     OW42915   7.635   7.279   7.556  0.1216  0.0553  0.8840
13832SOL    HW142916   7.669   7.250   7.641 -0.8567 -0.5026  1.1098
13832SOL    HW242917   7.712   7.287   7.501  0.6655 -0.7268  1.4976
13833SOL     OW42918   0.733   4.097   0.794  0.4293  0.2691  0.3558
13833SOL    HW142919   0.722   4.155   0.719  1.5371 -1.0263 -0.8748
13833SOL    HW242920   0.803   4.038   0.768 -1.6204 -2.6177  0.8795
13834SOL     OW42921   2.693   1.202   4.622 -0.3641 -0.2735 -0.0861
13834SOL    HW142922   2.605   1.209   4.659  0.0796  1.4301  0.7667
13834SOL    HW242923   2.718   1.293   4.603  0.7867 -0.8194 -1.3785
13835SOL     OW42924   0.917   0.303   0.512 -0.3196 -0.0958  0.4231
13835SOL    HW142925   0.950   0.213   0.511 -1.4758 -0.5351 -1.1646
13835SOL    HW242926   0.994   0.356   0.532  0.8401 -1.2706 -0.7391
13836SOL     OW42927   8.030   4.377   3.983  0.1876  0.2719 -0.0638
13836SOL    HW142928   8.017   4.388   3.889  0.2657  1.0326  0.0056
13836SOL    HW242929   8.123   4.392   3.997  0.4022 -0.9911 -0.0041
13837SOL     OW42930   3.794   5.845   4.707 -0.0732  0.6195 -0.4239
13837SOL    HW142931   3.795   5.751   4.692 -1.6172  0.6193 -0.6237
13837SOL    HW242932   3.764   5.856   4.797 -0.8043  0.9392 -0.6989
13838SOL     OW42933   8.322   2.698   5.222 -0.3973  0.5512 -0.0440
13838SOL    HW142934   8.229   2.706   5.200 -0.6771 -0.4822  0.7166
13838SOL    HW242935   8.347   2.611   5.192  0.3792  0.8794 -0.3806
13839SOL     OW42936   3.929   7.196   5.074 -0.4333 -0.2262  0.6780
13839SOL    HW142937   3.900   7.124   5.017 -1.5172  1.0742 -0.4740
13839SOL    HW242938   3.961   7.263   5.014 -0.0951  0.5377  1.6897
13840SOL     OW42939   2.236   5.930   3.843 -0.5333 -0.0311  0.2912
13840SOL    HW142940   2.242   5.877   3.763 -3.2519 -1.0060  0.6114
13840SOL    HW242941   2.191   6.009   3.815  0.4014  0.5764  0.4827
13841SOL     OW42942   3.281   5.063   2.056  0.7611  0.0741  0.2846
13841SOL    HW142943   3.357   5.016   2.088  1.8955  0.8790 -1.0853
13841SOL    HW242944   3.214   5.050   2.123  1.5500 -2.0350  0.7476
13842SOL     OW42945   1.086   7.071   2.904 -0.0053  0.0752  0.5974
13842SOL    HW142946   1.002   7.062   2.948 -0.2349  1.3414  0.4573
13842SOL    HW242947   1.137   7.128   2.961  0.7658 -0.6518  0.6614
13843SOL     OW42948   1.551   6.154   5.728 -0.0707 -0.6433  0.4300
13843SOL    HW142949   1.553   6.124   5.819  0.5311  0.1866  0.6951
13843SOL    HW242950   1.464   6.192   5.717  0.6104  1.2549  1.3220
13844SOL     OW42951   1.647   1.492   0.147 -0.2343 -0.1828 -0.4355
13844SOL    HW142952   1.646   1.429   0.220  0.8533  0.8999  0.5582
13844SOL    HW242953   1.740   1.513   0.135 -0.6202  2.0841  0.0479
13845SOL     OW42954   4.422   1.764   4.554  0.2244  0.1142 -0.1590
13845SOL    HW142955   4.472   1.714   4.489  0.7863 -1.2714  1.2662
13845SOL    HW242956   4.331   1.737   4.541  0.3122 -0.0341 -0.4694
13846SOL     OW42957   8.309   7.025   7.328  0.1078 -0.4011 -0.4010
13846SOL    HW142958   8.308   6.989   7.416  0.2019 -0.4538 -0.4206
13846SOL    HW242959   8.370   6.968   7.280  1.3102  0.5753 -0.0819
13847SOL     OW42960   5.651   6.059   4.661  0.5418  0.6528  0.0836
13847SOL    HW142961   5.564   6.083   4.626  0.3453  1.4458  1.0692
13847SOL    HW242962   5.707   6.132   4.635  0.5195  0.9726  0.9070
13848SOL     OW42963   3.582   0.367   4.379  0.5266  0.9510 -0.0346
13848SOL    HW142964   3.663   0.318   4.389  1.0236  1.4375 -1.3595
13848SOL    HW242965   3.577   0.385   4.285 -2.9199 -2.1259 -0.6596
13849SOL     OW42966   2.781   0.300   4.304  0.2588 -0.0210  0.3792
13849SOL    HW142967   2.694   0.299   4.263 -0.5821 -0.3162  2.0483
13849SOL    HW242968   2.824   0.221   4.272 -1.1734 -1.3643  1.5938
13850SOL     OW42969   1.978   8.359   5.397 -0.7074  0.2414 -0.5696
13850SOL    HW142970   2.051   8.410   5.433 -1.1891  0.8947 -0.4997
13850SOL    HW242971   1.952   8.407   5.319 -2.3225  1.1350  0.4653
13851SOL     OW42972   4.829   7.406   7.491 -0.0518  0.2351  0.0315
13851SOL    HW142973   4.861   7.374   7.575  0.6824  0.2984 -0.2182
13851SOL    HW242974   4.763   7.471   7.514  0.1672  0.2784  0.5614
13852SOL     OW42975   4.270   2.262   2.313 -0.0711 -0.0481 -0.4762
13852SOL    HW142976   4.362   2.234   2.311 -0.1373 -0.3952  0.6915
13852SOL    HW242977   4.272   2.347   2.357 -0.2977  0.0145 -0.5862
13853SOL     OW42978   0.521   1.029   5.079  0.3381  0.4897  0.1881
13853SOL    HW142979   0.466   1.035   5.157 -0.6104 -2.0146 -0.1925
13853SOL    HW242980   0.459   1.026   5.006  1.1588  1.3452 -0.5664
13854SOL     OW42981   2.771   6.836   0.777 -0.5196 -0.1453 -0.7177
13854SOL    HW142982   2.713   6.763   0.796  0.1177 -0.3331  0.6067
13854SOL    HW242983   2.845   6.825   0.837 -1.0164  2.3011  0.4714
13855SOL     OW42984   4.618   1.314   0.021 -0.2394 -0.0909  0.5039
13855SOL    HW142985   4.583   1.264  -0.053 -1.3669 -0.9386  1.5587
13855SOL    HW242986   4.607   1.405  -0.004  0.6947 -0.3509 -0.9382
13856SOL     OW42987   3.692   7.187   2.499 -0.2371 -0.4554 -0.8869
13856SOL    HW142988   3.678   7.237   2.580 -0.2275 -0.0185 -1.1478
13856SOL    HW242989   3.744   7.246   2.444 -0.7093 -0.5314 -1.4226
13857SOL     OW42990   5.460   4.246   5.529 -0.3377 -0.3083  0.1865
13857SOL    HW142991   5.499   4.165   5.561  0.4553  0.8290  2.2823
13857SOL    HW242992   5.366   4.236   5.546 -0.2300 -0.7387  0.5451
13858SOL     OW42993   0.957   2.629   3.462 -0.3111  0.2380  0.5323
13858SOL    HW142994   0.958   2.671   3.376  1.4135 -1.8523 -0.5830
13858SOL    HW242995   1.045   2.592   3.472 -0.9260 -0.8619  2.5255
13859SOL     OW42996   5.792   4.017   3.941  0.5301 -0.5455 -0.4288
13859SOL    HW142997   5.747   4.096   3.972 -0.0012 -0.2466 -1.8682
13859SOL    HW242998   5.885   4.036   3.955  0.4009  0.2617 -0.5804
13860SOL     OW42999   0.526   3.099   2.338  0.8027 -0.4973  0.0208
13860SOL    HW143000   0.487   3.033   2.395 -0.4844  0.5958  0.4791
13860SOL    HW243001   0.603   3.129   2.385  2.7368 -3.1787 -1.2014
13861SOL     OW43002   7.296   1.471   3.656 -0.1081 -0.1182  0.0376
13861SOL    HW143003   7.225   1.451   3.595  0.2927 -0.5251 -0.3026
13861SOL    HW243004   7.313   1.389   3.701  1.0189 -0.3871 -0.8162
13862SOL     OW43005   0.512   6.938   7.521  0.4498 -0.3059  0.1142
13862SOL    HW143006   0.585   6.984   7.562  1.3218 -1.1300 -0.4630
13862SOL    HW243007   0.549   6.854   7.495 -0.7421 -0.7761 -0.1029
13863SOL     OW43008   0.435   0.205   8.358 -0.1120 -0.5062  0.0600
13863SOL    HW143009   0.446   0.162   8.443 -1.6796 -1.5911 -0.2314
13863SOL    HW243010   0.451   0.135   8.295 -1.9088 -0.4921 -0.4519
13864SOL     OW43011   4.113   4.527   6.477 -0.2432  0.1094 -0.0447
13864SOL    HW143012   4.203   4.502   6.454 -0.7810  0.5222 -3.0669
13864SOL    HW243013   4.114   4.623   6.478 -0.7765  0.1411 -0.9217
13865SOL     OW43014   7.780   3.069   7.141 -0.1657 -0.1787  0.0184
13865SOL    HW143015   7.827   3.082   7.224  2.2997 -0.9617 -1.1648
13865SOL    HW243016   7.719   3.142   7.136  1.1364  1.0857  1.5338
13866SOL     OW43017   6.476   4.277   2.062  0.1867  0.0366  0.0791
13866SOL    HW143018   6.417   4.346   2.092 -0.8247 -1.6191  2.1075
13866SOL    HW243019   6.557   4.292   2.111  0.3294  0.3554 -0.2462
13867SOL     OW43020   3.158   6.371   3.189  0.0425 -0.4029  0.1062
13867SOL    HW143021   3.248   6.342   3.180 -0.3517 -1.4425 -0.8213
13867SOL    HW243022   3.126   6.379   3.099 -1.1276 -1.2219  0.4196
13868SOL     OW43023   3.316   4.408   4.500 -0.1906  0.6559 -0.4552
13868SOL    HW143024   3.307   4.350   4.576 -0.1921  1.3970  0.1282
13868SOL    HW243025   3.297   4.352   4.424 -2.6112  0.4381  0.2271
13869SOL     OW43026   7.543   7.222   2.895  0.0340 -0.0741 -0.3483
13869SOL    HW143027   7.614   7.261   2.947 -0.8056 -1.1037  1.7048
13869SOL    HW243028   7.486   7.296   2.872  0.7413  0.4875 -0.3350
13870SOL     OW43029   7.823   0.344   4.358  0.3907  0.5905  0.1532
13870SOL    HW143030   7.879   0.401   4.411  0.4850  1.0870 -0.4629
13870SOL    HW243031   7.856   0.256   4.375  0.4819  0.7503  0.8377
13871SOL     OW43032   6.248   2.231   1.061  0.3787  0.3010  0.2294
13871SOL    HW143033   6.272   2.220   1.153  0.0518  0.7110  0.3710
13871SOL    HW243034   6.254   2.326   1.047  0.1307  0.2701 -0.0838
13872SOL     OW43035   4.573   3.497   0.635  0.2762 -0.0025 -0.1662
13872SOL    HW143036   4.568   3.592   0.624 -0.1494  0.7622  4.4392
13872SOL    HW243037   4.482   3.468   0.636  0.3786 -0.3494 -0.8931
13873SOL     OW43038   0.600   3.723   7.831 -0.0960  0.4915 -0.4407
13873SOL    HW143039   0.541   3.648   7.835  1.4691 -0.7415  0.7908
13873SOL    HW243040   0.567   3.776   7.759 -1.8664 -0.8436 -0.6627
13874SOL     OW43041   1.618   4.623   1.094  0.5258  0.1565  0.0058
13874SOL    HW143042   1.611   4.561   1.022 -0.8417 -0.9226  1.0178
13874SOL    HW243043   1.575   4.580   1.167  0.4409  1.8973  1.0391
13875SOL     OW43044   8.037   5.527   2.873 -0.0792  0.3300 -0.3428
13875SOL    HW143045   8.033   5.522   2.778  1.0069 -2.2669 -0.3398
13875SOL    HW243046   8.120   5.571   2.891  0.2910 -0.2312 -0.6317
13876SOL     OW43047   5.701   0.123   8.310 -0.4370  0.0535  0.0705
13876SOL    HW143048   5.793   0.144   8.294 -0.6986  0.7267 -0.5649
13876SOL    HW243049   5.694   0.119   8.406  0.1929  0.2653  0.1290
13877SOL     OW43050   0.982   2.136   6.418 -0.4652 -0.4921  0.6004
13877SOL    HW143051   1.046   2.160   6.485  1.0661 -0.4272 -0.8101
13877SOL    HW243052   1.008   2.047   6.392  0.4759  0.3268 -1.4950
13878SOL     OW43053   5.033   0.271   5.824 -0.0243 -0.0300 -0.1042
13878SOL    HW143054   5.090   0.326   5.770  1.7592 -1.1825  0.5237
13878SOL    HW243055   4.945   0.288   5.790  0.8113  0.7684 -2.0544
13879SOL     OW43056   4.508   3.279   5.984  0.0930 -0.3639 -0.2475
13879SOL    HW143057   4.598   3.255   6.006 -0.1042 -0.1749  0.8190
13879SOL    HW243058   4.455   3.229   6.046 -0.5624 -0.8235 -1.1721
13880SOL     OW43059   7.621   7.893   5.117 -0.0098  0.0001 -0.0692
13880SOL    HW143060   7.678   7.829   5.160 -1.0669 -0.9091  0.0143
13880SOL    HW243061   7.641   7.976   5.161  1.5876 -0.1898 -0.3830
13881SOL     OW43062   4.148   6.840   3.754  0.2184 -0.5218 -0.1620
13881SOL    HW143063   4.094   6.832   3.833 -1.6015 -1.1180 -1.3920
13881SOL    HW243064   4.198   6.920   3.767 -1.2762  0.3037  0.9027
13882SOL     OW43065   0.200   6.484   5.188 -0.9006 -0.5267  0.4234
13882SOL    HW143066   0.135   6.481   5.118 -0.1688  2.4195 -0.5184
13882SOL    HW243067   0.256   6.408   5.173 -1.9986 -1.1104 -0.9009
13883SOL     OW43068   3.151   1.052   7.592  0.1903 -0.5662 -0.1072
13883SOL    HW143069   3.135   1.123   7.529  0.6577 -0.3053  0.0641
13883SOL    HW243070   3.109   0.976   7.553  0.6012 -0.4412 -0.8143
13884SOL     OW43071   0.291   1.401   1.596  0.3028  0.6191 -0.4125
13884SOL    HW143072   0.224   1.427   1.533 -1.2790  0.0124  0.9419
13884SOL    HW243073   0.280   1.306   1.603  0.7331  0.6311  0.4559
13885SOL     OW43074   4.093   3.370   1.037  0.3391 -0.0970  0.2019
13885SOL    HW143075   4.090   3.275   1.022  1.5262  0.0730 -1.4153
13885SOL    HW243076   4.175   3.385   1.082  0.3133  0.1963  0.1511
13886SOL     OW43077   7.658   5.924   6.389  0.2348  0.1973  0.1288
13886SOL    HW143078   7.667   5.857   6.456  1.8374 -1.8059 -1.9352
13886SOL    HW243079   7.580   5.973   6.415  0.5386 -0.7182  3.1596
13887SOL     OW43080   8.334   0.703   0.125  0.2096  0.2724 -0.1170
13887SOL    HW143081   8.303   0.778   0.074  1.3037  1.0474  0.3148
13887SOL    HW243082   8.398   0.660   0.067  1.8425  1.4511  0.7152
13888SOL     OW43083   0.193   6.011   7.038 -0.1569 -0.4197 -0.2476
13888SOL    HW143084   0.145   5.953   6.979  1.8444 -1.2554 -1.1259
13888SOL    HW243085   0.285   5.989   7.024  0.6191  2.2341  0.1712
13889SOL     OW43086   4.051   6.362   0.288  0.6826  0.1882 -0.2944
13889SOL    HW143087   4.131   6.332   0.246  1.4715  1.8162 -0.0444
13889SOL    HW243088   4.080   6.431   0.347 -0.6280 -0.7250  1.5229
13890SOL     OW43089   1.022   7.347   2.806 -0.2309 -0.5006  0.1005
13890SOL    HW143090   1.005   7.253   2.803  0.6694 -0.7058  0.7916
13890SOL    HW243091   0.944   7.387   2.768 -1.5558 -1.4255  1.6871
13891SOL     OW43092   1.896   4.091   3.243  0.2334 -0.1985  0.2589
13891SOL    HW143093   1.947   4.165   3.275 -1.0498  0.9261 -0.1794
13891SOL    HW243094   1.959   4.035   3.198  1.1764  0.8037  0.3062
13892SOL     OW43095   4.559   2.693   6.438  0.4473 -0.5472 -0.7008
13892SOL    HW143096   4.529   2.784   6.448 -1.4889 -0.7996 -3.2839
13892SOL    HW243097   4.551   2.656   6.526  0.0642  1.4208  0.1499
13893SOL     OW43098   8.318   2.416   0.585 -0.1960  0.0665  0.0949
13893SOL    HW143099   8.289   2.327   0.605  0.5586 -0.1889  0.0782
13893SOL    HW243100   8.401   2.404   0.538  0.3268  0.8048  0.8121
13894SOL     OW43101   1.966   7.747   4.210 -0.4535 -0.1087  0.1255
13894SOL    HW143102   2.037   7.742   4.147 -0.2801  0.5481  0.2643
13894SOL    HW243103   1.910   7.672   4.190  1.3976 -1.9447  1.3741
13895SOL     OW43104   2.127   0.413   8.298 -0.2647  0.0686 -0.3631
13895SOL    HW143105   2.107   0.506   8.310 -0.8521 -0.2587  1.4245
13895SOL    HW243106   2.075   0.368   8.365  0.2101 -1.5359 -1.0222
13896SOL     OW43107   5.024   7.578   0.884  0.0648  0.3122 -0.1557
13896SOL    HW143108   4.993   7.661   0.918  0.5109  0.5663 -0.3639
13896SOL    HW243109   4.953   7.547   0.827 -0.5542  0.0322  0.7452
13897SOL     OW43110   4.628   4.162   5.474 -0.1411  0.1443 -0.5148
13897SOL    HW143111   4.641   4.230   5.540 -0.5044 -2.0021  1.9460
13897SOL    HW243112   4.545   4.184   5.432 -0.4354  1.0293  0.4819
13898SOL     OW43113   7.745   7.525   5.515 -0.3676 -0.1816 -0.6127
13898SOL    HW143114   7.756   7.447   5.460  0.2342  0.2593 -1.1335
13898SOL    HW243115   7.685   7.498   5.584 -0.5775 -0.9536 -1.0910
13899SOL     OW43116   1.122   4.571   1.809 -0.1773 -0.7575 -0.0358
13899SOL    HW143117   1.195   4.518   1.841  1.1022 -0.1302 -1.7878
13899SOL    HW243118   1.109   4.637   1.878  1.8400 -0.0495 -0.2458
13900SOL     OW43119   4.244   4.267   3.074 -0.7411  0.6137 -0.4878
13900SOL    HW143120   4.261   4.226   2.989  0.5347 -1.3502  0.6420
13900SOL    HW243121   4.210   4.196   3.129 -0.2534  1.5159  1.0396
13901SOL     OW43122   1.129   2.967   0.323 -0.0678 -0.3938 -0.0224
13901SOL    HW143123   1.068   2.948   0.251  0.2511 -1.3529 -0.0591
13901SOL    HW243124   1.206   3.002   0.279  0.0183 -0.7128 -0.1329
13902SOL     OW43125   7.585   6.038   0.491 -0.9643  0.0459  0.7156
13902SOL    HW143126   7.536   5.987   0.425 -0.2313 -1.3506  1.2215
13902SOL    HW243127   7.564   6.129   0.470  1.7996 -0.0421 -3.5999
13903SOL     OW43128   1.581   7.122   3.282  0.4352 -0.2280 -0.1399
13903SOL    HW143129   1.602   7.138   3.190 -1.0537  0.9418 -0.3099
13903SOL    HW243130   1.650   7.063   3.312  0.0639 -1.9962 -2.4396
13904SOL     OW43131   7.676   3.595   8.123 -0.4805  0.1132 -0.1408
13904SOL    HW143132   7.631   3.523   8.166 -3.0047  1.8854  0.4022
13904SOL    HW243133   7.688   3.660   8.192 -0.8255  1.3308 -1.1919
13905SOL     OW43134   5.962   7.886   6.388 -0.2745  0.4995  0.3812
13905SOL    HW143135   5.964   7.856   6.480  0.2735  1.7278  0.7798
13905SOL    HW243136   6.005   7.815   6.340 -0.9829 -0.3847  0.9911
13906SOL     OW43137   3.446   8.306   2.249 -0.1199 -0.0286  0.6514
13906SOL    HW143138   3.384   8.234   2.255 -0.2770 -0.0463 -0.8055
13906SOL    HW243139   3.482   8.299   2.161 -0.5905  2.0238  0.2434
13907SOL     OW43140   4.708   2.922   6.928 -0.0881  0.8460 -0.6316
13907SOL    HW143141   4.679   3.012   6.940  2.5809  1.5544  1.6154
13907SOL    HW243142   4.667   2.873   6.999 -0.8479  0.4351 -1.3349
13908SOL     OW43143   2.900   2.773   4.577 -0.2991  0.0810 -0.0650
13908SOL    HW143144   2.964   2.759   4.646 -2.0419  0.8374  1.8220
13908SOL    HW243145   2.936   2.728   4.501  0.7283 -2.7056  1.8958
13909SOL     OW43146   7.681   1.862   2.862  0.2222  0.0639 -0.0742
13909SOL    HW143147   7.770   1.898   2.856 -0.2290  1.1833 -0.3295
13909SOL    HW243148   7.634   1.924   2.918 -0.6426  0.0176 -0.7266
13910SOL     OW43149   6.409   0.957   4.226 -0.1207 -0.2859  0.3355
13910SOL    HW143150   6.495   0.918   4.245  0.8514  0.4334 -2.1642
13910SOL    HW243151   6.429   1.040   4.184 -2.1087  0.5184  0.8627
13911SOL     OW43152   6.642   0.480   5.312  0.1834  0.0704 -0.2480
13911SOL    HW143153   6.601   0.394   5.318 -0.2783  0.3684  1.5858
13911SOL    HW243154   6.577   0.541   5.349 -0.3288  1.5804 -3.2698
13912SOL     OW43155   6.634   2.439   4.498 -0.4498 -0.1775 -0.5468
13912SOL    HW143156   6.637   2.385   4.578  2.5457 -3.1085 -2.4009
13912SOL    HW243157   6.632   2.529   4.531 -1.3214 -1.2488  2.7799
13913SOL     OW43158   1.451   1.015   5.216  0.1244  0.0190 -0.0872
13913SOL    HW143159   1.391   1.062   5.158 -1.7019  0.0877  1.7248
13913SOL    HW243160   1.440   1.057   5.301  2.2688 -0.4639  0.4872
13914SOL     OW43161   5.347   5.154   1.037  0.0471  0.1343  0.0764
13914SOL    HW143162   5.276   5.116   1.088 -1.1203  2.9585  0.7629
13914SOL    HW243163   5.412   5.180   1.101  0.4827 -0.0614 -0.2852
13915SOL     OW43164   5.037   0.020   5.538 -0.1420  0.0840  0.8312
13915SOL    HW143165   4.994  -0.039   5.600 -0.4627 -0.5451  0.0312
13915SOL    HW243166   4.982   0.098   5.537 -0.6107 -0.2406  0.7132
13916SOL     OW43167   1.964   0.300   8.063  0.4609 -0.0973  0.1412
13916SOL    HW143168   2.017   0.340   8.132  0.6173 -0.5309  0.2776
13916SOL    HW243169   2.005   0.328   7.981 -1.9051  3.5738  0.0157
13917SOL     OW43170   6.032   3.208   3.423  0.2683  0.1675 -0.0702
13917SOL    HW143171   6.083   3.144   3.473 -1.1401  0.1981  1.4947
13917SOL    HW243172   6.044   3.290   3.471 -0.8954  0.2589  0.0798
13918SOL     OW43173   8.150   6.434   5.381 -0.0542  0.0800  0.1637
13918SOL    HW143174   8.065   6.389   5.376  0.2276 -0.5106  0.6142
13918SOL    HW243175   8.215   6.364   5.370  0.5026  0.9818 -5.3332
13919SOL     OW43176   0.649   0.817   5.173 -0.4209 -0.0851 -0.3565
13919SOL    HW143177   0.601   0.888   5.129  2.1180  0.9753 -1.5934
13919SOL    HW243178   0.679   0.761   5.102 -1.3411 -1.7638  0.5354
13920SOL     OW43179   1.570   0.025   0.255 -0.1491 -0.3746 -0.1694
13920SOL    HW143180   1.481   0.061   0.253 -0.1773 -0.3979  0.5270
13920SOL    HW243181   1.559  -0.065   0.285  0.0533 -0.5818 -0.6889
13921SOL     OW43182   6.804   0.799   4.911  0.0017 -0.7224  0.5527
13921SOL    HW143183   6.838   0.821   4.824 -0.3708 -1.1481  0.2924
13921SOL    HW243184   6.779   0.883   4.949 -1.2481 -0.6479 -0.3583
13922SOL     OW43185   4.763   0.676   6.622  0.1264 -0.0829 -0.2707
13922SOL    HW143186   4.822   0.612   6.662 -0.0172 -0.9076 -1.3475
13922SOL    HW243187   4.821   0.748   6.596  0.8298 -1.2642 -2.1013
13923SOL     OW43188   8.007   6.690   1.055  0.0635  1.1406 -0.0540
13923SOL    HW143189   7.948   6.703   1.130  0.5145  0.6322  0.3968
13923SOL    HW243190   8.087   6.736   1.080  0.5281  0.2282  0.1599
13924SOL     OW43191   8.367   0.186   0.419  0.0383 -0.0258  0.0241
13924SOL    HW143192   8.439   0.230   0.465 -0.2389 -0.2637  0.6989
13924SOL    HW243193   8.410   0.127   0.358  0.4174  1.1960 -0.9241
13925SOL     OW43194   1.849   4.175   7.948 -0.2292 -0.5567 -1.0286
13925SOL    HW143195   1.808   4.169   8.034 -1.0552  1.4343 -1.2381
13925SOL    HW243196   1.777   4.199   7.889  0.1957 -2.4548 -2.4144
13926SOL     OW43197   2.455   1.171   5.843 -0.2983  0.2616 -0.3029
13926SOL    HW143198   2.435   1.079   5.825 -0.6649  0.2125  0.3474
13926SOL    HW243199   2.370   1.213   5.854 -0.1071  0.5234  0.1746
13927SOL     OW43200   1.198   1.185   4.458  0.1691 -1.0761  0.4405
13927SOL    HW143201   1.108   1.168   4.428 -0.2059 -0.3705  1.1342
13927SOL    HW243202   1.213   1.121   4.527  0.4240 -1.5856 -0.0767
13928SOL     OW43203   0.611   4.326   3.684  0.0939  0.1465  0.2218
13928SOL    HW143204   0.547   4.279   3.631  0.0825 -0.4681  0.7695
13928SOL    HW243205   0.690   4.329   3.629  0.5166 -1.6863  0.6800
13929SOL     OW43206   8.298   2.210   2.345 -0.9989  0.0048  0.2623
13929SOL    HW143207   8.205   2.206   2.369 -1.0156 -0.0848  0.1831
13929SOL    HW243208   8.336   2.132   2.386 -0.9736  0.0014  0.2326
13930SOL     OW43209   1.681   8.342   5.205 -0.2667  0.1501 -0.1623
13930SOL    HW143210   1.744   8.271   5.197  1.5240  1.7382 -0.7125
13930SOL    HW243211   1.659   8.344   5.298 -0.8350 -1.4601 -0.2185
13931SOL     OW43212   1.720   2.125   4.566  0.1232 -0.5676  0.1726
13931SOL    HW143213   1.759   2.101   4.650 -0.9780 -1.0589  0.5672
13931SOL    HW243214   1.791   2.115   4.503  1.5399  1.6951  1.2732
13932SOL     OW43215   3.173   1.132   1.989  0.1898 -0.1211 -0.2132
13932SOL    HW143216   3.122   1.207   2.022  2.2120  1.1586  0.1745
13932SOL    HW243217   3.168   1.141   1.894 -2.0025 -1.2695 -0.2793
13933SOL     OW43218   0.725   1.765   0.990 -0.5848 -0.2988  0.0402
13933SOL    HW143219   0.809   1.722   1.008 -0.9509 -2.3198 -2.4097
13933SOL    HW243220   0.739   1.813   0.909 -1.2841  0.9884  0.6613
13934SOL     OW43221   3.619   2.114   2.877 -0.3331 -0.1157  0.3786
13934SOL    HW143222   3.669   2.181   2.830 -0.5043  0.8860  1.5782
13934SOL    HW243223   3.657   2.031   2.847  0.3095  0.5279 -0.6559
13935SOL     OW43224   5.341   1.305   7.248 -0.2131  0.0158  0.7129
13935SOL    HW143225   5.429   1.287   7.279 -1.3020 -2.7681  2.5797
13935SOL    HW243226   5.325   1.239   7.180 -1.0936 -0.0145  0.9281
13936SOL     OW43227   3.112   5.305   1.997  0.1525 -0.1502 -0.1846
13936SOL    HW143228   3.043   5.247   2.028 -0.0711 -0.9624 -2.0301
13936SOL    HW243229   3.194   5.260   2.019  0.1454  0.7247  1.8347
13937SOL     OW43230   4.342   5.511   8.045  0.1025 -0.3889  0.3965
13937SOL    HW143231   4.301   5.552   7.969  1.9667  2.8337  0.9671
13937SOL    HW243232   4.300   5.425   8.051 -2.0784  0.3059 -2.5834
13938SOL     OW43233   8.316   5.904   2.281 -0.0352 -0.2987  0.0805
13938SOL    HW143234   8.281   5.816   2.295 -2.2486  0.5626  0.3405
13938SOL    HW243235   8.328   5.911   2.187 -1.8800 -0.1980 -0.1724
13939SOL     OW43236   4.462   3.889   1.186 -0.1265 -0.6755  0.0423
13939SOL    HW143237   4.545   3.842   1.195  2.1973  2.7175 -1.3048
13939SOL    HW243238   4.475   3.970   1.236 -1.8907  0.7591 -1.6595
13940SOL     OW43239   3.493   1.297   1.468  0.4019 -0.1062  0.3222
13940SOL    HW143240   3.444   1.217   1.484 -0.3991  0.2036 -0.5176
13940SOL    HW243241   3.455   1.362   1.528 -1.0175  0.4336 -1.1056
13941SOL     OW43242   8.110   3.251   0.983  0.3283  0.0885  0.1008
13941SOL    HW143243   8.114   3.280   0.892 -0.6942 -0.2215 -0.0587
13941SOL    HW243244   8.197   3.214   1.001  0.7392  0.7132 -0.5459
13942SOL     OW43245   6.634   3.611   6.983  0.0856 -0.1148  0.6297
13942SOL    HW143246   6.565   3.581   6.924  0.0884 -1.4286  1.2453
13942SOL    HW243247   6.610   3.702   7.004  0.6960  0.7966 -2.1981
13943SOL     OW43248   3.254   7.576   7.568  0.2270  0.5871 -0.3602
13943SOL    HW143249   3.193   7.648   7.588 -1.2698 -0.5736 -0.5223
13943SOL    HW243250   3.299   7.559   7.651 -1.6760 -0.3089  0.5655
13944SOL     OW43251   5.410   4.828   6.826  0.1765 -0.8285 -0.6595
13944SOL    HW143252   5.438   4.745   6.788  0.1535 -1.4332  0.5896
13944SOL    HW243253   5.347   4.804   6.894  1.1444  0.0896  0.6260
13945SOL     OW43254   5.036   7.243   7.695  0.0925 -0.3093  0.1157
13945SOL    HW143255   5.110   7.241   7.635 -0.5736 -1.8874 -0.7239
13945SOL    HW243256   5.008   7.334   7.696  0.0787 -0.2349 -2.0738
13946SOL     OW43257   7.982   2.712   2.963 -0.1417  0.2660  0.5694
13946SOL    HW143258   7.997   2.807   2.972 -1.2411  1.1374 -4.0974
13946SOL    HW243259   7.891   2.700   2.991 -0.8333  1.1739 -1.1213
13947SOL     OW43260   1.333   3.244   4.939  0.9061  0.0964  0.1774
13947SOL    HW143261   1.338   3.190   5.018  1.4055  1.5543  1.1930
13947SOL    HW243262   1.423   3.277   4.927  0.8460 -0.1324 -1.0395
13948SOL     OW43263   3.866   7.353   7.309 -0.3710  0.2845  0.6781
13948SOL    HW143264   3.866   7.265   7.272  1.3849 -0.5368  2.4662
13948SOL    HW243265   3.793   7.353   7.371 -0.4920  0.1512  0.5346
13949SOL     OW43266   7.489   6.812   7.716 -0.0456  0.0644 -0.4859
13949SOL    HW143267   7.582   6.827   7.728 -0.0499 -0.1414 -0.1746
13949SOL    HW243268   7.465   6.864   7.640  0.5210 -0.6328 -1.1488
13950SOL     OW43269   5.763   1.053   0.377  0.0197 -0.6666 -0.1920
13950SOL    HW143270   5.749   1.101   0.459  0.8604  0.3212 -0.6032
13950SOL    HW243271   5.679   1.055   0.333 -0.5006 -1.3835  0.7227
13951SOL     OW43272   5.041   7.149   6.199  0.2187 -0.1231  0.6742
13951SOL    HW143273   4.991   7.138   6.280  0.8317 -2.7937  0.7829
13951SOL    HW243274   4.977   7.131   6.130  0.3999 -1.0446  0.7261
13952SOL     OW43275   1.336   2.884   7.194  0.4314  0.4334  0.1046
13952SOL    HW143276   1.377   2.812   7.243 -0.1266 -0.3165 -0.5046
13952SOL    HW243277   1.397   2.957   7.204  2.5989 -0.9636 -1.7880
13953SOL     OW43278   7.308   3.511   0.645 -0.1543  0.0721 -0.9561
13953SOL    HW143279   7.232   3.455   0.631  1.4237 -2.7452  0.8446
13953SOL    HW243280   7.328   3.503   0.738  3.3650 -0.8059 -1.6079
13954SOL     OW43281   5.222   6.374   3.598  0.6333 -0.2530 -0.0283
13954SOL    HW143282   5.204   6.292   3.551 -0.5605  0.2869 -0.5582
13954SOL    HW243283   5.195   6.443   3.538 -0.1112  0.4842  1.0906
13955SOL     OW43284   0.827   3.990   7.683 -0.3886  0.2387  0.6819
13955SOL    HW143285   0.802   3.970   7.593 -1.7542  1.7484  0.6658
13955SOL    HW243286   0.824   3.906   7.728 -1.8403 -0.2433 -0.2125
13956SOL     OW43287   0.571   3.035   3.354 -0.3051 -0.5783  0.6661
13956SOL    HW143288   0.520   3.087   3.417  1.5177  1.3443  0.6811
13956SOL    HW243289   0.635   2.988   3.407  0.1538 -0.2628  0.4019
13957SOL     OW43290   1.281   3.999   4.268  0.1053 -0.0484 -0.0665
13957SOL    HW143291   1.269   3.906   4.286  1.4246  0.1591  2.2843
13957SOL    HW243292   1.212   4.043   4.318  0.1379  0.2980 -0.3182
13958SOL     OW43293   3.019   5.767   6.227 -0.1797  0.1726 -0.3011
13958SOL    HW143294   3.008   5.686   6.179  0.7020 -0.1284 -0.0145
13958SOL    HW243295   3.100   5.805   6.193  0.2279  0.1626  0.6285
13959SOL     OW43296   5.583   4.854   0.471  0.5567  0.0833  0.0616
13959SOL    HW143297   5.666   4.816   0.441  1.0217 -0.4557  1.9260
13959SOL    HW243298   5.607   4.942   0.502  0.4236 -0.0299  0.4932
13960SOL     OW43299   5.482   0.028   4.336  0.2024  0.0794  0.3939
13960SOL    HW143300   5.470   0.014   4.242 -0.5671 -2.1542  0.7761
13960SOL    HW243301   5.574   0.008   4.351  0.0474 -0.7610  0.2842
13961SOL     OW43302   3.284   7.285   0.406 -0.3606  0.4011 -0.1972
13961SOL    HW143303   3.346   7.355   0.428 -3.0132  3.0656 -0.5949
13961SOL    HW243304   3.276   7.234   0.486  1.6255  0.5160  0.1289
13962SOL     OW43305   3.469   1.780   3.109  0.0696  0.3762  0.4522
13962SOL    HW143306   3.429   1.699   3.140  0.3181 -0.1967 -0.6847
13962SOL    HW243307   3.503   1.759   3.022  1.6524  1.2292  0.8315
13963SOL     OW43308   8.041   1.035   0.655  0.1525 -0.5107  0.1358
13963SOL    HW143309   8.038   0.988   0.739  3.4782 -2.5180 -0.6781
13963SOL    HW243310   8.083   1.118   0.675 -1.9889  0.4866  0.8754
13964SOL     OW43311   1.702   3.339   1.305  0.1214 -0.9047 -0.3527
13964SOL    HW143312   1.731   3.307   1.391  2.4010 -1.6986 -1.3437
13964SOL    HW243313   1.718   3.433   1.309  0.5600 -0.9880 -0.0298
13965SOL     OW43314   8.102   2.100   5.870  0.1702  0.0771  0.5895
13965SOL    HW143315   8.054   2.122   5.950  1.1182  3.2312  0.4165
13965SOL    HW243316   8.128   2.184   5.833  1.8163 -1.3469 -1.8121
13966SOL     OW43317   7.709   2.838   8.321 -0.0410 -0.8922  0.8189
13966SOL    HW143318   7.645   2.908   8.331  0.6379 -0.1046 -0.1367
13966SOL    HW243319   7.780   2.878   8.270  0.7734 -2.0145  1.0460
13967SOL     OW43320   7.657   4.711   8.055 -0.1288  0.2858 -0.0363
13967SOL    HW143321   7.735   4.694   8.108 -0.2658 -1.8698 -0.4679
13967SOL    HW243322   7.654   4.639   7.993 -0.2680  2.4295 -2.7143
13968SOL     OW43323   3.318   3.717   0.258 -0.1776  0.1816  0.1020
13968SOL    HW143324   3.347   3.668   0.334  1.2554 -0.1421 -0.6217
13968SOL    HW243325   3.276   3.796   0.294  1.1984  0.4351  1.2057
13969SOL     OW43326   2.538   3.016   0.444 -0.4479 -0.2417  0.1906
13969SOL    HW143327   2.477   2.988   0.377 -1.1923 -1.0404  1.1672
13969SOL    HW243328   2.530   2.951   0.513  2.7086 -1.3378 -0.2917
13970SOL     OW43329   6.512   4.825   5.653  0.0789  0.0349 -0.1934
13970SOL    HW143330   6.441   4.764   5.633 -2.1666  2.2009  0.7271
13970SOL    HW243331   6.561   4.782   5.724 -0.9162 -1.0524 -0.1394
13971SOL     OW43332   7.555   6.302   3.030 -0.1593  0.3224 -0.7324
13971SOL    HW143333   7.587   6.228   2.979 -0.2557  0.1784 -0.5883
13971SOL    HW243334   7.471   6.324   2.990  0.5060  1.2614 -1.6573
13972SOL     OW43335   7.185   7.998   0.527 -0.0403  0.1078 -0.3051
13972SOL    HW143336   7.109   7.941   0.517 -0.0386  0.1299 -0.4539
13972SOL    HW243337   7.165   8.052   0.603 -0.6704  0.8770 -1.0040
13973SOL     OW43338   6.630   6.292   5.512  0.2224 -0.0094  0.3824
13973SOL    HW143339   6.557   6.333   5.559 -1.3809 -1.2081 -0.9211
13973SOL    HW243340   6.623   6.326   5.422  0.2971 -1.2983 -0.1383
13974SOL     OW43341   2.491   1.141   7.439 -0.8855  0.1155  0.2880
13974SOL    HW143342   2.414   1.171   7.391 -0.9665 -2.3412 -1.3023
13974SOL    HW243343   2.463   1.062   7.484  0.4142 -0.2025  0.5996
13975SOL     OW43344   2.777   3.432   7.916  0.2753 -0.3206 -0.2196
13975SOL    HW143345   2.718   3.505   7.898  0.9096  0.0320 -0.9283
13975SOL    HW243346   2.791   3.436   8.011 -0.4401 -0.1024 -0.1190
13976SOL     OW43347   5.114   7.437   0.456  0.0884  0.2081 -0.0151
13976SOL    HW143348   5.096   7.343   0.467  0.1736  0.3877  2.1357
13976SOL    HW243349   5.041   7.469   0.404 -0.2052 -0.9693 -0.3742
13977SOL     OW43350   6.534   2.028   6.307  0.6863 -0.4874 -0.4128
13977SOL    HW143351   6.439   2.036   6.305  0.7285 -0.1370 -1.5972
13977SOL    HW243352   6.550   1.949   6.359 -0.2317 -0.4717 -0.0764
13978SOL     OW43353   2.246   0.535   2.958 -0.3619  0.4724 -0.2220
13978SOL    HW143354   2.301   0.491   2.893 -0.1337  2.8434 -1.7569
13978SOL    HW243355   2.157   0.510   2.934 -0.1672 -1.2282  0.6218
13979SOL     OW43356   6.064   5.385   7.160 -0.0289  0.1747  0.0594
13979SOL    HW143357   5.997   5.451   7.178 -0.8160 -0.0170 -1.9285
13979SOL    HW243358   6.031   5.337   7.084  1.5499 -1.1001  0.1259
13980SOL     OW43359   0.381   6.473   3.110  0.1321 -0.9094  0.0249
13980SOL    HW143360   0.416   6.531   3.178 -0.5653  0.7895 -0.9978
13980SOL    HW243361   0.290   6.501   3.100  0.5333 -0.2627 -2.4307
13981SOL     OW43362   5.684   1.228   4.910 -0.1873 -0.4606  0.5334
13981SOL    HW143363   5.668   1.138   4.936 -0.5528 -0.5075  0.1609
13981SOL    HW243364   5.668   1.229   4.815 -0.0205 -0.0458  0.5073
13982SOL     OW43365   7.395   7.943   1.971 -0.1879  0.4084 -0.1498
13982SOL    HW143366   7.441   7.972   1.892  0.4482  0.1311  0.1059
13982SOL    HW243367   7.319   7.895   1.939  0.9604 -1.1704 -0.6598
13983SOL     OW43368   1.476   8.197   7.797  0.3634 -0.2190 -0.0651
13983SOL    HW143369   1.499   8.182   7.706  1.2115  2.2080 -0.3284
13983SOL    HW243370   1.532   8.135   7.846  0.9491 -0.5473 -1.1187
13984SOL     OW43371   5.215   0.072   0.717  0.2499 -0.3439 -0.5193
13984SOL    HW143372   5.152  -0.001   0.717  1.0289 -1.0332 -1.1276
13984SOL    HW243373   5.224   0.096   0.624  0.7938 -0.1763 -0.4272
13985SOL     OW43374   6.411   7.257   1.224  0.7122 -0.0164 -0.0556
13985SOL    HW143375   6.410   7.352   1.240  0.4448  0.1295 -0.8821
13985SOL    HW243376   6.345   7.244   1.156 -0.2232 -0.9843  0.9946
13986SOL     OW43377   0.717   2.833   3.532 -1.2871 -0.7764  0.3485
13986SOL    HW143378   0.805   2.823   3.567 -0.3835  1.2465 -1.1472
13986SOL    HW243379   0.683   2.744   3.529  0.3671 -1.5217  1.7435
13987SOL     OW43380   6.338   4.263   7.713 -1.0920 -0.0816 -0.4106
13987SOL    HW143381   6.400   4.255   7.786  0.2815  1.4143 -1.3639
13987SOL    HW243382   6.252   4.270   7.756 -0.3154  0.8251  1.0673
13988SOL     OW43383   3.282   0.218   1.786  0.4678 -0.3106 -0.2685
13988SOL    HW143384   3.284   0.266   1.703  1.1260  0.0642 -0.0412
13988SOL    HW243385   3.330   0.137   1.768 -0.5095 -0.8291 -0.6087
13989SOL     OW43386   3.647   5.574   8.239 -0.0850  0.2773 -0.2892
13989SOL    HW143387   3.630   5.480   8.231 -0.1091  0.0127  2.0906
13989SOL    HW243388   3.685   5.584   8.326  1.5340  2.2872 -1.1403
13990SOL     OW43389   3.875   6.396   1.917 -0.0558  0.5998 -0.3765
13990SOL    HW143390   3.800   6.456   1.917 -0.5010  0.1028 -1.8623
13990SOL    HW243391   3.859   6.337   1.991 -0.5296  1.2237  0.0234
13991SOL     OW43392   0.273   5.941   1.159  0.3865 -0.0754  0.6603
13991SOL    HW143393   0.315   5.892   1.089 -1.3440 -0.8751  0.1327
13991SOL    HW243394   0.311   5.905   1.239  0.1218 -1.3902  0.2260
13992SOL     OW43395   8.199   2.816   0.778  0.1199  0.3051 -0.3407
13992SOL    HW143396   8.285   2.836   0.741  0.1779 -0.8635 -0.8804
13992SOL    HW243397   8.138   2.870   0.726  0.6663  2.9800  1.5698
13993SOL     OW43398   3.660   7.286   7.506  0.6759 -0.0379  0.7110
13993SOL    HW143399   3.620   7.373   7.515 -2.5739 -1.1981 -0.8821
13993SOL    HW243400   3.609   7.231   7.566  1.3411 -1.2343  0.1989
13994SOL     OW43401   2.454   3.412   5.998 -0.2478 -0.5164 -0.0378
13994SOL    HW143402   2.514   3.484   6.017 -1.8292  0.3829  1.8809
13994SOL    HW243403   2.505   3.333   6.016  0.1557  0.2224  2.4992
13995SOL     OW43404   0.309   6.388   3.605  0.3011 -0.3911  0.2573
13995SOL    HW143405   0.324   6.461   3.665 -0.7464  0.0851 -0.0290
13995SOL    HW243406   0.346   6.312   3.649  0.6103  0.1613  0.9648
13996SOL     OW43407   2.267   2.289   3.326  0.2615  0.2157  0.5706
13996SOL    HW143408   2.316   2.335   3.394 -2.1293  0.0586  2.5201
13996SOL    HW243409   2.183   2.334   3.322 -0.1771 -0.6787 -1.3060
13997SOL     OW43410   0.082   0.047   6.566  0.1741 -0.6073  0.9166
13997SOL    HW143411   0.006   0.096   6.595  1.6182  1.1397  1.9828
13997SOL    HW243412   0.148   0.061   6.634  1.9424 -0.8258 -0.6524
13998SOL     OW43413   4.589   2.838   4.424 -0.1676  0.7702 -0.1295
13998SOL    HW143414   4.552   2.834   4.512  0.5265  1.5556  0.2071
13998SOL    HW243415   4.683   2.827   4.437 -0.1420  0.0604 -0.8581
13999SOL     OW43416   1.060   2.780   5.925  0.5951 -0.6276  0.1039
13999SOL    HW143417   1.113   2.784   5.845 -0.0479 -1.0934 -0.3595
13999SOL    HW243418   0.990   2.843   5.910 -0.2310 -1.5880 -0.2468
14000SOL     OW43419   1.324   0.108   4.221 -0.1354 -0.1149 -0.0583
14000SOL    HW143420   1.366   0.171   4.162  0.0926 -0.9404 -0.7959
14000SOL    HW243421   1.259   0.063   4.167  0.3779 -1.1929  0.1931
14001SOL     OW43422   3.104   2.906   0.341 -0.1528 -0.5546  0.0932
14001SOL    HW143423   3.198   2.887   0.345 -0.1443 -0.7458 -0.9253
14001SOL    HW243424   3.079   2.887   0.251 -1.1867 -0.5547  0.3680
14002SOL     OW43425   6.397   7.194   6.018  0.6901  0.1106 -0.1120
14002SOL    HW143426   6.311   7.215   5.983  0.2912  1.8562  1.7191
14002SOL    HW243427   6.457   7.250   5.970  0.7420 -0.5933 -0.8949
14003SOL     OW43428   1.660   3.342   5.778 -0.5024  0.1847 -0.5096
14003SOL    HW143429   1.628   3.366   5.691 -0.4424  0.7675 -0.3782
14003SOL    HW243430   1.593   3.376   5.837 -0.9569 -0.9222 -0.3580
14004SOL     OW43431   7.777   3.741   0.764  0.0097  0.1230  0.1303
14004SOL    HW143432   7.710   3.791   0.811  1.4670  2.0517  0.2826
14004SOL    HW243433   7.733   3.708   0.686 -1.1946  1.0393  0.4021
14005SOL     OW43434   6.641   4.278   5.487  0.1144 -0.2718 -0.1421
14005SOL    HW143435   6.645   4.212   5.556 -0.4452 -0.1951 -0.0354
14005SOL    HW243436   6.606   4.231   5.411 -2.3065  0.3578  0.5066
14006SOL     OW43437   6.715   0.233   3.600 -0.0986 -0.0732  0.1823
14006SOL    HW143438   6.678   0.248   3.687  0.4065  1.4294  0.1727
14006SOL    HW243439   6.643   0.254   3.540  0.4615  2.0898  0.1859
14007SOL     OW43440   7.506   5.079   4.507 -0.0430 -1.1373  0.4006
14007SOL    HW143441   7.574   5.023   4.470  1.3710  0.9728 -0.3601
14007SOL    HW243442   7.474   5.131   4.434 -1.4761 -1.0712  1.0317
14008SOL     OW43443   5.174   4.164   7.665  0.0824  0.3714  0.1135
14008SOL    HW143444   5.138   4.253   7.665  0.1286  0.3901  0.2192
14008SOL    HW243445   5.102   4.109   7.634 -0.4826  0.2297  1.6217
14009SOL     OW43446   6.882   1.824   7.740 -0.6106  0.5133 -0.6193
14009SOL    HW143447   6.946   1.789   7.803 -1.5158 -2.8819 -1.3485
14009SOL    HW243448   6.921   1.806   7.654 -2.8046 -2.7472 -1.1270
14010SOL     OW43449   0.679   7.258   1.654 -0.0505  0.3863 -0.2762
14010SOL    HW143450   0.718   7.333   1.609 -0.1306 -0.2989 -1.5312
14010SOL    HW243451   0.754   7.212   1.691  0.0916  0.5174 -0.3984
14011SOL     OW43452   4.476   6.236   3.374 -0.0099 -0.3940  0.0271
14011SOL    HW143453   4.434   6.276   3.297 -0.1049 -0.6392 -0.0494
14011SOL    HW243454   4.553   6.291   3.390  1.0022 -1.3454 -1.3226
14012SOL     OW43455   8.121   1.398   1.956 -0.1085  0.4287  0.6243
14012SOL    HW143456   8.208   1.401   1.915  0.9201  0.6414  2.7102
14012SOL    HW243457   8.110   1.484   1.996 -0.4298 -0.2218  1.9929
14013SOL     OW43458   2.346   7.712   4.887 -0.2025 -0.2598  0.1468
14013SOL    HW143459   2.296   7.630   4.884  0.6222 -0.7540 -0.3337
14013SOL    HW243460   2.437   7.684   4.897  0.1826  0.5702 -0.8813
14014SOL     OW43461   0.153   3.169   5.455 -0.0585  0.0708  0.3693
14014SOL    HW143462   0.233   3.166   5.507 -0.0641  0.0859  0.3786
14014SOL    HW243463   0.154   3.086   5.406  0.0994  0.1892  0.1686
14015SOL     OW43464   3.360   5.082   3.143  0.2004 -0.0538  0.0707
14015SOL    HW143465   3.346   4.987   3.145  0.2667 -0.0895 -0.7050
14015SOL    HW243466   3.364   5.108   3.235  3.3003 -1.2633  0.4067
14016SOL     OW43467   4.658   5.874   4.170  0.1250  1.3401  0.3767
14016SOL    HW143468   4.592   5.881   4.239  1.1702  1.1613  1.4171
14016SOL    HW243469   4.690   5.964   4.158 -0.0277  1.3647  0.1346
14017SOL     OW43470   2.128   6.784   5.627 -0.1378 -0.1991  0.2911
14017SOL    HW143471   2.119   6.699   5.584  0.5827 -1.3696  2.3179
14017SOL    HW243472   2.038   6.812   5.644 -0.6062  1.3479 -3.6715
14018SOL     OW43473   5.771   0.223   4.670 -0.0249 -0.3067  0.0651
14018SOL    HW143474   5.843   0.283   4.650 -1.1826  1.7589  1.7214
14018SOL    HW243475   5.811   0.156   4.725  0.5029  1.4886  2.0132
14019SOL     OW43476   5.107   4.936   1.440 -0.1185 -0.4747  0.0375
14019SOL    HW143477   5.170   4.877   1.482  0.6430  0.2116 -0.1175
14019SOL    HW243478   5.057   4.974   1.513  0.1939 -0.4097  0.2177
14020SOL     OW43479   7.623   6.415   0.225  0.4586  0.0231  0.0819
14020SOL    HW143480   7.576   6.422   0.308  0.8965  1.1423  0.2420
14020SOL    HW243481   7.667   6.499   0.214 -1.1048  0.6230 -2.2110
14021SOL     OW43482   0.061   6.562   5.995 -0.4035 -0.3130  0.4827
14021SOL    HW143483   0.148   6.540   5.963 -0.3312  0.5259  0.0813
14021SOL    HW243484   0.077   6.617   6.072 -0.5749  0.1046  0.2226
14022SOL     OW43485   3.054   4.623   6.929 -0.2156 -0.5634 -0.2331
14022SOL    HW143486   3.074   4.534   6.901 -1.2153 -0.4884 -1.2340
14022SOL    HW243487   3.140   4.667   6.932  0.7099 -2.2624  3.0927
14023SOL     OW43488   1.359   3.100   3.783  0.2427 -0.4923  0.3639
14023SOL    HW143489   1.338   3.148   3.703 -1.7289 -3.1021 -0.8505
14023SOL    HW243490   1.321   3.153   3.853 -0.8299  0.3329 -0.7835
14024SOL     OW43491   4.745   3.011   8.083  0.2805  0.0183  0.4128
14024SOL    HW143492   4.762   2.980   7.994 -0.1227 -1.6524  0.8793
14024SOL    HW243493   4.832   3.030   8.119  0.5216 -0.2422 -0.0223
14025SOL     OW43494   2.250   7.473   7.006 -0.6202 -0.1367 -0.2015
14025SOL    HW143495   2.236   7.448   6.915 -1.8448  1.1282 -0.3909
14025SOL    HW243496   2.182   7.537   7.024 -0.2603 -0.2034  1.5535
14026SOL     OW43497   5.389   7.191   7.966 -0.7951 -0.0968 -0.0138
14026SOL    HW143498   5.337   7.214   8.043  1.1815  0.8694  1.0993
14026SOL    HW243499   5.469   7.153   8.001 -0.5517 -1.1968 -1.6697
14027SOL     OW43500   2.252   1.269   7.055 -0.1492 -0.2819  0.1662
14027SOL    HW143501   2.306   1.319   6.993  1.1304 -0.9386  0.7081
14027SOL    HW243502   2.162   1.289   7.029  0.3355 -0.5441 -1.9270
14028SOL     OW43503   6.089   1.603   3.029  0.3246 -0.1803  0.2086
14028SOL    HW143504   6.061   1.598   2.938  1.1964 -1.3704 -0.0152
14028SOL    HW243505   6.110   1.513   3.053 -1.1493 -0.1313  2.0140
14029SOL     OW43506   7.219   2.095   2.350 -0.0686  0.1326  0.0748
14029SOL    HW143507   7.279   2.170   2.350 -0.3025  0.3365  1.1732
14029SOL    HW243508   7.149   2.119   2.410  0.4824 -1.4365  1.4498
14030SOL     OW43509   5.189   0.549   4.730 -0.2492  0.2757 -0.2341
14030SOL    HW143510   5.160   0.553   4.639  1.3057  1.6305 -0.7264
14030SOL    HW243511   5.264   0.489   4.728 -0.1450  0.3944  0.1380
14031SOL     OW43512   2.472   0.964   2.296 -0.3615  0.2980  0.3096
14031SOL    HW143513   2.390   0.937   2.256  0.9680 -2.1688 -0.9629
14031SOL    HW243514   2.466   0.932   2.387 -0.3055 -1.1403 -0.1645
14032SOL     OW43515   4.981   2.809   8.370 -0.0227  0.1305  0.8470
14032SOL    HW143516   4.985   2.717   8.343 -1.8006  0.0515  0.6844
14032SOL    HW243517   4.917   2.849   8.310  1.0310  1.5908  0.6391
14033SOL     OW43518   8.287   8.358   8.076 -0.1574 -0.1334  0.3712
14033SOL    HW143519   8.346   8.395   8.011 -0.0427 -1.5785 -0.3937
14033SOL    HW243520   8.207   8.338   8.027 -1.3501  1.8650  1.4075
14034SOL     OW43521   5.680   2.776   7.634  0.5025 -0.0294 -0.4272
14034SOL    HW143522   5.659   2.818   7.550  1.1706  0.7998 -0.1883
14034SOL    HW243523   5.625   2.822   7.698 -0.0141 -0.6683 -0.4005
14035SOL     OW43524   7.903   3.240   5.426  0.2394 -0.0938 -0.5561
14035SOL    HW143525   7.959   3.313   5.397 -0.9540  1.1976  0.2621
14035SOL    HW243526   7.935   3.220   5.514  1.4677 -1.5417 -1.2875
14036SOL     OW43527   5.218   1.343   6.280  0.0651  0.4150  0.1368
14036SOL    HW143528   5.195   1.436   6.287  0.1298  0.4117  0.3837
14036SOL    HW243529   5.145   1.297   6.321  0.0523  0.3581  0.0505
14037SOL     OW43530   3.226   4.376   7.264 -0.6429  0.7934  0.1675
14037SOL    HW143531   3.137   4.387   7.298 -0.5296  0.8348  0.4531
14037SOL    HW243532   3.265   4.463   7.272 -0.5801  0.7761  0.0383
14038SOL     OW43533   8.256   2.832   6.918 -0.4989 -0.5610 -0.4223
14038SOL    HW143534   8.229   2.901   6.979  0.0296  0.0338 -0.8445
14038SOL    HW243535   8.295   2.765   6.974 -1.3381 -0.6832  0.0285
14039SOL     OW43536   1.289   0.502   6.153 -0.9762 -0.1951 -0.2635
14039SOL    HW143537   1.252   0.500   6.065  2.4456  2.0664 -1.9867
14039SOL    HW243538   1.360   0.438   6.151  0.3991  1.2356  0.0962
14040SOL     OW43539   7.173   0.252   2.585  0.2538  0.1308 -0.2145
14040SOL    HW143540   7.147   0.230   2.495 -3.5461  1.8634  0.2201
14040SOL    HW243541   7.170   0.169   2.632 -0.9774 -0.3524 -1.0882
14041SOL     OW43542   7.512   6.328   3.296  1.6663  0.1318  0.1761
14041SOL    HW143543   7.523   6.328   3.201  1.0502 -0.3459  0.0957
14041SOL    HW243544   7.526   6.237   3.322  1.7492  0.2442  0.5332
14042SOL     OW43545   7.142   4.363   0.658  0.0991  0.1067 -0.5122
14042SOL    HW143546   7.081   4.392   0.726 -0.7940  1.1271 -1.7173
14042SOL    HW243547   7.189   4.290   0.698 -0.9595  0.1707  0.9180
14043SOL     OW43548   0.772   4.596   3.055  0.4053  0.2348  0.5290
14043SOL    HW143549   0.773   4.642   3.139  0.3998  0.0546  0.6277
14043SOL    HW243550   0.803   4.508   3.076 -0.8557 -0.2103  0.5819
14044SOL     OW43551   1.091   1.129   1.163 -0.0398  0.2502  0.3398
14044SOL    HW143552   1.081   1.097   1.253 -0.7134  0.4990  0.3652
14044SOL    HW243553   1.016   1.091   1.117  0.9596 -0.8692 -0.4202
14045SOL     OW43554   2.863   1.379   6.237 -0.3426 -0.5193  0.2336
14045SOL    HW143555   2.802   1.419   6.300 -0.1082 -0.4345  0.4091
14045SOL    HW243556   2.938   1.354   6.290 -0.5486 -1.3472  0.1554
14046SOL     OW43557   8.164   6.525   6.500  0.4693 -0.2594 -0.6950
14046SOL    HW143558   8.183   6.432   6.489 -0.7668 -0.7770  1.2337
14046SOL    HW243559   8.181   6.543   6.592 -0.5111  1.1267 -0.7476
14047SOL     OW43560   1.258   7.629   0.502 -0.0873  0.0615 -0.1873
14047SOL    HW143561   1.197   7.617   0.575  1.5130  0.1771  1.2117
14047SOL    HW243562   1.335   7.669   0.541  0.2119  1.6894 -2.2313
14048SOL     OW43563   4.397   4.771   0.005 -0.6433 -0.0016  0.8406
14048SOL    HW143564   4.324   4.725   0.045 -1.3761  0.8543  0.5183
14048SOL    HW243565   4.398   4.740  -0.086 -1.7626  1.3170  0.3509
14049SOL     OW43566   4.952   0.835   6.344 -0.0985 -0.1452 -0.3536
14049SOL    HW143567   5.018   0.795   6.288 -2.4031 -2.1199 -1.8805
14049SOL    HW243568   4.924   0.913   6.295  0.0358 -0.1693 -0.4686
14050SOL     OW43569   3.792   0.294   5.109 -0.1302 -0.2527 -0.4113
14050SOL    HW143570   3.775   0.200   5.100 -2.9395  0.3456 -2.8094
14050SOL    HW243571   3.856   0.314   5.041  0.0016 -0.3145 -0.3060
14051SOL     OW43572   2.744   7.759   7.522  0.1296  0.2812  0.4057
14051SOL    HW143573   2.698   7.831   7.478  0.6972 -0.2463 -1.0910
14051SOL    HW243574   2.716   7.680   7.476  0.9663 -0.2560  0.7968
14052SOL     OW43575   8.304   3.559   6.151 -0.3161  0.1735 -0.0328
14052SOL    HW143576   8.241   3.491   6.175  0.1605  0.3007  1.6775
14052SOL    HW243577   8.269   3.597   6.070 -1.3755 -1.0777 -0.1884
14053SOL     OW43578   5.874   1.108   6.549 -0.1222 -0.4312 -0.2690
14053SOL    HW143579   5.924   1.028   6.567 -0.8319 -1.0465 -0.9883
14053SOL    HW243580   5.914   1.143   6.469  0.9503  0.5924  0.6651
14054SOL     OW43581   6.042   4.707   1.667 -0.0891  0.0189  0.4688
14054SOL    HW143582   6.020   4.679   1.578 -1.9536  2.5508  0.0278
14054SOL    HW243583   5.960   4.698   1.715  0.1217  1.4869  1.1375
14055SOL     OW43584   6.506   4.856   3.530 -0.0989 -0.3494  0.1698
14055SOL    HW143585   6.422   4.810   3.527 -0.3976  0.1561  0.5884
14055SOL    HW243586   6.545   4.839   3.444  0.1833 -2.0765  0.6086
14056SOL     OW43587   3.910   4.388   7.804  0.3084 -0.0342 -0.4389
14056SOL    HW143588   3.964   4.317   7.838  3.2350  1.5082 -1.5300
14056SOL    HW243589   3.824   4.373   7.844  0.9820 -3.6373  0.0334
14057SOL     OW43590   1.932   1.352   5.321 -0.6333  0.2984 -0.2706
14057SOL    HW143591   2.024   1.328   5.334 -1.0061  0.3484  3.5759
14057SOL    HW243592   1.903   1.296   5.249  2.0637 -0.6842 -0.7215
14058SOL     OW43593   4.100   6.902   1.831  0.6309  0.6856 -0.3384
14058SOL    HW143594   4.192   6.921   1.847  0.7553 -0.6351  0.8097
14058SOL    HW243595   4.099   6.845   1.754  0.6960  1.2756 -0.7806
14059SOL     OW43596   2.143   0.843   6.867  0.0311  0.2652 -0.0416
14059SOL    HW143597   2.094   0.819   6.946 -1.0585  0.4050 -0.6440
14059SOL    HW243598   2.078   0.886   6.811  1.2825  2.1020 -0.1488
14060SOL     OW43599   3.028   7.327   7.650  0.2443 -0.5864  0.0355
14060SOL    HW143600   3.039   7.239   7.686  1.4304 -0.4126  0.1404
14060SOL    HW243601   3.072   7.323   7.565 -1.2025 -0.5577 -0.7605
14061SOL     OW43602   1.312   6.714   0.299 -0.2762  0.2915 -0.1740
14061SOL    HW143603   1.345   6.707   0.388  0.2286  3.0016 -0.0569
14061SOL    HW243604   1.359   6.646   0.251  1.8529  0.8084  1.0246
14062SOL     OW43605   7.533   6.075   1.945 -0.6716 -0.3979  0.2414
14062SOL    HW143606   7.507   5.984   1.933  1.4611 -1.1578  0.9073
14062SOL    HW243607   7.521   6.091   2.039  2.2630 -1.2102  0.8604
14063SOL     OW43608   2.525   2.566   7.870 -0.0621  0.2676  0.7277
14063SOL    HW143609   2.612   2.527   7.878  0.0007  0.2643  0.1075
14063SOL    HW243610   2.476   2.506   7.814 -0.7512 -0.1862  1.7914
14064SOL     OW43611   0.377   3.836   6.406  0.6397  1.1099  0.1007
14064SOL    HW143612   0.448   3.867   6.349 -0.0043 -0.1130 -1.4461
14064SOL    HW243613   0.398   3.745   6.424  0.0868  1.0826  0.6541
14065SOL     OW43614   1.579   7.613   6.861 -0.6468  0.4568 -0.6814
14065SOL    HW143615   1.646   7.602   6.794 -0.9841 -0.1280 -0.9330
14065SOL    HW243616   1.578   7.707   6.878  1.0107  0.3533  0.1589
14066SOL     OW43617   2.994   7.940   8.283 -0.1028  0.1965 -0.1807
14066SOL    HW143618   2.993   7.993   8.363 -0.1390 -1.2054  0.7798
14066SOL    HW243619   3.016   8.003   8.213 -0.3541  1.5043  0.8692
14067SOL     OW43620   2.238   6.121   1.148  0.1266 -0.2765  0.1215
14067SOL    HW143621   2.313   6.077   1.187  0.4503 -0.4502 -0.6699
14067SOL    HW243622   2.244   6.212   1.180  0.1318 -0.5119  0.8066
14068SOL     OW43623   7.831   1.971   4.305 -0.1924 -0.3372 -0.1057
14068SOL    HW143624   7.857   2.044   4.249 -1.9697 -0.0514 -0.6286
14068SOL    HW243625   7.865   1.893   4.261  0.8310  0.0786 -0.0808
14069SOL     OW43626   0.646   4.852   0.483 -0.2784  0.0600 -0.3114
14069SOL    HW143627   0.626   4.788   0.415 -0.7455 -1.1667  0.9510
14069SOL    HW243628   0.648   4.936   0.436 -1.1766 -0.6674 -1.7243
14070SOL     OW43629   2.208   3.775   0.541  0.4014 -0.1906 -0.7576
14070SOL    HW143630   2.264   3.822   0.604  0.5125  1.0466 -1.7411
14070SOL    HW243631   2.262   3.702   0.512  1.6122  1.0286 -1.7602
14071SOL     OW43632   6.186   5.129   8.186 -0.5004  0.1050  0.2063
14071SOL    HW143633   6.127   5.159   8.256  0.2328  0.1569  0.8167
14071SOL    HW243634   6.128   5.087   8.123 -1.0720 -0.9967  1.4113
14072SOL     OW43635   5.536   6.276   1.037  0.0482  0.0595  0.2388
14072SOL    HW143636   5.486   6.349   1.074  1.0284  1.1853 -0.5767
14072SOL    HW243637   5.589   6.243   1.110  0.1858  0.6981  0.4322
14073SOL     OW43638   8.194   5.596   5.550 -0.3294 -0.2283  0.5665
14073SOL    HW143639   8.278   5.578   5.508 -0.1432 -2.2363  1.6903
14073SOL    HW243640   8.217   5.627   5.638 -0.7677  1.3695  0.1638
14074SOL     OW43641   3.537   5.837   2.176 -0.1288  0.0953  0.3921
14074SOL    HW143642   3.617   5.889   2.183  0.4295 -0.6388 -0.3451
14074SOL    HW243643   3.486   5.882   2.109 -0.7956  1.1113  1.5209
14075SOL     OW43644   4.469   1.865   7.786 -0.1793 -0.1731  0.7514
14075SOL    HW143645   4.528   1.817   7.844 -0.7326 -0.5613  1.0097
14075SOL    HW243646   4.405   1.905   7.845 -0.6172 -0.3940  0.4339
14076SOL     OW43647   3.010   6.423   7.190  0.3652 -0.3912  0.2439
14076SOL    HW143648   3.005   6.518   7.187  1.1586 -0.3256  0.6476
14076SOL    HW243649   2.996   6.395   7.099  1.2083  0.1851 -0.0782
14077SOL     OW43650   3.495   5.342   8.133 -0.2754 -0.1367 -0.4072
14077SOL    HW143651   3.558   5.283   8.089  1.2463  0.5779  0.7150
14077SOL    HW243652   3.446   5.285   8.191 -1.1137 -0.8067 -1.7220
14078SOL     OW43653   7.269   1.903   5.371 -0.2019 -0.5601  0.6927
14078SOL    HW143654   7.187   1.922   5.417  0.0842  1.9512  0.3040
14078SOL    HW243655   7.241   1.872   5.285 -0.7886  0.1318  0.6156
14079SOL     OW43656   7.104   5.307   5.448 -0.3554  0.2519  0.3863
14079SOL    HW143657   7.115   5.229   5.393  0.5589  1.4820 -1.2726
14079SOL    HW243658   7.049   5.365   5.395 -0.0963  1.1797  1.1282
14080SOL     OW43659   2.825   7.501   1.318  0.0922 -0.2663  0.3623
14080SOL    HW143660   2.786   7.523   1.403 -2.1521 -0.9422 -0.4289
14080SOL    HW243661   2.880   7.425   1.336 -0.8258 -0.7728  1.1359
14081SOL     OW43662   5.020   0.786   0.408 -0.1752  0.0534  0.3452
14081SOL    HW143663   5.039   0.713   0.349  0.9792 -1.1425  2.0786
14081SOL    HW243664   4.927   0.805   0.394 -0.1303 -0.7179 -1.2346
14082SOL     OW43665   7.667   0.621   7.225 -0.2005 -0.2219 -0.6471
14082SOL    HW143666   7.716   0.658   7.298 -1.2215  0.1727 -0.1545
14082SOL    HW243667   7.649   0.531   7.251  0.7626 -0.5529 -1.0878
14083SOL     OW43668   3.882   0.313   4.239  0.0872 -0.2083  0.3272
14083SOL    HW143669   3.823   0.365   4.185 -0.8796 -1.5692  0.0165
14083SOL    HW243670   3.961   0.366   4.247 -1.1112  1.5963  0.6249
14084SOL     OW43671   6.942   6.729   6.880 -0.3507  0.0967  0.4772
14084SOL    HW143672   6.987   6.724   6.795 -0.0259 -2.0626  0.6999
14084SOL    HW243673   6.876   6.660   6.876 -1.2774  0.8864  1.4903
14085SOL     OW43674   1.545   3.882   7.384  0.3544 -0.1637  0.3771
14085SOL    HW143675   1.520   3.789   7.379 -0.5429  0.0650  0.5183
14085SOL    HW243676   1.585   3.891   7.471  0.0394 -0.3216  0.5396
14086SOL     OW43677   1.221   6.496   5.233 -0.1735  0.0687 -0.1776
14086SOL    HW143678   1.274   6.564   5.275  2.6354 -1.6788 -0.5892
14086SOL    HW243679   1.231   6.419   5.290 -2.5702 -0.2948 -0.1495
14087SOL     OW43680   2.957   7.668   0.017 -0.1669 -0.1801 -0.2928
14087SOL    HW143681   3.002   7.626  -0.056  0.4038 -0.2215  0.0753
14087SOL    HW243682   2.918   7.747  -0.021  0.8716  0.2613 -0.4631
14088SOL     OW43683   6.456   7.284   8.211 -0.1139 -0.0179 -0.2875
14088SOL    HW143684   6.382   7.345   8.213 -1.3714 -1.5060  0.8117
14088SOL    HW243685   6.435   7.218   8.276  0.8481 -2.0334 -1.9095
14089SOL     OW43686   1.205   5.643   6.414  0.0869  0.2154  0.0661
14089SOL    HW143687   1.286   5.686   6.441 -0.0730  0.7926 -0.3582
14089SOL    HW243688   1.211   5.638   6.319  0.2950 -1.1072  0.1261
14090SOL     OW43689   1.011   0.652   3.429  0.1894 -0.4171  0.2376
14090SOL    HW143690   1.038   0.642   3.338  0.0517 -0.2149  0.1733
14090SOL    HW243691   1.013   0.747   3.444 -1.7373 -0.2756 -0.1526
14091SOL     OW43692   2.282   3.541   3.509  0.2342  0.2239 -0.2069
14091SOL    HW143693   2.318   3.539   3.597  0.5128  1.6639 -0.2664
14091SOL    HW243694   2.265   3.634   3.492 -1.6116 -0.2057 -0.9454
14092SOL     OW43695   2.617   2.804   0.027 -0.3663  0.0835 -0.2065
14092SOL    HW143696   2.652   2.756   0.102  2.4307  1.5922 -0.3903
14092SOL    HW243697   2.529   2.830   0.053 -0.6390 -2.0629  1.2545
14093SOL     OW43698   4.325   0.936   0.305 -0.6767 -0.1345 -0.5880
14093SOL    HW143699   4.309   0.847   0.336  0.9660 -0.1686  0.2803
14093SOL    HW243700   4.251   0.987   0.338 -1.1164 -0.9852 -0.2311
14094SOL     OW43701   7.799   5.119   7.142  0.2843  0.3173  0.6841
14094SOL    HW143702   7.757   5.085   7.062 -0.1438  0.4201  0.8600
14094SOL    HW243703   7.892   5.109   7.126  0.3747  2.7280 -0.9362
14095SOL     OW43704   1.995   3.720   0.273  0.4289  0.3463  0.2265
14095SOL    HW143705   1.925   3.767   0.319 -2.9911 -2.7747 -1.2614
14095SOL    HW243706   2.008   3.640   0.324  0.2575 -0.7878 -1.4349
14096SOL     OW43707   4.611   7.842   5.404 -0.0223  0.1119  0.0708
14096SOL    HW143708   4.700   7.833   5.440 -0.4513  0.1120  1.1686
14096SOL    HW243709   4.559   7.777   5.452 -0.5507 -0.1702 -0.8438
14097SOL     OW43710   7.764   0.706   6.689 -0.1460  0.3385  0.0395
14097SOL    HW143711   7.770   0.801   6.703  0.2059  0.2557  0.4827
14097SOL    HW243712   7.677   0.683   6.721 -0.5549  0.6367 -0.8410
14098SOL     OW43713   5.140   7.508   1.413 -0.0582 -0.1804  0.0087
14098SOL    HW143714   5.163   7.483   1.502  1.3407  1.2752  0.1000
14098SOL    HW243715   5.223   7.531   1.373 -0.8562  0.7014 -1.1955
14099SOL     OW43716   0.697   7.630   2.833 -0.4618 -0.1304  0.1976
14099SOL    HW143717   0.748   7.588   2.764 -2.6546 -3.2369  0.2577
14099SOL    HW243718   0.734   7.596   2.914 -0.3125  0.5162  0.4060
14100SOL     OW43719   6.447   3.212   1.073 -0.0659  0.3372 -0.5498
14100SOL    HW143720   6.516   3.245   1.015 -1.4909  2.5752 -1.1216
14100SOL    HW243721   6.389   3.162   1.015  0.3765 -0.4257 -0.3357
14101SOL     OW43722   0.692   4.487   6.922  0.0832 -0.0894  0.6946
14101SOL    HW143723   0.774   4.501   6.874 -0.1799  0.8400  0.4940
14101SOL    HW243724   0.651   4.413   6.879  0.2498  0.2075  0.0087
14102SOL     OW43725   6.732   7.969   5.288  0.3227 -0.5614 -0.2339
14102SOL    HW143726   6.738   7.891   5.343  2.2937 -1.3938 -1.5235
14102SOL    HW243727   6.820   7.979   5.250 -0.8048  0.1718 -2.9097
14103SOL     OW43728   2.403   4.190   6.321 -0.1281  0.1255  0.5869
14103SOL    HW143729   2.322   4.220   6.362 -0.1688  1.3370 -0.3467
14103SOL    HW243730   2.453   4.270   6.304 -0.8083 -0.0873 -3.2032
14104SOL     OW43731   2.247   4.054   1.557 -0.0889  0.4215  0.3880
14104SOL    HW143732   2.259   4.127   1.496  1.7621 -0.3436 -0.2479
14104SOL    HW243733   2.270   4.090   1.642 -0.0560  0.8100  0.2174
14105SOL     OW43734   1.580   4.239   1.635  0.1384 -0.5581 -0.1534
14105SOL    HW143735   1.508   4.187   1.669 -0.6688  0.0904 -0.8357
14105SOL    HW243736   1.571   4.234   1.540  0.7588 -0.1446 -0.2439
14106SOL     OW43737   2.961   5.345   4.137 -0.0800  0.0185  0.6397
14106SOL    HW143738   2.969   5.417   4.200  0.9864  0.4111  0.0865
14106SOL    HW243739   2.905   5.379   4.068  0.8371  0.5346  0.1242
14107SOL     OW43740   2.665   7.281   6.865 -0.2291  0.4012  0.1752
14107SOL    HW143741   2.583   7.315   6.900 -0.7222 -0.8119  0.2718
14107SOL    HW243742   2.732   7.306   6.929 -0.7532  0.1918  0.8147
14108SOL     OW43743   3.715   0.460   6.235 -0.4022  0.7297  0.3050
14108SOL    HW143744   3.705   0.505   6.152 -0.6256 -0.0301 -0.0895
14108SOL    HW243745   3.671   0.517   6.299 -0.5642  1.1272 -0.1596
14109SOL     OW43746   1.468   1.197   4.213  0.0185  1.2459  0.5128
14109SOL    HW143747   1.507   1.283   4.197  0.4942  0.8901 -0.3281
14109SOL    HW243748   1.537   1.147   4.255 -0.2938  1.3043  1.0986
14110SOL     OW43749   8.300   1.409   1.746  0.1683  0.3269  0.1952
14110SOL    HW143750   8.314   1.321   1.713  2.4303  1.3514 -1.8642
14110SOL    HW243751   8.384   1.436   1.782 -0.5631  1.5476  1.0946
14111SOL     OW43752   8.030   7.097   1.641 -0.0845  0.4937 -0.1472
14111SOL    HW143753   8.015   7.189   1.618  0.5595  0.1247 -2.1569
14111SOL    HW243754   7.979   7.085   1.722 -0.8026  2.4016 -0.2548
14112SOL     OW43755   1.610   1.589   1.974  0.3906 -0.0687  0.2181
14112SOL    HW143756   1.585   1.639   2.052  0.4130 -1.0085  0.8496
14112SOL    HW243757   1.627   1.655   1.907  1.3520  0.8190  1.2971
14113SOL     OW43758   5.694   6.438   8.278 -0.1084 -0.1593  0.0944
14113SOL    HW143759   5.673   6.356   8.323 -1.2757 -0.3902 -0.7961
14113SOL    HW243760   5.787   6.432   8.259 -0.3473 -1.7190 -0.7531
14114SOL     OW43761   5.784   0.286   6.471 -0.2330  0.1094 -0.0563
14114SOL    HW143762   5.773   0.191   6.464 -1.5725  0.1946  0.6290
14114SOL    HW243763   5.775   0.317   6.381 -0.3921 -0.3551 -0.2043
14115SOL     OW43764   8.271   1.591   5.219 -0.1712  0.9758  0.0873
14115SOL    HW143765   8.364   1.588   5.196 -0.4866  2.9323 -1.8108
14115SOL    HW243766   8.269   1.583   5.314  1.9065  0.6519  0.1544
14116SOL     OW43767   0.265   0.250   2.401 -0.3238 -0.6156  0.8740
14116SOL    HW143768   0.323   0.197   2.347 -1.8014 -1.2975 -0.1288
14116SOL    HW243769   0.214   0.302   2.339  1.9646  3.1431  1.8382
14117SOL     OW43770   8.345   6.191   7.758  0.1402 -0.2460  0.9189
14117SOL    HW143771   8.253   6.213   7.770 -0.1734 -0.8852 -0.2115
14117SOL    HW243772   8.348   6.096   7.760  0.7157 -0.2411  0.5788
14118SOL     OW43773   3.167   2.552   5.239  0.0910  0.1747  0.2500
14118SOL    HW143774   3.166   2.568   5.145 -0.0500 -0.5646  0.1185
14118SOL    HW243775   3.231   2.482   5.251 -0.4416 -0.2615  0.6075
14119SOL     OW43776   2.511   8.261   2.580  0.8551  0.2285 -0.1845
14119SOL    HW143777   2.489   8.300   2.496 -1.3002  0.4540  0.4054
14119SOL    HW243778   2.602   8.285   2.596  0.8940  1.2925 -1.8224
14120SOL     OW43779   0.274   2.561   5.642 -0.0691 -0.0430  0.0152
14120SOL    HW143780   0.353   2.522   5.677  0.4880  1.4473  0.5015
14120SOL    HW243781   0.225   2.488   5.604  1.6434 -0.9563 -0.5196
14121SOL     OW43782   5.891   1.864   7.540 -0.1145 -0.3584  0.1556
14121SOL    HW143783   5.918   1.936   7.596  2.9896 -2.0135  0.9672
14121SOL    HW243784   5.838   1.906   7.471 -0.9817  2.1929  2.2229
14122SOL     OW43785   4.779   2.907   3.309  0.3246 -0.4784  0.5804
14122SOL    HW143786   4.809   2.827   3.267  2.6185  0.0325  1.0995
14122SOL    HW243787   4.832   2.914   3.388 -1.9121  0.0395  2.1338
14123SOL     OW43788   4.210   0.811   1.400  0.1271  0.2858 -0.0340
14123SOL    HW143789   4.123   0.771   1.401  0.0996  0.3199 -0.7502
14123SOL    HW243790   4.270   0.739   1.381  0.3162  0.1735  0.9115
14124SOL     OW43791   6.885   3.384   6.717 -0.4241 -0.1947  0.0273
14124SOL    HW143792   6.947   3.315   6.696  1.1101  1.0379  0.3150
14124SOL    HW243793   6.836   3.351   6.793  0.0592 -1.0877 -0.0446
14125SOL     OW43794   2.121   8.305   5.790  0.0254 -0.1939 -0.2685
14125SOL    HW143795   2.201   8.274   5.748 -0.0265 -1.2601  0.3764
14125SOL    HW243796   2.150   8.375   5.848 -0.2833  3.6690 -4.2868
14126SOL     OW43797   7.185   7.609   4.912 -0.6034 -0.1144 -0.3263
14126SOL    HW143798   7.206   7.593   5.004  0.5975 -1.6745 -0.8369
14126SOL    HW243799   7.112   7.551   4.893 -1.4602  0.8799 -0.1376
14127SOL     OW43800   6.219   5.305   1.282 -0.2589  0.0420  0.0698
14127SOL    HW143801   6.227   5.318   1.377 -0.2625  2.8593 -0.2419
14127SOL    HW243802   6.307   5.279   1.254  0.0550  0.3850  0.7109
14128SOL     OW43803   8.067   2.673   2.151  0.8225 -0.2361 -0.3877
14128SOL    HW143804   8.008   2.634   2.216  1.2125  0.6192  0.4948
14128SOL    HW243805   8.127   2.727   2.202  1.1510  0.4406 -1.4647
14129SOL     OW43806   5.947   7.452   7.300  0.1560 -0.1574 -0.6423
14129SOL    HW143807   6.024   7.507   7.312  1.3800 -1.9978  0.4740
14129SOL    HW243808   5.878   7.496   7.349  1.2843  0.0590  0.8304
14130SOL     OW43809   0.789   4.959   1.360  0.3271 -0.3144 -0.9613
14130SOL    HW143810   0.775   4.993   1.272 -0.3634 -1.6807 -1.4154
14130SOL    HW243811   0.863   4.898   1.351  0.7393  0.0894 -0.4282
14131SOL     OW43812   4.063   0.766   2.245  0.0024  0.4990  0.1483
14131SOL    HW143813   4.063   0.699   2.314 -2.9653  2.2468  2.0337
14131SOL    HW243814   4.028   0.721   2.168  1.8531 -1.0706  0.1368
14132SOL     OW43815   1.429   6.928   6.603 -0.0867 -0.3192  0.0480
14132SOL    HW143816   1.406   7.020   6.617 -0.7446 -0.2236 -1.4731
14132SOL    HW243817   1.374   6.880   6.664 -2.2850  0.1040 -1.4968
14133SOL     OW43818   5.623   3.181   3.308  0.1886  0.4601  0.5175
14133SOL    HW143819   5.594   3.245   3.373 -1.1397  0.3812  0.0270
14133SOL    HW243820   5.698   3.222   3.265 -0.4044  1.5258  0.4749
14134SOL     OW43821   2.058   1.527   1.604  0.1622 -0.4309  0.3267
14134SOL    HW143822   2.121   1.591   1.636  1.6932 -1.1025 -1.1976
14134SOL    HW243823   1.987   1.530   1.667  1.5175  0.6771  1.8844
14135SOL     OW43824   4.872   0.239   1.749  0.3570  0.2677 -0.4263
14135SOL    HW143825   4.827   0.307   1.699  0.7805  0.2081 -0.8944
14135SOL    HW243826   4.937   0.286   1.800  0.1706  0.2870 -0.2016
14136SOL     OW43827   8.086   2.442   3.764  0.0451  0.2069  0.2562
14136SOL    HW143828   8.160   2.499   3.745 -0.3946  1.7745  2.6469
14136SOL    HW243829   8.009   2.497   3.748 -0.4233  0.0455  1.7741
14137SOL     OW43830   8.029   2.688   2.680  0.4617  0.0999  0.3175
14137SOL    HW143831   7.973   2.617   2.647  2.6082 -1.2283 -0.6911
14137SOL    HW243832   8.030   2.674   2.775  0.2670 -0.7686  0.2072
14138SOL     OW43833   2.946   5.047   4.651 -0.3803 -0.2371  0.3068
14138SOL    HW143834   2.865   5.087   4.619 -0.7464 -0.9430  0.3152
14138SOL    HW243835   2.936   4.954   4.629  0.3203 -0.3672  0.5319
14139SOL     OW43836   0.993   0.994   8.219  0.1389  0.4061 -0.7648
14139SOL    HW143837   1.020   1.079   8.184  2.4487  0.3758  0.7501
14139SOL    HW243838   1.032   0.930   8.159  0.6822  0.4020 -0.4135
14140SOL     OW43839   2.372   4.493   0.281 -0.2488  0.1861 -0.2361
14140SOL    HW143840   2.306   4.545   0.236 -1.5043  1.0363  2.3366
14140SOL    HW243841   2.322   4.422   0.322  0.8486 -0.7045 -0.3802
14141SOL     OW43842   0.211   2.705   4.957  0.3996  0.1944 -0.0333
14141SOL    HW143843   0.124   2.743   4.941 -0.2704 -0.7483  1.1842
14141SOL    HW243844   0.193   2.614   4.979  1.6041  0.2232  1.1910
14142SOL     OW43845   0.543   6.576   7.072 -0.2341  0.5359  0.1393
14142SOL    HW143846   0.514   6.662   7.103 -2.7675  0.1641 -0.9878
14142SOL    HW243847   0.550   6.586   6.977 -0.4792 -0.4632  0.0028
14143SOL     OW43848   2.414   2.214   0.588  0.1938  0.2061  0.3112
14143SOL    HW143849   2.324   2.235   0.563  0.0369 -1.5859 -0.8378
14143SOL    HW243850   2.464   2.220   0.507  0.8005 -0.3325  0.6353
14144SOL     OW43851   4.849   0.159   0.471 -0.4117 -0.5535  0.2037
14144SOL    HW143852   4.817   0.233   0.523 -0.2339 -0.7979  0.6621
14144SOL    HW243853   4.824   0.181   0.381 -0.5683 -0.0473  0.3667
14145SOL     OW43854   4.310   1.750   3.507  0.0082  0.0327 -0.5444
14145SOL    HW143855   4.400   1.716   3.507  0.1097 -0.1650  3.4677
14145SOL    HW243856   4.321   1.845   3.505  0.4078  0.0314  0.6380
14146SOL     OW43857   6.853   0.663   4.150 -0.3044 -0.0961 -0.2546
14146SOL    HW143858   6.881   0.579   4.185 -0.5551 -0.1866 -0.2679
14146SOL    HW243859   6.891   0.667   4.063 -0.4579 -0.2855 -0.3317
14147SOL     OW43860   1.601   8.042   1.394  0.0767  0.6083 -0.3734
14147SOL    HW143861   1.661   8.103   1.437  0.6845  0.6687 -1.2951
14147SOL    HW243862   1.658   7.982   1.346 -0.5884  0.4682 -1.0024
14148SOL     OW43863   7.085   3.983   8.205 -0.1653 -0.2324 -0.1245
14148SOL    HW143864   7.147   3.921   8.167  0.4774 -0.3927  1.1478
14148SOL    HW243865   7.000   3.940   8.198  0.2446 -1.1815  0.5625
14149SOL     OW43866   5.960   0.610   6.802 -0.0409 -0.0662 -0.1740
14149SOL    HW143867   5.890   0.582   6.743 -0.2568 -0.6098  0.3302
14149SOL    HW243868   5.945   0.704   6.813 -0.6225 -0.1527 -0.1743
14150SOL     OW43869   5.616   7.422   7.268 -0.0749  0.3102  0.2826
14150SOL    HW143870   5.656   7.413   7.182 -0.5017 -0.6363  0.1709
14150SOL    HW243871   5.565   7.342   7.280 -2.7639  1.8825  0.0229
14151SOL     OW43872   1.951   1.961   1.277  0.0734 -0.7148  0.3832
14151SOL    HW143873   1.895   1.990   1.349  0.5667 -1.2621  1.0043
14151SOL    HW243874   1.966   2.039   1.225 -0.7189 -0.4195  0.5836
14152SOL     OW43875   7.399   1.877   2.374  0.1202 -0.2448 -0.6602
14152SOL    HW143876   7.462   1.881   2.446 -0.3681 -1.1182 -0.1742
14152SOL    HW243877   7.363   1.966   2.369  1.3602  0.2647 -0.9361
14153SOL     OW43878   5.521   3.266   3.976 -0.1784  0.2221  0.1626
14153SOL    HW143879   5.496   3.190   4.028  0.7671 -0.4381 -0.3216
14153SOL    HW243880   5.615   3.275   3.991 -0.0460  0.5024 -0.8047
14154SOL     OW43881   2.956   3.951   7.133  0.2724 -0.1298  0.1477
14154SOL    HW143882   2.999   3.893   7.070  0.3359 -0.0938  0.1578
14154SOL    HW243883   3.025   4.010   7.163 -0.2627  1.4345 -1.5369
14155SOL     OW43884   6.156   1.682   6.050 -0.0593  0.0887  0.1050
14155SOL    HW143885   6.140   1.776   6.051 -0.6473 -0.0096  1.0474
14155SOL    HW243886   6.248   1.672   6.075  0.4712  0.4781 -1.6009
14156SOL     OW43887   7.001   6.172   7.505 -0.1460 -0.2772  0.4041
14156SOL    HW143888   6.997   6.267   7.501  3.0701 -0.0854 -1.3625
14156SOL    HW243889   7.002   6.152   7.598 -1.2716  1.3304  0.8109
14157SOL     OW43890   7.677   3.850   3.741  0.4094  0.4565  0.1913
14157SOL    HW143891   7.594   3.881   3.705 -0.2556 -0.7288  0.6232
14157SOL    HW243892   7.703   3.917   3.804 -0.6023  0.5059  0.5795
14158SOL     OW43893   7.609   1.436   5.256 -0.1668  0.5543  0.2647
14158SOL    HW143894   7.665   1.473   5.187 -0.9480  1.4114  0.0825
14158SOL    HW243895   7.665   1.435   5.334  0.9498 -1.0456 -0.4991
14159SOL     OW43896   6.246   5.847   7.526 -0.2245  0.3977 -0.0701
14159SOL    HW143897   6.197   5.786   7.471  1.5095 -0.2963 -0.8881
14159SOL    HW243898   6.187   5.923   7.535 -0.5860  0.5433 -2.8708
14160SOL     OW43899   3.656   4.715   2.827  0.1637  0.8656  0.2085
14160SOL    HW143900   3.587   4.710   2.762 -1.3246  0.4277  1.7603
14160SOL    HW243901   3.731   4.671   2.786 -0.6687  0.7416 -1.2454
14161SOL     OW43902   4.513   5.923   0.099  0.2834  0.0038 -0.6537
14161SOL    HW143903   4.605   5.901   0.110  0.0557 -1.2511 -1.1417
14161SOL    HW243904   4.474   5.907   0.185  0.1321 -1.5221 -0.9841
14162SOL     OW43905   1.990   3.151   7.338  0.2857  0.2823 -0.2107
14162SOL    HW143906   2.069   3.097   7.328  0.0638  0.1235 -1.3147
14162SOL    HW243907   2.020   3.228   7.387  1.3204  0.5666 -1.2248
14163SOL     OW43908   1.622   1.568   4.550  0.8495 -0.3539  0.5297
14163SOL    HW143909   1.571   1.489   4.570  1.4170 -0.9340 -0.2750
14163SOL    HW243910   1.557   1.636   4.536  0.2890 -1.0324 -0.2510
14164SOL     OW43911   5.455   2.160   3.243 -0.1045 -0.2589 -0.7804
14164SOL    HW143912   5.541   2.120   3.254  0.9305  1.4609 -2.1616
14164SOL    HW243913   5.415   2.112   3.170  0.7551  0.5618 -1.8201
14165SOL     OW43914   0.940   2.627   1.500  0.5987  0.3139  0.0695
14165SOL    HW143915   0.964   2.720   1.508 -1.7326  0.9571  0.1875
14165SOL    HW243916   0.874   2.614   1.568  0.7164 -1.4073 -0.1112
14166SOL     OW43917   4.951   1.920   6.702 -0.1600  0.2943 -0.1728
14166SOL    HW143918   4.888   1.910   6.773  0.0484  0.8908  0.0976
14166SOL    HW243919   4.950   2.014   6.681  0.2139  0.2186 -0.5558
14167SOL     OW43920   1.747   5.815   7.767  0.0886 -0.5242  0.5707
14167SOL    HW143921   1.775   5.884   7.708  0.5433  0.0411  1.4252
14167SOL    HW243922   1.653   5.806   7.751  0.1714 -0.2657 -0.1027
14168SOL     OW43923   7.048   3.392   5.923  0.2560 -0.0811 -0.0997
14168SOL    HW143924   6.980   3.400   5.856 -0.3573 -1.8322  0.2722
14168SOL    HW243925   7.021   3.453   5.992 -0.5269 -0.1708 -0.3107
14169SOL     OW43926   4.948   6.527   1.558  0.1802 -0.3201  0.1914
14169SOL    HW143927   5.039   6.528   1.528  0.1576 -0.8714  0.0846
14169SOL    HW243928   4.920   6.618   1.553  0.7602 -0.1255  0.3331
14170SOL     OW43929   7.594   1.220   3.045 -0.3387  0.8254  0.1386
14170SOL    HW143930   7.628   1.150   3.101  0.0831  1.0054  0.1132
14170SOL    HW243931   7.502   1.227   3.068 -1.4001 -2.2836 -2.4607
14171SOL     OW43932   6.661   8.255   0.399  0.3505 -0.3528 -0.2012
14171SOL    HW143933   6.679   8.335   0.447 -0.6465 -0.3679  0.2208
14171SOL    HW243934   6.618   8.198   0.463  1.5105 -1.4240 -0.3445
14172SOL     OW43935   7.944   0.618   5.015  0.1752  0.2126 -0.0057
14172SOL    HW143936   7.974   0.532   4.987  0.7474  0.2867  0.3712
14172SOL    HW243937   7.867   0.600   5.069 -2.1921  0.1404 -3.0597
14173SOL     OW43938   5.317   1.679   4.476 -0.1463  0.8042  0.1665
14173SOL    HW143939   5.408   1.657   4.458 -0.6436 -1.3702  0.0678
14173SOL    HW243940   5.322   1.748   4.543  1.5588  2.0662 -1.1795
14174SOL     OW43941   0.971   4.578   0.354  0.3349 -0.0855  0.0422
14174SOL    HW143942   0.897   4.524   0.328 -0.0024  0.0001  0.8025
14174SOL    HW243943   0.940   4.628   0.429  0.6429  1.1556 -0.6175
14175SOL     OW43944   6.795   6.650   7.357  0.1292  0.4482  0.2001
14175SOL    HW143945   6.708   6.669   7.393  0.7353  1.0463  1.3774
14175SOL    HW243946   6.852   6.717   7.394  1.5445 -1.2673  1.2464
14176SOL     OW43947   0.583   2.657   5.290  0.5211 -0.1670  0.1586
14176SOL    HW143948   0.594   2.741   5.334  0.9756 -0.1882  0.0837
14176SOL    HW243949   0.594   2.592   5.359  3.1598 -0.2917 -0.2730
14177SOL     OW43950   2.415   6.539   2.408 -0.3144 -0.3005  0.0439
14177SOL    HW143951   2.451   6.555   2.321  1.3518 -0.5600  0.6399
14177SOL    HW243952   2.349   6.607   2.421 -0.1025  0.1421 -1.1487
14178SOL     OW43953   0.622   3.191   2.704  0.2684  0.4197  0.0920
14178SOL    HW143954   0.653   3.279   2.726 -1.0164  1.1666 -0.9398
14178SOL    HW243955   0.544   3.179   2.759 -1.1547  1.0608 -1.6866
14179SOL     OW43956   5.093   2.216   3.292 -0.1896 -0.1231 -0.2150
14179SOL    HW143957   5.018   2.275   3.288 -1.2006 -1.1778  1.7820
14179SOL    HW243958   5.073   2.148   3.226  0.9419  1.5824 -2.4569
14180SOL     OW43959   8.091   6.035   0.456  0.1075  0.0781 -0.0070
14180SOL    HW143960   8.064   6.087   0.380 -0.4643 -0.1287  0.0510
14180SOL    HW243961   8.013   6.033   0.512 -0.3196 -1.9651 -0.6174
14181SOL     OW43962   3.200   5.095   7.399  0.0969 -0.1483  0.1135
14181SOL    HW143963   3.119   5.132   7.363  0.2325 -1.3797 -1.5845
14181SOL    HW243964   3.266   5.112   7.331  0.9243 -0.4442  0.8322
14182SOL     OW43965   6.739   7.122   3.345  0.1250 -0.0880  0.1801
14182SOL    HW143966   6.708   7.181   3.414 -0.8675  0.0356 -0.3489
14182SOL    HW243967   6.815   7.166   3.308  2.5475 -1.5152  3.1108
14183SOL     OW43968   7.242   7.183   7.575 -0.2693 -0.7340 -0.0773
14183SOL    HW143969   7.170   7.210   7.518 -0.5414 -0.4461  0.4022
14183SOL    HW243970   7.299   7.259   7.579  0.9174 -1.4619 -1.7416
14184SOL     OW43971   8.222   1.878   7.702 -0.0599 -0.5275  0.3483
14184SOL    HW143972   8.278   1.944   7.663  0.9755 -0.2849  2.1853
14184SOL    HW243973   8.136   1.921   7.710 -0.4152 -0.6862 -1.8419
14185SOL     OW43974   1.185   5.238   1.509 -0.4806 -0.1229  0.8091
14185SOL    HW143975   1.209   5.323   1.472 -3.6619  0.0407 -1.2880
14185SOL    HW243976   1.229   5.174   1.453  0.4556  0.1031  1.2639
14186SOL     OW43977   3.208   7.430   6.909  0.3183  0.1394 -0.1143
14186SOL    HW143978   3.122   7.469   6.892  0.0541 -1.0639 -1.9381
14186SOL    HW243979   3.271   7.500   6.891 -0.2475  0.6499 -0.1107
14187SOL     OW43980   0.981   3.072   0.631  0.0202 -0.5373  0.0818
14187SOL    HW143981   0.952   2.984   0.657  0.8463 -0.8333  0.0506
14187SOL    HW243982   0.912   3.105   0.575 -0.3571 -1.1264  0.1895
14188SOL     OW43983   5.184   1.234   0.918 -0.2455  0.0090  0.3635
14188SOL    HW143984   5.151   1.155   0.961  2.0058  0.0008  2.2649
14188SOL    HW243985   5.109   1.293   0.918 -1.4804 -1.4750  0.5362
14189SOL     OW43986   4.394   1.640   1.082  0.5638 -0.7340  0.4788
14189SOL    HW143987   4.482   1.650   1.119 -0.4463 -0.2169  2.9296
14189SOL    HW243988   4.362   1.729   1.072 -0.0275 -0.9366  0.5182
14190SOL     OW43989   2.424   2.160   2.462  0.3553  0.1960 -0.0015
14190SOL    HW143990   2.516   2.137   2.457  0.7650  1.2759  1.7416
14190SOL    HW243991   2.409   2.219   2.388  1.0162 -0.1356 -0.3991
14191SOL     OW43992   7.816   2.000   6.380  0.5720  0.3062  0.0685
14191SOL    HW143993   7.902   2.009   6.339  0.0986 -0.1572 -1.0560
14191SOL    HW243994   7.779   2.088   6.379  0.3217  0.2007 -1.0739
14192SOL     OW43995   2.352   1.549   4.217 -0.5269  0.3494 -0.4002
14192SOL    HW143996   2.286   1.486   4.188 -1.6009  0.4953  1.5526
14192SOL    HW243997   2.302   1.615   4.265  0.8676  1.3759 -0.3178
14193SOL     OW43998   3.956   0.011   1.877 -0.1933  0.0832  0.8116
14193SOL    HW143999   3.906   0.091   1.896  0.4709  0.4881  0.8934
14193SOL    HW244000   3.926  -0.015   1.790  0.1934  0.9194  0.4075
14194SOL     OW44001   7.718   2.328   0.480  0.5165  0.2218 -0.0689
14194SOL    HW144002   7.660   2.396   0.513  0.3254 -0.2400  0.5535
14194SOL    HW244003   7.659   2.264   0.440  0.7556  0.9237 -1.6446
14195SOL     OW44004   3.084   1.770   4.783  0.1495 -0.1073 -0.0855
14195SOL    HW144005   3.029   1.846   4.766  1.3985  1.2637  1.6829
14195SOL    HW244006   3.111   1.739   4.696  1.4130  2.8555 -0.8582
14196SOL     OW44007   0.370   6.769   3.229 -0.2497 -0.2300  0.8022
14196SOL    HW144008   0.416   6.776   3.145 -1.1978  1.3572  0.3596
14196SOL    HW244009   0.282   6.802   3.210 -1.2617 -2.1510  1.8656
14197SOL     OW44010   2.602   2.157   7.959 -0.1176 -0.1146  0.7258
14197SOL    HW144011   2.647   2.106   7.892  1.2775 -2.1784  3.0508
14197SOL    HW244012   2.647   2.242   7.958 -1.0883  0.4621 -1.8025
14198SOL     OW44013   5.982   4.165   3.401 -0.2738 -0.1488  0.1922
14198SOL    HW144014   5.907   4.222   3.419  0.2908  0.9201 -0.6860
14198SOL    HW244015   5.943   4.084   3.368 -1.0711  0.0131  0.7047
14199SOL     OW44016   7.828   7.455   6.797 -0.7390 -0.6122 -0.0252
14199SOL    HW144017   7.862   7.506   6.723  0.8804  0.5268  1.4089
14199SOL    HW244018   7.890   7.383   6.806 -1.0978 -0.9117  0.0523
14200SOL     OW44019   4.602   5.143   8.238  0.2808 -0.1098 -0.6079
14200SOL    HW144020   4.607   5.051   8.260 -0.7352  0.4462  2.3510
14200SOL    HW244021   4.590   5.144   8.143  0.3459 -2.9805 -0.7308
14201SOL     OW44022   1.989   5.337   2.214 -0.5952 -0.0650  0.0439
14201SOL    HW144023   2.038   5.276   2.270 -0.3279  0.3622  0.2875
14201SOL    HW244024   2.053   5.405   2.193 -0.5594 -0.4646 -1.1902
14202SOL     OW44025   0.988   7.948   7.344 -0.0773  0.1685 -0.5456
14202SOL    HW144026   0.932   7.878   7.312 -0.2720 -0.8525  1.8562
14202SOL    HW244027   1.023   7.916   7.427  2.6343  1.5165 -1.0344
14203SOL     OW44028   0.828   5.956   1.166  0.0181  0.2633 -0.0145
14203SOL    HW144029   0.899   6.017   1.186 -0.3109  0.5075  0.4337
14203SOL    HW244030   0.862   5.871   1.194  0.7569  0.1105 -1.3082
14204SOL     OW44031   3.468   4.190   7.170  0.2888  0.2159  0.2854
14204SOL    HW144032   3.544   4.164   7.118  0.4298 -0.0901  0.6430
14204SOL    HW244033   3.430   4.107   7.200 -0.2320  0.3619  0.0453
14205SOL     OW44034   7.597   0.588   5.410  0.2553  0.1981  0.0302
14205SOL    HW144035   7.585   0.541   5.493 -0.5079 -0.9640 -0.7096
14205SOL    HW244036   7.523   0.648   5.405  1.6194  2.1521  1.3318
14206SOL     OW44037   7.112   0.982   7.442  0.1250  0.3970  0.0831
14206SOL    HW144038   7.206   0.984   7.463  0.4680 -2.7880 -0.6175
14206SOL    HW244039   7.068   0.992   7.526  1.1811 -0.5022  0.7685
14207SOL     OW44040   6.484   2.950   6.965 -0.0119  0.0707 -0.7964
14207SOL    HW144041   6.513   2.991   7.046 -0.2400 -1.6990  0.2468
14207SOL    HW244042   6.489   2.856   6.983 -1.1805 -0.3547 -2.4371
14208SOL     OW44043   2.479   4.111   2.855 -0.9788  0.9027  0.3692
14208SOL    HW144044   2.481   4.139   2.946 -0.6218  0.4586  0.5044
14208SOL    HW244045   2.549   4.161   2.813  1.3102 -1.4340  1.1299
14209SOL     OW44046   5.638   5.530   7.663 -0.6935  0.2100  0.0627
14209SOL    HW144047   5.553   5.571   7.645 -0.2960  1.0192 -0.0263
14209SOL    HW244048   5.681   5.527   7.578 -0.9760 -1.0441 -0.0608
14210SOL     OW44049   0.769   4.417   1.893 -0.3437  0.1147 -0.0779
14210SOL    HW144050   0.750   4.507   1.865 -0.9769  0.6796  1.9887
14210SOL    HW244051   0.693   4.366   1.866 -0.5610  0.4603 -0.1229
14211SOL     OW44052   7.398   0.273   7.703  0.1477  0.4818  0.1051
14211SOL    HW144053   7.419   0.179   7.699 -0.2273  0.3938  0.2259
14211SOL    HW244054   7.305   0.278   7.681  0.2368  0.8566 -0.2058
14212SOL     OW44055   7.235   7.276   4.026  0.2975 -0.0478  0.3884
14212SOL    HW144056   7.265   7.325   3.949  1.0650 -0.7601  0.2168
14212SOL    HW244057   7.213   7.190   3.992  1.0431 -0.5021  1.0329
14213SOL     OW44058   1.856   5.197   7.930 -0.1048 -0.4878 -0.0750
14213SOL    HW144059   1.805   5.173   7.852 -1.9256  1.2362  0.5012
14213SOL    HW244060   1.937   5.146   7.922 -0.5527 -0.9427 -2.6887
14214SOL     OW44061   5.586   2.526   6.935  0.0898 -0.2545 -0.2090
14214SOL    HW144062   5.657   2.569   6.886 -0.0211  0.1256 -0.0406
14214SOL    HW244063   5.530   2.487   6.868 -0.1691  0.4313 -0.3983
14215SOL     OW44064   2.907   0.602   3.773  0.5525  0.5382  0.1486
14215SOL    HW144065   2.895   0.694   3.750  0.9060  0.1233 -1.9955
14215SOL    HW244066   2.937   0.561   3.691 -0.1396 -1.5894  0.8897
14216SOL     OW44067   4.585   8.208   6.501  0.0100  0.2105 -0.2957
14216SOL    HW144068   4.574   8.292   6.456  1.6381  1.5104  1.5967
14216SOL    HW244069   4.597   8.145   6.430 -0.8361  1.6246 -1.7587
14217SOL     OW44070   1.521   2.262   3.009 -0.1452  0.7228  0.4381
14217SOL    HW144071   1.594   2.290   2.953 -0.4697  0.4488 -0.1323
14217SOL    HW244072   1.506   2.171   2.985 -0.6174  0.7477  0.6227
14218SOL     OW44073   5.933   5.471   5.795 -0.2613 -0.2778 -0.2032
14218SOL    HW144074   5.861   5.493   5.855  0.7401  1.2319  0.4981
14218SOL    HW244075   5.894   5.477   5.708 -1.0600  0.2461  0.1791
14219SOL     OW44076   7.555   7.481   1.264 -0.2665  0.1539  0.2934
14219SOL    HW144077   7.520   7.509   1.180 -1.9749 -1.8726  0.2151
14219SOL    HW244078   7.524   7.547   1.327 -2.8794 -0.6089 -0.0667
14220SOL     OW44079   5.762   0.848   5.406 -0.0042 -0.4187 -0.3461
14220SOL    HW144080   5.763   0.936   5.367 -0.9621 -1.0001 -1.7723
14220SOL    HW244081   5.845   0.809   5.379  1.1771  0.5427  1.6370
14221SOL     OW44082   7.738   2.274   4.540  0.9333 -0.0487  0.1483
14221SOL    HW144083   7.827   2.271   4.578  0.6573 -0.4744  0.7874
14221SOL    HW244084   7.702   2.187   4.560  0.7133 -0.2145 -0.9600
14222SOL     OW44085   6.987   6.931   6.508 -0.3290  0.1833  0.1414
14222SOL    HW144086   6.931   6.995   6.464 -0.2285  1.2086  1.4372
14222SOL    HW244087   7.072   6.974   6.514  0.6006 -1.2597 -1.5787
14223SOL     OW44088   4.257   3.407   4.877  0.4078  0.5367  0.1889
14223SOL    HW144089   4.242   3.460   4.955 -2.2738  0.0997  0.0692
14223SOL    HW244090   4.191   3.438   4.815  0.9118 -0.7699 -1.0360
14224SOL     OW44091   2.741   3.685   7.002 -0.1120  0.5010 -1.0421
14224SOL    HW144092   2.750   3.594   7.033 -2.8775  0.3165 -0.5188
14224SOL    HW244093   2.774   3.683   6.912 -1.2923 -1.3934 -1.5022
14225SOL     OW44094   7.663   6.577   8.225 -0.2640 -0.3476  0.1206
14225SOL    HW144095   7.638   6.488   8.202 -0.8316  0.2609 -1.8259
14225SOL    HW244096   7.756   6.582   8.205  0.2332 -0.9974  2.0364
14226SOL     OW44097   6.023   3.456   4.313  0.1763 -0.1029  0.4473
14226SOL    HW144098   6.071   3.489   4.389  0.8038  0.6350 -0.2359
14226SOL    HW244099   6.088   3.403   4.266 -0.3630 -0.9956  0.6950
14227SOL     OW44100   7.527   3.443   7.751  0.4925  0.3240  0.1726
14227SOL    HW144101   7.556   3.387   7.823  0.7536  0.3326  0.0792
14227SOL    HW244102   7.592   3.427   7.682 -1.5289 -2.2307 -1.3528
14228SOL     OW44103   3.530   2.527   2.646  0.4724 -0.4820  0.2556
14228SOL    HW144104   3.478   2.602   2.617 -1.4464 -1.7049  0.3678
14228SOL    HW244105   3.621   2.550   2.625 -0.1644  1.4872 -0.4748
14229SOL     OW44106   4.330   7.342   5.408 -0.6349 -0.0269 -0.2888
14229SOL    HW144107   4.323   7.437   5.397  1.3932  0.0709 -1.3505
14229SOL    HW244108   4.261   7.306   5.353 -1.1590  0.8291 -0.2050
14230SOL     OW44109   7.552   2.920   4.367  0.3553  0.0662 -0.2737
14230SOL    HW144110   7.600   2.939   4.448  0.4493  1.3680 -0.6128
14230SOL    HW244111   7.511   3.003   4.344  2.7947  0.6466 -3.2180
14231SOL     OW44112   2.489   7.328   4.893 -0.0075 -0.1660 -0.1151
14231SOL    HW144113   2.498   7.313   4.799 -0.5562 -0.9748 -0.0446
14231SOL    HW244114   2.500   7.422   4.903 -1.1001  0.0954 -1.1295
14232SOL     OW44115   3.202   4.117   1.977 -0.0260 -0.0845 -0.1203
14232SOL    HW144116   3.277   4.167   1.945  0.7361 -0.3860  1.1009
14232SOL    HW244117   3.158   4.177   2.038  0.0779 -0.3999  0.2718
14233SOL     OW44118   3.762   2.288   5.384 -0.2268  0.0657 -0.4841
14233SOL    HW144119   3.800   2.369   5.351 -3.1431  2.0429  0.6333
14233SOL    HW244120   3.793   2.281   5.474 -0.1648  0.0265 -0.5081
14234SOL     OW44121   2.714   0.036   6.555  0.1992 -0.2907 -0.8129
14234SOL    HW144122   2.751  -0.037   6.505 -0.7986 -0.2571 -1.6298
14234SOL    HW244123   2.738   0.114   6.506  0.2483 -0.1637 -0.5859
14235SOL     OW44124   0.353   3.834   4.800 -0.2008 -0.0664  0.0938
14235SOL    HW144125   0.321   3.757   4.752  0.4965 -0.2540 -0.0739
14235SOL    HW244126   0.312   3.908   4.756  0.8631 -0.1976 -1.1595
14236SOL     OW44127   4.837   7.576   0.301 -0.7278  0.5897 -0.6387
14236SOL    HW144128   4.797   7.636   0.365  0.5004  1.5496 -0.7464
14236SOL    HW244129   4.763   7.526   0.267 -2.0580  2.9676 -1.5414
14237SOL     OW44130   3.695   0.563   1.428 -0.3855 -0.1710  0.7147
14237SOL    HW144131   3.673   0.609   1.346  0.0977 -0.1501  0.5965
14237SOL    HW244132   3.728   0.632   1.485  1.7606 -0.5606  0.0394
14238SOL     OW44133   3.035   5.425   6.500 -0.1183 -0.4810  0.0828
14238SOL    HW144134   2.947   5.396   6.521 -0.3463  0.6813  0.8081
14238SOL    HW244135   3.036   5.518   6.522  1.4191 -0.5738  0.5109
14239SOL     OW44136   7.701   3.372   2.329 -0.3804  0.4849  0.8648
14239SOL    HW144137   7.689   3.304   2.263 -1.4476 -0.7129  2.2077
14239SOL    HW244138   7.769   3.337   2.387  0.2619  1.3450  0.6651
14240SOL     OW44139   4.207   5.299   0.392 -0.4677  0.1897  0.2008
14240SOL    HW144140   4.277   5.262   0.445  0.5286  0.3113 -0.9836
14240SOL    HW244141   4.186   5.231   0.328 -0.9806  0.3941  0.1450
14241SOL     OW44142   8.366   3.563   3.807  0.7112 -0.2434 -0.3574
14241SOL    HW144143   8.298   3.540   3.870  2.3037  0.7233  1.8676
14241SOL    HW244144   8.376   3.484   3.753 -1.2754 -0.8355  0.0639
14242SOL     OW44145   4.842   3.104   1.573  1.0078  0.2238 -0.2001
14242SOL    HW144146   4.887   3.149   1.644 -0.4113 -1.0612  1.6083
14242SOL    HW244147   4.910   3.054   1.529  1.3835 -2.5370  3.1246
14243SOL     OW44148   3.723   0.470   2.781 -0.0865 -0.5830 -0.4763
14243SOL    HW144149   3.742   0.382   2.748 -1.2132 -1.1583  0.3517
14243SOL    HW244150   3.659   0.505   2.719  0.2397 -0.3996 -0.7138
14244SOL     OW44151   3.902   1.789   0.969 -0.1405 -0.1818  0.1736
14244SOL    HW144152   3.814   1.803   0.933 -0.1549 -1.6730 -0.4122
14244SOL    HW244153   3.888   1.734   1.046  0.3525 -1.3592 -0.5515
14245SOL     OW44154   1.800   3.128   4.894 -0.3111  0.8831  0.5851
14245SOL    HW144155   1.774   3.037   4.905 -0.5843  0.8245 -0.4150
14245SOL    HW244156   1.887   3.134   4.932  0.7400 -0.3847 -1.4791
14246SOL     OW44157   7.383   7.592   4.074  0.0721  0.0061  0.0998
14246SOL    HW144158   7.461   7.644   4.055 -0.6517  0.5172 -1.6370
14246SOL    HW244159   7.312   7.656   4.077 -0.6779 -0.7385 -1.0243
14247SOL     OW44160   5.424   2.701   4.972 -0.0901  0.4326  0.3716
14247SOL    HW144161   5.402   2.625   5.027 -0.1137 -0.2127 -0.5090
14247SOL    HW244162   5.517   2.690   4.953 -0.5641 -0.6519 -1.6222
14248SOL     OW44163   8.247   2.918   1.139  0.0263  0.3971 -0.2126
14248SOL    HW144164   8.263   2.965   1.221 -1.5698 -0.3846  0.5768
14248SOL    HW244165   8.165   2.872   1.153 -0.1713  0.0673 -2.1873
14249SOL     OW44166   7.756   5.799   1.388  0.3928 -0.1443 -0.2878
14249SOL    HW144167   7.800   5.723   1.426 -1.7545 -1.1464  0.3887
14249SOL    HW244168   7.747   5.861   1.461  1.7842  0.6292 -0.7423
14250SOL     OW44169   7.706   2.129   5.585  0.3580 -0.0799  0.9545
14250SOL    HW144170   7.759   2.055   5.612  1.3018 -0.4868 -1.6635
14250SOL    HW244171   7.619   2.091   5.569  0.0454 -0.0073  2.3992
14251SOL     OW44172   3.792   5.949   0.453 -0.7489 -0.1820 -0.0014
14251SOL    HW144173   3.702   5.954   0.422 -0.5054  0.8137 -0.5788
14251SOL    HW244174   3.839   6.014   0.402  0.4176 -1.0420 -0.0733
14252SOL     OW44175   1.791   5.542   4.083 -0.3891 -0.4007 -0.4662
14252SOL    HW144176   1.789   5.602   4.158  0.9040 -0.4363 -0.3842
14252SOL    HW244177   1.753   5.592   4.011 -1.3295 -0.2501  0.1167
14253SOL     OW44178   1.134   1.730   2.854 -0.4774  1.0969 -0.2904
14253SOL    HW144179   1.123   1.683   2.936  0.4864  0.0377 -0.7486
14253SOL    HW244180   1.188   1.806   2.877 -1.8098  1.8748  0.3951
14254SOL     OW44181   0.008   2.590   7.072 -0.4201 -0.1732  0.0798
14254SOL    HW144182  -0.087   2.596   7.060 -0.7222  0.7148  2.3485
14254SOL    HW244183   0.018   2.544   7.155  0.9476  2.8794  1.7845
14255SOL     OW44184   6.241   6.334   4.796  0.0464 -0.3908  0.1866
14255SOL    HW144185   6.271   6.419   4.763  1.4697  0.0422  2.3996
14255SOL    HW244186   6.146   6.342   4.801  0.1211  0.8826 -0.1637
14256SOL     OW44187   5.484   8.358   6.813  0.4757 -0.0187 -1.1425
14256SOL    HW144188   5.399   8.373   6.771 -0.3066 -2.5772 -0.6164
14256SOL    HW244189   5.528   8.293   6.759  1.2699 -0.1819 -0.3349
14257SOL     OW44190   3.263   7.203   0.131  0.2532  0.3124 -0.6558
14257SOL    HW144191   3.239   7.196   0.223  0.8074 -1.3446 -0.5933
14257SOL    HW244192   3.186   7.173   0.083  0.9086 -1.5998 -0.5887
14258SOL     OW44193   8.107   3.378   1.439  0.1399 -0.3498  0.0935
14258SOL    HW144194   8.106   3.303   1.380 -1.6007 -0.7170  0.5401
14258SOL    HW244195   8.124   3.453   1.381  3.3760 -1.1258 -0.1781
14259SOL     OW44196   3.728   0.815   6.071 -0.0597 -0.1270 -0.7976
14259SOL    HW144197   3.644   0.862   6.067  0.9111  1.6163 -1.7356
14259SOL    HW244198   3.724   0.754   5.998 -0.6631 -0.3079 -0.6172
14260SOL     OW44199   6.418   3.100   4.352 -0.2620 -0.1348 -0.1763
14260SOL    HW144200   6.431   3.163   4.281 -0.6104  0.1181 -0.0171
14260SOL    HW244201   6.373   3.150   4.420 -1.4315 -0.8009 -0.4284
14261SOL     OW44202   7.667   7.288   6.232  0.3945 -0.1591  0.1486
14261SOL    HW144203   7.587   7.333   6.204  0.7626  0.9362  0.8211
14261SOL    HW244204   7.712   7.266   6.150  1.8122  3.6089 -0.2705
14262SOL     OW44205   7.705   0.331   4.942  0.3846 -0.1730 -0.8529
14262SOL    HW144206   7.612   0.321   4.922  0.4511  0.6592 -1.6163
14262SOL    HW244207   7.708   0.390   5.017  0.3424  1.2128 -1.9014
14263SOL     OW44208   7.881   5.078   5.905 -0.3658  0.3050  0.4092
14263SOL    HW144209   7.949   5.058   5.969 -0.6998  1.0113  0.9916
14263SOL    HW244210   7.886   5.005   5.842  1.0131  0.4135  0.3563
14264SOL     OW44211   7.943   7.441   8.196  0.2380 -0.1518 -0.2283
14264SOL    HW144212   7.901   7.357   8.175  0.9361  0.1755 -3.2573
14264SOL    HW244213   8.026   7.416   8.237 -0.2070 -0.8758  0.2816
14265SOL     OW44214   7.587   7.221   6.813  0.0985 -0.0048 -0.2948
14265SOL    HW144215   7.593   7.314   6.833 -0.2292 -0.2110  0.8360
14265SOL    HW244216   7.642   7.209   6.735 -0.1912  1.1948 -0.7023
14266SOL     OW44217   7.709   4.045   5.612  0.3530  0.0338 -0.2084
14266SOL    HW144218   7.671   4.129   5.638  2.0894  0.8212 -0.1019
14266SOL    HW244219   7.637   3.997   5.572 -0.7164  1.4865 -0.0748
14267SOL     OW44220   7.909   0.127   2.341 -0.1547 -0.1152 -0.7053
14267SOL    HW144221   7.884   0.212   2.305  1.3040  0.4462 -0.4762
14267SOL    HW244222   7.853   0.115   2.417 -0.6881  0.4335 -1.0076
14268SOL     OW44223   3.351   1.631   1.798  0.8069 -0.0372 -0.3393
14268SOL    HW144224   3.308   1.573   1.735  0.0121  1.1174 -0.8956
14268SOL    HW244225   3.412   1.574   1.846 -1.2761 -1.7356  0.4451
14269SOL     OW44226   1.607   4.676   8.228  0.1531 -0.2865 -0.7185
14269SOL    HW144227   1.518   4.696   8.255 -0.2530 -2.3127 -0.4767
14269SOL    HW244228   1.659   4.750   8.261 -1.3353  0.6379 -0.3907
14270SOL     OW44229   6.804   6.454   5.889  0.5997 -0.0123  0.4846
14270SOL    HW144230   6.882   6.470   5.836  0.6124  1.5481  0.9263
14270SOL    HW244231   6.807   6.361   5.908  1.1431 -0.4276 -1.3790
14271SOL     OW44232   6.632   1.104   2.555  0.7057  0.2749  0.5280
14271SOL    HW144233   6.675   1.095   2.470  0.7102  1.2567  0.4217
14271SOL    HW244234   6.598   1.016   2.573 -2.1508  0.6755 -2.0191
14272SOL     OW44235   0.913   1.415   7.545 -0.1665  0.5597  0.0432
14272SOL    HW144236   0.917   1.345   7.479  2.3878  0.5292  0.1315
14272SOL    HW244237   0.948   1.375   7.624 -1.7693  1.0557  1.0678
14273SOL     OW44238   3.314   0.403   2.513 -0.0714 -0.0942  0.1710
14273SOL    HW144239   3.292   0.325   2.565  0.3466 -0.5816 -0.3676
14273SOL    HW244240   3.259   0.395   2.435  1.3853 -0.9272 -0.8364
14274SOL     OW44241   8.165   7.806   0.876  0.1582 -0.3263  0.0496
14274SOL    HW144242   8.095   7.870   0.892  0.5362 -0.4436  2.5595
14274SOL    HW244243   8.241   7.858   0.853  0.3280  0.1588  1.5794
14275SOL     OW44244   2.331   4.663   4.774  0.0354  0.0022 -0.9468
14275SOL    HW144245   2.282   4.736   4.734  0.9430 -0.0396 -2.1926
14275SOL    HW244246   2.266   4.593   4.782 -0.8088  0.8620  0.1149
14276SOL     OW44247   0.549   5.452   1.013  0.1495 -0.4114 -0.7244
14276SOL    HW144248   0.527   5.418   1.100  2.4882 -2.4298 -0.8227
14276SOL    HW244249   0.490   5.406   0.954  0.5874 -1.3506 -0.4559
14277SOL     OW44250   3.629   2.137   1.736  0.3602  0.2510  0.4716
14277SOL    HW144251   3.653   2.164   1.647 -0.5750 -0.6723 -0.0889
14277SOL    HW244252   3.626   2.042   1.731 -0.1965  0.2155  1.3552
14278SOL     OW44253   6.546   1.765   5.575 -0.3424 -0.1961  0.3781
14278SOL    HW144254   6.626   1.713   5.567  0.4158  0.9226  0.4667
14278SOL    HW244255   6.481   1.704   5.610  0.1914 -1.3805 -0.6328
14279SOL     OW44256   2.945   6.541   3.733  0.2084 -0.0642 -0.1690
14279SOL    HW144257   3.037   6.563   3.719  0.2486 -1.4300 -2.5110
14279SOL    HW244258   2.944   6.502   3.821  1.3685  2.1765  0.9431
14280SOL     OW44259   0.055   4.198   0.221 -0.2471 -0.0070 -0.6449
14280SOL    HW144260  -0.021   4.166   0.270  0.3615 -0.5263 -0.0202
14280SOL    HW244261   0.098   4.119   0.190  1.4496  0.1089  1.1707
14281SOL     OW44262   3.555   7.117   6.470  0.1980  0.1600 -0.0916
14281SOL    HW144263   3.642   7.127   6.508  0.1310  0.0001  0.1007
14281SOL    HW244264   3.503   7.187   6.508  0.1507  0.0452  0.0549
14282SOL     OW44265   5.663   2.561   5.790  0.3306 -0.2282 -0.2112
14282SOL    HW144266   5.755   2.582   5.775  0.1105 -0.7692 -2.9291
14282SOL    HW244267   5.622   2.645   5.811  1.3043  0.1331  0.2898
14283SOL     OW44268   1.332   6.799   6.794  0.1027  0.5401  0.2777
14283SOL    HW144269   1.265   6.731   6.794  0.5027  0.1081 -1.1007
14283SOL    HW244270   1.301   6.864   6.857 -1.8672  0.6171 -0.7041
14284SOL     OW44271   6.060   4.549   3.257 -0.4800 -0.2725 -0.4293
14284SOL    HW144272   6.020   4.511   3.178 -1.0648  0.5213 -0.5399
14284SOL    HW244273   6.114   4.621   3.224 -1.0248  0.3029 -0.0887
14285SOL     OW44274   6.938   1.856   2.556  0.2002  0.2913 -0.4021
14285SOL    HW144275   6.923   1.948   2.536 -0.2607  0.0665 -1.1630
14285SOL    HW244276   7.006   1.829   2.494 -0.4067 -0.1289 -0.8966
14286SOL     OW44277   1.975   6.978   7.873 -0.3455  0.0866  0.8846
14286SOL    HW144278   1.960   6.997   7.780 -0.2571 -1.1151  0.6150
14286SOL    HW244279   1.998   7.063   7.911  0.0722  0.5139 -0.2815
14287SOL     OW44280   3.058   6.312   8.267  0.1518 -0.2266 -0.2407
14287SOL    HW144281   3.064   6.287   8.175  0.4063 -1.5446  0.1207
14287SOL    HW244282   2.996   6.385   8.267  0.2711 -0.0986 -1.4718
14288SOL     OW44283   6.597   0.215   1.002 -0.0812  0.0869 -0.5376
14288SOL    HW144284   6.589   0.155   1.075 -0.3766 -0.3786 -0.9483
14288SOL    HW244285   6.690   0.240   1.002 -0.2217  0.6721  0.4391
14289SOL     OW44286   0.479   2.759   5.873  0.6366 -0.3494  0.0986
14289SOL    HW144287   0.394   2.751   5.917  0.4049 -0.1260 -0.2962
14289SOL    HW244288   0.535   2.695   5.917  0.8351  0.8381  1.6720
14290SOL     OW44289   3.087   1.883   7.454 -0.3810 -0.4751 -0.9421
14290SOL    HW144290   2.993   1.880   7.441 -0.4223  0.5948 -0.9351
14290SOL    HW244291   3.101   1.954   7.517  0.4402 -0.5696 -0.9983
14291SOL     OW44292   6.729   4.795   0.934  0.4241  0.4255  0.1272
14291SOL    HW144293   6.801   4.768   0.878  0.3416  1.7210 -0.6660
14291SOL    HW244294   6.767   4.861   0.992  0.2223 -0.0163  0.7751
14292SOL     OW44295   5.754   6.814   5.597  0.2161 -0.3539 -0.3053
14292SOL    HW144296   5.836   6.857   5.577  0.4538 -0.8722 -0.4638
14292SOL    HW244297   5.717   6.865   5.670 -0.0051  0.7188 -1.1395
14293SOL     OW44298   4.782   1.611   7.054  0.0515  0.1820  0.2944
14293SOL    HW144299   4.736   1.641   7.133  1.1298  1.9065  0.3082
14293SOL    HW244300   4.787   1.516   7.064  0.7249  0.4098  2.6425
14294SOL     OW44301   3.384   8.041   0.756 -0.0135 -0.2783  0.7100
14294SOL    HW144302   3.382   7.996   0.672 -0.2428  1.5429 -0.3194
14294SOL    HW244303   3.292   8.064   0.773  0.1789  0.4827  0.7866
14295SOL     OW44304   3.850   2.826   1.454  0.0169 -0.8541  0.2016
14295SOL    HW144305   3.773   2.771   1.442 -0.1118 -0.2764 -1.9568
14295SOL    HW244306   3.818   2.905   1.499 -0.3497 -1.2198  0.5891
14296SOL     OW44307   4.607   7.577   7.473 -1.0649  0.0140 -0.1024
14296SOL    HW144308   4.624   7.587   7.380  2.2891  1.3942  0.4900
14296SOL    HW244309   4.556   7.655   7.497 -0.0379  0.8249 -0.4710
14297SOL     OW44310   4.427   6.765   4.879  0.3443 -0.0594  0.1565
14297SOL    HW144311   4.342   6.806   4.864  0.4787 -0.5615 -2.4446
14297SOL    HW244312   4.407   6.672   4.894  0.3472  0.0829  1.0597
14298SOL     OW44313   4.887   0.181   4.790 -0.0272 -0.1061  0.6753
14298SOL    HW144314   4.951   0.182   4.861 -0.1421  0.7353  0.7764
14298SOL    HW244315   4.938   0.198   4.711 -0.1672  0.9434  0.8008
14299SOL     OW44316   2.056   3.748   4.676  0.3874  0.5917  0.3714
14299SOL    HW144317   2.061   3.782   4.765 -0.3340 -0.3648  0.7909
14299SOL    HW244318   1.972   3.702   4.672  0.5778  0.2921 -0.6884
14300SOL     OW44319   6.067   4.960   1.292 -0.1606 -1.2370 -0.1697
14300SOL    HW144320   6.124   4.970   1.216  0.4929 -3.2751  0.0110
14300SOL    HW244321   5.983   4.999   1.264  0.5655 -0.4136 -1.2961
14301SOL     OW44322   3.322   8.094   1.995  0.2448 -0.7777 -0.1806
14301SOL    HW144323   3.251   8.067   2.053 -0.7367  1.1520 -0.3731
14301SOL    HW244324   3.343   8.016   1.944 -0.3765 -1.9240  1.2448
14302SOL     OW44325   5.437   5.263   0.787 -0.2049  0.0887  0.0309
14302SOL    HW144326   5.478   5.214   0.858 -1.9440 -0.9803  0.3486
14302SOL    HW244327   5.397   5.339   0.830  0.1757  0.3402 -0.0583
14303SOL     OW44328   6.237   2.877   6.044  0.7032 -0.0853 -0.7292
14303SOL    HW144329   6.195   2.938   5.983 -1.2282 -1.2633 -0.6856
14303SOL    HW244330   6.283   2.815   5.987  0.9671  0.2335 -0.8662
14304SOL     OW44331   5.132   0.517   0.353 -0.2386  0.2172  0.0306
14304SOL    HW144332   5.107   0.425   0.344  0.7043  0.1297 -2.3722
14304SOL    HW244333   5.203   0.516   0.417  0.7835 -0.9690 -1.0608
14305SOL     OW44334   5.886   0.083   3.565  0.2063  0.1379 -0.0751
14305SOL    HW144335   5.935   0.004   3.542  0.9146  0.1619  1.2491
14305SOL    HW244336   5.902   0.143   3.493 -0.8160 -1.0919 -1.3966
14306SOL     OW44337   5.998   4.443   7.238 -0.1294 -0.0826 -0.0320
14306SOL    HW144338   5.994   4.481   7.150 -0.6237 -0.1692 -0.0482
14306SOL    HW244339   6.078   4.391   7.238 -0.6923 -0.9734 -0.7931
14307SOL     OW44340   1.627   3.250   7.423 -0.0112  0.6749  0.1314
14307SOL    HW144341   1.634   3.315   7.353  2.1215  0.2117 -0.1588
14307SOL    HW244342   1.615   3.167   7.377 -1.2308  0.6662  0.4421
14308SOL     OW44343   0.634   7.342   2.053  0.2268 -0.1394  0.1002
14308SOL    HW144344   0.721   7.347   2.013  0.6939  1.0845  1.1619
14308SOL    HW244345   0.574   7.330   1.980  1.1277  0.9307 -0.8567
14309SOL     OW44346   6.679   3.338   2.017  0.2541  0.0706  0.7063
14309SOL    HW144347   6.709   3.249   1.995 -0.8964 -0.4706  1.2451
14309SOL    HW244348   6.756   3.393   2.006  0.4423 -0.5873 -1.9901
14310SOL     OW44349   2.866   6.235   1.959  0.0487 -0.3367  0.4143
14310SOL    HW144350   2.785   6.191   1.932 -0.1055 -0.9112  1.7104
14310SOL    HW244351   2.857   6.245   2.054  1.0211  0.6078  0.4242
14311SOL     OW44352   6.278   6.818   4.480  0.5677  0.0877 -0.3700
14311SOL    HW144353   6.360   6.790   4.440  1.2151  0.3467  0.7716
14311SOL    HW244354   6.213   6.757   4.444  1.5578 -1.3536  0.1974
14312SOL     OW44355   7.347   4.686   2.586 -0.8082 -0.0241 -0.0071
14312SOL    HW144356   7.380   4.748   2.521 -0.5539 -0.9516 -0.7925
14312SOL    HW244357   7.375   4.722   2.670 -0.2951  0.6946 -0.4741
14313SOL     OW44358   4.043   3.409   4.015  0.1540  0.4435 -0.1160
14313SOL    HW144359   4.017   3.329   4.060 -1.9308  2.2168  2.1560
14313SOL    HW244360   3.962   3.441   3.974  1.4332  0.2909 -3.0242
14314SOL     OW44361   7.517   8.047   5.612 -0.4860 -0.0029 -0.1105
14314SOL    HW144362   7.524   8.142   5.607 -0.6100  0.0376  0.4390
14314SOL    HW244363   7.471   8.022   5.532  1.7981  0.1403 -1.5539
14315SOL     OW44364   7.942   4.871   4.117 -0.2638  0.2501 -0.6313
14315SOL    HW144365   7.921   4.964   4.121  1.4874  0.7878 -2.3088
14315SOL    HW244366   7.859   4.829   4.096 -1.0432  1.4381 -0.0772
14316SOL     OW44367   7.370   1.712   2.044  0.4565  0.1594 -0.1150
14316SOL    HW144368   7.296   1.713   2.104  0.2035 -0.0624 -0.4244
14316SOL    HW244369   7.331   1.710   1.957  0.8188  1.0155 -0.3102
14317SOL     OW44370   3.501   0.205   2.264 -0.3587  0.6776 -0.1264
14317SOL    HW144371   3.456   0.224   2.346 -0.1466 -1.3409  0.5268
14317SOL    HW244372   3.491   0.110   2.252  0.2848  0.7931 -2.0356
14318SOL     OW44373   3.426   0.250   3.812 -0.0182  0.0249 -0.2918
14318SOL    HW144374   3.421   0.166   3.767 -1.1954  0.6177 -1.3479
14318SOL    HW244375   3.513   0.252   3.851 -0.1694 -1.9044  0.2260
14319SOL     OW44376   7.801   1.472   3.295 -0.2842 -0.3817  0.2162
14319SOL    HW144377   7.709   1.447   3.302 -0.3021 -0.4423 -0.1606
14319SOL    HW244378   7.847   1.411   3.353 -0.5109 -0.1547  0.6378
14320SOL     OW44379   8.183   6.697   6.726 -0.1505  0.3473  0.1702
14320SOL    HW144380   8.231   6.720   6.806  0.9012 -0.7810 -0.1091
14320SOL    HW244381   8.102   6.657   6.758  0.1305  0.1639  0.6767
14321SOL     OW44382   4.674   2.408   7.360 -0.3110  0.1653  0.3793
14321SOL    HW144383   4.703   2.328   7.316  0.6341  1.0439 -0.7046
14321SOL    HW244384   4.743   2.427   7.423 -2.1313 -1.6165  3.0789
14322SOL     OW44385   6.132   7.225   6.282  0.1486 -0.7304 -0.0545
14322SOL    HW144386   6.176   7.168   6.345  0.0214 -1.4823 -0.6381
14322SOL    HW244387   6.184   7.218   6.202 -0.4330 -0.8053 -0.4304
14323SOL     OW44388   1.929   5.696   2.871 -0.5187 -0.5352  0.4159
14323SOL    HW144389   1.884   5.667   2.792 -0.7024 -1.1712  0.7476
14323SOL    HW244390   2.021   5.673   2.856 -0.3596  0.4109 -0.0982
14324SOL     OW44391   0.810   3.083   7.781  0.0942  0.3872 -0.1767
14324SOL    HW144392   0.890   3.087   7.729  0.7770  2.2137  0.9069
14324SOL    HW244393   0.739   3.092   7.718  0.6357 -2.0178 -1.2497
14325SOL     OW44394   3.760   2.295   2.725  0.6499 -0.0171 -0.6224
14325SOL    HW144395   3.721   2.348   2.655 -0.3252 -1.0899 -0.9156
14325SOL    HW244396   3.813   2.357   2.775 -2.8557  1.9836  0.9777
14326SOL     OW44397   3.612   3.580   5.112  0.1366  0.4775 -0.0895
14326SOL    HW144398   3.703   3.591   5.141 -0.4524  1.0681  1.6523
14326SOL    HW244399   3.578   3.508   5.165 -1.2648  2.2389  1.5531
14327SOL     OW44400   6.670   7.455   1.856  0.1234  0.0185  0.1706
14327SOL    HW144401   6.587   7.451   1.807  0.0753 -0.6220  0.2963
14327SOL    HW244402   6.712   7.535   1.825 -0.3737  0.1546 -0.1719
14328SOL     OW44403   0.131   3.652   3.112 -0.3485 -0.2648  0.4734
14328SOL    HW144404   0.038   3.654   3.134 -0.6608 -0.1443 -0.7399
14328SOL    HW244405   0.175   3.622   3.191 -1.5926 -1.9233  0.5930
14329SOL     OW44406   1.000   7.334   1.239 -0.4461  0.8953  0.2256
14329SOL    HW144407   1.048   7.346   1.157 -0.1064 -1.8609 -0.0639
14329SOL    HW244408   1.069   7.332   1.306  0.0730 -2.9322 -0.1771
14330SOL     OW44409   7.079   0.218   1.796 -0.3353  0.5741  0.1130
14330SOL    HW144410   7.076   0.165   1.876 -2.0530  0.4977  0.0321
14330SOL    HW244411   7.153   0.183   1.747 -0.2398 -0.4450  0.9485
14331SOL     OW44412   5.480   6.698   5.500  0.1125 -0.0706 -0.0524
14331SOL    HW144413   5.424   6.622   5.515  0.6565 -0.5651 -0.4564
14331SOL    HW244414   5.519   6.716   5.586 -0.0270 -0.2505  0.0491
14332SOL     OW44415   7.815   3.490   2.870 -0.0377  0.6377 -0.5649
14332SOL    HW144416   7.839   3.552   2.801  1.1398 -0.9862 -1.6615
14332SOL    HW244417   7.885   3.425   2.871 -1.7642 -1.3245 -0.2326
14333SOL     OW44418   1.688   7.257   2.589 -0.2837  0.2333 -0.7893
14333SOL    HW144419   1.611   7.306   2.617 -1.7908 -0.7775 -2.8945
14333SOL    HW244420   1.750   7.324   2.561 -0.1681  1.0845  1.3194
14334SOL     OW44421   3.702   5.213   7.288  0.2862 -0.1021  0.3528
14334SOL    HW144422   3.666   5.289   7.334  0.5539  0.5236 -0.4553
14334SOL    HW244423   3.626   5.171   7.248 -0.2580 -1.8036  2.9264
14335SOL     OW44424   6.403   2.600   7.648 -0.1413 -0.2058 -0.2792
14335SOL    HW144425   6.390   2.682   7.600 -0.4197 -0.4762 -0.6598
14335SOL    HW244426   6.498   2.591   7.653 -0.0427  1.1304  1.4357
14336SOL     OW44427   3.485   4.700   3.900 -0.6820 -0.3839  0.5502
14336SOL    HW144428   3.482   4.793   3.924  0.2715  0.3435 -1.8893
14336SOL    HW244429   3.496   4.655   3.984  0.7694  1.8342  1.6622
14337SOL     OW44430   7.382   6.468   2.936  0.1598 -0.8393 -0.5546
14337SOL    HW144431   7.368   6.470   2.842  0.6764  0.6472 -0.6245
14337SOL    HW244432   7.300   6.502   2.973  0.1288 -0.9847 -0.4894
14338SOL     OW44433   2.263   1.437   7.416  0.0133  0.1443  0.1153
14338SOL    HW144434   2.176   1.419   7.382 -0.2589  1.5798 -0.0061
14338SOL    HW244435   2.320   1.374   7.371 -0.7176  0.3076 -1.0642
14339SOL     OW44436   1.854   5.872   6.158 -0.3293 -0.1050  0.1886
14339SOL    HW144437   1.949   5.881   6.149 -0.3996  0.9842  0.4011
14339SOL    HW244438   1.822   5.864   6.068 -0.2318  1.9142 -0.0674
14340SOL     OW44439   2.083   3.774   4.935  0.3845 -0.6030  0.2992
14340SOL    HW144440   2.132   3.713   4.990 -0.0223 -0.2533  1.0636
14340SOL    HW244441   2.024   3.819   4.995  0.7666  0.6430 -0.2187
14341SOL     OW44442   7.142   7.912   7.424 -0.1736 -0.3923 -0.0313
14341SOL    HW144443   7.119   7.892   7.333 -0.6308 -1.9293  0.3978
14341SOL    HW244444   7.064   7.955   7.460 -0.7932 -1.6494  0.1888
14342SOL     OW44445   2.364   6.190   4.996 -0.5902  0.1080 -0.1456
14342SOL    HW144446   2.285   6.201   4.942 -0.6440  0.0413 -0.0800
14342SOL    HW244447   2.374   6.273   5.042  0.0724  0.5643 -1.0849
14343SOL     OW44448   0.840   4.527   6.672  0.0895 -0.1957  0.0650
14343SOL    HW144449   0.797   4.461   6.618  1.2581 -0.3183 -0.7485
14343SOL    HW244450   0.797   4.609   6.648 -0.9975 -0.5579  0.6902
14344SOL     OW44451   4.140   1.110   0.423  0.5357 -0.1481  0.2648
14344SOL    HW144452   4.155   1.105   0.517 -0.3841  0.3921  0.4509
14344SOL    HW244453   4.045   1.122   0.414  0.8056  1.6130 -0.6494
14345SOL     OW44454   0.642   3.855   3.959  0.3083 -0.0580  0.9384
14345SOL    HW144455   0.603   3.856   3.872  2.5086 -0.2537 -0.1326
14345SOL    HW244456   0.573   3.887   4.017 -0.7284  1.6538 -1.0974
14346SOL     OW44457   5.271   4.632   5.686 -0.3826 -0.5290  0.8485
14346SOL    HW144458   5.245   4.593   5.602 -1.6845  0.0395  0.9779
14346SOL    HW244459   5.348   4.685   5.664  0.2288 -1.5843  0.3125
14347SOL     OW44460   5.159   3.269   2.764  0.4156 -0.1632  0.2263
14347SOL    HW144461   5.229   3.316   2.719  0.2158 -0.7513 -0.7453
14347SOL    HW244462   5.098   3.244   2.693  0.3724 -1.6216  0.7322
14348SOL     OW44463   6.909   3.640   6.871  0.9513  0.3436 -0.5870
14348SOL    HW144464   6.829   3.634   6.923  2.2121 -1.0267  1.3109
14348SOL    HW244465   6.901   3.568   6.808 -0.3740  1.7339 -2.1021
14349SOL     OW44466   3.949   2.872   0.628 -0.0815  0.2663  0.6083
14349SOL    HW144467   3.928   2.950   0.678  2.3539  2.0465 -0.9238
14349SOL    HW244468   3.974   2.807   0.694  2.0943  2.2165  1.8390
14350SOL     OW44469   2.880   1.231   5.273 -0.0278  0.4890  0.3720
14350SOL    HW144470   2.963   1.198   5.239 -0.5132 -1.4604  0.9455
14350SOL    HW244471   2.904   1.307   5.326  1.2900  0.4356 -0.1196
14351SOL     OW44472   2.107   5.263   3.058 -0.2088  0.4930  0.4026
14351SOL    HW144473   2.108   5.317   3.137 -0.5398  1.3261 -0.1472
14351SOL    HW244474   2.172   5.195   3.075 -0.6164  0.3834  1.5782
14352SOL     OW44475   2.690   4.504   2.560 -0.3203 -0.0870  0.3342
14352SOL    HW144476   2.693   4.582   2.615 -1.0682 -0.8825  1.5414
14352SOL    HW244477   2.781   4.476   2.552 -0.0640  0.8339 -0.0141
14353SOL     OW44478   7.687   2.177   3.791 -0.2283  0.3616  0.1627
14353SOL    HW144479   7.596   2.151   3.778 -0.2933  0.9508 -0.5946
14353SOL    HW244480   7.685   2.273   3.795  0.4790  0.4272 -0.8270
14354SOL     OW44481   8.078   6.772   8.187 -0.5367 -0.2234  0.0673
14354SOL    HW144482   8.112   6.850   8.143  0.2327 -0.4969  0.1608
14354SOL    HW244483   8.043   6.805   8.270 -0.5125  0.0661 -0.0345
14355SOL     OW44484   7.277   0.061   0.494 -0.2667 -0.2396 -0.0013
14355SOL    HW144485   7.300  -0.001   0.424  0.7701 -1.5130  1.4173
14355SOL    HW244486   7.210   0.016   0.545 -2.0179  1.2280 -0.8805
14356SOL     OW44487   2.472   8.138   4.958 -0.5090 -0.3299 -0.3302
14356SOL    HW144488   2.459   8.220   4.912 -0.3330  0.4096  0.8995
14356SOL    HW244489   2.384   8.100   4.966 -0.8537  0.6342  0.6801
14357SOL     OW44490   6.023   1.699   3.670 -0.2016  0.3653 -0.3650
14357SOL    HW144491   6.069   1.665   3.593 -1.2066 -0.2052 -0.7385
14357SOL    HW244492   6.036   1.793   3.667 -0.4479  0.3725 -1.3814
14358SOL     OW44493   5.250   4.536   6.336 -0.4027  0.0420  0.0157
14358SOL    HW144494   5.254   4.450   6.294 -0.2012 -0.3973  0.8926
14358SOL    HW244495   5.259   4.599   6.265  1.4683 -0.6730 -0.4456
14359SOL     OW44496   6.634   0.103   2.838  0.5740 -0.2765  0.5732
14359SOL    HW144497   6.658   0.013   2.861  0.3136 -0.3682  0.4892
14359SOL    HW244498   6.566   0.094   2.772  0.4759 -0.0183  0.6354
14360SOL     OW44499   2.748   4.242   6.285 -0.1679 -0.2521  0.3160
14360SOL    HW144500   2.710   4.257   6.199  0.5793  0.8336  0.1446
14360SOL    HW244501   2.818   4.178   6.270 -0.9311 -1.1267  0.3804
14361SOL     OW44502   8.199   6.410   3.826  0.1190 -0.5380 -0.1975
14361SOL    HW144503   8.162   6.345   3.766 -0.1124 -1.2564  0.7094
14361SOL    HW244504   8.131   6.423   3.892 -0.2182  1.3323 -0.8646
14362SOL     OW44505   1.192   4.747   6.537 -0.2583  0.2292  0.6416
14362SOL    HW144506   1.176   4.653   6.530 -0.0387  0.2157  0.2898
14362SOL    HW244507   1.254   4.766   6.467 -1.8614  1.0003 -0.6472
14363SOL     OW44508   0.205   7.930   0.568 -0.8491  0.1905  0.0940
14363SOL    HW144509   0.251   7.850   0.591  0.5198  1.2646  1.3397
14363SOL    HW244510   0.259   8.000   0.604 -1.3773  1.7625 -1.9712
14364SOL     OW44511   0.689   5.022   4.610 -0.0321  0.1956 -0.3720
14364SOL    HW144512   0.636   4.957   4.563  1.2409  0.6673 -2.5830
14364SOL    HW244513   0.638   5.103   4.605  0.1363  0.2651 -1.0737
14365SOL     OW44514   8.049   2.536   4.559  0.2796 -0.2682 -0.4007
14365SOL    HW144515   7.955   2.538   4.575  0.4940 -2.4834  1.5748
14365SOL    HW244516   8.087   2.584   4.633  0.7435  0.3213 -1.0057
14366SOL     OW44517   3.044   5.870   5.619  0.2135  0.1919 -0.3378
14366SOL    HW144518   3.023   5.819   5.540  0.8208 -1.1612  0.3504
14366SOL    HW244519   3.048   5.805   5.689 -1.9521  1.5508  1.1590
14367SOL     OW44520   0.911   5.234   0.491 -0.0505  0.3395 -0.1331
14367SOL    HW144521   0.979   5.288   0.451  1.1538 -0.3803  0.8649
14367SOL    HW244522   0.901   5.160   0.431  0.1179  0.3937 -0.2274
14368SOL     OW44523   8.090   4.136   4.759  0.0918  1.0321 -0.2164
14368SOL    HW144524   8.115   4.044   4.749 -1.5882  0.4419  0.5798
14368SOL    HW244525   8.041   4.156   4.679 -1.3993  0.5396  0.5351
14369SOL     OW44526   1.932   4.276   7.560 -0.5798  0.3450  0.3853
14369SOL    HW144527   1.844   4.282   7.596 -0.4479  1.3661  0.5635
14369SOL    HW244528   1.950   4.363   7.525  0.4898  0.2529  0.6701
14370SOL     OW44529   2.478   3.539   8.206  0.7250 -0.0651  0.5248
14370SOL    HW144530   2.427   3.609   8.164  1.1263  0.8518  1.5204
14370SOL    HW244531   2.425   3.461   8.195 -1.0772  0.9104  1.8150
14371SOL     OW44532   1.075   5.073   1.683  0.3987 -0.3011  0.5864
14371SOL    HW144533   1.114   5.138   1.625  0.0290  0.3561  1.0593
14371SOL    HW244534   1.096   4.988   1.642  2.2563  0.0162  0.7942
14372SOL     OW44535   7.539   0.912   0.851 -0.4758 -0.0959 -0.4485
14372SOL    HW144536   7.519   0.996   0.892 -0.6963  0.0131 -0.7776
14372SOL    HW244537   7.479   0.906   0.777 -0.9704 -0.8666 -0.0045
14373SOL     OW44538   0.109   4.403   1.965  0.2072  0.1014  0.0234
14373SOL    HW144539   0.150   4.445   2.040  0.6677  1.1718 -0.7848
14373SOL    HW244540   0.118   4.309   1.981  0.2406  0.3115  1.3171
14374SOL     OW44541   2.117   4.450   8.364 -0.0737  0.9958 -0.1691
14374SOL    HW144542   2.094   4.388   8.432 -0.2733  1.5709  0.2948
14374SOL    HW244543   2.058   4.430   8.291 -1.1862  1.6238  0.5338
14375SOL     OW44544   6.214   5.541   5.220  0.4588  0.0837 -0.3888
14375SOL    HW144545   6.303   5.545   5.188  0.4248  0.3230 -0.4518
14375SOL    HW244546   6.192   5.631   5.243  0.0758  0.0976 -0.8022
14376SOL     OW44547   5.288   1.871   8.370 -0.1317  0.4494 -0.0033
14376SOL    HW144548   5.335   1.868   8.287  1.6131  1.5854  0.9017
14376SOL    HW244549   5.275   1.964   8.387  1.5119  0.3690  2.0320
14377SOL     OW44550   6.336   2.148   6.799  0.1201  0.1037  0.1485
14377SOL    HW144551   6.428   2.128   6.819 -0.6191 -0.9871  3.0893
14377SOL    HW244552   6.318   2.102   6.717  2.1609  0.3787 -0.5108
14378SOL     OW44553   7.877   4.350   8.241 -0.0715 -0.2720  0.6627
14378SOL    HW144554   7.949   4.300   8.201 -0.7732 -2.0498  1.4980
14378SOL    HW244555   7.856   4.301   8.321 -0.5143  1.6583  1.7935
14379SOL     OW44556   1.037   2.466   5.744 -0.2227 -0.7803  0.0284
14379SOL    HW144557   1.042   2.371   5.759 -0.1047 -0.4106  2.8207
14379SOL    HW244558   1.039   2.504   5.832  2.0759  1.9665 -1.0802
14380SOL     OW44559   2.750   2.119   1.778  0.7184 -0.3398 -0.2336
14380SOL    HW144560   2.721   2.028   1.768 -0.4157 -0.0291  0.0702
14380SOL    HW244561   2.782   2.144   1.691  0.8515 -0.9608 -0.3678
14381SOL     OW44562   0.279   5.893   2.107 -0.3209  0.3016 -0.2580
14381SOL    HW144563   0.295   5.987   2.119  0.1841  0.1005  0.8106
14381SOL    HW244564   0.366   5.856   2.091 -0.6624  0.1675 -2.0304
14382SOL     OW44565   2.874   4.675   3.206  0.2671  0.2477  0.0162
14382SOL    HW144566   2.932   4.722   3.266  0.6324 -0.2801  0.0813
14382SOL    HW244567   2.917   4.591   3.193 -0.8462 -0.4282  0.6301
14383SOL     OW44568   6.752   4.887   3.661 -0.0608 -0.6370  0.0188
14383SOL    HW144569   6.659   4.891   3.641  0.1032  0.4953 -0.6399
14383SOL    HW244570   6.776   4.979   3.677  0.8675 -0.9585  0.5210
14384SOL     OW44571   7.502   7.626   1.724 -0.4740 -0.3516  0.2474
14384SOL    HW144572   7.582   7.642   1.774 -1.3290 -1.2930  2.0152
14384SOL    HW244573   7.438   7.688   1.760 -1.0976 -1.0188  0.3145
14385SOL     OW44574   8.096   3.743   0.449 -0.1485  0.1572  0.2196
14385SOL    HW144575   8.008   3.760   0.417 -0.0221  1.7706  0.6016
14385SOL    HW244576   8.147   3.723   0.370 -1.1783 -2.6056  0.1811
14386SOL     OW44577   2.431   1.324   4.518 -0.1417  0.2780 -0.1244
14386SOL    HW144578   2.431   1.374   4.599 -1.1800  2.4470 -1.3809
14386SOL    HW244579   2.521   1.327   4.487  0.2031 -0.3421  0.7795
14387SOL     OW44580   0.216   7.380   1.915 -0.1634 -0.5052 -0.3506
14387SOL    HW144581   0.299   7.338   1.940 -2.3944 -3.4396  3.3919
14387SOL    HW244582   0.185   7.420   1.996 -2.5637  0.1844 -1.5302
14388SOL     OW44583   7.832   6.015   7.872  0.4568 -0.3197 -0.0649
14388SOL    HW144584   7.776   6.003   7.949  0.8915 -1.7566  0.0593
14388SOL    HW244585   7.778   5.984   7.799  0.8234 -1.0755 -0.0296
14389SOL     OW44586   7.318   5.703   0.650  0.0455  0.0729 -0.4312
14389SOL    HW144587   7.250   5.770   0.657  0.6112  0.5754  0.3840
14389SOL    HW244588   7.291   5.635   0.711  0.0664  0.0809 -0.4133
14390SOL     OW44589   7.807   4.111   7.729 -0.1693 -0.1523 -0.0987
14390SOL    HW144590   7.842   4.172   7.794 -0.5492 -1.0236  0.9504
14390SOL    HW244591   7.712   4.118   7.739 -0.2263 -1.6681  0.8059
14391SOL     OW44592   3.697   7.554   4.841 -0.0464  0.1503 -0.3734
14391SOL    HW144593   3.636   7.619   4.805  1.5529  1.9378 -0.0098
14391SOL    HW244594   3.702   7.486   4.774 -0.6278  1.1350 -1.4568
14392SOL     OW44595   1.202   2.752   5.659 -0.2183  0.6595  0.3412
14392SOL    HW144596   1.150   2.693   5.604 -2.2594  2.2282  0.4497
14392SOL    HW244597   1.279   2.700   5.683 -1.2533 -1.4800 -0.6140
14393SOL     OW44598   8.168   2.584   0.225 -0.0448  0.3984  0.0609
14393SOL    HW144599   8.190   2.612   0.314 -0.0053  1.0484 -0.1481
14393SOL    HW244600   8.120   2.502   0.237  1.7916 -0.6557  0.5744
14394SOL     OW44601   3.057   3.307   4.896  0.0603  0.0846 -0.1378
14394SOL    HW144602   3.112   3.380   4.866  0.2417  0.3862  0.8995
14394SOL    HW244603   3.120   3.238   4.918 -0.0151  0.1696  0.3521
14395SOL     OW44604   1.312   2.122   7.975 -0.1819 -0.0316 -0.4528
14395SOL    HW144605   1.404   2.100   7.966  0.2671  1.3871  0.4002
14395SOL    HW244606   1.299   2.133   8.069 -1.3141 -0.5296 -0.5306
14396SOL     OW44607   6.209   0.439   1.102 -0.2449  0.0964  0.0225
14396SOL    HW144608   6.232   0.365   1.157 -0.1775  1.3271  1.7416
14396SOL    HW244609   6.131   0.411   1.054 -1.1234 -0.5740  1.7571
14397SOL     OW44610   1.193   7.182   3.330 -0.0938  0.2379 -0.2535
14397SOL    HW144611   1.253   7.151   3.398 -1.2285 -1.9475 -0.1602
14397SOL    HW244612   1.142   7.251   3.372 -1.7445 -2.0105  1.6757
14398SOL     OW44613   0.706   0.876   1.763  0.1254 -0.2738  0.0880
14398SOL    HW144614   0.742   0.805   1.710 -1.9120  0.0286 -1.8679
14398SOL    HW244615   0.644   0.920   1.705 -1.2103  0.9912  2.3188
14399SOL     OW44616   7.316   3.032   2.980 -0.5826  0.4486  0.6297
14399SOL    HW144617   7.379   3.014   3.050  0.5305  0.1437 -0.4077
14399SOL    HW244618   7.339   3.119   2.948  0.7052 -0.4685 -1.1119
14400SOL     OW44619   7.810   7.590   1.118 -0.2804  0.5039  0.7709
14400SOL    HW144620   7.795   7.659   1.183  1.0462 -0.4642  2.1675
14400SOL    HW244621   7.790   7.508   1.165  3.7464 -0.4849  1.1121
14401SOL     OW44622   2.249   0.151   2.918 -0.2273  0.1895 -0.3996
14401SOL    HW144623   2.282   0.231   2.878 -0.9017  1.4771  1.4528
14401SOL    HW244624   2.261   0.165   3.012 -1.7321 -1.2639  0.0535
14402SOL     OW44625   7.105   2.288   2.719 -0.2869 -0.2958  0.4142
14402SOL    HW144626   7.095   2.380   2.697 -0.5097 -0.6002 -0.7809
14402SOL    HW244627   7.163   2.289   2.796 -1.4631  0.9063  1.3284
14403SOL     OW44628   6.343   7.753   1.979  0.0081 -0.2757 -0.4966
14403SOL    HW144629   6.337   7.670   1.930  1.3798 -0.0087 -1.1808
14403SOL    HW244630   6.423   7.794   1.945 -0.1336  0.8821  0.5279
14404SOL     OW44631   6.675   1.474   0.067 -0.4802  0.3348 -0.2567
14404SOL    HW144632   6.585   1.445   0.054 -0.4138 -0.9780  1.8750
14404SOL    HW244633   6.683   1.489   0.161  1.4250  0.8287 -0.4541
14405SOL     OW44634   4.838   6.073   0.108 -0.9187 -0.5666  0.1067
14405SOL    HW144635   4.776   6.138   0.074  0.6042  1.6003  1.2052
14405SOL    HW244636   4.817   6.067   0.201 -0.3104 -0.7700  0.2351
14406SOL     OW44637   1.571   1.782   7.704  0.2315 -0.7491 -0.4116
14406SOL    HW144638   1.514   1.718   7.661 -2.1433  0.7806  0.2762
14406SOL    HW244639   1.586   1.745   7.791  0.5850 -1.3396 -0.7215
14407SOL     OW44640   3.863   4.080   7.366  0.0298 -0.2358  1.0462
14407SOL    HW144641   3.818   4.164   7.372  1.1100  0.5346 -0.7138
14407SOL    HW244642   3.882   4.057   7.457 -1.5364  0.7018  1.6564
14408SOL     OW44643   3.262   6.723   2.355  0.3635  0.0918 -0.1369
14408SOL    HW144644   3.202   6.762   2.419 -0.9543 -0.2534 -1.1218
14408SOL    HW244645   3.344   6.710   2.404  0.1431  1.9639  0.8360
14409SOL     OW44646   6.967   5.965   7.828 -0.1634  0.0640  0.1438
14409SOL    HW144647   7.047   5.917   7.805  0.1019  1.4204 -2.1054
14409SOL    HW244648   6.905   5.940   7.759 -1.0562  0.4905  0.7846
14410SOL     OW44649   4.288   3.114   7.997  0.0810  0.7051 -0.6367
14410SOL    HW144650   4.342   3.039   7.973  2.3278  1.8150  0.6205
14410SOL    HW244651   4.251   3.092   8.082 -2.3325 -0.4236 -1.8760
14411SOL     OW44652   2.250   1.671   0.991 -0.0461  0.4781  0.4690
14411SOL    HW144653   2.339   1.654   1.022  0.6999  0.5984 -1.4692
14411SOL    HW244654   2.207   1.585   0.994  0.3173  0.3087  0.8743
14412SOL     OW44655   3.200   4.531   7.793 -0.0144 -0.2669 -0.0226
14412SOL    HW144656   3.165   4.567   7.711 -0.1619 -1.1812 -0.3633
14412SOL    HW244657   3.223   4.441   7.773  2.9567  0.3438  0.0535
14413SOL     OW44658   7.138   4.257   1.237  0.0753 -0.5277 -0.0758
14413SOL    HW144659   7.098   4.333   1.280 -1.0451 -1.4348  0.5386
14413SOL    HW244660   7.161   4.198   1.309  1.7264 -0.4241 -0.4857
14414SOL     OW44661   7.967   2.983   2.101 -0.3623  0.0570  0.1662
14414SOL    HW144662   8.022   2.904   2.103 -2.2000 -1.2677  1.4195
14414SOL    HW244663   8.024   3.052   2.136  1.0626 -0.8353 -0.2878
14415SOL     OW44664   7.111   6.242   2.107 -0.3260 -0.2265 -0.5415
14415SOL    HW144665   7.162   6.311   2.065 -0.1459 -0.2749 -0.4022
14415SOL    HW244666   7.022   6.277   2.111  0.3660  1.5298  2.8093
14416SOL     OW44667   0.215   8.112   2.236 -0.2494 -0.2129 -0.0331
14416SOL    HW144668   0.275   8.111   2.311  0.0208 -0.0337 -0.2430
14416SOL    HW244669   0.218   8.203   2.205 -1.2955  0.0081  0.4849
14417SOL     OW44670   1.112   2.147   4.186  0.3218  0.1520  0.7285
14417SOL    HW144671   1.181   2.198   4.144 -0.6731  0.4283 -0.6650
14417SOL    HW244672   1.041   2.147   4.122  0.3467 -3.1772  0.5341
14418SOL     OW44673   7.086   3.681   7.269  0.3872 -0.9820 -0.5840
14418SOL    HW144674   7.175   3.716   7.271  0.1013 -0.2345 -0.6947
14418SOL    HW244675   7.040   3.737   7.206 -0.6498 -0.1421  0.8623
14419SOL     OW44676   6.389   0.782   1.581 -0.3655  0.1934  0.6389
14419SOL    HW144677   6.451   0.833   1.529  1.4399 -2.4438 -0.0089
14419SOL    HW244678   6.364   0.710   1.523  0.6787 -2.0982  2.8504
14420SOL     OW44679   2.920   1.981   3.415 -0.0970 -0.3275 -0.5575
14420SOL    HW144680   2.832   2.017   3.424  0.1676  1.3596 -3.3946
14420SOL    HW244681   2.918   1.899   3.464 -2.3138  1.0808  1.9232
14421SOL     OW44682   8.081   5.779   3.101 -0.6202  0.0945 -0.6371
14421SOL    HW144683   8.081   5.807   3.010 -0.4066  0.4288 -0.5370
14421SOL    HW244684   8.076   5.860   3.151  1.4468  0.0724 -0.3064
14422SOL     OW44685   2.670   4.021   3.503 -0.5098  0.0331 -0.2640
14422SOL    HW144686   2.707   4.109   3.498  0.0002 -0.0030  1.9740
14422SOL    HW244687   2.745   3.964   3.516 -0.9045 -0.6665 -0.9849
14423SOL     OW44688   0.680   5.826   2.196 -0.3134 -0.8537 -0.0699
14423SOL    HW144689   0.775   5.823   2.188 -0.1049 -1.2696  1.9852
14423SOL    HW244690   0.647   5.787   2.115  1.2577 -0.6962 -0.8021
14424SOL     OW44691   7.480   7.214   7.848  0.2279  0.6189  0.1897
14424SOL    HW144692   7.475   7.175   7.761 -0.7190  1.9904 -0.4150
14424SOL    HW244693   7.571   7.204   7.874  0.5858  0.4074 -1.0709
14425SOL     OW44694   3.570   4.406   4.919 -0.9655  0.7736 -0.5042
14425SOL    HW144695   3.517   4.449   4.986  1.1745  0.0413  1.7859
14425SOL    HW244696   3.650   4.459   4.914  0.4773 -1.2141  0.2839
14426SOL     OW44697   8.270   5.851   7.124  0.0144  0.2726  0.2301
14426SOL    HW144698   8.209   5.897   7.066 -1.4213 -2.2294 -0.4213
14426SOL    HW244699   8.323   5.797   7.065 -0.9013 -1.6875  1.0968
14427SOL     OW44700   7.391   2.922   3.585  0.1547 -0.2934 -0.0319
14427SOL    HW144701   7.370   2.978   3.659  1.0291  0.7950 -0.5963
14427SOL    HW244702   7.309   2.875   3.568  0.1758 -1.2508  2.1631
14428SOL     OW44703   4.202   5.371   6.332 -0.4056 -0.2647 -0.0359
14428SOL    HW144704   4.295   5.388   6.316  0.2524 -3.7639 -0.8327
14428SOL    HW244705   4.157   5.408   6.257  0.4134  0.6506 -0.1000
14429SOL     OW44706   7.482   0.214   1.217 -0.0992  0.7937  0.6953
14429SOL    HW144707   7.390   0.202   1.197  0.2765  1.9924 -2.1883
14429SOL    HW244708   7.495   0.309   1.216  1.1442  0.6524  1.1592
14430SOL     OW44709   2.811   5.922   4.189 -0.0873  0.6028  0.1016
14430SOL    HW144710   2.795   5.828   4.190  0.8947  0.4170 -0.3276
14430SOL    HW244711   2.837   5.941   4.098  0.7692  1.0936  0.4350
14431SOL     OW44712   4.918   4.707   3.263 -0.1172 -0.0934 -0.2061
14431SOL    HW144713   4.844   4.752   3.305 -0.2548 -0.2837 -0.2441
14431SOL    HW244714   4.928   4.627   3.313 -0.5921 -0.5576 -0.8258
14432SOL     OW44715   0.332   8.031   3.239 -0.5302 -0.7836 -0.3423
14432SOL    HW144716   0.314   8.107   3.184  0.8086 -0.6324 -0.6079
14432SOL    HW244717   0.315   8.061   3.328 -0.5438 -0.3302 -0.4936
14433SOL     OW44718   1.919   3.370   3.870  0.3067  0.1537 -0.1313
14433SOL    HW144719   1.873   3.322   3.938 -1.8334  0.0781 -1.5234
14433SOL    HW244720   1.867   3.449   3.857  0.3988 -0.0276 -1.9285
14434SOL     OW44721   5.421   5.707   7.608 -0.0491 -0.3549  0.2759
14434SOL    HW144722   5.382   5.764   7.542 -0.3386  0.4808  1.1475
14434SOL    HW244723   5.416   5.757   7.690  2.1018 -0.5352  0.5879
14435SOL     OW44724   7.158   0.568   6.824 -0.5391  0.0064 -0.1542
14435SOL    HW144725   7.165   0.663   6.836 -0.6336  0.0273 -0.2677
14435SOL    HW244726   7.248   0.540   6.804 -0.5605  0.1119 -0.4051
14436SOL     OW44727   0.015   5.417   0.712  0.3710 -0.2303 -0.5218
14436SOL    HW144728   0.094   5.416   0.658  0.2339  1.2723 -0.7900
14436SOL    HW244729  -0.040   5.348   0.675 -0.5596  1.9917 -3.6630
14437SOL     OW44730   1.543   7.679   4.196  0.0357 -0.5786 -0.2259
14437SOL    HW144731   1.512   7.590   4.181  0.4181 -0.9819  1.1605
14437SOL    HW244732   1.587   7.675   4.281  0.0685  0.9337 -0.1331
14438SOL     OW44733   7.658   5.039   3.637  0.3336  0.0663  0.4181
14438SOL    HW144734   7.666   5.126   3.676  0.3917 -0.2871  1.2210
14438SOL    HW244735   7.748   5.016   3.613  0.2106  0.5641 -0.5783
14439SOL     OW44736   8.053   6.348   6.246 -0.5874 -0.3168 -0.1453
14439SOL    HW144737   8.044   6.353   6.151  1.3486 -0.2020 -0.3739
14439SOL    HW244738   8.137   6.303   6.259 -0.4560  0.3407  1.4991
14440SOL     OW44739   7.024   1.973   5.518 -0.0225 -0.6135 -0.1439
14440SOL    HW144740   7.050   2.038   5.583  1.7231 -0.5947 -0.8040
14440SOL    HW244741   7.031   1.889   5.565  1.5188 -0.6270 -0.3494
14441SOL     OW44742   3.721   6.390   1.158  0.2518  0.4684 -0.4851
14441SOL    HW144743   3.806   6.407   1.118  0.2183  2.8393  0.2595
14441SOL    HW244744   3.731   6.421   1.248 -0.8249 -1.0941  0.2079
14442SOL     OW44745   8.029   0.360   1.013  0.2741 -0.3777 -0.3087
14442SOL    HW144746   8.017   0.455   1.011 -0.5730 -0.4761 -0.2480
14442SOL    HW244747   7.944   0.324   0.985  0.7920 -1.1050 -0.9993
14443SOL     OW44748   7.892   6.667   4.081  0.0421 -0.3953 -0.1812
14443SOL    HW144749   7.889   6.752   4.037 -0.4632 -0.1187  0.3694
14443SOL    HW244750   7.821   6.671   4.145  0.0207 -1.2322 -0.1429
14444SOL     OW44751   3.996   2.699   6.888 -0.4591  0.0962 -0.3717
14444SOL    HW144752   3.939   2.623   6.895 -1.4166  0.8718  0.5582
14444SOL    HW244753   4.065   2.684   6.953 -0.9327  0.2575  0.1713
14445SOL     OW44754   1.327   4.296   4.346 -0.1787 -0.1895 -1.2748
14445SOL    HW144755   1.401   4.327   4.294  0.3127  0.1512 -0.4003
14445SOL    HW244756   1.365   4.273   4.431 -0.8102 -1.5827 -1.3285
14446SOL     OW44757   0.713   1.775   5.440  0.3736  0.2414  0.4245
14446SOL    HW144758   0.649   1.839   5.410 -0.0026 -0.4204 -0.2094
14446SOL    HW244759   0.689   1.694   5.396 -0.8072 -1.0727  3.2341
14447SOL     OW44760   3.708   0.325   8.340  0.4678 -0.0059  0.1253
14447SOL    HW144761   3.643   0.396   8.333  0.8231  0.5636  1.9922
14447SOL    HW244762   3.697   0.274   8.260 -3.4973 -0.9691  1.0859
14448SOL     OW44763   7.398   4.126   4.820  0.6241 -0.1894  0.6339
14448SOL    HW144764   7.410   4.198   4.883  1.6411  1.8977 -1.7625
14448SOL    HW244765   7.367   4.169   4.741  2.2751 -2.2422 -1.2392
14449SOL     OW44766   0.259   0.428   5.447  0.3191 -0.0482 -0.0019
14449SOL    HW144767   0.309   0.360   5.401  0.2438  1.4475 -2.4498
14449SOL    HW244768   0.325   0.485   5.486  0.4529  0.2363 -0.6432
14450SOL     OW44769   4.261   4.266   1.156  0.1183 -0.0931 -0.0089
14450SOL    HW144770   4.193   4.208   1.122  0.5897  0.0586 -1.2672
14450SOL    HW244771   4.246   4.269   1.251 -0.6735 -1.2710 -0.0856
14451SOL     OW44772   6.881   4.810   2.455  0.7241  0.2241  0.0930
14451SOL    HW144773   6.949   4.774   2.512  0.0559  0.1629  0.8542
14451SOL    HW244774   6.895   4.904   2.458 -0.1947  0.3316  1.5031
14452SOL     OW44775   3.513   1.036   3.219 -0.3042  0.3773  0.7530
14452SOL    HW144776   3.478   1.094   3.287 -0.7616 -1.6451  2.3368
14452SOL    HW244777   3.596   1.077   3.193 -0.4464  1.5637  2.0415
14453SOL     OW44778   8.366   8.048   1.881 -0.0022 -0.7004 -0.2043
14453SOL    HW144779   8.455   8.075   1.862  0.7601 -0.1612  3.4215
14453SOL    HW244780   8.311   8.117   1.843  1.1820 -0.4276 -1.4613
14454SOL     OW44781   4.443   1.158   6.853 -0.6618  0.1143  0.0826
14454SOL    HW144782   4.463   1.251   6.860 -2.6469  0.6232 -0.2502
14454SOL    HW244783   4.518   1.114   6.892  0.4285  1.8340  0.0350
14455SOL     OW44784   2.554   0.575   8.091  0.0312  0.5649 -0.5193
14455SOL    HW144785   2.498   0.641   8.049 -0.5381 -1.0473 -2.4044
14455SOL    HW244786   2.538   0.587   8.185 -1.0055  2.2602 -0.8623
14456SOL     OW44787   5.350   3.626   6.583 -0.2193 -0.2861  0.3509
14456SOL    HW144788   5.407   3.559   6.620  0.9897  1.0279  0.9910
14456SOL    HW244789   5.345   3.693   6.651 -0.7648  0.6216 -0.5537
14457SOL     OW44790   3.243   6.711   6.323  0.1523 -0.4993  0.1892
14457SOL    HW144791   3.169   6.688   6.380 -1.0325 -0.4045 -1.2384
14457SOL    HW244792   3.254   6.806   6.336  1.9528 -0.9491  2.5377
14458SOL     OW44793   0.233   5.680   4.933  0.1564  0.1222  0.0976
14458SOL    HW144794   0.157   5.705   4.880  0.2276  0.4563  0.1525
14458SOL    HW244795   0.260   5.761   4.976 -1.3468 -0.5774  2.5341
14459SOL     OW44796   7.055   4.305   3.910 -0.7386  0.6291 -0.1310
14459SOL    HW144797   7.084   4.220   3.877  1.8118  0.6756  1.7075
14459SOL    HW244798   7.091   4.369   3.849 -0.4714  0.4931 -0.1146
14460SOL     OW44799   8.203   0.546   8.222  0.1058 -0.1250  0.1134
14460SOL    HW144800   8.218   0.584   8.309 -0.7443  1.7969 -0.5134
14460SOL    HW244801   8.116   0.508   8.227 -0.9207  2.0184 -0.4963
14461SOL     OW44802   8.237   0.106   6.864 -0.1183 -0.3151  0.2919
14461SOL    HW144803   8.145   0.087   6.885  0.1190 -0.3197  1.4305
14461SOL    HW244804   8.234   0.151   6.780 -1.1545 -0.4314  0.2511
14462SOL     OW44805   5.950   2.258   2.143 -0.4549  0.9933 -0.5756
14462SOL    HW144806   5.879   2.210   2.185 -0.0598  0.8948  0.0039
14462SOL    HW244807   5.909   2.306   2.071 -0.4052 -2.9276 -3.5494
14463SOL     OW44808   2.177   1.327   6.077  0.2245 -0.2052  0.0592
14463SOL    HW144809   2.210   1.314   6.166 -1.6940  1.7376  1.1250
14463SOL    HW244810   2.172   1.238   6.041  1.1387 -1.0284  1.8317
14464SOL     OW44811   8.012   5.586   7.307  0.3711  0.0573 -0.2547
14464SOL    HW144812   8.084   5.615   7.363  0.2394 -0.5414  0.2340
14464SOL    HW244813   7.948   5.549   7.368  1.1317 -2.5830 -0.9516
14465SOL     OW44814   0.079   1.116   1.696  0.1903  0.4464 -0.6934
14465SOL    HW144815   0.030   1.033   1.700  0.8479  0.0125 -1.4289
14465SOL    HW244816   0.137   1.112   1.772 -0.3987  0.6353 -0.2283
14466SOL     OW44817   8.256   1.964   0.535  0.3304  0.6559  0.0626
14466SOL    HW144818   8.346   1.933   0.533  0.3601  0.7579 -0.1937
14466SOL    HW244819   8.205   1.889   0.565  0.6129  0.8613  1.1170
14467SOL     OW44820   6.430   3.591   6.473  0.3152  0.0837  0.4714
14467SOL    HW144821   6.499   3.528   6.491 -0.6890 -1.3912 -0.6043
14467SOL    HW244822   6.447   3.663   6.534  1.5685 -1.1532  1.6582
14468SOL     OW44823   4.579   8.095   2.902 -0.0171  0.5104  0.3436
14468SOL    HW144824   4.589   8.052   2.817 -2.0426 -0.4308  0.5315
14468SOL    HW244825   4.667   8.127   2.922  0.5494  0.6956 -2.0458
14469SOL     OW44826   6.451   6.418   5.707 -0.5258 -0.0491  0.5702
14469SOL    HW144827   6.452   6.355   5.779 -0.7008  0.1971  0.7906
14469SOL    HW244828   6.477   6.501   5.747  0.7436 -0.1899  0.0696
14470SOL     OW44829   7.101   0.519   2.622 -0.0987  1.0053 -0.1485
14470SOL    HW144830   7.113   0.424   2.627  0.7775  1.1287  0.2469
14470SOL    HW244831   7.111   0.549   2.712  0.0211  1.5074 -0.3287
14471SOL     OW44832   2.489   4.385   7.583 -0.7747 -0.2139 -0.0677
14471SOL    HW144833   2.414   4.344   7.625 -0.8669  0.4926  0.4833
14471SOL    HW244834   2.494   4.472   7.622 -1.0518  0.6027 -1.7554
14472SOL     OW44835   4.634   0.197   7.969 -0.5376 -0.8308  1.0111
14472SOL    HW144836   4.590   0.196   7.884  0.2905 -0.9245  0.5716
14472SOL    HW244837   4.696   0.124   7.964 -0.8232 -1.1499  1.8875
14473SOL     OW44838   3.145   1.166   6.116 -0.0118 -0.3413 -0.1627
14473SOL    HW144839   3.108   1.135   6.033 -2.4660 -0.2330  0.8017
14473SOL    HW244840   3.163   1.086   6.165 -0.2974 -0.3703 -0.1045
14474SOL     OW44841   0.095   7.235   7.588 -0.0683 -0.1662 -0.0690
14474SOL    HW144842   0.171   7.178   7.573  2.0189  2.0084  1.3812
14474SOL    HW244843   0.055   7.246   7.502  1.8486 -0.6335 -1.0757
14475SOL     OW44844   5.997   4.430   4.689 -0.4579  0.4697  0.5276
14475SOL    HW144845   5.934   4.389   4.749 -1.7304  0.7499 -0.5665
14475SOL    HW244846   6.021   4.512   4.733 -0.7508  0.2908  1.0368
14476SOL     OW44847   6.207   2.981   6.589  0.1150 -0.4772 -0.1078
14476SOL    HW144848   6.128   3.034   6.578  0.1020 -0.3450  0.5810
14476SOL    HW244849   6.263   3.006   6.515 -1.0951 -1.7101 -1.4907
14477SOL     OW44850   1.586   2.921   0.436  0.3992 -0.1888  0.8845
14477SOL    HW144851   1.535   2.999   0.418 -0.7010 -0.8608  1.0087
14477SOL    HW244852   1.661   2.926   0.377 -0.9958 -0.3209 -0.9691
14478SOL     OW44853   7.292   1.418   7.118 -0.4017  0.3435  0.6711
14478SOL    HW144854   7.359   1.351   7.132 -1.6046 -1.0922 -0.1554
14478SOL    HW244855   7.211   1.369   7.102 -0.8686  1.8657 -2.5151
14479SOL     OW44856   3.115   0.280   0.601 -0.1037  0.0791  0.0042
14479SOL    HW144857   3.024   0.289   0.573  0.0071  0.6445 -0.1809
14479SOL    HW244858   3.130   0.355   0.657  0.2156 -0.0780  0.1272
14480SOL     OW44859   1.355   5.235   0.614 -0.6799  0.0419  0.0393
14480SOL    HW144860   1.419   5.170   0.584 -0.3446 -0.2787  1.3654
14480SOL    HW244861   1.314   5.194   0.690 -0.2275  1.4949  1.1142
14481SOL     OW44862   6.377   7.122   1.481 -0.2263 -0.1854 -0.2197
14481SOL    HW144863   6.399   7.179   1.407  2.8714  0.3634  0.9554
14481SOL    HW244864   6.323   7.176   1.538  0.3068  0.6100 -0.4518
14482SOL     OW44865   1.754   4.959   6.373  0.4648 -0.5424 -0.2103
14482SOL    HW144866   1.730   4.939   6.282 -0.0523  0.7163 -0.3746
14482SOL    HW244867   1.737   5.053   6.382  3.1459 -0.0311  0.3779
14483SOL     OW44868   6.325   2.020   0.094  0.6722  0.1731  0.3362
14483SOL    HW144869   6.353   1.990   0.008 -0.4794 -0.3414  0.1169
14483SOL    HW244870   6.292   1.942   0.138  1.7789  0.3268  1.4753
14484SOL     OW44871   4.618   0.794   8.007  0.1726  0.5687 -0.4554
14484SOL    HW144872   4.694   0.738   7.991 -0.9957 -1.0569 -0.6596
14484SOL    HW244873   4.603   0.789   8.101 -1.8149 -2.2233 -0.7831
14485SOL     OW44874   2.578   5.648   2.073  0.7314 -0.4444  0.1363
14485SOL    HW144875   2.540   5.562   2.055  0.1803 -0.5297  1.5979
14485SOL    HW244876   2.503   5.707   2.083  0.9077 -0.5262  2.6107
14486SOL     OW44877   5.766   3.792   5.296  0.8251  0.5591 -0.1080
14486SOL    HW144878   5.787   3.705   5.263 -1.7085 -0.2017  0.0910
14486SOL    HW244879   5.707   3.777   5.370  0.3515  2.4275 -0.0431
14487SOL     OW44880   6.905   4.595   0.036 -0.3575 -0.6628  0.1354
14487SOL    HW144881   6.928   4.544  -0.042  2.4205  3.4797 -2.1156
14487SOL    HW244882   6.947   4.548   0.108  2.4154 -1.4210 -1.8227
14488SOL     OW44883   0.606   0.675   3.710 -0.2127 -0.7480  0.0003
14488SOL    HW144884   0.590   0.645   3.799 -0.4973 -0.5750  0.0073
14488SOL    HW244885   0.657   0.756   3.721 -3.0335  1.1615  0.1542
14489SOL     OW44886   1.108   1.184   2.178 -0.2134 -0.5879  0.4235
14489SOL    HW144887   1.122   1.256   2.240  1.1632 -1.3922  1.1106
14489SOL    HW244888   1.078   1.111   2.233 -0.4453 -0.8883 -0.0916
14490SOL     OW44889   1.528   6.462   5.277 -0.0569 -0.1493 -0.3324
14490SOL    HW144890   1.508   6.512   5.198 -0.1286 -1.1676 -0.9785
14490SOL    HW244891   1.619   6.433   5.264  0.1351  0.1851  0.2412
14491SOL     OW44892   0.487   6.072   3.445  0.2376 -0.4380 -0.1301
14491SOL    HW144893   0.575   6.106   3.431  0.2888 -0.6469 -0.3330
14491SOL    HW244894   0.436   6.148   3.473  0.4326 -0.2716 -0.2226
14492SOL     OW44895   6.843   3.539   2.260 -0.0073 -0.8923  0.1805
14492SOL    HW144896   6.798   3.602   2.316  1.2069 -0.6803  0.9752
14492SOL    HW244897   6.882   3.592   2.190  1.7717 -0.5755  1.3432
14493SOL     OW44898   4.633   1.470   7.805  1.2422 -0.0468 -0.0124
14493SOL    HW144899   4.670   1.509   7.884  2.0188 -0.6240 -0.0793
14493SOL    HW244900   4.539   1.480   7.815  1.3953  2.3784 -0.3006
14494SOL     OW44901   5.930   8.165   4.184 -0.6468 -0.0342 -0.5125
14494SOL    HW144902   5.962   8.121   4.106 -0.9422 -0.6150 -0.3097
14494SOL    HW244903   5.983   8.245   4.190  0.2630 -0.6212 -0.5812
14495SOL     OW44904   2.753   5.219   0.657 -0.1154 -0.1346 -0.0382
14495SOL    HW144905   2.749   5.291   0.595  2.4723  0.0548 -0.0719
14495SOL    HW244906   2.740   5.141   0.604 -2.0903  0.1849 -0.1197
14496SOL     OW44907   7.056   3.753   2.454 -0.2150 -0.1042 -0.0731
14496SOL    HW144908   7.075   3.794   2.538  0.6811 -0.0037 -0.3073
14496SOL    HW244909   6.966   3.778   2.434 -1.2239 -1.9314  1.8647
14497SOL     OW44910   4.705   3.132   1.303 -0.2911  0.8179 -0.2900
14497SOL    HW144911   4.760   3.121   1.381 -1.1443  0.8752  0.3388
14497SOL    HW244912   4.765   3.117   1.229  0.2810 -0.4401  0.3815
14498SOL     OW44913   6.944   4.674   0.833 -0.0994  0.4925  0.3810
14498SOL    HW144914   6.925   4.581   0.845 -1.4437  0.6426 -0.3847
14498SOL    HW244915   7.034   4.684   0.864  0.5464 -1.3183 -0.7168
14499SOL     OW44916   8.288   1.258   7.075 -0.0551  0.1728  0.7213
14499SOL    HW144917   8.220   1.257   7.008  0.3747 -1.6015  0.2469
14499SOL    HW244918   8.286   1.169   7.112  1.7855  0.1755  0.9039
14500SOL     OW44919   0.099   2.316   1.601 -0.4684  0.0585 -0.1322
14500SOL    HW144920   0.048   2.287   1.677  0.7452 -2.1115 -0.0557
14500SOL    HW244921   0.038   2.309   1.528 -0.3458 -2.8066 -0.0988
14501SOL     OW44922   2.664   2.912   6.508  0.1632 -0.3737 -0.0193
14501SOL    HW144923   2.580   2.900   6.552 -0.3118 -0.8044 -1.0106
14501SOL    HW244924   2.641   2.938   6.419  1.0969  0.0434 -0.1555
14502SOL     OW44925   4.766   5.547   1.751  0.4929  0.2497 -0.1575
14502SOL    HW144926   4.724   5.482   1.807  0.7177  1.0211  0.9694
14502SOL    HW244927   4.849   5.565   1.796  2.7632 -2.2210 -2.9903
14503SOL     OW44928   5.924   1.159   0.141  0.0962  0.3629 -0.0506
14503SOL    HW144929   5.858   1.217   0.103  1.4170  2.3377  0.5358
14503SOL    HW244930   5.885   1.130   0.224 -0.6758  0.2031 -0.4607
14504SOL     OW44931   5.005   7.424   4.983 -0.1167  0.1848  0.2061
14504SOL    HW144932   4.984   7.517   4.986 -1.7045 -0.1662  1.8629
14504SOL    HW244933   5.093   7.418   5.020  0.2176  1.0610 -0.4156
14505SOL     OW44934   7.493   6.692   0.457 -0.2691 -0.2287 -0.3031
14505SOL    HW144935   7.413   6.743   0.468  0.5663  1.3860 -1.3137
14505SOL    HW244936   7.546   6.713   0.533  0.0292  0.3602 -0.6645
14506SOL     OW44937   7.437   7.401   6.128  0.1240 -0.0381 -0.0851
14506SOL    HW144938   7.394   7.473   6.173  1.1830  1.3149 -1.1397
14506SOL    HW244939   7.416   7.413   6.036  1.1213 -0.4899 -0.3927
14507SOL     OW44940   2.044   0.217   7.155 -0.0953 -0.4271 -0.4575
14507SOL    HW144941   1.956   0.227   7.118 -0.3575  1.1302  0.4950
14507SOL    HW244942   2.046   0.277   7.230  2.2535  0.7043 -1.3038
14508SOL     OW44943   3.070   2.169   2.754 -0.3282 -0.0504 -0.3686
14508SOL    HW144944   2.988   2.196   2.796  0.0772 -0.2685  0.5760
14508SOL    HW244945   3.054   2.080   2.725 -0.5071 -0.0043 -0.4138
14509SOL     OW44946   3.414   3.403   6.655 -0.0187 -0.8253 -0.0444
14509SOL    HW144947   3.490   3.393   6.597 -0.2789 -1.2697 -0.3156
14509SOL    HW244948   3.345   3.351   6.613 -0.5753 -0.1483  0.0239
14510SOL     OW44949   5.683   2.626   1.415 -0.0013 -0.0390  0.4177
14510SOL    HW144950   5.705   2.719   1.408  1.3697 -0.3746  0.0021
14510SOL    HW244951   5.647   2.603   1.329  2.0310 -0.4513 -0.3793
14511SOL     OW44952   7.564   1.149   4.280 -0.2385  0.2975 -0.8339
14511SOL    HW144953   7.593   1.059   4.297  3.1005  1.6915  1.8602
14511SOL    HW244954   7.488   1.161   4.337 -1.3552 -1.0085 -1.9588
14512SOL     OW44955   7.290   4.169   0.773 -0.1754  0.0233 -0.7388
14512SOL    HW144956   7.365   4.162   0.832 -1.0533  0.0962  0.4186
14512SOL    HW244957   7.305   4.101   0.708 -0.9074 -2.5089  1.5527
14513SOL     OW44958   1.122   7.684   6.715 -0.6716 -0.1430  0.1302
14513SOL    HW144959   1.083   7.760   6.672  1.7303  0.4576 -1.1429
14513SOL    HW244960   1.168   7.637   6.645  2.2507  0.1214  1.6999
14514SOL     OW44961   5.933   8.256   5.108  0.3852 -0.4008  0.3811
14514SOL    HW144962   6.016   8.290   5.141  0.7643  0.4530 -1.3370
14514SOL    HW244963   5.868   8.285   5.172  0.9507  1.9679 -0.0326
14515SOL     OW44964   5.869   7.774   7.302 -0.3097 -0.4026  0.1356
14515SOL    HW144965   5.819   7.715   7.359  0.6660 -0.7066  0.7108
14515SOL    HW244966   5.807   7.802   7.235 -1.0918 -1.2005  0.5120
14516SOL     OW44967   1.273   4.738   2.405  0.8018 -0.2964 -0.0808
14516SOL    HW144968   1.297   4.814   2.458  0.2722 -0.4650  0.4137
14516SOL    HW244969   1.356   4.698   2.381  1.1149  0.7824 -0.8580
14517SOL     OW44970   0.294   4.769   5.671 -0.1642  0.4570  0.3316
14517SOL    HW144971   0.236   4.697   5.697  0.0302 -0.8278 -2.3800
14517SOL    HW244972   0.243   4.848   5.685 -0.7054 -0.2319  2.6007
14518SOL     OW44973   6.498   8.208   6.412  0.3950 -0.5893 -1.1078
14518SOL    HW144974   6.574   8.177   6.363  1.7092 -0.1480  0.5630
14518SOL    HW244975   6.520   8.191   6.504 -0.4308  1.8240 -0.3887
14519SOL     OW44976   7.942   0.844   7.061  0.2991 -0.0464  0.4107
14519SOL    HW144977   7.932   0.781   6.990  0.8882  0.0469  0.2363
14519SOL    HW244978   7.990   0.917   7.022 -0.1694  0.4025  0.6742
14520SOL     OW44979   3.592   1.403   6.382  0.0711 -0.6226 -0.8815
14520SOL    HW144980   3.658   1.343   6.348  1.4173  1.1168 -1.4552
14520SOL    HW244981   3.628   1.436   6.464 -0.4075 -0.1765 -0.8417
14521SOL     OW44982   6.206   8.282   0.514 -0.7238  0.3461 -0.1037
14521SOL    HW144983   6.238   8.269   0.425 -2.6899  0.2998 -0.8579
14521SOL    HW244984   6.212   8.195   0.555 -1.6313 -0.0931 -0.8607
14522SOL     OW44985   3.484   2.913   1.651 -0.1043 -0.3352  0.6482
14522SOL    HW144986   3.418   2.953   1.708 -0.6467 -0.6294  0.2265
14522SOL    HW244987   3.477   2.961   1.569  1.3535  0.7648  1.1062
14523SOL     OW44988   3.715   3.123   7.886  0.4963  0.2318  0.0705
14523SOL    HW144989   3.746   3.035   7.868 -0.8058  0.1272 -1.9454
14523SOL    HW244990   3.624   3.112   7.912  0.3961  0.9799  0.0589
14524SOL     OW44991   6.926   3.756   3.456  0.2206  0.9422  0.3870
14524SOL    HW144992   6.831   3.743   3.459  0.2485  0.8287  3.1957
14524SOL    HW244993   6.963   3.671   3.479  1.0534  0.9498 -0.8065
14525SOL     OW44994   6.774   5.597   7.116  0.1503  0.0948  0.4483
14525SOL    HW144995   6.818   5.599   7.201 -1.2231  1.0261  1.1700
14525SOL    HW244996   6.681   5.588   7.137 -0.3747  1.8186 -0.8694
14526SOL     OW44997   6.466   4.191   3.574 -0.1143 -0.2110 -0.2945
14526SOL    HW144998   6.499   4.175   3.662 -0.5355  1.3821  0.1837
14526SOL    HW244999   6.522   4.260   3.539  0.6844 -1.5017 -1.6882
14527SOL     OW45000   4.628   0.965   5.509  0.6563 -0.8920 -0.1936
14527SOL    HW145001   4.591   1.045   5.547  2.2743  1.3233 -2.8770
14527SOL    HW245002   4.659   0.914   5.584  0.0293  1.2519  1.6058
14528SOL     OW45003   2.937   4.815   1.874 -0.1247 -0.0519 -0.3187
14528SOL    HW145004   2.997   4.742   1.864  1.8271  1.4286 -0.1296
14528SOL    HW245005   2.920   4.820   1.968 -1.7926 -1.3764 -0.5212
14529SOL     OW45006   6.928   5.632   8.168 -0.4234 -0.1016 -0.0445
14529SOL    HW145007   6.909   5.618   8.075 -0.4811  0.9843 -0.2012
14529SOL    HW245008   7.022   5.651   8.170 -0.2887 -0.7477  0.2056
14530SOL     OW45009   2.683   2.881   7.807 -0.0537  0.3639 -0.4136
14530SOL    HW145010   2.742   2.955   7.817  2.8053 -1.8782  0.6682
14530SOL    HW245011   2.700   2.849   7.718  0.0420 -0.0361 -0.2518
14531SOL     OW45012   5.155   2.526   4.263 -0.4770  0.5125 -0.6608
14531SOL    HW145013   5.189   2.614   4.278  1.5724 -0.1676 -0.9976
14531SOL    HW245014   5.117   2.529   4.176 -3.2438  1.8056  0.4568
14532SOL     OW45015   2.928   0.181   4.102 -0.1895 -0.0482 -0.2852
14532SOL    HW145016   3.022   0.195   4.090 -0.1802  0.0936 -0.0574
14532SOL    HW245017   2.897   0.153   4.016  0.4286 -2.1717  0.1422
14533SOL     OW45018   8.196   0.059   7.376  0.1964  0.3017 -0.4920
14533SOL    HW145019   8.145   0.121   7.325  0.2609  0.3140 -0.5416
14533SOL    HW245020   8.133   0.020   7.437  0.5759  2.0259  1.0997
14534SOL     OW45021   1.793   6.843   6.687 -0.2149  0.2995 -0.0470
14534SOL    HW145022   1.842   6.837   6.769  1.0744 -0.8594 -0.8571
14534SOL    HW245023   1.713   6.890   6.711  0.0972 -0.0441  1.8841
14535SOL     OW45024   5.878   7.297   7.632  0.3173 -0.6847  0.1768
14535SOL    HW145025   5.958   7.333   7.669 -0.0070 -0.5016  0.7118
14535SOL    HW245026   5.841   7.369   7.580 -0.5162 -0.1012  1.5368
14536SOL     OW45027   4.022   4.853   2.012 -0.5585  0.1896  0.5937
14536SOL    HW145028   4.065   4.817   1.935  1.2688 -1.1384  2.1218
14536SOL    HW245029   4.090   4.902   2.057 -1.4620  0.5962  1.5654
14537SOL     OW45030   2.494   3.768   5.406 -0.0754 -0.5090 -0.1207
14537SOL    HW145031   2.541   3.818   5.340 -0.5255 -0.8857 -0.7404
14537SOL    HW245032   2.402   3.792   5.393 -0.0704  0.2053  1.0629
14538SOL     OW45033   8.164   6.660   7.752 -0.5578 -0.0209  0.2912
14538SOL    HW145034   8.117   6.580   7.726 -0.5822 -0.3825  1.3889
14538SOL    HW245035   8.235   6.628   7.808  0.1803  0.6401 -0.2428
14539SOL     OW45036   1.185   0.755   2.841 -0.0276  0.3012  0.5999
14539SOL    HW145037   1.202   0.709   2.924 -1.9361 -1.3723  0.1345
14539SOL    HW245038   1.198   0.689   2.774 -1.0693  0.9150 -0.2379
14540SOL     OW45039   2.635   4.693   0.139 -0.0226  0.0188  0.6866
14540SOL    HW145040   2.560   4.732   0.093 -0.9795  0.0830  2.2300
14540SOL    HW245041   2.603   4.679   0.228  1.1148 -1.9848  0.8273
14541SOL     OW45042   4.168   7.820   0.376 -0.3478 -0.5163 -0.2383
14541SOL    HW145043   4.147   7.870   0.297 -2.5886 -1.5367 -0.3525
14541SOL    HW245044   4.099   7.754   0.382  0.7595 -1.5903  1.6305
14542SOL     OW45045   6.106   1.217   7.625  0.1387  0.3046  0.9929
14542SOL    HW145046   6.192   1.257   7.632  0.5594 -0.5651  0.8734
14542SOL    HW245047   6.077   1.207   7.716  0.7121 -0.5588  1.0860
14543SOL     OW45048   8.088   5.894   1.560  0.2202  0.5609 -0.3229
14543SOL    HW145049   8.068   5.822   1.620  1.4974  1.0962  0.8236
14543SOL    HW245050   8.110   5.851   1.478 -1.7887 -0.1853 -0.5203
14544SOL     OW45051   1.930   1.094   4.492  0.5484 -0.2190 -0.0875
14544SOL    HW145052   2.018   1.114   4.461  0.2364  1.4700  0.0215
14544SOL    HW245053   1.890   1.180   4.508 -0.3897 -0.9509  1.8893
14545SOL     OW45054   3.951   4.032   5.281 -0.4077 -0.2953 -0.4763
14545SOL    HW145055   3.917   3.952   5.322 -1.0477 -0.6424 -1.6298
14545SOL    HW245056   3.879   4.062   5.225 -0.1886  1.1205 -0.0378
14546SOL     OW45057   1.703   6.578   7.629 -0.0118  0.3088 -0.3685
14546SOL    HW145058   1.732   6.489   7.647 -0.1920  0.2982 -0.1159
14546SOL    HW245059   1.639   6.569   7.558  1.3488  0.4463 -1.6541
14547SOL     OW45060   6.786   1.709   5.801 -0.0194  0.1102  0.3952
14547SOL    HW145061   6.754   1.677   5.717 -1.1570 -1.3773  1.3513
14547SOL    HW245062   6.880   1.690   5.800 -0.1517 -0.5126 -0.2679
14548SOL     OW45063   1.025   7.412   3.392  0.0049 -0.0757  0.2337
14548SOL    HW145064   1.010   7.505   3.411 -1.6384 -0.4997  1.2504
14548SOL    HW245065   1.018   7.405   3.297  2.1152  1.1302 -0.0546
14549SOL     OW45066   4.242   6.608   1.325  0.0735 -0.2230  0.1835
14549SOL    HW145067   4.266   6.672   1.392  1.8926 -0.1093 -0.5386
14549SOL    HW245068   4.239   6.657   1.244 -1.3505 -0.5217  0.0253
14550SOL     OW45069   8.187   1.949   5.672  0.5180  0.3091 -0.3219
14550SOL    HW145070   8.124   1.949   5.600  0.2591 -0.9701 -0.1093
14550SOL    HW245071   8.145   1.999   5.742  0.4171  0.8308 -0.7524
14551SOL     OW45072   4.668   4.978   0.286  0.3601  0.2070 -0.2472
14551SOL    HW145073   4.699   4.970   0.376 -0.4079 -0.7784 -0.0503
14551SOL    HW245074   4.667   4.888   0.252  0.2594  0.5176 -1.1075
14552SOL     OW45075   3.977   4.750   6.016  0.1074 -0.3705 -0.3443
14552SOL    HW145076   3.897   4.706   6.042  0.1374 -0.0969  0.2152
14552SOL    HW245077   4.047   4.702   6.060  0.3533 -1.2615 -1.6566
14553SOL     OW45078   1.752   5.780   5.897 -0.8296 -0.6627  0.1140
14553SOL    HW145079   1.834   5.752   5.857  0.0045 -0.0024  1.2666
14553SOL    HW245080   1.692   5.707   5.883 -0.2007 -0.9628 -1.1718
14554SOL     OW45081   1.534   1.881   3.331  0.1141 -0.2253  0.2686
14554SOL    HW145082   1.492   1.885   3.417 -0.8707  0.2471 -0.2319
14554SOL    HW245083   1.474   1.830   3.277  0.3206  0.1903 -0.3653
14555SOL     OW45084   8.080   3.031   7.361 -0.2849 -0.1427 -0.5266
14555SOL    HW145085   7.992   3.018   7.396 -0.4184  1.3014 -0.2621
14555SOL    HW245086   8.137   3.036   7.438 -0.2804  0.9339 -0.5781
14556SOL     OW45087   6.284   4.104   2.175 -0.3573 -0.1884 -0.3472
14556SOL    HW145088   6.370   4.126   2.141 -0.0394 -0.1154  0.4840
14556SOL    HW245089   6.274   4.011   2.157  0.2788 -0.3999  0.3704
14557SOL     OW45090   1.633   6.861   5.212  0.0366  0.0901 -0.3106
14557SOL    HW145091   1.598   6.797   5.274 -2.2773  0.0166 -1.5877
14557SOL    HW245092   1.586   6.942   5.232  0.8465  0.6419 -0.5893
14558SOL     OW45093   1.070   0.592   1.576  0.1024  0.4716 -0.0954
14558SOL    HW145094   0.983   0.628   1.558  0.8511  2.8497  0.6860
14558SOL    HW245095   1.107   0.575   1.490 -0.3478  1.4562 -0.4958
14559SOL     OW45096   0.698   6.798   7.744 -0.6688 -0.4746  0.2928
14559SOL    HW145097   0.768   6.745   7.706  0.2005 -0.5604  1.8916
14559SOL    HW245098   0.695   6.877   7.690  0.6012 -0.5208  0.1317
14560SOL     OW45099   4.293   0.034   2.175  0.0669 -0.0034 -0.0037
14560SOL    HW145100   4.340  -0.049   2.186  0.8458  0.3885 -0.2608
14560SOL    HW245101   4.269   0.036   2.083  1.1832  0.6152 -0.3094
14561SOL     OW45102   2.930   6.493   1.829  0.3397 -0.3389  0.4592
14561SOL    HW145103   2.937   6.403   1.859  2.9512 -1.3412 -2.5917
14561SOL    HW245104   2.998   6.540   1.878  1.5758 -0.9552 -0.6086
14562SOL     OW45105   7.366   6.575   8.329  0.4012 -0.1747 -0.0457
14562SOL    HW145106   7.338   6.661   8.360 -1.6598 -0.9177  0.3054
14562SOL    HW245107   7.458   6.587   8.303  0.7046  1.6712  1.6744
14563SOL     OW45108   5.513   7.592   4.086 -0.0626 -0.3655  0.7310
14563SOL    HW145109   5.432   7.599   4.137  0.4379  2.1415  1.3520
14563SOL    HW245110   5.582   7.586   4.152  0.4966  1.6066  0.4160
14564SOL     OW45111   2.169   5.754   6.698 -0.2473  0.8222  0.2240
14564SOL    HW145112   2.101   5.816   6.669 -1.1235 -0.2600 -0.0948
14564SOL    HW245113   2.250   5.791   6.664 -0.9283  1.0682 -1.2095
14565SOL     OW45114   3.996   6.852   0.246  0.5285  0.1497 -0.2626
14565SOL    HW145115   4.012   6.912   0.174  0.3207 -1.7930 -2.0141
14565SOL    HW245116   3.929   6.792   0.214  1.3522 -1.5680  1.0237
14566SOL     OW45117   7.761   8.099   6.933  0.3046 -0.1037 -0.1273
14566SOL    HW145118   7.697   8.090   6.862 -0.1821  0.1830  0.2679
14566SOL    HW245119   7.791   8.009   6.949 -1.3325 -0.5297  0.8710
14567SOL     OW45120   2.233   0.396   6.923 -0.4360 -0.2876  0.5883
14567SOL    HW145121   2.152   0.415   6.874  1.1293  0.6462 -1.8383
14567SOL    HW245122   2.239   0.300   6.922 -0.9003 -0.3211 -0.3312
14568SOL     OW45123   3.897   8.140   7.936 -0.3072  0.1454  0.5473
14568SOL    HW145124   3.857   8.117   7.852 -0.9853 -1.7199  1.3286
14568SOL    HW245125   3.871   8.069   7.995  1.6475  0.4611  1.8867
14569SOL     OW45126   1.044   6.259   1.515 -0.4600  0.3829 -0.9122
14569SOL    HW145127   1.004   6.341   1.545 -1.1177 -0.5859  0.9776
14569SOL    HW245128   1.138   6.275   1.518 -0.5871  1.1057 -0.6973
14570SOL     OW45129   2.633   6.865   5.551  0.1100  0.0144  0.0887
14570SOL    HW145130   2.630   6.859   5.456  0.7194 -0.0540  0.0731
14570SOL    HW245131   2.716   6.908   5.571  0.1611 -0.3069  0.6048
14571SOL     OW45132   1.796   1.145   1.046  0.1957  0.0265  0.2907
14571SOL    HW145133   1.794   1.222   1.102 -0.5869  0.1023  0.1757
14571SOL    HW245134   1.707   1.110   1.050  0.5061 -0.8130  0.2552
14572SOL     OW45135   7.109   1.115   8.074  0.5485 -0.4990  0.0697
14572SOL    HW145136   7.186   1.170   8.060  1.0320 -1.3850 -0.8706
14572SOL    HW245137   7.039   1.159   8.026  0.3973  0.4033  1.0705
14573SOL     OW45138   0.099   6.558   7.577 -0.0872 -0.2363  0.7457
14573SOL    HW145139   0.015   6.512   7.578 -0.3447  0.2501  1.2692
14573SOL    HW245140   0.140   6.535   7.660  0.2760 -0.4265  0.5156
14574SOL     OW45141   2.957   8.247   4.187 -0.6738 -0.1996  0.4555
14574SOL    HW145142   3.018   8.278   4.119 -0.4198 -1.4988  0.0675
14574SOL    HW245143   2.949   8.321   4.247  1.2317  0.0503  0.4751
14575SOL     OW45144   4.163   4.419   5.000  0.0646  0.3774  0.3160
14575SOL    HW145145   4.131   4.334   5.032 -1.9867  0.1607 -1.9943
14575SOL    HW245146   4.215   4.397   4.923  1.1070  1.1357  0.7905
14576SOL     OW45147   3.158   7.387   3.511  0.3973  0.8901 -0.6504
14576SOL    HW145148   3.145   7.358   3.420 -0.3688  0.1498 -0.3184
14576SOL    HW245149   3.070   7.408   3.543  0.7414  1.8158 -0.2884
14577SOL     OW45150   2.580   5.670   3.577 -0.0116 -0.4590 -0.4172
14577SOL    HW145151   2.600   5.744   3.634 -1.4117  0.5540 -1.1721
14577SOL    HW245152   2.625   5.596   3.617 -1.1358  0.1465  2.1310
14578SOL     OW45153   7.079   5.331   7.034 -0.1673  0.7780 -0.5042
14578SOL    HW145154   6.986   5.319   7.016 -0.0219  0.8251 -1.3281
14578SOL    HW245155   7.096   5.423   7.016  0.0027  0.8154 -0.1712
14579SOL     OW45156   5.202   0.584   7.131 -0.2044 -0.3726 -0.4135
14579SOL    HW145157   5.294   0.556   7.130  0.0951  0.5619  0.3098
14579SOL    HW245158   5.190   0.625   7.216 -0.5118  2.0383 -1.5233
14580SOL     OW45159   6.832   3.876   7.884 -0.2853 -0.3219 -0.5047
14580SOL    HW145160   6.742   3.875   7.914 -1.4079 -0.3468 -3.5205
14580SOL    HW245161   6.877   3.813   7.941 -1.7279  0.8558  2.0782
14581SOL     OW45162   6.682   7.086   1.915  0.5277 -0.5415  0.1950
14581SOL    HW145163   6.722   7.117   1.834  0.2716 -1.2283 -0.2053
14581SOL    HW245164   6.726   7.003   1.934  0.7658 -0.2627  0.9052
14582SOL     OW45165   4.773   4.720   2.871  0.3675  0.0052 -0.1988
14582SOL    HW145166   4.858   4.693   2.905 -0.6772 -0.2268  2.4868
14582SOL    HW245167   4.724   4.639   2.859 -0.8882  0.2521  2.5380
14583SOL     OW45168   8.294   3.806   5.621  0.2840  0.1773 -0.1237
14583SOL    HW145169   8.268   3.898   5.620  0.9224  0.3670  0.3558
14583SOL    HW245170   8.212   3.758   5.612  0.0388  0.7953 -1.4517
14584SOL     OW45171   6.697   7.353   7.550  0.6928 -0.7000 -0.4438
14584SOL    HW145172   6.720   7.444   7.569  0.2965 -0.6351 -0.2677
14584SOL    HW245173   6.601   7.350   7.557  0.7000 -1.1206 -0.4826
14585SOL     OW45174   0.938   2.369   7.463  0.5273 -0.5933 -0.1469
14585SOL    HW145175   0.883   2.418   7.402  0.5938 -1.3456 -0.8239
14585SOL    HW245176   0.932   2.418   7.545  1.2841  1.0697 -1.0194
14586SOL     OW45177   0.615   7.172   3.406 -0.1657  0.6921 -0.0812
14586SOL    HW145178   0.578   7.261   3.409  0.5320  1.0107 -0.7300
14586SOL    HW245179   0.563   7.127   3.339 -1.1819  0.2840  0.9390
14587SOL     OW45180   6.273   3.545   4.127  0.5882  1.0169 -0.2372
14587SOL    HW145181   6.292   3.473   4.188  1.5503  0.0924 -1.5561
14587SOL    HW245182   6.211   3.507   4.064  1.0131  1.3667 -0.8778
14588SOL     OW45183   6.124   6.993   4.290 -0.3590 -0.1761  0.5075
14588SOL    HW145184   6.169   6.945   4.360  0.3082  0.8444  0.7957
14588SOL    HW245185   6.168   6.965   4.210 -0.5843 -0.7342  0.5762
14589SOL     OW45186   0.145   4.404   6.126 -0.0633 -0.3133 -0.5329
14589SOL    HW145187   0.217   4.433   6.069  0.4652  0.8640  0.6979
14589SOL    HW245188   0.188   4.366   6.202 -0.6874  1.5675  0.8197
14590SOL     OW45189   5.653   4.123   6.853  0.1091  0.1022 -0.1329
14590SOL    HW145190   5.600   4.143   6.930  0.7911  0.1206  0.3393
14590SOL    HW245191   5.666   4.208   6.810 -1.1541 -0.0491 -0.8649
14591SOL     OW45192   2.581   4.321   6.044 -0.1305  0.1342 -0.1342
14591SOL    HW145193   2.490   4.343   6.025  0.5807  2.4412 -1.1695
14591SOL    HW245194   2.627   4.337   5.962  1.3494 -0.1932  0.6020
14592SOL     OW45195   6.816   7.668   3.545  0.0310 -0.1759 -0.3375
14592SOL    HW145196   6.871   7.687   3.621  0.0826 -2.0569  0.1510
14592SOL    HW245197   6.807   7.752   3.500  4.1494  0.1075 -1.0348
14593SOL     OW45198   3.002   2.762   1.009 -0.1686 -0.1822 -0.2196
14593SOL    HW145199   2.982   2.836   0.952 -0.5115 -1.2151 -1.4690
14593SOL    HW245200   2.967   2.788   1.094 -0.0696  1.1865 -0.5629
14594SOL     OW45201   2.506   8.216   7.669 -0.0237  0.4107 -0.2351
14594SOL    HW145202   2.543   8.146   7.721  0.3552  1.0693  0.4059
14594SOL    HW245203   2.563   8.222   7.592 -1.0570 -1.1014 -1.1699
14595SOL     OW45204   3.380   7.178   5.533 -0.0911  0.0705 -0.3148
14595SOL    HW145205   3.455   7.163   5.475 -0.0292 -1.8932  0.2019
14595SOL    HW245206   3.419   7.207   5.615 -0.0762  1.3273 -0.7487
14596SOL     OW45207   8.022   4.997   6.600  0.2550 -0.2741 -0.6189
14596SOL    HW145208   7.929   5.009   6.621  0.5755  1.6188 -0.0773
14596SOL    HW245209   8.027   4.908   6.565 -1.0062 -2.2620  3.5683
14597SOL     OW45210   3.307   5.956   7.814 -0.2291 -0.7991 -0.3299
14597SOL    HW145211   3.359   5.965   7.894 -0.4710 -0.1871 -0.2335
14597SOL    HW245212   3.217   5.976   7.841  0.0445  2.2530 -1.2423
14598SOL     OW45213   0.320   3.315   3.751 -0.1500  0.0075 -0.4068
14598SOL    HW145214   0.236   3.327   3.706  0.7519  2.9457 -1.5372
14598SOL    HW245215   0.316   3.226   3.786 -3.2240 -0.3830 -1.4440
14599SOL     OW45216   6.312   2.626   5.555  0.5077 -0.0799  0.2964
14599SOL    HW145217   6.243   2.691   5.575 -0.9669 -0.4277 -2.9470
14599SOL    HW245218   6.306   2.615   5.460  3.4999 -1.9700  0.2332
14600SOL     OW45219   6.933   0.355   2.899  0.7067 -0.3560  0.9515
14600SOL    HW145220   6.983   0.300   2.959  1.2201  1.2918  2.0941
14600SOL    HW245221   6.875   0.406   2.955 -0.6806 -0.6032 -0.1802
14601SOL     OW45222   2.331   3.435   0.072 -0.1091 -0.3026  0.3562
14601SOL    HW145223   2.274   3.511   0.082  0.1448  0.0711 -0.8164
14601SOL    HW245224   2.282   3.375   0.016 -0.0701 -0.7472  0.7962
14602SOL     OW45225   4.502   1.402   3.945 -0.5778 -0.0124 -0.0718
14602SOL    HW145226   4.413   1.371   3.929 -0.8151  0.3430  0.5175
14602SOL    HW245227   4.509   1.404   4.041  0.1568 -0.3087 -0.1148
14603SOL     OW45228   0.297   7.686   0.647  0.2678  0.1371  0.3717
14603SOL    HW145229   0.308   7.613   0.586  0.3671  0.4373  0.0263
14603SOL    HW245230   0.236   7.653   0.713  0.0448 -0.1483  0.0299
14604SOL     OW45231   4.035   0.787   6.950 -0.6439 -0.0496 -0.1236
14604SOL    HW145232   4.063   0.871   6.987 -1.0598  1.1329 -2.2627
14604SOL    HW245233   4.067   0.721   7.011  2.6930  1.4464 -0.0177
14605SOL     OW45234   6.948   0.167   3.486 -0.1711 -0.1910  0.7651
14605SOL    HW145235   6.917   0.129   3.404  1.0922  1.9631 -0.8158
14605SOL    HW245236   6.869   0.172   3.541 -1.0200 -1.7933 -0.2314
14606SOL     OW45237   7.909   5.209   2.535  0.7607 -0.1566  0.4547
14606SOL    HW145238   7.941   5.298   2.543 -0.2879  0.5543 -2.2127
14606SOL    HW245239   7.830   5.216   2.481  0.3921 -2.6432  0.5292
14607SOL     OW45240   8.164   5.196   2.134 -0.1711  0.0307 -0.0575
14607SOL    HW145241   8.202   5.267   2.186 -0.7939  0.9986 -0.8697
14607SOL    HW245242   8.153   5.124   2.195  2.0281  0.0475  0.4180
14608SOL     OW45243   5.719   2.890   5.514 -0.1765  0.3011 -0.3351
14608SOL    HW145244   5.660   2.849   5.577 -0.2965  1.0023  0.0163
14608SOL    HW245245   5.797   2.835   5.515  0.3541  1.0231  1.4064
14609SOL     OW45246   6.662   4.439   2.670 -0.3283  0.1859 -0.0808
14609SOL    HW145247   6.586   4.475   2.716  0.2245 -0.5979  1.4994
14609SOL    HW245248   6.629   4.361   2.627 -1.0807  1.4483 -1.9189
14610SOL     OW45249   1.408   3.087   4.698 -0.3178 -0.3911  0.2193
14610SOL    HW145250   1.487   3.139   4.685 -1.1787  0.7082 -0.8273
14610SOL    HW245251   1.341   3.151   4.722 -1.3596 -1.0182 -0.8978
14611SOL     OW45252   6.418   7.638   0.442 -0.5344 -0.1687 -0.3519
14611SOL    HW145253   6.500   7.649   0.394  0.2257  0.3049  1.0010
14611SOL    HW245254   6.385   7.553   0.413  0.5170 -0.4358 -0.8198
14612SOL     OW45255   3.388   0.353   5.888 -0.5983  0.3344  0.7056
14612SOL    HW145256   3.399   0.399   5.971  1.2315  1.9190 -0.3481
14612SOL    HW245257   3.353   0.418   5.828 -0.8759 -0.5003 -0.0670
14613SOL     OW45258   3.065   0.540   1.900 -0.3062  0.0783 -0.2649
14613SOL    HW145259   3.117   0.621   1.898 -1.3900  1.0167  3.1788
14613SOL    HW245260   3.021   0.538   1.815  0.3470  2.6828 -0.7546
14614SOL     OW45261   0.822   2.284   2.227  0.5392  0.1138  0.2219
14614SOL    HW145262   0.810   2.268   2.320 -1.5092 -3.3493 -0.4476
14614SOL    HW245263   0.862   2.203   2.194  1.7800  1.4859 -1.8495
14615SOL     OW45264   4.636   7.956   7.817 -0.1386 -0.1466 -0.5035
14615SOL    HW145265   4.657   8.036   7.768  1.7197 -0.1823  0.1665
14615SOL    HW245266   4.681   7.887   7.769 -1.2919 -0.7413 -0.7670
14616SOL     OW45267   1.566   5.425   1.287 -0.3030  0.1071 -0.0786
14616SOL    HW145268   1.522   5.499   1.246 -1.4930 -0.9753 -0.8506
14616SOL    HW245269   1.522   5.348   1.250  1.8019 -1.0305 -0.3691
14617SOL     OW45270   6.442   8.311   7.979 -0.3209  0.2405  0.3545
14617SOL    HW145271   6.375   8.348   7.920  0.0840 -0.3256 -0.4747
14617SOL    HW245272   6.432   8.216   7.969  0.1410  0.1500  0.7640
14618SOL     OW45273   5.420   3.546   4.096  0.2282  0.0313 -0.5422
14618SOL    HW145274   5.407   3.452   4.102  1.0861 -0.1009 -0.5785
14618SOL    HW245275   5.333   3.582   4.082 -0.1967 -0.6931  0.1917
14619SOL     OW45276   7.545   2.098   2.267 -0.2375  0.0685  0.5309
14619SOL    HW145277   7.569   2.152   2.342  1.4132  0.6979 -0.4084
14619SOL    HW245278   7.626   2.055   2.241 -0.9725 -0.8331 -0.3489
14620SOL     OW45279   0.393   5.758   7.664  0.3498 -0.1464  0.0414
14620SOL    HW145280   0.398   5.845   7.625 -1.9543 -0.2833 -0.7188
14620SOL    HW245281   0.329   5.767   7.735  1.6829 -0.7627  1.3619
14621SOL     OW45282   1.840   6.586   4.291  0.5333 -0.2697 -0.4501
14621SOL    HW145283   1.860   6.525   4.362 -0.1710  0.1976  0.1648
14621SOL    HW245284   1.791   6.657   4.333  0.8797  0.4610 -1.2453
14622SOL     OW45285   2.180   2.523   6.525  0.1610  0.0526 -0.7410
14622SOL    HW145286   2.246   2.591   6.534 -1.5126  1.6827 -0.1763
14622SOL    HW245287   2.117   2.558   6.463 -0.5489 -1.1583 -0.7492
14623SOL     OW45288   7.661   3.731   6.986  0.3850 -0.4086  0.3624
14623SOL    HW145289   7.686   3.818   6.955 -1.5456 -0.4267 -1.4669
14623SOL    HW245290   7.654   3.740   7.081  0.7290  1.2891  0.2568
14624SOL     OW45291   0.340   7.190   1.079 -0.2597 -0.0299 -0.1169
14624SOL    HW145292   0.260   7.158   1.038 -0.4470  0.3242 -0.0282
14624SOL    HW245293   0.318   7.277   1.112  0.6206  0.8072 -1.5740
14625SOL     OW45294   0.224   4.618   3.042  0.3477 -0.6288 -0.6287
14625SOL    HW145295   0.245   4.704   3.003  0.3657  0.2210  1.1646
14625SOL    HW245296   0.129   4.619   3.051  0.3014 -1.0124 -1.0403
14626SOL     OW45297   4.112   4.995   2.370 -0.1167  0.1753  0.1720
14626SOL    HW145298   4.111   5.047   2.450  1.3840 -0.3000  0.5150
14626SOL    HW245299   4.022   4.963   2.362 -0.8101  1.8732  0.5431
14627SOL     OW45300   4.946   7.583   7.118 -0.2783  0.5258  0.4986
14627SOL    HW145301   4.915   7.539   7.039  2.1421 -0.3686 -0.0533
14627SOL    HW245302   4.963   7.673   7.090  0.1169  0.3367  0.1268
14628SOL     OW45303   1.494   7.787   0.217 -0.0508  0.2542 -0.3311
14628SOL    HW145304   1.545   7.843   0.158 -0.6221  1.0455 -0.0869
14628SOL    HW245305   1.416   7.764   0.167  0.8682 -1.6211 -1.0049
14629SOL     OW45306   2.027   3.753   1.425 -0.1916 -0.7317  0.2735
14629SOL    HW145307   1.959   3.820   1.423 -0.3286 -0.8545  0.7248
14629SOL    HW245308   2.051   3.745   1.518  1.8175  0.6866 -0.0513
14630SOL     OW45309   7.100   0.830   6.929 -0.1432  0.3690 -0.3842
14630SOL    HW145310   7.034   0.895   6.907  1.1158  1.5457 -0.8652
14630SOL    HW245311   7.176   0.882   6.955  0.7171 -0.9304 -0.2085
14631SOL     OW45312   7.308   5.734   5.629  0.1903  0.2842 -0.2744
14631SOL    HW145313   7.312   5.758   5.537 -2.0948  1.4089 -0.1430
14631SOL    HW245314   7.217   5.713   5.645  0.8869 -1.8162  1.3217
14632SOL     OW45315   1.994   5.412   0.354  0.0530  0.7197 -0.3088
14632SOL    HW145316   1.964   5.395   0.264  1.5956  0.6191 -0.8411
14632SOL    HW245317   2.075   5.462   0.343 -1.0143  2.9537  1.0978
14633SOL     OW45318   6.051   7.445   3.003 -0.6720 -0.1833 -0.3080
14633SOL    HW145319   6.019   7.533   3.021 -0.0071  0.6980 -2.9688
14633SOL    HW245320   6.135   7.459   2.960 -1.4096 -1.9742 -2.5401
14634SOL     OW45321   7.409   5.722   4.589  0.1453 -0.2288  0.0037
14634SOL    HW145322   7.410   5.800   4.645 -0.4730  0.2324 -0.6205
14634SOL    HW245323   7.439   5.652   4.646  0.2766  0.3799  0.7003
14635SOL     OW45324   2.072   4.727   6.612  0.0956 -0.1770  0.8495
14635SOL    HW145325   1.979   4.748   6.614  0.0671  0.1970 -1.8297
14635SOL    HW245326   2.075   4.632   6.606 -0.0802 -0.2164  1.3128
14636SOL     OW45327   7.632   6.871   2.040  0.3539  0.6752 -0.4746
14636SOL    HW145328   7.577   6.934   2.087  0.7973  1.3830 -0.8847
14636SOL    HW245329   7.710   6.862   2.095 -0.3934 -0.7738  0.4015
14637SOL     OW45330   4.696   7.855   1.586 -0.1733  0.1333 -0.2128
14637SOL    HW145331   4.703   7.900   1.502 -0.9181 -1.0853 -0.9547
14637SOL    HW245332   4.779   7.808   1.595  0.3861  1.1801  0.3110
14638SOL     OW45333   6.500   1.962   6.650  0.4011 -0.5153 -1.1804
14638SOL    HW145334   6.584   2.002   6.626  0.3020 -0.5544 -1.5935
14638SOL    HW245335   6.504   1.954   6.746 -0.0036  1.4349 -0.9641
14639SOL     OW45336   1.745   6.999   4.140  0.5211 -0.1349 -0.6004
14639SOL    HW145337   1.732   6.905   4.152 -0.1478 -0.0106 -0.2745
14639SOL    HW245338   1.824   7.006   4.086 -0.3752 -0.9379 -2.0850
14640SOL     OW45339   0.944   3.427   3.074  0.2597 -0.5439 -0.2735
14640SOL    HW145340   0.869   3.456   3.023  0.3836  0.8579  0.2754
14640SOL    HW245341   0.975   3.507   3.118  0.9306 -1.4482  0.9657
14641SOL     OW45342   2.342   0.770   0.255 -0.5978  0.6980 -0.3277
14641SOL    HW145343   2.300   0.688   0.228  0.0485  0.5053 -0.7737
14641SOL    HW245344   2.418   0.777   0.197  1.4695 -0.2735  2.1015
14642SOL     OW45345   5.653   8.288   7.677  0.2802 -0.1276 -0.2310
14642SOL    HW145346   5.587   8.232   7.718 -0.5019  1.3227  0.5717
14642SOL    HW245347   5.631   8.377   7.706  2.5575  0.4169  0.0206
14643SOL     OW45348   8.136   0.784   8.069 -0.1205  0.0936  0.2841
14643SOL    HW145349   8.154   0.705   8.120 -0.1007  0.0004  0.1342
14643SOL    HW245350   8.127   0.854   8.134 -0.4951 -0.0985  0.4436
14644SOL     OW45351   0.618   0.286   5.496  0.4308  0.7514  0.2070
14644SOL    HW145352   0.621   0.283   5.400  0.2222 -1.4747  0.2172
14644SOL    HW245353   0.705   0.259   5.524  0.4394  1.2361  0.6579
14645SOL     OW45354   3.645   5.314   5.599 -0.1470  0.2611 -0.2147
14645SOL    HW145355   3.610   5.225   5.591 -0.3384  0.2942  0.1944
14645SOL    HW245356   3.733   5.301   5.636 -1.4707  0.3562  3.4430
14646SOL     OW45357   4.738   0.435   1.561  0.2117  0.2976 -0.2128
14646SOL    HW145358   4.785   0.420   1.479 -1.2570  0.3001 -1.0757
14646SOL    HW245359   4.655   0.390   1.551 -0.6307  1.5785  0.6519
14647SOL     OW45360   2.153   0.059   8.256  0.1499  0.2735 -0.0265
14647SOL    HW145361   2.069   0.017   8.237  0.6026 -0.4581 -0.4120
14647SOL    HW245362   2.215   0.019   8.195  0.5801  1.5387 -0.4552
14648SOL     OW45363   6.477   5.426   7.380 -0.8474  0.0340 -0.1924
14648SOL    HW145364   6.510   5.470   7.458  0.2421  0.3432 -0.8030
14648SOL    HW245365   6.518   5.472   7.307 -1.7392 -0.3306 -0.9496
14649SOL     OW45366   6.985   1.968   5.254 -0.2928  0.2593 -0.5032
14649SOL    HW145367   7.004   1.955   5.347  0.6701  1.3101 -0.5257
14649SOL    HW245368   6.890   1.971   5.249 -0.3467  1.8000  0.7077
14650SOL     OW45369   3.688   2.046   6.902  0.1102 -0.8616 -0.5485
14650SOL    HW145370   3.686   1.953   6.880  0.6850 -0.8637 -0.6131
14650SOL    HW245371   3.745   2.086   6.836  1.1513 -0.7247  0.3799
14651SOL     OW45372   0.420   5.117   5.143 -0.0171  0.1146 -0.4425
14651SOL    HW145373   0.333   5.092   5.112 -0.5709  1.0090  0.3346
14651SOL    HW245374   0.479   5.053   5.103 -0.9545 -0.1407 -1.4761
14652SOL     OW45375   7.342   4.714   2.132 -0.4734 -0.0324  0.4065
14652SOL    HW145376   7.391   4.792   2.157 -1.5133  0.7837 -0.0291
14652SOL    HW245377   7.295   4.688   2.211 -1.6251  0.9317  0.0573
14653SOL     OW45378   2.811   3.857   7.574  0.2188 -0.4735 -1.0926
14653SOL    HW145379   2.813   3.822   7.485  0.5355  0.2319 -1.3669
14653SOL    HW245380   2.784   3.948   7.563 -0.3138 -0.5386 -0.4126
14654SOL     OW45381   4.723   7.714   0.044  0.3963  0.3528 -0.1619
14654SOL    HW145382   4.735   7.642  -0.017 -1.7732 -0.4144  0.2255
14654SOL    HW245383   4.800   7.770   0.031  2.1745 -2.0023 -0.4527
14655SOL     OW45384   7.045   7.968   3.539 -0.1858 -0.1399 -0.3726
14655SOL    HW145385   7.027   7.927   3.623  1.7734  0.6875  0.5068
14655SOL    HW245386   7.020   8.059   3.551  1.3901  0.2959 -0.1797
14656SOL     OW45387   3.019   4.845   4.902 -0.4690 -0.0945 -0.0264
14656SOL    HW145388   2.942   4.829   4.848  0.2555 -1.0602 -0.8031
14656SOL    HW245389   3.062   4.760   4.909  1.6787  0.7863 -1.4186
14657SOL     OW45390   1.367   2.845   6.920  0.1541 -0.2162  0.5445
14657SOL    HW145391   1.306   2.772   6.920  1.1741 -1.1127 -0.5730
14657SOL    HW245392   1.361   2.883   7.008  0.7263 -2.6082  1.6814
14658SOL     OW45393   0.861   3.056   2.603 -0.2882 -0.2471  0.2207
14658SOL    HW145394   0.788   3.085   2.658  0.4000  0.7038  0.6735
14658SOL    HW245395   0.853   3.108   2.523 -0.5504 -0.7064 -0.0547
14659SOL     OW45396   0.561   7.168   7.146 -0.3616  0.2211  0.4922
14659SOL    HW145397   0.493   7.198   7.205 -0.1026  0.4052  0.7030
14659SOL    HW245398   0.627   7.238   7.148 -0.8865  0.8021 -0.9346
14660SOL     OW45399   2.430   2.505   0.278 -0.2275 -0.0122  0.1771
14660SOL    HW145400   2.428   2.455   0.360  0.4406 -2.8043 -1.3622
14660SOL    HW245401   2.339   2.509   0.250 -0.3387  0.0055  0.5436
14661SOL     OW45402   2.817   4.612   6.809  0.1090  0.0652 -0.2350
14661SOL    HW145403   2.897   4.641   6.852  0.1383 -2.1063  1.3327
14661SOL    HW245404   2.787   4.689   6.760  1.2044  2.0567  2.0046
14662SOL     OW45405   0.985   4.667   1.000  0.0175  0.2796  0.5020
14662SOL    HW145406   0.908   4.623   0.963 -0.9626  1.0347  1.5880
14662SOL    HW245407   0.980   4.649   1.094  0.0260  2.0014  0.8671
14663SOL     OW45408   6.276   6.932   1.279 -0.1426  0.8211 -0.1715
14663SOL    HW145409   6.267   6.936   1.374 -0.6795 -1.1348 -0.0990
14663SOL    HW245410   6.365   6.961   1.262  0.3486  0.0943  1.0452
14664SOL     OW45411   1.837   3.337   1.570 -0.5555 -0.0528 -0.2376
14664SOL    HW145412   1.917   3.361   1.523  0.6433 -0.5737  1.4538
14664SOL    HW245413   1.836   3.396   1.646 -1.0300 -0.9571  0.4774
14665SOL     OW45414   0.851   5.551   6.231 -0.4576 -0.7108 -0.0674
14665SOL    HW145415   0.926   5.536   6.173 -1.9035 -0.7357 -2.0296
14665SOL    HW245416   0.784   5.588   6.174 -1.8308 -0.3246  1.7109
14666SOL     OW45417   6.882   1.101   0.281 -0.1067  0.0498  0.4492
14666SOL    HW145418   6.827   1.131   0.353 -0.5271 -0.9177  0.5416
14666SOL    HW245419   6.822   1.096   0.206 -0.2005 -1.1520  0.5848
14667SOL     OW45420   0.765   6.916   2.440  0.1506 -1.0343 -0.2979
14667SOL    HW145421   0.760   6.825   2.471  2.2001 -0.9468  0.4394
14667SOL    HW245422   0.706   6.964   2.497  0.2946 -1.6588  0.4040
14668SOL     OW45423   6.487   5.680   6.309  0.0959  0.4404  0.3405
14668SOL    HW145424   6.442   5.688   6.225 -0.2814 -0.6813  0.4197
14668SOL    HW245425   6.580   5.677   6.285 -0.0511 -1.4250 -0.2210
14669SOL     OW45426   1.897   7.359   4.639  0.7561 -0.1460  0.0005
14669SOL    HW145427   1.945   7.441   4.649  0.9567 -0.2982  0.2992
14669SOL    HW245428   1.965   7.291   4.639  0.5260 -0.3892  0.7421
14670SOL     OW45429   4.793   0.255   4.304  0.4373 -0.4513 -0.1599
14670SOL    HW145430   4.710   0.300   4.290  0.2635 -1.0646 -1.1605
14670SOL    HW245431   4.801   0.248   4.399 -2.1494 -3.0823  0.0066
14671SOL     OW45432   1.115   6.622   6.594 -0.2643 -0.0936  0.1196
14671SOL    HW145433   1.054   6.681   6.549 -1.4623 -0.6729  0.9199
14671SOL    HW245434   1.178   6.597   6.526 -0.6177  0.9148 -0.6071
14672SOL     OW45435   4.265   4.422   2.335 -0.4878 -0.2325 -0.1856
14672SOL    HW145436   4.324   4.464   2.398 -0.0888 -0.8397 -0.1411
14672SOL    HW245437   4.222   4.494   2.291  1.7633  0.3457 -1.6278
14673SOL     OW45438   4.091   5.174   4.301 -0.4244 -0.3241 -0.2561
14673SOL    HW145439   4.069   5.264   4.326 -0.9291 -0.9634  1.8125
14673SOL    HW245440   4.018   5.146   4.246 -0.2507  0.5302 -0.9348
14674SOL     OW45441   0.139   5.641   1.303 -0.3204  0.0147 -0.0620
14674SOL    HW145442   0.129   5.642   1.208  1.1892 -0.5149 -0.2603
14674SOL    HW245443   0.128   5.549   1.328  3.1595 -0.5845 -0.2778
14675SOL     OW45444   6.325   3.812   1.422  0.1820 -0.4142 -0.3596
14675SOL    HW145445   6.294   3.798   1.333 -1.5223  1.6991 -0.1852
14675SOL    HW245446   6.416   3.783   1.421  0.3795  0.1170 -2.9443
14676SOL     OW45447   0.463   2.095   6.173 -0.3747  0.1215 -0.2209
14676SOL    HW145448   0.537   2.123   6.227  0.2749  0.1102 -1.0854
14676SOL    HW245449   0.391   2.082   6.235 -0.3331  2.3912  0.3916
14677SOL     OW45450   2.744   7.990   3.388  0.8019 -0.2711 -0.1651
14677SOL    HW145451   2.810   8.006   3.320  0.2427 -1.4036 -1.0246
14677SOL    HW245452   2.661   8.014   3.346  0.6759  2.0709  1.2188
14678SOL     OW45453   5.641   7.042   3.857 -0.1357 -0.4075 -0.2807
14678SOL    HW145454   5.672   7.132   3.867  0.7736 -0.7894  0.5504
14678SOL    HW245455   5.603   7.039   3.770  1.2283  0.3827 -0.9381
14679SOL     OW45456   8.149   2.975   7.650  0.2187 -0.0969  0.0157
14679SOL    HW145457   8.202   2.902   7.617  0.7454  0.0891  0.4233
14679SOL    HW245458   8.133   2.953   7.742 -1.0382 -0.5016 -0.2848
14680SOL     OW45459   4.639   7.983   4.648 -0.4655 -0.2432  0.0793
14680SOL    HW145460   4.710   7.938   4.603 -0.3065  0.1208 -0.0345
14680SOL    HW245461   4.612   8.052   4.588  0.6778  1.1399  1.0912
14681SOL     OW45462   2.615   4.427   3.649 -0.1250 -0.0441  0.0370
14681SOL    HW145463   2.622   4.381   3.732 -0.1050  1.9415  1.2030
14681SOL    HW245464   2.693   4.401   3.600  0.6790 -0.0426  1.2781
14682SOL     OW45465   7.556   1.024   0.337 -0.5243  0.3575 -0.6988
14682SOL    HW145466   7.484   0.961   0.338 -0.5632  0.3305  1.7149
14682SOL    HW245467   7.514   1.108   0.359  0.1592  0.2975  0.9922
14683SOL     OW45468   5.455   8.302   7.083  0.0372 -0.0707 -0.1972
14683SOL    HW145469   5.419   8.299   6.995 -1.9989 -0.8101  0.5983
14683SOL    HW245470   5.550   8.293   7.071 -0.0385  1.4121 -2.3721
14684SOL     OW45471   3.109   0.944   5.234 -0.3232  0.0054  0.2888
14684SOL    HW145472   3.127   1.002   5.159  1.1302 -1.0610 -0.2351
14684SOL    HW245473   3.077   0.863   5.194 -1.8742  0.2277  0.9916
14685SOL     OW45474   0.427   3.365   5.264 -0.1877  0.0123 -0.7606
14685SOL    HW145475   0.341   3.339   5.232 -0.0584 -0.7205 -0.5210
14685SOL    HW245476   0.418   3.366   5.360  0.2755 -0.7947 -0.7043
14686SOL     OW45477   3.714   5.024   6.507 -0.7033 -0.3149 -0.6309
14686SOL    HW145478   3.783   5.061   6.562 -0.4697 -2.3889  0.5487
14686SOL    HW245479   3.648   5.093   6.502  1.2799  1.6378 -1.5954
14687SOL     OW45480   6.457   2.974   3.541 -0.0540 -0.3388 -0.2765
14687SOL    HW145481   6.522   2.933   3.598 -1.3889  0.4330  1.9442
14687SOL    HW245482   6.462   3.067   3.562 -0.3849  0.0187 -1.6879
14688SOL     OW45483   2.234   2.271   1.206  0.1447  0.1173  0.0726
14688SOL    HW145484   2.223   2.239   1.116 -1.8508 -1.0095  0.6808
14688SOL    HW245485   2.287   2.205   1.249  1.1328  0.6755 -0.2449
14689SOL     OW45486   5.009   5.952   6.283  0.1110  0.0463  0.6364
14689SOL    HW145487   4.966   5.871   6.308 -0.0645 -0.0115  0.1592
14689SOL    HW245488   5.091   5.952   6.333  1.2466 -1.5885 -1.0744
14690SOL     OW45489   2.159   8.128   6.149  0.7923 -1.0630 -0.0298
14690SOL    HW145490   2.243   8.114   6.105  1.0316 -2.0262  0.6916
14690SOL    HW245491   2.093   8.114   6.081  1.2059 -0.6783 -0.5112
14691SOL     OW45492   2.941   4.360   4.706  0.4419  0.5814  0.2337
14691SOL    HW145493   2.860   4.408   4.720 -0.5690 -1.1804  0.6389
14691SOL    HW245494   2.916   4.282   4.656  2.0306  0.4530 -0.4332
14692SOL     OW45495   7.547   2.974   2.367 -0.6527  0.4344 -0.0835
14692SOL    HW145496   7.620   3.007   2.314  0.3196  0.6938  1.3651
14692SOL    HW245497   7.491   3.050   2.381 -0.4959  0.5494 -0.0724
14693SOL     OW45498   6.822   3.476   1.547 -0.4038 -0.2155  0.0876
14693SOL    HW145499   6.766   3.423   1.491 -0.4139  0.2923 -0.3852
14693SOL    HW245500   6.909   3.468   1.508  0.0807 -1.7741  1.3518
14694SOL     OW45501   3.990   4.011   4.407  0.8047 -0.0429 -0.2231
14694SOL    HW145502   3.968   3.925   4.442 -1.2174  0.9098  1.0387
14694SOL    HW245503   4.051   4.048   4.471  0.5347  0.0079  0.0079
14695SOL     OW45504   3.754   3.593   6.211 -0.4266  0.0635  0.0338
14695SOL    HW145505   3.835   3.542   6.220 -2.1712 -2.7801  1.2955
14695SOL    HW245506   3.723   3.572   6.123  0.3414  1.4692 -0.5998
14696SOL     OW45507   1.501   5.588   2.092  0.0745  0.2225 -0.8085
14696SOL    HW145508   1.438   5.597   2.163 -0.7129  0.9803 -1.5759
14696SOL    HW245509   1.584   5.567   2.136 -0.4904  0.2046  0.2859
14697SOL     OW45510   7.315   6.495   7.862  0.5855 -0.2230 -0.4544
14697SOL    HW145511   7.336   6.555   7.934  0.9851  0.1580 -0.8750
14697SOL    HW245512   7.221   6.482   7.868  0.4376  0.7090 -0.5348
14698SOL     OW45513   2.559   4.377   6.479  0.1650  0.1393 -0.0250
14698SOL    HW145514   2.600   4.463   6.486  1.0958 -0.3834  1.7856
14698SOL    HW245515   2.624   4.324   6.433 -1.0191  0.6941 -2.4957
14699SOL     OW45516   7.446   5.804   1.948  0.0791  0.6753 -0.3109
14699SOL    HW145517   7.425   5.757   2.029  0.5109 -0.9918 -1.1157
14699SOL    HW245518   7.365   5.801   1.897  0.3017  0.1433 -0.6504
14700SOL     OW45519   5.148   1.474   7.170 -0.2586 -0.0452  0.2228
14700SOL    HW145520   5.203   1.423   7.228  0.0163  0.7831  0.7128
14700SOL    HW245521   5.134   1.418   7.093  0.8373 -0.4599  0.3170
14701SOL     OW45522   5.468   3.377   7.668  0.0921  0.4917 -0.0490
14701SOL    HW145523   5.437   3.364   7.578  0.4593 -0.9088  0.0081
14701SOL    HW245524   5.412   3.320   7.721 -0.2257  1.4313  0.6484
14702SOL     OW45525   7.677   4.412   6.906  0.2574 -0.3237 -1.1155
14702SOL    HW145526   7.661   4.342   6.843  0.4977 -1.5579  0.1343
14702SOL    HW245527   7.630   4.385   6.985  1.1134  0.4602 -0.3015
14703SOL     OW45528   7.159   6.480   0.791  0.2423  0.1858  0.1664
14703SOL    HW145529   7.164   6.554   0.852  1.8289  0.4347 -0.2349
14703SOL    HW245530   7.242   6.434   0.803  0.1775 -0.2978 -1.1423
14704SOL     OW45531   2.119   7.477   2.940 -0.3037  0.2499 -0.3559
14704SOL    HW145532   2.157   7.533   2.872 -0.7052 -0.3628 -1.1017
14704SOL    HW245533   2.040   7.441   2.900 -0.1064 -0.7649  0.1390
14705SOL     OW45534   0.281   1.813   7.871 -0.2001 -0.2404  0.4918
14705SOL    HW145535   0.221   1.746   7.903  0.6377 -2.7053 -2.5505
14705SOL    HW245536   0.359   1.804   7.927 -0.9333 -0.1545  1.5618
14706SOL     OW45537   2.574   7.895   8.142 -0.2921 -0.1835 -0.2431
14706SOL    HW145538   2.612   7.979   8.167 -1.2406 -0.1592  1.2122
14706SOL    HW245539   2.637   7.830   8.171 -0.8897 -0.0978  1.3582
14707SOL     OW45540   3.832   3.471   1.984  0.3814  0.2784 -0.2278
14707SOL    HW145541   3.749   3.444   2.021 -0.2227  2.5823  0.2765
14707SOL    HW245542   3.809   3.535   1.916  1.6994 -0.1197 -1.1073
14708SOL     OW45543   2.297   4.263   5.765  0.5244  0.9431  0.0801
14708SOL    HW145544   2.265   4.349   5.738  1.9659  2.6357  3.2107
14708SOL    HW245545   2.288   4.263   5.860 -0.5545 -2.9313  0.1457
14709SOL     OW45546   7.797   3.506   3.834  0.1960  0.0175 -0.3591
14709SOL    HW145547   7.710   3.503   3.794  0.1610  2.1176 -0.5430
14709SOL    HW245548   7.855   3.537   3.764  0.9170 -0.3591  0.0564
14710SOL     OW45549   1.661   3.433   5.511 -0.2021  0.1480  0.2945
14710SOL    HW145550   1.732   3.373   5.487  0.4114  0.9368  0.0938
14710SOL    HW245551   1.667   3.503   5.446 -0.9310  0.4136  0.5078
14711SOL     OW45552   3.978   3.994   5.829  0.2308 -0.1429 -0.3136
14711SOL    HW145553   4.019   3.911   5.805 -2.4201 -1.6419 -0.1148
14711SOL    HW245554   3.896   3.995   5.779 -0.6870  1.4692  1.1334
14712SOL     OW45555   4.176   2.765   3.520  0.0315 -0.0567 -0.3177
14712SOL    HW145556   4.179   2.692   3.581  0.6540 -1.2876 -1.7453
14712SOL    HW245557   4.250   2.821   3.545 -0.2375 -0.1026  0.5744
14713SOL     OW45558   4.004   5.886   2.623 -0.6184  0.6613  0.1344
14713SOL    HW145559   3.992   5.874   2.529 -1.2117  2.9893 -0.1481
14713SOL    HW245560   3.962   5.970   2.642  0.8873  1.0236  2.1991
14714SOL     OW45561   7.182   4.232   8.310  0.3168 -0.3007  0.2820
14714SOL    HW145562   7.123   4.298   8.273  0.8058 -0.5717 -1.0244
14714SOL    HW245563   7.163   4.152   8.261  0.9026 -0.7107  0.7032
14715SOL     OW45564   1.546   5.676   6.879  0.0368  0.4916  0.2319
14715SOL    HW145565   1.484   5.669   6.951 -0.2376 -0.0796 -0.0511
14715SOL    HW245566   1.631   5.653   6.918  0.2382  2.0861  0.8135
14716SOL     OW45567   0.562   7.762   0.070 -0.2950  0.0112  0.4750
14716SOL    HW145568   0.633   7.827   0.065 -0.6529  0.3347 -0.8075
14716SOL    HW245569   0.533   7.752  -0.021 -0.7384 -1.4124  0.7528
14717SOL     OW45570   6.369   2.085   2.222  0.1677 -0.1714 -0.2893
14717SOL    HW145571   6.428   2.106   2.149  0.6831  0.9465  0.4186
14717SOL    HW245572   6.343   1.994   2.206  1.2620 -0.3591 -1.1823
14718SOL     OW45573   3.258   4.255   6.673 -0.1380 -0.5300 -0.0917
14718SOL    HW145574   3.181   4.259   6.730  0.3765  0.1676  0.5725
14718SOL    HW245575   3.330   4.231   6.731  0.5266  0.8976 -0.2945
14719SOL     OW45576   5.933   2.309   4.002 -0.0995 -0.3995  0.0241
14719SOL    HW145577   5.920   2.401   3.979  2.4008  0.3686  1.2936
14719SOL    HW245578   5.845   2.272   4.006 -1.3705  2.5089  1.5781
14720SOL     OW45579   4.921   7.130   6.469 -0.4193 -0.3141 -0.0826
14720SOL    HW145580   5.003   7.085   6.489 -0.2708  0.4343  1.0307
14720SOL    HW245581   4.853   7.072   6.503 -0.2123  0.4535  1.7397
14721SOL     OW45582   4.010   4.839   5.639 -0.8061  0.3994  0.4147
14721SOL    HW145583   4.054   4.903   5.583 -0.7681  0.4875  0.5448
14721SOL    HW245584   3.917   4.856   5.626 -0.7970  0.4295  0.3884
14722SOL     OW45585   6.355   1.444   4.325 -0.1837 -0.1533  0.0752
14722SOL    HW145586   6.288   1.376   4.328  1.3000 -1.6823 -0.1717
14722SOL    HW245587   6.424   1.407   4.270  0.7919  1.4411  0.1813
14723SOL     OW45588   4.386   7.407   7.276 -0.4840  0.1612  0.0862
14723SOL    HW145589   4.475   7.370   7.274 -0.4584  0.2503 -1.7680
14723SOL    HW245590   4.394   7.493   7.235 -1.1199  0.9783  1.5916
14724SOL     OW45591   1.715   0.886   8.257  0.1321  0.3096 -0.5139
14724SOL    HW145592   1.704   0.801   8.300  0.2646  0.1190 -0.8512
14724SOL    HW245593   1.802   0.915   8.282 -0.1780  0.6632  0.1536
14725SOL     OW45594   7.444   1.160   1.729 -0.0226  0.0721  0.1552
14725SOL    HW145595   7.430   1.254   1.729  2.6326  0.5998 -1.7212
14725SOL    HW245596   7.412   1.131   1.644  0.0444 -0.5380  0.3319
14726SOL     OW45597   2.459   5.605   7.276 -0.0627  0.5905 -0.0366
14726SOL    HW145598   2.538   5.610   7.330  1.4717 -1.1133 -1.9498
14726SOL    HW245599   2.427   5.695   7.272  1.6260  1.2893  1.0148
14727SOL     OW45600   1.653   6.288   3.163  0.5934  0.0212 -0.0920
14727SOL    HW145601   1.736   6.323   3.195 -0.3903  1.3296  1.1703
14727SOL    HW245602   1.676   6.238   3.085  2.1634  3.4449 -2.0472
14728SOL     OW45603   5.922   0.997   8.293 -0.1047  0.4654 -0.2766
14728SOL    HW145604   5.839   0.966   8.330  1.1003 -1.4188  1.0091
14728SOL    HW245605   5.964   1.044   8.365  0.1852  0.9519 -0.7558
14729SOL     OW45606   2.216   7.557   6.144 -0.3188  0.6336  0.3334
14729SOL    HW145607   2.171   7.553   6.229 -0.1241 -1.7464  0.3825
14729SOL    HW245608   2.174   7.490   6.091 -0.8371  2.4608 -1.7371
14730SOL     OW45609   1.237   1.525   4.891  0.1260  0.8451 -0.5659
14730SOL    HW145610   1.202   1.612   4.911 -0.4450  0.7671 -1.2259
14730SOL    HW245611   1.262   1.490   4.977 -0.0535  1.4760 -0.2473
14731SOL     OW45612   3.490   2.066   7.873 -0.3017  0.6054  0.4323
14731SOL    HW145613   3.415   2.125   7.874 -1.2678 -0.5286 -0.7939
14731SOL    HW245614   3.530   2.076   7.960 -0.9791  2.3169  0.5870
14732SOL     OW45615   2.613   5.079   0.045 -0.1820  0.0038  0.1797
14732SOL    HW145616   2.598   4.999  -0.005  0.6881 -0.2169  0.2581
14732SOL    HW245617   2.589   5.057   0.135 -0.7295  0.0808  0.0532
14733SOL     OW45618   2.863   0.252   7.514 -0.3085 -0.4197  0.0734
14733SOL    HW145619   2.817   0.197   7.578 -2.1022 -1.5285 -2.0295
14733SOL    HW245620   2.855   0.341   7.547 -1.0157 -0.9763  1.4616
14734SOL     OW45621   5.258   7.801   6.879 -1.0587  0.6298  0.0342
14734SOL    HW145622   5.298   7.832   6.798  0.6539  0.7336  0.8809
14734SOL    HW245623   5.192   7.737   6.851  0.6419 -0.5750 -1.3706
14735SOL     OW45624   5.010   3.871   4.319  0.1999 -0.2953 -0.3482
14735SOL    HW145625   4.962   3.789   4.326 -0.3938  0.1643  1.8984
14735SOL    HW245626   4.984   3.908   4.234 -0.7818 -1.6505 -0.6631
14736SOL     OW45627   5.997   6.814   5.888  0.0645 -0.5053  0.0597
14736SOL    HW145628   5.993   6.880   5.819 -1.6927  0.8921  1.4128
14736SOL    HW245629   5.988   6.863   5.970  0.4635 -2.2623  1.2123
14737SOL     OW45630   0.566   6.095   2.817  0.3068  0.3963 -0.5257
14737SOL    HW145631   0.535   6.183   2.796 -2.6402 -0.9158 -2.3013
14737SOL    HW245632   0.497   6.058   2.871  1.1409 -1.0832 -0.4331
14738SOL     OW45633   5.432   6.080   7.326  0.0070 -0.5730 -0.4857
14738SOL    HW145634   5.495   6.122   7.384 -1.8740  0.2609  1.0938
14738SOL    HW245635   5.454   6.113   7.239  1.6976 -0.2900  0.0225
14739SOL     OW45636   2.422   5.029   1.925 -0.3205 -0.0922  0.8988
14739SOL    HW145637   2.506   4.995   1.892  0.5224  0.6458  2.1802
14739SOL    HW245638   2.391   5.086   1.855  0.4779 -0.0277  0.5790
14740SOL     OW45639   6.670   7.712   0.070  0.0293 -0.3897 -0.1379
14740SOL    HW145640   6.591   7.702   0.017 -1.2121  2.6813  0.9334
14740SOL    HW245641   6.732   7.758   0.013  0.0136 -0.2766 -0.0632
14741SOL     OW45642   8.100   4.955   7.102  0.2314 -0.6541  0.1781
14741SOL    HW145643   8.047   4.881   7.131 -0.9156 -0.6775 -1.8271
14741SOL    HW245644   8.044   5.002   7.040  0.4805  2.5597  2.1575
14742SOL     OW45645   7.005   1.653   0.245 -0.5430 -0.0431 -0.0571
14742SOL    HW145646   7.073   1.605   0.293 -0.3713  0.3662  0.1196
14742SOL    HW245647   7.047   1.677   0.162 -0.3805  0.4311  0.1573
14743SOL     OW45648   3.692   2.579   1.760  0.1393 -0.1067  0.3585
14743SOL    HW145649   3.741   2.508   1.801 -0.0430 -0.9042 -0.7816
14743SOL    HW245650   3.729   2.587   1.672  0.4889  1.5454  0.6167
14744SOL     OW45651   7.616   1.796   4.418  0.2994 -0.1566  0.4349
14744SOL    HW145652   7.612   1.718   4.473 -1.9049  0.9958  2.0851
14744SOL    HW245653   7.694   1.842   4.446 -0.0828 -0.2502  1.7021
14745SOL     OW45654   5.921   1.237   6.317 -0.4566 -0.0670 -0.2804
14745SOL    HW145655   6.000   1.202   6.277 -0.4883 -0.4753  0.0101
14745SOL    HW245656   5.858   1.244   6.245 -0.8906 -1.8710 -0.1159
14746SOL     OW45657   4.509   6.966   4.688  0.6138  0.1104 -0.3902
14746SOL    HW145658   4.536   6.887   4.736  0.4695  1.0569  1.3461
14746SOL    HW245659   4.591   7.012   4.671  0.5498  0.6513  0.6292
14747SOL     OW45660   7.715   5.956   4.837 -0.6936 -0.3048 -0.4021
14747SOL    HW145661   7.733   5.888   4.902  0.4684 -0.1557 -0.5341
14747SOL    HW245662   7.736   5.915   4.753 -0.5326  0.0381 -0.5320
14748SOL     OW45663   6.703   6.807   5.646  0.2076  0.0146  0.2384
14748SOL    HW145664   6.653   6.731   5.676 -1.5684  0.3412 -1.6573
14748SOL    HW245665   6.729   6.784   5.557 -1.8694  2.2014 -1.0437
14749SOL     OW45666   0.888   6.767   7.206  0.6635  0.1225 -0.3990
14749SOL    HW145667   0.889   6.778   7.111  0.2768  0.5020 -0.3634
14749SOL    HW245668   0.952   6.831   7.238  0.7264  0.0592 -0.3984
14750SOL     OW45669   1.971   0.013   3.233 -0.3013 -0.0508 -0.7912
14750SOL    HW145670   2.013   0.079   3.289 -0.3868 -0.7204  0.0787
14750SOL    HW245671   2.034  -0.058   3.227 -0.2169  0.0886 -1.7203
14751SOL     OW45672   2.541   3.256   6.735 -0.1215  0.6024 -0.0611
14751SOL    HW145673   2.495   3.173   6.717 -1.8124  1.3093  0.7560
14751SOL    HW245674   2.612   3.232   6.793 -0.1919 -0.3784 -0.3636
14752SOL     OW45675   4.305   7.597   4.099  0.2484 -0.5193  0.6514
14752SOL    HW145676   4.366   7.523   4.095 -1.4688 -1.9451 -1.7808
14752SOL    HW245677   4.359   7.671   4.125  2.6768 -2.0439  0.2745
14753SOL     OW45678   8.260   5.895   6.649 -0.0512  0.4376 -0.2330
14753SOL    HW145679   8.301   5.810   6.661  0.2854  0.4700 -1.0530
14753SOL    HW245680   8.253   5.905   6.554  0.1026  1.4085 -0.1588
14754SOL     OW45681   4.338   1.158   5.030 -0.1628  0.3734  0.2433
14754SOL    HW145682   4.246   1.184   5.034  0.0756  1.3364 -0.1115
14754SOL    HW245683   4.377   1.197   5.109 -0.2085 -0.6826  0.7941
14755SOL     OW45684   1.597   4.212   0.240  0.0872  0.0809  0.0549
14755SOL    HW145685   1.682   4.245   0.208  0.4360 -0.5292  0.3460
14755SOL    HW245686   1.589   4.126   0.200  0.5542 -0.7269  1.6400
14756SOL     OW45687   6.618   6.046   0.264 -0.2528  0.2544  0.7053
14756SOL    HW145688   6.613   5.951   0.252 -0.9741  0.4886 -1.2988
14756SOL    HW245689   6.527   6.072   0.279 -0.3930  0.8360 -0.9816
14757SOL     OW45690   5.425   0.940   0.877 -0.0824  0.5638  0.1533
14757SOL    HW145691   5.404   0.952   0.969  0.5102  0.2121  0.3345
14757SOL    HW245692   5.428   1.028   0.841  1.8394  0.8626  0.9465
14758SOL     OW45693   5.119   3.760   7.265  0.0711  0.7366  0.6307
14758SOL    HW145694   5.159   3.701   7.202  0.3346  1.6447 -0.0722
14758SOL    HW245695   5.025   3.743   7.259  0.2000 -0.2024  1.0591
14759SOL     OW45696   3.372   5.263   4.643 -0.3747 -0.2107  0.3912
14759SOL    HW145697   3.341   5.347   4.678 -1.4427 -1.3997  2.4909
14759SOL    HW245698   3.432   5.230   4.710  2.5120  0.1898 -1.8043
14760SOL     OW45699   5.936   7.708   4.497 -0.5234  0.0259 -0.0355
14760SOL    HW145700   5.856   7.674   4.536  1.4940 -1.6460  3.1390
14760SOL    HW245701   5.976   7.632   4.453 -0.1829  0.5925 -0.7397
14761SOL     OW45702   0.058   4.008   2.601  0.0536  0.0107 -0.2879
14761SOL    HW145703   0.103   4.076   2.652  1.3990 -0.2556 -1.0706
14761SOL    HW245704   0.110   4.000   2.521 -1.6646 -0.0100 -1.4555
14762SOL     OW45705   5.609   5.544   4.401  0.0298  0.1882  0.5734
14762SOL    HW145706   5.658   5.609   4.451 -0.5547  0.0947  1.2873
14762SOL    HW245707   5.583   5.589   4.321 -0.6810  0.9577  1.2228
14763SOL     OW45708   3.232   6.701   8.233  0.2894  0.3279  0.3439
14763SOL    HW145709   3.261   6.610   8.230  1.0626  0.5752  0.1519
14763SOL    HW245710   3.167   6.703   8.303  1.1984 -0.1105  1.2167
14764SOL     OW45711   5.181   3.914   7.985  0.2071  0.3968 -0.1457
14764SOL    HW145712   5.190   3.892   8.078 -1.4512  1.1991  0.2343
14764SOL    HW245713   5.218   3.839   7.939  0.4327 -0.3209  1.1535
14765SOL     OW45714   3.248   7.200   6.734 -0.7042  0.2054 -0.4931
14765SOL    HW145715   3.232   7.289   6.765  1.2375  0.8203 -1.1400
14765SOL    HW245716   3.210   7.198   6.646 -1.2911  0.1824 -0.2445
14766SOL     OW45717   3.598   1.123   2.304  0.3099  0.2849  0.3375
14766SOL    HW145718   3.656   1.099   2.232 -0.5605 -2.1481  0.3469
14766SOL    HW245719   3.511   1.129   2.264 -0.0305 -0.1174  0.9929
14767SOL     OW45720   5.274   4.152   5.079  0.1372  0.4985 -0.3350
14767SOL    HW145721   5.240   4.235   5.045 -0.4598 -0.2531 -1.6818
14767SOL    HW245722   5.291   4.099   5.001 -1.2060 -1.2957  0.5044
14768SOL     OW45723   5.720   3.563   6.139  0.1302 -0.3956 -0.0053
14768SOL    HW145724   5.692   3.568   6.230 -0.7509 -0.8493 -0.2375
14768SOL    HW245725   5.770   3.643   6.125  3.9065 -2.1513  2.0453
14769SOL     OW45726   4.880   1.210   0.771 -0.4783 -0.1466 -0.5484
14769SOL    HW145727   4.956   1.198   0.715  0.3245 -2.4094  0.8461
14769SOL    HW245728   4.863   1.304   0.770  0.6195  0.0929 -3.0392
14770SOL     OW45729   8.347   7.695   7.167 -0.1544  0.0686 -1.1738
14770SOL    HW145730   8.359   7.777   7.216 -1.3198 -0.1513 -0.4978
14770SOL    HW245731   8.302   7.721   7.087 -4.8383 -0.3462  1.0304
14771SOL     OW45732   4.669   1.252   4.523  0.3589  0.2021 -0.2384
14771SOL    HW145733   4.676   1.308   4.601  0.7741  1.4142 -1.1097
14771SOL    HW245734   4.628   1.308   4.457 -0.3056 -0.9191 -0.8031
14772SOL     OW45735   7.067   3.459   1.393 -0.4322 -0.3198  0.3454
14772SOL    HW145736   7.115   3.540   1.379  1.8628 -1.1761  2.4563
14772SOL    HW245737   7.037   3.433   1.306  2.1064  0.8218 -0.9685
14773SOL     OW45738   5.143   4.405   4.520 -0.2225  0.0560 -0.4431
14773SOL    HW145739   5.184   4.464   4.457  1.3742  0.0553  0.5256
14773SOL    HW245740   5.060   4.381   4.480 -0.6142  2.3788 -1.2010
14774SOL     OW45741   1.648   7.911   0.006 -0.0168  0.3035  0.5212
14774SOL    HW145742   1.564   7.940  -0.030 -0.7850 -2.0371  0.2762
14774SOL    HW245743   1.698   7.879  -0.069  0.1552 -0.4681  0.9505
14775SOL     OW45744   3.240   1.165   2.452 -0.7206 -0.5909 -0.6185
14775SOL    HW145745   3.281   1.168   2.365 -2.4019 -0.0125 -1.4396
14775SOL    HW245746   3.188   1.085   2.451  2.4528 -2.9639  1.5020
14776SOL     OW45747   3.090   2.176   3.228 -0.1009 -0.1293 -0.3974
14776SOL    HW145748   3.072   2.165   3.322  3.0960  0.0499  0.3728
14776SOL    HW245749   3.070   2.091   3.189 -1.0710 -0.3334  0.5103
14777SOL     OW45750   1.189   7.028   5.805  0.1171  0.2485  0.2723
14777SOL    HW145751   1.096   7.031   5.823  0.1285 -0.8118  0.5735
14777SOL    HW245752   1.231   7.033   5.892  0.3517  0.7236  0.1408
14778SOL     OW45753   6.910   7.565   7.219  0.6752 -0.1243 -0.6248
14778SOL    HW145754   6.985   7.512   7.246  1.2598  0.5318 -0.9044
14778SOL    HW245755   6.919   7.572   7.124  1.0575  1.0956 -0.5223
14779SOL     OW45756   2.489   6.995   4.962 -0.5266 -0.2015 -0.1621
14779SOL    HW145757   2.571   7.003   4.914 -1.1108  1.7817 -0.9405
14779SOL    HW245758   2.477   7.081   5.003 -1.3574 -1.0085  1.4012
14780SOL     OW45759   2.146   8.012   4.490  0.0667 -0.0623  0.0674
14780SOL    HW145760   2.153   8.108   4.495 -1.1956 -0.0158  2.6724
14780SOL    HW245761   2.168   7.982   4.578 -0.3679 -2.1103 -0.4744
14781SOL     OW45762   0.341   0.728   7.430 -0.1534  0.9136  0.3518
14781SOL    HW145763   0.339   0.634   7.443 -0.0270  1.1478  2.3981
14781SOL    HW245764   0.431   0.754   7.450 -0.2906  1.5078  0.2328
14782SOL     OW45765   2.914   2.975   3.439  0.5783  0.2939  0.3868
14782SOL    HW145766   2.937   2.896   3.489 -1.5497 -0.4691  0.2847
14782SOL    HW245767   2.925   3.046   3.502 -2.0961 -0.6496  2.1177
14783SOL     OW45768   6.233   5.759   1.894  0.5496 -0.2052  0.8988
14783SOL    HW145769   6.261   5.811   1.818  0.8280 -1.5977  0.0168
14783SOL    HW245770   6.311   5.754   1.949  0.4104  0.6171  1.1959
14784SOL     OW45771   5.076   1.159   7.842  0.4019  0.1313  0.7763
14784SOL    HW145772   5.164   1.192   7.860  0.7068  0.3683 -1.0331
14784SOL    HW245773   5.086   1.064   7.842  0.5583  0.1463  1.0250
14785SOL     OW45774   4.285   2.072   4.857  0.1866  0.0179 -0.1035
14785SOL    HW145775   4.241   2.158   4.853  0.3313  0.1503  0.8680
14785SOL    HW245776   4.254   2.033   4.939  0.7372 -0.5212 -0.1437
14786SOL     OW45777   6.038   5.393   1.568  0.1457  0.1107 -0.0754
14786SOL    HW145778   5.981   5.335   1.617 -1.6197  1.7092 -0.1126
14786SOL    HW245779   6.014   5.378   1.476  2.1931 -1.5984 -0.3960
14787SOL     OW45780   2.206   4.323   3.664  0.0226  0.4706 -0.5119
14787SOL    HW145781   2.289   4.306   3.619  0.6674  0.0819  0.7706
14787SOL    HW245782   2.188   4.243   3.713 -0.3386  1.0675  0.3724
14788SOL     OW45783   5.366   4.268   3.416 -0.4331  0.7398  0.0181
14788SOL    HW145784   5.410   4.344   3.379 -1.1507  1.1178 -0.0663
14788SOL    HW245785   5.325   4.224   3.341  1.8531 -1.0351 -0.3024
14789SOL     OW45786   1.555   6.131   4.213 -0.6611  0.2967  0.0783
14789SOL    HW145787   1.593   6.071   4.149  0.3174 -2.0407  2.6410
14789SOL    HW245788   1.630   6.174   4.254 -1.3189  2.8743 -1.1854
14790SOL     OW45789   8.213   3.889   7.569  0.3578  0.6514 -0.1426
14790SOL    HW145790   8.230   3.869   7.661 -0.9484  1.1913  0.2424
14790SOL    HW245791   8.125   3.926   7.569 -0.0884 -0.3530 -1.7643
14791SOL     OW45792   2.047   1.883   4.703 -0.5806 -0.2883  0.7556
14791SOL    HW145793   2.035   1.895   4.797  0.9891 -0.2784  0.9794
14791SOL    HW245794   2.066   1.971   4.670 -2.4978 -0.0494  0.1694
14792SOL     OW45795   3.304   6.895   7.965 -0.4915  0.2017 -0.2063
14792SOL    HW145796   3.312   6.830   8.034  0.1884 -0.4225 -0.8580
14792SOL    HW245797   3.326   6.848   7.884  1.7686  1.6162 -0.5074
14793SOL     OW45798   8.074   4.783   0.809  0.5452  0.2619 -0.0493
14793SOL    HW145799   7.998   4.728   0.831 -0.3299  1.3001 -0.3831
14793SOL    HW245800   8.056   4.866   0.852  2.3008  0.0484  1.2367
14794SOL     OW45801   1.399   6.836   1.669 -0.5352 -0.7644  0.4122
14794SOL    HW145802   1.435   6.771   1.608  0.4434 -0.1174  0.2896
14794SOL    HW245803   1.304   6.829   1.657 -0.3708  0.1199 -2.0435
14795SOL     OW45804   5.442   6.344   2.443  0.4725 -0.0885  0.7834
14795SOL    HW145805   5.381   6.294   2.390  1.2197  0.9612 -1.1624
14795SOL    HW245806   5.433   6.308   2.531 -2.3568 -0.4642  0.4066
14796SOL     OW45807   1.911   2.412   4.507  0.2180  0.2140 -0.2805
14796SOL    HW145808   1.972   2.406   4.434  1.7883  2.8462  0.6656
14796SOL    HW245809   1.848   2.480   4.480  0.2302  0.5089  0.4013
14797SOL     OW45810   4.189   2.328   6.196 -0.7226  0.3765  0.0548
14797SOL    HW145811   4.232   2.396   6.249  0.1718 -0.6327  0.6645
14797SOL    HW245812   4.147   2.271   6.260 -1.2342  0.1895 -0.4424
14798SOL     OW45813   6.282   7.988   3.823 -0.3079 -1.1624 -0.0847
14798SOL    HW145814   6.251   8.009   3.735  1.6207 -1.6804 -0.9372
14798SOL    HW245815   6.240   7.904   3.844 -0.0559 -1.4952 -0.8939
14799SOL     OW45816   0.395   7.975   5.819 -0.0299 -0.0978 -0.5430
14799SOL    HW145817   0.308   7.972   5.859 -1.1611 -1.5740 -2.8618
14799SOL    HW245818   0.412   8.068   5.805  0.2215  0.4409  2.7299
14800SOL     OW45819   5.377   6.751   0.783  0.3376 -0.0636  0.1704
14800SOL    HW145820   5.414   6.672   0.822 -0.2424 -0.5868 -0.3055
14800SOL    HW245821   5.386   6.738   0.688 -1.5601 -0.5006  0.0060
14801SOL     OW45822   1.679   6.380   2.774 -0.0838 -0.1422 -0.0313
14801SOL    HW145823   1.612   6.423   2.827  1.0601  1.2461  0.3530
14801SOL    HW245824   1.645   6.382   2.685 -1.0323 -0.4738  0.3114
14802SOL     OW45825   4.241   1.658   3.742  0.3218  0.2852 -0.2164
14802SOL    HW145826   4.332   1.683   3.760  0.4692 -0.5978  0.3190
14802SOL    HW245827   4.223   1.696   3.656  1.3514  0.0923 -0.5389
14803SOL     OW45828   2.808   2.830   4.915  0.1553  0.5364  0.0361
14803SOL    HW145829   2.783   2.806   5.004  2.5125 -2.5350  0.0357
14803SOL    HW245830   2.725   2.844   4.869 -1.3247 -2.0533  1.6949
14804SOL     OW45831   1.772   7.146   0.937 -0.1579 -0.8229 -0.4399
14804SOL    HW145832   1.720   7.155   1.017 -0.0457  0.6096 -0.5011
14804SOL    HW245833   1.712   7.108   0.873 -1.0177  0.3341 -0.3596
14805SOL     OW45834   7.135   0.618   3.587  0.1639 -0.2607  0.1732
14805SOL    HW145835   7.228   0.623   3.566  0.1107 -1.9000 -0.5812
14805SOL    HW245836   7.114   0.704   3.623  1.4504  0.8847 -1.6783
14806SOL     OW45837   6.995   2.528   8.355  0.2963  0.0072 -0.2349
14806SOL    HW145838   6.908   2.566   8.368 -0.6697 -2.2776  0.3662
14806SOL    HW245839   7.009   2.532   8.261 -0.1866  0.9329 -0.2797
14807SOL     OW45840   3.823   2.872   7.849 -0.0640  0.1239 -0.4779
14807SOL    HW145841   3.841   2.832   7.764 -0.7268  0.6302 -0.8655
14807SOL    HW245842   3.897   2.846   7.904  0.7688  0.4305 -1.4299
14808SOL     OW45843   2.267   1.012   6.517  0.1599  0.6243  0.3815
14808SOL    HW145844   2.269   1.003   6.422 -1.7402 -0.4501  0.3838
14808SOL    HW245845   2.287   1.105   6.533  3.2043  0.2843 -0.8336
14809SOL     OW45846   6.183   2.883   3.248  0.4990  0.2684  1.0137
14809SOL    HW145847   6.274   2.912   3.253  1.4812 -2.4399  0.8568
14809SOL    HW245848   6.189   2.792   3.218 -2.3655  0.4276 -0.3524
14810SOL     OW45849   2.273   4.276   7.129  0.5080 -0.1242 -0.0585
14810SOL    HW145850   2.369   4.277   7.131  0.5229 -0.7526 -0.2113
14810SOL    HW245851   2.250   4.183   7.137 -0.1223  0.1375  1.6290
14811SOL     OW45852   6.446   1.681   6.547 -0.0276 -0.2066  0.1816
14811SOL    HW145853   6.496   1.750   6.590  0.7469 -0.3101 -0.5100
14811SOL    HW245854   6.419   1.721   6.464  1.1103 -0.9647 -0.5815
14812SOL     OW45855   7.246   2.733   7.835  0.1475 -0.1136 -0.1297
14812SOL    HW145856   7.235   2.712   7.742  1.0340  0.3974 -0.3619
14812SOL    HW245857   7.338   2.712   7.854 -0.3176 -1.2996  0.9300
14813SOL     OW45858   7.836   0.382   2.255 -0.3617 -0.6686  0.5959
14813SOL    HW145859   7.818   0.388   2.161 -1.3069 -1.0073  0.7371
14813SOL    HW245860   7.902   0.449   2.272  0.0610 -0.8257 -0.3640
14814SOL     OW45861   7.853   6.541   3.665 -0.2447  0.4281  0.2515
14814SOL    HW145862   7.805   6.521   3.584  0.2327  1.7236 -0.3774
14814SOL    HW245863   7.821   6.477   3.728 -1.0656 -0.2341 -0.8009
14815SOL     OW45864   3.264   4.763   3.067 -0.0951 -0.2853 -0.0078
14815SOL    HW145865   3.291   4.821   2.996  1.4538 -0.7010  0.2063
14815SOL    HW245866   3.330   4.693   3.067 -0.6948 -0.8760  1.1394
14816SOL     OW45867   4.321   1.696   1.442 -0.4915 -0.1266  0.2412
14816SOL    HW145868   4.414   1.721   1.445 -0.1231 -1.1601 -1.2579
14816SOL    HW245869   4.290   1.707   1.532  1.8387 -2.5381  1.4586
14817SOL     OW45870   5.956   3.189   1.329 -0.1433  0.0535 -0.1857
14817SOL    HW145871   6.036   3.146   1.359  0.7389  1.7852  0.0893
14817SOL    HW245872   5.956   3.274   1.374 -2.5200 -0.1802  0.3601
14818SOL     OW45873   8.084   7.720   0.465  0.5546 -0.0446  0.7618
14818SOL    HW145874   8.158   7.780   0.467  1.2579 -0.8449 -0.5230
14818SOL    HW245875   8.007   7.777   0.469  1.2098  0.8494  1.0058
14819SOL     OW45876   2.656   2.294   6.985 -0.3852 -0.4673 -0.2647
14819SOL    HW145877   2.701   2.336   7.058  2.5544  1.6178 -2.9529
14819SOL    HW245878   2.713   2.220   6.961 -0.8493 -0.6292 -0.8992
14820SOL     OW45879   3.128   0.670   6.807  0.3913  0.5760  0.5223
14820SOL    HW145880   3.176   0.589   6.793  0.0699  0.5028 -0.1983
14820SOL    HW245881   3.046   0.658   6.760  0.2469  1.2310  0.5987
14821SOL     OW45882   2.278   3.797   1.255  0.0376  0.1087  0.1354
14821SOL    HW145883   2.228   3.772   1.333 -0.0611 -1.5182 -0.3976
14821SOL    HW245884   2.252   3.887   1.237 -0.5085  0.2514  1.5439
14822SOL     OW45885   5.007   3.817   3.148 -0.4699 -0.6198 -1.1055
14822SOL    HW145886   5.024   3.770   3.230 -0.3911  0.4729 -0.4710
14822SOL    HW245887   4.950   3.889   3.174  1.8025  1.4502 -1.4308
14823SOL     OW45888   1.501   8.217   3.359  0.3858 -0.3016  0.3094
14823SOL    HW145889   1.578   8.218   3.302 -0.7228 -0.4404 -1.2826
14823SOL    HW245890   1.461   8.131   3.344 -2.5290  1.3042 -2.5156
14824SOL     OW45891   3.742   7.391   2.061 -0.3497 -0.0685  0.1716
14824SOL    HW145892   3.779   7.306   2.088 -0.8400 -0.5277 -0.5663
14824SOL    HW245893   3.681   7.369   1.991  0.2944  1.0218 -0.7581
14825SOL     OW45894   7.246   7.003   6.535  0.3144 -0.5595  0.1338
14825SOL    HW145895   7.282   7.057   6.464  0.0130  0.0417  0.4262
14825SOL    HW245896   7.319   6.992   6.596  0.6044 -1.1710 -0.3184
14826SOL     OW45897   4.324   1.581   7.882  0.1667  0.4426  0.8803
14826SOL    HW145898   4.271   1.658   7.864  1.4559  1.2826  0.4897
14826SOL    HW245899   4.309   1.523   7.807 -0.8840  0.2598  1.2248
14827SOL     OW45900   4.402   6.826   1.354 -0.9174  0.3405  0.1556
14827SOL    HW145901   4.359   6.910   1.370 -1.0334  0.0507  1.4186
14827SOL    HW245902   4.488   6.834   1.396 -1.8893 -1.0470  2.6066
14828SOL     OW45903   4.886   6.677   2.609 -0.0683 -0.5044  0.1592
14828SOL    HW145904   4.968   6.634   2.587  0.9356 -0.5959  3.4729
14828SOL    HW245905   4.902   6.770   2.594 -0.0085 -0.6789 -0.9059
14829SOL     OW45906   2.426   1.797   8.351 -0.0897  0.3267  0.2554
14829SOL    HW145907   2.509   1.830   8.388  0.2568 -0.8608  0.5858
14829SOL    HW245908   2.359   1.855   8.388  0.4247  0.2046  1.4422
14830SOL     OW45909   1.797   6.033   7.601  0.2748 -0.5914  0.1571
14830SOL    HW145910   1.767   6.091   7.531 -1.9060 -2.2828 -0.4143
14830SOL    HW245911   1.890   6.055   7.611  0.0669  1.4300 -1.5230
14831SOL     OW45912   7.844   1.320   8.156  0.1990 -0.1960 -0.8785
14831SOL    HW145913   7.794   1.356   8.082 -0.2366 -3.1986 -2.2060
14831SOL    HW245914   7.935   1.328   8.130  0.2504  1.5805 -0.2797
14832SOL     OW45915   5.327   8.332   5.167  0.2385 -0.1350 -0.5058
14832SOL    HW145916   5.237   8.311   5.189  0.8471 -2.2659  0.1956
14832SOL    HW245917   5.357   8.259   5.112  1.4987  0.5854 -0.8292
14833SOL     OW45918   1.359   5.325   2.766 -0.7654  0.4295 -0.4462
14833SOL    HW145919   1.408   5.281   2.835 -1.2381 -0.1602 -0.4743
14833SOL    HW245920   1.410   5.404   2.747  1.4331 -1.2287 -2.0305
14834SOL     OW45921   1.038   1.591   7.929 -0.4752 -0.7402  0.5133
14834SOL    HW145922   1.084   1.613   7.848  0.5449 -0.4141  1.1660
14834SOL    HW245923   1.107   1.563   7.989 -1.0610  0.1431  1.6449
14835SOL     OW45924   5.750   1.856   5.136 -0.0560  0.5114  0.1963
14835SOL    HW145925   5.665   1.814   5.140 -0.3390  1.0705  0.0785
14835SOL    HW245926   5.812   1.783   5.131 -0.4130  0.0482  1.9492
14836SOL     OW45927   2.706   1.899   5.404 -0.0348  1.2626 -0.2511
14836SOL    HW145928   2.618   1.911   5.438  0.0365  1.9049 -0.2727
14836SOL    HW245929   2.695   1.845   5.326 -0.0236 -1.8082  1.6972
14837SOL     OW45930   1.745   3.941   3.912  0.2948  0.1025  0.0765
14837SOL    HW145931   1.698   4.001   3.855  1.7565 -0.7210 -2.1249
14837SOL    HW245932   1.677   3.894   3.961 -0.9905  1.0708 -0.7403
14838SOL     OW45933   5.763   6.484   0.392  0.0318 -0.4860  0.4413
14838SOL    HW145934   5.704   6.414   0.420  0.6434 -0.7219  1.1681
14838SOL    HW245935   5.771   6.540   0.468  0.7404 -0.4549  0.3485
14839SOL     OW45936   7.230   2.722   6.947  0.4924  0.2390  0.4822
14839SOL    HW145937   7.146   2.688   6.918  0.1292  0.2669  1.4993
14839SOL    HW245938   7.227   2.816   6.926 -0.0999  0.4205  1.3805
14840SOL     OW45939   3.846   3.901   3.764  0.5941  0.1378 -0.0079
14840SOL    HW145940   3.756   3.894   3.795  0.6199  0.0716  0.0511
14840SOL    HW245941   3.856   3.994   3.742  0.5210  0.1512  0.0134
14841SOL     OW45942   7.585   5.875   2.387 -0.2336  0.1048 -0.2500
14841SOL    HW145943   7.672   5.836   2.386  0.8342  2.3287  0.3268
14841SOL    HW245944   7.528   5.805   2.420  1.5363 -1.0076  0.6108
14842SOL     OW45945   6.599   0.339   0.490 -0.1530  0.2527  0.4091
14842SOL    HW145946   6.683   0.339   0.444 -0.4341  1.2919 -0.1409
14842SOL    HW245947   6.534   0.342   0.420 -0.6858 -1.1196  0.8113
14843SOL     OW45948   0.778   4.910   5.299  0.3274  0.2874 -0.1506
14843SOL    HW145949   0.741   4.862   5.373 -0.7022  0.5450 -0.4946
14843SOL    HW245950   0.861   4.945   5.333 -0.1980  0.5254  0.9306
14844SOL     OW45951   8.247   4.609   5.863  0.0026 -0.3062 -0.0696
14844SOL    HW145952   8.275   4.677   5.924  2.5736  0.3039 -1.7579
14844SOL    HW245953   8.189   4.654   5.801 -0.7847 -0.4114  0.5732
14845SOL     OW45954   1.599   0.787   5.330  0.7300 -0.0626  0.4107
14845SOL    HW145955   1.626   0.871   5.369 -1.7140  0.2778  1.5634
14845SOL    HW245956   1.540   0.812   5.259  0.2955 -0.7978  0.5101
14846SOL     OW45957   6.191   8.288   1.435  0.1857  0.0481  0.0255
14846SOL    HW145958   6.193   8.193   1.424 -1.3032 -0.2824  2.0089
14846SOL    HW245959   6.226   8.322   1.353  2.6628 -2.2078  0.0097
14847SOL     OW45960   4.178   8.296   4.039 -0.2962  0.0754 -0.6468
14847SOL    HW145961   4.151   8.263   3.953  1.5354 -3.7119  0.0164
14847SOL    HW245962   4.205   8.386   4.023  1.2149 -0.8639 -4.3912
14848SOL     OW45963   5.454   1.867   8.127  0.3350  0.2523  0.1014
14848SOL    HW145964   5.532   1.919   8.104  0.9428 -0.9425 -0.6907
14848SOL    HW245965   5.384   1.904   8.073  0.7274  0.3267 -0.3642
14849SOL     OW45966   5.527   3.335   4.567 -0.0518 -0.0967 -0.8875
14849SOL    HW145967   5.595   3.275   4.594  0.4093  0.3202 -1.1051
14849SOL    HW245968   5.458   3.279   4.530 -1.4031 -0.8595  2.4282
14850SOL     OW45969   7.206   2.618   6.034 -0.5427  0.1658 -0.3309
14850SOL    HW145970   7.256   2.582   6.107 -0.9151  0.1867 -0.0631
14850SOL    HW245971   7.271   2.635   5.966 -0.2761 -0.4375 -0.2354
14851SOL     OW45972   1.178   1.405   4.236  0.0145 -0.3846 -0.1261
14851SOL    HW145973   1.168   1.350   4.314  1.0908 -2.0606 -1.1189
14851SOL    HW245974   1.196   1.492   4.271 -1.2369 -0.7263  1.4909
14852SOL     OW45975   2.816   5.803   5.978  0.0380  0.2018  0.2430
14852SOL    HW145976   2.870   5.873   6.015 -0.3221 -0.4593  2.1607
14852SOL    HW245977   2.877   5.747   5.930  0.4224  1.4727 -0.8027
14853SOL     OW45978   5.660   3.654   5.815 -0.0722 -0.5126  0.2059
14853SOL    HW145979   5.732   3.593   5.833  1.5535  0.9492 -0.9439
14853SOL    HW245980   5.674   3.680   5.724 -1.7790  0.2198  0.1270
14854SOL     OW45981   6.139   8.068   6.463 -0.1486 -0.4851  0.3637
14854SOL    HW145982   6.057   8.043   6.419 -0.7548 -0.1327  1.2673
14854SOL    HW245983   6.199   7.997   6.443 -1.1857 -1.5929  1.0745
14855SOL     OW45984   2.807   1.853   2.120 -0.1663 -0.4454  0.3088
14855SOL    HW145985   2.897   1.855   2.153  0.0668  1.4769 -0.3308
14855SOL    HW245986   2.816   1.855   2.025 -0.8632  0.9752  0.2485
14856SOL     OW45987   5.189   6.499   2.258  0.1960 -0.0107  0.3451
14856SOL    HW145988   5.102   6.459   2.266 -0.1972  0.9575  1.1082
14856SOL    HW245989   5.246   6.427   2.230 -1.3137 -0.0920 -2.9182
14857SOL     OW45990   4.423   5.020   6.812  0.7829 -0.0438  0.0082
14857SOL    HW145991   4.329   5.035   6.820  0.7620  0.7541 -1.3575
14857SOL    HW245992   4.434   4.927   6.829 -0.4562 -0.4296 -1.1099
14858SOL     OW45993   1.744   4.333   4.905 -0.2549 -0.6780 -0.1974
14858SOL    HW145994   1.786   4.418   4.901 -0.4688 -0.6087 -1.4512
14858SOL    HW245995   1.652   4.352   4.924 -0.1344 -0.6876  0.3947
14859SOL     OW45996   6.155   0.922   7.018 -0.4180  0.4236 -0.5220
14859SOL    HW145997   6.225   0.977   7.054 -1.4883  0.7151  1.2099
14859SOL    HW245998   6.198   0.839   6.999  0.5082  0.7420  0.0698
14860SOL     OW45999   5.704   2.252   5.628  0.0024  0.0792  0.0478
14860SOL    HW146000   5.720   2.330   5.576 -1.4279  2.1894  2.5190
14860SOL    HW246001   5.782   2.199   5.617 -0.0993  0.4773 -3.8990
14861SOL     OW46002   7.192   3.620   1.814  0.0355 -0.5521 -0.4583
14861SOL    HW146003   7.218   3.698   1.863 -5.6163  1.5161 -0.0610
14861SOL    HW246004   7.181   3.652   1.724 -1.1336 -1.1730 -0.5477
14862SOL     OW46005   3.262   3.277   8.246 -0.5051  0.2532 -0.4271
14862SOL    HW146006   3.274   3.225   8.325 -4.2805  1.5900  1.2824
14862SOL    HW246007   3.343   3.327   8.237  0.4374 -0.6810  1.9801
14863SOL     OW46008   3.456   8.220   6.074 -0.5126  0.3850 -0.1348
14863SOL    HW146009   3.378   8.275   6.063 -0.4120  0.6828  0.5590
14863SOL    HW246010   3.529   8.281   6.063 -0.3851  0.2012 -0.3078
14864SOL     OW46011   7.413   8.047   2.249 -0.2737  0.2204  0.6119
14864SOL    HW146012   7.482   7.982   2.240  0.8419  1.4101  0.2106
14864SOL    HW246013   7.387   8.067   2.159 -0.4642  0.4688  0.7197
14865SOL     OW46014   3.268   1.704   7.580  0.7275 -0.5661 -0.0881
14865SOL    HW146015   3.307   1.761   7.646  2.0755 -1.1999 -0.3032
14865SOL    HW246016   3.224   1.764   7.519  0.4105  0.0897  0.7700
14866SOL     OW46017   1.863   4.959   2.917 -0.3569 -0.0965  0.0153
14866SOL    HW146018   1.851   5.048   2.950  1.7537 -0.0140  0.7587
14866SOL    HW246019   1.797   4.907   2.961 -1.2070  0.9869  0.0579
14867SOL     OW46020   5.377   5.718   5.146 -0.1673 -0.1161  0.5013
14867SOL    HW146021   5.307   5.740   5.085 -1.6355 -0.8918  1.8577
14867SOL    HW246022   5.455   5.711   5.091 -0.4011  3.9556 -0.6419
14868SOL     OW46023   2.855   2.257   1.531  0.3832 -0.1813 -0.0600
14868SOL    HW146024   2.936   2.212   1.509  0.6356 -0.7843  1.8518
14868SOL    HW246025   2.791   2.226   1.468  1.0845 -1.5614 -0.1160
14869SOL     OW46026   2.159   3.268   4.298  0.1980  0.0595  0.2456
14869SOL    HW146027   2.253   3.258   4.280 -0.1236 -2.2613 -0.5391
14869SOL    HW246028   2.134   3.184   4.336 -1.8068  0.1382 -0.7823
14870SOL     OW46029   3.518   5.809   8.296 -0.3458 -0.4101  0.0557
14870SOL    HW146030   3.556   5.724   8.275  0.7438 -0.0058  0.3607
14870SOL    HW246031   3.587   5.856   8.342 -1.6273 -0.1373  1.8081
14871SOL     OW46032   0.796   1.104   3.249  0.4977  0.2692  0.8298
14871SOL    HW146033   0.712   1.108   3.204  0.5734 -0.3574  0.6217
14871SOL    HW246034   0.772   1.097   3.342  0.2685 -1.2073  0.6958
14872SOL     OW46035   3.390   7.336   6.206 -0.8385  0.7403 -0.1505
14872SOL    HW146036   3.410   7.297   6.291  2.6178  2.5646  0.0302
14872SOL    HW246037   3.384   7.430   6.224 -0.3431  1.1315 -1.8780
14873SOL     OW46038   3.932   5.127   4.006 -0.1944  0.4953 -0.1704
14873SOL    HW146039   3.898   5.074   3.934  0.8663  0.3459 -0.5750
14873SOL    HW246040   3.994   5.187   3.964  1.7231 -0.7275  0.8210
14874SOL     OW46041   2.864   0.951   6.267 -0.1284 -0.6750 -0.5221
14874SOL    HW146042   2.880   0.908   6.183 -0.0760  0.8821 -1.3614
14874SOL    HW246043   2.800   1.019   6.246 -0.8401 -0.8702  0.9132
14875SOL     OW46044   4.580   3.644   8.115  0.7154  0.3119  0.3830
14875SOL    HW146045   4.674   3.642   8.099  0.6368 -1.1296  0.0005
14875SOL    HW246046   4.541   3.646   8.028  0.3627  3.3847  0.5063
14876SOL     OW46047   6.032   3.974   1.693 -0.5705  0.1628  0.1783
14876SOL    HW146048   6.126   3.979   1.712 -0.6526  1.6715  0.3205
14876SOL    HW246049   6.012   4.056   1.649 -2.0917  0.4754  1.3766
14877SOL     OW46050   0.060   5.855   5.169 -0.0914 -0.6605 -0.6398
14877SOL    HW146051   0.083   5.902   5.249 -0.9759  0.2137 -0.8839
14877SOL    HW246052   0.091   5.765   5.184  2.2961  0.1307 -0.4662
14878SOL     OW46053   4.387   0.634   3.718 -0.1681 -0.1412 -0.2376
14878SOL    HW146054   4.429   0.720   3.714  0.0425 -0.2131  0.2866
14878SOL    HW246055   4.321   0.643   3.786 -0.3735 -0.2989 -0.4150
14879SOL     OW46056   1.102   1.658   8.294  0.4793  0.5994  0.6603
14879SOL    HW146057   1.128   1.702   8.375  1.4148 -0.7347  1.1210
14879SOL    HW246058   1.181   1.611   8.266 -0.1341  0.2107 -0.4650
14880SOL     OW46059   4.915   6.713   6.160  0.3896  0.0217 -0.0171
14880SOL    HW146060   4.955   6.771   6.095 -0.2910 -0.6228 -1.0323
14880SOL    HW246061   4.877   6.642   6.109 -0.4685 -0.3263  1.0670
14881SOL     OW46062   4.975   2.014   0.852  0.7232 -0.8221  0.0780
14881SOL    HW146063   4.996   1.937   0.800  2.5139 -0.4158  0.1579
14881SOL    HW246064   5.021   2.086   0.808 -1.6540  0.4237 -0.5507
14882SOL     OW46065   6.994   5.139   7.432  0.8613 -0.3603  0.0392
14882SOL    HW146066   7.067   5.201   7.428  0.3980  0.1671 -0.3720
14882SOL    HW246067   6.924   5.181   7.382  0.2098 -0.7821  0.5840
14883SOL     OW46068   1.777   7.335   7.908  0.3515 -0.1675 -0.2304
14883SOL    HW146069   1.752   7.271   7.841  0.9326 -1.4000  0.6807
14883SOL    HW246070   1.820   7.405   7.859  0.0117 -0.6248 -1.2245
14884SOL     OW46071   5.127   3.660   3.399 -0.1600  0.4400  0.1119
14884SOL    HW146072   5.048   3.626   3.440  1.1650 -2.1348  0.7448
14884SOL    HW246073   5.199   3.630   3.455  1.3283  2.1176 -0.7919
14885SOL     OW46074   6.011   5.451   4.323  0.6001  0.3620  0.3301
14885SOL    HW146075   5.960   5.481   4.248 -1.5412 -0.1387  1.4680
14885SOL    HW246076   6.021   5.357   4.309 -0.0385  0.2187  0.7481
14886SOL     OW46077   5.943   3.913   0.847  0.6192 -0.0046  0.5023
14886SOL    HW146078   5.943   3.927   0.941  2.1608  0.9599  0.3915
14886SOL    HW246079   5.948   4.000   0.809  3.5379 -0.4160 -0.3541
14887SOL     OW46080   1.684   8.196   2.901 -0.0941 -0.4766  0.6591
14887SOL    HW146081   1.711   8.105   2.917  1.5981 -0.3143 -0.8942
14887SOL    HW246082   1.674   8.201   2.806 -0.6873  0.8535  0.7720
14888SOL     OW46083   5.251   8.025   2.611  0.0387  0.5621  0.2139
14888SOL    HW146084   5.188   8.007   2.681  0.6557  2.1093  1.2202
14888SOL    HW246085   5.197   8.047   2.535 -0.6330 -0.5677  0.3432
14889SOL     OW46086   8.186   8.056   3.736  0.1626  0.0318  0.2450
14889SOL    HW146087   8.268   8.090   3.772  0.1108  0.2614  0.1466
14889SOL    HW246088   8.210   8.016   3.653  0.2048 -0.0662  0.3042
14890SOL     OW46089   2.058   5.304   4.161  0.2457  0.0620  0.0384
14890SOL    HW146090   1.976   5.255   4.149  0.9598 -0.6743 -2.2500
14890SOL    HW246091   2.041   5.389   4.122  0.6789 -0.2384 -0.8255
14891SOL     OW46092   2.264   3.476   2.560 -0.2339 -0.4170  0.1751
14891SOL    HW146093   2.193   3.527   2.520 -0.9759 -0.6025  1.2270
14891SOL    HW246094   2.223   3.393   2.582  0.5027 -0.7865  0.1668
14892SOL     OW46095   7.145   7.389   0.160 -0.2307  0.4828 -0.4431
14892SOL    HW146096   7.239   7.401   0.153 -0.1178  0.3890  0.7198
14892SOL    HW246097   7.119   7.354   0.075  0.6365  1.3428 -1.0820
14893SOL     OW46098   2.349   7.125   8.062  0.2040 -0.6661  0.4554
14893SOL    HW146099   2.397   7.174   7.996 -0.1372 -1.0842 -0.1140
14893SOL    HW246100   2.391   7.039   8.064 -0.0018 -0.7661  0.5407
14894SOL     OW46101   3.140   6.891   4.206  0.0201  0.1294  0.5937
14894SOL    HW146102   3.184   6.811   4.235  2.5055  1.4916  0.8080
14894SOL    HW246103   3.202   6.933   4.146 -0.5199  2.6506  1.6600
14895SOL     OW46104   4.033   7.141   2.411 -0.0206 -0.4146  0.3893
14895SOL    HW146105   3.958   7.115   2.358 -0.0611  0.8727 -0.2448
14895SOL    HW246106   4.002   7.216   2.462  0.6629 -0.2251  0.5430
14896SOL     OW46107   2.129   0.338   0.911 -0.0303  0.4358 -0.2153
14896SOL    HW146108   2.083   0.262   0.947  0.4771  0.6677  0.9812
14896SOL    HW246109   2.064   0.383   0.858 -0.5616 -0.4014 -0.2954
14897SOL     OW46110   0.325   1.108   2.162  0.5058  0.1173 -0.2321
14897SOL    HW146111   0.340   1.052   2.238  2.4646 -0.6593 -1.1393
14897SOL    HW246112   0.231   1.127   2.165  0.5713  0.4436  2.5643
14898SOL     OW46113   1.244   0.196   7.597 -0.1087  0.6002 -0.0167
14898SOL    HW146114   1.285   0.153   7.672 -1.5480 -0.0955  0.4040
14898SOL    HW246115   1.151   0.176   7.606 -0.4269  1.3190 -1.4708
14899SOL     OW46116   5.963   6.083   4.520  1.1356 -0.1996 -0.0411
14899SOL    HW146117   5.961   5.988   4.518  1.7962 -0.2292  0.3691
14899SOL    HW246118   5.975   6.106   4.612 -1.5613  0.3722  0.2356
14900SOL     OW46119   8.306   5.485   2.775 -0.3781 -0.7222 -0.2749
14900SOL    HW146120   8.251   5.436   2.715 -2.2131  0.4828  0.3188
14900SOL    HW246121   8.333   5.421   2.841 -0.2724 -1.5428 -1.1021
14901SOL     OW46122   7.843   3.498   4.698 -0.2763 -0.6023  0.5267
14901SOL    HW146123   7.795   3.480   4.617  2.0703 -0.7165 -0.9544
14901SOL    HW246124   7.837   3.593   4.709  0.8167 -0.3411 -0.8171
14902SOL     OW46125   0.656   2.422   5.424  0.0607  0.1004  0.2052
14902SOL    HW146126   0.750   2.420   5.439  0.3151  0.3555 -1.1932
14902SOL    HW246127   0.619   2.362   5.490  0.8921  2.0527  2.5806
14903SOL     OW46128   0.186   4.195   2.349  0.3454  0.3783  0.2046
14903SOL    HW146129   0.108   4.250   2.349 -0.7020 -1.0264  1.8661
14903SOL    HW246130   0.241   4.232   2.417  0.7268  0.7746 -0.3055
14904SOL     OW46131   0.460   0.065   6.128 -0.6587 -0.3083  0.7770
14904SOL    HW146132   0.550   0.095   6.115 -0.7333  0.5888  2.1193
14904SOL    HW246133   0.409   0.116   6.065 -0.1753 -1.3924 -0.5587
14905SOL     OW46134   4.823   0.433   7.389 -0.4425 -0.4052  0.2926
14905SOL    HW146135   4.786   0.385   7.463  1.7338 -0.1916  1.6201
14905SOL    HW246136   4.865   0.509   7.429 -0.5486  0.5736 -1.3665
14906SOL     OW46137   4.834   3.953   2.922 -0.4963 -0.4569  0.5545
14906SOL    HW146138   4.814   3.913   2.837  2.1695 -0.4872 -0.1469
14906SOL    HW246139   4.855   3.879   2.979 -0.4149 -0.3337  0.6855
14907SOL     OW46140   3.911   5.429   5.654  0.5978 -0.1522  0.5825
14907SOL    HW146141   3.956   5.504   5.693  3.5279 -1.2996 -0.2534
14907SOL    HW246142   3.981   5.364   5.643 -1.3158 -2.0428 -1.0633
14908SOL     OW46143   4.278   6.804   6.880 -0.0818 -0.0201 -0.0785
14908SOL    HW146144   4.317   6.751   6.949  1.6850  0.7212 -0.4615
14908SOL    HW246145   4.226   6.870   6.927  0.1243 -0.2622  0.4971
14909SOL     OW46146   7.823   3.011   7.474  0.4065  0.2047  0.0606
14909SOL    HW146147   7.793   3.011   7.565  0.8759 -0.1043  0.2185
14909SOL    HW246148   7.766   2.950   7.429  1.0442 -0.7026  0.4490
14910SOL     OW46149   3.355   2.988   2.156  0.0396 -0.0011  0.0694
14910SOL    HW146150   3.388   2.908   2.115  0.7090  0.2564  0.0808
14910SOL    HW246151   3.404   3.058   2.113  1.5342  0.2165  1.9742
14911SOL     OW46152   1.384   0.678   7.819 -0.0771  0.3904 -0.4161
14911SOL    HW146153   1.479   0.666   7.811 -0.2721 -2.1495  0.0380
14911SOL    HW246154   1.364   0.648   7.908 -1.1933  2.0704 -0.0556
14912SOL     OW46155   5.972   2.210   0.526 -0.2823  0.9106  0.2896
14912SOL    HW146156   5.927   2.282   0.482  2.3949  3.2530  1.0730
14912SOL    HW246157   6.012   2.160   0.455 -0.3497  1.5207 -0.1882
14913SOL     OW46158   4.197   7.823   0.844 -0.4460  0.3176 -0.3212
14913SOL    HW146159   4.196   7.918   0.857 -1.7042  0.1594  0.9440
14913SOL    HW246160   4.149   7.788   0.919 -0.7785 -1.2737 -1.2341
14914SOL     OW46161   5.613   1.052   1.667  0.1208  0.7417  0.8183
14914SOL    HW146162   5.533   1.053   1.615  0.6049  0.1485  0.0459
14914SOL    HW246163   5.605   1.128   1.725 -1.1673  0.4714  1.0236
14915SOL     OW46164   3.394   5.626   4.511  0.0072  0.0812  0.2429
14915SOL    HW146165   3.457   5.698   4.515 -0.1552  0.1788  1.0942
14915SOL    HW246166   3.396   5.586   4.598  0.4420 -1.2594 -0.3504
14916SOL     OW46167   7.661   6.934   8.304 -0.0643  0.4267 -0.4962
14916SOL    HW146168   7.622   6.983   8.376  0.3351  0.9074 -0.6022
14916SOL    HW246169   7.586   6.904   8.252 -0.2986  1.4713 -0.7799
14917SOL     OW46170   8.345   6.181   0.525 -0.3985  0.6964  0.3153
14917SOL    HW146171   8.265   6.138   0.497  0.6332 -0.7863 -0.4648
14917SOL    HW246172   8.342   6.177   0.621 -0.5978 -0.6156  0.2661
14918SOL     OW46173   5.376   3.430   3.771  0.0748 -0.0728  0.1520
14918SOL    HW146174   5.301   3.371   3.764  0.3893 -0.5969  1.0756
14918SOL    HW246175   5.424   3.399   3.848  1.2632  0.2285 -0.4495
14919SOL     OW46176   6.383   7.382   7.133  0.4293 -0.3088  0.1558
14919SOL    HW146177   6.401   7.301   7.085  0.1145 -1.4213  1.7941
14919SOL    HW246178   6.457   7.439   7.112  0.0405 -0.5277 -1.9952
14920SOL     OW46179   7.636   3.266   7.921  0.3632 -0.3859 -0.4918
14920SOL    HW146180   7.704   3.275   7.988 -0.5336 -0.6285  0.4643
14920SOL    HW246181   7.569   3.211   7.962 -1.2035  1.2144 -0.7922
14921SOL     OW46182   5.063   1.514   3.558 -0.2115  0.7421 -0.6562
14921SOL    HW146183   5.030   1.467   3.634 -1.6517  0.9216 -1.1358
14921SOL    HW246184   5.155   1.528   3.576 -0.1214 -0.7992  0.2416
14922SOL     OW46185   7.221   3.607   7.881 -0.3170 -0.0081  0.2935
14922SOL    HW146186   7.220   3.690   7.832 -1.0620 -0.2256 -0.0779
14922SOL    HW246187   7.150   3.556   7.842 -0.1105 -0.6738  0.7795
14923SOL     OW46188   0.560   2.618   2.302  0.7096  0.1915 -0.0320
14923SOL    HW146189   0.516   2.626   2.387 -0.5664  1.3168 -0.7611
14923SOL    HW246190   0.499   2.657   2.240  0.7687 -2.2882 -1.7859
14924SOL     OW46191   5.314   1.137   2.184  0.6253  0.5529  0.1749
14924SOL    HW146192   5.304   1.166   2.093 -0.6432 -1.5468 -0.4066
14924SOL    HW246193   5.238   1.082   2.201  0.2658  1.6941  2.8932
14925SOL     OW46194   2.343   2.985   0.248  0.0562  0.0006 -0.1633
14925SOL    HW146195   2.312   3.047   0.182 -0.5458 -1.0060 -0.8502
14925SOL    HW246196   2.314   3.023   0.331  0.5891  1.1445 -0.4760
14926SOL     OW46197   3.200   6.187   0.515 -0.2522  0.0921  0.3838
14926SOL    HW146198   3.186   6.137   0.435  0.2841 -0.1459  0.4298
14926SOL    HW246199   3.116   6.227   0.534 -0.7776 -1.0336  0.5031
14927SOL     OW46200   3.603   4.145   2.487  0.6136  0.0300  0.2732
14927SOL    HW146201   3.679   4.183   2.443  1.3298 -0.4028  1.0883
14927SOL    HW246202   3.539   4.131   2.417  1.7500 -0.7244 -0.6548
14928SOL     OW46203   3.763   3.357   0.706  0.4403  0.5227  0.3388
14928SOL    HW146204   3.668   3.361   0.697  0.5348  0.2516 -1.0973
14928SOL    HW246205   3.792   3.306   0.630  1.7989  1.3733  0.2528
14929SOL     OW46206   5.323   1.812   3.271 -0.1761 -0.3260 -0.3312
14929SOL    HW146207   5.331   1.873   3.198  0.1981  0.4011  0.3021
14929SOL    HW246208   5.395   1.750   3.259 -1.5531 -1.7220 -1.9310
14930SOL     OW46209   2.016   1.040   2.002 -0.0260 -0.0544 -0.0594
14930SOL    HW146210   1.989   1.012   2.089  1.0210  0.4599  0.4460
14930SOL    HW246211   2.052   1.128   2.014 -0.6980  0.4002 -1.1628
14931SOL     OW46212   5.070   6.642   1.839 -0.5928 -0.4308  0.4160
14931SOL    HW146213   5.012   6.609   1.908 -1.3733  0.0247 -0.0173
14931SOL    HW246214   5.012   6.663   1.766  0.0220  0.7666  0.2486
14932SOL     OW46215   7.431   4.882   6.755 -0.2990  0.1317 -0.1414
14932SOL    HW146216   7.493   4.809   6.758  0.2236  0.5897  0.9917
14932SOL    HW246217   7.403   4.887   6.664  0.5903 -0.7100 -0.4749
14933SOL     OW46218   6.666   1.331   7.236  0.1437  0.1857 -0.1744
14933SOL    HW146219   6.728   1.268   7.274  1.4845  0.8974 -1.0972
14933SOL    HW246220   6.679   1.411   7.286  0.3179  0.4718 -0.6682
14934SOL     OW46221   7.547   0.797   2.232 -0.5277  0.0484  0.4989
14934SOL    HW146222   7.496   0.721   2.204  1.5872 -1.7205  1.1143
14934SOL    HW246223   7.523   0.866   2.171  0.4411 -2.2879 -2.8165
14935SOL     OW46224   1.648   0.944   0.622 -0.3659 -0.2982 -0.0000
14935SOL    HW146225   1.609   0.948   0.710  1.2174 -0.9470  0.7819
14935SOL    HW246226   1.742   0.943   0.639 -0.0437 -2.3613 -1.6246
14936SOL     OW46227   0.369   5.355   6.130  0.5461  0.3650  0.6264
14936SOL    HW146228   0.367   5.386   6.221  1.0548  1.4348  0.2907
14936SOL    HW246229   0.457   5.377   6.100 -0.2482  1.8638 -0.7324
14937SOL     OW46230   5.094   3.495   0.433 -0.0998 -0.5266  0.0300
14937SOL    HW146231   5.083   3.590   0.431  0.9826 -0.3587 -2.6098
14937SOL    HW246232   5.020   3.462   0.383 -0.0890 -1.0314  0.3432
14938SOL     OW46233   2.504   7.775   3.126  0.3831 -0.8789  0.1649
14938SOL    HW146234   2.506   7.679   3.129  0.8170 -0.9863 -1.8791
14938SOL    HW246235   2.457   7.795   3.045  1.1359  0.6185  0.0672
14939SOL     OW46236   4.100   3.640   6.957 -0.2608  0.0413 -0.2057
14939SOL    HW146237   4.052   3.558   6.968 -1.4547  0.7569  0.0711
14939SOL    HW246238   4.040   3.697   6.910 -0.2251  1.4199  1.3420
14940SOL     OW46239   7.655   2.632   0.829  0.5701 -0.3186 -0.6639
14940SOL    HW146240   7.601   2.709   0.843 -0.6589 -1.4728  1.4534
14940SOL    HW246241   7.745   2.665   0.827  0.0155  1.2443 -0.7256
14941SOL     OW46242   6.761   2.618   6.219 -0.7538 -0.0610 -0.3971
14941SOL    HW146243   6.698   2.550   6.244 -0.5036 -0.3122 -0.4456
14941SOL    HW246244   6.718   2.700   6.241 -1.5254 -0.1839 -1.4058
14942SOL     OW46245   0.199   7.607   0.044 -0.0706 -0.1703 -0.0256
14942SOL    HW146246   0.143   7.576   0.115 -0.7667 -1.3288 -1.0318
14942SOL    HW246247   0.288   7.591   0.076 -0.2553  1.4187  1.4679
14943SOL     OW46248   4.823   2.232   3.868 -0.4305 -0.3234 -0.2471
14943SOL    HW146249   4.883   2.292   3.824  1.8851 -0.5455  2.3444
14943SOL    HW246250   4.835   2.149   3.821  2.4399 -0.7234  0.9525
14944SOL     OW46251   4.083   7.968   7.330  0.4148  0.0617 -1.2843
14944SOL    HW146252   4.013   7.945   7.269  0.6064  1.0741 -1.9209
14944SOL    HW246253   4.163   7.963   7.277  0.7856 -0.6478 -0.6793
14945SOL     OW46254   6.394   7.178   0.168  0.4718  0.1857  0.3136
14945SOL    HW146255   6.414   7.147   0.080  0.0994  0.9867 -0.0603
14945SOL    HW246256   6.302   7.158   0.181  0.0992  1.5217 -0.1150
14946SOL     OW46257   7.829   3.566   1.895  0.1064  0.0233 -0.1024
14946SOL    HW146258   7.920   3.568   1.867 -0.5200  1.6278 -2.4070
14946SOL    HW246259   7.830   3.590   1.987  2.0387 -0.4783  0.0295
14947SOL     OW46260   8.248   6.950   7.748 -0.1838  0.4475 -0.9507
14947SOL    HW146261   8.321   6.983   7.800 -0.9625  1.3450 -0.3904
14947SOL    HW246262   8.192   6.904   7.810  0.3624 -1.0796 -1.5462
14948SOL     OW46263   1.414   2.678   2.085 -0.1039  0.4421 -0.4494
14948SOL    HW146264   1.496   2.628   2.084 -0.5946 -0.5718  2.2274
14948SOL    HW246265   1.389   2.682   2.177 -2.5109  1.6738 -1.0690
14949SOL     OW46266   3.195   6.643   2.724 -0.4078 -0.3808  0.2559
14949SOL    HW146267   3.285   6.652   2.755 -0.5449 -0.6829  0.7560
14949SOL    HW246268   3.181   6.718   2.666 -0.1200  0.1506  0.8669
14950SOL     OW46269   0.963   1.643   2.279 -0.2443  0.7548 -0.5579
14950SOL    HW146270   0.920   1.703   2.340  1.1292  1.6269 -0.4143
14950SOL    HW246271   0.906   1.643   2.202 -1.1450  0.9029  0.0842
14951SOL     OW46272   3.305   5.520   4.727  0.3291  0.3493  0.4748
14951SOL    HW146273   3.340   5.505   4.815  1.5124 -1.9927 -0.3183
14951SOL    HW246274   3.210   5.518   4.738  0.4638 -0.1899  1.6775
14952SOL     OW46275   2.369   4.476   4.321 -0.5394 -0.1523 -0.2899
14952SOL    HW146276   2.286   4.523   4.324  1.1176  2.9695  1.1621
14952SOL    HW246277   2.431   4.540   4.287  1.6042 -1.8337  0.2633
14953SOL     OW46278   3.655   6.200   3.335 -0.3943 -0.0772  0.1721
14953SOL    HW146279   3.595   6.196   3.410  0.1768 -0.7918  0.6019
14953SOL    HW246280   3.718   6.129   3.351  0.8590  0.9629 -0.0181
14954SOL     OW46281   6.591   2.618   0.782 -0.0760 -1.0975  0.1839
14954SOL    HW146282   6.679   2.624   0.745  0.3879  1.4984  1.4498
14954SOL    HW246283   6.572   2.524   0.784  1.6118 -1.5959 -2.3941
14955SOL     OW46284   0.257   2.470   0.564 -0.6707 -0.5118  0.8442
14955SOL    HW146285   0.255   2.464   0.468 -0.8568 -0.1638  0.8240
14955SOL    HW246286   0.253   2.564   0.582 -1.4416 -0.6125  1.2151
14956SOL     OW46287   3.976   1.314   4.995 -0.6136 -0.0975 -1.2435
14956SOL    HW146288   3.970   1.317   5.091 -2.2589  2.0922 -1.3315
14956SOL    HW246289   3.923   1.238   4.970 -2.1432  0.6457 -0.4471
14957SOL     OW46290   5.458   3.202   6.507  0.7758  0.0943 -0.6743
14957SOL    HW146291   5.491   3.180   6.420  1.2990  1.7505 -0.9262
14957SOL    HW246292   5.363   3.196   6.499  0.8563 -1.0115 -0.9906
14958SOL     OW46293   3.838   4.576   6.346  0.2947 -0.1887 -0.4434
14958SOL    HW146294   3.912   4.538   6.394  0.6097  0.2008 -0.6068
14958SOL    HW246295   3.803   4.642   6.406 -0.9999 -1.5059  0.3299
14959SOL     OW46296   6.093   3.124   2.876 -0.1294  0.2893 -0.2980
14959SOL    HW146297   6.096   3.129   2.971 -0.5496  0.0998 -0.2764
14959SOL    HW246298   6.039   3.199   2.850 -1.6783 -0.7872 -0.2784
14960SOL     OW46299   0.507   7.673   3.995  0.0430 -0.4621 -0.7015
14960SOL    HW146300   0.581   7.667   4.055 -1.2464 -3.4415  0.8313
14960SOL    HW246301   0.517   7.597   3.937 -0.9981 -0.0369 -1.4691
14961SOL     OW46302   3.106   2.709   7.867 -0.0554  0.0700 -0.1051
14961SOL    HW146303   3.050   2.732   7.793 -1.0381  0.6420  0.7834
14961SOL    HW246304   3.075   2.622   7.894 -1.1828  0.7740  0.9627
14962SOL     OW46305   0.239   3.492   1.290 -0.3699 -0.3091  0.2991
14962SOL    HW146306   0.187   3.414   1.269 -1.4516 -0.2546  2.4470
14962SOL    HW246307   0.186   3.566   1.258 -0.1195 -0.3692 -0.2702
14963SOL     OW46308   0.629   0.320   6.852 -0.5641 -0.3252  0.2725
14963SOL    HW146309   0.550   0.373   6.855 -2.0876 -2.4628  0.5607
14963SOL    HW246310   0.685   0.356   6.921 -0.9948  1.6014 -0.3296
14964SOL     OW46311   2.312   7.232   3.579  0.1548 -0.4159 -0.5694
14964SOL    HW146312   2.272   7.316   3.555  1.9280  0.5692 -0.2631
14964SOL    HW246313   2.238   7.172   3.587 -1.2615  1.2879 -0.0584
14965SOL     OW46314   3.154   0.354   6.288  0.4271  0.1990  0.4750
14965SOL    HW146315   3.108   0.426   6.332 -1.9970  0.4076 -2.0912
14965SOL    HW246316   3.128   0.276   6.336 -0.1948  0.6426  0.8849
14966SOL     OW46317   3.264   4.982   7.955  0.0425 -0.5793  0.0665
14966SOL    HW146318   3.346   5.004   7.910  0.4656 -0.0532  1.0675
14966SOL    HW246319   3.289   4.919   8.022  0.2045  1.6900  2.3054
14967SOL     OW46320   7.219   3.759   3.292  0.4930 -0.0830  0.0547
14967SOL    HW146321   7.247   3.848   3.269  2.3558 -0.7226 -0.3267
14967SOL    HW246322   7.271   3.702   3.236 -2.2222 -1.4181 -1.2833
14968SOL     OW46323   2.351   4.509   8.197 -0.0656  0.2970  0.4298
14968SOL    HW146324   2.323   4.468   8.279 -0.1417  3.0403  1.8997
14968SOL    HW246325   2.446   4.513   8.203  0.0369 -0.8127 -0.3205
14969SOL     OW46326   4.743   3.124   3.135  0.1757 -0.1345  0.1698
14969SOL    HW146327   4.678   3.187   3.166  2.1676  1.5389  1.1422
14969SOL    HW246328   4.751   3.061   3.207 -0.8614 -0.8194 -0.2748
14970SOL     OW46329   0.511   4.480   1.711 -0.4168  0.1355 -0.1116
14970SOL    HW146330   0.484   4.520   1.793 -0.1200 -0.0297  0.0662
14970SOL    HW246331   0.442   4.418   1.690  0.3585 -1.1118  0.9236
14971SOL     OW46332   1.539   2.876   2.904  0.3602  0.4988 -0.1383
14971SOL    HW146333   1.579   2.848   2.986 -0.4078 -1.1035 -0.2757
14971SOL    HW246334   1.492   2.956   2.926 -2.6188 -1.6116  1.8460
14972SOL     OW46335   3.312   0.085   6.359  0.1982 -0.1967 -0.9089
14972SOL    HW146336   3.237   0.122   6.406  1.2535  1.4724 -0.4446
14972SOL    HW246337   3.275   0.012   6.309 -1.8123  0.7852 -0.9884
14973SOL     OW46338   3.192   1.646   6.176  0.1467  0.2770  0.0451
14973SOL    HW146339   3.222   1.555   6.177  0.9978  0.5411  0.9456
14973SOL    HW246340   3.202   1.675   6.267 -1.4217  0.8700  0.0560
14974SOL     OW46341   8.354   8.167   3.273 -0.1665  0.0386  0.4261
14974SOL    HW146342   8.346   8.104   3.201 -0.2095  1.5097 -0.9086
14974SOL    HW246343   8.410   8.237   3.237 -1.1285  1.3654  1.4282
14975SOL     OW46344   2.582   3.294   5.449  0.6206 -0.0993 -0.4509
14975SOL    HW146345   2.535   3.374   5.471  1.6376  0.9434 -1.8423
14975SOL    HW246346   2.569   3.236   5.524  1.4015  2.0657  1.4721
14976SOL     OW46347   3.909   0.793   3.926 -0.7259  0.1669  0.4763
14976SOL    HW146348   3.868   0.834   4.002 -0.6466 -0.8283  1.0802
14976SOL    HW246349   3.836   0.763   3.873 -0.7831  1.0804  0.0323
14977SOL     OW46350   6.984   2.027   4.450 -0.5154 -0.0967 -0.7690
14977SOL    HW146351   7.039   2.062   4.520 -1.7294 -0.5562  0.4502
14977SOL    HW246352   7.041   1.964   4.405  0.4788  0.6644 -0.5960
14978SOL     OW46353   4.805   5.850   8.341 -0.4518 -0.1032 -0.4863
14978SOL    HW146354   4.831   5.936   8.376  0.4346 -0.2485 -0.7712
14978SOL    HW246355   4.861   5.788   8.387  0.2932 -0.3494 -1.6934
14979SOL     OW46356   4.511   0.810   3.308 -0.1824  0.8029 -0.1863
14979SOL    HW146357   4.534   0.719   3.329 -1.8955  0.3292 -0.2185
14979SOL    HW246358   4.538   0.860   3.385 -1.2792 -0.0836  0.8072
14980SOL     OW46359   2.206   2.134   0.970 -0.4207 -0.0704 -0.0678
14980SOL    HW146360   2.156   2.055   0.947  0.4367 -0.2794 -1.3545
14980SOL    HW246361   2.160   2.205   0.924 -0.3417 -0.0525 -0.1193
14981SOL     OW46362   7.622   2.789   2.582  0.4343 -0.3251  0.2805
14981SOL    HW146363   7.569   2.804   2.660  1.7310  1.1896  0.9426
14981SOL    HW246364   7.585   2.847   2.516  0.2892 -0.4358  0.2668
14982SOL     OW46365   6.690   5.112   2.674 -0.1116 -0.6068  0.3365
14982SOL    HW146366   6.695   5.052   2.748 -1.8204 -0.1694  0.8471
14982SOL    HW246367   6.752   5.077   2.610 -0.5167 -2.5007  0.9224
14983SOL     OW46368   6.107   3.563   4.566 -0.2665  0.0362  0.6146
14983SOL    HW146369   6.112   3.531   4.656  3.5212 -1.3411  0.0923
14983SOL    HW246370   6.177   3.628   4.559 -2.1355  2.0619 -0.7545
14984SOL     OW46371   4.937   5.088   5.709  0.6096  0.6944 -0.0289
14984SOL    HW146372   4.967   5.159   5.766 -0.8097  1.0123  0.3536
14984SOL    HW246373   5.005   5.022   5.716  0.2768  0.5404  2.4101
14985SOL     OW46374   5.590   5.249   4.825 -0.5255 -0.7373 -0.0888
14985SOL    HW146375   5.635   5.260   4.741  0.8181 -1.2387  0.5336
14985SOL    HW246376   5.504   5.287   4.811 -1.0279 -2.4577 -2.2682
14986SOL     OW46377   7.714   0.632   8.242 -0.1675  0.0071  0.3242
14986SOL    HW146378   7.630   0.617   8.199 -0.1700  0.5739  0.1257
14986SOL    HW246379   7.696   0.620   8.335 -0.9592  2.1109  0.4945
14987SOL     OW46380   4.544   7.228   8.167  0.0184  0.0055  0.8059
14987SOL    HW146381   4.512   7.317   8.184 -2.8448 -0.9509  0.9395
14987SOL    HW246382   4.562   7.192   8.254  3.2330  1.0102  0.6976
14988SOL     OW46383   1.758   3.082   4.341 -0.6734  0.1499  0.1303
14988SOL    HW146384   1.753   3.118   4.430  1.2140  1.7376 -0.3342
14988SOL    HW246385   1.694   3.011   4.341  0.1006 -0.7239  3.1155
14989SOL     OW46386   5.665   2.023   5.329 -0.0659  0.0280 -0.0545
14989SOL    HW146387   5.733   2.089   5.343  0.2893  0.2287 -2.3730
14989SOL    HW246388   5.699   1.967   5.259 -0.6187 -2.3141  1.4389
14990SOL     OW46389   0.388   7.951   6.656  0.5477  0.0910  0.1620
14990SOL    HW146390   0.336   7.998   6.721 -0.2591 -0.7219  0.1310
14990SOL    HW246391   0.439   7.887   6.706 -0.3193 -0.7597 -0.0038
14991SOL     OW46392   5.580   1.548   2.893 -0.1076  0.1514  0.2139
14991SOL    HW146393   5.614   1.459   2.885 -2.4436 -0.7484 -0.4392
14991SOL    HW246394   5.551   1.555   2.984  1.3967  0.8115  0.6820
14992SOL     OW46395   3.594   2.393   3.036  0.5117 -0.2431  0.0556
14992SOL    HW146396   3.578   2.469   3.091  0.2388 -0.2728  0.0183
14992SOL    HW246397   3.687   2.398   3.013 -0.0428  1.5682 -2.1726
14993SOL     OW46398   2.245   4.770   8.107 -0.5923  0.0308  0.0179
14993SOL    HW146399   2.256   4.681   8.140 -1.2896 -0.0949 -0.0697
14993SOL    HW246400   2.154   4.792   8.128  0.3125  1.7938  2.6466
14994SOL     OW46401   2.838   2.918   1.419 -0.2411  0.5671 -0.2983
14994SOL    HW146402   2.881   2.954   1.496  0.0895  0.3404 -0.3713
14994SOL    HW246403   2.797   2.993   1.376  0.4379  0.8610 -0.4529
14995SOL     OW46404   3.623   0.963   8.344 -0.3792 -0.4157 -0.1724
14995SOL    HW146405   3.665   0.877   8.348 -1.5922 -1.0217  0.2909
14995SOL    HW246406   3.620   0.992   8.435 -0.3607 -0.0838 -0.2769
14996SOL     OW46407   7.655   4.685   7.746 -0.0986  0.0429 -0.1665
14996SOL    HW146408   7.631   4.609   7.798  0.4097  0.7614  1.1716
14996SOL    HW246409   7.750   4.691   7.754 -0.2848  1.9358  1.4483
14997SOL     OW46410   3.597   7.856   5.998 -0.1993 -0.6723 -0.4242
14997SOL    HW146411   3.523   7.896   5.952 -0.8812 -1.7766 -0.3310
14997SOL    HW246412   3.561   7.832   6.084  0.3451 -0.9548 -0.2733
14998SOL     OW46413   6.387   4.022   2.999 -0.2566  0.2622 -0.3935
14998SOL    HW146414   6.431   4.097   2.960  0.9926  0.1330  0.7091
14998SOL    HW246415   6.307   4.059   3.038 -0.0522  0.8836 -0.5508
14999SOL     OW46416   0.102   7.468   5.226  0.2341 -0.7090  0.1293
14999SOL    HW146417   0.015   7.486   5.263  0.0528 -1.0893 -0.1100
14999SOL    HW246418   0.163   7.493   5.296 -0.0636 -0.3839  0.2780
15000SOL     OW46419   1.582   2.084   6.638  0.3466  0.4160  0.0051
15000SOL    HW146420   1.527   2.030   6.582  1.2624  0.5325 -1.0446
15000SOL    HW246421   1.614   2.154   6.581  0.9852  0.7735  0.7693
15001SOL     OW46422   5.196   7.935   8.215 -0.3954  0.0236  0.6323
15001SOL    HW146423   5.276   7.883   8.222  1.3773  2.1102 -2.1614
15001SOL    HW246424   5.194   7.965   8.125 -3.6027  1.3072  0.9895
15002SOL     OW46425   8.354   8.192   6.876  0.4656 -0.4170 -0.3241
15002SOL    HW146426   8.307   8.242   6.809  0.6528  1.6195  0.9912
15002SOL    HW246427   8.285   8.143   6.922 -0.3611  1.9346  1.0763
15003SOL     OW46428   1.908   2.096   0.414 -0.0755 -0.3841  0.8918
15003SOL    HW146429   1.907   2.188   0.438 -0.4646 -0.3795  0.8645
15003SOL    HW246430   1.927   2.095   0.320 -0.1422 -0.3284  0.8780
15004SOL     OW46431   3.323   8.250   6.716  0.2350  0.2146  0.0405
15004SOL    HW146432   3.404   8.289   6.682  0.8663  0.3522  1.5969
15004SOL    HW246433   3.340   8.155   6.715  0.0513  0.1848 -0.4907
15005SOL     OW46434   7.366   6.714   6.377 -0.2886  0.7977 -0.0447
15005SOL    HW146435   7.365   6.712   6.281 -0.1339  2.1995 -0.0955
15005SOL    HW246436   7.444   6.764   6.399  1.1471 -1.6971  0.9161
15006SOL     OW46437   5.562   2.468   1.175  0.4860  0.3505  0.1601
15006SOL    HW146438   5.495   2.400   1.177  1.6791 -0.8975 -0.3337
15006SOL    HW246439   5.544   2.518   1.095  0.0450  0.1487  0.1344
15007SOL     OW46440   5.314   8.228   7.325 -0.2006 -0.0927 -0.3212
15007SOL    HW146441   5.354   8.230   7.238 -0.3480 -1.8755 -0.4797
15007SOL    HW246442   5.337   8.141   7.359 -0.0505  0.6140  1.4696
15008SOL     OW46443   0.616   1.572   0.261 -0.8533 -0.1979  0.0184
15008SOL    HW146444   0.626   1.619   0.178 -0.0672 -0.5554 -0.1057
15008SOL    HW246445   0.525   1.586   0.286 -0.9579  0.3616 -0.6346
15009SOL     OW46446   0.540   7.864   0.812 -0.2172  0.1673 -0.4606
15009SOL    HW146447   0.562   7.783   0.765  0.1351  0.0076 -0.0324
15009SOL    HW246448   0.538   7.838   0.904  0.2277  0.7183 -0.2893
15010SOL     OW46449   4.072   1.040   7.051  0.0655  0.4793 -0.1245
15010SOL    HW146450   4.156   1.063   7.089  1.0364 -0.8295 -1.3811
15010SOL    HW246451   4.034   1.124   7.023  1.0177  1.0603  0.2947
15011SOL     OW46452   7.061   0.094   7.135  0.0870 -0.2497 -0.4922
15011SOL    HW146453   7.067   0.005   7.100  1.4456  0.5515 -2.5382
15011SOL    HW246454   7.015   0.143   7.066 -0.5819  0.6666  0.5724
15012SOL     OW46455   2.357   7.797   8.316 -0.9378 -0.3631 -0.1656
15012SOL    HW146456   2.287   7.854   8.346 -0.9017 -0.3469 -0.1098
15012SOL    HW246457   2.351   7.798   8.221 -0.8585 -0.1677 -0.1694
15013SOL     OW46458   1.350   0.656   5.481  0.4532  0.3981  0.3114
15013SOL    HW146459   1.268   0.665   5.530  0.5912  1.8410  0.3320
15013SOL    HW246460   1.419   0.670   5.546  0.7049 -0.2465  0.1869
15014SOL     OW46461   2.819   4.784   3.484 -0.0550  0.4735  0.4416
15014SOL    HW146462   2.807   4.704   3.433 -0.2768  0.3016  0.7568
15014SOL    HW246463   2.850   4.754   3.569 -1.0515  0.6438  0.8840
15015SOL     OW46464   3.302   1.470   0.422  0.5468 -0.0385 -0.8346
15015SOL    HW146465   3.303   1.424   0.507 -0.2193 -1.4065 -1.5252
15015SOL    HW246466   3.381   1.523   0.423  0.4027  0.2312  0.8637
15016SOL     OW46467   6.727   6.467   1.515  0.5067 -0.4414  0.2308
15016SOL    HW146468   6.800   6.495   1.459  0.8809 -1.8361 -0.0384
15016SOL    HW246469   6.669   6.420   1.455 -0.0903 -0.2317  0.6477
15017SOL     OW46470   1.351   4.382   6.212 -0.1077  0.4967  0.1433
15017SOL    HW146471   1.291   4.308   6.218 -0.5360  0.7770 -0.5845
15017SOL    HW246472   1.438   4.341   6.205 -0.3053  0.0671  0.1453
15018SOL     OW46473   6.650   6.607   0.412 -0.2170  0.0409 -0.3570
15018SOL    HW146474   6.655   6.676   0.478 -0.8541 -1.2658  1.1330
15018SOL    HW246475   6.717   6.544   0.440 -0.1111 -0.2674 -1.3016
15019SOL     OW46476   6.084   3.662   8.199  0.6147  0.7311 -0.4775
15019SOL    HW146477   6.056   3.600   8.131 -0.2182 -0.7625  1.1635
15019SOL    HW246478   6.011   3.722   8.209  0.5539  0.6721 -0.5677
15020SOL     OW46479   5.397   5.458   4.082 -0.4824 -0.2708  0.1305
15020SOL    HW146480   5.328   5.441   4.146 -1.1713 -1.0288 -0.7702
15020SOL    HW246481   5.383   5.548   4.053 -2.5964 -1.0909 -1.7124
15021SOL     OW46482   8.043   0.982   2.131 -0.3238 -0.2126  0.5564
15021SOL    HW146483   7.985   1.043   2.086  0.7839  1.6268  1.4902
15021SOL    HW246484   8.048   0.906   2.073 -2.2672  0.2873 -0.3446
15022SOL     OW46485   5.701   1.924   8.332 -0.2572 -0.0451 -0.2576
15022SOL    HW146486   5.747   2.007   8.317  0.2390 -0.6264 -2.1770
15022SOL    HW246487   5.611   1.950   8.353  0.0811  0.9859 -0.0156
15023SOL     OW46488   0.383   2.290   5.913 -0.0813  0.2141  0.3277
15023SOL    HW146489   0.366   2.370   5.964 -1.1618  0.0364  0.2635
15023SOL    HW246490   0.297   2.260   5.885  0.4370 -0.0516 -1.0778
15024SOL     OW46491   7.139   5.946   6.303 -0.1101  0.1096  0.0335
15024SOL    HW146492   7.232   5.936   6.283  0.3491  2.4548  0.7627
15024SOL    HW246493   7.107   5.856   6.312  1.6534 -0.7971 -1.9999
15025SOL     OW46494   0.741   7.974   0.083  0.3079  0.6649  0.9425
15025SOL    HW146495   0.725   8.069   0.078 -0.4766  0.5672  1.4884
15025SOL    HW246496   0.771   7.951  -0.005 -3.1919  0.7867 -0.4302
15026SOL     OW46497   7.821   7.711   5.820 -0.1871  0.3272  0.5584
15026SOL    HW146498   7.740   7.687   5.865 -0.2036 -1.3850 -0.3173
15026SOL    HW246499   7.882   7.733   5.891 -1.1292  0.7746  1.2557
15027SOL     OW46500   1.197   5.724   1.175  0.3840  0.0850 -0.2197
15027SOL    HW146501   1.146   5.647   1.149  0.7823 -0.6945  1.2293
15027SOL    HW246502   1.148   5.761   1.249  0.6210  0.7724 -0.4019
15028SOL     OW46503   0.057   5.175   3.168 -0.1749 -0.1960 -0.3217
15028SOL    HW146504  -0.029   5.186   3.208 -0.0687  0.3914 -0.2510
15028SOL    HW246505   0.043   5.191   3.075 -0.3891 -1.3935 -0.5106
15029SOL     OW46506   4.963   4.860   8.360 -0.5797 -0.2870 -0.1064
15029SOL    HW146507   4.930   4.805   8.288 -0.9273  0.0272 -0.1910
15029SOL    HW246508   5.008   4.932   8.316 -1.3687  0.2630 -0.0274
15030SOL     OW46509   3.681   5.329   5.934  0.7657  0.3319  0.0172
15030SOL    HW146510   3.752   5.270   5.908 -0.5837 -1.5663  0.4724
15030SOL    HW246511   3.694   5.340   6.028  0.7242  0.3532  0.0200
15031SOL     OW46512   5.372   4.714   3.139 -0.2650 -0.3261 -0.1497
15031SOL    HW146513   5.386   4.807   3.121 -1.4073 -0.1609 -0.2236
15031SOL    HW246514   5.280   4.699   3.118 -0.3401 -1.2640  0.8016
15032SOL     OW46515   3.997   2.247   1.653 -0.0279 -0.6740 -0.1610
15032SOL    HW146516   4.068   2.309   1.669  0.7932 -2.1126  2.2215
15032SOL    HW246517   3.926   2.277   1.711 -0.0732 -1.2112  0.0700
15033SOL     OW46518   0.758   0.694   6.222 -0.0558 -0.1309  0.4623
15033SOL    HW146519   0.804   0.673   6.141 -0.3013 -0.7060  0.4659
15033SOL    HW246520   0.822   0.741   6.275 -0.0942  0.8326 -0.3214
15034SOL     OW46521   1.598   2.053   1.234 -0.1886  0.0024  0.2169
15034SOL    HW146522   1.620   2.115   1.164 -0.0585  0.1134  0.3547
15034SOL    HW246523   1.603   1.967   1.192  1.8187 -0.0981  0.5547
15035SOL     OW46524   4.054   3.380   0.772 -0.7133  0.4295  0.0529
15035SOL    HW146525   4.069   3.407   0.863  2.0936 -1.7431  0.3989
15035SOL    HW246526   3.981   3.318   0.777  0.5147 -1.0171  1.2107
15036SOL     OW46527   5.644   2.301   5.917 -0.2071 -0.2864  0.2180
15036SOL    HW146528   5.628   2.383   5.870 -2.0255 -0.4935  0.3871
15036SOL    HW246529   5.735   2.280   5.899  0.8969  2.7300  1.6708
15037SOL     OW46530   4.884   6.944   8.028 -0.0954 -0.8921 -0.2275
15037SOL    HW146531   4.885   6.946   7.932 -1.0427  0.0597 -0.2277
15037SOL    HW246532   4.796   6.972   8.052 -0.7885 -3.7306  0.8872
15038SOL     OW46533   2.015   5.020   6.456 -0.1560  0.0912 -0.1300
15038SOL    HW146534   1.942   4.970   6.417 -0.7541  1.6708 -1.1242
15038SOL    HW246535   2.016   5.102   6.407  1.5525  0.5901  0.6904
15039SOL     OW46536   1.633   7.191   3.969 -0.3885 -0.4256  0.3090
15039SOL    HW146537   1.665   7.121   4.027  0.2056 -0.0019  0.5120
15039SOL    HW246538   1.658   7.163   3.882  1.5121  0.3640  0.5493
15040SOL     OW46539   6.475   2.904   0.627 -0.6283  0.3134 -0.2465
15040SOL    HW146540   6.513   2.850   0.557  0.0846  0.6788 -0.1515
15040SOL    HW246541   6.381   2.899   0.612 -0.5324 -0.2957 -0.7303
15041SOL     OW46542   1.708   8.105   7.144  0.6588  0.0078  0.2304
15041SOL    HW146543   1.705   8.058   7.228  1.8414  0.0266  0.3002
15041SOL    HW246544   1.764   8.050   7.088  0.3842  0.3109 -0.3535
15042SOL     OW46545   2.122   0.935   7.423 -0.1764 -0.2388 -0.2414
15042SOL    HW146546   2.116   0.992   7.500 -0.4314  0.1626 -0.5546
15042SOL    HW246547   2.191   0.872   7.445 -1.1950 -0.9934  0.8711
15043SOL     OW46548   2.047   5.227   1.713 -0.2437 -0.6711  0.3567
15043SOL    HW146549   2.128   5.277   1.703  0.5384 -1.9619  0.0013
15043SOL    HW246550   2.013   5.254   1.798  1.1960 -0.9720  1.0646
15044SOL     OW46551   7.972   3.922   0.030  0.1207  0.1189  0.5681
15044SOL    HW146552   8.037   3.926  -0.041 -1.3469  1.4684 -0.7998
15044SOL    HW246553   8.023   3.928   0.110  1.8556 -1.5141 -0.3517
15045SOL     OW46554   0.338   1.842   7.519 -0.4815 -0.2476  0.4568
15045SOL    HW146555   0.421   1.812   7.556 -1.4741 -0.2904  2.8303
15045SOL    HW246556   0.346   1.938   7.517 -0.6635 -0.1929  1.5348
15046SOL     OW46557   2.350   5.090   5.630  0.1492  0.3222 -0.4784
15046SOL    HW146558   2.287   5.098   5.559  0.2691 -1.0811 -0.7683
15046SOL    HW246559   2.424   5.043   5.592  0.6544  0.4528  0.3096
15047SOL     OW46560   6.421   1.563   7.025 -0.2271  0.2298  0.1355
15047SOL    HW146561   6.344   1.523   7.067  0.3968 -0.8655  0.2685
15047SOL    HW246562   6.486   1.568   7.094  0.0466  0.5461 -0.1433
15048SOL     OW46563   8.024   0.451   7.410  0.3025 -0.0503  0.1414
15048SOL    HW146564   8.001   0.367   7.369  2.0283 -1.6575  2.2275
15048SOL    HW246565   8.055   0.506   7.338 -1.4100 -0.9505 -1.3693
15049SOL     OW46566   4.247   8.052   3.385 -0.2845  0.5121  0.0562
15049SOL    HW146567   4.333   8.091   3.366 -0.4174  1.6240  1.5574
15049SOL    HW246568   4.186   8.125   3.378 -0.8344  0.1420  0.8682
15050SOL     OW46569   0.173   5.206   1.900 -0.3699 -0.2253  0.1242
15050SOL    HW146570   0.228   5.205   1.821 -1.3899  2.0544 -0.6931
15050SOL    HW246571   0.222   5.155   1.964  0.4768 -2.2164 -1.9596
15051SOL     OW46572   2.013   0.941   8.301 -0.3145 -0.1689  1.1789
15051SOL    HW146573   2.068   0.975   8.373  0.6061 -0.2692  0.5446
15051SOL    HW246574   2.075   0.927   8.229 -1.3020  0.4900  0.1664
15052SOL     OW46575   5.029   6.017   0.965  0.1594  0.2157  0.5151
15052SOL    HW146576   5.068   6.102   0.981 -1.4426  0.7416  1.9356
15052SOL    HW246577   5.015   6.013   0.870 -0.2372  1.7603  0.4949
15053SOL     OW46578   7.489   1.607   6.389  0.5210 -0.1940 -0.0876
15053SOL    HW146579   7.571   1.574   6.426  0.6653 -0.0559 -0.2835
15053SOL    HW246580   7.516   1.681   6.334  0.0081  1.8486  2.1974
15054SOL     OW46581   2.453   2.411   1.355  0.0234 -0.3289 -0.1997
15054SOL    HW146582   2.362   2.392   1.335  0.1769 -0.1280 -1.1267
15054SOL    HW246583   2.475   2.487   1.301  0.3081  0.5932  1.1520
15055SOL     OW46584   5.677   1.287   2.169 -0.7300 -0.2563  0.0915
15055SOL    HW146585   5.710   1.265   2.081  0.2229  1.2388  0.0395
15055SOL    HW246586   5.725   1.229   2.228 -0.5633 -0.5171 -0.2957
15056SOL     OW46587   2.529   1.223   1.621 -0.0841 -0.0184 -0.0581
15056SOL    HW146588   2.487   1.302   1.655  0.3801  0.7458 -1.2223
15056SOL    HW246589   2.618   1.226   1.656 -0.7760 -1.4308  2.0732
15057SOL     OW46590   7.492   5.524   3.334 -0.2450  0.7200 -0.0600
15057SOL    HW146591   7.410   5.569   3.354  0.3874  1.5609  0.7381
15057SOL    HW246592   7.560   5.581   3.370  0.6262 -0.5790  0.4079
15058SOL     OW46593   3.105   6.586   3.990  0.4647  0.3282  0.1211
15058SOL    HW146594   3.107   6.493   4.015  2.5090  0.4495  0.6036
15058SOL    HW246595   3.186   6.599   3.940  0.0369  1.7708 -0.2265
15059SOL     OW46596   3.519   0.350   0.239 -0.2760 -0.4505 -0.0467
15059SOL    HW146597   3.491   0.301   0.317 -1.0491  0.6303  0.3827
15059SOL    HW246598   3.465   0.316   0.168  0.1416 -1.1533 -0.0351
15060SOL     OW46599   0.842   3.346   5.061  0.4185  0.3030 -0.1928
15060SOL    HW146600   0.867   3.342   5.153  0.1520 -2.1045 -0.1548
15060SOL    HW246601   0.909   3.293   5.016 -0.0723  0.5275 -1.2187
15061SOL     OW46602   3.256   5.189   0.490  0.1221  0.0372  0.4716
15061SOL    HW146603   3.224   5.169   0.402 -0.7638  0.7556  0.6205
15061SOL    HW246604   3.210   5.269   0.516  3.0701  2.0251  0.1232
15062SOL     OW46605   6.075   4.957   4.630  0.3598 -0.0424  0.7583
15062SOL    HW146606   6.123   4.926   4.707  0.9091 -0.4742  0.2502
15062SOL    HW246607   6.022   4.882   4.603 -0.2077  0.2643  0.9993
15063SOL     OW46608   5.057   5.234   6.321 -0.5443 -0.1611  0.0628
15063SOL    HW146609   5.106   5.307   6.282  1.8429 -1.0294  1.2310
15063SOL    HW246610   5.032   5.267   6.408  1.0644 -0.8287  0.8387
15064SOL     OW46611   7.814   4.736   3.294 -0.6043  0.2185  0.3747
15064SOL    HW146612   7.742   4.796   3.315 -0.5825 -0.6840  3.6253
15064SOL    HW246613   7.795   4.657   3.344  0.5263 -1.7306 -2.0350
15065SOL     OW46614   5.344   3.171   4.423  0.2029  0.0934 -0.1412
15065SOL    HW146615   5.270   3.222   4.456  1.1007  0.1237  2.0227
15065SOL    HW246616   5.328   3.082   4.456  0.2057 -0.3434 -1.2635
15066SOL     OW46617   1.685   6.112   3.558 -0.1991  0.3986 -0.0541
15066SOL    HW146618   1.668   6.206   3.550 -1.0040  0.3050  0.4019
15066SOL    HW246619   1.643   6.087   3.641  1.2883 -0.0772  0.6065
15067SOL     OW46620   3.629   2.196   1.454  0.7507  0.1360  0.5799
15067SOL    HW146621   3.591   2.276   1.492 -0.1268  1.5926 -2.9386
15067SOL    HW246622   3.553   2.141   1.435  0.9160  0.4425 -1.0439
15068SOL     OW46623   5.678   5.246   5.144  0.0867 -0.2814  0.1746
15068SOL    HW146624   5.617   5.268   5.073 -0.1734  0.8454  0.7168
15068SOL    HW246625   5.745   5.193   5.102 -0.4335 -0.2214 -0.7742
15069SOL     OW46626   5.969   6.411   8.298 -0.2095 -0.2827  0.3295
15069SOL    HW146627   5.981   6.505   8.307  0.2569 -0.0518 -2.1303
15069SOL    HW246628   5.990   6.376   8.385  3.8718  1.4833  0.2857
15070SOL     OW46629   5.571   4.385   5.941 -0.1693 -0.2837  0.0898
15070SOL    HW146630   5.652   4.365   5.894 -1.1977 -0.0025 -1.8924
15070SOL    HW246631   5.540   4.301   5.973 -0.0550 -0.6669 -0.7802
15071SOL     OW46632   7.850   5.714   6.158 -0.1772 -0.1621  0.3854
15071SOL    HW146633   7.864   5.801   6.197 -0.9023  0.0857  0.1188
15071SOL    HW246634   7.915   5.658   6.200  0.6981  0.6438  0.1208
15072SOL     OW46635   2.997   1.554   0.104 -0.1704  0.0732  0.7928
15072SOL    HW146636   3.033   1.512   0.182  2.5146  0.0754 -0.3724
15072SOL    HW246637   2.959   1.482   0.053 -0.5539 -0.1359  1.3631
15073SOL     OW46638   7.595   5.761   2.755  0.4530 -0.1468  0.3535
15073SOL    HW146639   7.688   5.742   2.738  0.6098  1.1829 -0.3793
15073SOL    HW246640   7.582   5.736   2.847  1.4113 -0.7762  0.3338
15074SOL     OW46641   0.159   7.660   0.891  0.4177  0.2430  0.2762
15074SOL    HW146642   0.168   7.566   0.908  0.9593 -0.1762 -2.0003
15074SOL    HW246643   0.217   7.701   0.956  3.5017 -1.2954 -1.2665
15075SOL     OW46644   7.729   1.536   1.680 -0.0116  0.3726 -0.3667
15075SOL    HW146645   7.781   1.610   1.649 -2.5658  2.3089 -0.3427
15075SOL    HW246646   7.715   1.554   1.773 -0.2170 -0.4315 -0.2339
15076SOL     OW46647   8.350   4.236   1.705 -0.3894 -0.4587 -0.1699
15076SOL    HW146648   8.399   4.224   1.786  0.9813  0.0283 -0.8864
15076SOL    HW246649   8.306   4.152   1.690 -0.1223 -0.7643  0.7172
15077SOL     OW46650   0.902   2.907   3.014  0.1212  0.0729 -0.8959
15077SOL    HW146651   0.820   2.944   3.046 -0.4341  0.1876 -2.3686
15077SOL    HW246652   0.955   2.894   3.093 -1.2172  0.1977  0.0629
15078SOL     OW46653   5.610   1.936   2.639  0.1769 -0.3220  0.3784
15078SOL    HW146654   5.705   1.925   2.631  0.0969 -0.3941 -0.7055
15078SOL    HW246655   5.576   1.847   2.645  0.1359 -0.3265  0.0992
15079SOL     OW46656   4.091   4.303   5.583 -0.4658 -0.1109 -0.6042
15079SOL    HW146657   4.151   4.230   5.599  0.2122 -0.1989 -3.1430
15079SOL    HW246658   4.142   4.381   5.607  0.0764 -0.2839 -1.1739
15080SOL     OW46659   3.604   0.254   7.218 -1.0655  0.0284  0.1591
15080SOL    HW146660   3.537   0.186   7.215 -0.0852 -0.9684  0.3086
15080SOL    HW246661   3.661   0.236   7.143 -2.6336  2.7068 -1.8801
15081SOL     OW46662   7.781   3.734   6.323  0.2290 -0.4753  0.4163
15081SOL    HW146663   7.792   3.650   6.368  1.1795 -1.1461 -0.9914
15081SOL    HW246664   7.846   3.732   6.253  1.5520  2.2360  1.4265
15082SOL     OW46665   7.657   8.218   2.289  0.1182 -0.4657 -0.5608
15082SOL    HW146666   7.717   8.204   2.362 -0.3184 -1.2614 -0.3508
15082SOL    HW246667   7.601   8.140   2.288 -2.6444  1.3202  0.8664
15083SOL     OW46668   5.913   6.686   6.555 -0.0390 -0.1463 -0.5235
15083SOL    HW146669   5.845   6.619   6.567  0.1126 -0.2558 -0.2605
15083SOL    HW246670   5.994   6.642   6.579  0.1999 -0.1877 -1.3946
15084SOL     OW46671   1.288   2.723   6.092 -0.7830 -0.0578 -0.7457
15084SOL    HW146672   1.219   2.742   6.029  0.1009  1.2207 -1.3772
15084SOL    HW246673   1.344   2.658   6.049 -0.9931 -0.2869 -0.6731
15085SOL     OW46674   3.730   7.214   4.489  0.3071 -0.1145 -0.4687
15085SOL    HW146675   3.749   7.254   4.405  0.8374 -1.7730 -1.1818
15085SOL    HW246676   3.683   7.133   4.467  2.2292 -1.6432  0.6423
15086SOL     OW46677   3.498   5.231   0.810 -0.7518  0.2597 -0.0831
15086SOL    HW146678   3.511   5.210   0.902 -0.0045  0.4947 -0.1296
15086SOL    HW246679   3.586   5.250   0.777 -0.9682 -0.1719 -0.9301
15087SOL     OW46680   6.801   1.194   3.242 -0.0943  0.5256  0.5486
15087SOL    HW146681   6.853   1.242   3.307 -0.1708  1.8744 -0.3581
15087SOL    HW246682   6.794   1.254   3.168 -2.7915  0.3113  0.5556
15088SOL     OW46683   4.880   2.479   6.499 -0.2930  0.2127  0.0882
15088SOL    HW146684   4.860   2.490   6.592  1.0734  2.2605  0.2025
15088SOL    HW246685   4.847   2.392   6.478 -2.0201  0.2902  2.1002
15089SOL     OW46686   6.924   0.892   6.511 -0.3445  0.0224  0.1745
15089SOL    HW146687   6.943   0.814   6.563 -0.7920 -0.0598  0.2161
15089SOL    HW246688   6.836   0.878   6.477 -0.5506  0.6426  0.4248
15090SOL     OW46689   0.183   1.060   7.732 -1.2681 -0.8160  0.4097
15090SOL    HW146690   0.271   1.031   7.753 -1.1554 -0.6042  0.2292
15090SOL    HW246691   0.164   1.023   7.646 -0.9767 -0.0509  0.0017
15091SOL     OW46692   0.374   3.700   5.757  0.4533  0.2975  0.1702
15091SOL    HW146693   0.279   3.701   5.772  0.8341  1.4215  3.1636
15091SOL    HW246694   0.390   3.776   5.701 -0.4642 -0.4433 -1.1559
15092SOL     OW46695   7.878   2.450   3.390  0.0338  0.5712 -0.2514
15092SOL    HW146696   7.883   2.545   3.389 -1.1931  0.6503 -0.2624
15092SOL    HW246697   7.807   2.428   3.330 -2.3641 -0.0998  2.6015
15093SOL     OW46698   2.821   0.205   6.026 -0.1414  0.1038 -0.1329
15093SOL    HW146699   2.854   0.127   6.070 -3.2730 -1.2753  0.0571
15093SOL    HW246700   2.895   0.239   5.977  1.8037 -1.9421  1.2045
15094SOL     OW46701   5.695   5.287   1.090 -0.0245 -0.5123 -0.4421
15094SOL    HW146702   5.711   5.362   1.032 -1.6830 -0.5694 -1.0096
15094SOL    HW246703   5.691   5.212   1.031 -1.8804 -0.5495 -0.3057
15095SOL     OW46704   7.556   6.615   1.082  0.0563 -0.0114  0.2611
15095SOL    HW146705   7.542   6.695   1.030 -1.7507  0.5735  1.5429
15095SOL    HW246706   7.651   6.606   1.086  0.2884  1.3197 -1.0393
15096SOL     OW46707   4.819   7.759   4.121 -0.5188 -0.2901  0.5632
15096SOL    HW146708   4.845   7.710   4.043 -0.2245  0.1877  0.3584
15096SOL    HW246709   4.901   7.790   4.158 -0.7702  1.5633 -0.3030
15097SOL     OW46710   7.462   8.264   7.052 -0.3903  0.5665 -0.6862
15097SOL    HW146711   7.439   8.339   7.107  1.7677  0.3708  0.6211
15097SOL    HW246712   7.423   8.189   7.096  1.8908  0.3188  1.1485
15098SOL     OW46713   5.567   0.269   6.286  0.0883 -0.3589 -0.6979
15098SOL    HW146714   5.556   0.268   6.381  2.0983 -0.2389 -0.4309
15098SOL    HW246715   5.568   0.362   6.263 -1.0322 -0.3885 -0.9608
15099SOL     OW46716   7.154   4.507   5.699 -0.3154 -0.0417 -1.0753
15099SOL    HW146717   7.091   4.496   5.770 -1.6090  1.4452 -1.9357
15099SOL    HW246718   7.103   4.491   5.619  0.5087  0.6719 -1.7639
15100SOL     OW46719   6.850   4.268   1.127 -0.2667  0.1652  0.7794
15100SOL    HW146720   6.812   4.231   1.207 -0.3219 -0.9956  0.2277
15100SOL    HW246721   6.942   4.242   1.130 -0.2042  0.3581  0.5854
15101SOL     OW46722   7.980   7.799   1.838 -0.1937 -0.2815 -0.1845
15101SOL    HW146723   8.015   7.887   1.822  0.1689  0.1267  2.3970
15101SOL    HW246724   8.057   7.748   1.864 -0.7101 -0.7829  0.3946
15102SOL     OW46725   3.373   0.679   5.478  0.1154  0.1057 -0.2649
15102SOL    HW146726   3.339   0.636   5.399 -0.3117  0.7280 -0.4385
15102SOL    HW246727   3.314   0.754   5.490  2.0052  1.8332 -1.1526
15103SOL     OW46728   7.703   5.461   2.608  1.0169 -0.4044 -0.1100
15103SOL    HW146729   7.782   5.515   2.621  1.3127 -0.2993 -2.1010
15103SOL    HW246730   7.717   5.417   2.525 -0.3975 -1.5551  0.2189
15104SOL     OW46731   0.829   4.542   6.354  0.4615 -0.5291 -0.2616
15104SOL    HW146732   0.876   4.471   6.310  0.6416  0.0000 -0.9496
15104SOL    HW246733   0.767   4.498   6.412  0.7172 -1.2443 -0.5206
15105SOL     OW46734   0.736   5.701   7.747 -0.1352  0.4259  0.3234
15105SOL    HW146735   0.668   5.677   7.683  0.8441  1.4336 -1.1443
15105SOL    HW246736   0.795   5.626   7.749 -0.2568  0.3270  0.1805
15106SOL     OW46737   2.027   1.772   7.820 -0.4910 -0.0341 -0.5578
15106SOL    HW146738   2.105   1.785   7.875 -1.0539 -1.5972  0.6875
15106SOL    HW246739   2.060   1.783   7.731  1.1251 -0.4196 -0.0588
15107SOL     OW46740   3.371   1.530   5.953  0.5455  0.1002 -0.6032
15107SOL    HW146741   3.315   1.484   6.015  1.2914 -0.3912 -0.2831
15107SOL    HW246742   3.380   1.618   5.988  1.2606 -0.2787  0.1959
15108SOL     OW46743   0.243   4.723   6.890  0.3115  0.6191 -0.3684
15108SOL    HW146744   0.245   4.785   6.817 -0.1173  2.7281  1.2938
15108SOL    HW246745   0.151   4.700   6.900  0.5334 -0.8485 -1.3567
15109SOL     OW46746   2.785   1.646   3.208  0.0719 -0.2696 -0.2863
15109SOL    HW146747   2.767   1.738   3.188 -1.9723 -0.8153 -1.2828
15109SOL    HW246748   2.802   1.606   3.123 -0.4917 -1.0762 -0.0283
15110SOL     OW46749   4.972   8.344   0.629  0.4973 -0.2379  0.3972
15110SOL    HW146750   4.912   8.374   0.697  1.0023  0.9258  0.3494
15110SOL    HW246751   4.966   8.411   0.561  0.0857 -1.3165 -0.6743
15111SOL     OW46752   5.033   0.088   3.221  0.1247  0.2404  0.4596
15111SOL    HW146753   5.080   0.170   3.203 -0.9235  1.3333  2.4159
15111SOL    HW246754   4.953   0.095   3.169  1.2238 -0.8471 -1.5144
15112SOL     OW46755   6.760   1.761   1.588  0.4674  0.2092 -0.5066
15112SOL    HW146756   6.693   1.792   1.527  0.4952 -0.2179 -0.7577
15112SOL    HW246757   6.720   1.685   1.631  1.1625 -0.6769 -1.3991
15113SOL     OW46758   2.435   2.897   6.967 -0.0018  0.0276 -0.4971
15113SOL    HW146759   2.448   2.897   7.062 -1.1386 -0.2407 -0.3229
15113SOL    HW246760   2.364   2.959   6.952 -0.2449 -0.3787 -1.1041
15114SOL     OW46761   5.421   5.846   1.865  0.1799 -0.3654  0.2888
15114SOL    HW146762   5.449   5.755   1.871  1.7944 -0.0197 -0.9416
15114SOL    HW246763   5.331   5.842   1.833 -0.2921 -1.5327  1.6933
15115SOL     OW46764   2.606   4.532   8.287  0.7831 -0.1743 -0.0180
15115SOL    HW146765   2.634   4.583   8.362 -0.9412 -1.6153  1.7092
15115SOL    HW246766   2.670   4.461   8.280 -0.1148 -1.2017  1.4549
15116SOL     OW46767   0.708   6.290   7.456  0.1474 -0.1280  0.4491
15116SOL    HW146768   0.768   6.217   7.472  0.2658 -0.1508 -0.0715
15116SOL    HW246769   0.672   6.272   7.369  0.4375  0.6069  0.1710
15117SOL     OW46770   7.488   2.205   0.445 -0.0546 -0.0181 -0.5811
15117SOL    HW146771   7.466   2.269   0.513  1.1315  1.6202 -1.6650
15117SOL    HW246772   7.409   2.151   0.438 -1.1493  1.3548  0.3366
15118SOL     OW46773   4.545   4.343   7.347 -0.6223 -0.2088 -0.0266
15118SOL    HW146774   4.530   4.428   7.390  0.2582 -0.8650  1.6765
15118SOL    HW246775   4.484   4.283   7.391  0.3032 -0.9012  0.3382
15119SOL     OW46776   4.138   1.748   6.278 -0.1921  0.3497  0.7337
15119SOL    HW146777   4.090   1.669   6.253 -1.0237  0.6085  1.4668
15119SOL    HW246778   4.135   1.804   6.200  0.6718 -0.4522  0.1038
15120SOL     OW46779   8.211   7.926   4.564 -0.0504 -1.0192  0.0573
15120SOL    HW146780   8.237   7.895   4.477 -0.9987 -2.1226  0.1416
15120SOL    HW246781   8.197   7.846   4.614 -0.7674 -0.4141  0.8490
15121SOL     OW46782   6.319   4.726   2.440  0.1791  0.0982 -0.5529
15121SOL    HW146783   6.403   4.722   2.394  0.3487  2.2579 -0.5606
15121SOL    HW246784   6.278   4.641   2.424  2.9985 -1.6826  0.7826
15122SOL     OW46785   1.370   4.777   8.302 -0.1090  0.0475 -0.0088
15122SOL    HW146786   1.348   4.699   8.353  2.5076  0.8330  2.5369
15122SOL    HW246787   1.338   4.850   8.355 -1.8719  0.8507 -2.0220
15123SOL     OW46788   0.590   5.641   7.511 -0.2196  0.4973  0.0827
15123SOL    HW146789   0.539   5.594   7.445 -1.5179 -1.3543  2.2407
15123SOL    HW246790   0.528   5.701   7.551 -0.4895 -0.8729  1.8757
15124SOL     OW46791   7.222   2.564   4.050  0.2958 -0.0218  0.0424
15124SOL    HW146792   7.163   2.493   4.073  0.9000 -1.2369 -1.9241
15124SOL    HW246793   7.288   2.564   4.119 -0.3723 -0.5499  0.7049
15125SOL     OW46794   2.589   7.556   5.522 -0.1976  0.7294 -0.3574
15125SOL    HW146795   2.614   7.583   5.434  2.1141 -1.1890 -0.4118
15125SOL    HW246796   2.497   7.578   5.530 -0.0567  2.4159 -2.6497
15126SOL     OW46797   0.463   1.033   7.770 -0.3813 -0.6439  0.4047
15126SOL    HW146798   0.484   1.077   7.852  1.2218 -0.2630 -0.1720
15126SOL    HW246799   0.476   1.099   7.702 -1.0647 -1.1324 -0.2267
15127SOL     OW46800   1.891   2.320   4.778 -0.3619 -0.1210 -0.2073
15127SOL    HW146801   1.965   2.366   4.817  1.7994 -1.6340 -2.2027
15127SOL    HW246802   1.905   2.327   4.683 -1.1080 -2.8553 -0.6307
15128SOL     OW46803   4.832   8.062   0.352 -0.8097 -0.7952  1.2438
15128SOL    HW146804   4.821   8.150   0.314 -2.2800 -1.2325  0.5823
15128SOL    HW246805   4.795   8.069   0.440 -1.8353 -0.9724  0.8427
15129SOL     OW46806   0.051   4.655   6.115  0.1673  0.2584 -0.0407
15129SOL    HW146807   0.095   4.570   6.115 -2.5068 -1.2551  0.8466
15129SOL    HW246808   0.049   4.680   6.208 -0.7919  0.2877 -0.0638
15130SOL     OW46809   1.683   5.192   0.638 -0.4484 -0.6283 -0.0225
15130SOL    HW146810   1.720   5.128   0.699 -0.3307  0.1068  0.6926
15130SOL    HW246811   1.655   5.264   0.694 -0.7023 -0.1100 -0.8084
15131SOL     OW46812   4.832   5.173   6.110 -0.7966 -0.0852  0.4071
15131SOL    HW146813   4.808   5.080   6.109 -1.1261 -0.0057 -0.4298
15131SOL    HW246814   4.902   5.179   6.175  1.4632 -1.5217 -1.6886
15132SOL     OW46815   2.080   6.365   3.879  0.1009 -0.0580  0.0947
15132SOL    HW146816   2.037   6.325   3.803 -1.1121 -0.0789  0.7666
15132SOL    HW246817   2.034   6.328   3.955  1.4274 -0.2020  0.8621
15133SOL     OW46818   2.711   2.259   4.963 -0.5800  0.0255 -0.1101
15133SOL    HW146819   2.796   2.304   4.961 -0.3820 -0.2805  0.9763
15133SOL    HW246820   2.667   2.295   5.040 -1.3637  0.0376 -0.5562
15134SOL     OW46821   3.401   6.885   3.468 -0.2673 -0.2554  0.6790
15134SOL    HW146822   3.366   6.834   3.542 -1.6361 -1.6197 -0.8437
15134SOL    HW246823   3.324   6.916   3.422  0.5434  2.6960  1.1243
15135SOL     OW46824   4.029   1.541   7.705  0.4207 -0.0564 -0.2968
15135SOL    HW146825   3.980   1.622   7.711  1.8322  0.7111  2.5799
15135SOL    HW246826   4.100   1.560   7.643  0.9364  1.0926  0.5967
15136SOL     OW46827   3.798   6.423   0.333 -0.5048  0.3240 -0.2851
15136SOL    HW146828   3.886   6.395   0.307  0.1846  3.4894 -1.9869
15136SOL    HW246829   3.804   6.439   0.427  0.7625  0.4458 -0.3679
15137SOL     OW46830   4.662   7.915   7.419  0.4184 -0.4188 -0.2789
15137SOL    HW146831   4.682   7.894   7.327 -1.3545 -1.6468 -0.4357
15137SOL    HW246832   4.744   7.948   7.454  1.0822  0.3391 -2.3846
15138SOL     OW46833   2.757   8.147   1.155 -0.2875 -0.3341 -0.0636
15138SOL    HW146834   2.755   8.052   1.160  0.5064 -0.4321 -1.1039
15138SOL    HW246835   2.784   8.166   1.065 -1.2755  0.8884 -0.1408
15139SOL     OW46836   2.829   3.081   4.285 -0.0852  0.0217  0.1896
15139SOL    HW146837   2.770   3.008   4.305  0.9134 -1.3312 -1.4977
15139SOL    HW246838   2.775   3.142   4.235 -0.0998 -1.2673 -1.4625
15140SOL     OW46839   6.185   4.487   5.426 -0.0189 -0.1061 -0.1779
15140SOL    HW146840   6.157   4.399   5.402  0.5134 -0.1822 -0.5407
15140SOL    HW246841   6.168   4.539   5.348 -2.4401  0.6239  0.7481
15141SOL     OW46842   5.700   4.325   3.959  0.0144 -0.4376 -0.3900
15141SOL    HW146843   5.682   4.315   3.866  0.4670  0.8223 -0.6315
15141SOL    HW246844   5.614   4.319   4.001 -0.0350 -2.6614 -0.6858
15142SOL     OW46845   1.986   2.776   4.686  0.7671  0.5643 -1.1438
15142SOL    HW146846   2.047   2.708   4.713  2.2307  1.8341 -1.0852
15142SOL    HW246847   1.902   2.751   4.725  1.3853 -0.9086 -0.7098
15143SOL     OW46848   0.106   1.529   6.346 -0.3260 -0.1771 -0.0344
15143SOL    HW146849   0.147   1.498   6.265  0.0016  2.6521 -1.0795
15143SOL    HW246850   0.017   1.496   6.342 -0.5008  0.4109 -1.8936
15144SOL     OW46851   2.053   7.183   3.449  0.1973 -0.5808 -0.6213
15144SOL    HW146852   2.070   7.118   3.380  0.8845  0.6359 -1.6521
15144SOL    HW246853   2.120   7.249   3.435 -0.9623  0.7442 -0.1058
15145SOL     OW46854   8.242   3.696   3.133 -0.0838  0.0255  0.2987
15145SOL    HW146855   8.183   3.625   3.159  0.6306  0.0066  1.9506
15145SOL    HW246856   8.202   3.775   3.168  0.8564  0.0089  1.4609
15146SOL     OW46857   5.550   7.411   6.246  0.0258  0.1226 -0.6211
15146SOL    HW146858   5.570   7.411   6.340  1.3065 -1.3106 -0.8593
15146SOL    HW246859   5.635   7.414   6.203 -0.4915 -0.5446 -1.7356
15147SOL     OW46860   5.084   5.111   4.650  0.2220  0.8031  0.1802
15147SOL    HW146861   5.074   5.135   4.742 -0.4339  0.2641  0.2518
15147SOL    HW246862   5.061   5.191   4.602 -0.4978  0.7759  0.4620
15148SOL     OW46863   2.500   5.440   6.187 -0.3605 -0.9566  0.5108
15148SOL    HW146864   2.505   5.345   6.199  2.0709 -1.4806 -2.9275
15148SOL    HW246865   2.588   5.465   6.158 -1.7779  1.7019 -2.1202
15149SOL     OW46866   6.090   6.556   4.159 -0.4132  0.0672  0.4232
15149SOL    HW146867   6.053   6.603   4.234 -0.4776  0.7159 -0.0120
15149SOL    HW246868   6.018   6.501   4.128  0.0545 -1.3583  1.7551
15150SOL     OW46869   2.641   6.582   1.554 -0.2381 -0.1588  0.1897
15150SOL    HW146870   2.645   6.609   1.463  0.6278 -0.1518  0.2191
15150SOL    HW246871   2.699   6.507   1.560 -0.3396 -0.2031  0.7185
15151SOL     OW46872   5.080   5.872   4.741 -0.0100  0.0539  0.0498
15151SOL    HW146873   5.002   5.847   4.790 -0.5563  0.0629 -0.8064
15151SOL    HW246874   5.140   5.907   4.808 -1.0857  0.8905  0.6029
15152SOL     OW46875   4.247   3.037   6.844  0.1060  0.5390  0.1827
15152SOL    HW146876   4.239   3.001   6.755 -0.7657  1.0217  0.0580
15152SOL    HW246877   4.234   3.131   6.833 -2.8453  0.3183  1.1572
15153SOL     OW46878   2.410   6.478   8.234  0.2957 -0.0673 -0.7928
15153SOL    HW146879   2.355   6.497   8.158  0.1220  1.2000 -0.3766
15153SOL    HW246880   2.497   6.505   8.208 -0.0001  1.6230 -0.1013
15154SOL     OW46881   1.072   7.953   7.752  0.2618 -0.1592  0.2135
15154SOL    HW146882   1.105   8.040   7.728  0.9047  0.0367  1.6631
15154SOL    HW246883   1.070   7.904   7.670 -2.7491  2.0008 -1.2044
15155SOL     OW46884   0.119   6.859   3.879  0.5177  0.0596 -0.0364
15155SOL    HW146885   0.155   6.948   3.876  2.6880 -0.5476  3.1075
15155SOL    HW246886   0.028   6.871   3.907  0.9653  1.2775  0.9769
15156SOL     OW46887   1.146   3.215   2.680  0.7575 -0.0841 -0.3699
15156SOL    HW146888   1.174   3.256   2.762  0.8833 -1.5777  0.3743
15156SOL    HW246889   1.063   3.172   2.703  1.1162 -1.0448 -0.8479
15157SOL     OW46890   3.900   6.687   1.166  0.3551  0.3304  0.0737
15157SOL    HW146891   3.943   6.765   1.130 -2.1991  0.8336 -2.2654
15157SOL    HW246892   3.813   6.718   1.192  0.1868 -1.2588  1.5948
15158SOL     OW46893   7.966   2.885   4.394  0.2408  0.2720 -0.1605
15158SOL    HW146894   8.005   2.972   4.391 -0.5418  0.6036 -1.2352
15158SOL    HW246895   7.957   2.858   4.303 -1.1572 -0.1748  0.0717
15159SOL     OW46896   5.077   1.077   2.781 -0.0862 -0.2199 -0.0895
15159SOL    HW146897   4.982   1.072   2.768 -0.0762 -1.1421  0.1319
15159SOL    HW246898   5.088   1.130   2.860 -0.4555 -0.6659  0.2668
15160SOL     OW46899   5.558   2.719   7.109 -0.2856 -0.1734  0.2363
15160SOL    HW146900   5.648   2.745   7.126 -0.5003 -0.4760  2.1137
15160SOL    HW246901   5.565   2.639   7.057  0.5659 -0.5373  0.8832
15161SOL     OW46902   2.251   6.243   6.996  0.2807 -0.0153  0.0398
15161SOL    HW146903   2.238   6.294   6.916 -0.5490  1.1540  0.8870
15161SOL    HW246904   2.341   6.212   6.991  1.0238  2.0612 -0.2378
15162SOL     OW46905   0.799   3.202   1.886 -0.2189 -0.4230 -0.2993
15162SOL    HW146906   0.883   3.249   1.883  1.2977 -2.9786 -2.1076
15162SOL    HW246907   0.778   3.184   1.794 -3.4782  1.1759  0.0133
15163SOL     OW46908   1.994   4.439   2.601  0.2494  0.4521  0.0108
15163SOL    HW146909   1.996   4.499   2.675  0.8091 -0.4182  0.7246
15163SOL    HW246910   1.960   4.357   2.637  2.2330 -0.5510 -0.2131
15164SOL     OW46911   0.335   1.520   4.063 -0.0759  0.2814 -0.3161
15164SOL    HW146912   0.289   1.604   4.070 -0.6033  0.1956 -2.1465
15164SOL    HW246913   0.427   1.543   4.050 -0.3885  0.6616 -2.1036
15165SOL     OW46914   6.358   5.619   1.323 -0.5457  0.7477  0.0539
15165SOL    HW146915   6.450   5.595   1.337 -0.2019  0.7108 -1.8922
15165SOL    HW246916   6.319   5.618   1.410  0.9141 -0.8546  0.7521
15166SOL     OW46917   3.668   4.966   5.202 -0.0532 -0.5714  0.5575
15166SOL    HW146918   3.602   5.010   5.148  1.5866 -0.0562 -1.1241
15166SOL    HW246919   3.643   4.874   5.199  0.7743 -0.8153 -2.4379
15167SOL     OW46920   8.006   2.294   7.892  0.7862  0.1446 -0.0358
15167SOL    HW146921   8.006   2.298   7.987  0.1548 -0.5917  0.0008
15167SOL    HW246922   8.099   2.301   7.868  1.0210 -0.4566  0.6733
15168SOL     OW46923   5.100   4.826   4.880 -0.0623 -0.2730 -0.0811
15168SOL    HW146924   5.128   4.844   4.790  2.1144 -0.6256  0.4833
15168SOL    HW246925   5.161   4.874   4.935  0.1247 -1.9164  1.2496
15169SOL     OW46926   5.259   0.329   1.857  0.1534  0.0509  0.2976
15169SOL    HW146927   5.305   0.306   1.776 -0.4861  1.0524 -0.3717
15169SOL    HW246928   5.212   0.410   1.836  0.0186  0.3639  1.6927
15170SOL     OW46929   1.726   4.675   3.717  0.7382  0.1131  0.0662
15170SOL    HW146930   1.764   4.664   3.630  0.4585 -0.5113  0.0198
15170SOL    HW246931   1.736   4.768   3.735 -0.5349  0.5484 -1.2553
15171SOL     OW46932   0.656   0.718   7.174  1.0390 -0.1805  0.1711
15171SOL    HW146933   0.627   0.778   7.243 -0.6477 -0.8635  0.1180
15171SOL    HW246934   0.615   0.752   7.094  0.6201 -1.0136  0.0254
15172SOL     OW46935   6.280   3.450   6.145 -0.4792  0.9553  0.1057
15172SOL    HW146936   6.253   3.508   6.216 -2.3585 -1.7518  1.7951
15172SOL    HW246937   6.217   3.377   6.148 -0.8781  0.8096 -4.5961
15173SOL     OW46938   7.069   0.239   0.440  0.3608 -0.2319 -0.2575
15173SOL    HW146939   7.098   0.268   0.353  1.8317  0.8830  0.5505
15173SOL    HW246940   7.112   0.155   0.453  1.3118  0.2647 -0.0671
15174SOL     OW46941   0.164   0.138   7.972  0.6759  0.1517  0.0482
15174SOL    HW146942   0.146   0.162   7.881  0.7245  2.0116  0.4941
15174SOL    HW246943   0.132   0.212   8.024  0.2428 -1.0532  1.5956
15175SOL     OW46944   1.969   7.783   4.474 -0.9124 -0.8789  0.2012
15175SOL    HW146945   1.977   7.777   4.378  0.6525 -0.0386  0.2534
15175SOL    HW246946   2.007   7.868   4.496 -0.5103 -1.4131  1.6609
15176SOL     OW46947   6.312   5.751   7.164 -0.2210  0.2469 -0.4806
15176SOL    HW146948   6.357   5.780   7.243  0.5190 -1.0936 -0.3791
15176SOL    HW246949   6.227   5.720   7.194 -0.5423  1.1402 -0.4342
15177SOL     OW46950   2.402   8.053   7.039 -0.6119 -0.6168 -0.3031
15177SOL    HW146951   2.329   8.100   6.998 -0.6410 -1.4526 -1.2571
15177SOL    HW246952   2.405   7.969   6.993  1.6187 -0.2069 -1.0319
15178SOL     OW46953   0.377   5.163   6.677 -0.0246  0.9374 -0.2628
15178SOL    HW146954   0.450   5.213   6.641 -0.2567  2.7979  1.6726
15178SOL    HW246955   0.416   5.107   6.744 -0.2283  1.4478  0.3048
15179SOL     OW46956   3.079   1.127   0.258  0.5245 -0.0444 -0.3034
15179SOL    HW146957   3.092   1.222   0.265  1.7618 -0.1717 -0.6991
15179SOL    HW246958   3.167   1.090   0.263  0.0960 -1.1511 -0.6186
15180SOL     OW46959   5.058   5.952   5.699 -0.7717  0.5780 -0.0857
15180SOL    HW146960   5.064   5.872   5.647  0.0253  0.4602  0.1749
15180SOL    HW246961   5.145   5.991   5.693 -0.6628  0.5712  1.1219
15181SOL     OW46962   2.943   5.722   1.655  0.6645 -0.3263 -0.2007
15181SOL    HW146963   2.993   5.654   1.701 -0.3571 -0.5132  0.6558
15181SOL    HW246964   2.863   5.733   1.706  0.5285  1.1049 -0.6663
15182SOL     OW46965   4.487   4.526   3.614 -0.5081 -0.0381 -0.1877
15182SOL    HW146966   4.439   4.498   3.537 -0.1993  0.5075 -0.5877
15182SOL    HW246967   4.537   4.602   3.585  0.7805 -0.7295  0.1467
15183SOL     OW46968   1.351   1.044   1.937 -0.4967 -0.3615 -0.2250
15183SOL    HW146969   1.335   1.138   1.947 -1.1397 -0.5863  1.1882
15183SOL    HW246970   1.299   1.004   2.007 -0.7302 -1.8162 -1.1947
15184SOL     OW46971   7.522   3.479   4.587 -0.2605 -0.2046  0.3087
15184SOL    HW146972   7.438   3.495   4.631 -1.0689 -0.6594 -1.0130
15184SOL    HW246973   7.545   3.390   4.613 -1.8586 -1.3410 -1.8317
15185SOL     OW46974   8.369   7.892   7.879 -0.5603 -0.3392  0.2555
15185SOL    HW146975   8.316   7.955   7.830 -1.3302  0.1040  1.6362
15185SOL    HW246976   8.351   7.808   7.837 -0.3207  0.1721 -0.9374
15186SOL     OW46977   6.254   4.707   4.286 -0.0303  0.3123  0.2594
15186SOL    HW146978   6.240   4.623   4.242  0.3987  0.3754 -0.0018
15186SOL    HW246979   6.349   4.718   4.286 -0.0755  0.6947  0.4873
15187SOL     OW46980   2.106   5.875   2.498 -0.4371 -0.4464 -0.6451
15187SOL    HW146981   2.186   5.912   2.535 -0.2674 -0.4162 -1.0353
15187SOL    HW246982   2.040   5.885   2.566 -0.3604  0.4642 -0.6981
15188SOL     OW46983   0.530   3.279   4.436 -0.4877 -0.0155  0.1301
15188SOL    HW146984   0.477   3.215   4.484 -0.5334 -0.7693 -0.9037
15188SOL    HW246985   0.492   3.282   4.349 -0.1521  1.0470  0.0037
15189SOL     OW46986   0.813   4.006   4.120 -0.6501 -0.4339  0.6578
15189SOL    HW146987   0.766   3.941   4.069 -0.8598 -0.8817  1.4174
15189SOL    HW246988   0.786   4.090   4.082 -0.0231 -0.7792 -0.6330
15190SOL     OW46989   3.262   7.417   0.973  0.3298 -0.4489 -0.2390
15190SOL    HW146990   3.249   7.454   1.060 -0.1722 -1.0416 -0.0598
15190SOL    HW246991   3.176   7.423   0.930  0.7128  0.4285 -0.9383
15191SOL     OW46992   4.476   6.417   3.148 -0.2066 -0.3518 -0.2041
15191SOL    HW146993   4.522   6.414   3.064 -0.0858 -2.4815 -0.1361
15191SOL    HW246994   4.543   6.441   3.212  0.3946 -1.5153 -0.3713
15192SOL     OW46995   3.016   5.256   0.776 -0.5174 -0.1312 -0.1487
15192SOL    HW146996   2.921   5.267   0.782 -0.3305  0.9284  1.4611
15192SOL    HW246997   3.052   5.334   0.818  1.1236  0.4439 -2.4107
15193SOL     OW46998   2.227   4.071   3.544  0.7548 -0.2591  0.7947
15193SOL    HW146999   2.244   4.140   3.479 -1.7554 -3.3008 -3.7142
15193SOL    HW247000   2.132   4.073   3.556  0.7924 -1.9433  1.6789
15194SOL     OW47001   2.850   1.912   5.065 -0.0194 -0.2293  0.4751
15194SOL    HW147002   2.841   2.001   5.030 -0.1701 -0.5268 -0.2517
15194SOL    HW247003   2.944   1.894   5.059 -0.2854 -1.2357 -2.2539
15195SOL     OW47004   0.234   7.574   7.174 -0.8473  0.3805 -0.1929
15195SOL    HW147005   0.248   7.502   7.113 -0.6507 -1.3912  1.8398
15195SOL    HW247006   0.141   7.595   7.166 -1.3041 -1.3062  0.4209
15196SOL     OW47007   0.237   5.305   1.203 -0.4749  0.7698 -0.2964
15196SOL    HW147008   0.330   5.319   1.222 -0.4021  0.1761 -0.2052
15196SOL    HW247009   0.229   5.329   1.111 -0.1305  0.3619 -0.4364
15197SOL     OW47010   0.253   7.127   5.760  0.3669  0.0313  0.0179
15197SOL    HW147011   0.294   7.102   5.678 -0.0954 -0.1672 -0.1554
15197SOL    HW247012   0.322   7.173   5.809  0.9687 -0.8120 -0.0204
15198SOL     OW47013   4.491   6.372   7.206  0.3821 -0.5250  0.3115
15198SOL    HW147014   4.516   6.281   7.221  0.0732 -0.5552  0.6665
15198SOL    HW247015   4.397   6.375   7.225  0.3911 -0.1304  0.3169
15199SOL     OW47016   5.013   4.728   6.280 -0.1522  0.4835 -0.3950
15199SOL    HW147017   5.096   4.764   6.311  0.2815 -0.1855 -0.7434
15199SOL    HW247018   4.977   4.683   6.356 -0.5855  1.4389 -0.0239
15200SOL     OW47019   2.627   5.841   7.416  0.1050  0.0084 -0.7363
15200SOL    HW147020   2.544   5.849   7.370  0.5247  0.0442 -1.4910
15200SOL    HW247021   2.685   5.904   7.373 -0.1626  1.8483  1.3839
15201SOL     OW47022   6.044   3.702   2.527  0.4864 -0.2092  0.0894
15201SOL    HW147023   5.983   3.661   2.466 -0.1823  0.7065  0.1430
15201SOL    HW247024   6.118   3.730   2.472  0.7594 -1.0802 -0.0090
15202SOL     OW47025   1.296   3.617   3.163 -0.3030 -0.8888  0.1642
15202SOL    HW147026   1.368   3.646   3.106 -2.0172 -0.6259 -2.0060
15202SOL    HW247027   1.220   3.612   3.105 -1.4549 -3.9508  1.7160
15203SOL     OW47028   7.241   1.057   3.568 -0.0071  0.0218  0.3365
15203SOL    HW147029   7.161   1.079   3.521 -0.1099  1.0228  0.9439
15203SOL    HW247030   7.220   0.978   3.617 -0.8525  0.6707  1.0378
15204SOL     OW47031   3.440   0.506   0.867 -0.0696  0.3983  0.3290
15204SOL    HW147032   3.386   0.427   0.871 -3.3158  2.3759 -1.3074
15204SOL    HW247033   3.422   0.552   0.949 -0.0994  0.6235  0.1960
15205SOL     OW47034   1.627   7.557   6.400  0.6691  0.6957  0.5142
15205SOL    HW147035   1.551   7.613   6.388  1.1591  1.1971 -0.2886
15205SOL    HW247036   1.693   7.614   6.441  0.6187  0.2583  1.2307
15206SOL     OW47037   6.858   6.375   4.713  0.2602 -0.4756 -0.1821
15206SOL    HW147038   6.872   6.459   4.757  0.6117 -0.7154  0.1709
15206SOL    HW247039   6.793   6.330   4.767  2.8254 -2.0047  1.8495
15207SOL     OW47040   3.556   7.596   6.265  0.2051 -0.1635  0.3958
15207SOL    HW147041   3.595   7.561   6.185 -0.8095  0.9339 -0.6243
15207SOL    HW247042   3.594   7.683   6.274  0.2330 -0.2357  1.0864
15208SOL     OW47043   7.624   3.275   0.494 -1.1124  0.0994 -0.5059
15208SOL    HW147044   7.643   3.188   0.459 -0.7862 -0.7899  1.7297
15208SOL    HW247045   7.655   3.335   0.426  0.5970 -1.4783 -1.2218
15209SOL     OW47046   7.577   0.267   0.083 -0.2977 -0.3490  0.0615
15209SOL    HW147047   7.516   0.289   0.013  1.2152  0.9102 -0.9382
15209SOL    HW247048   7.546   0.317   0.159 -2.7455 -2.7701  0.8056
15210SOL     OW47049   0.227   0.128   0.534  0.3351  0.3609  0.4774
15210SOL    HW147050   0.194   0.038   0.545 -1.3222  0.7896 -0.5462
15210SOL    HW247051   0.322   0.119   0.536  0.2232 -1.1402  2.3720
15211SOL     OW47052   6.767   7.749   1.140  0.2489 -0.2144  0.8218
15211SOL    HW147053   6.699   7.683   1.129 -0.0312  0.4455 -6.5688
15211SOL    HW247054   6.720   7.831   1.155 -0.4716 -0.2443 -1.0304
15212SOL     OW47055   0.738   8.132   3.530 -0.6813 -0.1237 -0.4489
15212SOL    HW147056   0.770   8.189   3.460  0.5084  1.9973  1.6591
15212SOL    HW247057   0.658   8.175   3.561 -0.6502 -0.4718  0.1274
15213SOL     OW47058   0.025   2.974   0.138  0.0805 -0.9190 -0.1593
15213SOL    HW147059   0.111   3.004   0.109 -0.0819 -0.2270  0.0522
15213SOL    HW247060   0.043   2.899   0.195  0.7464  0.8106  2.0512
15214SOL     OW47061   8.341   7.059   6.297 -0.4985 -0.0752 -0.0238
15214SOL    HW147062   8.435   7.046   6.305 -0.4436  0.6595  0.6090
15214SOL    HW247063   8.316   7.010   6.218  0.6269  0.8490 -0.9813
15215SOL     OW47064   2.996   4.565   1.784 -0.8395 -0.1746  0.2879
15215SOL    HW147065   2.986   4.476   1.817 -1.3223  0.6649  2.6055
15215SOL    HW247066   2.910   4.587   1.748 -1.2824 -0.0421  1.3921
15216SOL     OW47067   2.633   1.991   6.506 -0.0693  0.0957 -0.1006
15216SOL    HW147068   2.680   2.047   6.445  0.1200 -0.2165 -0.2430
15216SOL    HW247069   2.666   1.903   6.489  1.0121  0.1719  1.4166
15217SOL     OW47070   2.832   0.992   3.120  0.1152  0.4349 -0.6338
15217SOL    HW147071   2.911   0.957   3.161 -1.0784 -2.7769 -0.8260
15217SOL    HW247072   2.848   0.985   3.026 -0.7542 -1.2707 -0.6835
15218SOL     OW47073   5.220   2.309   4.514 -0.0825  0.7201  0.5170
15218SOL    HW147074   5.271   2.388   4.533  1.6277 -0.3669  0.6286
15218SOL    HW247075   5.185   2.282   4.599  0.5765  0.5376  0.7345
15219SOL     OW47076   1.091   0.942   0.110 -0.5697  0.4987 -0.0305
15219SOL    HW147077   1.043   0.964   0.030 -1.2475  1.2289  0.5605
15219SOL    HW247078   1.117   0.851   0.097  2.7474  1.6136 -2.7565
15220SOL     OW47079   2.626   6.215   1.727  0.4870 -0.0534 -0.0004
15220SOL    HW147080   2.628   6.124   1.757  1.0088 -0.4464 -1.1647
15220SOL    HW247081   2.694   6.220   1.660  1.5314  1.6071  1.1134
15221SOL     OW47082   8.263   2.821   4.228  0.1230 -0.0486 -0.2817
15221SOL    HW147083   8.177   2.841   4.191  0.0429 -0.5059 -0.3459
15221SOL    HW247084   8.254   2.733   4.264  0.8226 -0.4690 -1.0983
15222SOL     OW47085   3.525   1.936   5.973  0.0745 -0.3209  0.0021
15222SOL    HW147086   3.474   1.901   5.899  1.4797  1.0127 -1.6604
15222SOL    HW247087   3.474   1.911   6.050 -2.0593 -0.7681 -1.4603
15223SOL     OW47088   0.812   4.187   5.135 -0.2593  0.1935 -0.6341
15223SOL    HW147089   0.748   4.189   5.064 -1.2560 -0.2088  0.2254
15223SOL    HW247090   0.835   4.095   5.144  1.6680  0.4991 -1.9733
15224SOL     OW47091   0.234   6.082   6.519 -0.5858 -0.4359 -0.1636
15224SOL    HW147092   0.166   6.148   6.531  0.0181  0.6641 -2.2970
15224SOL    HW247093   0.253   6.084   6.425  0.0782 -3.0618 -0.1508
15225SOL     OW47094   3.889   4.694   7.099 -0.5937 -0.4917 -0.1967
15225SOL    HW147095   3.925   4.643   7.171 -0.6919  0.5069  0.5868
15225SOL    HW247096   3.860   4.776   7.140 -1.2232 -0.1583 -1.2686
15226SOL     OW47097   0.149   0.925   5.256 -0.3157 -0.2858  0.6565
15226SOL    HW147098   0.119   0.837   5.275  0.7751 -0.8651 -0.1452
15226SOL    HW247099   0.208   0.947   5.329 -1.1438  0.0908  1.2319
15227SOL     OW47100   3.664   5.691   2.376 -0.6089 -0.6469  0.1377
15227SOL    HW147101   3.716   5.624   2.331  1.4916  0.8811  0.1728
15227SOL    HW247102   3.600   5.719   2.311 -0.2126 -1.2743 -0.5410
15228SOL     OW47103   4.213   0.079   1.930  0.2390 -0.0647  0.5401
15228SOL    HW147104   4.264   0.012   1.885 -0.5734 -0.7217  0.5868
15228SOL    HW247105   4.122   0.061   1.906  0.0968  1.9804 -0.7602
15229SOL     OW47106   2.280   4.778   5.607 -0.3182 -0.0065 -0.0872
15229SOL    HW147107   2.194   4.819   5.623 -0.4689  0.1692 -1.2369
15229SOL    HW247108   2.293   4.787   5.512  0.8666 -0.2483  0.0378
15230SOL     OW47109   3.251   6.196   6.165 -0.3503  0.4105  0.0203
15230SOL    HW147110   3.337   6.225   6.195 -0.6734  1.4266  0.0111
15230SOL    HW247111   3.241   6.234   6.078 -0.2107 -0.9429 -0.6201
15231SOL     OW47112   2.284   3.506   2.202  0.2592 -0.1760  0.1267
15231SOL    HW147113   2.205   3.455   2.184  0.6578 -0.6465 -0.3633
15231SOL    HW247114   2.351   3.466   2.146  0.2895  1.7217 -1.2954
15232SOL     OW47115   4.460   5.776   5.309  0.0331 -0.3263  0.2169
15232SOL    HW147116   4.454   5.853   5.366 -2.3398  0.1890 -0.6206
15232SOL    HW247117   4.423   5.805   5.226 -0.2389 -2.1752 -0.3436
15233SOL     OW47118   6.674   3.063   1.859 -0.3783 -0.6528  0.3369
15233SOL    HW147119   6.731   3.098   1.791 -0.4171 -3.5417 -1.3715
15233SOL    HW247120   6.594   3.115   1.852  0.7682  1.2151  0.4473
15234SOL     OW47121   4.733   3.308   3.475  0.0724 -0.0170  0.3767
15234SOL    HW147122   4.755   3.365   3.549  0.9467 -0.9998  0.8905
15234SOL    HW247123   4.817   3.273   3.446 -0.1572  0.9702 -1.6142
15235SOL     OW47124   6.091   4.516   6.416  0.1287 -0.5866  0.2282
15235SOL    HW147125   6.160   4.486   6.475 -0.8437 -2.3128  0.5707
15235SOL    HW247126   6.013   4.521   6.471 -0.9680 -2.9490 -0.9617
15236SOL     OW47127   7.816   2.823   0.212 -0.3032  0.1810  0.4536
15236SOL    HW147128   7.786   2.827   0.121 -1.7390 -1.5944  0.7995
15236SOL    HW247129   7.752   2.768   0.256  0.9918  0.0778  2.3197
15237SOL     OW47130   5.938   3.548   8.007 -0.2590 -0.6455  0.1915
15237SOL    HW147131   5.857   3.497   8.015 -0.3977 -0.2791  1.3292
15237SOL    HW247132   5.909   3.639   8.006  0.0368 -0.5413 -1.1455
15238SOL     OW47133   4.845   4.245   1.589 -0.3898  0.2014  0.2255
15238SOL    HW147134   4.885   4.282   1.668 -1.1792  0.7171  0.4025
15238SOL    HW247135   4.762   4.209   1.619 -0.2793 -0.4267 -0.2136
15239SOL     OW47136   2.504   6.215   0.895 -0.2171 -0.6123 -0.0839
15239SOL    HW147137   2.563   6.260   0.833 -0.1773 -0.2080  0.2461
15239SOL    HW247138   2.420   6.259   0.883  0.4516  1.5713  2.2692
15240SOL     OW47139   6.302   7.767   3.153  0.5950  0.2061  0.0009
15240SOL    HW147140   6.346   7.706   3.094  0.5474 -0.3663  0.5491
15240SOL    HW247141   6.272   7.713   3.226  0.5678  0.8886  0.5066
15241SOL     OW47142   3.873   0.580   7.807 -0.2184 -0.3020 -0.0103
15241SOL    HW147143   3.810   0.539   7.866 -2.6783  1.5142 -1.1810
15241SOL    HW247144   3.911   0.652   7.857 -1.0702  0.2177 -0.0916
15242SOL     OW47145   2.029   1.218   3.109 -0.0981  0.7347  0.1491
15242SOL    HW147146   2.097   1.180   3.164 -0.6558  0.0426  0.3667
15242SOL    HW247147   1.948   1.174   3.136  0.0283 -2.2301 -3.5119
15243SOL     OW47148   2.788   4.205   2.155 -0.2246 -0.1102  0.1703
15243SOL    HW147149   2.717   4.268   2.165  0.4229  0.4627  1.2615
15243SOL    HW247150   2.868   4.255   2.166  0.4019 -0.6978 -1.3295
15244SOL     OW47151   1.386   7.762   6.380 -0.4563 -0.1192  0.1573
15244SOL    HW147152   1.359   7.850   6.406  0.8745 -0.3025  2.4477
15244SOL    HW247153   1.435   7.774   6.298 -0.5167  1.2346  0.3080
15245SOL     OW47154   0.693   5.249   0.058 -0.3282  0.1499 -0.0334
15245SOL    HW147155   0.616   5.245   0.001 -0.2622 -0.2795 -0.0990
15245SOL    HW247156   0.714   5.342   0.065  1.2052  0.1032 -2.7575
15246SOL     OW47157   1.859   6.624   0.441 -0.5202  0.2883  0.2136
15246SOL    HW147158   1.812   6.698   0.403 -0.6091 -0.3095 -0.8892
15246SOL    HW247159   1.830   6.549   0.389 -0.7950 -0.5975  1.6218
15247SOL     OW47160   4.576   6.496   7.790 -0.5223  0.2806 -0.5646
15247SOL    HW147161   4.608   6.584   7.769 -1.3666  0.6147 -0.5108
15247SOL    HW247162   4.532   6.467   7.710  2.1644 -1.2896 -1.5938
15248SOL     OW47163   0.424   5.613   2.718  0.1204 -0.1218  0.4912
15248SOL    HW147164   0.417   5.703   2.688 -1.5883 -0.2266  0.4938
15248SOL    HW247165   0.507   5.611   2.767  0.7603  1.1313 -0.4804
15249SOL     OW47166   5.107   6.137   8.137 -0.5653 -0.4688 -0.1866
15249SOL    HW147167   5.195   6.170   8.151  0.2126 -1.3350 -2.5867
15249SOL    HW247168   5.084   6.094   8.220  1.2080 -0.1410  0.5171
15250SOL     OW47169   7.378   6.643   5.106 -0.0120  0.1343 -0.4523
15250SOL    HW147170   7.402   6.584   5.035  1.4101  1.2417 -0.9325
15250SOL    HW247171   7.372   6.587   5.183  2.8853 -0.4476 -0.5627
15251SOL     OW47172   7.190   5.782   1.885  0.1700  0.0110 -0.1789
15251SOL    HW147173   7.167   5.702   1.932 -0.9494  0.0227 -0.6896
15251SOL    HW247174   7.159   5.853   1.941  0.4741  0.0777 -0.0901
15252SOL     OW47175   7.239   6.790   2.958 -0.3155  0.4741  0.4066
15252SOL    HW147176   7.179   6.801   2.884  1.3512  1.4407 -0.8936
15252SOL    HW247177   7.327   6.793   2.918  0.6255  0.1428  2.3310
15253SOL     OW47178   3.347   6.491   5.127  0.3560  0.0242  0.5992
15253SOL    HW147179   3.383   6.472   5.040  0.2448 -0.1070  0.5810
15253SOL    HW247180   3.295   6.414   5.148 -1.9874  1.2058 -0.4673
15254SOL     OW47181   1.509   7.242   7.998 -0.3993  0.3509  0.2109
15254SOL    HW147182   1.521   7.148   7.981 -0.7275  0.1096  1.2503
15254SOL    HW247183   1.584   7.284   7.955 -0.3781 -0.3587 -0.4691
15255SOL     OW47184   5.071   7.568   8.162 -0.3738  0.0971  0.4458
15255SOL    HW147185   5.037   7.524   8.240 -0.3978 -0.7543 -0.0329
15255SOL    HW247186   5.163   7.544   8.159  0.0293  1.4397  1.0830
15256SOL     OW47187   8.266   7.322   1.561  0.0118  0.3765 -0.6653
15256SOL    HW147188   8.175   7.329   1.590 -0.9402 -0.2685 -3.1929
15256SOL    HW247189   8.309   7.269   1.628 -1.8631 -0.5799 -0.1498
15257SOL     OW47190   4.066   2.796   0.403  0.1161 -0.1237  0.0028
15257SOL    HW147191   4.026   2.839   0.479  0.0063 -1.6492  0.8698
15257SOL    HW247192   4.156   2.777   0.431  0.3244  0.0248 -0.5600
15258SOL     OW47193   7.881   6.702   7.009 -0.2654  0.1750 -0.2302
15258SOL    HW147194   7.811   6.722   7.072 -3.0359 -1.9019 -2.3937
15258SOL    HW247195   7.836   6.656   6.938  3.2462 -0.5578 -2.1610
15259SOL     OW47196   5.213   3.083   3.484 -0.6295 -0.0030  0.3375
15259SOL    HW147197   5.189   2.996   3.516  1.4843 -0.8608 -0.2114
15259SOL    HW247198   5.274   3.066   3.412  0.3242  1.9247  0.6150
15260SOL     OW47199   8.143   6.600   6.183  0.2753  0.6509 -0.2716
15260SOL    HW147200   8.112   6.541   6.252  0.4495  1.2658  0.3552
15260SOL    HW247201   8.086   6.676   6.190  0.2797  0.7082 -0.8352
15261SOL     OW47202   4.059   3.149   5.246  0.0237 -0.3565 -0.5094
15261SOL    HW147203   3.967   3.128   5.225  0.7162 -1.4544 -2.7757
15261SOL    HW247204   4.109   3.080   5.204  1.9130  0.0279  1.0030
15262SOL     OW47205   5.109   6.494   1.095 -0.5867 -0.1207 -0.1212
15262SOL    HW147206   5.077   6.566   1.149  0.5099 -0.4728  1.0320
15262SOL    HW247207   5.031   6.441   1.077 -1.1549  0.6089  0.1641
15263SOL     OW47208   8.323   3.338   3.669 -0.2874 -0.0468  0.0190
15263SOL    HW147209   8.233   3.323   3.643 -0.0243 -1.2312 -0.2434
15263SOL    HW247210   8.344   3.264   3.726  0.3694  0.4802  0.4808
15264SOL     OW47211   0.077   7.611   2.445  0.2929 -0.5009 -0.1122
15264SOL    HW147212   0.151   7.657   2.486 -0.4847 -0.3599  1.2073
15264SOL    HW247213  -0.000   7.646   2.490 -0.8110  0.9204 -2.9170
15265SOL     OW47214   3.859   2.758   0.230 -0.3355 -0.3390 -0.5289
15265SOL    HW147215   3.943   2.763   0.276 -1.0515 -1.1719  0.9358
15265SOL    HW247216   3.871   2.690   0.165  0.4363  0.2769 -1.0519
15266SOL     OW47217   5.307   3.501   0.625  0.0544 -0.0125 -0.3921
15266SOL    HW147218   5.236   3.481   0.564  0.2295 -0.0322 -0.5910
15266SOL    HW247219   5.378   3.440   0.600  0.2359  0.1873 -0.3667
15267SOL     OW47220   4.304   5.836   1.235  0.0233 -0.1550  0.6870
15267SOL    HW147221   4.360   5.768   1.273  0.4599 -0.3482 -0.2696
15267SOL    HW247222   4.249   5.864   1.308 -0.3242 -1.6828  1.0586
15268SOL     OW47223   1.509   7.047   2.339 -0.5797  0.3276 -0.0690
15268SOL    HW147224   1.433   7.101   2.318  0.0366  0.9869 -0.6694
15268SOL    HW247225   1.488   6.961   2.303 -0.4231  0.8962 -1.6058
15269SOL     OW47226   6.689   6.454   5.236 -0.2053 -0.4214 -0.2811
15269SOL    HW147227   6.731   6.534   5.203  2.2448 -1.0314  1.0740
15269SOL    HW247228   6.597   6.477   5.246  0.3801  2.1683 -0.1927
15270SOL     OW47229   1.779   3.217   0.902 -0.4432  0.2173  0.2155
15270SOL    HW147230   1.796   3.147   0.839  1.5087 -1.4146  2.3562
15270SOL    HW247231   1.858   3.271   0.899 -0.1009 -0.1604  1.4880
15271SOL     OW47232   2.918   0.274   0.341 -0.0667  0.1049  0.3826
15271SOL    HW147233   3.006   0.252   0.311 -0.3954 -0.5789 -0.1028
15271SOL    HW247234   2.879   0.322   0.267 -0.1123  0.3754  0.5817
15272SOL     OW47235   8.070   7.689   2.482  0.5529  0.1980 -0.0997
15272SOL    HW147236   8.132   7.757   2.508  0.9085 -0.2909  0.3435
15272SOL    HW247237   8.120   7.608   2.486  0.1133 -0.1042 -0.5584
15273SOL     OW47238   0.013   5.590   1.896 -0.7791 -0.1672 -0.2646
15273SOL    HW147239   0.016   5.494   1.904  0.5666 -0.0640  0.7089
15273SOL    HW247240   0.080   5.611   1.832 -1.6684  0.0883 -1.1355
15274SOL     OW47241   4.723   4.252   3.581 -0.4901 -0.0237 -0.4866
15274SOL    HW147242   4.769   4.181   3.626 -2.2520 -0.3301  0.9735
15274SOL    HW247243   4.792   4.308   3.547  0.9384 -1.2952  0.2038
15275SOL     OW47244   7.357   4.386   7.688 -0.6388  0.0173  0.2681
15275SOL    HW147245   7.397   4.468   7.658 -1.0061 -0.3167 -1.2504
15275SOL    HW247246   7.339   4.338   7.607 -0.9956 -1.3033  1.0989
15276SOL     OW47247   5.755   0.439   5.300 -0.2208 -0.3352 -0.5768
15276SOL    HW147248   5.680   0.384   5.322  0.2649 -1.2658 -1.1972
15276SOL    HW247249   5.747   0.514   5.358 -0.2347 -1.6298  1.1711
15277SOL     OW47250   1.980   4.550   5.079 -0.3091 -0.2204 -0.0439
15277SOL    HW147251   2.064   4.507   5.098 -0.1217  0.2349  0.1821
15277SOL    HW247252   1.923   4.524   5.152 -0.3168 -0.3921 -0.1090
15278SOL     OW47253   6.369   4.120   0.052  0.0260 -0.1418 -0.2482
15278SOL    HW147254   6.351   4.189   0.115 -0.4205 -1.6150  1.3100
15278SOL    HW247255   6.283   4.082   0.033  0.5508 -2.8308  2.0565
15279SOL     OW47256   5.280   0.239   7.851 -0.2639  0.2468  0.1529
15279SOL    HW147257   5.326   0.164   7.813  0.3159  0.8362 -0.3392
15279SOL    HW247258   5.296   0.311   7.789  0.5966  1.2110  1.4358
15280SOL     OW47259   0.731   0.251   4.635 -0.0004  0.3493  0.1140
15280SOL    HW147260   0.671   0.268   4.562  0.4034  1.6271  0.0570
15280SOL    HW247261   0.756   0.159   4.625  0.7455  0.7316 -1.8762
15281SOL     OW47262   0.519   3.152   3.597 -0.0182 -0.3229  0.3374
15281SOL    HW147263   0.442   3.205   3.618 -0.0778  0.2070 -1.0843
15281SOL    HW247264   0.577   3.162   3.673 -1.0000 -0.0531  1.0598
15282SOL     OW47265   4.958   4.095   1.835 -0.4019  0.0569  0.4260
15282SOL    HW147266   5.010   4.049   1.901 -1.9501 -2.3686  0.0764
15282SOL    HW247267   4.868   4.094   1.870 -0.7728  1.3599 -0.4073
15283SOL     OW47268   3.105   3.917   2.943  0.2105  0.0028 -0.4476
15283SOL    HW147269   3.074   3.972   2.871  1.0038 -1.7224 -2.2013
15283SOL    HW247270   3.050   3.839   2.939 -0.4582  0.3071  1.5761
15284SOL     OW47271   3.999   0.621   1.411  0.0220 -0.1851 -0.5032
15284SOL    HW147272   3.979   0.609   1.318 -1.0938  0.1795 -0.3269
15284SOL    HW247273   3.975   0.537   1.451  1.0726 -0.5509 -0.6241
15285SOL     OW47274   2.317   0.780   7.507 -0.1423  0.2607  0.2103
15285SOL    HW147275   2.361   0.746   7.428  2.9715  1.1773  1.3726
15285SOL    HW247276   2.291   0.703   7.556  2.2382 -0.4680  0.4481
15286SOL     OW47277   1.321   2.391   7.751 -0.6598 -0.1657 -0.2647
15286SOL    HW147278   1.375   2.404   7.672 -0.7967 -0.1817 -0.3608
15286SOL    HW247279   1.299   2.298   7.750  0.9049 -0.5952  0.7999
15287SOL     OW47280   8.320   3.989   1.395  0.0673  0.2080  0.1187
15287SOL    HW147281   8.365   4.066   1.363 -0.0139  0.3499  0.3420
15287SOL    HW247282   8.230   3.999   1.364 -0.0977  0.5208  0.6750
15288SOL     OW47283   6.073   0.489   7.021 -0.1462 -0.0056 -0.2033
15288SOL    HW147284   6.049   0.509   6.930  2.2478 -0.5793 -1.0413
15288SOL    HW247285   6.023   0.551   7.074 -1.9666  0.0217 -1.8635
15289SOL     OW47286   1.890   5.754   0.421 -0.4641 -0.1565  0.2666
15289SOL    HW147287   1.839   5.673   0.424  1.0970 -1.1563  1.3175
15289SOL    HW247288   1.962   5.739   0.482 -0.5265  2.3316  1.0481
15290SOL     OW47289   2.198   6.010   0.900  0.2875 -0.4037  0.5096
15290SOL    HW147290   2.182   6.079   0.836 -2.3810 -0.2352  1.2325
15290SOL    HW247291   2.212   6.057   0.982 -0.3364 -0.6859  0.7804
15291SOL     OW47292   1.896   0.957   2.383 -0.5003  0.0030  0.1341
15291SOL    HW147293   1.943   1.020   2.438 -0.3673 -0.7010  0.8382
15291SOL    HW247294   1.820   1.005   2.351  0.2046  0.8726 -0.2622
15292SOL     OW47295   7.861   0.632   5.595  0.0893 -0.3624 -0.2825
15292SOL    HW147296   7.775   0.670   5.580  0.3292  0.9223  1.3370
15292SOL    HW247297   7.922   0.694   5.555  0.3637 -0.0546  0.5782
15293SOL     OW47298   5.841   7.383   1.156 -0.2630 -0.5606  0.3569
15293SOL    HW147299   5.841   7.294   1.191 -0.2296 -1.8143 -2.5253
15293SOL    HW247300   5.755   7.393   1.117  0.0395  0.3568 -0.0910
15294SOL     OW47301   4.757   6.791   5.321 -0.4195  0.6336 -0.0683
15294SOL    HW147302   4.733   6.806   5.230 -0.6651  0.0188 -0.1067
15294SOL    HW247303   4.850   6.813   5.325 -0.2151 -0.1045 -0.6483
15295SOL     OW47304   4.316   5.879   7.532  0.2664 -0.3743  0.1320
15295SOL    HW147305   4.372   5.840   7.599  1.7696  1.4252  0.0224
15295SOL    HW247306   4.249   5.926   7.582  0.2813 -0.5734  0.3408
15296SOL     OW47307   5.982   1.851   6.621  0.0379  0.1290  0.2680
15296SOL    HW147308   5.905   1.879   6.670 -0.1843 -0.4289  0.2344
15296SOL    HW247309   6.022   1.783   6.675 -0.7391 -1.1774 -0.7567
15297SOL     OW47310   3.017   0.458   5.762  0.1548  0.4269  0.2194
15297SOL    HW147311   2.925   0.478   5.782 -0.4332 -2.3014  0.7543
15297SOL    HW247312   3.057   0.439   5.847  1.5643  2.6427  0.1087
15298SOL     OW47313   7.280   2.601   5.069 -0.0234 -1.0711 -0.5547
15298SOL    HW147314   7.276   2.631   5.160  0.7620 -0.1937 -0.7974
15298SOL    HW247315   7.202   2.547   5.058 -0.9010  0.0225  0.2000
15299SOL     OW47316   7.724   4.990   7.592 -0.7611 -0.5580  0.3568
15299SOL    HW147317   7.642   4.995   7.543  0.7215 -0.0345 -2.2595
15299SOL    HW247318   7.759   4.903   7.572  0.5694  0.2020 -0.8431
15300SOL     OW47319   3.628   3.555   6.910 -0.6672  0.1291 -0.4598
15300SOL    HW147320   3.664   3.487   6.854 -0.5759 -0.4117  0.2457
15300SOL    HW247321   3.610   3.512   6.993  1.4241  1.3954  0.7476
15301SOL     OW47322   2.737   6.583   7.102 -0.0288 -0.5538 -0.2266
15301SOL    HW147323   2.806   6.553   7.043 -0.5556  0.3586 -1.3548
15301SOL    HW247324   2.670   6.621   7.044 -0.7489  0.0188  0.9270
15302SOL     OW47325   1.458   6.481   0.163  0.1941 -0.0737 -0.4582
15302SOL    HW147326   1.382   6.478   0.104 -0.7891  0.3788  0.7452
15302SOL    HW247327   1.532   6.454   0.108 -0.9224 -1.1034 -1.5085
15303SOL     OW47328   4.859   2.527   7.093  0.3597 -0.2408  0.0919
15303SOL    HW147329   4.848   2.525   7.188 -0.2993 -0.1094  0.0220
15303SOL    HW247330   4.928   2.592   7.079 -0.6504  0.9368  0.3980
15304SOL     OW47331   2.746   0.861   0.672 -0.2284 -0.5942 -0.1239
15304SOL    HW147332   2.820   0.882   0.728 -1.3199  0.8667  0.8571
15304SOL    HW247333   2.745   0.766   0.667  1.8124 -0.6307 -0.3364
15305SOL     OW47334   2.849   8.310   7.118 -0.2210  0.2568  0.5154
15305SOL    HW147335   2.831   8.379   7.182  0.0868 -0.8893  1.9079
15305SOL    HW247336   2.827   8.349   7.033  2.1734  2.8945  0.9382
15306SOL     OW47337   1.931   6.976   3.629 -0.2209 -0.0631 -0.0998
15306SOL    HW147338   1.969   6.894   3.597 -1.8901 -0.9412  0.0758
15306SOL    HW247339   1.950   7.039   3.560 -1.4334 -1.2998 -1.6509
15307SOL     OW47340   0.048   5.497   3.959  0.4933  0.5280 -0.2491
15307SOL    HW147341   0.080   5.581   3.927  2.4345  0.4171  1.2095
15307SOL    HW247342   0.055   5.438   3.883  0.5804  1.3183 -0.8639
15308SOL     OW47343   2.606   2.652   3.590  0.4525 -0.4225 -0.0110
15308SOL    HW147344   2.636   2.594   3.659  1.2034 -0.0509 -0.0152
15308SOL    HW247345   2.636   2.739   3.617 -0.6046 -0.0348 -0.0297
15309SOL     OW47346   3.264   5.984   5.488 -0.7332 -0.0250 -0.3418
15309SOL    HW147347   3.260   5.910   5.428 -1.4469  1.4036 -2.1779
15309SOL    HW247348   3.208   5.960   5.561  0.4961 -2.0032  0.0138
15310SOL     OW47349   7.645   6.650   7.126 -0.2178  0.0058 -0.4441
15310SOL    HW147350   7.556   6.652   7.090  0.4318  1.3722 -2.1349
15310SOL    HW247351   7.644   6.578   7.188 -2.4619 -0.1184 -0.5390
15311SOL     OW47352   5.246   3.779   3.012 -0.0306  0.7448  0.0574
15311SOL    HW147353   5.317   3.815   3.065 -0.2968 -0.3982  1.2467
15311SOL    HW247354   5.168   3.784   3.068 -0.3263 -0.4958 -0.1965
15312SOL     OW47355   3.501   5.836   8.018  0.1897  0.1639  0.6310
15312SOL    HW147356   3.520   5.852   8.111 -2.1457 -0.6102  1.3059
15312SOL    HW247357   3.476   5.744   8.014 -4.0820  1.1673  0.1126
15313SOL     OW47358   2.184   4.397   5.270 -0.3005  0.2729 -0.2892
15313SOL    HW147359   2.257   4.419   5.328  0.5573 -0.2187 -1.1599
15313SOL    HW247360   2.148   4.316   5.307  0.3823 -0.1608 -0.5391
15314SOL     OW47361   3.593   2.200   4.582 -0.4833  0.1097  0.0031
15314SOL    HW147362   3.576   2.108   4.561  0.4641 -0.1861  0.4720
15314SOL    HW247363   3.649   2.231   4.511 -0.9352  0.3740 -0.2403
15315SOL     OW47364   1.110   3.390   0.770  0.0168  0.4301  0.1823
15315SOL    HW147365   1.033   3.335   0.790 -0.0221  1.0085  1.8229
15315SOL    HW247366   1.159   3.392   0.852  1.1010  1.1597 -0.4650
15316SOL     OW47367   7.123   2.631   3.196  0.8004 -0.3440 -0.3281
15316SOL    HW147368   7.055   2.605   3.134  1.4466 -1.2895 -0.6602
15316SOL    HW247369   7.094   2.594   3.280  0.4528  0.0433 -0.2718
15317SOL     OW47370   0.231   3.572   5.391  0.0800  0.0587  0.2703
15317SOL    HW147371   0.295   3.523   5.442  1.5449 -0.6195 -2.0447
15317SOL    HW247372   0.264   3.662   5.391  2.2198 -0.5930 -2.3894
15318SOL     OW47373   1.907   6.084   8.169  0.5494 -0.5681 -0.3751
15318SOL    HW147374   1.822   6.083   8.125 -0.8354  1.5483  2.0161
15318SOL    HW247375   1.910   6.002   8.219  0.0176 -0.7439 -0.6233
15319SOL     OW47376   2.747   0.994   5.073 -0.2345 -0.2484  0.0756
15319SOL    HW147377   2.773   1.002   4.982  1.1249  0.7662  0.5230
15319SOL    HW247378   2.708   0.907   5.080 -3.6065  0.8648 -2.2133
15320SOL     OW47379   1.684   7.161   0.116  0.0591  0.2200  0.6715
15320SOL    HW147380   1.617   7.092   0.116  0.0383  0.2328  1.9009
15320SOL    HW247381   1.696   7.182   0.023 -1.6706  0.2580  0.4263
15321SOL     OW47382   8.336   0.616   4.527  0.3419  0.6160 -0.3395
15321SOL    HW147383   8.301   0.559   4.596 -1.6095 -0.5155 -2.1225
15321SOL    HW247384   8.397   0.674   4.572 -0.3237 -0.5080  2.1972
15322SOL     OW47385   4.929   6.798   1.599 -0.5068 -0.2896 -0.6040
15322SOL    HW147386   4.994   6.857   1.561  0.7162 -1.0771  0.1819
15322SOL    HW247387   4.887   6.849   1.668  1.5109 -0.6770  1.0150
15323SOL     OW47388   0.159   7.217   6.588  0.0043  0.1809  0.3684
15323SOL    HW147389   0.100   7.282   6.550 -0.9063 -0.9850 -0.2739
15323SOL    HW247390   0.103   7.142   6.608  1.1774 -0.7683  0.2274
15324SOL     OW47391   3.651   7.703   7.207 -0.5378  0.3104 -0.0287
15324SOL    HW147392   3.605   7.623   7.181  0.1285 -0.1276  0.1075
15324SOL    HW247393   3.687   7.684   7.293  0.1061  0.5484 -0.2342
15325SOL     OW47394   4.299   7.866   5.307  0.1249  0.1134 -0.3641
15325SOL    HW147395   4.316   7.798   5.371  1.2581  0.5661 -0.1667
15325SOL    HW247396   4.374   7.926   5.313 -0.6912  1.2251 -0.7357
15326SOL     OW47397   1.601   7.461   0.538  0.5224 -0.1570 -0.6371
15326SOL    HW147398   1.551   7.531   0.496 -1.3332 -0.4171  0.9827
15326SOL    HW247399   1.681   7.504   0.569  0.6218  0.6339 -1.9043
15327SOL     OW47400   4.664   4.160   2.953 -0.0879 -0.0362  0.6265
15327SOL    HW147401   4.666   4.215   2.875 -1.3807 -2.7467 -1.4644
15327SOL    HW247402   4.746   4.111   2.950 -0.4037 -0.5704  0.6192
15328SOL     OW47403   7.194   3.435   0.906  0.1542 -0.3315  0.5167
15328SOL    HW147404   7.195   3.524   0.941 -2.3175 -0.1376  0.2671
15328SOL    HW247405   7.124   3.391   0.955 -1.1325 -1.0316 -1.7799
15329SOL     OW47406   0.833   5.925   6.083  0.1847 -0.3537  0.0071
15329SOL    HW147407   0.881   5.893   6.007 -1.1157  2.2791 -2.1073
15329SOL    HW247408   0.898   5.927   6.154  2.0541 -0.7815 -1.6159
15330SOL     OW47409   0.071   7.114   3.300 -0.4261  0.2138  0.1693
15330SOL    HW147410   0.136   7.101   3.370 -1.5586  0.2076  1.2623
15330SOL    HW247411  -0.013   7.095   3.342 -1.0760 -0.6958 -1.4569
15331SOL     OW47412   4.539   0.359   2.536  0.2487 -0.0266  0.1520
15331SOL    HW147413   4.494   0.390   2.457  1.6075  1.8321  0.0512
15331SOL    HW247414   4.476   0.300   2.578 -1.4055  0.7845 -1.0916
15332SOL     OW47415   0.805   7.545   3.703  0.1577  0.0389  0.1440
15332SOL    HW147416   0.810   7.596   3.622  1.6298  0.7855  0.6727
15332SOL    HW247417   0.813   7.454   3.675  0.6189  0.2896 -0.5609
15333SOL     OW47418   8.115   6.336   5.038 -0.0520  0.1801 -0.1435
15333SOL    HW147419   8.126   6.273   4.967 -1.4301  0.5743 -0.7508
15333SOL    HW247420   8.180   6.404   5.020  1.4781 -1.0540  0.5453
15334SOL     OW47421   2.368   5.276   2.137 -0.3101 -1.0953 -0.3582
15334SOL    HW147422   2.390   5.191   2.176 -2.0723 -1.4316 -0.0218
15334SOL    HW247423   2.397   5.268   2.046 -0.4886 -2.0838 -0.3454
15335SOL     OW47424   2.623   7.268   5.488  0.1001  0.1116 -0.2465
15335SOL    HW147425   2.649   7.346   5.439  0.6921  0.2668  0.2966
15335SOL    HW247426   2.699   7.211   5.483 -0.5765 -0.7365 -1.2225
15336SOL     OW47427   2.608   4.124   7.915 -0.5416 -0.1151  0.1788
15336SOL    HW147428   2.548   4.117   7.989 -0.4994  1.2806  0.3776
15336SOL    HW247429   2.690   4.153   7.954 -0.1212 -0.6842 -0.2646
15337SOL     OW47430   0.980   6.464   3.296  0.3306 -0.1267 -0.5532
15337SOL    HW147431   0.973   6.431   3.386  0.5053 -0.3785 -0.6306
15337SOL    HW247432   0.961   6.558   3.303  1.1462  0.0219 -0.1208
15338SOL     OW47433   0.567   3.421   0.466  0.6374  0.2846  0.0289
15338SOL    HW147434   0.481   3.463   0.463  0.5524  0.3660  2.2378
15338SOL    HW247435   0.595   3.419   0.374 -1.7046  0.2204 -0.7628
15339SOL     OW47436   4.791   2.222   4.178  0.5508  0.7497  0.6735
15339SOL    HW147437   4.800   2.209   4.083  1.5192  0.4035  0.7904
15339SOL    HW247438   4.881   2.238   4.208  0.2697  0.7508  1.5435
15340SOL     OW47439   3.982   2.342   2.340  0.0469  0.7228 -0.2399
15340SOL    HW147440   4.002   2.420   2.392  0.5748  0.8230 -0.5812
15340SOL    HW247441   4.066   2.295   2.334 -0.2042  0.2734 -0.2712
15341SOL     OW47442   4.068   3.738   5.746  0.1197 -0.2918  0.1828
15341SOL    HW147443   4.113   3.723   5.663 -0.4714  0.8551 -0.3649
15341SOL    HW247444   3.992   3.682   5.743 -0.6515  0.7552 -0.6863
15342SOL     OW47445   0.879   6.628   6.107 -0.2979 -0.2379 -0.1691
15342SOL    HW147446   0.958   6.574   6.114 -0.4446 -0.5077 -0.6004
15342SOL    HW247447   0.912   6.718   6.103 -0.0697 -0.2548  0.9458
15343SOL     OW47448   1.644   3.153   1.587 -0.3534 -0.2050  0.1027
15343SOL    HW147449   1.727   3.201   1.582  0.6931 -2.0168 -1.8211
15343SOL    HW247450   1.577   3.221   1.595  1.1893  1.4046  0.0898
15344SOL     OW47451   0.790   0.430   4.836 -0.0335 -0.3014  0.2687
15344SOL    HW147452   0.798   0.373   4.759  1.8593 -2.6404  2.0419
15344SOL    HW247453   0.695   0.439   4.849 -0.4099 -0.1179 -2.0672
15345SOL     OW47454   7.547   0.262   4.093 -0.4371 -0.1207 -0.2659
15345SOL    HW147455   7.549   0.291   4.184  1.3294  0.8291 -0.5615
15345SOL    HW247456   7.473   0.202   4.088 -1.9859  1.5455  1.2574
15346SOL     OW47457   6.224   6.544   1.083 -0.8368  0.8528  0.5452
15346SOL    HW147458   6.147   6.601   1.072 -0.9159  0.4112 -1.7090
15346SOL    HW247459   6.207   6.470   1.025  1.0792  0.5001  0.3760
15347SOL     OW47460   4.843   3.806   7.214  0.4711  0.0338 -0.2769
15347SOL    HW147461   4.821   3.741   7.147  0.8946 -1.8084  1.3065
15347SOL    HW247462   4.860   3.886   7.164 -0.3369 -0.9579 -2.2752
15348SOL     OW47463   2.809   5.692   3.310  0.0964 -0.0674  0.2948
15348SOL    HW147464   2.798   5.613   3.257 -0.5855  0.0589  0.2350
15348SOL    HW247465   2.895   5.681   3.351  0.8421  0.0433 -1.1716
15349SOL     OW47466   3.443   1.064   4.286  0.0891 -0.5328 -0.3563
15349SOL    HW147467   3.500   1.089   4.214 -2.5433 -0.4334 -2.5513
15349SOL    HW247468   3.380   1.004   4.247 -1.0636 -0.9810  2.0242
15350SOL     OW47469   4.822   4.364   0.207  0.0667  0.5890 -0.1954
15350SOL    HW147470   4.796   4.278   0.240  2.2994  0.1542  0.5993
15350SOL    HW247471   4.901   4.386   0.256 -0.9857  3.5908  0.3611
15351SOL     OW47472   4.700   7.896   7.125 -0.0369 -0.2047  0.2341
15351SOL    HW147473   4.660   7.910   7.039 -0.1943 -0.4899  0.2602
15351SOL    HW247474   4.790   7.868   7.105  0.4359  1.2498  0.1844
15352SOL     OW47475   4.434   2.500   7.180  0.1715  0.0820 -0.0664
15352SOL    HW147476   4.386   2.439   7.236 -3.2270  0.8938 -1.8352
15352SOL    HW247477   4.524   2.467   7.180 -0.5079 -2.1538  2.6891
15353SOL     OW47478   6.371   7.632   8.031  0.3477  0.0852 -0.1441
15353SOL    HW147479   6.429   7.582   7.973 -0.6666 -1.1186 -0.1669
15353SOL    HW247480   6.349   7.710   7.981  0.7474 -0.1772 -0.7422
15354SOL     OW47481   1.787   2.554   5.090 -0.1586  0.1246  0.0802
15354SOL    HW147482   1.836   2.581   5.167  0.7834 -1.3840  0.0414
15354SOL    HW247483   1.772   2.460   5.102  0.3667 -0.2402 -1.7456
15355SOL     OW47484   6.846   0.381   0.366 -0.0886 -0.2103  0.0475
15355SOL    HW147485   6.927   0.330   0.375 -0.3995 -0.5511  0.9189
15355SOL    HW247486   6.876   0.472   0.365  0.3778 -0.3584 -0.5226
15356SOL     OW47487   4.151   0.157   4.311  0.1069  0.3808  0.3910
15356SOL    HW147488   4.244   0.135   4.310  0.3320  1.2314 -1.7352
15356SOL    HW247489   4.148   0.252   4.307 -0.8545  0.3608  0.2538
15357SOL     OW47490   3.476   1.210   7.441  0.3913  0.0284  0.1857
15357SOL    HW147491   3.382   1.230   7.443  0.0934 -1.3229  1.9852
15357SOL    HW247492   3.482   1.135   7.382  0.3891  0.2475 -0.0985
15358SOL     OW47493   4.359   6.928   4.451  0.3445 -0.2812 -0.2495
15358SOL    HW147494   4.324   7.015   4.437 -1.8138 -0.7232  1.7732
15358SOL    HW247495   4.410   6.935   4.531 -1.8046 -1.2670  1.3087
15359SOL     OW47496   1.586   2.083   7.950  0.3681 -0.4764  0.3708
15359SOL    HW147497   1.640   2.066   7.873 -1.0357 -1.7526 -0.3994
15359SOL    HW247498   1.643   2.131   8.010  1.2963  1.2236 -1.7286
15360SOL     OW47499   7.466   4.113   6.813  0.1876 -0.4740 -0.4083
15360SOL    HW147500   7.484   4.178   6.745  0.5918 -0.7590 -0.5789
15360SOL    HW247501   7.401   4.155   6.870  0.3238  0.0127 -0.6073
15361SOL     OW47502   6.104   7.384   7.762  0.9774 -0.0646 -0.0613
15361SOL    HW147503   6.194   7.360   7.785  1.0327  0.8619  0.7373
15361SOL    HW247504   6.111   7.468   7.719  0.5505 -0.3122 -0.6294
15362SOL     OW47505   1.352   0.398   2.820 -0.3739 -0.0919 -0.5751
15362SOL    HW147506   1.426   0.457   2.829  1.0109 -1.9665  1.1987
15362SOL    HW247507   1.370   0.349   2.739  0.6682 -0.9315  0.1424
15363SOL     OW47508   5.650   8.135   4.213 -0.0241  0.0602  0.5370
15363SOL    HW147509   5.603   8.160   4.133 -1.6498 -1.5205  0.9363
15363SOL    HW247510   5.741   8.124   4.185 -0.7888 -1.9172 -1.4892
15364SOL     OW47511   3.534   6.674   5.223  0.0309 -0.2385  0.0632
15364SOL    HW147512   3.612   6.624   5.199 -0.9745 -1.7941 -0.1406
15364SOL    HW247513   3.462   6.612   5.212 -1.2498  1.1693  0.1783
15365SOL     OW47514   2.159   0.129   6.908 -0.0709 -0.0482 -0.3225
15365SOL    HW147515   2.094   0.070   6.870  0.5279 -0.5593 -0.5754
15365SOL    HW247516   2.123   0.153   6.993 -0.3359 -0.7722 -0.2197
15366SOL     OW47517   3.188   0.278   8.150 -0.4950 -0.4506 -0.3270
15366SOL    HW147518   3.228   0.346   8.095 -1.1128 -0.1336 -0.3957
15366SOL    HW247519   3.174   0.204   8.090  0.0655 -0.6012 -0.2804
15367SOL     OW47520   0.402   3.917   6.076 -0.4736  0.5070 -0.1200
15367SOL    HW147521   0.431   3.840   6.028  1.6196  1.6629 -0.8386
15367SOL    HW247522   0.480   3.971   6.085 -1.1694  1.1835  3.0769
15368SOL     OW47523   0.818   6.902   7.960  0.5210  0.0134 -0.6334
15368SOL    HW147524   0.787   6.861   7.880 -0.9399 -0.3726  0.1041
15368SOL    HW247525   0.830   6.830   8.022 -2.4430  0.5894  0.7935
15369SOL     OW47526   6.026   2.045   3.090 -0.9419 -0.2502  0.6868
15369SOL    HW147527   6.068   1.962   3.064  1.4432  0.9946  0.2719
15369SOL    HW247528   6.073   2.072   3.168 -0.8861  1.2713  0.1537
15370SOL     OW47529   0.650   1.504   3.800 -0.2969  0.4055 -0.0075
15370SOL    HW147530   0.596   1.536   3.727 -1.2558 -2.1188 -0.5200
15370SOL    HW247531   0.732   1.477   3.758 -0.6534 -0.5608 -0.1241
15371SOL     OW47532   0.712   3.457   3.997  0.4200  0.5099  0.1585
15371SOL    HW147533   0.676   3.515   4.065  1.3306  2.2538 -0.7683
15371SOL    HW247534   0.714   3.512   3.918 -0.1354 -1.3057 -1.1648
15372SOL     OW47535   3.102   7.047   0.866 -0.2404  0.2956 -0.2709
15372SOL    HW147536   3.052   7.052   0.947 -0.6073  0.2707 -0.4942
15372SOL    HW247537   3.075   6.964   0.826 -0.0265  0.2849 -0.3974
15373SOL     OW47538   5.994   6.983   5.620  0.1458 -0.4204 -0.4695
15373SOL    HW147539   5.948   7.034   5.688  2.0510  0.8018 -0.0132
15373SOL    HW247540   6.046   7.048   5.573  0.3779 -1.5572 -1.8514
15374SOL     OW47541   4.913   6.272   5.389  0.4443  0.1844  0.1235
15374SOL    HW147542   4.974   6.246   5.320  1.0021 -0.2852  0.7759
15374SOL    HW247543   4.835   6.301   5.342 -0.1143 -2.3869 -0.6942
15375SOL     OW47544   3.606   6.967   0.744  0.3436 -0.4818 -0.3763
15375SOL    HW147545   3.541   6.971   0.674  0.9025  1.5531 -0.8537
15375SOL    HW247546   3.582   7.038   0.804  0.3125 -1.7157  1.1406
15376SOL     OW47547   5.326   1.881   0.258 -0.8570  0.0472 -0.0506
15376SOL    HW147548   5.344   1.844   0.171 -0.5907 -2.0567  0.8420
15376SOL    HW247549   5.353   1.812   0.319 -0.3241  1.7672  1.7525
15377SOL     OW47550   5.820   3.823   7.370 -0.9607 -0.3026 -0.4616
15377SOL    HW147551   5.761   3.825   7.294  1.6814  0.4941 -2.6401
15377SOL    HW247552   5.846   3.731   7.378 -1.2688 -0.3924 -0.4778
15378SOL     OW47553   4.097   3.218   0.439 -0.0136 -0.7390  0.3623
15378SOL    HW147554   4.082   3.289   0.375  0.9111  0.6934  1.6589
15378SOL    HW247555   4.184   3.185   0.417 -0.0081 -0.7496  0.4011
15379SOL     OW47556   7.284   0.616   0.727  0.3526  0.0837  0.7298
15379SOL    HW147557   7.339   0.667   0.667  0.7564 -1.3704 -0.1677
15379SOL    HW247558   7.345   0.583   0.793  0.2895 -0.2203  0.6362
15380SOL     OW47559   6.297   3.015   4.639 -0.1283  0.0276  0.5339
15380SOL    HW147560   6.249   3.057   4.710 -0.4844  0.1136  0.2469
15380SOL    HW247561   6.271   3.063   4.561 -1.6525 -1.5859 -0.0165
15381SOL     OW47562   7.664   6.780   6.526  0.2531 -0.7098  0.5066
15381SOL    HW147563   7.684   6.869   6.555  2.4835 -1.0308  0.1428
15381SOL    HW247564   7.699   6.724   6.596  0.9848 -1.3287 -0.3259
15382SOL     OW47565   0.927   2.611   4.998 -0.3357  0.0657 -0.3322
15382SOL    HW147566   0.921   2.559   4.918 -0.9105 -1.3032  0.5796
15382SOL    HW247567   1.000   2.572   5.047  0.5892  1.4404 -0.5407
15383SOL     OW47568   1.330   3.142   0.787  0.6723  0.3948 -0.3590
15383SOL    HW147569   1.289   3.199   0.722  2.0876  0.9847 -0.7908
15383SOL    HW247570   1.424   3.157   0.775  0.9988 -0.3611  1.0488
15384SOL     OW47571   3.805   6.787   5.050 -0.3250 -0.1407 -0.4875
15384SOL    HW147572   3.825   6.707   5.099 -0.2116 -0.4056 -0.9654
15384SOL    HW247573   3.824   6.858   5.112 -1.8341 -0.5080  0.4549
15385SOL     OW47574   6.712   3.194   2.837 -0.0854 -0.1562  0.0081
15385SOL    HW147575   6.652   3.266   2.858  0.2930  0.4779 -0.9953
15385SOL    HW247576   6.754   3.222   2.756  0.7158 -1.1243  0.0816
15386SOL     OW47577   2.986   7.018   6.514 -0.6653  0.1653 -0.0698
15386SOL    HW147578   2.957   6.989   6.600 -0.0764  0.2971  0.1746
15386SOL    HW247579   2.919   6.984   6.454  0.1415 -1.9729  0.1697
15387SOL     OW47580   3.684   3.791   1.317 -0.4916  0.2139 -0.4506
15387SOL    HW147581   3.703   3.836   1.235  2.1786 -0.1952 -0.1573
15387SOL    HW247582   3.684   3.860   1.383 -2.1678  0.4787 -0.6864
15388SOL     OW47583   6.396   6.467   0.459  0.1425  0.3143  0.4680
15388SOL    HW147584   6.326   6.530   0.474  0.3819  0.5199  0.7037
15388SOL    HW247585   6.475   6.519   0.452  0.1199  0.1980 -1.0263
15389SOL     OW47586   2.656   4.013   2.043  0.2143 -0.0113  0.5862
15389SOL    HW147587   2.705   4.080   2.092  0.5143 -0.9757  1.6622
15389SOL    HW247588   2.718   3.983   1.977 -0.2303  1.3817 -0.5111
15390SOL     OW47589   3.180   8.344   4.012  0.4365 -0.8876  0.1391
15390SOL    HW147590   3.249   8.304   3.959  0.1883  0.7896 -1.5484
15390SOL    HW247591   3.211   8.433   4.029 -0.6696 -0.5655  0.5779
15391SOL     OW47592   1.809   3.974   5.205  0.1417  0.5416 -0.5026
15391SOL    HW147593   1.858   3.898   5.237  0.8744  0.9677 -0.5978
15391SOL    HW247594   1.831   4.045   5.265 -2.7754  0.0562  1.3654
15392SOL     OW47595   2.529   7.099   6.035 -0.4979  1.0092  0.3028
15392SOL    HW147596   2.565   7.041   6.102 -1.1590  1.0989  0.7438
15392SOL    HW247597   2.578   7.180   6.045  1.2331  0.2001 -1.0720
15393SOL     OW47598   6.823   4.293   0.719  0.2520  0.1367 -0.0638
15393SOL    HW147599   6.758   4.257   0.659  0.3176  0.8719 -0.5943
15393SOL    HW247600   6.878   4.218   0.743 -0.3596 -0.3501 -0.1609
15394SOL     OW47601   6.387   0.919   7.479 -0.8985  0.0146  0.3146
15394SOL    HW147602   6.434   0.887   7.402 -0.8273 -0.0339  0.3789
15394SOL    HW247603   6.298   0.936   7.447 -0.2821  2.3101 -0.3999
15395SOL     OW47604   2.161   4.421   4.730  0.3928 -0.2462  0.3524
15395SOL    HW147605   2.219   4.410   4.805  0.5275  0.6025  0.3852
15395SOL    HW247606   2.142   4.332   4.700 -0.4514 -0.6607  2.0038
15396SOL     OW47607   6.333   1.456   6.119 -0.0232 -0.5191 -0.4285
15396SOL    HW147608   6.256   1.417   6.079  0.1779  0.6675 -2.0726
15396SOL    HW247609   6.313   1.460   6.212 -0.7195 -2.9280 -0.4052
15397SOL     OW47610   3.601   6.006   1.358  0.1254  0.2479 -0.0595
15397SOL    HW147611   3.632   6.043   1.275  0.5055  0.1511  0.0387
15397SOL    HW247612   3.680   5.998   1.412 -0.1901  0.7766  0.4959
15398SOL     OW47613   4.783   3.409   5.806 -0.6518 -0.4815 -0.4612
15398SOL    HW147614   4.876   3.388   5.816 -0.5255 -0.0030 -0.6130
15398SOL    HW247615   4.760   3.459   5.884 -0.2996  1.0349 -1.2810
15399SOL     OW47616   3.953   7.023   3.378  0.1361  0.2946  0.1974
15399SOL    HW147617   3.903   7.003   3.457  0.0670 -0.3012  0.0095
15399SOL    HW247618   3.889   7.018   3.307  0.6565 -1.6405 -0.1931
15400SOL     OW47619   0.342   0.888   5.804 -0.2192 -0.0497  0.1786
15400SOL    HW147620   0.302   0.914   5.721  1.6272  0.7799 -0.5332
15400SOL    HW247621   0.296   0.939   5.870 -0.8246  0.3018 -0.4979
15401SOL     OW47622   2.926   6.537   8.277  0.6276 -0.0326 -0.2336
15401SOL    HW147623   2.954   6.555   8.367  2.1216  0.4184 -0.7586
15401SOL    HW247624   2.840   6.496   8.286  0.5002  0.5327  1.3649
15402SOL     OW47625   4.324   0.233   5.323 -0.5145  0.7059 -0.6175
15402SOL    HW147626   4.294   0.144   5.336 -2.3111  1.4637  0.8989
15402SOL    HW247627   4.309   0.276   5.407  1.5686  2.1108 -0.8894
15403SOL     OW47628   1.192   6.115   5.974  0.0485 -0.3367  0.0548
15403SOL    HW147629   1.262   6.179   5.989 -0.8990  0.9839 -0.9293
15403SOL    HW247630   1.238   6.035   5.948  1.2236  0.2135  0.3877
15404SOL     OW47631   5.167   2.771   0.190 -0.3134 -0.3113 -0.0968
15404SOL    HW147632   5.122   2.811   0.117 -0.8475 -1.6933 -0.5636
15404SOL    HW247633   5.194   2.685   0.157  0.7082 -0.3885  0.8739
15405SOL     OW47634   5.059   0.549   4.451  0.5296 -0.2004 -0.3116
15405SOL    HW147635   5.039   0.502   4.370  0.2510  0.7406 -0.8000
15405SOL    HW247636   5.070   0.640   4.425 -1.8130  0.5556  0.9851
15406SOL     OW47637   2.891   3.489   7.635 -0.1899 -0.1222  0.4045
15406SOL    HW147638   2.947   3.491   7.713  0.5639 -0.7797 -0.1080
15406SOL    HW247639   2.931   3.552   7.576  0.6306 -1.3226 -0.3614
15407SOL     OW47640   7.729   1.503   1.109 -0.1816  0.3313 -0.4748
15407SOL    HW147641   7.765   1.588   1.132  1.3177  0.2741 -2.3461
15407SOL    HW247642   7.638   1.520   1.086 -0.9335  0.8114  2.4798
15408SOL     OW47643   7.483   4.333   5.327 -0.3591  0.1597  0.2275
15408SOL    HW147644   7.559   4.277   5.313 -0.5210 -0.1112  0.4436
15408SOL    HW247645   7.433   4.326   5.245 -0.5624 -0.2905  0.3903
15409SOL     OW47646   2.893   6.651   6.071  0.3977 -0.0436  0.1630
15409SOL    HW147647   2.798   6.637   6.069  0.4986 -0.8484  0.5292
15409SOL    HW247648   2.915   6.681   5.983 -0.3994  1.6270  0.5109
15410SOL     OW47649   2.104   2.616   2.321  0.3128  0.4081  0.9371
15410SOL    HW147650   2.177   2.558   2.295 -0.1437 -0.0716  0.7003
15410SOL    HW247651   2.147   2.693   2.359  1.0268  1.0467 -1.0250
15411SOL     OW47652   1.826   7.530   4.060  0.0396  0.5801 -0.7555
15411SOL    HW147653   1.738   7.531   4.098  0.5747 -1.0973  0.6773
15411SOL    HW247654   1.876   7.469   4.116  1.5121 -0.2507 -2.8249
15412SOL     OW47655   0.307   4.081   1.430  0.6502 -0.1366 -0.4039
15412SOL    HW147656   0.242   4.152   1.431  1.1232  0.3598 -2.1690
15412SOL    HW247657   0.338   4.077   1.521 -1.0153  0.3622  0.2344
15413SOL     OW47658   5.886   0.832   3.139 -0.6675  0.2589 -0.1379
15413SOL    HW147659   5.882   0.789   3.053 -0.3810 -0.1074  0.0294
15413SOL    HW247660   5.810   0.798   3.186 -1.8925  1.8531 -0.8719
15414SOL     OW47661   4.793   2.602   1.769 -0.0353 -0.0596  0.0981
15414SOL    HW147662   4.879   2.574   1.801 -1.0035 -1.3983  1.6891
15414SOL    HW247663   4.768   2.534   1.705  0.7336  1.1829 -1.5940
15415SOL     OW47664   6.525   6.503   1.731  0.4173 -0.1849 -0.4619
15415SOL    HW147665   6.611   6.490   1.690  0.3675 -1.9489 -0.0612
15415SOL    HW247666   6.464   6.510   1.658  0.7381 -0.1774 -0.7319
15416SOL     OW47667   2.727   1.409   3.060 -0.4299  0.1774  0.0580
15416SOL    HW147668   2.632   1.394   3.064 -0.3244 -0.2224  1.5945
15416SOL    HW247669   2.746   1.415   2.966 -1.7935 -0.9113 -0.3246
15417SOL     OW47670   1.710   6.348   7.770  0.5240  0.1299  0.0092
15417SOL    HW147671   1.802   6.342   7.796  0.0849  0.6078  1.8378
15417SOL    HW247672   1.676   6.422   7.821 -0.9109 -0.1361 -0.5297
15418SOL     OW47673   8.109   3.238   4.990 -0.6746 -0.4498 -0.7204
15418SOL    HW147674   8.098   3.190   4.907 -2.0598  0.8465 -1.3334
15418SOL    HW247675   8.069   3.182   5.056 -4.5908  0.8056 -1.7910
15419SOL     OW47676   2.306   6.560   6.058 -0.0725 -0.5406 -0.0337
15419SOL    HW147677   2.268   6.534   5.974 -2.3554 -0.8810  1.0268
15419SOL    HW247678   2.297   6.483   6.114  0.1484  0.1034  0.9151
15420SOL     OW47679   4.611   2.584   5.046  0.9086 -0.4143  0.4839
15420SOL    HW147680   4.535   2.529   5.064  0.5907 -0.1300  0.0257
15420SOL    HW247681   4.677   2.523   5.012  0.7120 -0.5816  0.4046
15421SOL     OW47682   0.964   7.409   1.654  0.1899 -0.3369  0.0300
15421SOL    HW147683   1.014   7.485   1.685  0.0338 -0.1967 -0.0569
15421SOL    HW247684   0.903   7.446   1.590  0.7821 -0.6836 -0.7345
15422SOL     OW47685   3.802   5.289   1.233  0.3516  0.3411  0.1015
15422SOL    HW147686   3.859   5.337   1.174  0.0380  1.4578  0.6752
15422SOL    HW247687   3.861   5.253   1.300  0.5009  0.6241  0.1228
15423SOL     OW47688   5.025   1.194   3.705  0.3954  0.1795 -0.4280
15423SOL    HW147689   4.974   1.257   3.755 -1.4852  0.0513 -2.0314
15423SOL    HW247690   5.089   1.247   3.657  0.8757  0.4921  0.5272
15424SOL     OW47691   3.439   4.912   2.905  0.0897  0.2428 -0.1058
15424SOL    HW147692   3.465   5.003   2.922  0.4188  0.5041 -1.8584
15424SOL    HW247693   3.499   4.859   2.958 -1.8052  1.0316  3.1210
15425SOL     OW47694   2.479   8.266   3.108  0.0651 -0.5267  0.1918
15425SOL    HW147695   2.473   8.348   3.157 -1.4264 -0.2288 -0.4275
15425SOL    HW247696   2.435   8.284   3.025 -0.6541 -2.0644  0.2038
15426SOL     OW47697   7.652   5.974   8.089 -0.7251 -0.8941  0.3764
15426SOL    HW147698   7.694   5.897   8.128 -0.3852 -0.5220  0.7534
15426SOL    HW247699   7.566   5.978   8.131 -0.3998 -0.5555  1.0218
15427SOL     OW47700   7.381   8.199   2.495  0.4910  0.2274  0.1254
15427SOL    HW147701   7.385   8.126   2.556  0.5736 -0.4011 -0.6193
15427SOL    HW247702   7.400   8.160   2.410 -0.3924  0.9441 -0.4186
15428SOL     OW47703   0.303   7.487   5.749  0.2887  0.2129  0.0651
15428SOL    HW147704   0.354   7.427   5.804 -0.0172 -1.6945 -1.6277
15428SOL    HW247705   0.358   7.503   5.673 -0.6606  0.0493 -0.6723
15429SOL     OW47706   2.097   3.708   5.604  0.6135 -0.5829  0.5596
15429SOL    HW147707   2.009   3.738   5.629  1.4515  1.3806  1.4098
15429SOL    HW247708   2.095   3.613   5.616 -1.7167 -0.7392 -0.5477
15430SOL     OW47709   4.592   2.510   0.851 -0.1734  0.2915 -0.1655
15430SOL    HW147710   4.556   2.436   0.902 -0.2099  1.0204  0.9019
15430SOL    HW247711   4.652   2.469   0.789  0.9458 -0.5406  1.4057
15431SOL     OW47712   0.521   3.583   4.146 -0.1618 -0.0660 -0.0078
15431SOL    HW147713   0.477   3.577   4.230  1.2255  0.3407  0.7787
15431SOL    HW247714   0.461   3.539   4.084 -1.4020  0.0343  1.0817
15432SOL     OW47715   1.479   4.642   4.448  0.4389 -0.3617  0.2921
15432SOL    HW147716   1.407   4.642   4.385 -0.3517 -0.7474  1.1726
15432SOL    HW247717   1.442   4.681   4.527  1.5493  0.5428  0.3862
15433SOL     OW47718   0.249   2.287   2.118  0.1137  0.3933 -0.3153
15433SOL    HW147719   0.329   2.337   2.137 -0.2215  1.3897 -1.3810
15433SOL    HW247720   0.178   2.342   2.152 -0.0835 -1.2654  2.1860
15434SOL     OW47721   4.360   2.319   7.695 -0.2346  0.0021 -0.1694
15434SOL    HW147722   4.391   2.283   7.778 -1.5985 -1.5681 -0.2875
15434SOL    HW247723   4.307   2.395   7.721 -0.1124 -0.0909  0.3607
15435SOL     OW47724   5.664   4.951   1.204 -0.1219  0.2794  0.2191
15435SOL    HW147725   5.572   4.971   1.186  0.7643  2.9292 -2.0140
15435SOL    HW247726   5.680   4.868   1.159 -1.6987 -0.9575  1.8189
15436SOL     OW47727   2.736   3.977   0.192  0.0525 -0.2475 -0.3785
15436SOL    HW147728   2.694   4.063   0.202  0.1460 -0.1641 -0.7061
15436SOL    HW247729   2.768   3.956   0.280  0.0268  0.0529 -0.2955
15437SOL     OW47730   4.486   1.033   1.053 -0.2298 -0.2413  0.2179
15437SOL    HW147731   4.393   1.045   1.033  0.0364  0.3579 -0.7048
15437SOL    HW247732   4.529   1.109   1.015  0.5410  0.0007  1.4940
15438SOL     OW47733   7.046   1.857   5.015  0.0699 -0.5272  0.6644
15438SOL    HW147734   7.025   1.892   5.102  1.4563  1.5759  0.2246
15438SOL    HW247735   6.962   1.829   4.980 -0.8577  0.6353  1.8498
15439SOL     OW47736   0.681   7.261   7.603 -0.2219  0.3692 -0.1923
15439SOL    HW147737   0.641   7.327   7.659 -1.7452 -0.0034 -0.7864
15439SOL    HW247738   0.655   7.285   7.515  0.0025 -0.4863 -0.5006
15440SOL     OW47739   2.479   5.322   7.295 -0.2306 -0.5315  0.1622
15440SOL    HW147740   2.439   5.298   7.211 -0.1017 -0.6217  0.1265
15440SOL    HW247741   2.480   5.418   7.295 -1.9613 -0.4771  0.8748
15441SOL     OW47742   0.706   6.472   7.857 -0.2038 -0.1236  0.3217
15441SOL    HW147743   0.679   6.420   7.933 -1.9818 -1.3930 -1.1050
15441SOL    HW247744   0.624   6.495   7.814  0.8056 -1.2341 -2.3644
15442SOL     OW47745   4.867   2.890   7.233 -0.2369  0.0943  0.0738
15442SOL    HW147746   4.951   2.845   7.234 -0.0551  0.4492  0.8176
15442SOL    HW247747   4.845   2.897   7.140  0.6453  0.1769 -0.1348
15443SOL     OW47748   0.828   5.751   4.028  0.5237  0.1949 -0.6586
15443SOL    HW147749   0.905   5.708   4.065 -0.5914 -1.4889 -0.2057
15443SOL    HW247750   0.846   5.753   3.934  1.8014  1.3106 -0.4383
15444SOL     OW47751   4.843   6.152   5.603  0.3094  0.4811 -0.2516
15444SOL    HW147752   4.875   6.187   5.520 -0.1758  1.7313  0.0747
15444SOL    HW247753   4.801   6.069   5.578 -0.0922  0.9771 -1.3083
15445SOL     OW47754   0.468   2.382   6.171  0.0956 -0.3958  0.3530
15445SOL    HW147755   0.532   2.397   6.241  0.0767 -1.1564  0.5346
15445SOL    HW247756   0.435   2.294   6.186  0.5531 -0.8242 -0.9889
15446SOL     OW47757   5.066   5.931   3.230  0.2773  0.2400 -0.0806
15446SOL    HW147758   5.088   6.020   3.201 -0.5911  0.1745 -0.9666
15446SOL    HW247759   5.091   5.875   3.157  3.5438 -0.6453  1.5444
15447SOL     OW47760   1.633   3.680   5.296 -0.7653  0.4263 -0.1115
15447SOL    HW147761   1.708   3.667   5.238 -0.6448 -1.8747  0.4499
15447SOL    HW247762   1.560   3.636   5.252 -0.9793 -0.2048  0.8457
15448SOL     OW47763   1.928   5.984   7.253 -0.3151  0.0210 -0.0400
15448SOL    HW147764   1.878   5.912   7.213 -0.3288 -0.3466  0.6106
15448SOL    HW247765   1.971   6.028   7.180 -2.2098  0.8397 -0.7184
15449SOL     OW47766   2.824   8.080   6.367 -0.7102  0.0902 -0.5513
15449SOL    HW147767   2.866   8.108   6.285 -0.5267 -0.4179 -0.6314
15449SOL    HW247768   2.877   8.121   6.436 -1.1820  0.9623 -0.6867
15450SOL     OW47769   2.391   5.266   6.524  0.3760  0.1794  0.0638
15450SOL    HW147770   2.462   5.211   6.490  0.7700  1.5992 -1.5407
15450SOL    HW247771   2.412   5.277   6.617  0.9039 -1.3998  0.1588
15451SOL     OW47772   5.628   2.397   4.200  0.2789  0.0083  0.2535
15451SOL    HW147773   5.647   2.435   4.285 -0.5520  2.6049 -0.6169
15451SOL    HW247774   5.538   2.365   4.207  0.5923 -0.8265  0.6455
15452SOL     OW47775   4.222   2.549   5.376  0.0290  0.7803 -0.4094
15452SOL    HW147776   4.261   2.634   5.396 -0.1147  0.4473  1.3729
15452SOL    HW247777   4.208   2.507   5.461 -0.4547 -0.7907 -1.2164
15453SOL     OW47778   1.268   4.420   0.862 -0.2092 -0.5963  0.4553
15453SOL    HW147779   1.238   4.481   0.795  1.2931  0.5115  0.7423
15453SOL    HW247780   1.229   4.336   0.837 -0.1795 -0.0863 -1.4419
15454SOL     OW47781   3.866   0.511   3.367 -0.2473 -0.2074 -0.3574
15454SOL    HW147782   3.825   0.439   3.320 -0.2896  0.6371 -1.6562
15454SOL    HW247783   3.925   0.551   3.304 -0.5759  1.1851  0.1813
15455SOL     OW47784   7.910   2.930   2.686  0.1997  0.2885  0.1530
15455SOL    HW147785   7.967   2.853   2.683 -0.1277  0.0195  0.6354
15455SOL    HW247786   7.850   2.913   2.759 -1.3481 -0.0221 -1.1350
15456SOL     OW47787   4.245   6.804   0.344 -0.2521  0.6860 -0.2428
15456SOL    HW147788   4.273   6.785   0.254  1.8034  1.0021  0.2916
15456SOL    HW247789   4.159   6.845   0.333 -1.2419 -1.5617 -1.8758
15457SOL     OW47790   3.853   3.279   3.813  0.3020 -0.4256  0.2251
15457SOL    HW147791   3.785   3.236   3.762 -0.4001 -0.1993  0.9543
15457SOL    HW247792   3.874   3.216   3.882 -0.9961  0.5190  1.5248
15458SOL     OW47793   0.266   7.624   4.115 -0.3709 -0.6005  0.1396
15458SOL    HW147794   0.258   7.709   4.159  1.0501 -0.7598  0.7484
15458SOL    HW247795   0.354   7.624   4.078 -0.8784 -1.2437 -1.1204
15459SOL     OW47796   4.462   6.110   1.831 -0.6648 -0.0458 -0.1382
15459SOL    HW147797   4.498   6.075   1.750 -1.0662 -1.6351  0.3482
15459SOL    HW247798   4.451   6.034   1.888 -1.3004  0.9106  1.0653
15460SOL     OW47799   8.127   3.846   6.295  0.5699  0.6908 -0.3732
15460SOL    HW147800   8.084   3.791   6.229  0.3783  0.6905 -0.2502
15460SOL    HW247801   8.162   3.920   6.246 -0.5964  1.2982 -0.3293
15461SOL     OW47802   5.759   4.832   5.604  0.5860 -1.0726 -0.5071
15461SOL    HW147803   5.802   4.878   5.531  2.4155 -3.5606 -1.1538
15461SOL    HW247804   5.799   4.870   5.682 -0.9818  1.2301 -0.7341
15462SOL     OW47805   4.059   4.922   7.472  0.7946 -0.2678 -0.0226
15462SOL    HW147806   4.060   4.888   7.561  0.8274  1.0706  0.5115
15462SOL    HW247807   4.008   4.858   7.423  0.8946 -1.1002  0.9154
15463SOL     OW47808   0.096   0.711   0.801  0.2741 -0.2217  0.3190
15463SOL    HW147809   0.073   0.671   0.717 -0.0344  0.7025 -0.0409
15463SOL    HW247810   0.141   0.792   0.778 -0.4230  0.3917  1.0385
15464SOL     OW47811   7.842   2.623   4.919  0.2346 -0.3811  0.2704
15464SOL    HW147812   7.783   2.637   4.993  0.2025 -0.2362  0.2165
15464SOL    HW247813   7.785   2.593   4.848  0.2748 -0.5890  0.3228
15465SOL     OW47814   3.843   2.474   6.927 -0.0711  0.7896 -0.1968
15465SOL    HW147815   3.852   2.393   6.978 -1.3076  1.1332  0.6222
15465SOL    HW247816   3.759   2.465   6.883 -0.0112  1.4511 -0.4460
15466SOL     OW47817   0.329   7.228   8.192 -0.2858 -0.9386 -0.4526
15466SOL    HW147818   0.322   7.315   8.153  0.2094 -0.9080 -0.4741
15466SOL    HW247819   0.241   7.191   8.184 -0.0116 -1.2434 -2.2983
15467SOL     OW47820   3.485   7.915   1.040  0.3832 -0.0278 -0.4087
15467SOL    HW147821   3.397   7.948   1.062  0.8728  1.0744 -0.0409
15467SOL    HW247822   3.528   7.990   0.999  1.7418 -0.0055  0.9947
15468SOL     OW47823   5.510   2.159   7.258 -0.3441  0.6779  0.5331
15468SOL    HW147824   5.551   2.184   7.340  2.4183  0.1272 -0.5730
15468SOL    HW247825   5.562   2.202   7.190 -1.1031 -0.7007 -1.0189
15469SOL     OW47826   5.383   8.153   8.246  0.1469  0.2626  0.2911
15469SOL    HW147827   5.330   8.233   8.244  1.3919  1.2707  3.3181
15469SOL    HW247828   5.318   8.082   8.243 -1.0180  1.3071 -1.4924
15470SOL     OW47829   3.903   7.097   7.875  0.4364  0.6332  0.2052
15470SOL    HW147830   3.907   7.171   7.814  0.6856  0.0656 -0.4810
15470SOL    HW247831   3.995   7.079   7.897  0.5384 -0.6815 -1.1391
15471SOL     OW47832   1.694   8.042   2.368  0.0560  0.4067  0.1255
15471SOL    HW147833   1.626   7.983   2.399 -1.4967  2.2948  0.4960
15471SOL    HW247834   1.664   8.072   2.283  1.0029  0.3744 -0.2320
15472SOL     OW47835   2.051   4.998   3.337 -0.0919 -0.5460  0.0466
15472SOL    HW147836   2.076   4.910   3.310  1.6485  0.4029 -1.7001
15472SOL    HW247837   1.978   5.021   3.280 -2.0442 -1.5861  1.9847
15473SOL     OW47838   4.631   4.177   6.749 -0.7149 -0.5501  0.0465
15473SOL    HW147839   4.678   4.214   6.675  0.7033  2.9069  2.4279
15473SOL    HW247840   4.539   4.200   6.733 -1.1692 -3.3932 -2.4067
15474SOL     OW47841   1.357   5.587   1.841 -0.0477 -0.0585  0.8322
15474SOL    HW147842   1.267   5.560   1.858 -0.1505  0.9375  1.9752
15474SOL    HW247843   1.393   5.606   1.928  1.1636 -0.1128  0.3580
15475SOL     OW47844   6.859   2.431   2.844 -0.2258  0.2250  0.0632
15475SOL    HW147845   6.913   2.468   2.774  0.4471  0.0469  0.4803
15475SOL    HW247846   6.801   2.369   2.799 -0.0096  0.3406 -0.3794
15476SOL     OW47847   4.607   6.617   7.282  0.1685  0.0832  1.0531
15476SOL    HW147848   4.539   6.676   7.249  0.9966  0.1912 -0.5756
15476SOL    HW247849   4.584   6.531   7.246 -0.4968 -0.4334  2.6224
15477SOL     OW47850   4.423   7.992   3.110  0.4491 -0.8210  0.1025
15477SOL    HW147851   4.453   8.053   3.043 -1.7929 -0.3936 -0.6007
15477SOL    HW247852   4.448   8.034   3.193  0.6903  0.0664 -0.4031
15478SOL     OW47853   3.457   3.708   1.893 -0.1683  0.1102  0.2045
15478SOL    HW147854   3.371   3.722   1.932  0.0588 -1.1722  1.2156
15478SOL    HW247855   3.461   3.614   1.876  1.3543  0.0069  0.9631
15479SOL     OW47856   6.578   4.124   5.999 -0.4930  0.2177  0.3687
15479SOL    HW147857   6.552   4.032   6.005  1.3087 -0.3586  0.0974
15479SOL    HW247858   6.505   4.173   6.036 -1.7351 -1.2785 -0.0133
15480SOL     OW47859   7.841   6.007   8.331  0.3156 -0.2552  0.2084
15480SOL    HW147860   7.779   6.044   8.268  0.4848  0.3767  0.4014
15480SOL    HW247861   7.927   6.036   8.301  0.3114  1.2114  1.4459
15481SOL     OW47862   6.705   4.142   7.732  1.0217  0.0097 -0.0191
15481SOL    HW147863   6.768   4.214   7.722  0.2452  1.1405  2.4015
15481SOL    HW247864   6.757   4.071   7.771  1.2440  0.2368  0.1093
15482SOL     OW47865   3.357   6.006   7.544  0.6513  0.6030  0.2308
15482SOL    HW147866   3.407   5.927   7.523 -1.0482 -0.7065  0.8113
15482SOL    HW247867   3.309   5.983   7.624 -2.0578  1.1376 -1.1150
15483SOL     OW47868   7.598   1.251   3.646 -0.5045  0.4908  0.0180
15483SOL    HW147869   7.611   1.342   3.618 -0.6207 -0.0761 -1.9860
15483SOL    HW247870   7.503   1.242   3.652 -0.4762  0.6817  0.9351
15484SOL     OW47871   4.891   2.662   8.084  0.0514 -0.4264  0.8797
15484SOL    HW147872   4.831   2.657   8.009  0.9020 -0.2838  0.1749
15484SOL    HW247873   4.875   2.581   8.132 -0.8003 -0.3314  0.7769
15485SOL     OW47874   2.715   6.523   2.063 -0.0992  0.2585  0.3065
15485SOL    HW147875   2.764   6.586   2.116 -0.5087  0.0789  0.9115
15485SOL    HW247876   2.713   6.562   1.976  1.4615  0.0810  0.1606
15486SOL     OW47877   4.579   0.071   5.829  0.3699 -0.1270 -0.1540
15486SOL    HW147878   4.673   0.070   5.848  0.5861  0.4444 -1.1299
15486SOL    HW247879   4.565  -0.006   5.773 -0.0023 -0.9637  1.0343
15487SOL     OW47880   1.425   1.383   4.779  0.1335  1.1359 -0.0927
15487SOL    HW147881   1.484   1.371   4.854  0.1614  0.0833 -0.2721
15487SOL    HW247882   1.345   1.419   4.817  0.5856  1.7741  0.2713
15488SOL     OW47883   4.042   7.553   7.468  0.0992 -0.4452  0.1526
15488SOL    HW147884   4.032   7.466   7.428  1.3508 -0.0845 -0.9945
15488SOL    HW247885   3.967   7.603   7.436  0.1723 -0.6666 -0.3681
15489SOL     OW47886   7.526   3.234   1.631 -0.2140  0.0516 -0.4387
15489SOL    HW147887   7.483   3.284   1.562 -0.4701  0.3562 -0.0647
15489SOL    HW247888   7.615   3.270   1.635 -0.3521  0.3751 -0.2713
15490SOL     OW47889   3.872   1.585   3.762  0.4594 -0.0939  0.1854
15490SOL    HW147890   3.960   1.606   3.730 -0.0830  1.3795 -0.4768
15490SOL    HW247891   3.871   1.619   3.852  1.2324 -2.1158  1.0200
15491SOL     OW47892   8.086   5.346   6.761 -0.4023 -0.0270 -0.5883
15491SOL    HW147893   8.014   5.407   6.778  0.6460  1.4585 -1.3353
15491SOL    HW247894   8.147   5.359   6.834  0.3578  0.6542 -1.3286
15492SOL     OW47895   5.753   0.155   7.083  0.4384  0.5505 -0.3197
15492SOL    HW147896   5.674   0.198   7.117 -0.6732 -0.9428 -0.9030
15492SOL    HW247897   5.820   0.224   7.084 -0.9937  2.0092 -0.3077
15493SOL     OW47898   8.277   0.556   1.878  0.4336  0.2720  0.4696
15493SOL    HW147899   8.221   0.618   1.831  0.6372  0.1029 -0.0045
15493SOL    HW247900   8.228   0.535   1.958 -0.0771  0.2962  0.1672
15494SOL     OW47901   6.790   0.259   6.159 -0.5110 -0.0399  0.1338
15494SOL    HW147902   6.846   0.319   6.109  0.0604 -0.3768  0.3569
15494SOL    HW247903   6.714   0.245   6.103  1.0107 -2.0002 -1.5711
15495SOL     OW47904   3.043   5.662   5.812  0.3692 -0.1043  0.1520
15495SOL    HW147905   3.129   5.655   5.853  0.3973 -0.1611  0.0828
15495SOL    HW247906   3.024   5.573   5.782  1.5434  0.4468 -2.4392
15496SOL     OW47907   5.948   2.573   4.283 -0.1082  0.3175 -0.6470
15496SOL    HW147908   5.929   2.590   4.191  0.0497  1.8193 -0.4290
15496SOL    HW247909   6.024   2.515   4.281 -0.6131 -0.3492 -1.4513
15497SOL     OW47910   7.187   4.058   3.820 -0.0237 -0.5712 -0.9613
15497SOL    HW147911   7.150   4.053   3.732 -0.3153 -0.7622 -0.8279
15497SOL    HW247912   7.280   4.075   3.806  0.2020 -1.9744 -1.3420
15498SOL     OW47913   3.851   2.446   3.300 -0.5344 -0.0644 -0.1918
15498SOL    HW147914   3.866   2.459   3.207 -0.5076  0.7309 -0.0855
15498SOL    HW247915   3.871   2.531   3.340 -1.3877 -0.1419  0.4373
15499SOL     OW47916   4.976   7.212   7.262  0.6522  0.3472 -0.2359
15499SOL    HW147917   4.984   7.307   7.271  0.7806  0.3614 -0.4718
15499SOL    HW247918   4.930   7.199   7.179 -0.5700  0.2260  0.4518
15500SOL     OW47919   4.863   3.665   7.572 -0.4125  0.6683 -0.3847
15500SOL    HW147920   4.824   3.604   7.635  1.3828  0.4725  0.6125
15500SOL    HW247921   4.795   3.729   7.556 -0.5324  1.5662  2.9454
15501SOL     OW47922   8.206   2.200   1.716  0.1110  0.6840 -0.3587
15501SOL    HW147923   8.192   2.294   1.707 -0.1322  0.8648  1.3773
15501SOL    HW247924   8.117   2.163   1.720  0.2037  0.3329 -1.3059
15502SOL     OW47925   1.516   5.567   2.385 -0.0680  0.2336 -0.4612
15502SOL    HW147926   1.529   5.657   2.416  2.3153 -0.2379  0.0782
15502SOL    HW247927   1.600   5.524   2.401 -0.8552 -1.8381 -1.6044
15503SOL     OW47928   4.766   0.555   0.973 -0.0905  0.3707 -0.3603
15503SOL    HW147929   4.861   0.569   0.969  0.6868 -3.5944 -0.2292
15503SOL    HW247930   4.741   0.586   1.059  1.0860  1.4979 -0.3981
15504SOL     OW47931   8.035   7.341   2.768  0.0704 -0.2073  0.3726
15504SOL    HW147932   8.122   7.310   2.744  1.1129  1.9494  1.0880
15504SOL    HW247933   8.051   7.416   2.826 -2.2707 -0.4980  1.5585
15505SOL     OW47934   0.862   3.116   4.584  0.3361 -0.2694  0.8000
15505SOL    HW147935   0.912   3.191   4.616 -2.8980  2.8383 -0.7662
15505SOL    HW247936   0.785   3.112   4.641  0.0488 -1.9535  0.3577
15506SOL     OW47937   0.580   6.264   8.076  0.4200  0.5018 -0.1462
15506SOL    HW147938   0.667   6.224   8.087  1.1366  1.4743 -1.8755
15506SOL    HW247939   0.523   6.192   8.049  0.9148  0.0309  0.0439
15507SOL     OW47940   7.685   3.295   3.000 -0.4473  0.4085  0.1573
15507SOL    HW147941   7.594   3.302   2.970  0.0894  2.2526 -1.2064
15507SOL    HW247942   7.726   3.378   2.973  1.1301  0.5167  2.5568
15508SOL     OW47943   4.252   1.129   7.908 -0.2283  0.2044 -0.4581
15508SOL    HW147944   4.242   1.214   7.952  1.7767  0.2400  0.0248
15508SOL    HW247945   4.244   1.149   7.815 -0.0587  0.8854 -0.3361
15509SOL     OW47946   3.483   1.699   7.335 -0.0224  0.7931 -0.1866
15509SOL    HW147947   3.441   1.747   7.263  0.2695  0.7276 -0.4072
15509SOL    HW247948   3.413   1.683   7.398 -0.3214  0.6924 -0.5408
15510SOL     OW47949   0.291   3.617   3.319  0.0992 -0.0715  0.9264
15510SOL    HW147950   0.340   3.699   3.315  0.3769 -0.2370  0.8433
15510SOL    HW247951   0.287   3.595   3.412 -1.1002  0.6921  1.0768
15511SOL     OW47952   4.106   5.751   6.675 -0.2999 -0.1333 -0.1587
15511SOL    HW147953   4.151   5.744   6.590 -0.8582 -1.6856 -0.3719
15511SOL    HW247954   4.112   5.843   6.698 -1.5288  0.6777 -2.6818
15512SOL     OW47955   8.307   7.854   6.920 -0.0984  0.5035 -0.4757
15512SOL    HW147956   8.298   7.903   6.839  1.4942  0.3163 -0.8130
15512SOL    HW247957   8.377   7.791   6.902  1.1963  1.3034  1.4133
15513SOL     OW47958   4.999   5.060   3.643  0.0061 -0.1128 -0.3051
15513SOL    HW147959   4.939   5.119   3.597  1.0064  1.0575 -0.1479
15513SOL    HW247960   5.080   5.109   3.651 -0.0622 -0.2747  2.5721
15514SOL     OW47961   8.264   0.751   2.158 -0.5304 -0.1114 -0.3322
15514SOL    HW147962   8.195   0.756   2.092 -0.6872  1.1576 -0.1035
15514SOL    HW247963   8.241   0.818   2.222  1.6447  1.3707 -1.0016
15515SOL     OW47964   5.412   7.305   1.551 -0.3278 -0.2158 -0.5088
15515SOL    HW147965   5.373   7.389   1.577 -1.2299 -0.7888  0.0150
15515SOL    HW247966   5.417   7.255   1.632  0.0027 -0.7611 -0.8621
15516SOL     OW47967   5.256   7.761   7.947  0.0070 -0.5437  0.0127
15516SOL    HW147968   5.196   7.833   7.928  0.9807  0.3248  0.1465
15516SOL    HW247969   5.222   7.722   8.027 -0.1277  0.2223  0.3350
15517SOL     OW47970   6.300   7.453   4.741 -0.6637 -0.3226  0.6434
15517SOL    HW147971   6.310   7.473   4.648 -1.0792 -0.1954  0.6211
15517SOL    HW247972   6.257   7.531   4.777 -1.2662 -0.7058  0.7723
15518SOL     OW47973   2.987   3.219   2.811 -0.9306 -0.0193  0.2054
15518SOL    HW147974   2.926   3.227   2.885 -0.3793  0.9805  0.5668
15518SOL    HW247975   2.995   3.308   2.777 -1.0461 -0.4402 -0.9729
15519SOL     OW47976   1.439   1.007   3.955  0.0751  0.3589 -0.1231
15519SOL    HW147977   1.399   1.046   3.877 -2.8580 -1.7369  0.1770
15519SOL    HW247978   1.521   1.054   3.965 -0.4703  2.2633 -3.1554
15520SOL     OW47979   2.845   4.215   6.584  0.1172  0.1221 -0.4214
15520SOL    HW147980   2.921   4.160   6.600 -0.4827 -0.5894  0.0164
15520SOL    HW247981   2.770   4.159   6.602 -0.5923  0.0989 -2.9925
15521SOL     OW47982   2.300   5.408   0.391 -1.0075 -0.0257 -0.3987
15521SOL    HW147983   2.313   5.494   0.431  0.2169 -0.5131  0.3159
15521SOL    HW247984   2.323   5.420   0.299  2.2894 -0.2227  0.2780
15522SOL     OW47985   1.194   7.050   6.937  0.4219 -0.2414 -0.0382
15522SOL    HW147986   1.235   7.136   6.934  1.1790 -0.5210  1.3172
15522SOL    HW247987   1.101   7.067   6.918  0.1516  1.2069  2.2127
15523SOL     OW47988   1.997   6.301   7.336  0.0156  0.6875 -0.4414
15523SOL    HW147989   2.035   6.360   7.400  0.0505  1.1050 -0.8388
15523SOL    HW247990   2.042   6.217   7.351 -0.0844  0.7413  0.1678
15524SOL     OW47991   6.472   6.605   8.011  0.3248  0.1866  0.2223
15524SOL    HW147992   6.388   6.561   8.025  0.3916 -0.0857 -0.1938
15524SOL    HW247993   6.535   6.555   8.063  0.3858 -0.1630 -0.1835
15525SOL     OW47994   6.434   1.680   1.036  0.0637 -0.3336 -0.0278
15525SOL    HW147995   6.440   1.660   0.943 -0.2212 -0.5826  0.0068
15525SOL    HW247996   6.512   1.640   1.075 -0.0001 -0.5289 -0.1045
15526SOL     OW47997   6.002   1.891   2.346  0.5982  0.5277 -0.2904
15526SOL    HW147998   6.049   1.967   2.378 -0.3156  1.7026 -1.5823
15526SOL    HW247999   6.040   1.874   2.260 -0.1749  0.4480 -0.6270
15527SOL     OW48000   2.791   3.962   0.465 -0.1298 -0.1561 -0.1515
15527SOL    HW148001   2.848   3.895   0.503  1.0423 -0.4689 -2.3370
15527SOL    HW248002   2.831   4.045   0.491  1.2897 -0.3715 -1.5108
15528SOL     OW48003   2.107   0.606   7.361  0.0702  0.0795  0.9346
15528SOL    HW148004   2.075   0.693   7.388 -0.5340  0.0676  0.2999
15528SOL    HW248005   2.158   0.624   7.282 -0.1931 -0.1596  0.7098
15529SOL     OW48006   0.058   7.867   5.743 -0.4496  0.1095 -0.1276
15529SOL    HW148007   0.103   7.951   5.747  0.4573 -0.4078  1.1618
15529SOL    HW248008  -0.027   7.884   5.784 -1.4165  1.0228 -2.3398
15530SOL     OW48009   6.430   0.507   0.216 -0.2849 -0.2250  0.2143
15530SOL    HW148010   6.493   0.543   0.277  1.0882 -2.0087 -0.0662
15530SOL    HW248011   6.349   0.500   0.267 -0.4780  2.5743  0.4215
15531SOL     OW48012   1.607   5.679   5.602 -0.5299 -0.4262 -0.0751
15531SOL    HW148013   1.696   5.694   5.570 -0.2154 -1.1627  0.4256
15531SOL    HW248014   1.553   5.744   5.557  0.2870  0.1184 -0.2747
15532SOL     OW48015   0.488   4.005   5.267  0.5630  0.7899  0.8991
15532SOL    HW148016   0.444   3.956   5.197  0.4003  0.7685  1.0152
15532SOL    HW248017   0.464   4.096   5.250 -2.5948  0.5172  3.0391
15533SOL     OW48018   1.983   1.433   6.279 -0.2000  0.3692 -0.1464
15533SOL    HW148019   2.016   1.510   6.324 -0.7704  0.6693 -0.2337
15533SOL    HW248020   2.032   1.430   6.197 -1.1448  1.4389 -0.7738
15534SOL     OW48021   5.474   1.581   6.424 -0.1327  0.5216 -0.0067
15534SOL    HW148022   5.441   1.546   6.341  2.5945 -1.2161 -0.4820
15534SOL    HW248023   5.479   1.676   6.410 -0.5884  0.3551 -1.4706
15535SOL     OW48024   0.195   8.148   5.427  0.4720 -0.1362  0.2624
15535SOL    HW148025   0.109   8.123   5.393  0.9705  1.2418 -2.2387
15535SOL    HW248026   0.250   8.071   5.411  0.6917  0.4675 -2.2789
15536SOL     OW48027   5.731   0.904   1.208 -0.3052  0.0678 -0.4333
15536SOL    HW148028   5.777   0.866   1.133  1.2713 -1.3392  1.1671
15536SOL    HW248029   5.649   0.855   1.212  0.1862 -0.7755 -0.4621
15537SOL     OW48030   1.225   8.299   7.138  0.0108  0.1293 -0.2218
15537SOL    HW148031   1.266   8.365   7.194 -1.7558  0.4698  0.7198
15537SOL    HW248032   1.197   8.348   7.061  2.1212 -0.2758 -1.3279
15538SOL     OW48033   3.023   7.772   7.272  0.2136 -0.6900 -0.1887
15538SOL    HW148034   3.088   7.794   7.339  1.8576  1.4803 -2.3591
15538SOL    HW248035   2.981   7.855   7.252 -2.6537 -1.8857  0.4297
15539SOL     OW48036   0.210   6.618   3.813  0.2481 -0.3190 -0.1430
15539SOL    HW148037   0.145   6.567   3.860  0.4972 -0.2957  0.2387
15539SOL    HW248038   0.200   6.707   3.848  0.8838 -0.4356  0.3657
15540SOL     OW48039   3.715   2.666   4.179  0.7239 -0.2554 -0.2304
15540SOL    HW148040   3.727   2.724   4.103  0.3470 -0.1206 -0.1916
15540SOL    HW248041   3.803   2.653   4.213  0.8118  0.3359 -0.2158
15541SOL     OW48042   2.367   3.316   3.878  0.5944  0.1510 -0.2256
15541SOL    HW148043   2.414   3.380   3.824  1.5740  0.8658  1.4120
15541SOL    HW248044   2.334   3.367   3.952  0.3720 -1.0408  0.5179
15542SOL     OW48045   6.834   2.575   4.789 -0.4800 -0.4029  0.5119
15542SOL    HW148046   6.924   2.581   4.757 -1.1782 -1.2808 -1.8194
15542SOL    HW248047   6.805   2.666   4.795  0.8911 -0.0240  2.5111
15543SOL     OW48048   0.335   8.140   4.788 -0.5956  0.3836 -0.1609
15543SOL    HW148049   0.269   8.206   4.807 -0.6418  1.2823 -2.9269
15543SOL    HW248050   0.296   8.087   4.718  0.0002 -1.7313  1.0430
15544SOL     OW48051   6.647   5.023   0.648 -0.3372 -0.4131  0.3225
15544SOL    HW148052   6.577   5.086   0.668  0.6619  0.9214 -0.1949
15544SOL    HW248053   6.603   4.953   0.599 -1.1867  0.8354 -0.7922
15545SOL     OW48054   2.945   2.959   0.828  0.4258  0.4836 -0.7026
15545SOL    HW148055   2.995   3.037   0.853  1.6047 -0.6155  0.5598
15545SOL    HW248056   2.990   2.925   0.751  0.5902  0.4460 -0.5904
15546SOL     OW48057   3.045   6.743   1.951  0.2927 -0.5876 -0.0304
15546SOL    HW148058   3.024   6.827   1.992  0.6448  0.2894 -1.5590
15546SOL    HW248059   3.065   6.685   2.024  0.7102  0.8443  1.0402
15547SOL     OW48060   5.614   1.306   4.612  0.0394  0.1910 -0.2551
15547SOL    HW148061   5.542   1.273   4.558 -0.1471  0.5663 -0.2387
15547SOL    HW248062   5.692   1.260   4.578  0.1113  1.2419 -1.6122
15548SOL     OW48063   1.678   6.967   6.080 -0.4532  0.2495  0.4069
15548SOL    HW148064   1.623   7.007   6.148 -2.8487 -0.5171 -0.9479
15548SOL    HW248065   1.730   7.039   6.045 -0.1429  0.9029  2.1245
15549SOL     OW48066   1.917   4.665   7.253  0.0944 -0.0572 -0.4226
15549SOL    HW148067   1.953   4.579   7.277  0.9460 -0.3554 -2.4787
15549SOL    HW248068   1.827   4.646   7.226  0.2984 -0.3480 -0.9291
15550SOL     OW48069   2.670   2.033   3.393  0.5723  0.4967 -0.2468
15550SOL    HW148070   2.641   2.124   3.387  2.3507  0.9942 -2.3306
15550SOL    HW248071   2.636   1.992   3.313  1.2584 -0.2063 -0.1822
15551SOL     OW48072   7.474   5.530   1.810 -0.3032  0.4552  0.0886
15551SOL    HW148073   7.476   5.612   1.859 -2.2935  0.6338 -0.0383
15551SOL    HW248074   7.476   5.556   1.718 -0.9867  0.3959  0.0470
15552SOL     OW48075   3.625   6.742   0.935  0.9998  0.4681  0.9016
15552SOL    HW148076   3.638   6.815   0.874 -0.5784 -0.6724 -0.9018
15552SOL    HW248077   3.665   6.667   0.890  0.5728 -0.2210  1.6581
15553SOL     OW48078   6.906   1.886   8.290 -0.0054 -0.4390  0.0448
15553SOL    HW148079   6.962   1.809   8.284 -0.2504 -0.7804  1.5720
15553SOL    HW248080   6.966   1.960   8.298  0.2448 -0.3388 -2.2138
15554SOL     OW48081   0.629   0.017   1.285  0.2393  0.6348 -1.0266
15554SOL    HW148082   0.670   0.081   1.228  1.9461  0.3673 -0.1521
15554SOL    HW248083   0.661  -0.068   1.253 -0.8016  0.2913 -1.2245
15555SOL     OW48084   1.094   7.259   7.978  0.3509 -0.1510 -0.2324
15555SOL    HW148085   1.153   7.333   7.994  2.2678 -1.3850 -1.2453
15555SOL    HW248086   1.024   7.296   7.924  0.3016  1.3010  0.7788
15556SOL     OW48087   3.582   7.554   5.383  0.3892 -0.1123  0.0146
15556SOL    HW148088   3.556   7.532   5.472 -2.3140  2.8379  0.1425
15556SOL    HW248089   3.526   7.501   5.327  0.6598 -0.4795  0.0871
15557SOL     OW48090   1.317   1.583   4.389  1.0256  1.0196  0.1192
15557SOL    HW148091   1.355   1.498   4.410  2.7342  1.8353  0.5121
15557SOL    HW248092   1.265   1.606   4.466 -2.3044 -1.0998 -1.2805
15558SOL     OW48093   1.121   8.294   2.962 -0.0819 -0.1324 -0.3463
15558SOL    HW148094   1.148   8.377   2.923 -0.1784  0.2650  0.4312
15558SOL    HW248095   1.189   8.274   3.026 -0.5858 -0.1378  0.1891
15559SOL     OW48096   5.549   8.029   4.435 -0.3854 -0.5848 -0.3583
15559SOL    HW148097   5.639   8.019   4.464  0.0525  2.0274 -0.6209
15559SOL    HW248098   5.556   8.060   4.344 -1.4453  1.1251  0.0899
15560SOL     OW48099   0.133   0.793   4.676 -0.0186 -0.2782 -0.2351
15560SOL    HW148100   0.078   0.853   4.725  0.8711 -1.3147  2.1837
15560SOL    HW248101   0.197   0.849   4.633  0.2586  0.6066  1.2576
15561SOL     OW48102   4.394   0.542   3.028  0.7090 -0.2468 -0.5049
15561SOL    HW148103   4.488   0.553   3.012  0.3823  3.1035 -0.8329
15561SOL    HW248104   4.370   0.617   3.082 -1.8897 -0.7426 -0.8376
15562SOL     OW48105   2.151   7.462   3.494  0.1587  0.4508  0.2888
15562SOL    HW148106   2.163   7.557   3.491 -0.4367  0.5164 -0.3245
15562SOL    HW248107   2.058   7.450   3.510  0.1892 -0.0315  0.1215
15563SOL     OW48108   1.663   7.141   3.008 -0.3937 -0.5223 -0.0381
15563SOL    HW148109   1.691   7.226   2.972  0.3800 -1.5877 -2.1213
15563SOL    HW248110   1.577   7.126   2.969 -0.0707 -1.1435 -0.5292
15564SOL     OW48111   4.181   6.198   6.956 -0.3025 -0.3219  0.4540
15564SOL    HW148112   4.242   6.225   6.887 -2.0896 -1.5104 -1.7389
15564SOL    HW248113   4.168   6.105   6.941 -2.8573 -0.0474  0.6335
15565SOL     OW48114   4.517   7.773   4.224  0.2552 -0.2432 -0.3712
15565SOL    HW148115   4.446   7.821   4.267  1.2502  1.3584 -0.4278
15565SOL    HW248116   4.517   7.687   4.266 -0.6589  0.2875  0.7768
15566SOL     OW48117   4.170   4.673   0.105 -0.5968  0.4986  0.1769
15566SOL    HW148118   4.150   4.702   0.016  0.4342  0.8507  0.0410
15566SOL    HW248119   4.217   4.591   0.093 -0.1950  0.6954  0.3733
15567SOL     OW48120   1.700   5.370   0.317  0.3405  0.3111 -0.0967
15567SOL    HW148121   1.741   5.353   0.232 -0.0407 -0.9542 -0.0614
15567SOL    HW248122   1.700   5.284   0.360 -2.5632  0.1470 -0.2135
15568SOL     OW48123   3.225   0.053   1.278 -0.1764  0.1119 -0.0117
15568SOL    HW148124   3.147  -0.003   1.280 -0.1479 -0.0494 -1.7787
15568SOL    HW248125   3.191   0.139   1.252  0.2701 -0.0575 -1.1899
15569SOL     OW48126   4.801   7.695   1.886  0.1495  0.0390 -0.5321
15569SOL    HW148127   4.722   7.641   1.890 -0.3819  0.6748 -1.9142
15569SOL    HW248128   4.834   7.695   1.976 -0.6107 -1.4173 -0.2149
15570SOL     OW48129   7.541   1.732   1.576  0.1146 -0.2104 -0.0147
15570SOL    HW148130   7.533   1.762   1.666  0.9374 -0.8483  0.2829
15570SOL    HW248131   7.586   1.647   1.582 -0.3231 -0.5296 -0.9780
15571SOL     OW48132   7.735   7.095   5.775  0.1825 -0.6764  0.3353
15571SOL    HW148133   7.762   7.134   5.692 -2.3447 -0.0080 -0.2542
15571SOL    HW248134   7.710   7.006   5.753 -0.0405 -0.6455  0.4536
15572SOL     OW48135   2.759   0.826   7.034 -0.3865  0.2619 -0.1613
15572SOL    HW148136   2.701   0.892   7.073 -1.8333  0.4947 -2.5453
15572SOL    HW248137   2.706   0.785   6.966  1.9778 -0.1755 -1.8477
15573SOL     OW48138   8.178   2.447   3.329  0.1449 -0.1067 -0.0342
15573SOL    HW148139   8.087   2.463   3.354  0.2375  0.9881 -0.3217
15573SOL    HW248140   8.173   2.422   3.237  0.1496  0.1429 -0.1025
15574SOL     OW48141   0.493   1.355   7.561 -0.2381  0.1961 -0.5587
15574SOL    HW148142   0.541   1.429   7.599  0.3282  0.2398 -1.3428
15574SOL    HW248143   0.401   1.381   7.565 -0.1524  0.3907  0.3500
15575SOL     OW48144   3.002   6.784   1.176 -0.0800  0.0762  0.2710
15575SOL    HW148145   3.091   6.792   1.209  0.2766 -2.4867  0.1061
15575SOL    HW248146   2.965   6.872   1.185  2.2436  1.0546  0.9044
15576SOL     OW48147   7.178   5.939   8.072  0.3349 -0.2237  0.8123
15576SOL    HW148148   7.241   5.981   8.131  0.0139  0.1514  0.8894
15576SOL    HW248149   7.104   6.000   8.069  0.7006  0.1848 -0.6704
15577SOL     OW48150   7.452   4.322   0.243 -0.0280  0.4229  0.0380
15577SOL    HW148151   7.400   4.394   0.208  0.6412  1.3359  0.8905
15577SOL    HW248152   7.477   4.271   0.166 -2.3802 -0.2099 -0.3848
15578SOL     OW48153   7.567   6.768   5.252 -0.3094 -0.4832 -0.3132
15578SOL    HW148154   7.619   6.814   5.186 -0.0060  2.1518  1.6050
15578SOL    HW248155   7.487   6.743   5.206 -0.2239  1.4877 -1.6469
15579SOL     OW48156   6.668   2.609   7.672 -0.0417  0.0162 -0.4807
15579SOL    HW148157   6.699   2.665   7.602  2.1568  1.8850  1.8320
15579SOL    HW248158   6.738   2.546   7.686 -1.3177 -1.6502 -1.2018
15580SOL     OW48159   7.509   0.146   4.713 -0.0523 -0.2360 -0.0237
15580SOL    HW148160   7.453   0.098   4.652  0.6302 -0.8609 -0.1648
15580SOL    HW248161   7.598   0.123   4.687  0.3330  1.7103 -0.5988
15581SOL     OW48162   4.496   1.766   2.008 -0.8835 -0.8053  0.1566
15581SOL    HW148163   4.447   1.848   2.006 -0.5715 -0.6273 -1.0581
15581SOL    HW248164   4.491   1.733   1.918  1.5004 -0.5908 -0.1262
15582SOL     OW48165   2.930   1.653   2.960 -0.4720  0.0027 -0.3977
15582SOL    HW148166   2.862   1.612   2.907 -1.5443 -0.0980  0.9755
15582SOL    HW248167   2.997   1.681   2.898 -1.2510 -0.9018 -1.6825
15583SOL     OW48168   1.315   4.964   2.546 -0.5590 -0.0050  0.3019
15583SOL    HW148169   1.237   5.016   2.527  0.5091  1.3496 -0.6172
15583SOL    HW248170   1.387   5.027   2.540  0.7487 -1.5050 -0.3461
15584SOL     OW48171   7.806   2.059   0.431 -0.3287  0.3132 -0.2848
15584SOL    HW148172   7.787   2.147   0.464 -1.2274  0.3756 -0.9344
15584SOL    HW248173   7.890   2.037   0.470 -0.0383  1.5047 -0.2005
15585SOL     OW48174   5.569   2.849   1.546  0.0593  0.4965 -0.2172
15585SOL    HW148175   5.644   2.817   1.595  0.2468 -1.7764 -1.8283
15585SOL    HW248176   5.606   2.887   1.466 -0.4342  0.3339 -0.5321
15586SOL     OW48177   0.151   8.009   4.582  0.2541 -0.2206 -0.4387
15586SOL    HW148178   0.149   7.923   4.625  0.2580 -0.2836 -0.5664
15586SOL    HW248179   0.064   8.018   4.542 -0.3295  0.5025  0.9025
15587SOL     OW48180   7.848   5.594   0.913 -0.4364 -0.1571  0.2399
15587SOL    HW148181   7.800   5.601   0.996  0.6823  0.2619  0.8712
15587SOL    HW248182   7.938   5.576   0.939  0.0892  0.7724 -0.8666
15588SOL     OW48183   3.009   5.442   5.237  0.0991  0.0670  0.0173
15588SOL    HW148184   2.925   5.473   5.270 -2.6896 -3.8719 -2.4764
15588SOL    HW248185   3.022   5.357   5.280  2.1886 -0.0280 -0.6702
15589SOL     OW48186   0.239   1.790   6.641  0.3938  0.3759  0.2876
15589SOL    HW148187   0.214   1.822   6.728  1.1969  0.5857  0.4498
15589SOL    HW248188   0.168   1.819   6.584 -0.9999 -1.2074  1.1381
15590SOL     OW48189   3.807   2.738   7.572 -0.4211 -0.1163 -0.2344
15590SOL    HW148190   3.846   2.705   7.491  0.1047 -0.3711  0.1203
15590SOL    HW248191   3.729   2.785   7.543 -0.4781 -0.5756 -0.8557
15591SOL     OW48192   0.937   7.257   3.889  0.1022 -0.3446  0.2018
15591SOL    HW148193   1.028   7.248   3.862  0.0585  1.9343 -0.9910
15591SOL    HW248194   0.888   7.260   3.807 -0.7178  1.0090  0.7049
15592SOL     OW48195   7.674   4.975   4.319 -0.2306 -0.2715 -0.5709
15592SOL    HW148196   7.739   5.031   4.275 -0.3933  0.2235 -0.1782
15592SOL    HW248197   7.617   4.945   4.248 -0.2697  0.2307 -0.7555
15593SOL     OW48198   6.822   8.349   5.270 -0.1809 -0.1302  0.1292
15593SOL    HW148199   6.853   8.439   5.259 -0.9233  0.0083 -1.0692
15593SOL    HW248200   6.878   8.312   5.339  2.0217  0.3457 -1.3191
15594SOL     OW48201   2.156   2.971   4.760  0.3483  0.3724 -0.6258
15594SOL    HW148202   2.104   2.898   4.727 -2.0354 -0.0927  3.4998
15594SOL    HW248203   2.246   2.948   4.737 -0.0608 -4.7298  1.5431
15595SOL     OW48204   0.958   8.057   2.502  0.5203 -0.3327 -0.2480
15595SOL    HW148205   1.052   8.066   2.515  0.3927 -1.2607  1.7999
15595SOL    HW248206   0.927   8.146   2.483  1.9419 -0.2390 -2.4394
15596SOL     OW48207   1.807   0.161   6.557  1.0813 -0.3181 -0.2585
15596SOL    HW148208   1.830   0.150   6.465 -0.7368 -1.8364 -0.5865
15596SOL    HW248209   1.832   0.252   6.577  3.9635 -0.7377 -1.4433
15597SOL     OW48210   5.588   4.012   1.499  0.3677 -0.4466 -0.0323
15597SOL    HW148211   5.657   3.945   1.494  1.5867  0.7612 -0.0277
15597SOL    HW248212   5.567   4.017   1.592  1.2059  0.0697  0.1406
15598SOL     OW48213   6.069   7.564   4.307 -0.2626 -0.6158 -0.1774
15598SOL    HW148214   6.055   7.488   4.251 -1.7924 -1.5862  1.4403
15598SOL    HW248215   6.143   7.541   4.363  0.5938 -0.0582 -1.0440
15599SOL     OW48216   2.032   4.375   7.217 -0.2339  0.1793  0.2018
15599SOL    HW148217   2.116   4.328   7.218 -0.6831 -0.7250 -0.9973
15599SOL    HW248218   1.967   4.308   7.241 -0.6787  0.6876  0.4286
15600SOL     OW48219   1.267   5.377   7.015 -0.8543 -0.0594 -0.2758
15600SOL    HW148220   1.340   5.328   6.977  0.3713  0.4386  1.3209
15600SOL    HW248221   1.189   5.343   6.970  0.2288 -1.4585 -1.1878
15601SOL     OW48222   7.981   1.141   0.259  0.4963 -0.6007  0.1761
15601SOL    HW148223   8.017   1.218   0.304  0.6396  0.5857 -1.8575
15601SOL    HW248224   7.982   1.165   0.167  1.2232 -3.3397 -0.6048
15602SOL     OW48225   0.339   7.885   7.722 -0.6173  0.7870  0.6761
15602SOL    HW148226   0.414   7.915   7.773  0.1987  0.8779 -0.5351
15602SOL    HW248227   0.304   7.965   7.682  0.9962  0.3439 -1.8174
15603SOL     OW48228   5.195   5.804   3.054 -0.1317 -0.0135 -0.1288
15603SOL    HW148229   5.261   5.740   3.079 -0.1108 -0.3726 -1.0396
15603SOL    HW248230   5.233   5.849   2.978 -0.2803  0.8625  0.3036
15604SOL     OW48231   1.687   3.942   4.977  1.2075 -0.2154 -0.4977
15604SOL    HW148232   1.597   3.912   4.986  0.2581  2.3868 -0.5948
15604SOL    HW248233   1.725   3.933   5.064  1.0151 -1.7161 -0.5490
15605SOL     OW48234   1.232   5.562   7.645  0.1602 -0.0964  0.2260
15605SOL    HW148235   1.177   5.519   7.579  0.7223  0.5347 -0.6772
15605SOL    HW248236   1.199   5.652   7.647  0.6016  0.0632  0.2965
15606SOL     OW48237   5.838   6.429   6.050  0.2669  0.5369  0.4241
15606SOL    HW148238   5.846   6.472   5.965  2.1376  0.0420  0.2977
15606SOL    HW248239   5.831   6.500   6.113 -2.9979  0.9179 -0.1963
15607SOL     OW48240   8.087   7.129   3.882 -0.0642  0.2736  0.2292
15607SOL    HW148241   8.031   7.201   3.855 -1.3778 -0.9516 -0.4771
15607SOL    HW248242   8.116   7.152   3.970 -1.2271  1.2033  0.3840
15608SOL     OW48243   1.267   6.751   7.964  0.3694  0.5785 -0.5817
15608SOL    HW148244   1.233   6.697   7.892  0.0784 -1.8323  1.2354
15608SOL    HW248245   1.220   6.834   7.955 -0.3501  0.0298 -2.5979
15609SOL     OW48246   0.845   5.711   1.808  0.2721 -0.4981 -0.0871
15609SOL    HW148247   0.851   5.645   1.740  1.6515 -1.1113  0.6085
15609SOL    HW248248   0.776   5.771   1.777 -2.1508 -3.0417 -0.0270
15610SOL     OW48249   5.974   0.603   2.545 -0.0480 -0.0055  0.1383
15610SOL    HW148250   5.879   0.610   2.547 -0.2113 -1.4101 -1.1829
15610SOL    HW248251   6.004   0.685   2.507 -0.7886  0.1289 -0.1571
15611SOL     OW48252   4.270   3.371   3.882  0.0237 -0.0220 -0.2571
15611SOL    HW148253   4.298   3.287   3.918 -1.7188 -0.7921 -0.5565
15611SOL    HW248254   4.189   3.391   3.931  0.0840  1.1648 -0.6275
15612SOL     OW48255   3.164   0.825   5.609  0.9776 -0.1649 -0.3183
15612SOL    HW148256   3.226   0.812   5.681  1.1890  1.2337 -0.2065
15612SOL    HW248257   3.078   0.809   5.648  0.9714  1.9478  0.6860
15613SOL     OW48258   7.793   0.109   4.791  0.1724 -0.1825  0.1114
15613SOL    HW148259   7.759   0.169   4.858  1.4073  0.1787  0.4305
15613SOL    HW248260   7.752   0.025   4.812 -1.0332  0.3666  0.0798
15614SOL     OW48261   4.656   3.959   8.057  0.4828  0.5218 -0.3420
15614SOL    HW148262   4.583   3.973   7.997 -0.2481 -1.5179 -0.0112
15614SOL    HW248263   4.701   3.882   8.023  2.2234  1.4396 -0.2535
15615SOL     OW48264   7.689   0.482   0.515  0.3768 -0.0101 -0.2452
15615SOL    HW148265   7.618   0.465   0.454 -0.5766  0.6927  0.6481
15615SOL    HW248266   7.668   0.567   0.554  0.8821 -0.5083  1.1724
15616SOL     OW48267   5.721   2.995   2.259  0.5584 -0.1036 -0.0847
15616SOL    HW148268   5.744   2.933   2.189 -0.1176 -0.8014  0.3032
15616SOL    HW248269   5.771   2.964   2.335 -0.2297 -0.5342  0.2672
15617SOL     OW48270   2.433   7.823   6.166 -0.2277  0.7228 -0.5441
15617SOL    HW148271   2.465   7.894   6.223 -1.5089  0.9827 -0.1124
15617SOL    HW248272   2.504   7.759   6.166  0.4106  1.3964  0.1452
15618SOL     OW48273   2.642   6.946   7.799 -0.3311  0.1374 -0.0402
15618SOL    HW148274   2.619   6.861   7.836 -1.1484  0.3675  0.0020
15618SOL    HW248275   2.665   6.928   7.708 -1.6351  0.0079 -0.3648
15619SOL     OW48276   2.740   7.273   3.505 -0.2174  0.4586  0.3539
15619SOL    HW148277   2.801   7.332   3.549 -1.5176  0.7045  1.9079
15619SOL    HW248278   2.687   7.235   3.576 -1.2763 -0.4337 -0.8549
15620SOL     OW48279   7.025   5.668   1.403 -0.1195  0.4422  0.2753
15620SOL    HW148280   7.089   5.645   1.336 -1.8669 -1.9783 -0.7108
15620SOL    HW248281   6.953   5.606   1.390 -1.4382  1.2039  3.1124
15621SOL     OW48282   6.092   2.226   0.269  0.4818 -0.3671 -0.1229
15621SOL    HW148283   6.023   2.253   0.208  0.6369  1.2164  0.3505
15621SOL    HW248284   6.156   2.298   0.265  1.6606 -1.3737  0.1295
15622SOL     OW48285   0.810   5.547   7.398 -0.3496 -0.4258  0.1360
15622SOL    HW148286   0.800   5.560   7.304  0.2543 -0.6114  0.0455
15622SOL    HW248287   0.733   5.591   7.436 -2.1428 -2.7625 -0.5912
15623SOL     OW48288   7.432   0.687   2.827 -0.3704  0.1538 -0.5547
15623SOL    HW148289   7.445   0.709   2.734 -0.0333 -0.8934 -0.7724
15623SOL    HW248290   7.351   0.636   2.828 -0.0371 -0.3762 -0.3690
15624SOL     OW48291   8.314   4.945   4.502  0.3305  0.3363  0.1485
15624SOL    HW148292   8.294   4.961   4.410 -1.4972 -1.3732  0.1824
15624SOL    HW248293   8.360   5.023   4.531  1.0332  0.8743 -2.2282
15625SOL     OW48294   8.342   1.495   7.632  0.1127  0.5299 -0.3180
15625SOL    HW148295   8.247   1.494   7.639  0.0863 -0.6358 -0.7682
15625SOL    HW248296   8.365   1.588   7.630 -1.1966  0.8562 -2.5947
15626SOL     OW48297   6.045   6.134   5.337  0.1750  0.2540 -0.0787
15626SOL    HW148298   5.995   6.141   5.256  0.4626 -0.9937 -0.3872
15626SOL    HW248299   6.114   6.200   5.328 -0.7105  1.1785 -0.1600
15627SOL     OW48300   4.586   0.538   2.321 -0.3789  0.0535 -0.1626
15627SOL    HW148301   4.658   0.491   2.363 -0.2656  0.8264  0.5429
15627SOL    HW248302   4.618   0.628   2.314 -1.3960  0.4827  0.4616
15628SOL     OW48303   4.545   2.534   7.953 -0.1823  0.7584 -0.6797
15628SOL    HW148304   4.548   2.627   7.976  0.9982  1.0110 -1.7553
15628SOL    HW248305   4.454   2.509   7.968 -0.3676  1.9042  0.2908
15629SOL     OW48306   3.665   7.436   0.394  0.1389  0.3135 -0.0062
15629SOL    HW148307   3.644   7.426   0.301  1.8488 -0.4730 -0.3406
15629SOL    HW248308   3.648   7.528   0.413  0.8818  0.7647 -1.4043
15630SOL     OW48309   1.211   5.604   4.623  1.3297  0.7110 -0.2045
15630SOL    HW148310   1.225   5.587   4.530  2.8765 -1.4504  0.3520
15630SOL    HW248311   1.296   5.631   4.656  2.4700 -3.9612  1.5328
15631SOL     OW48312   0.510   5.772   4.765 -0.2732 -0.6626  0.2022
15631SOL    HW148313   0.511   5.804   4.856 -1.1089  1.6075 -0.5058
15631SOL    HW248314   0.573   5.828   4.720 -0.9079 -0.8184 -0.9005
15632SOL     OW48315   3.945   0.713   7.356 -0.1657  0.0195 -0.0781
15632SOL    HW148316   3.952   0.654   7.431 -2.3972  0.0258  0.2102
15632SOL    HW248317   3.939   0.800   7.394 -1.9159 -0.0245 -0.1702
15633SOL     OW48318   3.580   0.547   6.937 -0.0166  0.0161  0.0854
15633SOL    HW148319   3.573   0.524   7.030 -0.3602  0.1925  0.1028
15633SOL    HW248320   3.529   0.628   6.928 -0.1742 -0.1251 -0.3021
15634SOL     OW48321   4.180   3.134   4.535 -0.6328 -0.4228  0.0029
15634SOL    HW148322   4.171   3.045   4.500  2.7460  0.0016 -2.4501
15634SOL    HW248323   4.256   3.129   4.593 -2.2280  0.3493  2.3217
15635SOL     OW48324   3.182   3.068   7.080 -0.3244 -0.6481 -0.0996
15635SOL    HW148325   3.229   3.010   7.140 -1.3633 -0.6513  0.7253
15635SOL    HW248326   3.244   3.138   7.061 -0.6539  0.5363  2.7024
15636SOL     OW48327   3.012   5.676   8.190 -0.2848  0.6107 -0.0979
15636SOL    HW148328   3.062   5.601   8.220  1.0993  1.2809 -0.6350
15636SOL    HW248329   2.965   5.707   8.267  0.6834  0.3751  0.5935
15637SOL     OW48330   0.981   3.778   1.391  0.2763  0.4161 -0.3410
15637SOL    HW148331   0.898   3.730   1.395  0.7983 -0.4459  0.3230
15637SOL    HW248332   1.005   3.776   1.298 -0.4637  0.7163 -0.5484
15638SOL     OW48333   7.182   4.732   0.449 -0.6001 -0.6398  0.6754
15638SOL    HW148334   7.106   4.756   0.397  0.1930  1.8571  0.4942
15638SOL    HW248335   7.207   4.645   0.419 -0.4282  0.4976 -2.8936
15639SOL     OW48336   2.380   3.792   6.698 -0.2064 -0.4273  0.0903
15639SOL    HW148337   2.369   3.715   6.641 -2.8905  0.3504 -0.6014
15639SOL    HW248338   2.420   3.858   6.642 -2.5287  0.2262 -0.9542
15640SOL     OW48339   7.040   0.887   5.221  0.4748 -0.1087 -0.4261
15640SOL    HW148340   6.956   0.932   5.226 -0.4862 -1.7196 -1.1888
15640SOL    HW248341   7.103   0.950   5.255 -1.1505  0.8264  1.0148
15641SOL     OW48342   2.630   1.002   7.724  0.7905 -0.3897  0.0708
15641SOL    HW148343   2.566   1.055   7.676  0.6110 -1.3827 -0.8246
15641SOL    HW248344   2.626   0.916   7.682  0.5544 -1.3487  1.9518
15642SOL     OW48345   3.654   5.943   2.560 -0.0884  0.8619  0.1542
15642SOL    HW148346   3.562   5.965   2.548 -0.1764  0.4709  0.1324
15642SOL    HW248347   3.670   5.869   2.502  0.3385  1.1843 -0.1483
15643SOL     OW48348   6.590   4.658   7.686  0.2949 -0.0223 -0.0031
15643SOL    HW148349   6.649   4.728   7.656  1.1324 -0.4916  0.4961
15643SOL    HW248350   6.645   4.605   7.744 -1.1267  0.5574  1.9550
15644SOL     OW48351   3.457   8.028   3.339  0.0737 -0.3888  0.5661
15644SOL    HW148352   3.442   7.935   3.354  0.1265 -0.7505 -1.4041
15644SOL    HW248353   3.419   8.045   3.253  0.0859  1.4146  0.8896
15645SOL     OW48354   2.713   5.682   4.080 -0.3916  0.1681  0.1246
15645SOL    HW148355   2.665   5.649   4.156 -0.3193 -0.0354  0.0835
15645SOL    HW248356   2.734   5.604   4.030  0.4499  0.1953  0.4168
15646SOL     OW48357   2.532   0.671   6.487  0.0930 -0.3442 -0.5096
15646SOL    HW148358   2.525   0.766   6.494  2.6289 -0.2135  1.8246
15646SOL    HW248359   2.453   0.638   6.529  0.4791  0.7973  1.2336
15647SOL     OW48360   6.248   4.661   0.097 -0.6633 -0.2082  0.2844
15647SOL    HW148361   6.264   4.751   0.125  1.8616 -1.3362  2.9695
15647SOL    HW248362   6.203   4.620   0.171 -1.5192 -1.2781 -0.7855
15648SOL     OW48363   7.272   0.229   0.858 -0.0690  0.4446 -0.0279
15648SOL    HW148364   7.272   0.149   0.805  1.0808  0.2310  0.2649
15648SOL    HW248365   7.208   0.286   0.815 -0.0968 -0.2111 -0.8921
15649SOL     OW48366   5.230   1.218   0.375  0.6367  0.3116  0.0796
15649SOL    HW148367   5.235   1.295   0.318 -1.9323  1.6640  1.5000
15649SOL    HW248368   5.301   1.162   0.345  1.1397  2.1649 -2.5866
15650SOL     OW48369   7.817   4.817   5.764 -0.4523 -0.5866 -0.4066
15650SOL    HW148370   7.862   4.789   5.844 -0.6787 -1.2725 -0.5071
15650SOL    HW248371   7.735   4.768   5.765 -0.0803 -1.2717 -1.4879
15651SOL     OW48372   4.535   8.002   0.988  0.1371  0.5886  0.3234
15651SOL    HW148373   4.478   7.990   1.064  1.2356 -0.1211  1.0670
15651SOL    HW248374   4.483   7.971   0.914  0.0495 -1.4577  1.1718
15652SOL     OW48375   2.443   4.349   4.578 -0.1635 -0.6492 -0.0935
15652SOL    HW148376   2.354   4.356   4.614  0.0156  0.5921  0.1539
15652SOL    HW248377   2.431   4.363   4.484 -0.2520 -0.6462 -0.0823
15653SOL     OW48378   3.717   2.557   5.090  0.2543 -0.0066 -0.0882
15653SOL    HW148379   3.697   2.467   5.063  0.5446 -0.5129  1.3182
15653SOL    HW248380   3.801   2.550   5.134 -0.5949  0.6205  1.6967
15654SOL     OW48381   1.807   3.443   2.996  0.6294 -0.6460  0.1684
15654SOL    HW148382   1.878   3.382   3.018 -0.0851 -1.8478 -0.7767
15654SOL    HW248383   1.728   3.399   3.026 -0.1916 -1.4772 -2.8766
15655SOL     OW48384   5.852   5.177   1.677 -0.6812  0.8036  0.3798
15655SOL    HW148385   5.832   5.135   1.594 -1.0091 -1.3563  1.4703
15655SOL    HW248386   5.772   5.222   1.702  0.2246  3.9198 -1.6985
15656SOL     OW48387   2.680   3.222   3.655 -0.2473 -0.2034  0.0609
15656SOL    HW148388   2.696   3.316   3.661  1.5740 -0.3957 -1.1241
15656SOL    HW248389   2.599   3.214   3.604 -1.2673  0.7138  1.4713
15657SOL     OW48390   4.861   3.063   6.210  0.5609  0.4571 -0.1975
15657SOL    HW148391   4.810   3.139   6.182  0.2626  1.0425  1.7956
15657SOL    HW248392   4.799   2.991   6.214  0.5346  0.4526 -0.6814
15658SOL     OW48393   3.592   3.289   1.018  0.1441 -0.5813  0.2108
15658SOL    HW148394   3.638   3.254   0.942 -0.8259 -1.9497  0.2018
15658SOL    HW248395   3.514   3.330   0.983  1.1056  1.3821  0.2591
15659SOL     OW48396   0.678   3.777   4.308  0.2398  0.4609 -0.2725
15659SOL    HW148397   0.640   3.744   4.227  0.5436  0.9647 -0.6232
15659SOL    HW248398   0.614   3.755   4.376  0.1830 -0.3539 -0.5815
15660SOL     OW48399   1.518   0.668   5.066  0.3450 -0.1486 -0.0617
15660SOL    HW148400   1.522   0.616   4.986  2.0083  0.8225 -0.6680
15660SOL    HW248401   1.428   0.658   5.098  0.0804 -1.7386 -1.2330
15661SOL     OW48402   8.248   6.969   8.085 -0.7243 -0.2028  0.1423
15661SOL    HW148403   8.269   6.966   8.178 -1.0302  1.7911  0.3222
15661SOL    HW248404   8.329   6.998   8.043 -1.3408  1.7128  0.1634
15662SOL     OW48405   7.989   1.619   8.095  0.5726  0.1944 -0.0602
15662SOL    HW148406   7.958   1.615   8.004  0.6471 -0.0467 -0.0736
15662SOL    HW248407   8.079   1.587   8.091  0.4414 -0.2100  0.1637
15663SOL     OW48408   4.519   0.497   0.472 -0.1058 -0.0434  0.5118
15663SOL    HW148409   4.521   0.530   0.382  1.5269  1.6175  1.1158
15663SOL    HW248410   4.450   0.547   0.514  0.1759  0.2769  0.5900
15664SOL     OW48411   1.161   2.839   1.365  0.0540 -0.5762 -0.4227
15664SOL    HW148412   1.089   2.879   1.316  0.2540  0.8693  0.4189
15664SOL    HW248413   1.167   2.750   1.329 -0.6112  0.0234 -2.1456
15665SOL     OW48414   7.880   5.253   5.271 -0.3064 -0.0107 -0.7412
15665SOL    HW148415   7.905   5.258   5.179  1.4647  0.7929 -0.2562
15665SOL    HW248416   7.961   5.229   5.317 -0.8646  0.7641  0.7260
15666SOL     OW48417   1.447   0.596   7.486 -0.0470 -0.3540 -0.0176
15666SOL    HW148418   1.490   0.621   7.404 -0.3872 -0.5902 -0.2738
15666SOL    HW248419   1.444   0.677   7.537 -0.6271  0.0056 -0.6043
15667SOL     OW48420   0.701   7.942   2.724  0.3405 -0.0060  0.6408
15667SOL    HW148421   0.638   7.891   2.776  1.3980 -0.5978  1.3601
15667SOL    HW248422   0.722   7.886   2.650  1.9671 -0.9332  1.7448
15668SOL     OW48423   1.467   4.725   6.686 -0.4619 -0.5637  0.1108
15668SOL    HW148424   1.440   4.708   6.596 -0.7177  0.5786 -0.0446
15668SOL    HW248425   1.531   4.796   6.680 -0.7518 -0.2163  0.8413
15669SOL     OW48426   1.848   2.964   7.553  0.5388 -0.2509  0.4748
15669SOL    HW148427   1.874   3.056   7.545  1.7660 -0.6150  0.0546
15669SOL    HW248428   1.818   2.956   7.643 -0.0099  0.6625  0.3860
15670SOL     OW48429   5.771   2.088   6.960  0.2512  0.3300  0.4414
15670SOL    HW148430   5.861   2.105   6.931 -0.5343  0.5412 -2.1098
15670SOL    HW248431   5.734   2.175   6.975  0.3042  0.2643  0.9670
15671SOL     OW48432   4.964   3.272   1.758  0.1768  0.0842  0.6050
15671SOL    HW148433   5.005   3.294   1.675 -1.0559  0.8158  0.1709
15671SOL    HW248434   4.998   3.336   1.821  1.8110 -1.0284  0.9011
15672SOL     OW48435   6.069   6.378   4.406 -0.4416 -0.2210 -0.0577
15672SOL    HW148436   6.062   6.473   4.406  0.4219 -0.1081  1.9144
15672SOL    HW248437   6.160   6.360   4.431 -0.6716 -1.5628 -0.0845
15673SOL     OW48438   0.487   4.322   2.749 -0.4687 -0.2001  0.0975
15673SOL    HW148439   0.547   4.252   2.774 -0.7312 -0.8433 -1.0203
15673SOL    HW248440   0.519   4.351   2.664 -0.0904  1.3761  0.7477
15674SOL     OW48441   6.868   4.094   7.474 -0.2311 -0.3369  0.2280
15674SOL    HW148442   6.796   4.151   7.446  1.1366  1.5667  0.3818
15674SOL    HW248443   6.903   4.136   7.552 -0.4659 -2.5906  1.6497
15675SOL     OW48444   0.045   5.838   0.667  0.5462  0.0998  0.1145
15675SOL    HW148445   0.030   5.927   0.696 -0.5698 -0.1573  0.3655
15675SOL    HW248446   0.127   5.812   0.710  0.3035  0.6237  0.9141
15676SOL     OW48447   8.326   7.859   0.458  0.5246  0.0370  0.2887
15676SOL    HW148448   8.297   7.925   0.396 -0.3109  0.7864  1.4445
15676SOL    HW248449   8.419   7.880   0.473  1.0041 -0.7092 -1.3415
15677SOL     OW48450   7.957   1.742   6.451  0.2697  0.6369 -0.0293
15677SOL    HW148451   8.017   1.804   6.493  1.2043 -1.2460  1.6355
15677SOL    HW248452   7.904   1.708   6.524  0.6888 -1.4336 -0.6317
15678SOL     OW48453   7.148   1.276   7.762 -0.3067  0.1990 -0.0614
15678SOL    HW148454   7.194   1.342   7.710 -0.0921 -0.5825 -0.8738
15678SOL    HW248455   7.212   1.206   7.775 -1.3202 -1.0962 -1.5555
15679SOL     OW48456   1.167   3.026   5.695 -0.8377 -0.2868  0.2549
15679SOL    HW148457   1.180   2.934   5.674 -0.9304 -0.1541 -0.3881
15679SOL    HW248458   1.248   3.052   5.739 -0.4855 -0.4677 -0.2817
15680SOL     OW48459   5.786   1.361   1.642 -0.2267 -0.5763 -0.2463
15680SOL    HW148460   5.855   1.388   1.581  1.6752  0.8654  2.3710
15680SOL    HW248461   5.765   1.440   1.691 -0.9095 -1.8874  1.6768
15681SOL     OW48462   0.827   8.017   4.499  0.0691 -0.7010  0.3009
15681SOL    HW148463   0.802   8.064   4.420 -0.9808  0.2619  1.1647
15681SOL    HW248464   0.745   7.983   4.534  0.1782  0.6355  2.0377
15682SOL     OW48465   7.641   6.230   1.751 -0.4270 -0.1034 -0.3360
15682SOL    HW148466   7.599   6.165   1.808 -0.8493 -0.0772 -0.6147
15682SOL    HW248467   7.704   6.273   1.808  0.1683 -1.0506 -0.2525
15683SOL     OW48468   4.946   5.535   0.694 -0.1426 -0.0822  0.7596
15683SOL    HW148469   4.912   5.558   0.781 -1.1865 -0.3414  0.4347
15683SOL    HW248470   4.879   5.477   0.657 -0.6712  1.5480 -0.9785
15684SOL     OW48471   2.289   0.979   5.095 -0.7631  0.3181  0.1244
15684SOL    HW148472   2.265   1.016   5.180 -1.0768  1.5308 -0.4624
15684SOL    HW248473   2.231   1.024   5.032 -2.0112 -2.0434 -0.5354
15685SOL     OW48474   5.264   6.997   4.943  0.0005  0.3408  0.3943
15685SOL    HW148475   5.229   7.001   4.854  1.9965  1.7898 -0.3962
15685SOL    HW248476   5.189   7.018   4.999 -1.4369 -1.1845 -0.8564
15686SOL     OW48477   7.870   2.390   2.374 -0.4871 -0.1830 -0.0106
15686SOL    HW148478   7.775   2.381   2.381 -0.7109  1.5431 -0.3365
15686SOL    HW248479   7.887   2.481   2.397  0.9575 -0.1243 -1.1845
15687SOL     OW48480   3.498   5.076   7.792 -0.1608 -0.5165 -0.3958
15687SOL    HW148481   3.471   5.093   7.702 -0.8585  3.3842  0.3615
15687SOL    HW248482   3.588   5.107   7.796  0.3207 -1.9067 -0.0117
15688SOL     OW48483   6.965   8.244   4.231  0.0485 -0.9204 -0.0098
15688SOL    HW148484   6.871   8.252   4.247  0.2790 -0.9618  1.6058
15688SOL    HW248485   6.998   8.195   4.307  1.2719 -1.5789 -0.9184
15689SOL     OW48486   7.662   4.197   8.146 -0.0652  0.0615 -0.4376
15689SOL    HW148487   7.728   4.265   8.157  0.2876 -0.4255  0.5613
15689SOL    HW248488   7.586   4.228   8.196 -0.3507  0.2879 -0.9998
15690SOL     OW48489   2.263   6.522   1.140 -0.3679 -0.5183 -0.1620
15690SOL    HW148490   2.246   6.526   1.046 -1.2791  1.0040  0.0366
15690SOL    HW248491   2.180   6.491   1.178 -0.0917 -0.8701  0.1630
15691SOL     OW48492   2.856   6.004   7.814  0.0039 -0.0700 -0.4656
15691SOL    HW148493   2.863   5.917   7.776 -0.3562  0.0724 -0.8590
15691SOL    HW248494   2.845   6.062   7.739 -0.8508  0.1972 -0.1477
15692SOL     OW48495   2.932   7.349   7.964 -0.1477 -0.0709  0.1699
15692SOL    HW148496   2.855   7.394   7.929 -1.3566 -0.9697  1.5844
15692SOL    HW248497   2.930   7.262   7.923  0.1551 -0.0760  0.1632
15693SOL     OW48498   0.371   4.517   1.128  0.3878 -0.0777 -0.0318
15693SOL    HW148499   0.300   4.576   1.103 -0.6302 -2.0201 -2.0927
15693SOL    HW248500   0.439   4.575   1.162 -1.5312  2.0094  0.5123
15694SOL     OW48501   2.820   2.533   1.924 -0.1968  0.0887 -0.0125
15694SOL    HW148502   2.904   2.487   1.915  0.0344  0.8630 -2.3194
15694SOL    HW248503   2.757   2.464   1.941  0.6413 -0.7180 -0.0910
15695SOL     OW48504   4.542   0.504   0.172  0.2761  0.2047  0.4708
15695SOL    HW148505   4.553   0.425   0.119 -1.1311  1.1846 -1.4202
15695SOL    HW248506   4.448   0.507   0.191  0.6848  0.0735  2.8246
15696SOL     OW48507   1.853   2.632   5.406  0.2255 -0.0845  0.1161
15696SOL    HW148508   1.888   2.654   5.493  1.3607 -0.7905 -0.1448
15696SOL    HW248509   1.762   2.605   5.423  0.6992 -1.0703  1.2120
15697SOL     OW48510   1.688   6.106   2.416 -0.3062 -0.6506  0.5241
15697SOL    HW148511   1.662   6.093   2.325 -0.1075 -1.3998  0.5596
15697SOL    HW248512   1.784   6.106   2.413 -0.3028 -0.2220  0.6757
15698SOL     OW48513   0.027   0.884   5.872  0.2616 -0.2555 -0.2278
15698SOL    HW148514   0.047   0.808   5.927  2.1562 -0.7541 -1.5135
15698SOL    HW248515   0.055   0.959   5.924 -1.1932 -0.4345  0.8654
15699SOL     OW48516   7.472   2.596   3.313  0.5036  0.1981  0.1012
15699SOL    HW148517   7.405   2.567   3.374  2.4309 -0.2117  2.1638
15699SOL    HW248518   7.526   2.519   3.297  0.4492  0.4657 -1.6790
15700SOL     OW48519   2.434   5.510   5.438  0.2529  0.0204 -0.0594
15700SOL    HW148520   2.510   5.471   5.394  1.4625  2.6282 -0.4573
15700SOL    HW248521   2.373   5.529   5.368  1.4208  2.5109 -0.4987
15701SOL     OW48522   6.502   5.689   4.724  0.0398  0.1172  0.1133
15701SOL    HW148523   6.551   5.674   4.643 -0.8596 -1.8863 -0.1254
15701SOL    HW248524   6.420   5.642   4.712 -1.0415  1.5557  1.3750
15702SOL     OW48525   3.833   7.648   0.901  0.2363 -0.2850 -0.2275
15702SOL    HW148526   3.879   7.672   0.821  0.0854 -0.9485 -0.5193
15702SOL    HW248527   3.902   7.627   0.963  0.4128  1.6299  0.3010
15703SOL     OW48528   1.502   8.137   3.772 -0.1816 -0.5225 -0.1487
15703SOL    HW148529   1.458   8.175   3.697 -0.0426  0.6093  0.3223
15703SOL    HW248530   1.557   8.067   3.735 -0.1903 -0.0507 -1.0823
15704SOL     OW48531   4.464   4.778   2.715 -0.2060  0.1686  0.3262
15704SOL    HW148532   4.408   4.805   2.788  0.4707  1.0918  0.5171
15704SOL    HW248533   4.552   4.776   2.751  0.0655  0.0579 -0.3235
15705SOL     OW48534   2.616   5.826   8.131 -0.0608 -0.1528 -0.0961
15705SOL    HW148535   2.703   5.866   8.124 -0.2435  0.0208 -2.1286
15705SOL    HW248536   2.632   5.738   8.167  1.0516 -0.3492 -1.0174
15706SOL     OW48537   6.922   7.687   4.666  0.4661 -0.1342 -0.0465
15706SOL    HW148538   6.883   7.611   4.709  2.0133 -0.5428  0.6882
15706SOL    HW248539   6.956   7.653   4.583  2.0641 -0.5204  0.7250
15707SOL     OW48540   3.550   6.727   3.691 -0.4692  0.1575  0.1436
15707SOL    HW148541   3.583   6.816   3.706  0.7050 -0.3948  0.9406
15707SOL    HW248542   3.603   6.693   3.619 -1.3935  0.3268 -0.6424
15708SOL     OW48543   4.282   8.295   4.484 -0.3357 -0.2813 -0.1379
15708SOL    HW148544   4.216   8.275   4.419 -0.6408  1.2117 -0.3228
15708SOL    HW248545   4.323   8.211   4.504 -1.3363 -1.0027 -1.0451
15709SOL     OW48546   6.367   1.993   5.487  0.1332  0.6257 -0.8008
15709SOL    HW148547   6.377   2.049   5.410 -1.6105 -0.7688 -2.1264
15709SOL    HW248548   6.405   1.909   5.461 -0.3628  0.1692 -0.1022
15710SOL     OW48549   4.876   7.228   7.023  0.5574  0.1143  0.2418
15710SOL    HW148550   4.861   7.304   6.967  1.1201 -0.4852 -0.7471
15710SOL    HW248551   4.789   7.189   7.034  0.5207 -0.0896 -0.7012
15711SOL     OW48552   0.213   0.779   5.496 -0.9208  0.6978 -0.0724
15711SOL    HW148553   0.245   0.724   5.567  1.1601  0.5402 -1.0710
15711SOL    HW248554   0.131   0.738   5.468  0.3710 -1.7030 -0.5374
15712SOL     OW48555   1.251   2.129   2.118 -0.3486 -0.4606 -0.3660
15712SOL    HW148556   1.305   2.196   2.077 -0.8882  1.1312  1.3268
15712SOL    HW248557   1.297   2.047   2.102  0.9319  0.4421 -1.5749
15713SOL     OW48558   3.360   1.958   2.558 -0.1382 -0.2399  0.1051
15713SOL    HW148559   3.438   2.006   2.586 -1.4697  1.1766  1.5749
15713SOL    HW248560   3.321   2.013   2.490 -2.1052  1.3331  2.3481
15714SOL     OW48561   7.474   1.144   0.946 -0.0643 -0.6317  0.4653
15714SOL    HW148562   7.492   1.223   0.895 -1.4916 -0.3529  0.3321
15714SOL    HW248563   7.479   1.173   1.037 -1.9374  0.0055  0.4184
15715SOL     OW48564   3.575   5.108   4.793 -0.1400  0.6511 -0.1606
15715SOL    HW148565   3.656   5.158   4.804  0.3321 -0.3824  1.3736
15715SOL    HW248566   3.603   5.017   4.789 -1.1746  0.3310 -0.5942
15716SOL     OW48567   3.461   2.577   4.973 -0.1408  0.3443 -0.8629
15716SOL    HW148568   3.508   2.565   5.056 -1.0934 -1.0353 -0.4795
15716SOL    HW248569   3.369   2.565   4.997 -0.4468  0.2172 -2.0671
15717SOL     OW48570   5.713   0.955   7.832 -0.4477 -0.7295 -0.3198
15717SOL    HW148571   5.687   1.047   7.828  0.0575 -0.5104  0.9593
15717SOL    HW248572   5.652   0.915   7.893  0.9098 -0.6375  1.1730
15718SOL     OW48573   8.272   5.008   1.097  0.8698  0.2876  0.5860
15718SOL    HW148574   8.325   5.062   1.156 -0.6289  0.2516  2.0430
15718SOL    HW248575   8.262   4.925   1.143 -2.1751  0.9916  1.4456
15719SOL     OW48576   6.847   0.030   8.185 -0.4530  0.2424 -0.3133
15719SOL    HW148577   6.889   0.116   8.183 -0.2801  0.1531 -1.1758
15719SOL    HW248578   6.890  -0.017   8.256  0.9347  0.1545 -1.1710
15720SOL     OW48579   6.059   5.772   6.204 -0.0146  0.1189  0.0718
15720SOL    HW148580   6.018   5.686   6.207  0.2528  0.0117  1.4637
15720SOL    HW248581   6.128   5.768   6.270 -0.1073  1.4474  0.2870
15721SOL     OW48582   7.652   0.487   1.218 -0.3130  0.5132  0.6540
15721SOL    HW148583   7.569   0.504   1.175 -1.4203  1.0100  2.8587
15721SOL    HW248584   7.712   0.464   1.147 -1.9659  1.4694 -1.1206
15722SOL     OW48585   6.937   2.229   7.030  0.0442 -0.6017  0.0661
15722SOL    HW148586   6.974   2.153   6.985  0.0736  0.3504 -1.5738
15722SOL    HW248587   6.879   2.269   6.966 -0.7624  0.2051  1.2591
15723SOL     OW48588   6.193   3.516   6.580 -0.1254  0.2837  0.2601
15723SOL    HW148589   6.270   3.520   6.524  1.1029  0.7841  1.8998
15723SOL    HW248590   6.182   3.606   6.611 -0.2844 -0.1299  1.4326
15724SOL     OW48591   5.417   4.362   8.142  0.0359 -0.1695  0.1855
15724SOL    HW148592   5.371   4.293   8.095 -0.2165 -0.2402  0.5344
15724SOL    HW248593   5.350   4.403   8.197 -0.0352  0.9937 -0.7324
15725SOL     OW48594   6.634   1.471   6.468  0.1943 -0.3640 -0.7420
15725SOL    HW148595   6.712   1.522   6.448  0.6935 -0.4529  0.8248
15725SOL    HW248596   6.596   1.513   6.545 -1.8204  0.1835 -1.9499
15726SOL     OW48597   5.564   5.044   5.311 -0.1074  0.0553  0.4689
15726SOL    HW148598   5.470   5.056   5.320 -0.2966  0.0779 -1.1788
15726SOL    HW248599   5.594   5.122   5.266  0.7857  0.2391  1.3511
15727SOL     OW48600   7.495   4.039   3.993 -0.0481 -0.0739 -0.5760
15727SOL    HW148601   7.518   4.098   4.065  1.3893  0.4895 -1.4554
15727SOL    HW248602   7.495   4.096   3.916  1.5746 -1.2215 -1.4818
15728SOL     OW48603   2.089   7.075   6.387  0.0209 -0.2698 -0.5137
15728SOL    HW148604   2.130   7.031   6.313  1.0984 -0.7812  0.3526
15728SOL    HW248605   2.159   7.130   6.423 -0.8007  0.8131 -0.5200
15729SOL     OW48606   0.502   4.566   7.808 -0.6721 -0.3660  0.2131
15729SOL    HW148607   0.542   4.630   7.750 -0.2171  0.4641  1.4012
15729SOL    HW248608   0.548   4.484   7.790 -0.7524 -0.2018 -0.7915
15730SOL     OW48609   4.856   2.242   1.857  0.1927  0.2194 -0.0404
15730SOL    HW148610   4.806   2.232   1.938 -3.1596 -0.0702 -1.9235
15730SOL    HW248611   4.794   2.283   1.796  2.1386 -0.5979 -2.7881
15731SOL     OW48612   2.634   3.316   1.597  0.4133  0.5958  0.2057
15731SOL    HW148613   2.562   3.254   1.608  0.5465  0.3064 -0.4946
15731SOL    HW248614   2.592   3.402   1.606  0.3743  0.4184  1.9988
15732SOL     OW48615   1.555   0.358   0.608  0.2314  0.7055 -0.4415
15732SOL    HW148616   1.608   0.335   0.531 -0.4750 -1.4846 -0.3438
15732SOL    HW248617   1.591   0.304   0.678  0.7236  2.5227  0.7662
15733SOL     OW48618   2.745   2.084   2.282 -0.4676 -0.0022  0.2097
15733SOL    HW148619   2.810   2.059   2.348 -1.9190  0.2120  1.7977
15733SOL    HW248620   2.750   2.015   2.216  0.6276 -0.5567  0.8355
15734SOL     OW48621   6.827   4.867   6.116  0.3996  0.7360 -0.7312
15734SOL    HW148622   6.788   4.782   6.135 -0.3722  1.0338 -0.9620
15734SOL    HW248623   6.760   4.931   6.137  0.2911  1.1944 -2.2876
15735SOL     OW48624   3.966   2.126   7.642 -0.3498  0.4571  0.2037
15735SOL    HW148625   3.877   2.091   7.634  0.8124 -2.9518  0.2721
15735SOL    HW248626   3.988   2.113   7.735 -0.1445  2.3442  0.4437
15736SOL     OW48627   0.603   2.778   0.622 -0.5219 -0.3018  0.6916
15736SOL    HW148628   0.565   2.724   0.554 -1.0805  0.4729  0.3722
15736SOL    HW248629   0.696   2.783   0.600 -0.8883  0.9617 -0.7568
15737SOL     OW48630   3.962   5.046   8.233 -0.4073 -0.7750 -0.0657
15737SOL    HW148631   3.958   4.998   8.315 -0.9837  0.7183  0.8221
15737SOL    HW248632   3.890   5.010   8.181 -0.4697 -1.2654  0.3532
15738SOL     OW48633   7.759   2.549   2.649 -0.3380 -0.6901 -0.3413
15738SOL    HW148634   7.719   2.635   2.634  0.1567 -0.3165  0.4155
15738SOL    HW248635   7.711   2.490   2.591  0.9422  0.5191 -2.7571
15739SOL     OW48636   7.545   7.377   4.558  0.3574 -0.4209 -0.3196
15739SOL    HW148637   7.569   7.378   4.466  0.4826 -1.2258 -0.3078
15739SOL    HW248638   7.464   7.426   4.563  1.5764  1.7212 -0.4733
15740SOL     OW48639   8.027   5.902   8.006  0.6873  0.2528  0.2186
15740SOL    HW148640   8.029   5.806   8.005  0.1298  0.2372 -0.4819
15740SOL    HW248641   7.973   5.925   7.930 -0.1580  1.0907  1.0585
15741SOL     OW48642   8.014   8.328   6.912  0.0382  0.1865 -0.7159
15741SOL    HW148643   7.963   8.315   6.832  0.0192 -0.2077 -0.6412
15741SOL    HW248644   8.041   8.240   6.937 -1.3622  0.1107  0.6472
15742SOL     OW48645   0.573   6.490   8.264 -0.5378 -0.2242  0.4639
15742SOL    HW148646   0.661   6.454   8.273 -0.6048 -0.4015  0.4147
15742SOL    HW248647   0.521   6.418   8.228 -0.4791  0.1820 -0.4656
15743SOL     OW48648   1.012   3.819   6.788 -0.4239 -0.0093  0.2716
15743SOL    HW148649   1.099   3.788   6.761 -0.8447 -1.9630  1.0072
15743SOL    HW248650   1.023   3.914   6.798  0.5422  0.4435 -3.5990
15744SOL     OW48651   3.387   3.580   7.181  0.3277  0.1003 -0.3839
15744SOL    HW148652   3.431   3.655   7.141 -2.0090  1.6670 -0.1815
15744SOL    HW248653   3.425   3.575   7.269  2.0731 -0.4011 -1.1088
15745SOL     OW48654   7.751   1.283   1.249  0.2596 -0.1255  0.3275
15745SOL    HW148655   7.740   1.370   1.212  0.3883 -0.2471 -0.0047
15745SOL    HW248656   7.780   1.298   1.339  1.0826  0.1718  0.0191
15746SOL     OW48657   1.032   5.090   3.861 -0.4413  0.2736  0.2243
15746SOL    HW148658   1.088   5.143   3.805  1.1338 -0.7527  0.7451
15746SOL    HW248659   1.059   5.000   3.843 -1.7253 -0.2403  0.7360
15747SOL     OW48660   0.348   2.881   8.108  0.5583 -0.4747 -0.6859
15747SOL    HW148661   0.287   2.878   8.182  0.0941 -0.7429 -1.0702
15747SOL    HW248662   0.435   2.882   8.149  0.3128  1.5981 -0.0744
15748SOL     OW48663   8.105   1.687   3.533  0.0297  0.1427  0.0716
15748SOL    HW148664   8.026   1.634   3.546  0.4296 -0.9273 -1.5495
15748SOL    HW248665   8.177   1.627   3.552  0.4777  0.4236 -0.6886
15749SOL     OW48666   6.469   7.946   1.419  0.0387  0.0333  0.0352
15749SOL    HW148667   6.428   7.950   1.506 -0.6278 -3.4575  0.0636
15749SOL    HW248668   6.562   7.933   1.437 -0.1771 -1.3112  0.3202
15750SOL     OW48669   2.305   7.071   1.322  0.4055  0.2444 -0.2625
15750SOL    HW148670   2.372   7.139   1.320  1.8733 -1.0342  1.4944
15750SOL    HW248671   2.243   7.101   1.389 -0.8402  1.3750 -1.8145
15751SOL     OW48672   0.493   1.468   5.887 -0.0417  0.1621 -0.2661
15751SOL    HW148673   0.556   1.521   5.837 -0.1713 -0.0097 -0.6164
15751SOL    HW248674   0.431   1.533   5.921 -0.9049  0.1426 -1.7190
15752SOL     OW48675   2.798   4.102   5.635 -0.5485  0.4563  0.2438
15752SOL    HW148676   2.791   4.008   5.617 -1.8249  0.6348 -0.3339
15752SOL    HW248677   2.892   4.119   5.639 -0.3045 -0.8919  0.6144
15753SOL     OW48678   1.026   7.976   4.828  0.2119 -0.3868 -0.2068
15753SOL    HW148679   0.982   7.946   4.748 -0.6490  1.2113 -0.3830
15753SOL    HW248680   0.958   8.024   4.875  1.3360  0.7196  0.3308
15754SOL     OW48681   0.087   1.642   7.957 -0.1408  0.2156  0.6803
15754SOL    HW148682   0.090   1.548   7.938 -0.5600  0.5238 -1.0715
15754SOL    HW248683  -0.001   1.669   7.930 -0.6079  0.8455  2.6829
15755SOL     OW48684   3.266   2.775   0.982 -0.7190 -0.2873 -0.6367
15755SOL    HW148685   3.174   2.771   1.007 -0.2220  0.8817  1.5386
15755SOL    HW248686   3.279   2.864   0.950 -0.5130 -0.7091 -1.7817
15756SOL     OW48687   5.681   2.286   7.440  0.1824  0.3513 -0.5648
15756SOL    HW148688   5.759   2.331   7.471 -0.0056 -0.4124  1.1145
15756SOL    HW248689   5.608   2.340   7.470  0.0042 -0.1859 -0.0169
15757SOL     OW48690   7.276   3.533   7.071  0.2590 -0.2228 -0.3500
15757SOL    HW148691   7.295   3.587   7.148  0.0878 -0.6841  0.0175
15757SOL    HW248692   7.264   3.597   7.000  0.5511  0.1987 -0.0289
15758SOL     OW48693   3.084   5.498   2.511 -0.2658  0.6817 -0.3324
15758SOL    HW148694   3.114   5.457   2.593 -1.4645  1.8177  0.7200
15758SOL    HW248695   3.041   5.578   2.539 -0.0976  1.4472 -2.1677
15759SOL     OW48696   5.673   0.440   7.894 -0.5049 -0.0542  0.0213
15759SOL    HW148697   5.659   0.421   7.987  1.4600 -0.5350  0.2663
15759SOL    HW248698   5.673   0.535   7.888 -1.5120 -0.0164  0.3324
15760SOL     OW48699   1.654   6.809   4.434  0.5238 -0.0304  0.0967
15760SOL    HW148700   1.588   6.865   4.476  0.7312  0.3187 -0.0364
15760SOL    HW248701   1.606   6.731   4.408  0.4181 -0.3367  1.1424
15761SOL     OW48702   4.831   4.069   4.422 -0.3585 -0.3044  0.3155
15761SOL    HW148703   4.850   4.085   4.514 -0.5066 -2.0947  0.6967
15761SOL    HW248704   4.895   4.002   4.396 -0.5468 -0.0764 -0.7843
15762SOL     OW48705   0.272   2.200   7.945 -0.1507 -0.2506  0.4251
15762SOL    HW148706   0.181   2.216   7.970 -0.1817 -0.5365  0.4979
15762SOL    HW248707   0.305   2.138   8.011  0.0256 -0.3309  0.2624
15763SOL     OW48708   6.013   5.229   1.037 -0.0165 -0.3536  0.1493
15763SOL    HW148709   6.030   5.139   1.065  0.0788 -0.2614  0.3904
15763SOL    HW248710   5.974   5.220   0.950  0.1709 -0.6197  0.0916
15764SOL     OW48711   4.956   4.355   4.761  0.0589  0.1268 -0.3921
15764SOL    HW148712   4.939   4.347   4.855  0.0246 -1.9026 -0.5213
15764SOL    HW248713   5.045   4.388   4.756 -0.5511  1.9999  0.3219
15765SOL     OW48714   2.272   4.280   2.773 -0.1112  0.2245 -0.5592
15765SOL    HW148715   2.340   4.214   2.777  0.1711  0.4475 -1.4428
15765SOL    HW248716   2.302   4.342   2.706 -0.9673  0.5652 -0.6450
15766SOL     OW48717   5.496   6.931   3.252 -0.5280  0.3626 -0.3142
15766SOL    HW148718   5.468   6.894   3.168 -1.2822  3.0992 -1.3890
15766SOL    HW248719   5.591   6.938   3.245 -0.5664  0.3922 -0.8797
15767SOL     OW48720   1.767   3.149   2.511 -0.2919 -0.3757  0.2880
15767SOL    HW148721   1.672   3.159   2.515 -0.3987 -1.1209 -0.0415
15767SOL    HW248722   1.802   3.216   2.569 -1.0318 -0.2329  0.5747
15768SOL     OW48723   2.649   1.729   6.359  0.2757  0.1251 -0.2397
15768SOL    HW148724   2.635   1.635   6.370 -0.2486 -0.0800 -2.3233
15768SOL    HW248725   2.574   1.758   6.307 -0.0679  1.8942  1.1705
15769SOL     OW48726   7.545   4.312   6.238 -0.2893  0.4686 -0.0136
15769SOL    HW148727   7.478   4.243   6.233 -0.6392  0.7766  0.4032
15769SOL    HW248728   7.496   4.393   6.251  0.0940  0.8715 -0.9633
15770SOL     OW48729   0.338   4.043   1.706 -0.3099 -0.0983  0.2679
15770SOL    HW148730   0.399   4.092   1.760  0.0326 -0.5302  0.2753
15770SOL    HW248731   0.344   3.953   1.738  0.1033 -0.4168 -0.6625
15771SOL     OW48732   1.436   1.960   5.707  0.0169  0.1644 -0.1891
15771SOL    HW148733   1.347   1.977   5.736  0.3597  1.5433  0.1454
15771SOL    HW248734   1.459   2.035   5.653  1.2298  0.2134  0.3530
15772SOL     OW48735   6.704   8.342   6.689 -0.5999 -0.1137  0.7561
15772SOL    HW148736   6.642   8.277   6.722  0.5817 -1.9674 -0.4345
15772SOL    HW248737   6.659   8.426   6.698 -2.8984 -1.2778  0.7547
15773SOL     OW48738   6.082   8.349   6.421  0.4663  0.2402  0.3702
15773SOL    HW148739   6.108   8.394   6.340  1.7659  0.0495  0.6633
15773SOL    HW248740   6.123   8.262   6.414  0.2401  0.0768  1.0470
15774SOL     OW48741   2.111   7.776   6.820 -0.7266 -0.3260 -0.5565
15774SOL    HW148742   2.156   7.754   6.738 -2.8256 -0.0497 -1.8706
15774SOL    HW248743   2.085   7.867   6.809 -0.7450 -0.1822  0.5859
15775SOL     OW48744   1.895   5.291   4.754 -0.1816  0.6010 -0.3307
15775SOL    HW148745   1.906   5.227   4.825  0.8373  1.2093  0.0899
15775SOL    HW248746   1.982   5.298   4.715 -0.3145  1.5975 -0.4814
15776SOL     OW48747   7.112   1.644   4.860  0.0835  0.4913 -0.4821
15776SOL    HW148748   7.086   1.701   4.932  0.5540  0.8744 -0.6083
15776SOL    HW248749   7.048   1.573   4.861  0.5289  0.0853  0.7778
15777SOL     OW48750   8.137   4.715   5.426  0.1552 -0.3488 -0.3873
15777SOL    HW148751   8.109   4.666   5.503  0.6225 -0.7115 -0.4491
15777SOL    HW248752   8.156   4.803   5.460  1.5623 -0.8297  0.1515
15778SOL     OW48753   7.621   4.687   1.470 -0.8044  0.0399 -0.2258
15778SOL    HW148754   7.534   4.712   1.440 -1.1485  0.6814  1.2068
15778SOL    HW248755   7.678   4.759   1.442 -1.0173  0.3618  0.1641
15779SOL     OW48756   0.655   5.703   6.088 -0.0598 -0.1977  0.1474
15779SOL    HW148757   0.689   5.787   6.120 -1.0393  0.1523  0.2910
15779SOL    HW248758   0.622   5.722   6.000 -1.3424 -0.1438  0.6186
15780SOL     OW48759   4.135   5.301   5.858  0.4210  0.5286  0.7744
15780SOL    HW148760   4.112   5.264   5.773 -0.8205  0.8304  0.9649
15780SOL    HW248761   4.231   5.295   5.861  0.3480 -2.3010  0.6408
15781SOL     OW48762   4.750   4.853   1.453 -0.5074  0.4068 -0.3056
15781SOL    HW148763   4.776   4.888   1.539  0.4106 -0.3993 -0.2404
15781SOL    HW248764   4.830   4.814   1.418 -0.6569  1.4441 -1.9013
15782SOL     OW48765   6.598   2.332   1.841 -0.6150 -0.5742 -0.0670
15782SOL    HW148766   6.542   2.409   1.834 -0.0191 -0.2511 -1.8647
15782SOL    HW248767   6.620   2.311   1.750  1.1489 -1.4463  0.5306
15783SOL     OW48768   5.806   4.426   6.963 -0.0062 -0.4417 -0.2591
15783SOL    HW148769   5.751   4.377   7.024 -0.6287 -1.5100 -1.6004
15783SOL    HW248770   5.758   4.422   6.880  0.3204  1.8226 -0.6059
15784SOL     OW48771   4.626   5.376   7.998  0.3033  0.7289  0.4059
15784SOL    HW148772   4.552   5.327   7.962  0.5799  0.0738  0.7173
15784SOL    HW248773   4.619   5.463   7.957 -0.9925  0.8859  0.8856
15785SOL     OW48774   7.872   2.663   7.641  0.4884 -0.2336  0.1736
15785SOL    HW148775   7.906   2.678   7.729 -3.3911  1.3416  1.6476
15785SOL    HW248776   7.858   2.751   7.604 -1.5040 -0.7190 -0.3791
15786SOL     OW48777   2.097   7.295   1.608 -0.0370  0.1392  0.6839
15786SOL    HW148778   2.121   7.224   1.668 -1.7421  0.3250  1.6370
15786SOL    HW248779   2.059   7.250   1.533 -0.7371 -0.0040  1.1088
15787SOL     OW48780   1.538   0.216   3.156  0.3661  0.2166 -0.1312
15787SOL    HW148781   1.585   0.282   3.105 -0.5133  1.4442  0.5875
15787SOL    HW248782   1.536   0.139   3.100  3.7305 -0.1084  0.0435
15788SOL     OW48783   3.235   7.859   3.527 -0.5158 -0.8919  0.2385
15788SOL    HW148784   3.275   7.869   3.613 -0.4841  1.9818 -0.0198
15788SOL    HW248785   3.300   7.812   3.475  0.8227  0.1569  0.9214
15789SOL     OW48786   2.683   4.133   1.353  0.3944  0.7243 -0.0985
15789SOL    HW148787   2.601   4.164   1.316  0.6952  0.9628 -0.5725
15789SOL    HW248788   2.710   4.062   1.295  0.3557  0.4218  0.2491
15790SOL     OW48789   0.501   1.200   3.138 -0.1054 -0.2015  0.3862
15790SOL    HW148790   0.573   1.260   3.122 -0.1641 -0.3749 -0.6160
15790SOL    HW248791   0.423   1.255   3.139  0.1034  0.1435  2.5803
15791SOL     OW48792   6.116   0.772   0.429 -0.2602 -0.6127  0.4662
15791SOL    HW148793   6.119   0.834   0.501 -0.4094 -0.7782  0.6155
15791SOL    HW248794   6.028   0.735   0.432  0.1705 -1.6555  1.0768
15792SOL     OW48795   4.967   1.025   5.435  0.1009  0.6602  0.5780
15792SOL    HW148796   4.985   1.108   5.390  1.5151  0.4168  0.6515
15792SOL    HW248797   4.872   1.015   5.428  0.0050  1.8279 -0.2369
15793SOL     OW48798   5.424   6.743   6.672 -0.2566  0.4730 -0.1778
15793SOL    HW148799   5.361   6.813   6.694 -0.3229  0.2823  0.2412
15793SOL    HW248800   5.454   6.765   6.584 -0.3534  0.9790 -0.0873
15794SOL     OW48801   3.040   7.722   6.924  0.1727  0.2383  0.2394
15794SOL    HW148802   2.987   7.672   6.862 -0.8001  0.0715  1.1996
15794SOL    HW248803   3.026   7.680   7.008  1.2406  0.6640  0.6504
15795SOL     OW48804   6.508   5.329   4.993  0.1480  0.5096  0.4889
15795SOL    HW148805   6.544   5.310   4.907 -1.5934  0.8505 -0.3539
15795SOL    HW248806   6.555   5.407   5.022  1.3049 -0.0616  0.2210
15796SOL     OW48807   3.784   8.337   1.167 -0.1098 -0.4662  0.5979
15796SOL    HW148808   3.689   8.339   1.154 -0.2549 -2.1312  1.1397
15796SOL    HW248809   3.819   8.390   1.095 -1.4334  0.1750  0.3878
15797SOL     OW48810   0.528   1.739   7.120 -0.7986  0.6394  0.2824
15797SOL    HW148811   0.536   1.832   7.097  0.0748 -0.0775 -2.7784
15797SOL    HW248812   0.580   1.729   7.199  1.4111  2.2965 -0.8673
15798SOL     OW48813   0.792   7.550   3.088  0.0959  0.0352 -0.3857
15798SOL    HW148814   0.850   7.624   3.076 -0.4554  0.3877 -0.9336
15798SOL    HW248815   0.846   7.484   3.132 -0.0732  1.6235  2.3914
15799SOL     OW48816   4.785   5.100   0.801 -0.1541 -0.0811 -0.4269
15799SOL    HW148817   4.783   5.196   0.805  0.5045 -0.0753 -0.0292
15799SOL    HW248818   4.859   5.076   0.858 -1.2740 -0.8937  0.7204
15800SOL     OW48819   1.166   6.912   5.180  0.0606  0.3338  0.2811
15800SOL    HW148820   1.230   6.854   5.222  1.2276  2.0120  0.9642
15800SOL    HW248821   1.087   6.904   5.234  0.8684  0.8687  1.5980
15801SOL     OW48822   2.697   5.688   1.795 -0.2361 -0.1464 -0.0531
15801SOL    HW148823   2.683   5.647   1.880  0.8627 -2.3362 -0.8453
15801SOL    HW248824   2.632   5.647   1.738  0.7010 -0.6469 -0.8002
15802SOL     OW48825   5.855   3.648   4.456  0.3290 -0.0158 -0.4077
15802SOL    HW148826   5.914   3.592   4.506 -0.3531 -0.4176 -0.0260
15802SOL    HW248827   5.912   3.707   4.408  1.0384 -0.4571 -0.1239
15803SOL     OW48828   2.578   1.571   5.389  0.0449 -0.4841 -0.5351
15803SOL    HW148829   2.561   1.597   5.480  2.7455 -0.0735 -0.0679
15803SOL    HW248830   2.613   1.650   5.348 -0.1607 -0.9678 -1.6706
15804SOL     OW48831   4.548   0.219   0.489 -0.8036 -0.9347 -0.0681
15804SOL    HW148832   4.494   0.193   0.414  0.7223 -0.9092 -1.2446
15804SOL    HW248833   4.562   0.313   0.477 -1.0037 -0.8187  0.5725
15805SOL     OW48834   6.990   5.689   6.257 -0.1047  0.2741  0.1848
15805SOL    HW148835   7.064   5.660   6.204  0.6650  1.1918  0.7266
15805SOL    HW248836   6.988   5.628   6.331  0.1122  0.2519  0.1725
15806SOL     OW48837   6.400   8.355   1.620 -0.3756 -1.2427  0.3986
15806SOL    HW148838   6.332   8.343   1.553  0.5642 -0.7458 -0.6876
15806SOL    HW248839   6.482   8.352   1.571  0.2706  3.5082  0.7408
15807SOL     OW48840   0.170   5.173   7.156 -0.1827 -0.4863 -0.4075
15807SOL    HW148841   0.170   5.162   7.252  0.7785 -0.1899 -0.3643
15807SOL    HW248842   0.103   5.113   7.125 -0.2360 -0.8705  0.4259
15808SOL     OW48843   3.397   7.692   2.876 -0.2593 -0.8330  0.4351
15808SOL    HW148844   3.379   7.786   2.870 -0.6762 -0.7230  2.6762
15808SOL    HW248845   3.452   7.674   2.800  1.2813  1.5954  0.8470
15809SOL     OW48846   5.347   8.073   1.629 -0.4267  0.7182  0.5712
15809SOL    HW148847   5.328   8.023   1.709 -0.2714 -0.3934 -0.0759
15809SOL    HW248848   5.440   8.091   1.634 -0.1949 -0.3191  0.1056
15810SOL     OW48849   3.476   4.456   6.430 -0.1240 -0.1199 -0.7438
15810SOL    HW148850   3.396   4.417   6.394 -0.4528  0.8413 -1.0819
15810SOL    HW248851   3.507   4.515   6.362  0.6721 -0.1964 -0.4582
15811SOL     OW48852   2.301   5.905   4.504 -0.1575  0.0383 -0.1306
15811SOL    HW148853   2.383   5.942   4.472  0.0335  0.4022  0.7570
15811SOL    HW248854   2.240   5.979   4.505  0.1498  0.3073  1.3807
15812SOL     OW48855   7.648   1.236   4.056 -0.0544  0.1566  0.1147
15812SOL    HW148856   7.622   1.195   4.138  1.6243  2.5767  2.0008
15812SOL    HW248857   7.569   1.281   4.025  0.2553  2.9289  2.8824
15813SOL     OW48858   1.779   3.115   5.262  0.1291 -0.1359 -0.6378
15813SOL    HW148859   1.719   3.042   5.277  1.4289 -1.3185 -0.8637
15813SOL    HW248860   1.803   3.107   5.170  2.9131 -1.6288  0.0910
15814SOL     OW48861   3.594   1.519   2.175 -0.1780 -0.9815  0.0619
15814SOL    HW148862   3.603   1.483   2.264  0.9758 -1.1057 -0.0862
15814SOL    HW248863   3.684   1.525   2.143 -0.4791  0.2858 -0.6206
15815SOL     OW48864   5.682   2.037   4.605 -0.0371  0.0956  0.3181
15815SOL    HW148865   5.604   2.015   4.553  0.0188  3.4899 -1.4844
15815SOL    HW248866   5.754   1.996   4.558 -0.5723 -2.6805  1.7405
15816SOL     OW48867   7.247   5.878   5.376 -0.2396  0.1160 -0.1110
15816SOL    HW148868   7.294   5.922   5.305  0.2280 -0.4562 -0.1687
15816SOL    HW248869   7.217   5.949   5.432  0.3688  0.5224 -0.2826
15817SOL     OW48870   5.363   6.959   7.800  0.6890  0.4869 -0.1101
15817SOL    HW148871   5.337   6.975   7.710 -1.1941  0.3648  0.3655
15817SOL    HW248872   5.347   7.042   7.845 -0.8143 -0.1420  0.5868
15818SOL     OW48873   7.371   0.485   4.576  0.2814  0.4492 -0.4133
15818SOL    HW148874   7.432   0.447   4.512  0.2887  2.0239 -1.3927
15818SOL    HW248875   7.412   0.568   4.600 -1.2855  1.3471 -0.7785
15819SOL     OW48876   1.010   6.078   1.978  0.1869 -0.2677  0.4037
15819SOL    HW148877   1.062   6.156   1.996 -0.7210  0.0634  1.7612
15819SOL    HW248878   0.925   6.112   1.950  0.7318 -0.7969 -2.1049
15820SOL     OW48879   6.844   7.338   6.908  0.3237  0.1968  0.2603
15820SOL    HW148880   6.845   7.304   6.998 -1.0775  1.2560  0.7231
15820SOL    HW248881   6.881   7.268   6.855  1.6827 -0.2463  1.7231
15821SOL     OW48882   3.223   2.471   0.098  0.1303  0.7762 -0.2945
15821SOL    HW148883   3.201   2.517   0.179  0.9266  1.0585 -0.2286
15821SOL    HW248884   3.139   2.455   0.056 -0.3978 -0.2919  1.0809
15822SOL     OW48885   2.015   3.317   2.257 -0.0746 -0.1752 -0.0546
15822SOL    HW148886   2.051   3.236   2.293  1.5958  0.6601  0.2604
15822SOL    HW248887   2.021   3.380   2.329 -1.7063  0.1631 -0.1722
15823SOL     OW48888   0.577   5.612   6.623  0.4760  0.1130  0.1845
15823SOL    HW148889   0.630   5.679   6.580 -0.6579  1.2191  0.4438
15823SOL    HW248890   0.623   5.530   6.606  3.1173  1.1395  1.6864
15824SOL     OW48891   2.332   5.917   4.803  0.1845  0.3142  0.0147
15824SOL    HW148892   2.309   5.901   4.711  0.3769 -1.4709  0.2520
15824SOL    HW248893   2.415   5.965   4.799  0.2263  0.1847 -0.7448
15825SOL     OW48894   6.243   0.782   5.585  0.1255 -0.1055  0.3884
15825SOL    HW148895   6.316   0.826   5.627 -1.3474  0.4687  2.5515
15825SOL    HW248896   6.172   0.788   5.649 -1.7026 -0.9779 -1.4441
15826SOL     OW48897   3.869   3.344   5.639  0.0705 -0.1058  0.3075
15826SOL    HW148898   3.916   3.362   5.557 -0.2430  0.2371  0.1973
15826SOL    HW248899   3.834   3.430   5.665  0.1801 -0.2107  0.8073
15827SOL     OW48900   2.544   1.340   6.660 -0.5836  0.0919 -0.0741
15827SOL    HW148901   2.511   1.369   6.745 -2.4388  0.4186 -0.8576
15827SOL    HW248902   2.606   1.270   6.681  0.2161  1.2534  1.6017
15828SOL     OW48903   3.465   4.371   6.864 -0.1590 -0.1959 -0.1602
15828SOL    HW148904   3.547   4.379   6.914  0.7318 -1.5199 -1.3393
15828SOL    HW248905   3.463   4.450   6.810  0.3884 -0.1993 -0.1944
15829SOL     OW48906   1.551   6.800   1.912 -0.3310 -0.4709 -0.3575
15829SOL    HW148907   1.508   6.808   1.826  0.5969 -2.6852 -1.1095
15829SOL    HW248908   1.586   6.711   1.912  2.9378  0.6952  0.8363
15830SOL     OW48909   4.320   6.592   1.780  0.0097  1.0067  0.3006
15830SOL    HW148910   4.245   6.574   1.837 -0.4330  1.3506 -0.1640
15830SOL    HW248911   4.380   6.519   1.796 -0.4774  0.6593  0.5841
15831SOL     OW48912   5.913   0.044   4.819 -0.3349  0.0044 -0.0532
15831SOL    HW148913   5.871  -0.042   4.822  0.3938 -0.3505  0.7916
15831SOL    HW248914   6.007   0.024   4.816 -0.0865  0.7454  1.6211
15832SOL     OW48915   0.333   0.088   1.930  0.3494 -0.0788 -0.1851
15832SOL    HW148916   0.422   0.056   1.913  0.2610 -0.8188  0.6330
15832SOL    HW248917   0.344   0.181   1.948  0.9552 -0.1488 -0.1616
15833SOL     OW48918   7.181   5.485   7.801  0.1641  0.4579  0.2304
15833SOL    HW148919   7.232   5.455   7.877 -1.4815 -0.4801  1.0230
15833SOL    HW248920   7.246   5.524   7.742  1.8551 -1.1655  0.9288
15834SOL     OW48921   6.634   7.584   2.641  0.1342 -0.2802  0.4057
15834SOL    HW148922   6.569   7.652   2.662 -1.1000 -1.4304  0.4404
15834SOL    HW248923   6.609   7.554   2.553  1.4738  0.2026 -0.1571
15835SOL     OW48924   6.181   7.946   1.419 -0.0006  0.2018 -0.1792
15835SOL    HW148925   6.157   7.866   1.466 -1.9766 -0.4729 -2.1515
15835SOL    HW248926   6.277   7.946   1.420  0.0339 -0.7024  2.2001
15836SOL     OW48927   3.481   0.741   2.742 -0.4466 -0.0307 -0.3886
15836SOL    HW148928   3.424   0.783   2.678 -0.2224 -1.9882 -1.9839
15836SOL    HW248929   3.512   0.662   2.698  0.6380 -0.8824  1.7473
15837SOL     OW48930   3.209   8.091   7.844 -0.5804 -0.7650 -0.0643
15837SOL    HW148931   3.189   8.085   7.938 -0.6439 -0.7644 -0.0781
15837SOL    HW248932   3.128   8.120   7.804  0.1443  1.8488  0.1938
15838SOL     OW48933   3.688   3.461   7.187  0.4714  0.4863  0.3397
15838SOL    HW148934   3.702   3.531   7.251 -0.1844  0.9693 -0.0316
15838SOL    HW248935   3.654   3.388   7.239  2.8960 -0.2422  1.0321
15839SOL     OW48936   0.327   0.985   3.140 -0.1049  0.3481 -0.1739
15839SOL    HW148937   0.368   1.034   3.211 -1.4165  1.2317  0.0151
15839SOL    HW248938   0.270   0.922   3.184 -0.4557  0.4806 -0.4319
15840SOL     OW48939   3.049   5.226   7.636 -0.4799  0.8632 -0.0355
15840SOL    HW148940   3.115   5.157   7.630 -1.8889 -0.6828  1.2256
15840SOL    HW248941   3.051   5.269   7.551  1.7849  0.5599 -0.2041
15841SOL     OW48942   7.243   7.411   4.529 -0.1615 -0.0088 -0.2254
15841SOL    HW148943   7.229   7.354   4.453  2.1852  1.5941 -2.0112
15841SOL    HW248944   7.260   7.498   4.491 -0.1190  1.1375  2.2216
15842SOL     OW48945   7.422   7.402   3.856 -0.5768  0.1062  0.2162
15842SOL    HW148946   7.416   7.463   3.930 -2.4837  0.0583  0.1647
15842SOL    HW248947   7.507   7.419   3.817 -0.1268  1.1366  1.5681
15843SOL     OW48948   4.053   6.427   0.669 -0.4024 -0.4082 -0.1298
15843SOL    HW148949   4.061   6.456   0.578  0.2196 -0.4594 -0.0976
15843SOL    HW248950   4.062   6.507   0.720  1.5659 -0.6283 -0.0299
15844SOL     OW48951   4.503   3.862   4.469  0.4193  0.2907  0.0807
15844SOL    HW148952   4.516   3.869   4.374 -0.4014  1.6764  0.0469
15844SOL    HW248953   4.417   3.821   4.479  0.7431 -0.3641  0.2448
15845SOL     OW48954   0.576   5.280   4.486 -0.4205  0.3436 -0.2416
15845SOL    HW148955   0.617   5.338   4.550 -1.1662 -0.6695  1.2059
15845SOL    HW248956   0.595   5.321   4.401  1.3682  1.2493  0.5368
15846SOL     OW48957   4.859   0.564   7.925 -0.0680 -0.2619  0.1112
15846SOL    HW148958   4.879   0.471   7.926  1.6102  0.0678 -0.2366
15846SOL    HW248959   4.940   0.606   7.897 -1.1167  1.2267 -0.8535
15847SOL     OW48960   7.568   6.529   7.490  0.4308 -0.0083 -0.7273
15847SOL    HW148961   7.472   6.527   7.488  0.4228 -1.0765  0.0957
15847SOL    HW248962   7.595   6.465   7.425  0.5639 -0.8191  0.1150
15848SOL     OW48963   3.802   8.367   2.526  0.3145 -0.5561  0.3200
15848SOL    HW148964   3.758   8.292   2.486  2.0943 -2.3882  1.5379
15848SOL    HW248965   3.884   8.375   2.477  0.1231  0.6318  0.1790
15849SOL     OW48966   3.359   0.040   7.350 -0.4894  0.2574  0.1248
15849SOL    HW148967   3.401  -0.044   7.365  0.2953  0.6958  0.4401
15849SOL    HW248968   3.367   0.086   7.434  2.9124  2.3068 -1.1262
15850SOL     OW48969   3.986   7.885   6.276 -0.6438  0.0019 -0.0337
15850SOL    HW148970   4.018   7.966   6.316 -2.7822  0.6144  0.6102
15850SOL    HW248971   4.060   7.851   6.226  1.4418  0.4610  2.5313
15851SOL     OW48972   6.978   3.671   1.167 -0.1852 -0.4631  0.4945
15851SOL    HW148973   7.000   3.723   1.244 -0.2110 -1.2222  1.0215
15851SOL    HW248974   6.974   3.735   1.096 -3.4844  0.8000  1.6534
15852SOL     OW48975   8.208   0.328   3.061  0.1810 -0.4926 -0.2532
15852SOL    HW148976   8.157   0.301   2.985 -1.4944 -3.8362  1.8367
15852SOL    HW248977   8.143   0.360   3.124  1.3950  1.0099  0.3079
15853SOL     OW48978   3.671   4.631   0.603 -0.2438  0.1395 -0.3564
15853SOL    HW148979   3.739   4.669   0.659  0.0902 -1.2100  0.1992
15853SOL    HW248980   3.702   4.541   0.586  0.1837  0.7583 -3.5298
15854SOL     OW48981   5.406   8.174   5.687 -0.2637  0.3343 -0.5328
15854SOL    HW148982   5.415   8.231   5.764 -0.9651 -0.3032  0.0302
15854SOL    HW248983   5.418   8.233   5.613 -0.7159  1.1713  0.0405
15855SOL     OW48984   3.927   4.686   2.658  0.0658 -0.2534 -0.4150
15855SOL    HW148985   3.997   4.635   2.616 -0.8624 -0.3442 -1.9339
15855SOL    HW248986   3.968   4.769   2.680  0.8181 -0.5335 -0.7281
15856SOL     OW48987   0.195   6.235   2.528 -0.4717  0.5567 -0.1958
15856SOL    HW148988   0.179   6.153   2.483 -0.2451  0.0772  0.5721
15856SOL    HW248989   0.124   6.292   2.500 -2.4686 -0.8816  1.5941
15857SOL     OW48990   0.534   8.000   1.113 -0.5349  0.6061 -0.1702
15857SOL    HW148991   0.450   7.952   1.111 -0.7860  1.0255  0.2638
15857SOL    HW248992   0.510   8.090   1.089 -0.6400  1.3624  2.4473
15858SOL     OW48993   8.302   8.258   5.073  0.4562 -0.4193 -0.0404
15858SOL    HW148994   8.296   8.198   5.148  1.8379  0.4454  0.8234
15858SOL    HW248995   8.293   8.202   4.996 -0.7915 -1.3694  0.7588
15859SOL     OW48996   7.457   1.458   1.768 -0.3300  0.3058  0.0731
15859SOL    HW148997   7.457   1.467   1.672  1.9473  0.8109  0.0515
15859SOL    HW248998   7.537   1.504   1.795 -1.4729  1.0745  2.3344
15860SOL     OW48999   6.483   3.087   6.076 -0.2725 -0.0031  0.0306
15860SOL    HW149000   6.468   3.005   6.123  1.8454 -1.3460 -1.4599
15860SOL    HW249001   6.536   3.062   6.000 -2.7775  2.1333 -2.6811
15861SOL     OW49002   6.525   8.176   0.768 -0.2021  0.0651  0.5516
15861SOL    HW149003   6.527   8.150   0.676  1.6741 -1.4678  0.9560
15861SOL    HW249004   6.617   8.195   0.789 -0.6920  1.0453  1.9427
15862SOL     OW49005   3.876   4.773   0.757 -0.3813  0.1073 -0.0537
15862SOL    HW149006   3.894   4.851   0.809 -2.4840  1.0104 -0.5877
15862SOL    HW249007   3.853   4.706   0.822 -0.8084  0.5883  0.3003
15863SOL     OW49008   3.269   5.442   5.266  0.3657  0.1191 -0.4846
15863SOL    HW149009   3.271   5.347   5.258  1.5119  0.2930 -3.0954
15863SOL    HW249010   3.177   5.465   5.261  0.2113 -0.7316 -2.8511
15864SOL     OW49011   5.506   7.701   1.619 -0.1070  0.2005 -0.5649
15864SOL    HW149012   5.423   7.688   1.665 -0.6049  2.2235 -0.7854
15864SOL    HW249013   5.480   7.736   1.533  0.9536  0.9653 -0.5942
15865SOL     OW49014   5.668   5.140   0.313 -0.1447  0.3955 -0.0020
15865SOL    HW149015   5.647   5.175   0.400 -1.6479  0.2160 -0.2644
15865SOL    HW249016   5.622   5.198   0.252 -0.2548 -0.3042 -0.5979
15866SOL     OW49017   1.548   5.864   3.029 -0.3194 -0.2543 -0.3093
15866SOL    HW149018   1.545   5.940   3.087  1.0641  0.3738 -1.0211
15866SOL    HW249019   1.496   5.891   2.952 -0.2171 -0.2024 -0.3605
15867SOL     OW49020   7.159   5.963   0.001  0.0699 -0.5412 -0.1514
15867SOL    HW149021   7.166   5.886   0.056 -0.6991  0.2243  1.0798
15867SOL    HW249022   7.065   5.985   0.001  0.5449  1.9704  1.8733
15868SOL     OW49023   0.915   6.808   6.522 -0.1006 -0.1315  0.1103
15868SOL    HW149024   0.918   6.873   6.592  1.6176  0.0311 -0.0849
15868SOL    HW249025   0.849   6.745   6.552 -2.2857  1.9571  0.0180
15869SOL     OW49026   6.026   2.775   6.449  0.3028 -0.0225  0.7120
15869SOL    HW149027   5.962   2.825   6.499  0.9190  1.6297 -0.1036
15869SOL    HW249028   6.085   2.739   6.516  0.4594  1.2261  1.2712
15870SOL     OW49029   7.975   1.751   1.198  0.0548  0.4803  0.0790
15870SOL    HW149030   7.997   1.832   1.151  0.4280  0.6603  0.5588
15870SOL    HW249031   8.004   1.767   1.288 -0.2715 -0.0231  0.2766
15871SOL     OW49032   1.458   1.510   2.579  0.1727  0.7928 -0.6356
15871SOL    HW149033   1.502   1.557   2.650  0.6545  1.2062 -1.1995
15871SOL    HW249034   1.509   1.430   2.568  0.2884  0.8785 -0.7266
15872SOL     OW49035   7.256   3.975   1.234 -0.0323  0.0951 -0.3707
15872SOL    HW149036   7.299   4.031   1.298 -1.8143  1.0083  0.1119
15872SOL    HW249037   7.205   3.913   1.286  0.1715 -0.5346 -0.9101
15873SOL     OW49038   1.668   6.392   3.732 -0.4191  0.7998  0.2581
15873SOL    HW149039   1.723   6.334   3.785  0.0216  0.6836 -0.3088
15873SOL    HW249040   1.610   6.434   3.795 -0.2817  0.2560  0.7624
15874SOL     OW49041   6.201   8.100   7.621  0.1233 -0.2573  0.0459
15874SOL    HW149042   6.127   8.158   7.637  2.4407  2.8458  0.5793
15874SOL    HW249043   6.164   8.025   7.575 -3.0559  1.9729 -1.3763
15875SOL     OW49044   3.133   6.340   6.492  0.0446  0.0045 -0.6151
15875SOL    HW149045   3.204   6.401   6.516  0.5285 -0.2738 -1.3204
15875SOL    HW249046   3.081   6.389   6.429 -0.5705  0.3148  0.1186
15876SOL     OW49047   2.373   1.653   8.118 -0.0899  0.5461  0.0215
15876SOL    HW149048   2.395   1.696   8.201  1.1426 -2.5246  1.4439
15876SOL    HW249049   2.454   1.659   8.067  0.7638 -1.5963  1.0103
15877SOL     OW49050   2.099   6.526   4.758  0.6571  1.1178  0.7442
15877SOL    HW149051   2.113   6.433   4.742 -1.8099  0.4680  1.8532
15877SOL    HW249052   2.187   6.560   4.777  1.7885 -0.6873 -0.8502
15878SOL     OW49053   0.132   0.708   4.294  0.5395 -0.1114  0.1044
15878SOL    HW149054   0.199   0.641   4.278  0.1908 -0.4793  0.1658
15878SOL    HW249055   0.049   0.664   4.273  0.3093  0.3088  0.1293
15879SOL     OW49056   7.690   7.742   2.917  0.1533 -0.2972  0.1754
15879SOL    HW149057   7.712   7.800   2.990  1.5530 -2.0573  1.2194
15879SOL    HW249058   7.686   7.655   2.955 -0.8766 -1.0584 -1.5430
15880SOL     OW49059   3.802   7.870   2.852  0.4317  0.1996  0.0841
15880SOL    HW149060   3.839   7.898   2.936  0.7315 -0.0115  0.0251
15880SOL    HW249061   3.849   7.790   2.830  0.0239 -0.0034 -0.0599
15881SOL     OW49062   6.574   2.769   4.326  0.0727 -0.0702 -0.3279
15881SOL    HW149063   6.545   2.788   4.237  0.6008  2.2899 -0.0787
15881SOL    HW249064   6.643   2.704   4.317 -0.4598 -0.4882 -1.5393
15882SOL     OW49065   2.915   6.857   5.340 -0.6869  0.5142 -0.4180
15882SOL    HW149066   2.966   6.870   5.260 -0.0266  1.1671  0.0976
15882SOL    HW249067   2.917   6.763   5.356  0.2373  0.5175 -0.4835
15883SOL     OW49068   0.518   4.179   6.953 -0.0367 -0.3827 -0.2336
15883SOL    HW149069   0.559   4.180   6.867 -1.7045 -1.2150 -1.0712
15883SOL    HW249070   0.480   4.092   6.961 -0.1682 -0.2219  1.2296
15884SOL     OW49071   0.179   7.384   0.692  0.5176 -0.7727 -0.4071
15884SOL    HW149072   0.103   7.441   0.701  0.9117 -0.3880  0.5255
15884SOL    HW249073   0.147   7.297   0.716 -0.0759 -0.9665 -1.8045
15885SOL     OW49074   2.871   4.302   7.290  0.3390  0.7703  0.1775
15885SOL    HW149075   2.910   4.288   7.376 -0.4451 -0.3486  0.3712
15885SOL    HW249076   2.798   4.362   7.305 -0.4161 -0.1977  0.4811
15886SOL     OW49077   2.815   7.676   8.007  0.4799  0.0121  0.2854
15886SOL    HW149078   2.862   7.747   7.962 -1.3540  1.2852  0.2946
15886SOL    HW249079   2.875   7.647   8.075  1.0479  1.9944  0.6827
15887SOL     OW49080   5.883   0.857   0.522  0.0147  0.0337  0.3966
15887SOL    HW149081   5.821   0.797   0.563  0.2379 -0.3600  0.1602
15887SOL    HW249082   5.827   0.923   0.481 -0.1982  1.0534  2.2143
15888SOL     OW49083   4.126   1.214   4.543 -0.4526  0.3532 -0.0048
15888SOL    HW149084   4.184   1.220   4.619 -0.5724 -0.4318  0.1510
15888SOL    HW249085   4.038   1.211   4.581 -0.6866  2.3734 -0.2609
15889SOL     OW49086   6.096   6.016   0.549  0.0944 -0.5536  0.0977
15889SOL    HW149087   6.124   5.928   0.525  2.9207 -0.2024  1.7001
15889SOL    HW249088   6.062   6.007   0.638  0.0451 -0.0889  0.1297
15890SOL     OW49089   7.921   7.270   7.070  0.2021  0.8354 -0.5810
15890SOL    HW149090   7.992   7.268   7.134 -0.5912 -1.8479  0.3718
15890SOL    HW249091   7.858   7.332   7.105  0.4606  0.5141  0.4797
15891SOL     OW49092   0.360   0.985   0.457  0.8414  0.3749  0.5221
15891SOL    HW149093   0.390   1.074   0.439  1.1847  0.0582 -0.6020
15891SOL    HW249094   0.357   0.943   0.371  1.7758 -1.0375  1.1406
15892SOL     OW49095   7.815   7.218   3.971  0.0114  0.0926 -0.4167
15892SOL    HW149096   7.767   7.222   3.889 -0.5696  1.3793 -0.0477
15892SOL    HW249097   7.748   7.209   4.038  0.4102  0.0052 -0.0241
15893SOL     OW49098   6.434   1.128   1.809 -0.6753  0.5711 -0.2245
15893SOL    HW149099   6.454   1.041   1.844  0.8689  1.2829  0.7202
15893SOL    HW249100   6.411   1.111   1.717 -0.6126 -0.8546 -0.0038
15894SOL     OW49101   4.616   1.021   1.298 -0.6760 -0.1441  0.1500
15894SOL    HW149102   4.566   1.045   1.220 -0.4515 -1.7926 -0.5336
15894SOL    HW249103   4.697   0.984   1.264  0.9199  2.1457  1.2329
15895SOL     OW49104   7.189   0.217   1.124  0.1780 -0.5200 -0.3564
15895SOL    HW149105   7.123   0.147   1.127  0.1391 -0.4981 -0.7227
15895SOL    HW249106   7.231   0.206   1.039 -0.2844  0.3206 -0.7008
15896SOL     OW49107   7.657   2.682   0.354  0.1858 -0.2870  0.7947
15896SOL    HW149108   7.586   2.643   0.302  0.2953 -1.0337  1.1835
15896SOL    HW249109   7.644   2.648   0.442  1.9390 -1.7672  0.5506
15897SOL     OW49110   4.438   5.645   1.363  0.1048  0.1291  0.7787
15897SOL    HW149111   4.468   5.586   1.294  0.2765  1.1931 -0.0836
15897SOL    HW249112   4.499   5.631   1.435 -0.5855 -1.6259  1.0874
15898SOL     OW49113   0.172   7.161   1.377 -0.4586 -0.0896 -0.1698
15898SOL    HW149114   0.151   7.247   1.339  0.0866  0.4337  0.6681
15898SOL    HW249115   0.264   7.167   1.400 -0.2369 -1.1597 -0.7279
15899SOL     OW49116   1.258   4.286   5.522 -0.1965 -0.7250 -0.1229
15899SOL    HW149117   1.281   4.210   5.468  1.3539  0.3634 -1.0992
15899SOL    HW249118   1.203   4.340   5.464 -0.5932 -0.6985  0.2737
15900SOL     OW49119   6.606   4.518   5.582 -0.2879 -0.7020 -0.3203
15900SOL    HW149120   6.527   4.553   5.541  0.4141  0.3478 -0.8304
15900SOL    HW249121   6.618   4.432   5.541 -0.4761 -0.3336 -1.1749
15901SOL     OW49122   6.286   6.889   4.081 -0.1743  0.0022  0.0656
15901SOL    HW149123   6.379   6.913   4.079 -0.2186  0.7270  2.6010
15901SOL    HW249124   6.283   6.801   4.045  1.1928  0.6861 -1.8865
15902SOL     OW49125   0.872   5.615   0.517 -0.5106 -0.0540 -0.1614
15902SOL    HW149126   0.846   5.591   0.605  0.5694 -0.1653  0.1452
15902SOL    HW249127   0.961   5.580   0.508 -0.1895  0.9096 -0.8957
15903SOL     OW49128   4.487   2.469   3.523  0.6793 -0.2283  0.1617
15903SOL    HW149129   4.500   2.471   3.618  1.1760  0.2710  0.0863
15903SOL    HW249130   4.397   2.500   3.511  1.1054  1.1367  0.3855
15904SOL     OW49131   5.324   7.249   0.997  0.2111  0.3428 -0.4934
15904SOL    HW149132   5.276   7.205   0.927  0.3453 -0.9286  0.1868
15904SOL    HW249133   5.385   7.183   1.029  1.0740  1.3332 -0.0617
15905SOL     OW49134   2.685   0.511   0.493  0.0930  0.3257  0.2064
15905SOL    HW149135   2.670   0.450   0.421  0.3418 -0.5299  0.8576
15905SOL    HW249136   2.608   0.567   0.494  0.0367  0.2745 -0.6434
15906SOL     OW49137   0.066   6.725   3.592 -0.9195  0.0057  0.1138
15906SOL    HW149138   0.147   6.701   3.638 -0.7434 -0.5059 -0.4510
15906SOL    HW249139   0.023   6.787   3.651 -0.1667  0.2086  0.4730
15907SOL     OW49140   2.537   5.391   4.621  0.2300  0.3236 -0.8309
15907SOL    HW149141   2.632   5.403   4.623  0.3785 -0.7688  0.9715
15907SOL    HW249142   2.504   5.449   4.690 -0.0307 -1.5892  0.7722
15908SOL     OW49143   3.820   4.954   1.610 -0.0788  0.1083  0.4343
15908SOL    HW149144   3.774   4.893   1.668 -1.2456 -1.5013 -2.0052
15908SOL    HW249145   3.752   5.012   1.577  0.6688  1.3689  1.0287
15909SOL     OW49146   3.927   3.176   4.642 -0.3642 -0.0098  0.5517
15909SOL    HW149147   4.013   3.169   4.601 -0.6896  0.1153 -0.1641
15909SOL    HW249148   3.911   3.088   4.678 -1.3355 -1.0585 -2.1771
15910SOL     OW49149   2.536   3.526   2.393 -0.0946  0.3159  0.3147
15910SOL    HW149150   2.478   3.537   2.317  2.1515 -0.4157 -1.6388
15910SOL    HW249151   2.478   3.536   2.469 -2.9565 -1.2760 -1.4549
15911SOL     OW49152   7.502   8.052   3.165  0.4857  0.1377  0.2659
15911SOL    HW149153   7.439   7.981   3.160 -0.1004  0.7296 -1.8548
15911SOL    HW249154   7.495   8.084   3.255 -1.6155 -0.3695  0.3398
15912SOL     OW49155   4.889   5.207   0.307  0.3425 -0.1077 -0.0084
15912SOL    HW149156   4.884   5.113   0.292  2.1519 -0.1636 -0.5405
15912SOL    HW249157   4.876   5.245   0.220  0.5530  0.0741  0.0377
15913SOL     OW49158   4.840   4.523   6.765  0.0552 -0.8159 -0.1159
15913SOL    HW149159   4.766   4.536   6.825  1.0311  0.9269  0.7880
15913SOL    HW249160   4.883   4.444   6.796 -0.5566 -0.9951  0.2883
15914SOL     OW49161   4.521   6.003   4.627 -0.1996 -0.3232 -0.6589
15914SOL    HW149162   4.447   6.062   4.614 -0.0829 -0.0453 -0.0940
15914SOL    HW249163   4.523   5.986   4.721  0.5372 -0.2099 -0.6432
15915SOL     OW49164   5.230   2.844   0.885 -1.1169  0.0584 -0.0779
15915SOL    HW149165   5.242   2.762   0.932 -2.0232  0.2666  0.5639
15915SOL    HW249166   5.158   2.826   0.824 -1.4058  0.3894  0.1536
15916SOL     OW49167   1.464   0.258   4.471 -0.0167 -0.0069  0.2236
15916SOL    HW149168   1.434   0.340   4.431  1.9640  1.5869  1.8136
15916SOL    HW249169   1.559   0.266   4.472  0.1491 -1.8278  1.4947
15917SOL     OW49170   1.832   3.584   6.733 -0.2255 -0.2676 -0.0386
15917SOL    HW149171   1.818   3.522   6.662  2.3260 -1.3555  0.2746
15917SOL    HW249172   1.904   3.640   6.702 -0.4449  0.5682  0.8979
15918SOL     OW49173   7.116   5.863   2.271  0.2907 -0.0969 -0.1723
15918SOL    HW149174   7.078   5.777   2.253  0.1197 -0.8259  3.0352
15918SOL    HW249175   7.044   5.913   2.309  0.6665  1.1690 -1.0628
15919SOL     OW49176   2.623   5.346   4.885  0.2195 -0.1621  0.1699
15919SOL    HW149177   2.610   5.298   4.803  0.3026  0.4951 -0.2335
15919SOL    HW249178   2.716   5.369   4.885  0.6027 -1.5586  1.2322
15920SOL     OW49179   0.572   5.488   5.721  0.3847  0.3364  0.8310
15920SOL    HW149180   0.492   5.508   5.768  0.8439 -1.0776  2.3111
15920SOL    HW249181   0.628   5.445   5.786  1.6049 -0.4182 -0.6572
15921SOL     OW49182   1.510   7.661   5.931 -0.1296  0.3283  0.5522
15921SOL    HW149183   1.591   7.699   5.898 -0.1727 -0.2303 -0.2112
15921SOL    HW249184   1.490   7.713   6.009  0.1417  1.4649 -0.1030
15922SOL     OW49185   4.940   4.709   1.319 -0.3472 -0.3831  0.0600
15922SOL    HW149186   4.975   4.632   1.274 -1.0904 -1.6213  1.5211
15922SOL    HW249187   5.014   4.769   1.324  0.1598 -0.8214 -1.4238
15923SOL     OW49188   4.536   3.338   4.203 -0.0811 -0.1716  0.1937
15923SOL    HW149189   4.585   3.270   4.248 -0.0741 -1.0590 -1.0984
15923SOL    HW249190   4.444   3.312   4.212 -0.0561 -0.5895 -0.6307
15924SOL     OW49191   3.631   1.898   7.424  0.6750  0.0424  0.3093
15924SOL    HW149192   3.556   1.849   7.392  0.8705  1.0045 -1.7789
15924SOL    HW249193   3.703   1.835   7.424  0.4626 -0.2091 -0.3457
15925SOL     OW49194   4.202   0.775   2.640  0.0090 -0.0549 -0.2245
15925SOL    HW149195   4.197   0.715   2.714  0.9409  0.3741  0.2010
15925SOL    HW249196   4.249   0.725   2.572 -0.2174 -0.1946 -0.2821
15926SOL     OW49197   1.650   7.320   7.437  0.7705  0.0091 -0.4996
15926SOL    HW149198   1.557   7.337   7.448  0.8778  0.8037 -0.7991
15926SOL    HW249199   1.660   7.297   7.345  0.9639  0.5716 -0.6232
15927SOL     OW49200   7.763   6.579   5.259 -0.1542 -0.0383  0.4743
15927SOL    HW149201   7.739   6.526   5.183  1.4676  1.6488 -1.3289
15927SOL    HW249202   7.686   6.635   5.274 -0.1880  0.2111 -0.5148
15928SOL     OW49203   6.671   1.417   3.683 -0.6870 -0.2002 -0.1969
15928SOL    HW149204   6.638   1.505   3.701 -0.2655 -0.3198  1.3055
15928SOL    HW249205   6.648   1.367   3.761 -1.6054 -1.6437 -1.3542
15929SOL     OW49206   6.436   3.651   1.857  0.3133 -0.0425  0.2740
15929SOL    HW149207   6.529   3.629   1.848  0.2019  0.2047 -2.5396
15929SOL    HW249208   6.391   3.589   1.799 -1.3372 -0.3725  1.8380
15930SOL     OW49209   1.422   5.050   6.425  0.3037 -0.6145 -0.1477
15930SOL    HW149210   1.446   5.141   6.409  1.9182 -0.8059  0.9946
15930SOL    HW249211   1.361   5.029   6.354  1.9852  0.5393 -2.0521
15931SOL     OW49212   4.052   1.338   6.966 -0.8924  0.1013 -0.2887
15931SOL    HW149213   4.001   1.403   6.919  1.0411  2.9951  1.2930
15931SOL    HW249214   4.092   1.386   7.038  1.2910 -2.7017  0.5716
15932SOL     OW49215   4.602   4.749   3.179 -0.2647 -0.7695 -0.6935
15932SOL    HW149216   4.644   4.674   3.222 -0.4461  0.2852  1.4578
15932SOL    HW249217   4.667   4.779   3.116  0.6168 -1.5389 -0.1939
15933SOL     OW49218   7.028   7.476   7.686  0.8076 -0.0625 -0.0454
15933SOL    HW149219   7.057   7.561   7.654  0.3902  0.2741  0.4453
15933SOL    HW249220   6.974   7.497   7.762  1.1054 -0.7947  0.3770
15934SOL     OW49221   1.246   6.690   1.047 -0.7682 -0.3612 -0.3580
15934SOL    HW149222   1.171   6.671   0.992 -1.2998  0.0287  0.2227
15934SOL    HW249223   1.211   6.740   1.120 -0.3839 -2.3395  1.2621
15935SOL     OW49224   0.434   7.541   7.983  0.0886  0.4412  0.0712
15935SOL    HW149225   0.501   7.510   8.044 -1.0574  0.5263  1.4130
15935SOL    HW249226   0.376   7.465   7.971  1.0463 -0.0345 -2.0527
15936SOL     OW49227   1.349   1.454   2.189  0.3043  0.3157 -0.0624
15936SOL    HW149228   1.317   1.423   2.105  0.0905  1.0903 -0.2705
15936SOL    HW249229   1.281   1.428   2.252 -0.1555  0.8886 -0.3227
15937SOL     OW49230   4.583   5.618   4.933  0.3212  0.1346 -0.3459
15937SOL    HW149231   4.533   5.548   4.890  1.1485 -1.3419  0.9790
15937SOL    HW249232   4.523   5.692   4.936 -1.1092 -0.9768 -0.5125
15938SOL     OW49233   3.527   3.381   2.819 -0.5815 -0.6070 -0.6543
15938SOL    HW149234   3.611   3.387   2.865  0.5281  1.3227 -2.6720
15938SOL    HW249235   3.480   3.311   2.863  1.7045 -1.1261  1.1794
15939SOL     OW49236   7.644   2.416   2.034  0.4967 -0.7533 -0.0918
15939SOL    HW149237   7.713   2.390   1.973 -1.7747 -1.0447 -2.7289
15939SOL    HW249238   7.566   2.371   2.002 -0.9874 -0.3475  2.6859
15940SOL     OW49239   1.981   6.416   6.467  0.5899  0.1850  0.5619
15940SOL    HW149240   1.942   6.384   6.386  1.6940 -1.1187  0.5090
15940SOL    HW249241   1.958   6.508   6.470  0.7186  0.3165 -1.3641
15941SOL     OW49242   4.781   5.367   3.720  0.2492 -0.1116  0.3508
15941SOL    HW149243   4.767   5.460   3.700  0.9182 -0.1631 -0.3626
15941SOL    HW249244   4.799   5.326   3.636  2.0271 -0.5212  0.8943
15942SOL     OW49245   3.979   3.515   8.268  0.4265 -0.2637  0.7248
15942SOL    HW149246   3.893   3.499   8.230  0.5537 -0.1545  0.3848
15942SOL    HW249247   4.017   3.428   8.278  0.5114 -0.2754  0.3145
15943SOL     OW49248   6.288   0.483   2.178  0.1051 -0.4923  0.2175
15943SOL    HW149249   6.218   0.493   2.113 -0.4625 -0.2463  0.8573
15943SOL    HW249250   6.257   0.532   2.254  1.2925  0.2235  0.2684
15944SOL     OW49251   2.112   2.489   3.852 -0.2135 -0.4583  0.3292
15944SOL    HW149252   2.095   2.562   3.793 -0.7699 -0.7918  0.0706
15944SOL    HW249253   2.066   2.415   3.813 -0.5029 -0.7099  1.1195
15945SOL     OW49254   1.213   7.195   5.449  0.0693 -0.4176 -0.3230
15945SOL    HW149255   1.265   7.270   5.423  0.9261 -1.2583 -1.1189
15945SOL    HW249256   1.125   7.213   5.415  0.4603 -0.1419 -1.2081
15946SOL     OW49257   2.684   6.939   1.546  0.3441 -0.5145  0.6075
15946SOL    HW149258   2.664   6.940   1.452 -0.0002 -1.0692  0.6645
15946SOL    HW249259   2.756   6.876   1.555  1.5640  0.8370  0.5116
15947SOL     OW49260   1.373   3.358   1.956 -0.1303  0.1997  0.5133
15947SOL    HW149261   1.393   3.317   1.871 -0.5126  0.2450  0.3986
15947SOL    HW249262   1.384   3.452   1.940  0.7322  0.1499  0.7726
15948SOL     OW49263   6.701   6.883   8.302  0.3463  0.3070 -0.4544
15948SOL    HW149264   6.758   6.911   8.373  0.7221 -0.9336 -0.2403
15948SOL    HW249265   6.703   6.787   8.306 -0.9503  0.2335 -1.0821
15949SOL     OW49266   2.409   7.536   4.099  0.1410  0.6264 -0.4912
15949SOL    HW149267   2.483   7.476   4.112  0.1489  0.5472 -0.8912
15949SOL    HW249268   2.446   7.609   4.050  0.0287  0.7465 -0.3957
15950SOL     OW49269   0.550   7.196   4.016 -0.5411  0.3978 -0.2467
15950SOL    HW149270   0.576   7.242   4.095 -1.2722 -0.2392  0.3781
15950SOL    HW249271   0.632   7.167   3.976 -0.2207 -0.8189  1.2133
15951SOL     OW49272   2.904   4.530   5.565 -0.2687  0.2562 -0.2803
15951SOL    HW149273   2.917   4.492   5.651  0.0803  2.7114  0.8261
15951SOL    HW249274   2.983   4.505   5.515 -0.5720 -1.3463 -0.0018
15952SOL     OW49275   4.461   8.117   1.642  0.1965 -0.0487  0.4396
15952SOL    HW149276   4.556   8.127   1.648  0.6141 -2.9414  0.0853
15952SOL    HW249277   4.428   8.167   1.717  2.1021 -0.0724  1.3857
15953SOL     OW49278   7.978   5.973   7.344 -0.1973  0.1228  0.3298
15953SOL    HW149279   7.937   5.949   7.261 -0.7586 -0.5686  0.7988
15953SOL    HW249280   8.005   6.064   7.331 -1.0348  0.2989 -0.3268
15954SOL     OW49281   7.124   4.584   5.147 -0.1873  0.0238  0.6324
15954SOL    HW149282   7.175   4.635   5.211  1.7093 -1.1202  0.1014
15954SOL    HW249283   7.035   4.618   5.156  0.7411  2.6169  1.1345
15955SOL     OW49284   3.437   6.302   3.151 -0.5407  0.3405 -0.2993
15955SOL    HW149285   3.489   6.315   3.230  0.9504  0.7476 -1.3191
15955SOL    HW249286   3.496   6.257   3.090 -1.8962 -0.6455 -0.9431
15956SOL     OW49287   8.267   0.081   1.674 -0.0416 -1.0407  0.5193
15956SOL    HW149288   8.264   0.174   1.649 -0.1312 -1.1087  0.2743
15956SOL    HW249289   8.355   0.069   1.709  0.2658 -1.0587 -0.2352
15957SOL     OW49290   7.350   0.973   0.671  0.3225  0.6906  0.3699
15957SOL    HW149291   7.276   1.028   0.696 -0.0356  0.4880 -0.2272
15957SOL    HW249292   7.330   0.944   0.582  1.1436  0.6740  0.1832
15958SOL     OW49293   0.070   5.476   1.501  0.6656 -0.1787  0.6238
15958SOL    HW149294   0.071   5.383   1.524 -1.1649 -0.7486 -1.2669
15958SOL    HW249295  -0.007   5.511   1.545  0.1615 -0.0699 -0.3137
15959SOL     OW49296   0.490   2.246   4.294  0.3104  0.5793 -0.5373
15959SOL    HW149297   0.443   2.259   4.212 -1.2548 -0.9555  0.0634
15959SOL    HW249298   0.424   2.259   4.362  0.7087 -1.5136  0.3380
15960SOL     OW49299   1.266   0.496   6.876  0.4452 -0.7124 -0.3979
15960SOL    HW149300   1.220   0.493   6.960 -0.9158  2.6956 -0.8646
15960SOL    HW249301   1.212   0.444   6.817  0.5453 -1.7929  0.4299
15961SOL     OW49302   1.592   4.853   7.081 -0.4422  0.2153  0.0263
15961SOL    HW149303   1.599   4.780   7.143  1.6764  1.0489  0.8659
15961SOL    HW249304   1.565   4.928   7.134 -1.7222  0.2915 -0.6756
15962SOL     OW49305   2.925   0.309   5.259  0.4522  0.0751  0.6535
15962SOL    HW149306   3.016   0.290   5.237  0.3263  0.5008 -0.2918
15962SOL    HW249307   2.875   0.239   5.218  0.3220  0.0753  0.8095
15963SOL     OW49308   7.638   2.364   5.010  0.4629  0.1219  0.1911
15963SOL    HW149309   7.584   2.325   5.079 -0.0548 -1.0898 -0.8513
15963SOL    HW249310   7.601   2.452   4.997 -0.4673 -0.2369  0.3526
15964SOL     OW49311   5.094   2.324   6.150  0.5818  0.3556 -0.8271
15964SOL    HW149312   5.108   2.389   6.219 -0.0938  2.0812 -2.2418
15964SOL    HW249313   5.001   2.304   6.155  0.5294  0.4953 -1.2504
15965SOL     OW49314   5.249   7.119   3.674  0.2964 -0.3491  0.1639
15965SOL    HW149315   5.221   7.175   3.745 -0.6943 -0.1372 -0.3726
15965SOL    HW249316   5.170   7.108   3.620  0.5034 -2.1044  0.1599
15966SOL     OW49317   5.258   7.266   8.182 -0.7787  0.3063 -0.2405
15966SOL    HW149318   5.282   7.250   8.274  0.0944  1.7846 -0.1788
15966SOL    HW249319   5.288   7.355   8.165 -0.7540 -0.0132 -2.0346
15967SOL     OW49320   2.497   7.507   3.171 -0.0891  0.2276  0.8042
15967SOL    HW149321   2.572   7.448   3.169  1.0585  1.5386  2.0437
15967SOL    HW249322   2.503   7.549   3.257 -0.4116  2.6425 -0.2713
15968SOL     OW49323   5.390   8.155   1.315  0.1390  0.0691 -0.3299
15968SOL    HW149324   5.398   8.133   1.408 -1.3391  0.3600 -0.1054
15968SOL    HW249325   5.328   8.091   1.280 -1.5817  1.7065 -0.4278
15969SOL     OW49326   7.113   1.264   0.222  1.1519 -0.0117  0.4981
15969SOL    HW149327   7.041   1.204   0.241  0.7589  0.2742 -0.0864
15969SOL    HW249328   7.092   1.301   0.137  1.3131  1.0819  0.9198
15970SOL     OW49329   5.296   6.740   7.965 -0.1080  0.1009 -0.0901
15970SOL    HW149330   5.280   6.827   7.930 -2.4347  0.1663  0.9802
15970SOL    HW249331   5.349   6.697   7.898  0.3123  2.0165 -1.0526
15971SOL     OW49332   7.924   2.395   2.810  0.0046  0.0978  0.0893
15971SOL    HW149333   7.943   2.435   2.894 -0.8178  1.9319 -0.5559
15971SOL    HW249334   7.866   2.457   2.766 -0.3177 -1.2382 -1.4737
15972SOL     OW49335   0.754   1.710   6.841  0.1363  0.3364  0.1547
15972SOL    HW149336   0.731   1.794   6.801  1.7650  0.6712 -0.1556
15972SOL    HW249337   0.682   1.652   6.817 -2.1663  2.1062  2.1544
15973SOL     OW49338   6.498   6.937   6.009  0.4085 -0.1632 -0.2780
15973SOL    HW149339   6.474   7.028   6.025 -1.2001 -1.0206  3.1327
15973SOL    HW249340   6.580   6.925   6.058  0.7704 -0.5016 -0.9501
15974SOL     OW49341   0.424   7.098   0.460  0.2168 -0.1650  0.1961
15974SOL    HW149342   0.511   7.133   0.441 -0.1311  1.5189  1.4521
15974SOL    HW249343   0.425   7.083   0.555 -1.2339  1.0573  0.4357
15975SOL     OW49344   8.194   6.199   5.248  0.2916 -0.2481 -0.1505
15975SOL    HW149345   8.164   6.108   5.247 -0.7699  0.0872 -0.0688
15975SOL    HW249346   8.144   6.242   5.179 -0.3572  0.6120  0.8203
15976SOL     OW49347   3.089   3.977   4.574  0.0136 -0.1062  0.7453
15976SOL    HW149348   3.110   3.887   4.548  1.4555  0.2159  0.7201
15976SOL    HW249349   3.159   4.002   4.634  1.8228  2.2479 -2.0358
15977SOL     OW49350   2.819   7.770   5.380 -0.7206 -0.2337  0.1243
15977SOL    HW149351   2.805   7.815   5.463 -0.5712  0.4753 -0.2281
15977SOL    HW249352   2.890   7.709   5.397 -1.0536 -0.4749  0.6609
15978SOL     OW49353   7.551   5.552   2.335 -0.0027  0.4981 -0.3044
15978SOL    HW149354   7.527   5.460   2.329  2.2192 -0.0371 -2.2153
15978SOL    HW249355   7.525   5.578   2.424 -3.9809 -0.8921 -0.8718
15979SOL     OW49356   1.789   1.418   2.673  0.5697  0.1989 -1.1370
15979SOL    HW149357   1.803   1.497   2.621 -0.8958  1.1856 -0.1074
15979SOL    HW249358   1.725   1.367   2.624 -0.0384  0.6453 -0.8244
15980SOL     OW49359   1.501   7.952   5.639  0.2812 -0.3087 -0.1185
15980SOL    HW149360   1.552   7.905   5.573  2.4208 -0.8078  1.7865
15980SOL    HW249361   1.554   8.030   5.658  0.6739 -1.0793  2.2583
15981SOL     OW49362   2.055   4.680   5.381  0.0446 -0.5194  0.4753
15981SOL    HW149363   2.046   4.598   5.333 -0.4748 -0.3103  0.2082
15981SOL    HW249364   1.994   4.672   5.454 -0.5572 -0.0805  0.0325
15982SOL     OW49365   2.159   4.777   0.906 -0.3369 -0.3230 -0.0542
15982SOL    HW149366   2.164   4.867   0.874  2.8941 -0.0166  0.9680
15982SOL    HW249367   2.149   4.786   1.001 -2.3250 -1.1399 -0.1306
15983SOL     OW49368   0.442   5.921   6.587 -0.6455 -0.5463 -0.6501
15983SOL    HW149369   0.363   5.962   6.552 -0.2519 -1.4444 -2.7637
15983SOL    HW249370   0.503   5.993   6.601 -1.7076  0.1272  0.7494
15984SOL     OW49371   8.277   2.273   5.378 -0.3613 -0.6733  0.3090
15984SOL    HW149372   8.263   2.290   5.285 -0.9449 -0.8234  0.3688
15984SOL    HW249373   8.189   2.270   5.416 -0.3578 -3.7445  0.3281
15985SOL     OW49374   2.777   6.455   7.578 -0.8758 -0.0581 -0.2679
15985SOL    HW149375   2.779   6.488   7.667 -0.5194  0.5289 -0.4866
15985SOL    HW249376   2.869   6.439   7.556 -0.9834 -0.4473 -0.4372
15986SOL     OW49377   0.645   0.322   5.773 -0.0285 -0.0144  0.2322
15986SOL    HW149378   0.717   0.382   5.752 -0.3682  1.0548  1.9391
15986SOL    HW249379   0.637   0.266   5.696  0.5566  1.8832 -1.2758
15987SOL     OW49380   6.104   7.476   1.583  0.1896 -0.4965 -0.3956
15987SOL    HW149381   6.015   7.463   1.617  0.2599 -0.3717 -0.1636
15987SOL    HW249382   6.091   7.508   1.493  0.0023 -0.6285 -0.4165
15988SOL     OW49383   8.055   5.490   7.058 -0.2181 -0.8017 -0.2428
15988SOL    HW149384   7.976   5.436   7.047  0.3232 -1.1976 -2.9822
15988SOL    HW249385   8.045   5.530   7.144 -3.5869 -0.5874 -0.5765
15989SOL     OW49386   6.116   4.652   3.963 -0.5282 -0.1434  0.1524
15989SOL    HW149387   6.039   4.597   3.977 -1.7863  1.6993  1.0317
15989SOL    HW249388   6.165   4.647   4.044 -0.4471 -0.2630  0.0958
15990SOL     OW49389   1.355   6.292   2.309  0.0904  0.0586  0.3446
15990SOL    HW149390   1.286   6.289   2.242 -0.5205 -0.9173  0.9838
15990SOL    HW249391   1.435   6.310   2.260 -0.3934 -0.3046 -0.6134
15991SOL     OW49392   3.104   1.079   3.243  0.2646 -0.4118 -0.4127
15991SOL    HW149393   3.170   1.132   3.288 -0.6586 -0.6506  1.2962
15991SOL    HW249394   3.127   1.086   3.150  1.5799  1.0165 -0.0204
15992SOL     OW49395   0.752   3.173   0.478 -0.2649 -0.2293  0.0101
15992SOL    HW149396   0.735   3.095   0.424 -0.5263 -0.2144  0.0709
15992SOL    HW249397   0.683   3.234   0.455  0.7706  0.5703 -1.1288
15993SOL     OW49398   7.960   7.999   0.883  1.0078  0.1287 -0.1360
15993SOL    HW149399   7.977   8.080   0.930 -1.0759  1.2958 -1.2326
15993SOL    HW249400   7.919   8.026   0.801 -0.9366 -2.0224 -0.0083
15994SOL     OW49401   3.734   7.972   6.490  0.3753 -0.0733 -0.5627
15994SOL    HW149402   3.740   7.996   6.583 -0.8691  1.4067 -0.8271
15994SOL    HW249403   3.801   8.025   6.447 -0.9668  1.4322 -0.8650
15995SOL     OW49404   1.697   0.642   4.626  0.3333  0.0200 -0.3008
15995SOL    HW149405   1.662   0.705   4.564 -0.1386  0.0385 -0.0243
15995SOL    HW249406   1.619   0.598   4.661  0.6534 -0.6395 -0.4146
15996SOL     OW49407   1.391   5.851   5.003 -0.2885 -0.2379 -0.2616
15996SOL    HW149408   1.305   5.890   5.018  0.4455  0.8355  1.4758
15996SOL    HW249409   1.430   5.905   4.935 -0.3487  0.3426  0.1587
15997SOL     OW49410   2.859   8.178   3.195 -0.1604  0.3232  0.1480
15997SOL    HW149411   2.792   8.155   3.130  0.1504  0.0305 -0.0706
15997SOL    HW249412   2.858   8.274   3.196  1.2093  0.4217 -1.7691
15998SOL     OW49413   2.157   0.962   2.803 -0.1349  0.2492  0.0796
15998SOL    HW149414   2.108   1.000   2.876  0.8009 -0.3471  1.0492
15998SOL    HW249415   2.229   1.023   2.788 -0.6541  0.6727 -0.7578
15999SOL     OW49416   7.876   5.887   4.053 -0.8727  0.7765 -0.3946
15999SOL    HW149417   7.801   5.827   4.050 -1.7010  1.7277  0.5038
15999SOL    HW249418   7.843   5.968   4.014  0.6439  0.2931 -2.8924
16000SOL     OW49419   3.694   4.339   4.189  0.1481  0.2390  0.0751
16000SOL    HW149420   3.658   4.253   4.169 -0.6336  0.8240 -1.1598
16000SOL    HW249421   3.748   4.361   4.114  0.8574  0.5604  0.6700
16001SOL     OW49422   7.844   1.233   2.458 -0.3972  0.1681 -0.4481
16001SOL    HW149423   7.890   1.297   2.513 -1.6307  0.8892 -0.2234
16001SOL    HW249424   7.864   1.260   2.368 -0.0250  0.2066 -0.3571
16002SOL     OW49425   4.421   1.699   6.431 -0.2867 -0.4746 -0.2763
16002SOL    HW149426   4.428   1.635   6.502 -1.0170 -1.5243 -1.1084
16002SOL    HW249427   4.355   1.762   6.461  1.9710  1.2118  1.4722
16003SOL     OW49428   1.833   4.883   6.087  0.1104 -0.3906  0.1974
16003SOL    HW149429   1.904   4.946   6.075 -0.9961  0.6965 -1.0212
16003SOL    HW249430   1.755   4.929   6.057 -0.7853 -2.3021 -0.5701
16004SOL     OW49431   3.164   7.615   5.308 -0.2147 -0.3726 -0.1579
16004SOL    HW149432   3.179   7.596   5.401 -0.2355 -0.0234 -0.0827
16004SOL    HW249433   3.123   7.536   5.274  0.0922 -0.6300  0.0554
16005SOL     OW49434   8.139   6.222   7.237  0.0701  0.4203 -0.0705
16005SOL    HW149435   8.149   6.309   7.276  1.2516 -0.6744  2.2748
16005SOL    HW249436   8.216   6.211   7.181 -0.3808  1.0900 -0.8288
16006SOL     OW49437   8.034   3.653   1.298 -0.8726 -0.2884  0.2671
16006SOL    HW149438   8.064   3.744   1.290  0.8411 -0.6893  1.5698
16006SOL    HW249439   8.013   3.626   1.208  2.6407  0.1081 -0.8118
16007SOL     OW49440   4.330   3.852   5.900  0.3105 -0.2406 -0.2849
16007SOL    HW149441   4.247   3.849   5.851 -0.2428  0.9842  0.5281
16007SOL    HW249442   4.312   3.909   5.974  2.1747  0.8361 -0.6080
16008SOL     OW49443   7.349   2.401   3.535 -0.3611  0.3283 -0.2567
16008SOL    HW149444   7.328   2.485   3.577 -0.6849  0.0345  0.1873
16008SOL    HW249445   7.342   2.337   3.607 -2.9680 -0.5053 -1.1244
16009SOL     OW49446   6.089   3.461   2.680  0.0992 -0.3105  0.1709
16009SOL    HW149447   6.080   3.539   2.626  1.9683  1.8280  2.7369
16009SOL    HW249448   6.162   3.413   2.641 -1.9311 -1.7037 -2.2672
16010SOL     OW49449   0.431   5.847   5.200 -0.1707 -0.2002  0.2413
16010SOL    HW149450   0.526   5.833   5.205  0.1272  1.6537  0.5382
16010SOL    HW249451   0.393   5.774   5.248  1.1920 -0.0591  1.6156
16011SOL     OW49452   1.013   7.875   2.054  0.5542 -0.0862  0.6028
16011SOL    HW149453   1.056   7.914   1.978 -0.7029  1.3415  0.5903
16011SOL    HW249454   0.977   7.792   2.021  1.6997 -0.4185  0.1596
16012SOL     OW49455   0.536   2.102   1.101  0.4490 -0.4467 -0.3097
16012SOL    HW149456   0.473   2.030   1.090  1.3077 -1.0766 -1.3256
16012SOL    HW249457   0.610   2.061   1.146  0.4329  0.1272  0.2506
16013SOL     OW49458   7.434   3.543   5.533  0.2669  0.2971 -0.4990
16013SOL    HW149459   7.374   3.469   5.545  0.6086 -0.1207 -1.2590
16013SOL    HW249460   7.428   3.593   5.615  1.9604 -1.9780  1.1648
16014SOL     OW49461   2.835   5.278   1.165  0.4718 -0.2049 -0.2567
16014SOL    HW149462   2.794   5.318   1.242  0.2177  0.7111 -0.8552
16014SOL    HW249463   2.881   5.350   1.123  0.0967 -0.5648 -1.3075
16015SOL     OW49464   1.408   6.893   2.134 -0.1899  0.3798  0.2341
16015SOL    HW149465   1.318   6.862   2.122 -0.2300  0.8866 -0.8937
16015SOL    HW249466   1.450   6.878   2.049  0.6613  0.5554  0.6165
16016SOL     OW49467   1.955   1.198   0.754 -0.0705 -0.2291 -0.4299
16016SOL    HW149468   1.931   1.246   0.833  2.2521 -0.2093  0.3354
16016SOL    HW249469   1.897   1.234   0.686  0.2436  2.2854  0.5137
16017SOL     OW49470   5.486   0.367   5.750  0.1444 -0.5003  0.1628
16017SOL    HW149471   5.419   0.299   5.755  0.9847 -1.6517 -2.5256
16017SOL    HW249472   5.468   0.412   5.667  0.2465  1.9577  1.3580
16018SOL     OW49473   2.500   7.253   1.317  0.2256 -0.1442  0.3362
16018SOL    HW149474   2.562   7.285   1.251  2.4659 -2.2677  1.2544
16018SOL    HW249475   2.543   7.270   1.401 -1.2883 -0.0517  1.1263
16019SOL     OW49476   3.563   0.286   6.520 -0.2407  0.1265 -0.0112
16019SOL    HW149477   3.543   0.267   6.612 -1.4364 -1.3928 -0.5454
16019SOL    HW249478   3.500   0.233   6.471 -1.0298  2.4864 -1.7127
16020SOL     OW49479   2.212   4.593   7.160 -0.5822  0.4031 -0.0584
16020SOL    HW149480   2.205   4.498   7.162  0.4132  0.2360 -1.9829
16020SOL    HW249481   2.243   4.617   7.248  0.2055 -1.1624  0.1236
16021SOL     OW49482   1.010   4.795   4.474 -0.3638 -0.6750  0.1517
16021SOL    HW149483   0.957   4.774   4.551 -1.4186 -2.4450 -0.9803
16021SOL    HW249484   1.074   4.723   4.469 -0.4248 -0.6798 -0.7054
16022SOL     OW49485   6.861   5.932   4.217  0.3513  0.1425  0.4101
16022SOL    HW149486   6.918   5.894   4.149  1.2404  0.7958  0.7662
16022SOL    HW249487   6.799   5.863   4.237  0.9038 -0.5344 -0.1291
16023SOL     OW49488   4.524   6.142   6.292 -0.2558  0.4050 -0.5624
16023SOL    HW149489   4.608   6.097   6.283  0.4305  1.4294  0.4167
16023SOL    HW249490   4.477   6.094   6.359 -0.0177  0.4453 -0.3680
16024SOL     OW49491   5.793   2.884   4.483 -0.3154  0.2444 -0.2948
16024SOL    HW149492   5.799   2.948   4.412 -0.0793 -0.2104 -0.6932
16024SOL    HW249493   5.877   2.837   4.480  0.4526  1.3985  1.4463
16025SOL     OW49494   4.361   1.405   6.013 -0.0845  0.1283 -0.0029
16025SOL    HW149495   4.350   1.475   5.949  1.8256 -0.8463 -1.4965
16025SOL    HW249496   4.337   1.445   6.097 -1.7783  1.7097 -1.1602
16026SOL     OW49497   2.268   4.950   4.960 -0.1342  0.0504 -0.8990
16026SOL    HW149498   2.214   4.878   4.995 -0.8617  0.1031 -1.8613
16026SOL    HW249499   2.224   5.029   4.990  1.3031  0.1456  1.1258
16027SOL     OW49500   1.800   7.105   0.358  0.1867  0.9965 -1.1742
16027SOL    HW149501   1.774   7.152   0.437 -0.6854 -0.9048 -0.2819
16027SOL    HW249502   1.759   7.156   0.287 -1.9540  0.8434 -0.1490
16028SOL     OW49503   0.136   5.581   5.175 -0.4682 -0.0991  0.3761
16028SOL    HW149504   0.201   5.572   5.106 -0.0912 -2.7688  0.9749
16028SOL    HW249505   0.187   5.579   5.256 -1.0725  1.0801  0.8209
16029SOL     OW49506   3.332   3.935   0.454  0.3296 -0.4841  0.0690
16029SOL    HW149507   3.425   3.918   0.445  0.2909 -0.6366 -0.0365
16029SOL    HW249508   3.327   4.010   0.514  0.6107  0.9634 -1.6356
16030SOL     OW49509   8.208   6.468   2.906 -0.0280 -0.6998 -0.5396
16030SOL    HW149510   8.173   6.404   2.968 -0.0237  1.3455  1.7787
16030SOL    HW249511   8.302   6.471   2.925  1.1898 -3.9203 -4.5895
16031SOL     OW49512   7.793   0.117   7.510  0.2103  0.1053  0.4012
16031SOL    HW149513   7.735   0.046   7.482 -1.9642  2.1665 -0.6441
16031SOL    HW249514   7.772   0.190   7.452  5.2260  0.5725 -1.3357
16032SOL     OW49515   0.478   4.205   3.955  0.3824 -0.1744 -0.0937
16032SOL    HW149516   0.574   4.207   3.952  0.6135 -1.8383  2.7630
16032SOL    HW249517   0.458   4.125   4.003 -2.4834  0.0599 -0.7478
16033SOL     OW49518   4.571   8.213   6.763  0.1596  0.3991 -0.4398
16033SOL    HW149519   4.564   8.308   6.777 -0.6805  0.2455  0.2708
16033SOL    HW249520   4.557   8.202   6.668  0.4216  0.9942 -0.5519
16034SOL     OW49521   0.667   1.703   0.022 -0.0427  0.2734  0.5546
16034SOL    HW149522   0.715   1.630  -0.018 -1.6852  0.3732 -1.7877
16034SOL    HW249523   0.727   1.778   0.014  1.0477 -0.4550  1.5872
16035SOL     OW49524   7.691   5.320   6.368 -0.2669  0.2934  0.1517
16035SOL    HW149525   7.635   5.243   6.375  0.0593  0.1586  1.4646
16035SOL    HW249526   7.630   5.394   6.372 -0.4643  0.1224  0.3172
16036SOL     OW49527   4.825   3.535   5.125 -0.4202  0.0914 -0.1228
16036SOL    HW149528   4.871   3.539   5.041 -2.3110  0.1987 -1.2094
16036SOL    HW249529   4.791   3.445   5.129 -0.7772  0.2436  0.3022
16037SOL     OW49530   3.625   6.733   4.495  0.0587 -0.5009 -0.0571
16037SOL    HW149531   3.587   6.816   4.523 -0.2150 -1.0715  1.3447
16037SOL    HW249532   3.578   6.666   4.546  2.1044 -1.3119  0.8935
16038SOL     OW49533   6.162   2.453   3.580 -0.5818  0.3645  0.1113
16038SOL    HW149534   6.210   2.490   3.507 -0.7557 -0.9915 -0.7179
16038SOL    HW249535   6.108   2.525   3.613 -0.3336  1.0412 -0.9434
16039SOL     OW49536   6.938   4.455   7.196  0.4095 -0.7760 -0.0135
16039SOL    HW149537   7.021   4.501   7.204 -0.4863  0.6670  1.4239
16039SOL    HW249538   6.911   4.436   7.286 -1.1820 -0.5009 -0.3914
16040SOL     OW49539   6.127   1.945   6.047  0.4104  0.5602  0.1954
16040SOL    HW149540   6.138   1.991   5.963 -0.9836  0.3376 -0.1413
16040SOL    HW249541   6.089   2.010   6.105 -3.9024 -0.6077 -0.9617
16041SOL     OW49542   5.369   5.104   3.870  0.5723 -0.0148 -0.6727
16041SOL    HW149543   5.282   5.101   3.830 -0.5367  0.3718  1.5754
16041SOL    HW249544   5.427   5.069   3.802 -1.6303 -2.6292 -1.3998
16042SOL     OW49545   2.754   0.187   6.326 -0.4371 -0.2779 -0.6902
16042SOL    HW149546   2.728   0.265   6.375 -0.7782 -0.1458 -1.0781
16042SOL    HW249547   2.749   0.213   6.234  0.5391 -0.4153 -0.7935
16043SOL     OW49548   3.524   8.363   1.098  0.6244 -0.5544 -0.2210
16043SOL    HW149549   3.469   8.438   1.121  1.3142  0.0933 -0.5885
16043SOL    HW249550   3.510   8.351   1.004  1.8430  0.2705 -0.5333
16044SOL     OW49551   2.520   7.828   2.328 -0.6513 -0.3421 -0.4290
16044SOL    HW149552   2.498   7.864   2.414 -0.1344  0.7805 -0.7391
16044SOL    HW249553   2.436   7.824   2.282 -0.7961  0.0009 -0.2034
16045SOL     OW49554   6.742   3.447   8.299 -0.1112  0.1073  0.3637
16045SOL    HW149555   6.740   3.442   8.395 -1.5414  0.2725  0.3756
16045SOL    HW249556   6.661   3.493   8.276 -1.2668 -2.4354 -1.0419
16046SOL     OW49557   4.912   1.176   1.748  0.1146 -0.3127  0.2738
16046SOL    HW149558   4.826   1.191   1.709 -0.2404  0.6129  1.3660
16046SOL    HW249559   4.932   1.085   1.726 -1.7295 -0.9669  1.0742
16047SOL     OW49560   2.947   3.211   7.059 -0.2404 -0.1893 -0.5173
16047SOL    HW149561   2.904   3.178   6.980  1.4477  0.4164 -1.7368
16047SOL    HW249562   3.023   3.155   7.071 -0.4188 -0.2026  0.6232
16048SOL     OW49563   2.751   5.751   6.615 -0.8507  0.2478 -0.5197
16048SOL    HW149564   2.709   5.671   6.646  1.7930 -0.1366  2.5576
16048SOL    HW249565   2.797   5.725   6.535  0.3384 -1.5174  0.6706
16049SOL     OW49566   1.719   2.180   2.649  0.4868 -0.0550 -0.3315
16049SOL    HW149567   1.685   2.108   2.595 -1.7083  0.0062  0.8363
16049SOL    HW249568   1.714   2.257   2.593  2.3614 -0.6529 -1.4175
16050SOL     OW49569   5.158   1.874   5.241  0.0758 -0.9163  0.0026
16050SOL    HW149570   5.221   1.935   5.280 -0.6864 -0.4228  0.5036
16050SOL    HW249571   5.129   1.820   5.315  0.3792 -1.5710 -0.3478
16051SOL     OW49572   2.782   7.333   0.111  0.7879  0.0447 -0.2488
16051SOL    HW149573   2.719   7.364   0.176  0.0202  1.3063 -1.5499
16051SOL    HW249574   2.841   7.407   0.097 -0.0494  0.4189 -2.1568
16052SOL     OW49575   7.663   6.846   5.688  0.1330  0.5937 -0.1267
16052SOL    HW149576   7.674   6.851   5.593  1.1419  0.4080 -0.0300
16052SOL    HW249577   7.605   6.771   5.702 -0.1889  0.7515 -0.6012
16053SOL     OW49578   6.682   0.681   7.533  0.1118  0.0323  0.3798
16053SOL    HW149579   6.594   0.654   7.505 -0.6671  1.0941  1.7150
16053SOL    HW249580   6.667   0.740   7.606  1.8459  2.0446 -0.7726
16054SOL     OW49581   2.816   0.801   8.253 -0.0467  0.5150  0.4136
16054SOL    HW149582   2.753   0.828   8.186 -1.3161 -3.2753 -0.1284
16054SOL    HW249583   2.770   0.734   8.304  2.0457  0.8660  3.0154
16055SOL     OW49584   6.333   7.634   6.757  0.5894 -0.4453 -0.5432
16055SOL    HW149585   6.323   7.730   6.755 -1.4188 -0.6253 -1.4011
16055SOL    HW249586   6.299   7.608   6.843 -0.9210 -0.5452 -1.1482
16056SOL     OW49587   5.977   6.884   6.899 -0.0556  0.1064 -0.7758
16056SOL    HW149588   5.989   6.921   6.986  1.5967  1.1684 -1.3979
16056SOL    HW249589   5.998   6.791   6.909 -0.2826  0.1343  0.0233
16057SOL     OW49590   3.426   2.282   4.957  0.2288 -0.1073 -0.3093
16057SOL    HW149591   3.518   2.295   4.977 -0.0225  0.9279  0.2622
16057SOL    HW249592   3.417   2.309   4.866 -0.2677  4.1694  0.8130
16058SOL     OW49593   0.158   0.055   5.419 -0.3642  0.0907  0.4360
16058SOL    HW149594   0.074   0.062   5.465  0.6592 -1.7569  2.8466
16058SOL    HW249595   0.171  -0.039   5.408  0.3548  0.4198 -2.0673
16059SOL     OW49596   4.712   1.867   0.666 -0.6565  0.8171 -0.0003
16059SOL    HW149597   4.780   1.926   0.635 -0.4196  0.1720 -0.7563
16059SOL    HW249598   4.632   1.900   0.626 -0.4322  0.2963 -0.9186
16060SOL     OW49599   3.128   7.426   4.693  0.1678 -0.2980 -0.1257
16060SOL    HW149600   3.074   7.427   4.614  1.4988 -2.7390 -1.2005
16060SOL    HW249601   3.066   7.424   4.765 -1.2574 -2.7190 -1.2926
16061SOL     OW49602   7.785   5.694   4.700  0.4989 -0.4367  0.3343
16061SOL    HW149603   7.761   5.659   4.786 -0.5917  1.4557  0.8464
16061SOL    HW249604   7.799   5.616   4.647  1.1409 -1.6664  2.1863
16062SOL     OW49605   0.550   0.781   7.737  0.2086  0.3575  0.0220
16062SOL    HW149606   0.520   0.870   7.758  0.5242  0.6708 -0.8317
16062SOL    HW249607   0.476   0.725   7.762 -0.2779  0.9293 -0.1144
16063SOL     OW49608   1.770   7.248   1.381  0.3615 -0.1067 -0.2704
16063SOL    HW149609   1.723   7.330   1.396  1.6083  0.1998  2.5830
16063SOL    HW249610   1.713   7.181   1.419  1.1665 -0.0158  1.1342
16064SOL     OW49611   1.457   6.054   4.797 -0.7933  0.0707  0.1363
16064SOL    HW149612   1.450   6.120   4.867 -1.9715  0.7606 -0.5947
16064SOL    HW249613   1.391   6.080   4.733  0.3302 -0.4817 -1.3019
16065SOL     OW49614   2.350   6.925   6.465 -0.1210  0.4723  0.1742
16065SOL    HW149615   2.396   6.890   6.541  1.3624  1.7000 -0.0982
16065SOL    HW249616   2.417   6.926   6.396 -0.7754  1.6002 -0.4674
16066SOL     OW49617   8.204   0.870   4.490 -0.3882 -0.5011 -0.1451
16066SOL    HW149618   8.241   0.788   4.521  0.1072 -0.4604 -0.6185
16066SOL    HW249619   8.279   0.929   4.484 -0.7770  0.0746  0.4510
16067SOL     OW49620   2.319   7.810   7.368 -0.2105  0.3723 -0.2361
16067SOL    HW149621   2.238   7.860   7.359  1.0883  2.6373  0.0181
16067SOL    HW249622   2.294   7.721   7.344 -2.6519  1.0854 -0.6583
16068SOL     OW49623   2.932   4.210   1.640 -0.1656  0.2194  0.1340
16068SOL    HW149624   2.933   4.115   1.653 -0.9339  0.3848  1.6308
16068SOL    HW249625   2.930   4.246   1.729 -0.5490  1.6303 -0.4214
16069SOL     OW49626   0.296   7.089   7.499 -0.3303  0.3316  0.0296
16069SOL    HW149627   0.329   7.149   7.432  2.5137  0.3633  1.2870
16069SOL    HW249628   0.367   7.025   7.510 -0.4244  0.6185  3.2999
16070SOL     OW49629   3.350   6.083   0.244  0.0812  0.1590  0.2608
16070SOL    HW149630   3.341   6.118   0.155 -0.4114 -2.4674 -0.8317
16070SOL    HW249631   3.424   6.131   0.281 -0.3532  2.0730 -1.1527
16071SOL     OW49632   4.435   7.497   7.984  0.0184  0.4002 -0.4182
16071SOL    HW149633   4.410   7.587   7.966  0.8279  0.7327  0.0755
16071SOL    HW249634   4.420   7.486   8.078 -0.6034 -0.1573 -0.5746
16072SOL     OW49635   6.287   5.796   4.364 -0.0280  0.5779  0.2641
16072SOL    HW149636   6.193   5.813   4.374  0.2809  1.5572  2.0037
16072SOL    HW249637   6.299   5.708   4.402 -0.5762 -0.6926 -2.3198
16073SOL     OW49638   0.806   7.159   6.325  0.1908 -0.0523 -0.3902
16073SOL    HW149639   0.812   7.222   6.397  0.1669 -0.7712  0.2489
16073SOL    HW249640   0.895   7.153   6.291  0.0546  0.8776 -0.9407
16074SOL     OW49641   4.521   4.171   5.058  0.3111  0.3252 -0.0486
16074SOL    HW149642   4.574   4.096   5.031  0.1820  0.1163  0.2713
16074SOL    HW249643   4.549   4.242   5.000 -1.3356 -0.5850 -2.0976
16075SOL     OW49644   6.226   7.917   5.911 -0.4428  0.1745  0.0324
16075SOL    HW149645   6.137   7.883   5.917 -0.1742 -0.2911  1.9734
16075SOL    HW249646   6.269   7.860   5.847 -0.2975 -2.6305  2.4148
16076SOL     OW49647   0.272   3.337   0.996 -0.1903  0.3593  0.0456
16076SOL    HW149648   0.261   3.253   1.040  0.2150 -0.6054 -1.6194
16076SOL    HW249649   0.182   3.369   0.982 -0.3249  0.8002  1.7095
16077SOL     OW49650   3.302   2.124   2.333 -0.3771 -1.1445 -0.3589
16077SOL    HW149651   3.331   2.123   2.242  0.9537  0.8591 -0.0096
16077SOL    HW249652   3.351   2.195   2.374 -2.8368 -0.2590  1.3063
16078SOL     OW49653   6.021   2.123   3.814  0.3601  0.0795 -0.4087
16078SOL    HW149654   5.963   2.176   3.868 -0.5154 -0.2977 -0.9594
16078SOL    HW249655   6.106   2.165   3.821 -0.2684  1.4385 -0.6805
16079SOL     OW49656   5.136   6.666   1.362 -0.3752  0.4642  0.2947
16079SOL    HW149657   5.154   6.759   1.371 -0.9977  0.7972 -1.4129
16079SOL    HW249658   5.218   6.623   1.388  0.6201  1.5984 -0.8299
16080SOL     OW49659   5.847   7.618   0.576  0.0929 -0.2524  0.2500
16080SOL    HW149660   5.940   7.639   0.579  0.4052 -1.6060  1.2005
16080SOL    HW249661   5.818   7.628   0.667 -0.0550 -2.2842  0.4891
16081SOL     OW49662   5.344   1.494   6.684  0.2666 -0.5881 -0.3390
16081SOL    HW149663   5.412   1.528   6.743 -1.4208  0.6132  1.0107
16081SOL    HW249664   5.326   1.567   6.624 -0.3601 -0.6153 -0.1878
16082SOL     OW49665   0.261   3.104   2.736 -0.5384  0.0124  0.4195
16082SOL    HW149666   0.168   3.111   2.714 -0.0363 -0.0491 -2.1172
16082SOL    HW249667   0.289   3.194   2.754 -0.6437  0.3760 -1.1029
16083SOL     OW49668   0.873   6.361   3.762  0.1197 -0.0893 -0.6059
16083SOL    HW149669   0.885   6.445   3.718 -1.9182 -0.5159 -2.1270
16083SOL    HW249670   0.779   6.351   3.770  0.3458 -1.7583  0.5415
16084SOL     OW49671   4.483   4.874   2.442 -0.3569  0.1812  0.4131
16084SOL    HW149672   4.487   4.822   2.522  0.6179  1.2647  1.1027
16084SOL    HW249673   4.467   4.963   2.472  1.3115  0.8268 -0.4802
16085SOL     OW49674   3.980   3.056   3.904  0.6203 -0.1826  0.1786
16085SOL    HW149675   4.007   2.974   3.864  0.4399  0.3577 -1.1105
16085SOL    HW249676   4.025   3.058   3.988 -0.2122 -2.0837  0.7028
16086SOL     OW49677   1.109   7.921   1.694  0.6976 -0.0859  0.6625
16086SOL    HW149678   1.113   8.015   1.679  1.1065 -0.2411 -0.3266
16086SOL    HW249679   1.163   7.906   1.771  1.8355  0.3274 -0.0359
16087SOL     OW49680   6.105   7.838   1.898 -0.1706 -0.0499 -0.1925
16087SOL    HW149681   6.070   7.884   1.975  2.4275  0.3805  0.8242
16087SOL    HW249682   6.196   7.818   1.921  0.2658 -1.2240 -2.6110
16088SOL     OW49683   0.738   3.371   0.703  0.3197 -0.4353  0.3188
16088SOL    HW149684   0.644   3.359   0.716  0.0653  1.3438  0.3064
16088SOL    HW249685   0.758   3.318   0.626 -1.3445  1.6543 -1.7060
16089SOL     OW49686   2.278   1.930   6.324 -0.4425  0.1008 -0.2307
16089SOL    HW149687   2.283   1.991   6.397  1.1048 -0.0387 -0.1888
16089SOL    HW249688   2.254   1.985   6.249 -1.2474  0.3722  0.2130
16090SOL     OW49689   1.212   2.318   0.212 -0.5483  0.5631 -0.5375
16090SOL    HW149690   1.298   2.283   0.232 -1.5220 -1.9312 -0.3268
16090SOL    HW249691   1.198   2.387   0.277  0.5902 -0.2214  0.5947
16091SOL     OW49692   4.718   5.134   2.597  0.5240 -0.0392  0.3812
16091SOL    HW149693   4.761   5.059   2.637 -1.1182 -1.0104  0.4395
16091SOL    HW249694   4.775   5.160   2.525  1.5786 -0.7368  0.9406
16092SOL     OW49695   7.025   4.410   5.952  0.5738  0.2338 -0.1775
16092SOL    HW149696   6.937   4.390   5.985  1.2917 -0.1701  1.5774
16092SOL    HW249697   7.063   4.466   6.020  0.5357  3.2490 -2.4387
16093SOL     OW49698   4.020   3.788   1.131  0.0005  0.0255  0.3208
16093SOL    HW149699   3.949   3.770   1.069  1.8658 -0.2253 -1.8564
16093SOL    HW249700   4.027   3.708   1.183 -1.3775  0.1136  0.6930
16094SOL     OW49701   1.424   0.305   6.555  0.0137 -0.8212  0.1569
16094SOL    HW149702   1.470   0.343   6.481  3.4585 -0.0400  2.4976
16094SOL    HW249703   1.389   0.380   6.604 -0.4664 -1.2104  0.4294
16095SOL     OW49704   6.573   3.571   4.742  0.0712  0.1793 -0.4235
16095SOL    HW149705   6.626   3.650   4.729 -0.1055  0.5442  0.9145
16095SOL    HW249706   6.517   3.592   4.817  0.6493 -1.5291  0.5314
16096SOL     OW49707   2.005   0.728   7.087 -0.7057 -0.2221  0.0245
16096SOL    HW149708   1.926   0.738   7.035  0.0621  0.3315 -1.0736
16096SOL    HW249709   1.989   0.779   7.167 -0.8829  1.1352 -0.8528
16097SOL     OW49710   8.347   2.103   7.608  0.0358  0.3618  0.2098
16097SOL    HW149711   8.326   2.189   7.645  1.0257  0.8957 -0.4195
16097SOL    HW249712   8.443   2.100   7.609  0.0059 -1.1599  1.1429
16098SOL     OW49713   4.675   5.357   1.926  0.0773 -0.0270 -0.5437
16098SOL    HW149714   4.700   5.266   1.940  0.0431 -0.0549 -0.6628
16098SOL    HW249715   4.580   5.358   1.942  0.4927  0.5720  2.5204
16099SOL     OW49716   2.641   3.014   0.808  0.1222 -0.2220 -0.1019
16099SOL    HW149717   2.723   2.994   0.764  0.8379  2.4737 -0.1658
16099SOL    HW249718   2.668   3.046   0.895 -0.7705  1.3024 -0.3524
16100SOL     OW49719   3.642   4.815   0.137 -0.4778 -0.3000 -0.0560
16100SOL    HW149720   3.691   4.800   0.056 -2.1770 -1.2400 -0.9604
16100SOL    HW249721   3.704   4.793   0.206  1.0381  0.5807 -1.0654
16101SOL     OW49722   4.784   1.633   0.117  0.3860 -0.0596 -0.1292
16101SOL    HW149723   4.801   1.698   0.186 -1.7655  1.6518 -1.0916
16101SOL    HW249724   4.707   1.586   0.147  0.8310 -0.9355 -0.3245
16102SOL     OW49725   4.033   8.115   6.083  0.6290  0.3981 -0.0605
16102SOL    HW149726   4.064   8.112   6.174  0.3039 -1.6088  0.0424
16102SOL    HW249727   3.945   8.150   6.089  0.6245  0.3219  0.4039
16103SOL     OW49728   7.797   0.298   2.811 -0.3426  0.1726  0.0417
16103SOL    HW149729   7.754   0.214   2.798  0.1586  0.1692 -2.0172
16103SOL    HW249730   7.739   0.347   2.869 -1.4977 -0.9797 -0.1073
16104SOL     OW49731   1.400   3.493   2.418  0.4150  0.6533  0.0280
16104SOL    HW149732   1.312   3.458   2.434  0.8097  0.9810  3.6836
16104SOL    HW249733   1.438   3.432   2.353 -1.5562 -1.0902  0.3900
16105SOL     OW49734   0.563   6.637   5.486  0.4049 -0.2646  0.4404
16105SOL    HW149735   0.569   6.544   5.511  0.2391 -0.9237 -1.7813
16105SOL    HW249736   0.645   6.654   5.440  0.9331  1.0479  1.8098
16106SOL     OW49737   4.049   8.012   1.674  0.4686  0.0817  0.3473
16106SOL    HW149738   4.141   8.007   1.651  0.6261  0.3148  0.8987
16106SOL    HW249739   4.031   7.930   1.720 -0.1694 -0.9659 -1.6711
16107SOL     OW49740   4.465   0.368   3.730 -0.1645 -0.6900  0.0649
16107SOL    HW149741   4.519   0.339   3.656  0.3590  0.5238 -0.0452
16107SOL    HW249742   4.457   0.463   3.719  1.3662 -0.1953  2.4836
16108SOL     OW49743   4.782   6.814   4.756 -0.1816 -0.1636 -0.1871
16108SOL    HW149744   4.854   6.878   4.763 -0.3845  0.0257  0.2331
16108SOL    HW249745   4.823   6.737   4.718  0.1633  0.0731 -0.3068
16109SOL     OW49746   7.444   0.641   8.110  0.2020  0.5798 -0.5038
16109SOL    HW149747   7.390   0.690   8.171  2.2451  0.2472  1.7153
16109SOL    HW249748   7.471   0.705   8.044 -0.8421  1.2955 -0.2581
16110SOL     OW49749   4.771   4.473   1.464  0.1595  0.2713 -0.0721
16110SOL    HW149750   4.810   4.552   1.501  0.0536  0.0667  0.4871
16110SOL    HW249751   4.807   4.402   1.516 -0.4997  0.0363  0.0802
16111SOL     OW49752   3.228   3.434   7.392  0.5360 -0.1353  0.0567
16111SOL    HW149753   3.304   3.376   7.396 -0.0297 -0.8899  0.0090
16111SOL    HW249754   3.221   3.456   7.299 -0.3339 -1.4647 -0.2047
16112SOL     OW49755   0.056   7.829   7.378 -0.2839 -0.1551  0.7823
16112SOL    HW149756   0.023   7.918   7.374 -2.1585 -0.8290  0.1954
16112SOL    HW249757   0.151   7.838   7.386 -0.0248  1.8604 -2.8711
16113SOL     OW49758   2.703   0.947   6.593 -0.3187  0.0966 -0.1806
16113SOL    HW149759   2.694   1.003   6.671  0.3038 -0.1099  0.0481
16113SOL    HW249760   2.785   0.974   6.553  1.4604 -2.4154  1.4317
16114SOL     OW49761   3.365   6.358   0.934  0.2609  0.0668  0.0464
16114SOL    HW149762   3.454   6.363   0.898  0.8256 -3.3164  0.6080
16114SOL    HW249763   3.328   6.278   0.895 -2.4300  1.1628  0.1497
16115SOL     OW49764   1.422   6.937   0.549 -0.1358  0.4530 -0.1939
16115SOL    HW149765   1.371   7.007   0.509 -1.2118 -0.3662 -0.2920
16115SOL    HW249766   1.485   6.983   0.605 -0.0861  1.5284 -1.1022
16116SOL     OW49767   0.367   3.067   4.231  0.4555 -0.1516  0.2283
16116SOL    HW149768   0.391   3.029   4.315 -0.1908 -0.1279  0.4278
16116SOL    HW249769   0.451   3.086   4.188  0.8461  1.4181  1.5671
16117SOL     OW49770   2.076   5.341   5.606  0.2838 -0.1506 -0.9136
16117SOL    HW149771   2.156   5.292   5.622  0.4547  0.8414  1.8044
16117SOL    HW249772   2.105   5.429   5.583  0.0436  0.4282  0.8564
16118SOL     OW49773   5.333   2.849   6.955 -0.0424 -0.1620  0.8386
16118SOL    HW149774   5.286   2.769   6.929 -3.2181  1.3417  1.4715
16118SOL    HW249775   5.420   2.819   6.979 -0.1062 -2.9969 -1.8646
16119SOL     OW49776   2.823   6.519   2.784  0.2867  0.1225 -0.3724
16119SOL    HW149777   2.845   6.431   2.753 -2.3138 -0.9931  0.5877
16119SOL    HW249778   2.749   6.545   2.728 -1.3720  0.0708  1.6898
16120SOL     OW49779   0.847   0.611   0.678  0.0782 -0.5222  0.0644
16120SOL    HW149780   0.856   0.535   0.736 -0.0491 -0.7600 -0.2237
16120SOL    HW249781   0.754   0.632   0.681 -0.0121 -0.8345 -0.4245
16121SOL     OW49782   5.196   6.450   2.724  0.6485 -0.4596 -0.5108
16121SOL    HW149783   5.168   6.512   2.657  1.7097  0.6295  0.0257
16121SOL    HW249784   5.247   6.384   2.675 -1.1423 -1.4055 -1.1996
16122SOL     OW49785   7.074   5.478   1.108  0.2967 -0.5710  0.1125
16122SOL    HW149786   7.148   5.454   1.163  0.5760  0.6635  0.3069
16122SOL    HW249787   7.108   5.546   1.051 -0.8505  0.5006  0.6610
16123SOL     OW49788   1.659   6.010   6.309  0.2740  0.4284 -0.1404
16123SOL    HW149789   1.694   5.985   6.395  2.1755  3.4262  0.0954
16123SOL    HW249790   1.726   5.983   6.247 -1.4100 -2.3862 -0.9221
16124SOL     OW49791   5.000   1.988   7.849 -0.4591  0.5830  0.1834
16124SOL    HW149792   5.004   1.904   7.803  0.3911  0.7029  0.0169
16124SOL    HW249793   5.040   2.051   7.789 -1.6234  1.2358  0.0655
16125SOL     OW49794   0.750   7.317   1.142  0.2527 -0.1218 -0.6619
16125SOL    HW149795   0.694   7.356   1.209  2.3621  2.7367 -0.3796
16125SOL    HW249796   0.825   7.282   1.190  0.9517  0.3721 -1.3627
16126SOL     OW49797   3.154   5.067   3.355 -0.4741 -0.5405 -0.3961
16126SOL    HW149798   3.153   4.971   3.353 -0.1028 -0.5575  0.1374
16126SOL    HW249799   3.230   5.089   3.408 -1.4351  0.0279  0.8175
16127SOL     OW49800   5.134   2.187   0.737 -0.0364  0.8799 -0.1910
16127SOL    HW149801   5.177   2.270   0.756 -1.2503  1.6917 -0.8657
16127SOL    HW249802   5.190   2.146   0.671  0.4476  1.2652 -0.0311
16128SOL     OW49803   0.254   5.750   0.830 -0.6930  0.6914  0.6006
16128SOL    HW149804   0.195   5.755   0.904 -1.5394  2.0246 -0.1250
16128SOL    HW249805   0.308   5.829   0.836 -1.3122  1.2348 -0.6179
16129SOL     OW49806   0.246   7.396   6.918 -0.0732 -0.1986 -0.1096
16129SOL    HW149807   0.186   7.328   6.949  1.2016 -1.4405 -0.2992
16129SOL    HW249808   0.322   7.348   6.885  0.4142  1.2753 -1.2299
16130SOL     OW49809   3.860   2.799   1.892  0.6306  0.2051 -0.1232
16130SOL    HW149810   3.936   2.794   1.950  2.7110  0.4663 -2.6352
16130SOL    HW249811   3.868   2.723   1.835 -2.1916 -0.8915  0.7667
16131SOL     OW49812   7.445   3.894   3.611  0.0383 -1.0026  0.4578
16131SOL    HW149813   7.360   3.851   3.600 -0.6024  0.0601  0.9932
16131SOL    HW249814   7.472   3.917   3.522  1.1128 -3.7406  0.0022
16132SOL     OW49815   5.373   0.573   6.670  0.0850  0.2388  0.1771
16132SOL    HW149816   5.422   0.514   6.727  0.4751  0.2178 -0.1763
16132SOL    HW249817   5.373   0.657   6.717  0.7494  0.3262  0.0198
16133SOL     OW49818   2.665   7.890   1.128  0.2092  0.0819 -0.1817
16133SOL    HW149819   2.620   7.821   1.177  1.3239 -1.2949 -1.0368
16133SOL    HW249820   2.609   7.907   1.053 -0.0955  0.1686  0.0630
16134SOL     OW49821   0.036   3.408   0.864  0.4698 -0.0056 -0.1523
16134SOL    HW149822   0.020   3.502   0.871 -0.1109 -0.0910 -0.2874
16134SOL    HW249823  -0.047   3.372   0.833  0.0976 -0.8002  1.6643
16135SOL     OW49824   2.162   7.923   1.421  0.0964  0.1602 -0.2275
16135SOL    HW149825   2.101   7.991   1.392  0.1170  1.0069  1.5666
16135SOL    HW249826   2.228   7.919   1.351 -1.2387  0.2049 -1.5325
16136SOL     OW49827   2.988   5.652   4.653 -0.0015  0.1676  0.7432
16136SOL    HW149828   2.933   5.574   4.655  0.6627 -0.3062  0.7785
16136SOL    HW249829   3.010   5.664   4.561 -0.6761  0.7379  0.6409
16137SOL     OW49830   0.439   6.518   4.223 -0.3705  0.3232 -0.7724
16137SOL    HW149831   0.401   6.575   4.156  0.5585  1.5555 -0.2870
16137SOL    HW249832   0.374   6.517   4.293 -0.6903  0.2392 -1.0674
16138SOL     OW49833   2.189   5.575   7.191 -0.1449 -0.4563  0.1757
16138SOL    HW149834   2.183   5.654   7.137 -1.1736  0.0126  0.9225
16138SOL    HW249835   2.278   5.576   7.226  0.1823 -0.1912 -0.6526
16139SOL     OW49836   4.223   6.510   3.090  0.2049 -0.1495 -0.4180
16139SOL    HW149837   4.220   6.578   3.158 -0.4534 -1.1086  0.5477
16139SOL    HW249838   4.291   6.449   3.119 -0.2031 -0.6623 -0.5160
16140SOL     OW49839   4.553   2.935   3.765 -0.5256 -0.1313  0.7418
16140SOL    HW149840   4.636   2.982   3.755  0.1064 -0.8414  2.2330
16140SOL    HW249841   4.526   2.953   3.855 -0.9578 -1.4965  0.9138
16141SOL     OW49842   1.477   2.271   0.269  0.6275 -0.0310 -0.5314
16141SOL    HW149843   1.535   2.224   0.211  0.8062  0.6240 -0.8989
16141SOL    HW249844   1.515   2.359   0.275  0.0240  0.2225 -0.2834
16142SOL     OW49845   1.365   1.416   0.090 -0.0411  0.4735  0.1030
16142SOL    HW149846   1.296   1.357   0.120  0.2270 -0.1587 -0.5070
16142SOL    HW249847   1.437   1.401   0.151 -0.5876  1.4750  1.0269
16143SOL     OW49848   6.552   5.476   4.320  0.0156  0.1371 -0.0671
16143SOL    HW149849   6.574   5.463   4.413 -2.7410 -2.8990  0.3633
16143SOL    HW249850   6.612   5.417   4.273 -0.1747 -0.1589  0.0551
16144SOL     OW49851   1.321   5.705   6.134 -0.1102  0.6650 -0.1712
16144SOL    HW149852   1.403   5.663   6.107  0.2746 -0.6569  2.6677
16144SOL    HW249853   1.348   5.790   6.168 -0.2995  1.2944 -1.5040
16145SOL     OW49854   1.368   3.405   7.894  0.2240  0.2201 -0.3874
16145SOL    HW149855   1.292   3.404   7.836  0.1438 -1.8704 -0.2968
16145SOL    HW249856   1.443   3.397   7.835  0.2002 -0.8090 -0.2854
16146SOL     OW49857   0.845   0.944   7.803 -0.3778  0.0602  0.3721
16146SOL    HW149858   0.780   0.987   7.859 -1.6734 -1.9962  0.5729
16146SOL    HW249859   0.920   1.003   7.803 -1.2327  1.2448  2.3557
16147SOL     OW49860   7.877   3.241   3.826  0.3087  0.2380  0.6046
16147SOL    HW149861   7.836   3.327   3.839  0.3238  0.1269  1.4443
16147SOL    HW249862   7.817   3.180   3.869 -0.1728 -0.2917 -0.7819
16148SOL     OW49863   3.945   1.237   1.511 -1.1835  0.1381 -0.1667
16148SOL    HW149864   4.004   1.268   1.443 -1.0360  0.7737  0.2356
16148SOL    HW249865   3.993   1.251   1.593 -1.2131 -0.9438  0.0531
16149SOL     OW49866   6.971   7.649   5.806 -0.0650 -0.1274 -0.0395
16149SOL    HW149867   6.889   7.674   5.761  0.4852 -1.0340 -1.6403
16149SOL    HW249868   7.038   7.655   5.738  0.8694 -1.3045  0.7346
16150SOL     OW49869   3.059   1.500   3.881  0.2229  0.2954 -0.3046
16150SOL    HW149870   2.963   1.499   3.885  0.1938  1.4546 -0.4954
16150SOL    HW249871   3.082   1.592   3.875  1.5208  0.3295  3.1451
16151SOL     OW49872   3.933   5.110   6.640 -0.1660  0.3710 -0.1683
16151SOL    HW149873   3.991   5.082   6.569 -0.4236  2.0733 -1.0903
16151SOL    HW249874   3.992   5.129   6.713  0.4312  1.6519 -0.9568
16152SOL     OW49875   3.915   5.064   6.158 -0.3520 -0.4515 -0.4518
16152SOL    HW149876   3.981   5.058   6.089 -1.2959 -0.4984 -1.3799
16152SOL    HW249877   3.965   5.076   6.239  0.7742 -0.2936 -1.1552
16153SOL     OW49878   0.455   2.531   7.559 -0.1525 -0.0938  0.4894
16153SOL    HW149879   0.524   2.560   7.619  0.6958  0.7524 -0.8337
16153SOL    HW249880   0.458   2.436   7.563 -0.3673 -0.0517  2.0469
16154SOL     OW49881   1.853   6.313   4.826 -0.0641  0.0632  0.2207
16154SOL    HW149882   1.814   6.245   4.770 -1.3900  1.1378 -0.2094
16154SOL    HW249883   1.816   6.297   4.912 -0.2071  0.1085  0.1679
16155SOL     OW49884   5.748   7.825   6.840  0.0797  0.1255 -0.1787
16155SOL    HW149885   5.795   7.895   6.795 -0.1058 -0.2196 -0.9318
16155SOL    HW249886   5.711   7.772   6.769 -1.7416  0.5653  0.3908
16156SOL     OW49887   6.621   8.090   4.489 -0.0857 -0.3191  0.4442
16156SOL    HW149888   6.675   8.022   4.528  0.9407 -0.6502 -1.4251
16156SOL    HW249889   6.546   8.044   4.452 -0.0752 -0.2611  0.3496
16157SOL     OW49890   0.167   4.646   1.631  0.8259 -0.6140 -0.6958
16157SOL    HW149891   0.108   4.605   1.568  0.5718  0.2286 -1.0217
16157SOL    HW249892   0.248   4.662   1.581  0.8404 -0.5007 -0.6365
16158SOL     OW49893   0.174   7.878   6.076  0.5240 -0.7222  0.5930
16158SOL    HW149894   0.176   7.831   5.993 -1.4242  0.2587 -0.0828
16158SOL    HW249895   0.104   7.835   6.127 -1.2626  1.2595 -0.0224
16159SOL     OW49896   7.608   0.885   7.033  0.0090 -0.3409  0.0423
16159SOL    HW149897   7.611   0.917   6.943 -4.1024 -0.5265 -0.3691
16159SOL    HW249898   7.676   0.818   7.037  0.9722  0.3361 -2.6195
16160SOL     OW49899   7.240   6.003   2.549  0.6471 -1.1255  0.0948
16160SOL    HW149900   7.290   5.978   2.471  0.2928 -0.2505 -0.4286
16160SOL    HW249901   7.156   5.958   2.538  0.1786 -0.1288 -0.6175
16161SOL     OW49902   1.143   2.263   2.336  0.7513 -0.2166  0.4460
16161SOL    HW149903   1.187   2.214   2.267  3.3087  0.0629  1.7673
16161SOL    HW249904   1.185   2.349   2.334 -2.6284  1.5851 -0.8575
16162SOL     OW49905   7.516   3.046   8.351  0.1505 -0.1730 -0.4385
16162SOL    HW149906   7.521   3.087   8.264 -1.1847 -0.7176 -0.8011
16162SOL    HW249907   7.466   3.108   8.404 -0.1432 -0.4134 -0.4286
16163SOL     OW49908   7.064   5.833   0.750 -0.1633  0.3158  0.4682
16163SOL    HW149909   7.008   5.908   0.770  0.4451  0.7701  0.4841
16163SOL    HW249910   7.010   5.777   0.694 -0.4571  0.9926  0.0645
16164SOL     OW49911   0.516   1.465   3.561 -0.4114  0.2047 -0.2254
16164SOL    HW149912   0.461   1.402   3.514  0.5901 -0.7674 -0.1450
16164SOL    HW249913   0.543   1.528   3.494  0.0008 -0.4685 -0.7100
16165SOL     OW49914   4.990   0.728   7.061  0.2982  0.0888 -0.3192
16165SOL    HW149915   5.066   0.670   7.072  1.3504  1.8168  2.6941
16165SOL    HW249916   4.921   0.685   7.112 -1.1615 -1.8114 -3.5625
16166SOL     OW49917   2.817   5.431   4.622 -0.4772 -0.4228  0.0772
16166SOL    HW149918   2.785   5.358   4.570 -2.6312 -0.0768  0.8021
16166SOL    HW249919   2.848   5.391   4.703 -0.7031 -0.6406  0.0593
16167SOL     OW49920   8.341   0.707   5.386  0.3099 -0.3758  0.2441
16167SOL    HW149921   8.296   0.643   5.330 -0.3883  0.4884 -0.2068
16167SOL    HW249922   8.275   0.731   5.451  1.2692 -1.7378  1.7874
16168SOL     OW49923   6.263   0.366   6.836 -0.2775 -0.4796 -0.0270
16168SOL    HW149924   6.180   0.339   6.796  0.1879 -0.2628 -1.1952
16168SOL    HW249925   6.328   0.306   6.800  0.1654 -0.2807  0.4222
16169SOL     OW49926   2.964   3.819   5.479  0.3776 -0.0748 -0.0619
16169SOL    HW149927   2.910   3.777   5.412  2.6412 -1.6473 -0.9940
16169SOL    HW249928   2.983   3.749   5.542  0.0749  0.8506  1.0978
16170SOL     OW49929   6.462   4.155   1.412 -0.0709  0.1278  0.0685
16170SOL    HW149930   6.396   4.130   1.348 -0.0440  0.5548 -0.1278
16170SOL    HW249931   6.416   4.153   1.496 -1.0072  2.7054 -0.2850
16171SOL     OW49932   5.391   6.190   8.181  0.1769 -0.2399  0.1290
16171SOL    HW149933   5.402   6.119   8.244  2.2033 -0.7587 -0.7400
16171SOL    HW249934   5.438   6.161   8.103 -0.0667  1.5076 -0.7217
16172SOL     OW49935   4.055   1.522   4.515 -0.2042 -0.3169  0.5774
16172SOL    HW149936   4.093   1.609   4.513 -1.7919  0.3934  0.2195
16172SOL    HW249937   4.062   1.495   4.607 -2.7217  1.6287  1.4605
16173SOL     OW49938   1.105   3.240   5.517 -0.1763  0.4269 -0.2734
16173SOL    HW149939   1.126   3.173   5.582 -2.9790 -0.0605  0.2189
16173SOL    HW249940   1.183   3.296   5.515  0.8859 -0.8575  1.8046
16174SOL     OW49941   6.756   5.239   3.619 -0.3776  0.2937 -0.3275
16174SOL    HW149942   6.667   5.207   3.636 -0.3643 -0.1372 -1.0123
16174SOL    HW249943   6.782   5.283   3.699 -0.1246 -2.0651  0.9752
16175SOL     OW49944   1.913   6.462   2.845  0.3520 -0.5900 -0.0479
16175SOL    HW149945   1.913   6.449   2.939  1.2323 -0.5111 -0.0280
16175SOL    HW249946   1.830   6.425   2.815  0.6423 -1.8006  0.6023
16176SOL     OW49947   6.311   5.365   7.082 -0.4340  0.5037  0.2044
16176SOL    HW149948   6.219   5.391   7.090 -0.9436 -0.8414 -0.8991
16176SOL    HW249949   6.309   5.269   7.084  0.7576  0.3972 -1.4282
16177SOL     OW49950   0.138   1.960   1.014  0.2780  0.4825 -0.0281
16177SOL    HW149951   0.048   1.938   0.992  0.2796  0.1000  0.3322
16177SOL    HW249952   0.150   2.049   0.981 -0.6837  1.0898  1.1979
16178SOL     OW49953   1.345   3.082   3.134  0.1191  0.2263 -0.0684
16178SOL    HW149954   1.255   3.115   3.125  0.2782  0.5681 -0.4348
16178SOL    HW249955   1.336   3.001   3.185 -0.6765 -0.9914 -2.0221
16179SOL     OW49956   3.885   2.122   6.721  0.6099 -0.0844  0.1285
16179SOL    HW149957   3.934   2.058   6.772  0.5470  0.1147  0.4368
16179SOL    HW249958   3.892   2.090   6.631  0.4775 -0.5903  0.2946
16180SOL     OW49959   7.155   3.392   5.540  0.5223  0.1776 -0.4221
16180SOL    HW149960   7.119   3.309   5.510  1.6836 -0.6898  0.5233
16180SOL    HW249961   7.167   3.443   5.459  0.2906 -0.7610 -1.0626
16181SOL     OW49962   2.292   6.309   2.701 -0.2098  0.2445  0.0468
16181SOL    HW149963   2.373   6.260   2.685 -0.3851  0.1524 -0.5508
16181SOL    HW249964   2.246   6.309   2.617 -0.7217  0.5026  0.3224
16182SOL     OW49965   3.109   3.364   6.204 -0.6448 -0.1614 -0.2466
16182SOL    HW149966   3.135   3.273   6.192  0.1268  0.0051  0.0741
16182SOL    HW249967   3.021   3.359   6.241 -1.6906 -0.7195 -2.6252
16183SOL     OW49968   6.906   1.219   1.206 -0.2783 -0.1521 -0.2071
16183SOL    HW149969   6.945   1.297   1.246 -0.9839 -0.1774  0.5526
16183SOL    HW249970   6.946   1.146   1.251 -1.1347 -0.1792  0.5498
16184SOL     OW49971   4.659   4.454   7.638  0.1577 -0.4734 -0.1352
16184SOL    HW149972   4.629   4.375   7.682  1.7765 -1.5102 -0.7982
16184SOL    HW249973   4.629   4.445   7.548  0.7414 -0.5726 -0.3241
16185SOL     OW49974   1.628   8.116   0.371 -0.2515 -0.0540  0.1288
16185SOL    HW149975   1.684   8.188   0.400 -0.8292 -0.3074  2.0705
16185SOL    HW249976   1.689   8.044   0.353  0.1694  0.1526  0.6862
16186SOL     OW49977   3.640   6.637   5.777  0.1102 -0.0296 -0.7856
16186SOL    HW149978   3.720   6.608   5.731 -0.2366 -0.1561 -1.3251
16186SOL    HW249979   3.670   6.661   5.864  0.8398  0.4597 -1.1524
16187SOL     OW49980   0.943   6.733   0.408 -0.0738 -0.1031  0.3850
16187SOL    HW149981   1.005   6.662   0.392 -0.3945 -0.3676  0.2909
16187SOL    HW249982   0.990   6.812   0.384  0.2189 -0.3051  0.2880
16188SOL     OW49983   4.442   5.118   2.599  0.0332  0.2456  0.5479
16188SOL    HW149984   4.536   5.103   2.589 -0.3739 -1.3373 -1.8041
16188SOL    HW249985   4.433   5.158   2.685  3.1417  3.2536 -0.3015
16189SOL     OW49986   2.235   7.409   1.210 -0.0768  0.4053 -0.0832
16189SOL    HW149987   2.304   7.354   1.248 -1.7420 -0.6440  1.5250
16189SOL    HW249988   2.206   7.465   1.282 -1.3327  0.4008 -0.5629
16190SOL     OW49989   0.810   5.242   4.177 -0.0900 -0.0324  0.6191
16190SOL    HW149990   0.790   5.332   4.151  0.1817 -0.0308  0.4129
16190SOL    HW249991   0.900   5.227   4.146 -1.0855 -1.3470 -1.9732
16191SOL     OW49992   4.792   4.129   8.267 -0.2168 -0.4801  0.2550
16191SOL    HW149993   4.724   4.174   8.317 -0.8668 -2.6473  1.4485
16191SOL    HW249994   4.749   4.104   8.185 -0.0408  0.4510 -0.1342
16192SOL     OW49995   4.961   6.274   6.739 -0.0810  0.2005 -0.3487
16192SOL    HW149996   5.019   6.199   6.728  0.8811  0.8074  0.4155
16192SOL    HW249997   4.882   6.237   6.779  0.8023 -0.2758  1.0438
16193SOL     OW49998   2.104   6.311   0.377  0.9736  0.7921  0.0444
16193SOL    HW149999   2.015   6.320   0.342  0.3808  0.9110  1.5041
16193SOL    HW250000   2.144   6.397   0.364  0.0159  1.5145  1.5610
16194SOL     OW50001   3.948   4.203   2.688 -0.1576 -0.4413  0.1027
16194SOL    HW150002   3.886   4.247   2.746 -0.4519  0.2033 -0.6767
16194SOL    HW250003   4.030   4.253   2.699 -0.8593  1.2893 -1.8385
16195SOL     OW50004   8.024   2.883   4.115  0.6529 -0.0870  0.3120
16195SOL    HW150005   8.040   2.970   4.078 -0.5603 -0.5907 -1.5727
16195SOL    HW250006   8.045   2.822   4.044 -0.3931 -1.2019  0.9143
16196SOL     OW50007   2.259   4.622   3.065  0.2144 -0.2231 -0.2858
16196SOL    HW150008   2.295   4.643   2.979  0.3848 -0.6782 -0.3277
16196SOL    HW250009   2.322   4.561   3.103 -0.2790 -0.6649 -0.1711
16197SOL     OW50010   5.299   8.047   6.998 -0.6157  0.0808  0.5447
16197SOL    HW150011   5.390   8.019   7.003  0.2589  2.7407  1.0555
16197SOL    HW250012   5.249   7.967   7.008  1.6509 -1.3137  1.5107
16198SOL     OW50013   0.369   0.617   8.149 -0.2905  0.3358  0.0402
16198SOL    HW150014   0.445   0.559   8.155 -0.4115  0.3101  1.6122
16198SOL    HW250015   0.389   0.689   8.209 -1.0560  0.8758 -0.3383
16199SOL     OW50016   3.807   3.128   1.239  0.5440  0.5577 -0.0084
16199SOL    HW150017   3.725   3.177   1.238  0.9417  1.2374 -0.7898
16199SOL    HW250018   3.785   3.043   1.201  0.5064  1.2862 -1.6879
16200SOL     OW50019   1.314   1.185   5.041  0.0768  0.3243  0.0537
16200SOL    HW150020   1.235   1.170   4.988 -0.3101  0.3321  0.6167
16200SOL    HW250021   1.386   1.178   4.979 -0.4338  1.4583 -0.6943
16201SOL     OW50022   2.682   8.110   8.263 -0.2565  0.0384  0.2318
16201SOL    HW150023   2.709   8.139   8.350  1.1347  0.4611 -0.2960
16201SOL    HW250024   2.745   8.153   8.204  1.2034 -3.0894 -0.7008
16202SOL     OW50025   0.171   1.470   1.860  0.8348  0.4780 -0.4933
16202SOL    HW150026   0.237   1.438   1.921  0.2113 -0.3744 -0.2328
16202SOL    HW250027   0.204   1.446   1.774  0.0725 -1.6385 -0.2843
16203SOL     OW50028   5.768   5.204   7.985  0.5882 -0.2148 -0.2567
16203SOL    HW150029   5.781   5.153   8.065  0.9321  0.8493  0.3820
16203SOL    HW250030   5.856   5.232   7.958  0.4730 -0.5148 -0.9834
16204SOL     OW50031   3.600   7.530   3.543 -0.4266 -0.0623  0.2021
16204SOL    HW150032   3.694   7.541   3.554 -0.2926  1.2736 -1.8339
16204SOL    HW250033   3.562   7.597   3.600 -0.3263 -1.9651  2.7088
16205SOL     OW50034   7.522   7.449   5.753  0.0031 -0.2973 -0.0721
16205SOL    HW150035   7.515   7.361   5.790 -2.4374 -0.0573  0.2587
16205SOL    HW250036   7.560   7.502   5.823  1.3588 -1.0226 -0.2272
16206SOL     OW50037   2.571   7.406   1.738  0.2364  0.4634 -0.5904
16206SOL    HW150038   2.560   7.311   1.727  0.0823  0.5340 -1.0533
16206SOL    HW250039   2.500   7.432   1.796 -0.4029  0.4739 -1.3626
16207SOL     OW50040   4.506   3.742   7.054 -0.9002 -0.8275  0.2613
16207SOL    HW150041   4.518   3.677   7.124 -0.1864 -1.2656 -0.2568
16207SOL    HW250042   4.500   3.825   7.101  1.0985 -0.9264  0.8022
16208SOL     OW50043   0.860   7.349   7.814 -0.0687 -0.2500  0.4797
16208SOL    HW150044   0.803   7.425   7.822  0.7066  0.6207 -1.5147
16208SOL    HW250045   0.830   7.305   7.734  1.2975 -0.3790  0.0091
16209SOL     OW50046   4.664   7.890   5.881 -0.2277  0.0527 -0.3381
16209SOL    HW150047   4.645   7.979   5.851  0.9099  0.7334  0.8268
16209SOL    HW250048   4.758   7.878   5.863  0.5163  0.4779  2.6710
16210SOL     OW50049   7.712   5.058   5.549 -0.2830 -0.2052  0.0780
16210SOL    HW150050   7.651   5.087   5.617 -0.5608  0.9868 -0.6480
16210SOL    HW250051   7.674   4.978   5.515  0.2302 -1.2368  1.7875
16211SOL     OW50052   8.244   7.778   1.919 -0.5082 -0.5719  0.0352
16211SOL    HW150053   8.284   7.865   1.925 -0.9677 -0.2271 -1.4176
16211SOL    HW250054   8.311   7.724   1.879 -0.3535 -0.7909  0.5955
16212SOL     OW50055   2.255   6.370   0.899 -0.0424 -0.1588  0.1878
16212SOL    HW150056   2.162   6.391   0.911 -0.4673 -1.8763  0.1694
16212SOL    HW250057   2.279   6.413   0.817 -0.1994  2.0988  1.2378
16213SOL     OW50058   8.141   2.635   5.692  0.3394  0.2698 -0.4648
16213SOL    HW150059   8.214   2.658   5.634  0.9212 -0.4050 -0.0225
16213SOL    HW250060   8.176   2.649   5.780  0.4026 -1.3784 -0.2062
16214SOL     OW50061   4.585   3.905   1.758  0.5506  0.3765 -0.1021
16214SOL    HW150062   4.620   3.959   1.829 -1.0823  0.8216  0.4046
16214SOL    HW250063   4.548   3.829   1.802  2.4420 -1.0231 -0.7792
16215SOL     OW50064   6.997   4.247   1.498 -0.0403 -0.3552 -0.9141
16215SOL    HW150065   7.028   4.171   1.546 -0.6846 -0.7540 -1.1194
16215SOL    HW250066   6.902   4.245   1.507 -0.0211  1.0453  0.0205
16216SOL     OW50067   7.771   2.818   6.513  0.0462  0.2344 -0.4474
16216SOL    HW150068   7.823   2.776   6.445 -0.4490 -0.5999 -0.3231
16216SOL    HW250069   7.732   2.745   6.562 -2.1424  0.8175 -1.2243
16217SOL     OW50070   2.439   6.923   3.916 -0.2069  0.1428  0.4169
16217SOL    HW150071   2.416   6.950   3.828 -0.7178  0.3528  0.6118
16217SOL    HW250072   2.505   6.986   3.945 -0.8283  0.7278  0.5833
16218SOL     OW50073   5.676   3.762   3.150  0.6306  0.2431  0.0707
16218SOL    HW150074   5.672   3.711   3.068 -1.6494 -2.3055  1.5970
16218SOL    HW250075   5.737   3.713   3.205  0.8432  0.9899  0.5123
16219SOL     OW50076   0.416   3.821   1.443  0.6832 -0.4047  0.0605
16219SOL    HW150077   0.383   3.894   1.494 -0.2251 -1.0743  0.4783
16219SOL    HW250078   0.347   3.805   1.378  0.1044 -1.8786  0.9852
16220SOL     OW50079   4.635   0.055   2.378 -0.7095 -0.5750  0.1396
16220SOL    HW150080   4.622   0.087   2.467 -0.0084  1.7231 -0.5139
16220SOL    HW250081   4.588   0.118   2.323  1.8500  0.1603 -1.3297
16221SOL     OW50082   1.588   7.961   0.905 -0.2983  0.4091  0.1793
16221SOL    HW150083   1.620   8.023   0.840  2.5311 -0.1544  0.9126
16221SOL    HW250084   1.493   7.975   0.907  0.0834  3.9884 -0.3958
16222SOL     OW50085   2.176   4.823   4.571 -0.5715  0.3411  0.4717
16222SOL    HW150086   2.114   4.843   4.501  0.7926  3.0868 -0.1116
16222SOL    HW250087   2.202   4.732   4.555 -2.1536  0.0970 -1.0495
16223SOL     OW50088   8.041   0.480   7.045  0.1085 -0.4460  0.5094
16223SOL    HW150089   8.128   0.471   7.007 -0.3179  1.2103 -1.0046
16223SOL    HW250090   8.041   0.566   7.087 -0.3532 -1.0542  1.8162
16224SOL     OW50091   3.491   6.060   0.874 -0.2648 -0.1867  0.7981
16224SOL    HW150092   3.399   6.075   0.898 -0.3247  2.2954 -0.7081
16224SOL    HW250093   3.490   6.055   0.778  1.1893 -0.1744  0.7687
16225SOL     OW50094   2.915   0.275   1.155  0.0185 -0.4233 -0.2900
16225SOL    HW150095   2.879   0.353   1.198  0.0988  0.1396 -1.2269
16225SOL    HW250096   2.839   0.221   1.135  0.0776 -1.4175  1.8821
16226SOL     OW50097   4.657   0.043   1.779  0.0686 -0.0886  0.4254
16226SOL    HW150098   4.738   0.090   1.757 -0.4458  0.9230  0.6214
16226SOL    HW250099   4.682  -0.049   1.780  1.2601  0.2190  0.6388
16227SOL     OW50100   4.992   4.470   8.136 -0.1880  0.2704  0.1796
16227SOL    HW150101   5.014   4.384   8.100 -0.2351 -0.2893  1.4387
16227SOL    HW250102   4.924   4.453   8.201  0.3646  1.1504  1.0226
16228SOL     OW50103   5.888   0.525   5.760  0.3383  0.2444  0.4396
16228SOL    HW150104   5.836   0.591   5.805 -0.1063  0.5259 -0.4646
16228SOL    HW250105   5.950   0.494   5.826 -0.7584  0.1302  1.4518
16229SOL     OW50106   4.198   2.834   4.724 -0.4544 -0.4532 -0.6212
16229SOL    HW150107   4.160   2.902   4.779  0.2596 -0.5569  0.0244
16229SOL    HW250108   4.205   2.758   4.781 -0.6236 -0.8654 -1.1438
16230SOL     OW50109   5.035   7.275   7.994 -0.0832  0.1901 -0.3404
16230SOL    HW150110   5.124   7.263   8.027  0.1574 -0.7966 -1.3079
16230SOL    HW250111   5.043   7.267   7.899 -1.0940  0.8717 -0.5010
16231SOL     OW50112   5.466   3.771   3.868  0.4595 -0.4831 -0.3876
16231SOL    HW150113   5.401   3.744   3.933  0.1631  0.5570 -0.2337
16231SOL    HW250114   5.516   3.691   3.850  0.3339 -0.8766  0.8616
16232SOL     OW50115   4.327   4.108   7.123 -0.0961  0.1259  0.3838
16232SOL    HW150116   4.408   4.071   7.159  0.1379 -0.2134 -0.4677
16232SOL    HW250117   4.346   4.201   7.112  1.0264 -0.3071 -1.9641
16233SOL     OW50118   7.882   3.961   2.566  0.2166 -0.3551 -0.0504
16233SOL    HW150119   7.849   3.921   2.486  0.4586 -0.5891 -0.0354
16233SOL    HW250120   7.977   3.949   2.561  0.2211 -0.4881  0.3332
16234SOL     OW50121   5.765   7.038   7.171 -0.3044 -0.6540 -0.4838
16234SOL    HW150122   5.674   7.037   7.201 -0.2396  3.1734  0.2462
16234SOL    HW250123   5.799   6.953   7.197 -2.1708 -0.2470  4.2728
16235SOL     OW50124   3.888   4.706   1.216 -0.2809  0.3224 -0.0814
16235SOL    HW150125   3.911   4.658   1.137  0.6716 -1.7181  1.3312
16235SOL    HW250126   3.966   4.757   1.238  0.0357 -0.3293  0.3512
16236SOL     OW50127   0.377   0.028   7.324 -0.5338 -0.0284 -0.1462
16236SOL    HW150128   0.308   0.008   7.261  1.2241 -0.1599 -2.1183
16236SOL    HW250129   0.395   0.121   7.312  0.2451 -0.1903 -0.2984
16237SOL     OW50130   2.524   3.954   1.047 -0.1039  0.1901  0.1292
16237SOL    HW150131   2.472   3.902   1.108  0.8118 -1.5832 -0.5399
16237SOL    HW250132   2.612   3.918   1.054  0.5432  1.5599 -0.4974
16238SOL     OW50133   8.321   6.146   4.079 -0.0871  0.6596  0.1535
16238SOL    HW150134   8.226   6.135   4.085 -0.0877  1.2058  1.4565
16238SOL    HW250135   8.339   6.227   4.127  0.9868  0.8288 -0.5032
16239SOL     OW50136   3.101   3.699   5.087  0.0138  0.0045 -0.6415
16239SOL    HW150137   3.054   3.715   5.005 -1.3789  2.0788  0.4611
16239SOL    HW250138   3.162   3.773   5.094 -0.9569  0.7082  0.8692
16240SOL     OW50139   2.320   1.847   5.856  0.5781  0.1978  0.4025
16240SOL    HW150140   2.235   1.820   5.822  1.2248 -2.4814  0.7372
16240SOL    HW250141   2.375   1.856   5.778  0.1521  1.4883  0.2236
16241SOL     OW50142   0.441   0.005   5.264  0.6510  0.1793 -0.1997
16241SOL    HW150143   0.387   0.045   5.332 -0.9078 -1.6595 -0.2526
16241SOL    HW250144   0.391   0.018   5.183  0.4187 -1.2288 -0.3128
16242SOL     OW50145   4.220   5.065   4.823  0.0351 -0.4272  0.1256
16242SOL    HW150146   4.184   5.113   4.898 -0.1721 -1.1051  0.4664
16242SOL    HW250147   4.145   5.048   4.767 -0.3472 -2.3730  1.1253
16243SOL     OW50148   0.583   6.084   7.671  0.0967 -0.2972 -0.2059
16243SOL    HW150149   0.511   6.074   7.609  0.8041  0.1603 -1.1190
16243SOL    HW250150   0.649   6.133   7.623  0.8527 -0.3516  0.7613
16244SOL     OW50151   4.450   5.755   3.259  0.0674 -0.0187  0.0962
16244SOL    HW150152   4.441   5.684   3.195  0.3469  1.5940 -1.8338
16244SOL    HW250153   4.458   5.834   3.206 -3.6357  1.9834  2.1403
16245SOL     OW50154   7.188   5.913   3.673 -0.0470 -0.0487 -0.5231
16245SOL    HW150155   7.250   5.951   3.610  0.6377  0.8975  0.6788
16245SOL    HW250156   7.145   5.989   3.713  0.4926 -0.5617  1.0895
16246SOL     OW50157   5.252   6.239   7.806 -0.0899 -0.2824 -0.2374
16246SOL    HW150158   5.315   6.185   7.854 -0.0295  0.6218  0.7365
16246SOL    HW250159   5.203   6.284   7.874  0.1896  1.2631 -1.0260
16247SOL     OW50160   7.583   1.526   3.639  0.4487  0.5508  0.3808
16247SOL    HW150161   7.618   1.615   3.640  1.9410  0.0776 -2.1156
16247SOL    HW250162   7.496   1.534   3.678  0.3981  3.1879 -0.1126
16248SOL     OW50163   3.124   1.954   5.008  0.5308 -0.4640 -0.1043
16248SOL    HW150164   3.126   1.924   4.917  1.6464 -0.5854 -0.0596
16248SOL    HW250165   3.216   1.966   5.030  0.1884  1.6460  0.3398
16249SOL     OW50166   6.907   6.727   0.100 -0.5201 -0.3115  0.2060
16249SOL    HW150167   6.956   6.665   0.154 -1.4632 -0.5911  0.7705
16249SOL    HW250168   6.920   6.812   0.143 -0.7632 -0.4337  0.5260
16250SOL     OW50169   3.560   2.634   3.537 -0.0068  0.1120  0.0222
16250SOL    HW150170   3.486   2.576   3.554  0.8657 -1.0637 -0.0862
16250SOL    HW250171   3.636   2.576   3.534  0.9304  1.2905  0.1403
16251SOL     OW50172   7.512   2.868   0.761  0.1986  0.2274 -0.2820
16251SOL    HW150173   7.527   2.959   0.737  1.1925  0.5251  1.3178
16251SOL    HW250174   7.421   2.866   0.791  0.5613  1.0101  0.9252
16252SOL     OW50175   1.495   5.619   7.181 -0.4470  0.1207 -0.0402
16252SOL    HW150176   1.579   5.574   7.190  0.5532  2.0065  0.5300
16252SOL    HW250177   1.444   5.590   7.257 -0.8092 -1.9078 -0.9838
16253SOL     OW50178   8.304   1.234   6.701  0.1150  0.1621 -0.1665
16253SOL    HW150179   8.376   1.175   6.682  0.6394  0.4630  0.8135
16253SOL    HW250180   8.227   1.193   6.660  0.0617 -2.2188  2.0632
16254SOL     OW50181   7.151   4.355   4.715  0.2116 -0.1271 -0.4685
16254SOL    HW150182   7.117   4.433   4.672  0.4655 -0.4396 -1.2566
16254SOL    HW250183   7.206   4.388   4.786  1.5414  0.4690 -1.7180
16255SOL     OW50184   6.592   5.224   7.187 -0.9566 -0.0693 -0.2699
16255SOL    HW150185   6.629   5.180   7.263 -0.5728  0.7392  0.0250
16255SOL    HW250186   6.528   5.286   7.224 -2.1340 -0.9688 -0.7299
16256SOL     OW50187   0.259   1.996   8.146  0.0298 -0.4243 -0.0913
16256SOL    HW150188   0.190   1.932   8.129 -0.5553  0.1418  0.0894
16256SOL    HW250189   0.263   2.003   8.242  0.2294 -0.3434 -0.1049
16257SOL     OW50190   3.935   3.513   5.154  0.2661  0.1194  0.1584
16257SOL    HW150191   3.927   3.602   5.120 -0.1658 -0.1002 -0.3168
16257SOL    HW250192   3.905   3.457   5.083  0.5388 -0.4090  0.4542
16258SOL     OW50193   6.041   7.776   3.015 -0.0211  0.4380  0.0541
16258SOL    HW150194   6.004   7.792   3.101 -1.3525  0.3200 -0.4790
16258SOL    HW250195   6.134   7.796   3.025 -0.1025  0.1448  1.5785
16259SOL     OW50196   1.897   0.948   5.254 -0.5857 -0.1898  0.1664
16259SOL    HW150197   1.873   0.880   5.317  0.1659 -0.3133  0.3295
16259SOL    HW250198   1.850   1.026   5.284 -1.9154 -0.7715 -0.3637
16260SOL     OW50199   2.550   6.092   7.483  0.5455  0.2137 -0.5377
16260SOL    HW150200   2.494   6.059   7.413  0.6807  1.1945 -1.1323
16260SOL    HW250201   2.596   6.015   7.515 -1.7737 -0.7817  0.5887
16261SOL     OW50202   5.648   1.540   7.496 -0.0294 -0.1656 -0.7099
16261SOL    HW150203   5.575   1.497   7.452 -0.7971 -0.1283  0.4949
16261SOL    HW250204   5.703   1.469   7.527 -1.8650 -0.4405  2.2565
16262SOL     OW50205   2.102   5.826   4.059  0.4878  0.2433 -0.5259
16262SOL    HW150206   2.057   5.898   4.104  1.5470  0.0767  0.8773
16262SOL    HW250207   2.159   5.869   3.996  1.0237  0.6533  0.2200
16263SOL     OW50208   5.310   3.939   7.675  0.1599 -0.0281 -0.2088
16263SOL    HW150209   5.282   4.028   7.657  1.2114  0.6158  1.1741
16263SOL    HW250210   5.232   3.885   7.661 -0.6796  1.1942 -0.3152
16264SOL     OW50211   2.709   1.163   6.200 -0.0153  0.0835  0.2336
16264SOL    HW150212   2.766   1.238   6.220 -1.8230  1.6965 -0.2715
16264SOL    HW250213   2.672   1.185   6.114 -0.1523 -1.7021 -0.1849
16265SOL     OW50214   6.538   5.816   5.680 -0.2510  0.2702  0.0902
16265SOL    HW150215   6.533   5.906   5.650 -0.5215  0.1888 -0.1173
16265SOL    HW250216   6.511   5.764   5.604  0.1459  0.0001  0.1264
16266SOL     OW50217   3.904   8.005   0.936  0.2815  0.6955 -0.3994
16266SOL    HW150218   3.826   8.025   0.884 -0.4860 -0.2701  0.3132
16266SOL    HW250219   3.964   8.077   0.919 -0.4442  1.0438 -1.6113
16267SOL     OW50220   6.896   6.633   8.097 -0.2653  0.3283  0.0487
16267SOL    HW150221   6.833   6.645   8.026  0.8220  0.6982 -0.8904
16267SOL    HW250222   6.842   6.617   8.174 -1.4977  0.4172 -0.7556
16268SOL     OW50223   4.953   8.000   2.633  0.0942  0.1158 -0.0720
16268SOL    HW150224   4.990   8.037   2.553  1.0275  0.4336  0.4972
16268SOL    HW250225   4.945   8.075   2.692 -1.5001  0.0674 -0.1791
16269SOL     OW50226   1.078   5.662   3.312  0.4371 -0.3823 -0.4394
16269SOL    HW150227   1.108   5.752   3.323  1.3644 -0.7913  0.4902
16269SOL    HW250228   0.984   5.670   3.297  0.3615  0.6901  0.5089
16270SOL     OW50229   2.187   0.934   8.091 -0.0149  0.1279  0.3414
16270SOL    HW150230   2.259   0.984   8.129 -0.7082 -0.0825  1.9809
16270SOL    HW250231   2.228   0.852   8.062  0.8255  0.9618 -0.9282
16271SOL     OW50232   7.291   7.641   4.389  0.0005  0.1789 -0.4175
16271SOL    HW150233   7.312   7.611   4.301 -0.8518  0.6523 -0.7997
16271SOL    HW250234   7.329   7.729   4.394 -0.0047  0.1762 -0.3369
16272SOL     OW50235   3.809   6.618   5.546  0.4288 -0.1824  0.0597
16272SOL    HW150236   3.780   6.649   5.460  2.2656  1.3256 -0.0911
16272SOL    HW250237   3.904   6.629   5.544  0.7730 -2.3942  1.4424
16273SOL     OW50238   1.580   2.404   1.491  0.5300 -0.4323 -0.1618
16273SOL    HW150239   1.515   2.334   1.495  0.1522 -0.1768 -1.3827
16273SOL    HW250240   1.555   2.456   1.414  0.4497  1.3915  1.0403
16274SOL     OW50241   5.349   4.617   1.828  0.0782 -0.3449  0.2294
16274SOL    HW150242   5.332   4.700   1.784  2.0791  0.0558  0.0792
16274SOL    HW250243   5.295   4.553   1.782 -1.7425  0.8882  0.5605
16275SOL     OW50244   5.274   0.154   6.650 -0.0561  0.5106 -0.4498
16275SOL    HW150245   5.324   0.117   6.577  1.0783 -2.0233  1.4475
16275SOL    HW250246   5.234   0.233   6.615  1.0826 -0.1698 -3.5548
16276SOL     OW50247   2.674   5.051   3.179  0.2627 -0.3192 -0.1735
16276SOL    HW150248   2.753   5.053   3.233  0.5718 -2.7598 -0.4193
16276SOL    HW250249   2.607   5.012   3.236 -0.0934 -0.5366 -0.7344
16277SOL     OW50250   0.790   1.482   7.901 -0.2543  0.2756  0.0117
16277SOL    HW150251   0.861   1.538   7.931 -0.2623 -0.7068  1.9857
16277SOL    HW250252   0.751   1.447   7.981 -1.8827 -0.5519 -1.0807
16278SOL     OW50253   1.072   0.421   4.949 -0.3140  0.2307 -0.0380
16278SOL    HW150254   1.127   0.343   4.939 -0.3155  0.2608 -0.2797
16278SOL    HW250255   0.985   0.392   4.923 -0.0556  0.6636 -1.4564
16279SOL     OW50256   4.993   5.745   6.064 -0.4291 -0.1474  0.0855
16279SOL    HW150257   4.962   5.784   6.146 -0.2563  0.8207 -0.2961
16279SOL    HW250258   4.978   5.813   5.998  1.0564 -0.2381 -0.3871
16280SOL     OW50259   3.607   2.939   5.428  0.0638 -0.0953  0.7471
16280SOL    HW150260   3.635   2.856   5.466  1.0945 -0.6197 -1.0482
16280SOL    HW250261   3.663   3.004   5.469 -0.1233 -0.3901  1.4905
16281SOL     OW50262   5.586   5.955   5.521  0.4716 -0.3943  0.7222
16281SOL    HW150263   5.552   6.045   5.514  1.5779 -0.1095 -2.0468
16281SOL    HW250264   5.539   5.906   5.454  2.7108 -0.8592 -0.6228
16282SOL     OW50265   0.168   5.394   0.966  0.4351  0.3214  0.2476
16282SOL    HW150266   0.232   5.392   0.895  1.9544 -1.0001  1.5726
16282SOL    HW250267   0.085   5.371   0.924  0.4705  3.2628 -1.7419
16283SOL     OW50268   2.357   6.999   0.837 -0.0999 -0.1926 -0.0685
16283SOL    HW150269   2.292   7.036   0.778  0.0246  1.8721  0.9955
16283SOL    HW250270   2.309   6.983   0.918  0.2825 -0.6428  0.0748
16284SOL     OW50271   0.969   0.661   6.462  0.1810 -0.1365 -0.2202
16284SOL    HW150272   0.940   0.751   6.446  0.8155  0.1194  0.0557
16284SOL    HW250273   1.064   0.665   6.460  0.2098 -0.8717 -0.5430
16285SOL     OW50274   1.822   4.983   2.282 -0.0423  0.5095 -0.8403
16285SOL    HW150275   1.908   4.954   2.312 -0.1216  0.1894 -0.9136
16285SOL    HW250276   1.790   5.041   2.352 -0.1526 -0.0897 -0.3807
16286SOL     OW50277   6.277   2.644   0.481  0.1746 -1.0188  0.5834
16286SOL    HW150278   6.359   2.608   0.447 -1.0982 -2.4772 -1.1326
16286SOL    HW250279   6.213   2.628   0.412 -1.1914  1.8385  1.0175
16287SOL     OW50280   0.387   5.286   7.778 -0.0007  0.3917 -0.3072
16287SOL    HW150281   0.368   5.299   7.685  1.0178  0.6596 -0.4825
16287SOL    HW250282   0.319   5.225   7.807  0.5574 -0.9321 -1.6041
16288SOL     OW50283   1.340   7.601   0.878 -0.2079 -0.1416  0.4166
16288SOL    HW150284   1.291   7.543   0.819  1.1956  1.4000 -2.4560
16288SOL    HW250285   1.421   7.554   0.896  0.3983  0.3285 -0.9216
16289SOL     OW50286   2.743   2.028   6.028 -0.2895 -0.2144 -0.6515
16289SOL    HW150287   2.698   2.109   6.001  3.2833  2.6110  1.0727
16289SOL    HW250288   2.807   2.012   5.959  0.9005  0.1211  0.3453
16290SOL     OW50289   4.179   6.906   5.140  0.6133  0.5082  0.5170
16290SOL    HW150290   4.232   6.835   5.177  1.0899  0.4147 -0.3280
16290SOL    HW250291   4.134   6.944   5.215  2.1531  0.8281  1.3008
16291SOL     OW50292   3.560   7.664   0.311 -0.6137 -0.5241 -0.0556
16291SOL    HW150293   3.501   7.699   0.244  0.5539  1.4711 -0.1048
16291SOL    HW250294   3.558   7.730   0.381  0.7528 -0.9405  0.3945
16292SOL     OW50295   8.264   2.990   6.663 -0.4318 -1.0841  0.1363
16292SOL    HW150296   8.345   2.940   6.654 -0.3488 -1.4253  2.2623
16292SOL    HW250297   8.210   2.937   6.722 -1.1785  0.3337  0.7626
16293SOL     OW50298   0.921   2.111   0.546 -0.1783 -0.1607 -0.4275
16293SOL    HW150299   0.975   2.065   0.610 -1.6158  0.9296  1.6730
16293SOL    HW250300   0.883   2.042   0.492  1.6636 -1.0612 -0.6617
16294SOL     OW50301   5.926   4.781   8.279  0.8157  0.4847 -0.0460
16294SOL    HW150302   5.953   4.831   8.356 -1.6311  1.2202  0.4363
16294SOL    HW250303   5.964   4.694   8.293  0.2426  0.5146  2.1725
16295SOL     OW50304   8.319   6.525   2.232  0.0760  0.3110 -0.2779
16295SOL    HW150305   8.257   6.597   2.241 -0.4035 -0.0962 -0.3392
16295SOL    HW250306   8.322   6.485   2.319 -1.0982 -0.7739 -0.7130
16296SOL     OW50307   6.780   5.356   5.604 -0.5863  0.3037 -0.1532
16296SOL    HW150308   6.848   5.422   5.598 -1.3490  1.3562  1.8206
16296SOL    HW250309   6.804   5.303   5.680  0.0848 -1.8625 -1.7534
16297SOL     OW50310   1.775   1.308   0.573  0.0770  0.1252  0.6616
16297SOL    HW150311   1.718   1.295   0.497  0.0419  0.7874  0.5701
16297SOL    HW250312   1.714   1.325   0.645  0.0753 -1.1249  0.9910
16298SOL     OW50313   4.606   7.395   5.587 -0.2607  0.9836  0.0318
16298SOL    HW150314   4.692   7.404   5.544 -0.3446  0.0569 -0.3674
16298SOL    HW250315   4.562   7.326   5.537 -1.3682  1.6585  0.0409
16299SOL     OW50316   7.367   6.055   7.719 -0.1001  0.1085 -0.0671
16299SOL    HW150317   7.296   6.118   7.735 -1.8109 -0.7996 -3.1686
16299SOL    HW250318   7.326   5.970   7.732  1.4967 -0.4718  1.5490
16300SOL     OW50319   8.293   5.551   6.233  0.3132  0.2094  0.2521
16300SOL    HW150320   8.256   5.598   6.307  1.5235  1.5109  0.0660
16300SOL    HW250321   8.303   5.461   6.265  0.2779  0.6154  1.4673
16301SOL     OW50322   5.034   7.047   1.566 -0.0267 -0.4813 -0.1063
16301SOL    HW150323   4.968   7.092   1.514  0.4509 -0.5375 -0.7678
16301SOL    HW250324   5.030   7.090   1.652 -1.4006 -0.9441  0.0906
16302SOL     OW50325   6.717   3.896   5.108 -1.0297  0.1731 -0.0663
16302SOL    HW150326   6.696   3.803   5.109 -0.9965  0.0343 -3.0314
16302SOL    HW250327   6.641   3.937   5.067 -0.3018  1.2040 -0.4101
16303SOL     OW50328   1.415   7.082   3.492  0.3877 -0.0614  0.3354
16303SOL    HW150329   1.477   7.107   3.424  1.2948  0.9986  1.5093
16303SOL    HW250330   1.442   7.132   3.569 -1.3208 -0.3420  1.1627
16304SOL     OW50331   5.166   5.212   5.035  0.6182 -0.1144 -0.3999
16304SOL    HW150332   5.074   5.240   5.033  0.6657  0.0855  0.0481
16304SOL    HW250333   5.214   5.291   5.061  0.9032 -0.2592 -0.4840
16305SOL     OW50334   7.759   6.834   5.436  0.5275 -0.1988  0.5132
16305SOL    HW150335   7.837   6.794   5.398  1.4767  1.4818  0.5727
16305SOL    HW250336   7.692   6.823   5.369  2.2544  3.0047 -2.0652
16306SOL     OW50337   2.510   4.631   1.805 -0.0148  0.2491 -0.8135
16306SOL    HW150338   2.430   4.637   1.856  0.2490  0.5252 -0.4287
16306SOL    HW250339   2.519   4.718   1.765  0.5797  0.5123 -0.1182
16307SOL     OW50340   5.676   5.674   7.141  0.1249  0.8347  0.1140
16307SOL    HW150341   5.711   5.763   7.131  0.1940  0.7092 -0.8131
16307SOL    HW250342   5.594   5.675   7.092  0.6739  0.0737 -0.8500
16308SOL     OW50343   4.701   2.971   5.557  0.0432 -0.4452  0.3325
16308SOL    HW150344   4.648   3.023   5.497 -1.6419 -2.8012 -0.3970
16308SOL    HW250345   4.728   3.032   5.625 -0.7224  1.6102 -1.1096
16309SOL     OW50346   3.516   6.674   2.465 -0.1088  0.4972  0.1784
16309SOL    HW150347   3.497   6.708   2.553  1.7749  0.6517  0.5642
16309SOL    HW250348   3.606   6.701   2.448  0.9038 -2.7248 -0.2218
16310SOL     OW50349   5.382   3.030   0.790 -0.0555  0.2767 -0.2772
16310SOL    HW150350   5.325   2.964   0.831  1.0838  0.1662  1.1999
16310SOL    HW250351   5.342   3.114   0.813 -0.2062  0.1716 -0.1531
16311SOL     OW50352   4.956   0.102   8.185 -0.2255 -0.2673  0.0857
16311SOL    HW150353   5.044   0.136   8.200 -0.8606  2.2717 -1.2085
16311SOL    HW250354   4.932   0.058   8.267  1.8469 -0.1503  0.8089
16312SOL     OW50355   5.286   7.605   0.336  0.3187  0.4230  0.2556
16312SOL    HW150356   5.209   7.654   0.306  0.8860  0.9816 -0.3318
16312SOL    HW250357   5.250   7.524   0.372 -0.4349 -0.1534 -1.6628
16313SOL     OW50358   6.316   7.908   6.792  0.0432 -0.0344 -0.4714
16313SOL    HW150359   6.346   7.900   6.882  0.9068  0.3507 -0.7123
16313SOL    HW250360   6.305   8.003   6.779  1.5778  0.0537 -1.2765
16314SOL     OW50361   2.286   7.947   4.725  0.1008  0.0005 -0.6993
16314SOL    HW150362   2.314   7.864   4.765 -0.4441 -0.1904 -0.6979
16314SOL    HW250363   2.355   7.968   4.663 -1.3171 -2.2914 -3.3129
16315SOL     OW50364   6.366   2.247   4.655  0.4715  0.5150 -0.1961
16315SOL    HW150365   6.301   2.262   4.724 -1.0719  2.9222 -2.0437
16315SOL    HW250366   6.441   2.301   4.681 -0.0428  1.2944 -0.3281
16316SOL     OW50367   0.641   2.966   3.093 -0.4443 -0.4263  0.8423
16316SOL    HW150368   0.602   2.981   3.179 -1.5739 -1.1590  0.4726
16316SOL    HW250369   0.575   2.994   3.030  0.0176 -0.7343  0.1983
16317SOL     OW50370   6.073   3.457   1.540  0.0952  0.2036 -0.2975
16317SOL    HW150371   6.138   3.424   1.478  0.3354  1.3495 -0.6625
16317SOL    HW250372   5.995   3.475   1.487 -0.2497 -0.3502  0.0033
16318SOL     OW50373   5.980   5.286   6.913 -0.3068 -0.4215  0.1511
16318SOL    HW150374   5.938   5.204   6.888 -1.0634 -0.3562  1.1572
16318SOL    HW250375   5.933   5.354   6.864  1.0565 -0.6315 -1.5829
16319SOL     OW50376   0.690   0.554   5.301 -0.1857 -0.3238 -0.2457
16319SOL    HW150377   0.637   0.616   5.251 -1.0660  0.4979  1.6206
16319SOL    HW250378   0.681   0.471   5.254 -0.0699  0.6348 -2.0363
16320SOL     OW50379   6.008   4.182   1.524 -0.1745  0.4066  0.2118
16320SOL    HW150380   5.945   4.249   1.550  0.2024  0.3499  1.3248
16320SOL    HW250381   6.088   4.231   1.503 -0.3416  0.4136 -0.4429
16321SOL     OW50382   1.789   7.626   7.166 -0.4494 -0.6077 -0.4225
16321SOL    HW150383   1.812   7.590   7.252 -1.0276  0.4909  0.2101
16321SOL    HW250384   1.706   7.584   7.145 -0.5518 -0.5113 -0.2152
16322SOL     OW50385   7.650   6.580   4.912 -0.2000  0.0605 -0.2966
16322SOL    HW150386   7.577   6.519   4.901  0.4921 -0.4465 -2.5167
16322SOL    HW250387   7.728   6.524   4.911  0.3245  0.7390  0.6225
16323SOL     OW50388   1.400   4.162   2.161  0.1397 -0.2162  0.1620
16323SOL    HW150389   1.310   4.172   2.130  0.1779 -0.5451 -0.0679
16323SOL    HW250390   1.446   4.120   2.088  0.2099 -1.0851  0.6862
16324SOL     OW50391   4.981   0.069   0.983 -0.5445 -0.1966 -0.3303
16324SOL    HW150392   4.893   0.055   0.949 -1.4669  0.6940  1.5453
16324SOL    HW250393   5.015   0.143   0.934 -1.2720  0.1518 -0.3149
16325SOL     OW50394   0.815   1.223   5.361  0.0554  0.3374  0.0938
16325SOL    HW150395   0.827   1.130   5.340  0.3848  0.4068 -0.0335
16325SOL    HW250396   0.855   1.233   5.448 -0.4087  0.2622  0.3205
16326SOL     OW50397   6.952   3.979   3.343 -0.2139 -0.2746 -0.1678
16326SOL    HW150398   6.976   3.983   3.250 -2.2049  0.3328 -0.7078
16326SOL    HW250399   6.946   3.886   3.363  0.4989 -0.4123 -0.5520
16327SOL     OW50400   2.731   5.557   8.224  0.2635  0.0549 -0.5020
16327SOL    HW150401   2.783   5.494   8.174  1.0266  0.1338  0.1666
16327SOL    HW250402   2.689   5.505   8.292  0.5470  0.1874 -0.2185
16328SOL     OW50403   0.768   4.770   5.539 -0.0940 -0.2835 -0.1630
16328SOL    HW150404   0.723   4.686   5.541 -1.0429  0.1544 -1.5925
16328SOL    HW250405   0.766   4.800   5.630 -0.1256 -1.5970  0.2846
16329SOL     OW50406   7.513   3.492   1.915 -0.1399  0.0013 -0.0359
16329SOL    HW150407   7.472   3.569   1.875  1.4346  1.5441  1.1317
16329SOL    HW250408   7.606   3.515   1.921  0.7607 -2.8521 -1.4706
16330SOL     OW50409   1.848   4.502   0.517 -0.3557  0.7661 -0.3007
16330SOL    HW150410   1.881   4.504   0.607  1.9118 -0.2088 -1.0489
16330SOL    HW250411   1.777   4.438   0.520  0.7658 -0.4951  0.5061
16331SOL     OW50412   0.930   1.632   4.092  0.0384  0.6619  0.4367
16331SOL    HW150413   0.901   1.601   4.177 -3.1416  1.6269 -0.1510
16331SOL    HW250414   0.976   1.558   4.053 -2.0093 -1.2565  1.4438
16332SOL     OW50415   5.514   7.796   6.029  0.6728 -0.1962 -0.3018
16332SOL    HW150416   5.446   7.751   5.979 -0.7268  0.8930  0.5327
16332SOL    HW250417   5.501   7.767   6.119  1.6983 -0.4148 -0.2170
16333SOL     OW50418   6.424   7.262   5.449 -0.4161  0.1368  0.3653
16333SOL    HW150419   6.363   7.320   5.496  0.6455 -0.2935  2.3703
16333SOL    HW250420   6.510   7.301   5.465  0.0038 -0.1771 -1.0606
16334SOL     OW50421   0.385   5.219   0.618 -0.2596  0.0658 -0.2125
16334SOL    HW150422   0.481   5.217   0.612 -0.1359  3.3511 -1.5123
16334SOL    HW250423   0.356   5.241   0.529 -2.0205  1.2423  0.6000
16335SOL     OW50424   5.211   4.104   3.942  0.3606 -0.4413  0.7859
16335SOL    HW150425   5.206   4.155   3.862  1.7611 -0.1006  0.8873
16335SOL    HW250426   5.122   4.070   3.955  0.1965 -0.8528 -1.1134
16336SOL     OW50427   7.185   7.618   0.736 -0.1423 -0.5301 -0.1587
16336SOL    HW150428   7.124   7.579   0.799 -4.4153  4.7683 -0.3298
16336SOL    HW250429   7.131   7.639   0.661  3.4703 -0.8978 -3.1511
16337SOL     OW50430   8.284   2.561   3.549 -0.5526  0.0080  0.7457
16337SOL    HW150431   8.267   2.497   3.480  0.0297  0.5270  0.0938
16337SOL    HW250432   8.208   2.619   3.548 -0.6350 -0.1026  0.6615
16338SOL     OW50433   0.547   7.660   0.979 -0.1296  0.4292 -0.3238
16338SOL    HW150434   0.480   7.591   0.981 -0.5705  0.8711  1.4223
16338SOL    HW250435   0.630   7.612   0.982 -0.3675 -0.0935 -1.6326
16339SOL     OW50436   3.196   0.978   7.907  0.2686 -0.6988 -0.2911
16339SOL    HW150437   3.245   0.968   7.826  0.2899  0.3050 -0.4147
16339SOL    HW250438   3.249   1.037   7.960  0.3727 -1.5372  0.5610
16340SOL     OW50439   4.892   4.241   5.326  0.0725 -0.2651  0.1017
16340SOL    HW150440   4.885   4.308   5.258  0.3091 -1.6621 -1.3692
16340SOL    HW250441   4.822   4.263   5.388  0.7921  1.9048  0.2208
16341SOL     OW50442   7.613   2.964   1.595 -0.6149  0.0702 -0.1262
16341SOL    HW150443   7.561   3.043   1.609  0.4834  0.8736 -0.4291
16341SOL    HW250444   7.671   2.959   1.671  2.5907  2.2415 -2.1627
16342SOL     OW50445   6.179   0.010   4.812  0.1417  0.8729  0.4373
16342SOL    HW150446   6.220   0.096   4.824  0.8622  0.3234  2.1891
16342SOL    HW250447   6.249  -0.046   4.781 -0.3073  0.8818 -0.6191
16343SOL     OW50448   6.158   0.125   2.527  0.0137  0.5749  0.2067
16343SOL    HW150449   6.197   0.074   2.597 -0.2448  0.3756  0.2068
16343SOL    HW250450   6.147   0.212   2.564 -0.5636  0.3488  0.5726
16344SOL     OW50451   5.586   0.141   3.170  0.6656  0.2970  0.1263
16344SOL    HW150452   5.557   0.121   3.081  1.7972  1.1910 -0.4815
16344SOL    HW250453   5.509   0.175   3.214  0.2019  0.2887 -0.6625
16345SOL     OW50454   1.218   5.276   6.129 -0.6507  0.3088  0.2387
16345SOL    HW150455   1.308   5.275   6.099 -1.0595 -3.4454 -1.3180
16345SOL    HW250456   1.186   5.364   6.108  2.2375  1.3228 -0.2586
16346SOL     OW50457   6.497   3.334   4.156 -0.1951 -0.1469  0.2017
16346SOL    HW150458   6.569   3.353   4.216  0.7506 -2.9831  0.1044
16346SOL    HW250459   6.487   3.414   4.105  2.2926  0.6450  0.8146
16347SOL     OW50460   5.461   3.447   2.116 -0.2156  0.3233 -0.1593
16347SOL    HW150461   5.426   3.417   2.032 -0.0356  0.1740 -0.1835
16347SOL    HW250462   5.450   3.372   2.175 -0.5695  0.5142  0.0175
16348SOL     OW50463   6.317   1.726   3.294  0.5309 -0.0661 -0.3128
16348SOL    HW150464   6.344   1.734   3.203 -1.2670  0.7049 -0.8224
16348SOL    HW250465   6.389   1.763   3.344  1.8395 -1.1075 -1.3614
16349SOL     OW50466   5.078   0.967   0.875  0.3916 -0.1457  0.4870
16349SOL    HW150467   5.098   0.934   0.787  1.5130 -1.4420  1.1962
16349SOL    HW250468   4.997   1.016   0.864  0.5111 -0.2765 -1.2724
16350SOL     OW50469   4.711   0.910   0.898 -0.4264 -0.5151 -0.0676
16350SOL    HW150470   4.688   0.820   0.921  0.1028 -0.6511 -0.0601
16350SOL    HW250471   4.796   0.903   0.854 -0.9349 -0.1500 -1.1539
16351SOL     OW50472   3.655   4.647   5.666  0.8669  0.4426 -0.5393
16351SOL    HW150473   3.675   4.721   5.723  0.6499  0.0611  0.0486
16351SOL    HW250474   3.733   4.636   5.612  1.5257  0.1332  0.4410
16352SOL     OW50475   2.403   8.062   4.022 -0.2865  0.0616 -0.3280
16352SOL    HW150476   2.324   8.116   4.029 -0.0997  0.3722 -0.6187
16352SOL    HW250477   2.445   8.092   3.942  0.3403  0.1671  0.0395
16353SOL     OW50478   4.175   2.133   8.367  0.1969  0.1792 -0.9035
16353SOL    HW150479   4.094   2.107   8.410  0.2519 -0.6150 -1.2496
16353SOL    HW250480   4.235   2.155   8.439  0.2433 -0.9915 -0.5555
16354SOL     OW50481   0.908   3.639   2.611  0.2512 -0.1216  0.1412
16354SOL    HW150482   0.885   3.731   2.623  0.7929 -0.1455  1.5300
16354SOL    HW250483   0.999   3.633   2.640  0.4975 -0.9382 -0.7407
16355SOL     OW50484   6.689   5.183   1.474 -0.3135 -0.1526 -0.7338
16355SOL    HW150485   6.773   5.175   1.429  1.7711  0.4708  2.6541
16355SOL    HW250486   6.660   5.272   1.453  0.4791  0.0559 -0.9977
16356SOL     OW50487   5.467   1.573   0.276  0.5474  0.0480  0.2449
16356SOL    HW150488   5.511   1.656   0.259  1.5437 -0.8906 -2.0949
16356SOL    HW250489   5.538   1.511   0.294 -0.0619 -0.7020  0.1207
16357SOL     OW50490   8.366   6.540   5.022  0.2337  0.3223  0.2058
16357SOL    HW150491   8.348   6.497   4.938  0.6832 -1.3483  0.9286
16357SOL    HW250492   8.348   6.633   5.006 -1.9330 -0.2702 -1.0850
16358SOL     OW50493   3.527   1.423   1.930 -0.4689 -0.0593  0.1108
16358SOL    HW150494   3.544   1.457   2.018 -1.2392 -0.3801  0.4020
16358SOL    HW250495   3.613   1.414   1.890  0.0735 -1.6072  1.4815
16359SOL     OW50496   4.084   4.586   5.754  0.5579  0.3736  0.4740
16359SOL    HW150497   4.169   4.604   5.712  1.0749  1.6826  1.9774
16359SOL    HW250498   4.027   4.657   5.723 -0.2449 -0.8849 -1.0768
16360SOL     OW50499   6.855   2.906   2.480  0.0672 -0.0761  0.5971
16360SOL    HW150500   6.806   2.834   2.441  0.0918  0.6355 -0.8113
16360SOL    HW250501   6.804   2.984   2.459  0.4096  0.4043  1.4859
16361SOL     OW50502   2.759   5.384   6.651 -0.1676  0.4442  0.3775
16361SOL    HW150503   2.679   5.394   6.599 -0.3146  0.1965  0.5559
16361SOL    HW250504   2.755   5.295   6.685  0.8578 -0.0580 -0.7327
16362SOL     OW50505   0.159   5.749   3.340  0.1600 -0.2381 -0.1648
16362SOL    HW150506   0.153   5.686   3.268 -3.0175 -0.2402 -0.0373
16362SOL    HW250507   0.167   5.695   3.418 -0.3438 -0.4027 -0.2246
16363SOL     OW50508   0.821   1.585   6.327  0.0517  0.9641  0.6005
16363SOL    HW150509   0.875   1.561   6.251 -1.9874  1.1863 -0.9976
16363SOL    HW250510   0.821   1.507   6.382  1.2876  0.6750  0.2266
16364SOL     OW50511   1.334   5.299   7.294 -0.2875  0.6370  0.0461
16364SOL    HW150512   1.367   5.365   7.355  0.7586  0.8514 -0.7100
16364SOL    HW250513   1.315   5.348   7.214 -1.8884  0.4003  0.2573
16365SOL     OW50514   5.117   0.342   3.152  0.4181 -0.3281  0.8051
16365SOL    HW150515   5.142   0.430   3.179  1.9446 -0.3666 -0.3732
16365SOL    HW250516   5.059   0.355   3.077  0.1803 -0.3205  0.9892
16366SOL     OW50517   7.466   7.353   0.289  0.4464 -0.3397 -0.0184
16366SOL    HW150518   7.459   7.281   0.351  1.9698 -0.6860 -0.2194
16366SOL    HW250519   7.467   7.311   0.203  1.2721 -0.0907 -0.1387
16367SOL     OW50520   8.018   2.111   1.488  0.0990 -0.1431  0.1820
16367SOL    HW150521   7.927   2.109   1.460 -0.4020 -0.3765  1.7338
16367SOL    HW250522   8.059   2.178   1.434 -0.9282 -0.1998 -0.6933
16368SOL     OW50523   1.409   1.359   3.160  0.7126  0.2201 -0.4883
16368SOL    HW150524   1.332   1.410   3.187  0.7500  0.2741 -0.4831
16368SOL    HW250525   1.445   1.408   3.086  0.6004  0.0624 -0.6478
16369SOL     OW50526   0.308   1.476   6.844  0.2712 -0.0042 -0.3226
16369SOL    HW150527   0.215   1.465   6.865  0.3516  0.6408  0.4045
16369SOL    HW250528   0.352   1.481   6.929  0.8776  0.4353 -0.6536
16370SOL     OW50529   1.265   1.473   0.407  0.3889 -0.3115 -0.4725
16370SOL    HW150530   1.305   1.393   0.441 -1.2267 -0.9617 -0.0516
16370SOL    HW250531   1.178   1.476   0.446  0.6680  2.0585  0.1340
16371SOL     OW50532   1.692   0.911   2.031 -0.4023 -0.0170  0.3909
16371SOL    HW150533   1.605   0.879   2.054 -0.0750  0.5727  2.7057
16371SOL    HW250534   1.752   0.853   2.078  0.4407  0.1091 -0.4993
16372SOL     OW50535   0.205   2.138   0.063  0.1956 -0.1674  0.2752
16372SOL    HW150536   0.219   2.219   0.014  1.4010  0.1260  1.0579
16372SOL    HW250537   0.291   2.098   0.068 -0.5520 -2.0825 -1.0284
16373SOL     OW50538   0.219   6.285   7.823  0.1023 -0.5436  0.1426
16373SOL    HW150539   0.133   6.246   7.813 -0.0241 -0.2724  0.1671
16373SOL    HW250540   0.262   6.232   7.890 -0.4700  0.0325  0.9815
16374SOL     OW50541   0.990   3.399   7.987  0.2136  0.1638 -0.1523
16374SOL    HW150542   0.966   3.308   8.003 -0.6298  0.1629 -1.3466
16374SOL    HW250543   1.062   3.394   7.924  1.3619  0.2861  1.0972
16375SOL     OW50544   5.462   7.181   7.196 -0.1139  0.8582 -0.1115
16375SOL    HW150545   5.425   7.100   7.231  0.7521  0.4360 -0.1487
16375SOL    HW250546   5.389   7.242   7.195 -0.2510  0.8115  2.1673
16376SOL     OW50547   7.247   7.655   5.651 -0.0123  0.6815 -0.0483
16376SOL    HW150548   7.278   7.589   5.713  1.2874  2.6877  1.5569
16376SOL    HW250549   7.311   7.652   5.579  0.0914  0.2682  0.0585
16377SOL     OW50550   1.199   2.435   7.366 -0.2381 -0.1076 -0.3106
16377SOL    HW150551   1.174   2.513   7.414  0.4620 -0.3339  0.4518
16377SOL    HW250552   1.127   2.374   7.380  0.4989 -0.6449  1.6061
16378SOL     OW50553   2.254   3.189   5.172  0.0646 -0.4956 -0.5941
16378SOL    HW150554   2.306   3.269   5.180  0.5191 -0.9331  1.0037
16378SOL    HW250555   2.258   3.148   5.258 -2.2100 -0.9909 -0.6655
16379SOL     OW50556   7.407   1.075   6.044 -0.7290 -0.2329 -0.0671
16379SOL    HW150557   7.412   1.018   6.121  1.3301  2.2962  1.8512
16379SOL    HW250558   7.491   1.062   5.999 -0.5090  0.7395  0.0334
16380SOL     OW50559   7.510   6.522   3.846  0.1885 -0.0964 -0.6733
16380SOL    HW150560   7.450   6.457   3.882 -1.2441  0.1165 -2.5043
16380SOL    HW250561   7.466   6.606   3.860 -0.3597  0.0097 -2.6369
16381SOL     OW50562   2.516   8.024   3.238  0.0293  0.0362  0.4490
16381SOL    HW150563   2.519   7.940   3.192 -0.3717  0.0713  0.3559
16381SOL    HW250564   2.508   8.090   3.169 -1.1131  0.0544  0.5880
16382SOL     OW50565   5.378   5.467   0.937 -0.0610 -0.0820  0.4839
16382SOL    HW150566   5.300   5.457   0.991 -0.3803 -0.2511  0.0014
16382SOL    HW250567   5.409   5.556   0.955 -2.2702  1.2671 -1.7520
16383SOL     OW50568   5.017   1.759   1.351  0.4559  0.1587 -0.5832
16383SOL    HW150569   4.953   1.824   1.381  1.7552  1.3723 -0.3245
16383SOL    HW250570   4.987   1.676   1.389 -0.2547  0.9279  0.5981
16384SOL     OW50571   6.409   0.385   4.568 -0.0768  0.4951  0.5324
16384SOL    HW150572   6.384   0.378   4.660 -0.4560  0.6204  0.4399
16384SOL    HW250573   6.381   0.473   4.542  1.1191  0.9197  0.6204
16385SOL     OW50574   4.990   2.833   4.986  0.4358  0.3127  0.0171
16385SOL    HW150575   4.938   2.815   4.908 -0.0426  0.1334  0.3696
16385SOL    HW250576   5.052   2.900   4.959 -0.3613  0.9538 -0.2656
16386SOL     OW50577   2.046   5.278   7.523 -0.1639  0.2062  0.6368
16386SOL    HW150578   2.039   5.276   7.618 -2.0675  0.5533  0.5353
16386SOL    HW250579   2.018   5.366   7.498  0.4136  0.1557 -0.2617
16387SOL     OW50580   1.338   1.892   2.877 -0.0294  0.5083  0.3548
16387SOL    HW150581   1.402   1.898   2.948  1.5542 -0.4294 -0.9244
16387SOL    HW250582   1.365   1.958   2.814  1.7146 -1.9776 -1.6733
16388SOL     OW50583   7.353   6.238   7.116 -0.3204  0.2497 -0.1524
16388SOL    HW150584   7.301   6.242   7.197  0.0643  2.5414  0.0468
16388SOL    HW250585   7.443   6.257   7.144  0.2158 -1.1037 -0.8574
16389SOL     OW50586   1.307   6.191   0.297  0.2452  0.1025  0.5894
16389SOL    HW150587   1.366   6.218   0.226  0.4822  0.2238  0.8305
16389SOL    HW250588   1.226   6.166   0.252  0.0247  1.1912  0.3485
16390SOL     OW50589   5.978   2.754   3.045  0.0070 -0.3375  0.1342
16390SOL    HW150590   5.931   2.837   3.034  2.4454  1.2782  1.0143
16390SOL    HW250591   6.011   2.733   2.958 -0.5858 -0.3639 -0.0861
16391SOL     OW50592   5.352   7.566   8.183 -0.1442 -0.3878 -0.2899
16391SOL    HW150593   5.357   7.542   8.276 -1.2133  0.0943 -0.0844
16391SOL    HW250594   5.441   7.590   8.159  0.1719 -0.6769  0.5721
16392SOL     OW50595   6.175   2.633   4.748 -0.2165 -0.1501 -0.6464
16392SOL    HW150596   6.174   2.718   4.705  0.6963  1.4260  2.1744
16392SOL    HW250597   6.267   2.607   4.748  0.0594  0.6045  1.4626
16393SOL     OW50598   0.864   7.089   1.753 -0.0750 -0.1415  0.8951
16393SOL    HW150599   0.876   7.009   1.703 -0.3326 -0.0472  0.6772
16393SOL    HW250600   0.938   7.092   1.813  1.1003  0.5280 -0.5321
16394SOL     OW50601   3.405   1.568   0.737  0.8568 -0.0561  0.1936
16394SOL    HW150602   3.484   1.522   0.707  0.0309 -2.0394  0.8608
16394SOL    HW250603   3.332   1.518   0.700 -0.1069  0.4694  1.2906
16395SOL     OW50604   1.606   1.482   7.809  0.0868  0.1511 -0.1069
16395SOL    HW150605   1.532   1.504   7.865  0.3065 -0.1076  0.2869
16395SOL    HW250606   1.587   1.527   7.726  0.0025  0.9330  0.3290
16396SOL     OW50607   3.080   6.075   5.197 -0.0834  0.6224  0.1983
16396SOL    HW150608   3.076   6.137   5.123 -0.7778 -1.5701 -1.7146
16396SOL    HW250609   2.992   6.036   5.200  0.3087 -0.2166  1.4172
16397SOL     OW50610   7.988   1.608   5.896  0.4784 -0.3321 -0.5142
16397SOL    HW150611   8.015   1.629   5.806  1.0593  3.1827  0.3390
16397SOL    HW250612   7.893   1.598   5.891  0.3742  0.9075 -1.3572
16398SOL     OW50613   3.917   3.197   6.894 -0.0757 -0.0711  0.0212
16398SOL    HW150614   3.908   3.170   6.803  0.3790 -0.3335  0.0494
16398SOL    HW250615   3.899   3.118   6.945 -1.1129  0.2555  0.1978
16399SOL     OW50616   1.244   4.056   3.378 -0.5581  0.1951  0.2146
16399SOL    HW150617   1.221   4.030   3.467 -0.2152 -0.1350  0.2110
16399SOL    HW250618   1.316   3.997   3.354 -0.9686 -0.0440 -0.4589
16400SOL     OW50619   2.406   4.171   0.092 -0.5809 -0.4933 -0.2815
16400SOL    HW150620   2.494   4.175   0.128 -0.5701 -2.9785  0.1418
16400SOL    HW250621   2.351   4.212   0.158  0.3140  2.2433 -1.0961
16401SOL     OW50622   6.365   7.853   7.069 -0.4275 -0.1878 -0.7613
16401SOL    HW150623   6.389   7.889   7.154 -0.4922 -1.5127 -0.1561
16401SOL    HW250624   6.443   7.804   7.042 -1.7001 -3.0838  0.4176
16402SOL     OW50625   4.236   5.965   6.198 -0.0674 -0.1315 -0.1738
16402SOL    HW150626   4.199   6.053   6.199  1.3788  0.5066  0.1539
16402SOL    HW250627   4.296   5.962   6.272  1.0183 -0.8781 -1.0286
16403SOL     OW50628   3.609   5.588   6.147 -0.5873  0.0787  0.0154
16403SOL    HW150629   3.680   5.588   6.082  0.5830  0.9410  1.2441
16403SOL    HW250630   3.547   5.523   6.114  1.0155 -1.1008 -0.8239
16404SOL     OW50631   0.770   6.347   6.798  0.3868  0.2468  0.3270
16404SOL    HW150632   0.742   6.436   6.821  1.3727  0.9116 -0.9019
16404SOL    HW250633   0.853   6.359   6.751  1.2996 -1.4400  1.4000
16405SOL     OW50634   1.288   0.726   5.209  0.2649 -0.2589  0.0715
16405SOL    HW150635   1.245   0.809   5.229  0.2173 -0.3119  0.1842
16405SOL    HW250636   1.315   0.691   5.293  0.8730 -0.0396 -0.0317
16406SOL     OW50637   3.302   3.563   5.228 -0.4478 -0.9205 -0.5797
16406SOL    HW150638   3.301   3.485   5.284 -1.3860 -1.5080 -1.3839
16406SOL    HW250639   3.214   3.567   5.191  0.3506 -1.0051 -2.6082
16407SOL     OW50640   2.416   2.240   2.185 -0.1811 -0.2583 -0.0451
16407SOL    HW150641   2.378   2.175   2.125 -1.7111  1.0899 -0.6105
16407SOL    HW250642   2.499   2.264   2.145 -0.8221  0.0433 -1.2442
16408SOL     OW50643   1.643   8.309   5.490 -0.7180 -0.5223 -0.3533
16408SOL    HW150644   1.566   8.323   5.546 -0.1755 -2.6732  1.0478
16408SOL    HW250645   1.700   8.383   5.509 -1.3368 -0.2591  0.5687
16409SOL     OW50646   6.668   5.555   3.488  0.5487  0.1931  0.3516
16409SOL    HW150647   6.667   5.462   3.513  0.4995  0.5127  1.6011
16409SOL    HW250648   6.739   5.593   3.539  0.0717  0.9979  0.4324
16410SOL     OW50649   6.383   1.354   0.678  0.0140 -0.0004 -0.0342
16410SOL    HW150650   6.303   1.327   0.632  0.7572  0.4306 -1.6835
16410SOL    HW250651   6.408   1.278   0.731 -1.9475  0.1704  1.2208
16411SOL     OW50652   1.923   0.499   4.552 -0.4421 -0.6282 -0.6974
16411SOL    HW150653   1.856   0.556   4.590  0.3921 -0.5818  0.8091
16411SOL    HW250654   1.954   0.447   4.626  2.8504  1.0104 -0.7310
16412SOL     OW50655   4.708   8.345   1.112  0.5213  0.5087  0.6771
16412SOL    HW150656   4.618   8.331   1.085  1.1413 -1.4754 -0.5845
16412SOL    HW250657   4.724   8.438   1.095 -0.3443  0.2393 -2.3100
16413SOL     OW50658   0.945   6.709   8.119 -0.1509  0.2369 -0.3932
16413SOL    HW150659   0.965   6.619   8.147 -0.3034  0.0357 -0.9209
16413SOL    HW250660   0.992   6.764   8.181 -1.3346 -0.1736  0.9336
16414SOL     OW50661   1.102   1.406   1.065  0.2070 -0.3165 -0.2811
16414SOL    HW150662   1.168   1.341   1.090  0.4834  0.4862  1.1491
16414SOL    HW250663   1.023   1.355   1.051  0.7238 -1.1053 -0.4215
16415SOL     OW50664   1.708   1.023   4.290 -0.0700 -0.4458  0.1538
16415SOL    HW150665   1.799   1.045   4.268  0.3308  1.2022  2.9636
16415SOL    HW250666   1.701   0.930   4.271  2.2465 -0.6569 -0.0165
16416SOL     OW50667   5.933   7.387   7.050 -0.2668 -0.2171 -0.0536
16416SOL    HW150668   5.931   7.410   7.143  1.3901  0.5269 -0.1573
16416SOL    HW250669   5.905   7.467   7.005  1.2087  0.2065 -0.2589
16417SOL     OW50670   0.572   2.690   2.692 -0.2678 -0.0012  0.2342
16417SOL    HW150671   0.485   2.724   2.716 -0.1863  0.4783 -0.1226
16417SOL    HW250672   0.557   2.599   2.668 -0.1812 -0.8669  3.1554
16418SOL     OW50673   4.192   1.448   1.574 -0.4084 -0.3033  0.0022
16418SOL    HW150674   4.258   1.516   1.564 -1.2226  0.8123  1.7370
16418SOL    HW250675   4.215   1.382   1.508  2.8738 -0.3380  1.0099
16419SOL     OW50676   4.920   2.441   7.514  0.0979 -0.5540  0.1587
16419SOL    HW150677   4.969   2.520   7.489  0.1790 -0.2899  1.0984
16419SOL    HW250678   4.974   2.368   7.482  1.4099 -0.2883  1.6237
16420SOL     OW50679   7.596   2.522   8.349  0.1952  0.7524  0.2793
16420SOL    HW150680   7.586   2.506   8.256  0.1029  2.7334 -0.0841
16420SOL    HW250681   7.682   2.486   8.371  0.2246  0.3030 -0.5625
16421SOL     OW50682   0.741   7.242   4.575  0.2257  0.3995 -0.1310
16421SOL    HW150683   0.773   7.152   4.584  2.0951  0.9977 -0.5315
16421SOL    HW250684   0.669   7.247   4.638 -1.1649 -1.8978 -1.3786
16422SOL     OW50685   2.082   6.129   7.964  0.1912 -0.2103 -0.1922
16422SOL    HW150686   2.033   6.118   8.046 -0.4027 -0.5868 -0.5959
16422SOL    HW250687   2.061   6.052   7.912  1.5005 -0.5555 -0.2412
16423SOL     OW50688   2.722   2.339   7.602  0.0130 -0.1446  0.0846
16423SOL    HW150689   2.765   2.254   7.595 -2.6062 -1.5037 -1.0268
16423SOL    HW250690   2.789   2.402   7.578  1.6802 -2.0089 -0.4417
16424SOL     OW50691   4.964   3.765   6.764 -0.3697  1.1403 -0.0009
16424SOL    HW150692   4.991   3.706   6.693 -0.2967 -0.2951  1.1639
16424SOL    HW250693   4.870   3.751   6.772  0.0417 -1.2627  2.2698
16425SOL     OW50694   2.860   3.187   8.183  0.1482  0.3287 -0.0002
16425SOL    HW150695   2.813   3.230   8.255  0.5647  2.4471 -0.9226
16425SOL    HW250696   2.865   3.095   8.209  1.2349  1.1623  3.2185
16426SOL     OW50697   0.409   3.495   8.234  0.1946 -0.3244 -0.0996
16426SOL    HW150698   0.430   3.577   8.188  0.9625 -1.5923 -2.1650
16426SOL    HW250699   0.428   3.513   8.326  1.4728  1.4601 -0.6608
16427SOL     OW50700   7.452   5.594   4.082 -0.1202  0.3253 -0.1343
16427SOL    HW150701   7.464   5.500   4.071 -2.7745  0.0828 -1.9673
16427SOL    HW250702   7.462   5.609   4.176  0.9558 -1.6509  0.1115
16428SOL     OW50703   2.621   6.511   6.091 -0.0005 -0.0467 -0.6204
16428SOL    HW150704   2.629   6.427   6.046  2.4072  0.6867 -1.7376
16428SOL    HW250705   2.591   6.572   6.023  0.4268  0.4374 -0.3796
16429SOL     OW50706   2.040   1.701   5.579  0.4365  0.6516  0.7114
16429SOL    HW150707   2.022   1.720   5.671  2.1287 -0.1797  1.2584
16429SOL    HW250708   1.955   1.707   5.536 -0.3201  1.5194  2.2303
16430SOL     OW50709   3.286   0.509   8.301 -0.2180 -0.6199  0.2173
16430SOL    HW150710   3.196   0.541   8.302 -0.1751 -0.4623 -0.2850
16430SOL    HW250711   3.278   0.414   8.299 -0.3885 -0.5970 -0.4084
16431SOL     OW50712   7.560   3.025   5.456 -0.1389 -0.0656 -0.1882
16431SOL    HW150713   7.509   2.966   5.512 -1.5682 -0.6213 -1.9774
16431SOL    HW250714   7.496   3.058   5.392  1.2660  1.1376 -1.0198
16432SOL     OW50715   7.425   2.570   2.591 -0.4340 -0.4638  0.0930
16432SOL    HW150716   7.331   2.579   2.608 -0.1301  0.9596  1.1899
16432SOL    HW250717   7.456   2.660   2.583  0.7752 -0.9338 -0.6556
16433SOL     OW50718   2.666   6.366   0.735  0.0757 -0.2815 -0.4953
16433SOL    HW150719   2.690   6.382   0.643  0.5782  0.3001 -0.2684
16433SOL    HW250720   2.749   6.350   0.779 -0.2263 -1.3899 -0.2823
16434SOL     OW50721   1.416   7.132   3.777  0.0618 -0.1748 -0.4414
16434SOL    HW150722   1.386   7.041   3.786 -0.9769  0.1623 -0.3540
16434SOL    HW250723   1.477   7.144   3.849  0.7814 -1.0286 -0.8907
16435SOL     OW50724   6.486   5.058   2.034  0.3748 -0.0893  0.0283
16435SOL    HW150725   6.517   4.985   1.981  1.2965 -0.5286  1.1251
16435SOL    HW250726   6.391   5.054   2.027  0.4542 -0.7035 -0.8232
16436SOL     OW50727   0.628   6.738   4.149 -0.4767 -0.0121 -0.3528
16436SOL    HW150728   0.688   6.763   4.079 -0.3737 -1.4172 -0.7861
16436SOL    HW250729   0.541   6.755   4.113 -0.3896  0.6050 -0.2829
16437SOL     OW50730   5.572   0.401   8.164  0.3657  0.2210  0.1141
16437SOL    HW150731   5.563   0.306   8.156  1.9116  0.1116 -0.4974
16437SOL    HW250732   5.640   0.414   8.230 -0.3815  0.9296  0.7724
16438SOL     OW50733   0.096   6.986   7.921 -0.5796 -0.0648  0.2831
16438SOL    HW150734   0.187   7.011   7.936 -0.4234 -1.5456  2.3664
16438SOL    HW250735   0.100   6.898   7.884 -1.1514 -0.2365  0.6030
16439SOL     OW50736   6.827   2.648   2.383  0.2173 -0.5376  0.0233
16439SOL    HW150737   6.893   2.589   2.419 -0.3206 -0.2803  1.4896
16439SOL    HW250738   6.871   2.691   2.309  1.4574 -0.8774  0.5409
16440SOL     OW50739   6.286   1.563   7.301  0.0393 -0.4837 -0.0532
16440SOL    HW150740   6.277   1.594   7.391 -0.4925 -0.9920  0.0742
16440SOL    HW250741   6.271   1.469   7.307  0.1732 -0.5459 -0.6508
16441SOL     OW50742   1.258   0.686   3.249 -0.8767 -0.3361  0.4306
16441SOL    HW150743   1.275   0.644   3.333 -2.7632  0.0503  1.0660
16441SOL    HW250744   1.336   0.668   3.196 -0.4585 -2.2445  1.6000
16442SOL     OW50745   5.093   1.135   1.203  0.2102  0.0987 -0.2140
16442SOL    HW150746   5.008   1.115   1.163  0.0895  1.9998 -1.0190
16442SOL    HW250747   5.095   1.081   1.282 -0.3377 -2.3829 -1.7838
16443SOL     OW50748   6.298   6.803   8.151  0.2212  0.2912  0.4992
16443SOL    HW150749   6.367   6.770   8.094 -1.4883 -0.9802 -0.9731
16443SOL    HW250750   6.234   6.842   8.091 -2.0864 -1.8845  1.3401
16444SOL     OW50751   5.496   0.663   8.217 -0.4781 -0.1126 -0.1973
16444SOL    HW150752   5.509   0.571   8.195  1.0977  0.2662 -1.0023
16444SOL    HW250753   5.534   0.672   8.305 -1.5381 -0.4064  0.3160
16445SOL     OW50754   6.264   0.317   0.711 -0.0064 -0.2297 -0.2319
16445SOL    HW150755   6.329   0.370   0.758  0.0703 -0.4455 -0.0948
16445SOL    HW250756   6.302   0.230   0.707  0.1982 -0.1074 -1.1152
16446SOL     OW50757   7.130   7.038   3.083 -0.0279  0.5755  0.0597
16446SOL    HW150758   7.042   7.019   3.116 -0.7184  1.6438 -1.0332
16446SOL    HW250759   7.167   6.952   3.061 -1.0422  0.1486 -0.0330
16447SOL     OW50760   7.008   0.840   0.085  0.0838  0.2195  0.0592
16447SOL    HW150761   7.007   0.913   0.022  0.2105  0.4245  0.2897
16447SOL    HW250762   7.045   0.879   0.164  0.5467 -0.2042  0.0547
16448SOL     OW50763   6.546   1.203   6.517 -0.0418 -0.1631 -0.3832
16448SOL    HW150764   6.493   1.211   6.437  0.6382  0.4260 -0.7846
16448SOL    HW250765   6.608   1.275   6.512  0.4135 -0.4905  0.3830
16449SOL     OW50766   2.669   5.351   2.199  0.2674  0.0997  0.0152
16449SOL    HW150767   2.616   5.374   2.275  0.3353  2.3120 -0.5621
16449SOL    HW250768   2.605   5.335   2.130  0.2897  1.1716 -0.2606
16450SOL     OW50769   0.013   4.659   4.434 -0.0378  0.0906 -0.6643
16450SOL    HW150770  -0.062   4.662   4.493  0.2114  0.5262 -0.3628
16450SOL    HW250771   0.048   4.748   4.435  0.6538 -0.1728 -0.5638
16451SOL     OW50772   5.610   3.243   1.358  0.6204  0.1011 -0.1866
16451SOL    HW150773   5.688   3.297   1.369  1.0078 -0.4150 -0.3561
16451SOL    HW250774   5.589   3.251   1.265  0.9824 -0.4472 -0.3178
16452SOL     OW50775   1.528   8.321   8.340  0.0591 -0.3710 -0.5962
16452SOL    HW150776   1.448   8.285   8.376 -0.3380  1.6807  0.7405
16452SOL    HW250777   1.593   8.309   8.409 -0.0504  1.2365 -0.1712
16453SOL     OW50778   0.206   5.581   2.425  0.3826 -0.1431 -0.0473
16453SOL    HW150779   0.159   5.604   2.345 -1.0764  1.6746  1.2435
16453SOL    HW250780   0.272   5.650   2.435  0.5680 -0.3631  0.2780
16454SOL     OW50781   6.002   1.054   7.201 -0.3672 -0.4612  0.1228
16454SOL    HW150782   6.043   0.988   7.144 -0.5749 -0.9818  0.5618
16454SOL    HW250783   6.021   1.023   7.290  1.1637  1.0637  0.3816
16455SOL     OW50784   0.613   1.822   1.946  0.3275  0.2231 -0.5104
16455SOL    HW150785   0.596   1.728   1.947  1.4488 -0.0171  0.9986
16455SOL    HW250786   0.688   1.832   1.888 -0.0624  0.2439 -1.0105
16456SOL     OW50787   6.907   3.657   4.618  0.0368  0.5358  0.2046
16456SOL    HW150788   6.895   3.565   4.643 -1.1250  0.7014  0.2969
16456SOL    HW250789   6.850   3.706   4.678  0.9112  1.3519  0.3823
16457SOL     OW50790   8.262   6.924   3.713 -0.4958 -0.0133 -1.0730
16457SOL    HW150791   8.227   6.993   3.768 -0.8729 -0.4482 -0.7569
16457SOL    HW250792   8.207   6.848   3.732 -0.4514 -0.2450 -1.8396
16458SOL     OW50793   2.438   4.848   2.923 -0.6426  0.3713  0.1903
16458SOL    HW150794   2.516   4.793   2.917 -0.7675  0.2800 -1.0557
16458SOL    HW250795   2.376   4.807   2.862 -1.4110  0.8414  0.6357
16459SOL     OW50796   7.058   7.549   6.787  0.1661  0.1512  0.3926
16459SOL    HW150797   7.029   7.485   6.852 -0.6042 -0.8080 -0.8495
16459SOL    HW250798   7.109   7.498   6.724  1.8655  1.2589  0.8004
16460SOL     OW50799   6.710   1.760   0.746  0.0471  0.4128 -0.3913
16460SOL    HW150800   6.742   1.747   0.657  1.1227  1.9531 -0.2587
16460SOL    HW250801   6.626   1.714   0.747 -1.2421  2.4002 -2.9858
16461SOL     OW50802   3.561   0.043   5.565  0.0281  0.1128  0.8293
16461SOL    HW150803   3.555   0.100   5.488  1.2005 -2.1570 -1.0547
16461SOL    HW250804   3.511   0.089   5.632  1.1200  3.4766 -0.4511
16462SOL     OW50805   4.300   7.941   1.561 -0.6048 -0.2105 -0.1932
16462SOL    HW150806   4.334   7.851   1.559 -0.9926 -0.3575 -0.2569
16462SOL    HW250807   4.371   7.992   1.600 -0.7897 -0.7285  0.8685
16463SOL     OW50808   7.782   1.678   6.250  0.1713  0.6776 -0.5328
16463SOL    HW150809   7.770   1.764   6.212  2.2784  1.1013 -0.3370
16463SOL    HW250810   7.840   1.692   6.325 -1.8219 -0.4938  1.3629
16464SOL     OW50811   0.056   5.139   3.534 -0.3726 -0.3065 -0.1084
16464SOL    HW150812   0.005   5.171   3.608  0.3097  3.2679 -0.9997
16464SOL    HW250813  -0.009   5.108   3.471 -1.0977 -0.8237  0.8686
16465SOL     OW50814   0.479   8.280   0.741 -0.0932  0.0457 -0.1511
16465SOL    HW150815   0.483   8.268   0.836 -0.9833 -0.5484 -0.1703
16465SOL    HW250816   0.407   8.223   0.713  0.1674  0.2006 -1.1849
16466SOL     OW50817   7.647   2.770   3.790 -0.2110  0.1334 -0.2531
16466SOL    HW150818   7.560   2.790   3.755  0.4699  1.9080 -1.0686
16466SOL    HW250819   7.641   2.790   3.883 -0.2078  2.1440 -0.6352
16467SOL     OW50820   6.054   1.726   5.647  0.3684  0.0486 -0.4068
16467SOL    HW150821   6.045   1.697   5.556  0.4260  1.5107 -0.9151
16467SOL    HW250822   6.090   1.815   5.640 -0.2847  0.4625  1.0169
16468SOL     OW50823   3.643   8.203   8.244  0.0073  0.2743  0.4615
16468SOL    HW150824   3.696   8.223   8.321 -1.1888 -0.3449  1.4844
16468SOL    HW250825   3.682   8.123   8.208  2.9974  2.5801 -1.9540
16469SOL     OW50826   6.769   7.928   4.174  0.0180 -0.0718 -0.6144
16469SOL    HW150827   6.858   7.962   4.165  0.0564 -0.4036 -1.6819
16469SOL    HW250828   6.778   7.855   4.236  0.2139  0.8123  0.4256
16470SOL     OW50829   3.819   5.359   6.615 -0.2775  0.1239 -0.6683
16470SOL    HW150830   3.885   5.290   6.617 -1.5434 -1.1517  1.3962
16470SOL    HW250831   3.752   5.329   6.677 -1.0575  3.0513  0.0511
16471SOL     OW50832   1.449   1.245   6.177 -0.4663  0.5439  0.0238
16471SOL    HW150833   1.394   1.310   6.135 -1.7957 -0.9464 -0.6556
16471SOL    HW250834   1.497   1.203   6.105  1.3281  1.5357  0.5612
16472SOL     OW50835   0.158   4.527   7.910 -0.9144 -0.6042  0.3436
16472SOL    HW150836   0.212   4.576   7.972 -0.7326  2.1471 -1.8207
16472SOL    HW250837   0.189   4.437   7.918  2.6433  0.4831  0.6760
16473SOL     OW50838   7.501   8.187   0.151 -0.0821  0.5206  0.6091
16473SOL    HW150839   7.534   8.157   0.236  0.0248 -2.9183 -0.4649
16473SOL    HW250840   7.427   8.129   0.133  0.4557  0.5487 -2.0098
16474SOL     OW50841   5.681   4.553   6.163  0.3161  0.2645 -0.0780
16474SOL    HW150842   5.621   4.505   6.106  0.8287  0.7557 -1.0598
16474SOL    HW250843   5.748   4.490   6.186  0.2823  0.1486 -0.2931
16475SOL     OW50844   7.581   5.983   5.832 -0.0394 -0.1695 -0.1940
16475SOL    HW150845   7.614   5.912   5.777  1.5884  0.4727 -0.0923
16475SOL    HW250846   7.611   5.962   5.920 -1.4323 -0.4594  0.2421
16476SOL     OW50847   5.566   0.195   0.232 -0.5978  0.4160  0.1302
16476SOL    HW150848   5.545   0.278   0.189 -0.4548  1.0351  1.2411
16476SOL    HW250849   5.610   0.220   0.313 -1.6575 -0.6941  1.0931
16477SOL     OW50850   5.860   4.861   0.645  0.3702 -0.2011  0.3386
16477SOL    HW150851   5.953   4.876   0.661  0.5701 -0.5917 -0.4465
16477SOL    HW250852   5.856   4.825   0.557 -0.4132 -1.4987  0.8848
16478SOL     OW50853   4.951   6.287   5.827 -0.2849 -0.4462  0.5511
16478SOL    HW150854   4.915   6.241   5.751  0.3552  0.7218 -0.4941
16478SOL    HW250855   4.979   6.217   5.886  1.0798 -1.4537 -1.1806
16479SOL     OW50856   5.972   4.239   5.011 -0.1245  0.3186 -0.6958
16479SOL    HW150857   5.894   4.232   5.066  1.6437  1.4315  2.2015
16479SOL    HW250858   5.954   4.182   4.936 -2.8638 -1.0290  0.8176
16480SOL     OW50859   0.814   4.738   2.535  0.0530 -0.0948  0.1832
16480SOL    HW150860   0.860   4.711   2.615 -2.6908 -2.0863  1.2325
16480SOL    HW250861   0.762   4.813   2.562  0.2550  0.1712 -0.1603
16481SOL     OW50862   1.136   2.066   5.537  0.0722 -0.0825  0.0338
16481SOL    HW150863   1.069   2.019   5.487 -1.2938  0.6180  1.1298
16481SOL    HW250864   1.217   2.052   5.487 -0.1232 -3.9212  0.4907
16482SOL     OW50865   1.111   7.646   1.711 -0.6362 -0.3544  0.2450
16482SOL    HW150866   1.204   7.635   1.732 -0.7588  0.0646  1.0579
16482SOL    HW250867   1.107   7.728   1.663 -0.6944  0.0941  1.0059
16483SOL     OW50868   5.658   4.690   0.053 -0.2709  0.3967 -0.0954
16483SOL    HW150869   5.684   4.780   0.073 -0.9834  0.6809 -0.4189
16483SOL    HW250870   5.623   4.694  -0.036  2.2118 -0.7267 -1.2181
16484SOL     OW50871   3.097   2.114   0.892  0.0745  0.8796  0.1366
16484SOL    HW150872   3.131   2.062   0.819  0.7358 -0.2443  1.2024
16484SOL    HW250873   3.119   2.204   0.870 -2.4745  1.0288 -2.5445
16485SOL     OW50874   5.110   2.670   5.579 -0.0440 -0.2082 -0.2007
16485SOL    HW150875   5.076   2.733   5.515  0.6718  0.0666 -0.3129
16485SOL    HW250876   5.097   2.713   5.664 -0.1157 -0.1672 -0.2323
16486SOL     OW50877   1.732   5.609   8.171  1.0926 -0.4508 -0.2107
16486SOL    HW150878   1.782   5.678   8.128 -0.7718 -1.4198 -4.4600
16486SOL    HW250879   1.771   5.528   8.140 -0.4651 -1.2284 -0.2322
16487SOL     OW50880   4.176   7.160   7.850  0.7081  0.0792  0.0463
16487SOL    HW150881   4.196   7.249   7.820  0.0593 -0.4571 -2.2255
16487SOL    HW250882   4.236   7.145   7.923  1.6194  1.9677 -0.2451
16488SOL     OW50883   2.076   2.300   7.480  1.2086 -0.3485  0.1031
16488SOL    HW150884   2.139   2.308   7.551  0.8769 -0.1316  0.3754
16488SOL    HW250885   2.130   2.295   7.401  1.5661 -0.1144  0.3281
16489SOL     OW50886   3.350   8.204   3.109  0.4642 -0.1016  0.6089
16489SOL    HW150887   3.440   8.233   3.093  0.6661 -1.1414 -0.2247
16489SOL    HW250888   3.296   8.276   3.075  0.9687 -0.2002 -0.4581
16490SOL     OW50889   1.493   6.448   3.308  0.6220  0.5191  0.1072
16490SOL    HW150890   1.548   6.483   3.379  1.4591  1.0739 -0.7948
16490SOL    HW250891   1.550   6.387   3.261  0.7526  1.6574 -1.2854
16491SOL     OW50892   0.819   6.492   5.032 -0.1405 -0.0261  0.2072
16491SOL    HW150893   0.858   6.472   5.117 -1.6494  1.2490  1.2515
16491SOL    HW250894   0.781   6.579   5.043 -0.0216  0.3464 -1.9246
16492SOL     OW50895   3.590   3.568   1.577 -0.3310 -0.9644 -0.6123
16492SOL    HW150896   3.539   3.496   1.613 -2.9337  0.5326 -1.0143
16492SOL    HW250897   3.537   3.646   1.595  1.2593  0.5664 -2.1649
16493SOL     OW50898   7.502   3.644   6.238  0.0229 -0.2499  0.1329
16493SOL    HW150899   7.513   3.616   6.147 -0.6409  0.5324 -0.1961
16493SOL    HW250900   7.592   3.659   6.269  0.2118  0.7015 -0.7892
16494SOL     OW50901   0.088   3.461   1.857  0.5016  0.1211 -0.2564
16494SOL    HW150902   0.171   3.419   1.834 -0.6051 -2.2056 -0.3109
16494SOL    HW250903   0.071   3.522   1.786  1.3019 -0.6668 -1.1525
16495SOL     OW50904   2.450   3.496   6.651 -0.2143 -0.1156 -0.2160
16495SOL    HW150905   2.432   3.404   6.665 -2.3373 -0.0387 -1.8733
16495SOL    HW250906   2.448   3.535   6.738 -1.0746 -1.3473  0.3323
16496SOL     OW50907   8.224   3.291   2.047 -0.3836 -0.0997  0.0075
16496SOL    HW150908   8.238   3.216   1.990 -3.3893 -0.1804 -0.8066
16496SOL    HW250909   8.249   3.367   1.993 -1.2818 -0.2997 -0.7162
16497SOL     OW50910   4.897   1.732   4.796 -0.5720  0.3360  0.2087
16497SOL    HW150911   4.918   1.712   4.705  0.4458 -1.9962  0.8688
16497SOL    HW250912   4.810   1.693   4.810  0.3834 -1.7581  0.8475
16498SOL     OW50913   2.586   5.033   0.780 -0.3012  0.4189 -0.1183
16498SOL    HW150914   2.625   5.018   0.866  0.7970 -0.1436 -0.7026
16498SOL    HW250915   2.624   5.115   0.750 -0.4552  0.4616 -0.2002
16499SOL     OW50916   7.434   3.086   7.556 -0.8973  0.2117  0.2271
16499SOL    HW150917   7.416   3.172   7.520  1.0922  0.1437 -1.0305
16499SOL    HW250918   7.458   3.032   7.481  0.0172 -0.8445  1.2265
16500SOL     OW50919   4.627   8.278   7.070 -0.0811  0.1285 -0.1068
16500SOL    HW150920   4.655   8.232   6.991 -0.4026  0.3087 -0.3303
16500SOL    HW250921   4.534   8.295   7.056 -0.1030  0.3138  0.2382
16501SOL     OW50922   4.447   1.064   7.537 -0.3491  0.2919  0.8636
16501SOL    HW150923   4.355   1.086   7.555 -0.3929  0.2867  0.6494
16501SOL    HW250924   4.446   0.969   7.522 -0.5005  0.4668 -0.3121
16502SOL     OW50925   3.600   1.893   4.542 -0.6065  0.5330 -0.3583
16502SOL    HW150926   3.593   1.839   4.621  0.6191  2.2423  1.0160
16502SOL    HW250927   3.685   1.869   4.504 -0.8027  0.3177 -0.6541
16503SOL     OW50928   7.147   5.493   0.740 -0.4336  0.2947 -0.3214
16503SOL    HW150929   7.190   5.465   0.659 -0.3084 -0.7666  0.0879
16503SOL    HW250930   7.160   5.419   0.800 -1.5500  0.5667  0.2822
16504SOL     OW50931   0.390   5.596   8.235  0.0903 -0.0924 -0.6479
16504SOL    HW150932   0.396   5.675   8.289 -0.8742 -0.0201 -0.6209
16504SOL    HW250933   0.305   5.603   8.193 -0.6932 -1.8506  0.5229
16505SOL     OW50934   4.613   0.343   6.660  0.8148 -0.0781  0.1336
16505SOL    HW150935   4.583   0.398   6.732  1.3336 -1.5206  1.5090
16505SOL    HW250936   4.708   0.356   6.658  0.7372  0.4198 -0.7108
16506SOL     OW50937   7.777   1.300   1.530 -0.3431  0.0520 -0.3144
16506SOL    HW150938   7.754   1.352   1.608 -0.0400  0.8215 -0.7291
16506SOL    HW250939   7.764   1.209   1.558 -0.4238  0.3225  0.5784
16507SOL     OW50940   1.531   6.005   7.433 -0.5263 -0.0952  0.3724
16507SOL    HW150941   1.518   5.965   7.347 -1.4642  1.8208 -0.4333
16507SOL    HW250942   1.601   6.069   7.420 -1.5320  1.1108  0.6701
16508SOL     OW50943   1.352   4.554   2.016 -0.5262 -0.0721 -0.2243
16508SOL    HW150944   1.330   4.461   2.017 -0.5636 -0.0617  0.4520
16508SOL    HW250945   1.413   4.566   2.089 -2.8594  0.9756  1.6833
16509SOL     OW50946   5.008   4.717   0.833  0.6872  0.0302 -0.6046
16509SOL    HW150947   5.062   4.643   0.861  0.5168  0.8709  2.2624
16509SOL    HW250948   4.926   4.706   0.881  1.9348  3.8627  2.9855
16510SOL     OW50949   1.505   4.719   3.444  0.0988  0.1519  0.3041
16510SOL    HW150950   1.543   4.798   3.407 -0.7687  0.1499 -0.6222
16510SOL    HW250951   1.578   4.657   3.446  0.3719  0.4176 -0.6489
16511SOL     OW50952   5.496   6.679   7.368  0.3727 -0.2676  0.4906
16511SOL    HW150953   5.427   6.613   7.366 -0.1958  0.3275 -0.0090
16511SOL    HW250954   5.572   6.635   7.331  0.1398 -0.7937  0.6301
16512SOL     OW50955   3.669   6.915   0.427  0.0538  0.1237  0.0389
16512SOL    HW150956   3.615   6.984   0.390  0.2812 -0.9357 -2.4549
16512SOL    HW250957   3.742   6.961   0.468  0.0419  1.3754 -1.2877
16513SOL     OW50958   6.406   0.681   2.909  0.3820 -0.0942  0.6033
16513SOL    HW150959   6.322   0.710   2.874  1.6714  2.1426 -0.9260
16513SOL    HW250960   6.459   0.663   2.831  1.5677 -0.7233  1.5236
16514SOL     OW50961   4.019   7.361   4.885  0.6216 -0.1448 -0.5855
16514SOL    HW150962   4.112   7.365   4.863  0.2082  0.0795 -2.4383
16514SOL    HW250963   4.004   7.439   4.939  1.3188  0.3001 -1.0203
16515SOL     OW50964   1.318   4.232   0.529 -0.2542  0.0634 -0.8002
16515SOL    HW150965   1.368   4.256   0.451  0.6236 -0.7381 -0.5138
16515SOL    HW250966   1.298   4.139   0.517  1.9056 -0.7036  0.9397
16516SOL     OW50967   2.245   4.593   1.414  0.4863  0.5559  0.3732
16516SOL    HW150968   2.323   4.624   1.369  0.8505 -0.8422 -0.0157
16516SOL    HW250969   2.180   4.662   1.400  1.1456  0.9861 -0.7385
16517SOL     OW50970   1.106   6.430   4.371 -0.0599  0.2646 -0.3566
16517SOL    HW150971   1.057   6.348   4.369 -0.8436  0.7414 -1.3647
16517SOL    HW250972   1.198   6.403   4.365 -0.2061 -0.6070  1.0332
16518SOL     OW50973   3.329   7.252   4.736 -0.2160 -0.1348 -0.4220
16518SOL    HW150974   3.289   7.178   4.781  1.8888 -0.2469  1.3841
16518SOL    HW250975   3.257   7.314   4.722 -1.4821 -1.3833  0.4235
16519SOL     OW50976   2.759   1.512   5.880  0.6406  0.0065 -0.1507
16519SOL    HW150977   2.834   1.549   5.927  0.4625  0.0042  0.1316
16519SOL    HW250978   2.701   1.587   5.864 -0.0122 -0.2460  0.9605
16520SOL     OW50979   2.385   1.987   0.720  0.1702 -0.0109  0.6719
16520SOL    HW150980   2.405   2.075   0.688  0.4366 -0.9789 -2.1884
16520SOL    HW250981   2.297   1.994   0.757 -0.4463  1.1913 -0.9107
16521SOL     OW50982   2.012   3.894   3.946  0.3113  0.7747  0.1289
16521SOL    HW150983   1.979   3.831   4.010 -0.4688  0.4515 -0.5764
16521SOL    HW250984   1.933   3.934   3.909  0.7032  0.1738 -1.4085
16522SOL     OW50985   0.634   2.846   1.253  0.5436  0.7253  0.4353
16522SOL    HW150986   0.577   2.923   1.259  0.0059  0.4269 -0.5052
16522SOL    HW250987   0.666   2.832   1.342 -0.1708  1.4239  0.8142
16523SOL     OW50988   6.273   3.898   5.712 -0.3818 -0.7310  0.2464
16523SOL    HW150989   6.221   3.841   5.657 -1.8286 -0.7705  1.5746
16523SOL    HW250990   6.212   3.967   5.740  0.3287 -0.6269  1.6403
16524SOL     OW50991   3.590   7.818   5.393  0.8734  0.4679  0.3059
16524SOL    HW150992   3.654   7.864   5.338  1.1123 -0.2005  0.0171
16524SOL    HW250993   3.601   7.726   5.371 -1.0282  0.4184 -0.6739
16525SOL     OW50994   8.184   1.009   3.999 -0.3322 -0.0647 -0.0322
16525SOL    HW150995   8.244   0.995   4.072 -0.7376 -0.0855  0.3020
16525SOL    HW250996   8.218   1.085   3.953  0.1724 -0.3169 -0.0771
16526SOL     OW50997   7.570   5.545   5.609  0.2045  0.1848 -0.2928
16526SOL    HW150998   7.536   5.595   5.683  0.5299 -1.3136  0.9263
16526SOL    HW250999   7.573   5.608   5.537 -1.7619  1.2708  0.4758
16527SOL     OW51000   3.021   2.101   2.384 -0.2662 -0.4479 -0.1986
16527SOL    HW151001   3.007   2.039   2.455 -1.7707 -0.4371 -0.4625
16527SOL    HW251002   3.114   2.092   2.362  0.0505 -0.9852  1.2531
16528SOL     OW51003   7.811   1.408   0.034  0.3906 -0.5165  0.0886
16528SOL    HW151004   7.733   1.374   0.077 -0.7851  1.9103  0.0136
16528SOL    HW251005   7.806   1.373  -0.056 -1.0997  0.3202 -0.1738
16529SOL     OW51006   7.112   7.649   2.568  0.1192 -0.0472  0.2386
16529SOL    HW151007   7.136   7.572   2.619 -1.2786  0.3071  1.5103
16529SOL    HW251008   7.055   7.616   2.499 -0.6707 -0.1464  0.9246
16530SOL     OW51009   6.586   7.786   2.166 -0.0929 -0.2909 -0.0106
16530SOL    HW151010   6.569   7.849   2.096  0.7692 -1.7501 -1.5950
16530SOL    HW251011   6.513   7.799   2.227 -0.2086  1.8676 -0.5168
16531SOL     OW51012   5.442   3.267   0.353  0.5962  0.0948 -0.6317
16531SOL    HW151013   5.348   3.252   0.338  0.7796 -0.7383 -1.0246
16531SOL    HW251014   5.462   3.217   0.432  0.8842 -0.4749 -1.0521
16532SOL     OW51015   3.250   0.212   2.704 -0.5706  0.3853 -0.5340
16532SOL    HW151016   3.209   0.270   2.768  0.6213  1.2885 -0.5464
16532SOL    HW251017   3.338   0.197   2.739 -0.9234 -1.6507 -0.4089
16533SOL     OW51018   6.688   7.321   5.460  0.5375  0.1367  0.7378
16533SOL    HW151019   6.706   7.282   5.545  0.7459 -0.3513  0.4767
16533SOL    HW251020   6.743   7.400   5.457  0.9908 -0.1732  0.8103
16534SOL     OW51021   3.548   1.518   5.060  0.2474  0.1203  0.3760
16534SOL    HW151022   3.538   1.612   5.050 -1.4021 -0.0479  0.2496
16534SOL    HW251023   3.519   1.482   4.977 -1.2043 -0.5914  1.1512
16535SOL     OW51024   2.369   5.442   7.843  0.5380  0.9275 -0.1401
16535SOL    HW151025   2.281   5.407   7.828  1.3685 -1.3705  0.1056
16535SOL    HW251026   2.360   5.497   7.920  0.1481 -3.0987  2.9877
16536SOL     OW51027   7.168   7.763   7.657 -0.4713  0.7564  0.2468
16536SOL    HW151028   7.244   7.817   7.680  1.4742 -0.8666 -1.8224
16536SOL    HW251029   7.150   7.786   7.565 -0.4079 -1.0942 -0.2725
16537SOL     OW51030   2.667   4.688   3.021  0.1416 -0.0730  0.1928
16537SOL    HW151031   2.740   4.637   2.986 -0.2767 -1.1470  0.8387
16537SOL    HW251032   2.706   4.746   3.086  0.8141  1.4052 -1.4225
16538SOL     OW51033   0.013   0.051   2.446  0.1941  0.4892  0.2372
16538SOL    HW151034   0.088   0.088   2.399  0.4759  1.1613  1.1752
16538SOL    HW251035  -0.012   0.120   2.508 -1.9402  0.7441 -0.8287
16539SOL     OW51036   4.934   3.989   7.918  0.1217 -0.0709  0.3738
16539SOL    HW151037   5.014   3.988   7.971 -0.1682  2.0987  0.9480
16539SOL    HW251038   4.966   3.996   7.828  0.5798 -0.4566  0.5014
16540SOL     OW51039   4.062   3.791   3.620  0.5040 -0.0613 -0.1042
16540SOL    HW151040   4.037   3.741   3.542  0.8629 -2.3429  1.1447
16540SOL    HW251041   3.979   3.808   3.665 -0.0865  3.7706 -2.2199
16541SOL     OW51042   8.306   5.108   7.856  0.2154 -0.8271 -0.3758
16541SOL    HW151043   8.309   5.070   7.944  0.5748  0.2560  0.0988
16541SOL    HW251044   8.235   5.060   7.812 -1.8972  0.4501  1.4044
16542SOL     OW51045   6.240   4.969   6.512  0.0160  0.3474 -0.1266
16542SOL    HW151046   6.211   5.055   6.540  1.5685  1.1060 -0.7660
16542SOL    HW251047   6.259   4.922   6.593  2.2538  1.7341  0.2222
16543SOL     OW51048   1.059   0.839   3.817 -0.2476  0.3078  0.5509
16543SOL    HW151049   1.006   0.760   3.830  1.2892 -1.3021 -2.2186
16543SOL    HW251050   0.999   0.901   3.775 -0.7266 -0.3832  0.1986
16544SOL     OW51051   2.173   1.428   2.476  0.2379  0.5553  0.2382
16544SOL    HW151052   2.126   1.400   2.397  0.6780 -1.4247  0.6156
16544SOL    HW251053   2.250   1.370   2.479 -0.1621  0.0591  2.5134
16545SOL     OW51054   2.782   0.095   3.841  0.1494 -0.1536 -0.5665
16545SOL    HW151055   2.687   0.107   3.831  0.0575  1.4394  1.5456
16545SOL    HW251056   2.818   0.120   3.756 -1.2258  0.6260 -0.9648
16546SOL     OW51057   1.961   5.973   3.715 -0.2277  0.2795 -0.5203
16546SOL    HW151058   1.966   6.007   3.626 -2.6544 -0.0613 -0.8358
16546SOL    HW251059   1.997   5.885   3.709  1.5393  0.9623 -0.6834
16547SOL     OW51060   0.633   0.781   1.029  0.8438  0.1086  0.3074
16547SOL    HW151061   0.577   0.779   0.952  0.1870  1.3161  0.7230
16547SOL    HW251062   0.625   0.693   1.067  2.4179 -1.0444 -1.8027
16548SOL     OW51063   7.364   0.948   6.945  0.4372  0.2298 -0.7442
16548SOL    HW151064   7.425   0.935   7.018  0.7249  2.4537 -0.5201
16548SOL    HW251065   7.410   0.912   6.869  1.2788  0.2984 -0.2792
16549SOL     OW51066   4.030   0.981   1.889 -0.6381  0.0407  0.4297
16549SOL    HW151067   4.081   1.048   1.844 -0.2190  0.1930  1.1137
16549SOL    HW251068   4.056   0.899   1.846 -1.8087  0.3854 -0.9990
16550SOL     OW51069   4.125   3.533   1.494 -0.2353 -0.3605 -0.1926
16550SOL    HW151070   4.179   3.589   1.438 -0.5155 -0.3177 -0.4248
16550SOL    HW251071   4.035   3.560   1.474 -0.3686 -0.8483 -0.2541
16551SOL     OW51072   0.692   2.906   1.874 -0.0071  0.1949 -0.2902
16551SOL    HW151073   0.758   2.877   1.937 -0.3334 -2.6321 -1.1170
16551SOL    HW251074   0.687   3.001   1.887  2.0398  0.1107  1.8505
16552SOL     OW51075   2.911   4.040   5.187 -0.3807  0.0335  0.1553
16552SOL    HW151076   2.988   4.095   5.174 -0.3654 -0.2428 -0.9926
16552SOL    HW251077   2.946   3.951   5.192 -0.4815  0.0343  1.2656
16553SOL     OW51078   6.236   6.862   7.728  0.2171 -0.4242 -0.4726
16553SOL    HW151079   6.204   6.829   7.644  1.3486 -0.2903 -0.9795
16553SOL    HW251080   6.319   6.904   7.707  0.6738 -0.6577  0.7646
16554SOL     OW51081   4.747   8.164   5.887  0.2364  0.6325  0.1860
16554SOL    HW151082   4.654   8.163   5.867  0.0709  0.6580  0.9020
16554SOL    HW251083   4.767   8.257   5.902 -0.4583  0.3675  3.5549
16555SOL     OW51084   8.283   2.705   3.865  0.0774  0.5857  0.2451
16555SOL    HW151085   8.188   2.720   3.867 -0.2412 -1.2319  0.5148
16555SOL    HW251086   8.313   2.747   3.784 -1.7095 -2.5869 -2.2972
16556SOL     OW51087   6.643   6.301   1.907 -0.7744  0.1736  0.1347
16556SOL    HW151088   6.591   6.376   1.878 -0.4925  0.7499  1.0876
16556SOL    HW251089   6.650   6.245   1.830 -0.8289  1.2170 -0.6406
16557SOL     OW51090   2.020   2.526   0.886  0.0945  0.1488 -0.1665
16557SOL    HW151091   1.930   2.515   0.855  1.1285 -1.8394 -2.9033
16557SOL    HW251092   2.074   2.505   0.810  2.9110 -0.0732  1.7365
16558SOL     OW51093   4.576   5.990   3.372  0.1727 -0.5191 -0.2477
16558SOL    HW151094   4.651   5.987   3.313  0.6555 -0.2126  0.3341
16558SOL    HW251095   4.542   6.079   3.363  1.9490  0.5034  1.9434
16559SOL     OW51096   4.426   2.120   1.728 -0.5748  0.3789 -0.2945
16559SOL    HW151097   4.419   2.204   1.772 -1.5393  0.3125 -0.2848
16559SOL    HW251098   4.439   2.142   1.636  1.1678  0.5173 -0.0502
16560SOL     OW51099   1.483   5.010   3.633  0.6260 -0.4917  0.1248
16560SOL    HW151100   1.457   5.071   3.701  2.1085  0.7326 -0.3571
16560SOL    HW251101   1.406   4.953   3.621 -0.5098  0.7685  1.1286
16561SOL     OW51102   7.153   5.167   0.107  0.4804 -0.3302  0.0239
16561SOL    HW151103   7.194   5.189   0.023 -0.5074  0.0915 -0.3566
16561SOL    HW251104   7.221   5.185   0.172  1.1373 -0.3164 -0.6523
16562SOL     OW51105   4.975   4.426   1.243  0.0285  0.2354 -0.4153
16562SOL    HW151106   4.891   4.450   1.282  0.9168  2.6763  0.1664
16562SOL    HW251107   4.991   4.337   1.275 -0.8325  0.9005  2.1147
16563SOL     OW51108   5.574   8.110   6.723 -0.0576 -0.7078  0.3929
16563SOL    HW151109   5.506   8.043   6.723  0.1103 -1.0259 -2.7551
16563SOL    HW251110   5.634   8.083   6.653  0.3383  2.3618 -0.5928
16564SOL     OW51111   6.159   0.002   8.228 -0.1972 -0.6690 -0.4415
16564SOL    HW151112   6.109   0.083   8.241 -0.7837 -1.2155  0.9462
16564SOL    HW251113   6.236   0.013   8.284  0.5119 -0.4570 -1.4262
16565SOL     OW51114   4.799   4.680   0.347  0.8766  0.2322 -0.0298
16565SOL    HW151115   4.804   4.585   0.349 -1.6663  0.0464  0.0157
16565SOL    HW251116   4.824   4.707   0.435 -1.6068 -0.6693  1.0356
16566SOL     OW51117   0.560   5.817   4.101 -0.2158 -0.3485  0.0926
16566SOL    HW151118   0.633   5.794   4.044  0.8971  1.7186  0.5626
16566SOL    HW251119   0.508   5.879   4.050 -0.8566 -0.7097  0.2895
16567SOL     OW51120   3.171   7.832   1.076  0.6714 -0.0466 -0.2249
16567SOL    HW151121   3.083   7.796   1.091  0.1572  1.0230 -0.5951
16567SOL    HW251122   3.195   7.798   0.989 -0.4493  1.6615 -1.2614
16568SOL     OW51123   8.065   6.744   1.326 -0.3588  0.2728  0.2667
16568SOL    HW151124   8.140   6.784   1.370  1.6209 -0.2977 -2.3231
16568SOL    HW251125   7.989   6.773   1.377  1.1930  4.4619  0.6383
16569SOL     OW51126   1.373   3.595   5.583  0.5916 -0.3871  0.8245
16569SOL    HW151127   1.378   3.503   5.560  1.4799 -1.1506  3.6538
16569SOL    HW251128   1.281   3.618   5.571  0.7356 -0.9134 -2.0876
16570SOL     OW51129   4.582   0.895   2.194  0.0163 -0.4559 -0.5592
16570SOL    HW151130   4.487   0.907   2.189  0.1424  0.2810 -1.4654
16570SOL    HW251131   4.600   0.821   2.136  0.1010  0.0806 -1.2301
16571SOL     OW51132   3.256   4.669   2.144 -0.2066  0.3202 -0.4775
16571SOL    HW151133   3.183   4.607   2.141 -0.0347 -0.1046  1.7903
16571SOL    HW251134   3.216   4.754   2.161 -0.2454  0.1910  0.1165
16572SOL     OW51135   5.255   6.127   6.285 -0.0065  0.4535  0.7668
16572SOL    HW151136   5.251   6.153   6.193  1.0179 -0.0931  0.5590
16572SOL    HW251137   5.184   6.177   6.326 -0.6163  0.5431 -0.3469
16573SOL     OW51138   2.848   6.605   6.751 -0.3122  0.4806  0.5098
16573SOL    HW151139   2.773   6.657   6.723 -1.2934 -1.8821 -1.5966
16573SOL    HW251140   2.913   6.670   6.780 -2.2634  2.6953  0.1918
16574SOL     OW51141   5.976   3.831   0.523  0.2128  0.0876 -0.2445
16574SOL    HW151142   5.980   3.769   0.595 -1.2683  0.5921  0.3183
16574SOL    HW251143   5.909   3.796   0.465  2.0692 -0.8407 -1.9461
16575SOL     OW51144   8.044   7.348   1.127 -0.2178  0.5553  0.1395
16575SOL    HW151145   8.058   7.422   1.186  1.0460  1.5864 -1.3652
16575SOL    HW251146   8.116   7.288   1.146  0.3958  1.0520 -0.5526
16576SOL     OW51147   1.565   1.334   3.373  0.3347  0.2275 -0.1081
16576SOL    HW151148   1.506   1.344   3.298 -0.1386  1.4794  0.3949
16576SOL    HW251149   1.606   1.421   3.383  1.9224 -0.4771 -0.1464
16577SOL     OW51150   7.573   6.261   5.178  0.5292 -0.2405 -0.0925
16577SOL    HW151151   7.656   6.223   5.206  0.4151 -0.4788 -0.0698
16577SOL    HW251152   7.512   6.237   5.248  0.4132 -0.1830 -0.1740
16578SOL     OW51153   3.712   0.568   5.143 -0.3498  0.2129 -0.5910
16578SOL    HW151154   3.713   0.482   5.101  1.4204 -0.6198  0.9925
16578SOL    HW251155   3.625   0.574   5.183  0.3538 -2.0772  1.5231
16579SOL     OW51156   5.498   3.208   1.631 -0.3560  0.3165 -0.0578
16579SOL    HW151157   5.443   3.286   1.623 -2.0042 -0.7211  0.7252
16579SOL    HW251158   5.533   3.195   1.543 -0.4552  1.6392 -0.3128
16580SOL     OW51159   6.746   7.467   0.908 -0.2956 -0.3409 -0.3642
16580SOL    HW151160   6.734   7.466   1.003 -0.1765 -2.3042 -0.3417
16580SOL    HW251161   6.750   7.560   0.886 -1.6841  0.1902  1.3692
16581SOL     OW51162   0.597   2.102   2.774  0.0756 -0.2392 -0.5675
16581SOL    HW151163   0.665   2.127   2.836  0.1754  1.2709 -1.2608
16581SOL    HW251164   0.574   2.013   2.800  0.9254 -0.0695  0.9029
16582SOL     OW51165   2.011   0.577   6.273  0.3444 -0.3686 -0.7990
16582SOL    HW151166   2.079   0.644   6.268 -0.7987  1.0351  1.1830
16582SOL    HW251167   1.933   0.618   6.237 -0.5421 -0.3177  1.0530
16583SOL     OW51168   3.981   2.165   6.075  0.4522 -0.4758  0.6385
16583SOL    HW151169   4.012   2.256   6.077 -0.7303 -0.0351  0.0042
16583SOL    HW251170   3.919   2.160   6.148  0.1947 -0.6608  0.4038
16584SOL     OW51171   6.824   4.250   6.925  0.6704  0.4683 -0.4334
16584SOL    HW151172   6.832   4.306   6.848 -1.2368  3.0465  1.0701
16584SOL    HW251173   6.913   4.246   6.962  1.1964  0.9661 -1.6060
16585SOL     OW51174   3.035   3.031   2.139 -0.8724  0.4501  0.2920
16585SOL    HW151175   3.123   3.008   2.171 -1.3824  2.9547  4.1482
16585SOL    HW251176   3.049   3.111   2.088 -0.7790  0.1347 -0.1785
16586SOL     OW51177   4.548   4.094   1.359  0.1388 -0.4775 -0.1178
16586SOL    HW151178   4.470   4.075   1.410 -0.4941  0.4694 -0.7122
16586SOL    HW251179   4.575   4.182   1.386  1.3132 -0.9972  0.4662
16587SOL     OW51180   1.118   1.574   1.851 -0.4204  0.4137 -0.2875
16587SOL    HW151181   1.087   1.665   1.844 -1.4875  0.2939  1.8399
16587SOL    HW251182   1.170   1.573   1.932  1.5837 -0.4005 -1.5082
16588SOL     OW51183   3.093   3.059   3.906  0.1442  0.5533  0.1186
16588SOL    HW151184   3.145   3.010   3.969  0.1379  0.2357 -0.1226
16588SOL    HW251185   3.156   3.091   3.841  0.0961  0.5210  0.0550
16589SOL     OW51186   4.838   5.220   3.495 -0.0292 -0.2039  0.0936
16589SOL    HW151187   4.751   5.207   3.458 -0.4909  0.3727  0.9486
16589SOL    HW251188   4.896   5.223   3.419 -1.1232  2.2733 -0.7309
16590SOL     OW51189   7.534   5.769   1.214 -0.4131 -0.0532 -0.3896
16590SOL    HW151190   7.597   5.801   1.278  0.1148 -0.9064 -0.4670
16590SOL    HW251191   7.546   5.825   1.138  0.0558 -0.0322 -0.3036
16591SOL     OW51192   4.231   3.214   2.008  0.2496 -0.0451 -0.3295
16591SOL    HW151193   4.136   3.223   2.015  0.0370 -1.1226 -1.4995
16591SOL    HW251194   4.266   3.284   2.064 -1.2136  0.7559 -0.3723
16592SOL     OW51195   6.658   5.745   3.769 -0.0794 -0.6443  0.2646
16592SOL    HW151196   6.697   5.704   3.846  0.0719  1.1873  1.2159
16592SOL    HW251197   6.718   5.722   3.697  0.4079 -1.4187  0.9017
16593SOL     OW51198   0.896   3.739   4.537  0.1262  0.0058  0.6982
16593SOL    HW151199   0.833   3.757   4.467  0.6413 -0.9451 -0.0366
16593SOL    HW251200   0.842   3.713   4.612 -0.3975 -3.8020 -0.7731
16594SOL     OW51201   0.837   4.956   0.802 -0.4063 -0.7362 -0.0221
16594SOL    HW151202   0.844   4.884   0.739 -1.5043 -1.9349  1.1602
16594SOL    HW251203   0.756   5.001   0.779  0.3045  0.2035 -0.7916
16595SOL     OW51204   5.006   8.049   6.904  0.3626 -0.3481 -0.1760
16595SOL    HW151205   4.948   8.104   6.851  1.4585 -0.1829 -1.2533
16595SOL    HW251206   5.045   8.109   6.967  1.0308  0.0061 -0.9018
16596SOL     OW51207   6.972   4.032   4.261 -0.2149 -0.0297 -0.3757
16596SOL    HW151208   7.037   4.095   4.292 -1.1357  1.6883 -1.7425
16596SOL    HW251209   7.006   3.947   4.288  2.7829  0.7522 -1.3272
16597SOL     OW51210   0.851   2.385   5.179  0.0367 -0.3134 -0.1307
16597SOL    HW151211   0.760   2.395   5.204  0.1142 -0.5386  0.2480
16597SOL    HW251212   0.893   2.466   5.207  0.0134 -0.3340 -0.0378
16598SOL     OW51213   2.552   6.439   3.151  0.0389  0.2938  0.1558
16598SOL    HW151214   2.626   6.405   3.100 -1.2256  0.5016 -1.9494
16598SOL    HW251215   2.576   6.423   3.242  2.2230 -0.5447 -0.5028
16599SOL     OW51216   3.896   6.802   4.455 -0.1022 -0.9423 -0.2423
16599SOL    HW151217   3.947   6.733   4.498  0.2560 -0.2911  0.4032
16599SOL    HW251218   3.806   6.788   4.486  0.1878 -0.3365  0.9504
16600SOL     OW51219   1.186   7.250   7.646 -0.2844  0.5528  0.4676
16600SOL    HW151220   1.236   7.198   7.709 -1.1410 -0.1002  0.6334
16600SOL    HW251221   1.121   7.189   7.611  0.1426  0.9187 -1.0235
16601SOL     OW51222   6.249   0.034   7.265 -0.1616  0.2256  0.1607
16601SOL    HW151223   6.288   0.067   7.346 -0.9541  1.9761 -0.1091
16601SOL    HW251224   6.159   0.011   7.289  0.0077 -0.5579  0.0620
16602SOL     OW51225   3.220   2.660   1.976 -0.1718 -0.8125 -0.1989
16602SOL    HW151226   3.203   2.647   2.070 -0.6618 -4.1287 -0.6456
16602SOL    HW251227   3.314   2.675   1.971 -0.5006  2.8029  0.9833
16603SOL     OW51228   7.956   4.074   4.469 -0.0940  0.2121  0.3138
16603SOL    HW151229   7.873   4.028   4.480  0.1572 -0.2076  0.5271
16603SOL    HW251230   7.932   4.162   4.441 -0.7703  0.9572  2.8903
16604SOL     OW51231   4.877   5.556   4.409 -0.0503  0.4952  0.2273
16604SOL    HW151232   4.805   5.589   4.463  0.9062  1.2594  1.0553
16604SOL    HW251233   4.883   5.463   4.433  0.7941  0.9622  1.9754
16605SOL     OW51234   1.755   7.357   2.304 -0.2892 -0.3227 -0.1738
16605SOL    HW151235   1.736   7.289   2.370 -0.5406 -0.0297  0.0609
16605SOL    HW251236   1.712   7.435   2.338  1.4625  0.4248  0.4417
16606SOL     OW51237   5.576   4.638   5.361 -0.6021  0.3175  0.3016
16606SOL    HW151238   5.636   4.697   5.316 -0.1792 -0.3812 -0.0603
16606SOL    HW251239   5.609   4.550   5.341 -2.2168 -0.1195 -0.5905
16607SOL     OW51240   6.669   5.916   2.310  0.4093  0.3254 -0.3019
16607SOL    HW151241   6.651   5.941   2.401 -0.1989 -0.9367 -0.0577
16607SOL    HW251242   6.595   5.950   2.261  0.4470  0.4971 -0.2412
16608SOL     OW51243   1.837   7.534   2.598  0.1573 -0.2737 -0.0785
16608SOL    HW151244   1.764   7.551   2.539  2.0348 -0.5207 -2.6559
16608SOL    HW251245   1.874   7.620   2.616  0.1135 -0.2723  0.0046
16609SOL     OW51246   8.005   0.596   2.297  0.0206  0.1880 -0.0362
16609SOL    HW151247   7.946   0.654   2.249  0.7952  1.7695  0.8471
16609SOL    HW251248   7.988   0.615   2.389  1.5115  0.3113  0.2428
16610SOL     OW51249   6.275   0.496   8.044 -0.2497  0.4025 -0.1915
16610SOL    HW151250   6.235   0.527   7.962 -0.9104  0.6004  0.2055
16610SOL    HW251251   6.368   0.517   8.033 -0.3973  0.8220 -0.7210
16611SOL     OW51252   1.948   4.012   7.515 -0.3746 -0.0110  0.0064
16611SOL    HW151253   1.867   3.980   7.556 -0.5448 -1.2485 -1.2042
16611SOL    HW251254   1.938   4.107   7.513 -1.3071 -0.0773  0.8655
16612SOL     OW51255   3.477   2.638   4.704  0.9124 -0.0610  0.4980
16612SOL    HW151256   3.461   2.601   4.791 -0.1167  1.8462  1.1769
16612SOL    HW251257   3.410   2.597   4.648  0.4632 -0.0179  0.9977
16613SOL     OW51258   4.337   5.849   6.826 -0.0311  0.3802  0.3562
16613SOL    HW151259   4.307   5.882   6.910  0.4589  0.5488  0.4631
16613SOL    HW251260   4.321   5.920   6.764 -0.1747  0.3403  0.3461
16614SOL     OW51261   4.147   5.193   1.119  0.0230  0.2104  0.4064
16614SOL    HW151262   4.155   5.289   1.112  1.8194  0.2148  1.7877
16614SOL    HW251263   4.126   5.177   1.211  1.4038 -0.7516  0.5973
16615SOL     OW51264   3.986   6.769   7.317  0.3169 -0.3949  0.5896
16615SOL    HW151265   3.957   6.719   7.240 -3.0708 -0.5365  1.8010
16615SOL    HW251266   4.068   6.726   7.344  1.7867 -0.1831 -2.9618
16616SOL     OW51267   3.011   6.312   7.454 -0.3992  0.2680 -0.2836
16616SOL    HW151268   2.978   6.226   7.428 -2.6106  1.8783 -3.3290
16616SOL    HW251269   3.025   6.359   7.372  0.2652  3.0235  1.2745
16617SOL     OW51270   0.189   2.613   8.157  0.2536  0.7192 -0.4619
16617SOL    HW151271   0.223   2.622   8.068  2.4641 -0.9318  0.1421
16617SOL    HW251272   0.267   2.606   8.212 -1.0276  2.6465  1.7908
16618SOL     OW51273   4.138   0.316   2.532  0.6379  0.3101  0.6840
16618SOL    HW151274   4.082   0.383   2.571  1.4397  1.2453  0.2656
16618SOL    HW251275   4.140   0.338   2.438  1.4100  0.0822  0.6385
16619SOL     OW51276   4.964   7.056   4.784 -0.4088  0.0941 -0.0985
16619SOL    HW151277   5.051   7.057   4.743  0.5137 -0.0032  1.7396
16619SOL    HW251278   4.981   7.075   4.876 -2.7012  3.4007 -0.2105
16620SOL     OW51279   7.108   1.373   2.193 -0.5740 -0.1584 -0.2529
16620SOL    HW151280   7.028   1.324   2.176 -1.6372  0.6610  1.9829
16620SOL    HW251281   7.096   1.457   2.148 -0.5129 -0.4133 -0.7501
16621SOL     OW51282   7.503   2.334   5.288  0.0069  0.3821  0.2446
16621SOL    HW151283   7.427   2.375   5.330  0.8257  1.4636  0.7316
16621SOL    HW251284   7.481   2.241   5.285 -1.1517  0.6130  0.7639
16622SOL     OW51285   2.494   1.019   3.628 -0.6488 -0.3135  0.4219
16622SOL    HW151286   2.431   1.062   3.687 -0.1305  0.7238  0.2448
16622SOL    HW251287   2.543   1.091   3.588 -0.1558 -1.0560 -0.3546
16623SOL     OW51288   6.427   0.447   0.919  0.1022  0.0448 -0.2401
16623SOL    HW151289   6.369   0.463   0.994  0.0973  0.7025 -0.3803
16623SOL    HW251290   6.506   0.410   0.958 -0.1063 -0.1187  0.0348
16624SOL     OW51291   5.206   3.088   6.565  0.3918  0.0657 -0.3916
16624SOL    HW151292   5.264   3.012   6.568 -0.6005 -0.7972 -2.0417
16624SOL    HW251293   5.150   3.078   6.643  1.6590  0.3106  0.5907
16625SOL     OW51294   8.001   3.097   1.446 -0.0525  0.1280  0.0838
16625SOL    HW151295   8.018   3.009   1.413  0.2006  0.6438 -1.2619
16625SOL    HW251296   8.036   3.097   1.535  1.1140 -0.7570 -0.3486
16626SOL     OW51297   2.286   3.964   0.338 -0.0708  0.2358  0.5359
16626SOL    HW151298   2.239   3.909   0.401  0.0759  0.4213  0.8071
16626SOL    HW251299   2.378   3.961   0.367  0.1043 -0.1969 -0.0405
16627SOL     OW51300   2.289   2.788   6.762 -0.4321  0.0573  0.6685
16627SOL    HW151301   2.197   2.809   6.742  0.0531  1.1908 -0.4980
16627SOL    HW251302   2.295   2.795   6.857 -1.3189  1.0015  0.6776
16628SOL     OW51303   1.685   7.662   2.182  0.0478 -0.5825 -0.1229
16628SOL    HW151304   1.758   7.716   2.212 -0.0146  0.6733 -2.0040
16628SOL    HW251305   1.636   7.641   2.261  2.0437 -0.8964  1.1042
16629SOL     OW51306   4.086   2.218   3.117 -0.2630  0.1155  0.3748
16629SOL    HW151307   4.020   2.152   3.138 -0.6349 -0.1603 -1.4470
16629SOL    HW251308   4.156   2.204   3.181 -1.3981 -0.4309  1.5364
16630SOL     OW51309   5.936   1.090   3.296 -0.2557 -0.0659  0.2227
16630SOL    HW151310   5.848   1.058   3.316 -0.1373  0.1923  1.1784
16630SOL    HW251311   5.944   1.173   3.344  1.1504 -0.9649  1.6198
16631SOL     OW51312   3.875   1.586   7.263 -0.0425  0.0128 -0.3926
16631SOL    HW151313   3.843   1.656   7.205 -3.6419  0.5402  1.8858
16631SOL    HW251314   3.905   1.632   7.341 -2.2384 -0.8405  1.0448
16632SOL     OW51315   7.048   5.688   5.625  0.0111  0.0725 -0.2084
16632SOL    HW151316   6.979   5.754   5.629  0.7567  0.8413  0.4948
16632SOL    HW251317   7.057   5.667   5.532 -2.5682 -1.6057 -0.1863
16633SOL     OW51318   1.922   2.896   3.134 -0.1586 -0.4230 -0.1875
16633SOL    HW151319   2.011   2.923   3.111  0.0852 -0.9697  0.0913
16633SOL    HW251320   1.883   2.973   3.175  0.2833 -0.2696 -0.0527
16634SOL     OW51321   6.640   2.120   4.207 -0.5327 -0.3556  0.3567
16634SOL    HW151322   6.578   2.059   4.167  0.5569 -0.6382 -0.9929
16634SOL    HW251323   6.687   2.068   4.272  0.0616 -0.8621 -0.4525
16635SOL     OW51324   8.111   2.580   7.053  0.5569  0.0324  0.1989
16635SOL    HW151325   8.024   2.613   7.073  0.6024  0.7756 -0.7770
16635SOL    HW251326   8.125   2.509   7.116 -0.6694  0.0279  0.4818
16636SOL     OW51327   1.303   4.139   5.280  0.6385 -0.3843 -0.5699
16636SOL    HW151328   1.228   4.128   5.221 -1.7817 -0.7972  2.2985
16636SOL    HW251329   1.324   4.050   5.308 -0.7683 -0.0539  1.8689
16637SOL     OW51330   5.580   3.900   7.770  0.3731 -0.0670  0.3312
16637SOL    HW151331   5.489   3.914   7.745  0.7906  1.0256 -0.6936
16637SOL    HW251332   5.578   3.897   7.866 -0.8895 -1.3868  0.3039
16638SOL     OW51333   3.632   6.328   4.203  0.8150 -0.4237  0.2007
16638SOL    HW151334   3.605   6.240   4.177  0.3295 -0.2749  0.1950
16638SOL    HW251335   3.630   6.327   4.298 -0.8725  0.0798  0.2030
16639SOL     OW51336   3.404   7.770   4.136 -0.4750  0.5522 -0.1734
16639SOL    HW151337   3.477   7.748   4.079  1.4498 -0.8790  2.5688
16639SOL    HW251338   3.387   7.863   4.119 -0.4092  0.0869 -3.3125
16640SOL     OW51339   3.992   0.205   6.002  0.4896  0.0650 -0.1784
16640SOL    HW151340   4.057   0.241   5.943 -0.1605 -0.9211 -1.5456
16640SOL    HW251341   4.040   0.140   6.053  0.9507  0.5895  0.0631
16641SOL     OW51342   6.845   1.094   7.356 -0.1544 -0.2732 -0.4650
16641SOL    HW151343   6.923   1.042   7.373  1.0111  1.5618  0.0740
16641SOL    HW251344   6.786   1.073   7.428  0.0217 -1.3072 -0.6092
16642SOL     OW51345   5.966   6.337   1.554  0.3828  0.5730 -0.1204
16642SOL    HW151346   5.912   6.271   1.597  0.0344  1.7779  1.3777
16642SOL    HW251347   6.054   6.299   1.553 -0.0774 -0.5186 -0.6432
16643SOL     OW51348   4.856   2.471   0.197  0.1822  0.0906  0.4947
16643SOL    HW151349   4.921   2.483   0.266  1.6916 -1.0008 -0.6847
16643SOL    HW251350   4.833   2.378   0.201 -0.5560  0.2572  0.2392
16644SOL     OW51351   4.229   2.601   4.097  0.1536  0.6230  0.5018
16644SOL    HW151352   4.298   2.596   4.164  1.2186 -0.7761 -0.6327
16644SOL    HW251353   4.235   2.518   4.051 -1.9020  0.7403 -0.0687
16645SOL     OW51354   7.996   7.564   7.264 -0.6030  0.3593  0.2017
16645SOL    HW151355   7.935   7.601   7.200  1.0416  1.4852 -0.7942
16645SOL    HW251356   8.083   7.582   7.228  0.3409 -1.7455  1.2675
16646SOL     OW51357   3.561   5.252   4.014 -0.0546 -0.6043 -0.2648
16646SOL    HW151358   3.508   5.188   4.062 -1.7387  0.0405 -1.1778
16646SOL    HW251359   3.500   5.325   3.996 -0.0898 -1.4612 -4.7688
16647SOL     OW51360   5.662   3.538   3.573  0.7466 -0.3706 -0.1693
16647SOL    HW151361   5.715   3.520   3.495  0.5667  0.6570 -0.5413
16647SOL    HW251362   5.714   3.602   3.622  0.3608 -0.2071  0.0248
16648SOL     OW51363   2.710   1.801   8.250  0.4987  0.0531 -0.1222
16648SOL    HW151364   2.792   1.761   8.222  0.1528 -1.0221  0.3373
16648SOL    HW251365   2.702   1.775   8.342 -0.5327 -0.1511 -0.2631
16649SOL     OW51366   2.764   1.909   6.892  0.1696  0.2076 -0.6830
16649SOL    HW151367   2.840   1.884   6.839  1.0251  2.4412 -0.6359
16649SOL    HW251368   2.715   1.970   6.836 -0.4174  0.4504  0.0832
16650SOL     OW51369   5.551   6.090   3.392  0.2237 -0.4351  0.1857
16650SOL    HW151370   5.597   6.007   3.393  0.9045 -0.0613  1.3097
16650SOL    HW251371   5.619   6.156   3.408 -0.2937  0.3472 -0.7308
16651SOL     OW51372   3.191   0.763   0.886  0.2300  0.0222  0.5122
16651SOL    HW151373   3.249   0.714   0.944  1.3752 -0.0230 -0.6345
16651SOL    HW251374   3.216   0.855   0.899  1.4344 -0.0841 -0.8679
16652SOL     OW51375   0.517   2.366   2.148 -0.2904 -0.3047 -0.2224
16652SOL    HW151376   0.535   2.333   2.060 -0.9773 -0.5710 -0.2714
16652SOL    HW251377   0.593   2.419   2.171 -0.8008  1.1019 -1.6150
16653SOL     OW51378   0.130   2.813   5.692 -0.3728 -0.3084  0.0820
16653SOL    HW151379   0.071   2.792   5.620 -1.0468 -2.2433  1.1231
16653SOL    HW251380   0.186   2.736   5.700  0.5725  0.4324  0.7677
16654SOL     OW51381   0.169   0.730   7.647 -0.1397  0.4545 -0.3156
16654SOL    HW151382   0.225   0.746   7.571  1.5871  2.0938  1.1892
16654SOL    HW251383   0.230   0.709   7.717 -1.3377  2.4524  1.4459
16655SOL     OW51384   2.888   0.875   3.755 -0.7267  0.2967 -0.1578
16655SOL    HW151385   2.833   0.925   3.815 -0.4418  1.7450 -1.0350
16655SOL    HW251386   2.934   0.942   3.704  2.5797 -0.7806  1.1616
16656SOL     OW51387   4.444   2.858   0.092 -0.3607 -0.3441  0.0575
16656SOL    HW151388   4.510   2.821   0.033  0.8700  1.5225  0.1765
16656SOL    HW251389   4.495   2.905   0.159 -1.7818  1.0159  0.2526
16657SOL     OW51390   4.973   4.296   2.562 -0.1281  0.0719  0.1918
16657SOL    HW151391   5.044   4.247   2.605  1.0127  2.0061  0.6582
16657SOL    HW251392   4.922   4.230   2.516  0.6935 -1.6642  1.6503
16658SOL     OW51393   3.365   7.272   7.151  0.3511 -0.8036 -0.0568
16658SOL    HW151394   3.274   7.296   7.172  0.5146  0.1834 -0.4089
16658SOL    HW251395   3.358   7.222   7.070  0.1154 -0.7596 -0.0658
16659SOL     OW51396   4.412   0.104   0.293  0.4168  0.5152  0.8491
16659SOL    HW151397   4.414   0.167   0.221  0.2971  0.3710  0.7174
16659SOL    HW251398   4.368   0.027   0.256  0.9798  0.1813  0.8613
16660SOL     OW51399   4.329   1.908   2.300  0.4465 -0.4339  0.1584
16660SOL    HW151400   4.248   1.887   2.252  1.2412 -1.0511 -0.9604
16660SOL    HW251401   4.299   1.954   2.378 -0.9690 -0.3243 -0.4148
16661SOL     OW51402   7.540   1.219   7.479 -0.2843  0.2048 -0.9569
16661SOL    HW151403   7.561   1.297   7.428  1.4791  0.3026 -0.1387
16661SOL    HW251404   7.592   1.150   7.440 -0.9379 -0.3058 -0.9329
16662SOL     OW51405   5.519   3.410   2.944  0.3076  0.0229  0.1102
16662SOL    HW151406   5.578   3.483   2.960  1.3955 -0.7619 -0.2337
16662SOL    HW251407   5.469   3.436   2.866  1.4410 -0.0313 -0.6528
16663SOL     OW51408   1.528   2.470   4.304 -0.5865 -0.3895  0.1907
16663SOL    HW151409   1.528   2.375   4.304  0.5459 -0.4026 -0.0353
16663SOL    HW251410   1.450   2.494   4.355 -1.3940 -1.4093 -0.5104
16664SOL     OW51411   2.016   3.273   0.284 -0.0213 -0.7887  0.4712
16664SOL    HW151412   2.063   3.313   0.211 -1.5292 -0.1628 -0.2027
16664SOL    HW251413   1.996   3.345   0.343 -0.7854 -0.9101  0.3714
16665SOL     OW51414   5.118   2.213   7.718 -0.2941 -0.5193 -0.4183
16665SOL    HW151415   5.207   2.246   7.708 -0.5212  0.4742  0.6479
16665SOL    HW251416   5.074   2.279   7.772 -1.5751 -1.1716 -0.6360
16666SOL     OW51417   5.943   0.392   2.351  0.2956  0.1735 -0.1668
16666SOL    HW151418   5.969   0.465   2.407 -0.6372 -0.8919  1.7518
16666SOL    HW251419   5.898   0.434   2.278 -0.9316  1.5359  1.2763
16667SOL     OW51420   8.253   1.619   7.207  0.1405 -0.1243 -0.3673
16667SOL    HW151421   8.330   1.675   7.200 -0.3868  0.7090  0.2482
16667SOL    HW251422   8.180   1.681   7.219 -0.7680 -0.8291 -1.8975
16668SOL     OW51423   2.761   7.916   3.906  0.3424  0.0264  0.1512
16668SOL    HW151424   2.775   7.972   3.983 -0.6222 -0.0035  0.3624
16668SOL    HW251425   2.727   7.834   3.942 -0.7769  0.2545 -0.3489
16669SOL     OW51426   3.087   5.151   0.225 -0.2765 -0.2107  0.3209
16669SOL    HW151427   3.071   5.149   0.131 -2.7399  0.0035  0.6682
16669SOL    HW251428   3.055   5.066   0.257 -1.2037  0.4510  1.1888
16670SOL     OW51429   2.311   2.554   4.689 -0.2103 -0.0182  0.2351
16670SOL    HW151430   2.294   2.584   4.600 -2.0468  1.6086  1.0572
16670SOL    HW251431   2.399   2.586   4.709 -0.2252  0.5809 -0.6061
16671SOL     OW51432   2.643   2.632   7.145  0.2839 -0.0557  0.1726
16671SOL    HW151433   2.587   2.664   7.216 -0.0031 -0.4553  0.1308
16671SOL    HW251434   2.584   2.581   7.089  0.8987 -1.3808  0.6999
16672SOL     OW51435   7.531   2.844   1.056  0.1080 -0.1126 -0.3205
16672SOL    HW151436   7.585   2.907   1.008 -0.0685 -0.6759 -1.2847
16672SOL    HW251437   7.595   2.785   1.097  0.2643  0.4763  0.3006
16673SOL     OW51438   6.712   2.461   4.198  0.1166 -0.0240 -0.5519
16673SOL    HW151439   6.789   2.516   4.185  1.3231 -1.6578 -0.6441
16673SOL    HW251440   6.695   2.423   4.111  1.2546 -2.1811  0.0894
16674SOL     OW51441   8.355   3.612   5.152 -0.6540 -0.8611  0.2616
16674SOL    HW151442   8.411   3.690   5.149  0.1197 -1.3847 -3.1972
16674SOL    HW251443   8.389   3.561   5.226  0.1773  1.0760  1.2960
16675SOL     OW51444   7.386   3.856   4.732 -0.5626 -0.5519  0.2874
16675SOL    HW151445   7.384   3.951   4.746  0.5623 -0.4177 -0.3476
16675SOL    HW251446   7.293   3.831   4.727 -0.9543  1.0605 -2.9828
16676SOL     OW51447   2.525   7.276   6.588 -0.8247 -0.2818 -0.3536
16676SOL    HW151448   2.463   7.232   6.646  0.0492 -2.2212 -0.8246
16676SOL    HW251449   2.518   7.369   6.612 -2.8088 -0.6221  0.6035
16677SOL     OW51450   1.851   6.638   4.755 -0.5599  0.2694  0.1140
16677SOL    HW151451   1.925   6.588   4.790 -1.6888 -1.5084  0.0868
16677SOL    HW251452   1.810   6.676   4.832  0.9236  2.1511  0.0515
16678SOL     OW51453   7.091   2.335   3.761  0.1852 -0.0021 -0.3685
16678SOL    HW151454   7.152   2.407   3.741  0.3669 -0.1029 -0.1820
16678SOL    HW251455   7.011   2.358   3.713  0.2293  0.3409 -0.2836
16679SOL     OW51456   6.953   4.096   6.374 -0.7597 -0.0877 -0.1035
16679SOL    HW151457   6.863   4.062   6.373 -1.6195  1.8239 -3.3140
16679SOL    HW251458   7.008   4.017   6.372 -2.5197 -1.4047 -2.3334
16680SOL     OW51459   4.149   4.238   6.337 -0.2174 -0.3062  0.1708
16680SOL    HW151460   4.113   4.307   6.392  0.7767  1.5697 -1.3975
16680SOL    HW251461   4.189   4.176   6.398  0.4309  1.4287  1.5995
16681SOL     OW51462   1.839   1.324   7.550  0.2896  0.4369 -0.2835
16681SOL    HW151463   1.858   1.416   7.572  0.8540  0.6984 -1.7624
16681SOL    HW251464   1.824   1.324   7.456  0.5465 -1.0360 -0.3542
16682SOL     OW51465   4.113   1.552   2.464 -0.3582 -0.3041  0.4101
16682SOL    HW151466   4.083   1.643   2.457  0.0252 -0.1963  0.1552
16682SOL    HW251467   4.197   1.559   2.510 -0.6193 -0.5870  0.9429
16683SOL     OW51468   0.820   0.761   5.476  0.0641 -0.5227  0.5906
16683SOL    HW151469   0.788   0.716   5.555  0.8427 -2.2547 -0.0252
16683SOL    HW251470   0.769   0.723   5.405  1.4435 -1.2328 -0.0647
16684SOL     OW51471   4.779   0.051   0.794  0.1721 -0.3271  0.2061
16684SOL    HW151472   4.701  -0.004   0.784  0.6736 -0.8911 -0.7574
16684SOL    HW251473   4.746   0.133   0.832 -1.1502  0.0420 -1.6254
16685SOL     OW51474   1.575   7.855   6.962 -0.0312 -0.0687  0.5576
16685SOL    HW151475   1.664   7.879   6.986  0.2697 -1.3931  0.8130
16685SOL    HW251476   1.521   7.892   7.032  0.2521  1.0959  0.1884
16686SOL     OW51477   0.391   0.196   1.045  0.3745  0.1929 -0.5524
16686SOL    HW151478   0.330   0.223   1.114  1.2337  0.1249  0.2419
16686SOL    HW251479   0.335   0.181   0.969 -0.7629 -1.0176  0.4817
16687SOL     OW51480   1.640   2.731   3.469 -0.4578  0.0371 -0.3921
16687SOL    HW151481   1.677   2.644   3.486  2.2437  0.8739 -1.4402
16687SOL    HW251482   1.687   2.790   3.528 -1.3159  0.9891 -0.6162
16688SOL     OW51483   2.947   4.788   6.210  0.1674 -0.8160  0.5795
16688SOL    HW151484   2.923   4.696   6.223 -0.9303 -0.8996 -1.5960
16688SOL    HW251485   2.943   4.800   6.115  4.3032  0.4448  0.3963
16689SOL     OW51486   0.674   0.305   3.598 -0.0888  0.2053  0.1693
16689SOL    HW151487   0.670   0.364   3.523  0.0058  0.2596  0.2063
16689SOL    HW251488   0.753   0.253   3.583 -0.8324 -0.7591 -0.4879
16690SOL     OW51489   4.792   4.248   7.898  0.3072  0.2334 -0.5954
16690SOL    HW151490   4.826   4.161   7.921  1.7869  0.3838 -1.9948
16690SOL    HW251491   4.870   4.297   7.871 -0.2866  2.4437  1.3226
16691SOL     OW51492   6.555   1.282   3.450  0.0226 -0.9533 -0.0346
16691SOL    HW151493   6.591   1.311   3.366  0.3080  1.7253  0.9423
16691SOL    HW251494   6.599   1.335   3.515 -1.8409 -1.3564  1.6541
16692SOL     OW51495   7.284   5.028   6.026 -0.3188  0.3149 -0.4950
16692SOL    HW151496   7.363   5.037   6.078 -0.6096  1.6494 -0.2409
16692SOL    HW251497   7.213   5.018   6.090 -0.6537  1.7720 -0.5773
16693SOL     OW51498   0.187   3.875   5.473  0.0366  0.2370 -0.0384
16693SOL    HW151499   0.101   3.844   5.504 -0.2619 -0.1674 -1.2372
16693SOL    HW251500   0.167   3.935   5.401  0.6954  1.7808  1.0043
16694SOL     OW51501   2.832   7.257   0.735 -0.3326  0.1543 -0.2248
16694SOL    HW151502   2.746   7.222   0.758  0.1734  0.1378  1.8000
16694SOL    HW251503   2.865   7.196   0.669 -0.8649 -1.2379  0.7601
16695SOL     OW51504   8.274   3.455   4.944  0.2623 -0.0358  0.3775
16695SOL    HW151505   8.223   3.378   4.969  1.4283 -0.5325  1.2800
16695SOL    HW251506   8.275   3.510   5.022  1.1133 -0.0430  0.3836
16696SOL     OW51507   6.335   2.632   6.222  0.6202  0.7592  0.6351
16696SOL    HW151508   6.334   2.653   6.129  0.5375  0.1797  0.5009
16696SOL    HW251509   6.243   2.625   6.246  0.6497  0.0665  0.5607
16697SOL     OW51510   3.766   5.842   6.928 -0.0032  0.1416  0.2211
16697SOL    HW151511   3.733   5.765   6.975 -0.0662  0.4289  0.6524
16697SOL    HW251512   3.824   5.806   6.861 -2.7850 -0.5759 -1.9862
16698SOL     OW51513   3.811   2.858   3.696 -0.0000  0.1021 -0.1573
16698SOL    HW151514   3.871   2.925   3.663 -1.7485  1.4324 -0.7770
16698SOL    HW251515   3.739   2.857   3.632 -0.8410 -1.1502  0.7670
16699SOL     OW51516   4.920   2.358   2.109  0.2234  0.2942  0.3605
16699SOL    HW151517   4.832   2.395   2.102  0.1645  0.0854 -0.0119
16699SOL    HW251518   4.978   2.429   2.080  0.0410 -0.2540 -1.4624
16700SOL     OW51519   5.154   7.741   7.305 -0.6610  0.1354 -0.0124
16700SOL    HW151520   5.142   7.651   7.336  1.2583  0.7042  2.7464
16700SOL    HW251521   5.226   7.735   7.243 -0.1920 -0.2111  0.5484
16701SOL     OW51522   7.622   7.930   4.246 -0.2412 -0.2952 -0.3521
16701SOL    HW151523   7.680   7.854   4.234 -0.7185 -0.7876  0.3433
16701SOL    HW251524   7.581   7.942   4.161  3.1485  2.0526 -1.8546
16702SOL     OW51525   1.134   0.062   6.272 -0.3666  0.0260 -0.0256
16702SOL    HW151526   1.230   0.058   6.274 -0.0956  3.3972  0.2115
16702SOL    HW251527   1.107  -0.027   6.252  2.8227 -0.9902 -0.4598
16703SOL     OW51528   0.680   1.523   7.648  0.5710  0.6579  0.0563
16703SOL    HW151529   0.697   1.512   7.741  1.0577 -1.1962 -0.2082
16703SOL    HW251530   0.759   1.489   7.605  0.3155  1.3978 -1.0396
16704SOL     OW51531   1.777   5.586   1.093 -0.7938 -0.4144 -0.4606
16704SOL    HW151532   1.801   5.674   1.122 -1.8316 -0.0633 -0.6102
16704SOL    HW251533   1.840   5.565   1.024 -0.5244  0.2057 -0.4120
16705SOL     OW51534   2.883   5.556   2.032  0.0871  0.1923  0.2882
16705SOL    HW151535   2.819   5.485   2.036  0.2318  0.0886  0.7706
16705SOL    HW251536   2.929   5.552   2.116  0.9853  0.0206 -0.1973
16706SOL     OW51537   7.891   6.772   5.839 -0.1851  0.4707 -0.1143
16706SOL    HW151538   7.964   6.833   5.840  0.5883 -0.4375  0.2823
16706SOL    HW251539   7.838   6.799   5.763  1.1524  0.4664 -1.0823
16707SOL     OW51540   6.313   1.673   5.264  0.4939  0.2341 -0.1955
16707SOL    HW151541   6.225   1.684   5.299  0.2140  2.5648 -1.4382
16707SOL    HW251542   6.300   1.629   5.180  0.7363 -1.0513  0.4051
16708SOL     OW51543   6.042   4.894   0.154 -0.4362  0.2872  0.4711
16708SOL    HW151544   6.090   4.973   0.131  1.7707 -1.3712 -1.0197
16708SOL    HW251545   6.066   4.877   0.245  0.5861  0.3444  0.2240
16709SOL     OW51546   1.652   4.782   5.408  0.0027  0.6848  0.0540
16709SOL    HW151547   1.571   4.736   5.426 -0.6306  1.0113 -1.7941
16709SOL    HW251548   1.708   4.718   5.365  0.0070  0.9804 -0.3878
16710SOL     OW51549   7.222   2.389   2.049  0.1032 -0.5491 -0.0965
16710SOL    HW151550   7.149   2.328   2.059  1.2419 -1.8867  0.3823
16710SOL    HW251551   7.193   2.469   2.095 -1.0152 -1.0802  0.1507
16711SOL     OW51552   3.248   5.507   4.077  0.3879 -0.5986  0.1486
16711SOL    HW151553   3.215   5.467   4.158 -0.7969 -1.0667 -0.5364
16711SOL    HW251554   3.340   5.524   4.095  0.6738 -2.5983  0.8903
16712SOL     OW51555   6.131   7.713   7.073  0.4359  0.0151  0.5531
16712SOL    HW151556   6.141   7.692   7.166 -0.4079  0.2513  0.7060
16712SOL    HW251557   6.204   7.771   7.053  0.6579 -0.0915  1.0552
16713SOL     OW51558   3.807   2.578   1.047 -0.4495  0.5682  0.1055
16713SOL    HW151559   3.869   2.558   0.976 -1.2519 -1.1355 -0.1725
16713SOL    HW251560   3.721   2.564   1.008 -0.9678  1.3240  0.9467
16714SOL     OW51561   2.218   1.447   7.814 -0.3611 -0.2313  0.2869
16714SOL    HW151562   2.132   1.487   7.804 -0.0344  0.4601  0.1700
16714SOL    HW251563   2.278   1.508   7.770  0.3248 -0.1643  1.2823
16715SOL     OW51564   5.322   4.625   6.087  0.3074  0.0972  0.1706
16715SOL    HW151565   5.377   4.657   6.016 -1.0344  0.8343 -0.5865
16715SOL    HW251566   5.257   4.568   6.044  0.9663 -1.4544  1.1502
16716SOL     OW51567   0.918   4.171   6.535  0.0695 -0.3745  0.2082
16716SOL    HW151568   0.967   4.142   6.459 -0.5382 -0.1415 -0.2825
16716SOL    HW251569   0.985   4.199   6.598  0.6473 -2.2965  0.4973
16717SOL     OW51570   7.367   5.645   7.687  0.3943  0.3532 -0.1240
16717SOL    HW151571   7.458   5.675   7.680 -0.1381  2.1147 -0.0593
16717SOL    HW251572   7.338   5.635   7.596  1.1991 -2.1569 -0.1701
16718SOL     OW51573   8.356   6.631   3.231  0.0863 -0.5840 -0.2084
16718SOL    HW151574   8.388   6.593   3.312  1.0683 -0.3474 -0.4735
16718SOL    HW251575   8.397   6.578   3.162 -0.4935 -0.5911 -0.5546
16719SOL     OW51576   1.196   2.268   0.873  0.0607  0.1403  0.5615
16719SOL    HW151577   1.180   2.274   0.779  1.1107 -0.3881  0.3316
16719SOL    HW251578   1.285   2.299   0.884 -0.5036  1.4887  1.5729
16720SOL     OW51579   4.265   3.736   1.320 -0.4267  0.4319 -0.5999
16720SOL    HW151580   4.315   3.793   1.261 -1.2994  0.9479 -0.8529
16720SOL    HW251581   4.329   3.707   1.385  0.1008  1.4534 -0.6432
16721SOL     OW51582   1.618   3.916   5.926  0.1383  0.1676  0.7331
16721SOL    HW151583   1.586   3.832   5.893 -1.4507  0.7649  0.6428
16721SOL    HW251584   1.688   3.893   5.987  0.2800 -1.1686  0.0994
16722SOL     OW51585   5.957   0.882   3.677  0.7627  0.1506 -0.0755
16722SOL    HW151586   5.920   0.970   3.667 -1.2065 -0.4848  1.1038
16722SOL    HW251587   5.938   0.840   3.593 -0.6136  0.0821  0.2387
16723SOL     OW51588   1.519   0.230   8.227  0.2972 -0.8298 -0.4527
16723SOL    HW151589   1.519   0.138   8.253 -1.2688 -0.6062  0.5051
16723SOL    HW251590   1.478   0.276   8.300  0.0161  0.4724 -1.3785
16724SOL     OW51591   3.174   5.426   8.297  0.0219  0.2652 -0.3853
16724SOL    HW151592   3.253   5.469   8.330 -0.6494  0.6167  0.8332
16724SOL    HW251593   3.207   5.353   8.244  1.1679  1.4633 -1.3834
16725SOL     OW51594   7.293   6.849   7.943 -0.1410  0.3055  0.0857
16725SOL    HW151595   7.244   6.917   7.896 -0.7770  1.1004  1.7944
16725SOL    HW251596   7.341   6.802   7.875  0.8028  2.8425 -1.1316
16726SOL     OW51597   3.900   6.390   5.824  0.1889 -0.3429  0.3114
16726SOL    HW151598   3.958   6.451   5.779  0.6762  0.1426  1.5516
16726SOL    HW251599   3.957   6.318   5.851  0.3302  0.3118  1.8585
16727SOL     OW51600   2.016   6.792   4.187 -0.0194  0.1290 -0.6424
16727SOL    HW151601   1.994   6.851   4.259 -1.4826 -0.3394 -0.6830
16727SOL    HW251602   1.961   6.715   4.201  0.6833 -0.5533 -1.4967
16728SOL     OW51603   6.243   3.496   3.378  0.4073  0.5158  0.0458
16728SOL    HW151604   6.308   3.495   3.447 -0.0001  0.1881  0.4229
16728SOL    HW251605   6.160   3.508   3.423 -0.1299 -2.0004 -0.1719
16729SOL     OW51606   2.865   4.853   0.062  0.2666 -0.6526 -0.2202
16729SOL    HW151607   2.774   4.822   0.070 -0.8526  2.4155  0.2038
16729SOL    HW251608   2.886   4.888   0.148  1.2126  0.2426 -0.7929
16730SOL     OW51609   4.563   8.358   5.084  0.4204 -0.0643 -0.2959
16730SOL    HW151610   4.503   8.422   5.046 -0.9408 -0.7901  0.5610
16730SOL    HW251611   4.640   8.360   5.026 -0.9692 -0.0788 -2.2567
16731SOL     OW51612   5.520   1.028   8.139 -0.4514 -0.1409 -0.5618
16731SOL    HW151613   5.549   0.955   8.084 -0.4683 -0.3585 -0.2818
16731SOL    HW251614   5.575   1.022   8.217 -2.2369 -1.4824  0.6779
16732SOL     OW51615   3.777   1.219   0.150  0.1990 -0.0963 -0.2225
16732SOL    HW151616   3.841   1.281   0.184  0.5505 -0.1438 -0.7841
16732SOL    HW251617   3.696   1.269   0.142  0.2479  0.0499  0.1780
16733SOL     OW51618   5.026   2.549   8.311  0.2614  0.1924  0.4723
16733SOL    HW151619   5.021   2.471   8.366  0.2914  0.8837  1.4991
16733SOL    HW251620   5.093   2.528   8.246  1.8714  0.1279  2.0601
16734SOL     OW51621   5.887   6.212   5.117 -0.5805 -0.4383  1.0685
16734SOL    HW151622   5.896   6.307   5.115  0.0447 -0.5043  0.3240
16734SOL    HW251623   5.793   6.196   5.104 -0.4792  0.0365 -0.3777
16735SOL     OW51624   2.354   7.340   0.190  1.1444  0.5882  0.1950
16735SOL    HW151625   2.410   7.312   0.263  0.6880 -0.5269  0.1287
16735SOL    HW251626   2.356   7.267   0.129 -0.5109  0.4428  0.2659
16736SOL     OW51627   1.158   0.248   6.483 -0.8843  0.2072 -0.3256
16736SOL    HW151628   1.248   0.222   6.501 -0.9247  0.1983 -0.1286
16736SOL    HW251629   1.123   0.177   6.429 -1.3201 -0.7079  1.0915
16737SOL     OW51630   5.999   6.968   6.110 -0.1181 -0.1352  0.2323
16737SOL    HW151631   5.959   6.934   6.190 -0.1146 -2.1297 -0.5493
16737SOL    HW251632   6.093   6.959   6.124 -0.1198 -0.5911 -0.0130
16738SOL     OW51633   3.192   7.815   0.378  0.1649  0.0843 -0.2024
16738SOL    HW151634   3.155   7.743   0.327  1.4499  0.2655 -1.4475
16738SOL    HW251635   3.186   7.785   0.469 -0.0158 -1.2669 -0.6321
16739SOL     OW51636   5.206   6.760   2.161  0.3036 -0.4132 -0.2485
16739SOL    HW151637   5.188   6.667   2.170 -0.0154 -0.1455  3.4771
16739SOL    HW251638   5.241   6.786   2.246  0.2565  2.9115 -1.1030
16740SOL     OW51639   3.972   5.154   3.675  0.1769  0.2728 -0.8107
16740SOL    HW151640   3.881   5.182   3.688 -0.3649 -1.1730 -1.3563
16740SOL    HW251641   4.023   5.213   3.731 -1.2129  0.2563  0.5340
16741SOL     OW51642   7.999   7.471   5.728  0.0456  0.6267  0.3952
16741SOL    HW151643   7.912   7.476   5.768 -0.7736  0.4812 -1.2988
16741SOL    HW251644   7.982   7.466   5.634  1.9094  1.0836 -0.0017
16742SOL     OW51645   5.765   0.244   0.437 -0.1776  0.4101  0.6818
16742SOL    HW151646   5.786   0.196   0.517 -0.3975 -0.0229  0.4786
16742SOL    HW251647   5.832   0.217   0.374  0.2378  1.0546  0.8312
16743SOL     OW51648   3.873   3.255   4.393  0.2144  0.0316  0.1480
16743SOL    HW151649   3.853   3.234   4.484  0.9239 -0.5419  0.1768
16743SOL    HW251650   3.955   3.304   4.397  0.0905  0.2723 -0.1664
16744SOL     OW51651   4.801   2.775   4.793 -0.2543  0.4701 -0.4563
16744SOL    HW151652   4.778   2.685   4.771  1.7657 -0.2467  0.1938
16744SOL    HW251653   4.804   2.820   4.708 -1.8030  0.0971 -0.7378
16745SOL     OW51654   6.719   3.729   6.365 -0.4334  0.6164  0.3630
16745SOL    HW151655   6.731   3.824   6.366  2.7624  0.3432 -0.7686
16745SOL    HW251656   6.736   3.701   6.455 -1.4549  1.0776  0.7142
16746SOL     OW51657   7.333   1.008   4.146 -0.7009 -0.2111  0.0942
16746SOL    HW151658   7.414   1.058   4.135  0.9111 -1.8593  3.2763
16746SOL    HW251659   7.275   1.067   4.194 -1.1135  0.6520 -1.4044
16747SOL     OW51660   4.327   2.554   6.359 -0.9027  0.0748 -0.0078
16747SOL    HW151661   4.342   2.593   6.273 -2.3067  4.0012  1.3219
16747SOL    HW251662   4.402   2.583   6.411 -0.6591 -1.2944  0.4332
16748SOL     OW51663   5.594   4.675   7.660 -0.5260 -0.3138  0.4981
16748SOL    HW151664   5.517   4.632   7.697 -0.4260 -1.1102 -0.1947
16748SOL    HW251665   5.595   4.649   7.568  0.1914  0.2443  0.3321
16749SOL     OW51666   3.973   5.064   4.739  0.2034 -0.0558 -0.1851
16749SOL    HW151667   3.909   5.117   4.788  0.0248 -2.2855  2.2370
16749SOL    HW251668   3.930   5.046   4.656  0.1756  3.2630 -1.0266
16750SOL     OW51669   3.659   6.107   1.126 -0.2114 -0.4746 -0.2280
16750SOL    HW151670   3.609   6.087   1.047  1.0807 -3.3397 -0.4476
16750SOL    HW251671   3.698   6.193   1.108 -0.5115 -0.7296 -2.4080
16751SOL     OW51672   7.960   3.654   6.118  0.0368 -0.0942  0.0811
16751SOL    HW151673   7.964   3.563   6.146 -0.6134 -0.2907 -0.4250
16751SOL    HW251674   7.992   3.653   6.028  1.3896  0.4132  0.5289
16752SOL     OW51675   6.369   3.877   0.991  0.1206  0.4722 -0.0832
16752SOL    HW151676   6.323   3.961   0.997 -1.2908 -0.2069 -0.9224
16752SOL    HW251677   6.312   3.815   1.036  1.4264  0.0418  1.0269
16753SOL     OW51678   4.788   6.233   3.157  0.1182  0.0089  0.2030
16753SOL    HW151679   4.798   6.276   3.243 -0.7548  0.4757  0.0824
16753SOL    HW251680   4.754   6.302   3.100  0.8980 -0.2374 -0.5870
16754SOL     OW51681   6.537   7.022   1.238 -0.7810  0.0655  0.0374
16754SOL    HW151682   6.617   7.016   1.290 -1.9036 -0.9003  1.8017
16754SOL    HW251683   6.511   7.113   1.244  0.7525  0.6547 -1.5430
16755SOL     OW51684   4.059   7.545   2.303  0.2603 -0.0248 -0.0384
16755SOL    HW151685   4.034   7.500   2.384  0.6754 -0.7892 -0.3238
16755SOL    HW251686   4.072   7.475   2.240  1.0555  0.4870 -0.4655
16756SOL     OW51687   1.067   2.640   2.930  0.0106  0.4238 -0.1927
16756SOL    HW151688   1.143   2.610   2.879 -0.5107 -0.2783 -0.5700
16756SOL    HW251689   1.063   2.734   2.913  0.5671  0.4049 -0.4775
16757SOL     OW51690   8.273   0.705   4.918 -0.3032 -0.1175 -0.0350
16757SOL    HW151691   8.291   0.798   4.902  0.6813 -0.3653 -0.4296
16757SOL    HW251692   8.236   0.703   5.006 -2.1883  0.8506 -0.7409
16758SOL     OW51693   0.901   4.364   8.234 -0.7631 -0.2695  0.1168
16758SOL    HW151694   0.911   4.270   8.250 -0.3303 -0.2440  0.0067
16758SOL    HW251695   0.962   4.382   8.162 -2.3911 -0.3206 -1.3478
16759SOL     OW51696   1.560   7.873   7.358  0.3729  0.6708  0.0767
16759SOL    HW151697   1.572   7.943   7.422 -0.5789  1.3364 -0.4494
16759SOL    HW251698   1.498   7.908   7.295 -0.2441 -0.6929 -0.1224
16760SOL     OW51699   4.850   1.893   1.543  0.5190 -0.3764 -0.0760
16760SOL    HW151700   4.887   1.958   1.484  0.8841  1.4321  1.9922
16760SOL    HW251701   4.768   1.932   1.574  0.3709 -1.2189  0.6490
16761SOL     OW51702   1.263   3.715   1.538  0.0999 -0.4705  0.3872
16761SOL    HW151703   1.197   3.785   1.540  0.8920  0.2705  1.5228
16761SOL    HW251704   1.249   3.667   1.620  0.5167 -0.7532  0.2960
16762SOL     OW51705   3.620   6.420   1.553 -0.0708 -0.1620 -0.1292
16762SOL    HW151706   3.624   6.494   1.493  1.3697 -0.7439 -0.7780
16762SOL    HW251707   3.696   6.366   1.532 -0.1334 -0.9584  1.4789
16763SOL     OW51708   7.545   7.752   5.468 -0.5356  0.0946  0.0670
16763SOL    HW151709   7.571   7.663   5.494  2.2208  0.0294 -2.3286
16763SOL    HW251710   7.565   7.806   5.545  0.8217 -0.9735  0.5125
16764SOL     OW51711   5.057   6.922   1.897  0.2738  0.1012  0.3326
16764SOL    HW151712   5.048   7.013   1.871 -0.4691  0.7364  2.6022
16764SOL    HW251713   4.972   6.883   1.881  0.5145 -0.1417 -0.3883
16765SOL     OW51714   1.611   4.242   4.466  0.1984 -0.4970 -0.0340
16765SOL    HW151715   1.531   4.238   4.519 -1.4333 -2.4678 -2.3938
16765SOL    HW251716   1.665   4.170   4.500 -0.3824 -1.0850 -0.3182
16766SOL     OW51717   0.691   3.490   2.723  0.5139 -0.1064 -0.1426
16766SOL    HW151718   0.739   3.572   2.710 -1.5133  1.6161  2.2392
16766SOL    HW251719   0.627   3.488   2.652  1.4392 -0.3589 -0.9893
16767SOL     OW51720   4.362   0.983   3.747 -0.1735  0.1713  0.2305
16767SOL    HW151721   4.411   0.973   3.828 -0.6073 -0.6070  0.4128
16767SOL    HW251722   4.270   0.969   3.772 -0.3720  0.4962 -0.2914
16768SOL     OW51723   4.692   4.181   7.017  0.3406 -0.0280  0.1738
16768SOL    HW151724   4.781   4.149   7.030  0.5827  0.9740  1.1553
16768SOL    HW251725   4.673   4.162   6.925  0.9432 -1.7151  0.3723
16769SOL     OW51726   0.507   2.139   3.799  0.5122  0.2391 -0.4315
16769SOL    HW151727   0.423   2.091   3.795  1.9153 -2.3990 -0.7534
16769SOL    HW251728   0.502   2.202   3.728 -2.5032  2.6339  1.6312
16770SOL     OW51729   7.978   6.995   6.062  0.1820  0.3489 -0.3815
16770SOL    HW151730   8.058   6.947   6.040  0.7673  0.6088  1.0969
16770SOL    HW251731   7.927   6.934   6.116  0.8595  1.2802  1.3802
16771SOL     OW51732   1.760   5.238   6.425  0.2268 -0.6133  0.5264
16771SOL    HW151733   1.705   5.247   6.503 -1.0073 -0.3085 -0.3683
16771SOL    HW251734   1.794   5.326   6.410 -0.7868 -0.3310 -0.1761
16772SOL     OW51735   7.955   6.926   5.212 -0.6819 -0.1396  0.4636
16772SOL    HW151736   8.014   6.972   5.271 -2.4656  1.0076  1.4570
16772SOL    HW251737   7.968   6.833   5.233  1.0844  0.0309  0.2766
16773SOL     OW51738   5.380   5.837   7.830  0.1662  0.0456  0.2364
16773SOL    HW151739   5.467   5.866   7.859 -0.6304  2.9339  0.0602
16773SOL    HW251740   5.340   5.800   7.908  0.1857  2.3400  1.4242
16774SOL     OW51741   0.349   6.032   4.712 -0.5270 -0.0039  0.2299
16774SOL    HW151742   0.372   6.124   4.720  2.5733 -0.7818  1.6311
16774SOL    HW251743   0.331   6.004   4.802  0.6637 -1.1875  0.1358
16775SOL     OW51744   7.134   1.465   6.515 -1.1745 -0.1203  0.4184
16775SOL    HW151745   7.118   1.398   6.581 -2.6092  1.1068  1.3741
16775SOL    HW251746   7.125   1.420   6.431 -0.7919 -1.3849  1.0475
16776SOL     OW51747   2.578   2.954   6.253 -0.1785 -0.7323  0.0993
16776SOL    HW151748   2.489   2.918   6.248 -0.9716  1.1430  0.0329
16776SOL    HW251749   2.632   2.891   6.205 -1.4636 -1.8931  0.1247
16777SOL     OW51750   0.475   5.538   1.508 -0.1897  0.1029  0.1982
16777SOL    HW151751   0.474   5.491   1.591  1.0332 -0.1768  0.0680
16777SOL    HW251752   0.563   5.575   1.501 -0.6858  1.2523 -0.3614
16778SOL     OW51753   7.288   5.948   1.397 -0.3008 -0.2316  0.3970
16778SOL    HW151754   7.259   5.865   1.359 -0.1278 -0.1973  0.1892
16778SOL    HW251755   7.288   5.933   1.492  0.5548 -0.7320  0.3185
16779SOL     OW51756   4.495   4.684   8.133 -0.2476 -0.3808 -0.5806
16779SOL    HW151757   4.576   4.731   8.153 -0.2733 -0.3068 -0.6459
16779SOL    HW251758   4.524   4.600   8.097 -0.1969 -0.2160 -0.9274
16780SOL     OW51759   1.702   7.818   1.958  0.1635 -0.0995  0.0842
16780SOL    HW151760   1.687   7.907   1.989 -0.4203 -0.0877 -0.2164
16780SOL    HW251761   1.692   7.763   2.036  1.1439  0.1494  0.3920
16781SOL     OW51762   6.201   0.972   3.231  0.5733 -0.1876  0.0450
16781SOL    HW151763   6.237   0.886   3.212 -2.6102 -1.5752 -0.3309
16781SOL    HW251764   6.263   1.011   3.293  2.7820 -2.1606 -0.7722
16782SOL     OW51765   7.737   1.599   4.217 -0.3215 -0.2434 -0.0643
16782SOL    HW151766   7.664   1.660   4.209  0.3874  0.7121  0.5755
16782SOL    HW251767   7.811   1.645   4.177 -0.0306 -1.1461 -0.5912
16783SOL     OW51768   2.404   4.830   0.603 -0.1974  0.1928 -0.0025
16783SOL    HW151769   2.456   4.867   0.674  0.8661 -0.0383 -0.6459
16783SOL    HW251770   2.340   4.899   0.582 -1.6796 -0.3696  2.2924
16784SOL     OW51771   3.785   7.242   6.603  0.0312  0.1167  0.2292
16784SOL    HW151772   3.861   7.232   6.660  0.0263  0.0153  0.2187
16784SOL    HW251773   3.797   7.327   6.562 -0.5741  0.7333  1.2833
16785SOL     OW51774   3.418   2.090   6.923  0.1157  0.5049  0.3129
16785SOL    HW151775   3.510   2.063   6.926  0.6190  1.9170 -1.2363
16785SOL    HW251776   3.421   2.185   6.913 -1.4505  0.4025 -1.9109
16786SOL     OW51777   4.693   3.659   5.598  0.3277 -0.1805 -0.5789
16786SOL    HW151778   4.750   3.614   5.661 -1.3447  0.0768  1.2295
16786SOL    HW251779   4.629   3.704   5.653 -0.7167  0.7520 -2.4883
16787SOL     OW51780   5.985   6.508   7.858  0.1592  0.7497 -0.4752
16787SOL    HW151781   6.072   6.482   7.888  0.0889  0.4358 -0.5352
16787SOL    HW251782   5.964   6.586   7.908 -0.1840 -0.0756  0.7007
16788SOL     OW51783   5.225   3.728   4.023  0.3289 -0.7336  0.1651
16788SOL    HW151784   5.136   3.694   4.037  0.9591 -2.2124  0.8848
16788SOL    HW251785   5.220   3.820   4.047 -1.2642 -0.5124 -0.9152
16789SOL     OW51786   7.464   4.258   8.345  0.1084 -0.2742  0.4979
16789SOL    HW151787   7.373   4.251   8.317 -0.1994 -0.0473  1.4099
16789SOL    HW251788   7.484   4.352   8.341 -0.2403 -0.1117  1.8918
16790SOL     OW51789   0.046   3.141   2.524 -0.2916  0.3635 -0.6437
16790SOL    HW151790   0.037   3.202   2.598  0.0647 -0.7895  0.3815
16790SOL    HW251791   0.115   3.179   2.470 -0.0331  0.8376  0.0105
16791SOL     OW51792   6.300   4.493   1.756  0.0591 -0.3965 -0.0479
16791SOL    HW151793   6.231   4.467   1.816  0.1683 -0.7747 -0.0855
16791SOL    HW251794   6.336   4.573   1.795 -0.6725  0.0380 -0.2493
16792SOL     OW51795   8.334   2.838   4.520 -0.2453  0.4841  0.8166
16792SOL    HW151796   8.390   2.766   4.550  2.3980  2.0536  0.0161
16792SOL    HW251797   8.344   2.837   4.425 -1.4409  0.9648  0.6704
16793SOL     OW51798   0.664   0.283   6.571  0.3383  0.1260 -0.2189
16793SOL    HW151799   0.671   0.295   6.666  4.1895 -1.7914 -0.0382
16793SOL    HW251800   0.618   0.200   6.561  2.1228 -0.9883  0.2347
16794SOL     OW51801   6.868   4.273   7.983 -0.3051  0.5367 -0.2077
16794SOL    HW151802   6.945   4.222   7.959  0.1321  0.2920  1.5418
16794SOL    HW251803   6.873   4.352   7.930  0.8730  0.2862 -0.4879
16795SOL     OW51804   5.061   1.321   5.026  0.2436  0.2936  0.2735
16795SOL    HW151805   4.987   1.308   4.967  1.5736 -1.9997 -1.0433
16795SOL    HW251806   5.084   1.413   5.017 -1.6516  0.7598 -0.2115
16796SOL     OW51807   2.497   3.880   5.928  0.2218 -0.3550  0.4804
16796SOL    HW151808   2.449   3.945   5.980  0.7806 -0.1132  0.7037
16796SOL    HW251809   2.430   3.835   5.878 -0.0047  2.1279 -1.6461
16797SOL     OW51810   5.953   7.607   2.538  0.0090 -0.0856 -0.0903
16797SOL    HW151811   5.953   7.641   2.627 -0.1816  0.8643 -0.4455
16797SOL    HW251812   5.861   7.603   2.513 -0.0444 -1.6212  0.2061
16798SOL     OW51813   2.888   4.217   0.448 -0.4646  0.7167  0.3257
16798SOL    HW151814   2.884   4.311   0.432 -0.1354  1.0595  1.9876
16798SOL    HW251815   2.915   4.179   0.365 -0.1025  2.1494 -0.2405
16799SOL     OW51816   0.702   3.243   2.134  0.0954  0.1820 -0.2637
16799SOL    HW151817   0.701   3.148   2.145  0.0029  0.0685 -1.2114
16799SOL    HW251818   0.754   3.258   2.055  0.7421  0.9728  0.2892
16800SOL     OW51819   6.224   3.312   0.598  0.3632 -0.1258  0.2853
16800SOL    HW151820   6.268   3.228   0.591  0.0109 -0.3325  0.5295
16800SOL    HW251821   6.295   3.376   0.596  0.5203 -0.2376 -2.6620
16801SOL     OW51822   3.639   7.910   7.844 -0.0243 -0.3205 -0.3918
16801SOL    HW151823   3.610   7.994   7.808  0.3468 -0.1441 -0.2931
16801SOL    HW251824   3.708   7.881   7.783  1.3865  0.5122  0.7406
16802SOL     OW51825   6.792   7.270   2.581  0.1490 -0.6238  0.7822
16802SOL    HW151826   6.780   7.312   2.666 -1.6290 -0.0978  0.3221
16802SOL    HW251827   6.703   7.251   2.551  0.6876 -0.3122 -1.1909
16803SOL     OW51828   1.762   2.941   3.604 -0.0126  0.4233  0.2473
16803SOL    HW151829   1.694   3.007   3.614 -0.6308 -0.2764  0.7614
16803SOL    HW251830   1.841   2.991   3.582 -0.3907  1.3560  0.9317
16804SOL     OW51831   5.595   0.965   4.979  0.0202  0.3159 -0.0655
16804SOL    HW151832   5.567   0.995   5.066  0.0851  0.9429 -0.2589
16804SOL    HW251833   5.652   0.890   4.998 -0.2545  0.2228  0.4174
16805SOL     OW51834   0.507   0.174   4.768  0.1863 -0.3938 -0.1684
16805SOL    HW151835   0.596   0.193   4.737  0.6821 -0.0698  1.3600
16805SOL    HW251836   0.472   0.260   4.792 -0.6000 -0.5080 -0.8779
16806SOL     OW51837   3.821   5.629   0.205 -0.1065 -0.4802 -0.3684
16806SOL    HW151838   3.875   5.701   0.239 -1.0654  0.2065 -0.2725
16806SOL    HW251839   3.859   5.551   0.245  0.6327  0.0130 -0.0663
16807SOL     OW51840   1.951   5.039   4.842  0.6185  0.7142 -0.4212
16807SOL    HW151841   2.000   4.961   4.817 -0.0838  0.1619 -0.1003
16807SOL    HW251842   1.859   5.012   4.840  0.2550  1.9022 -1.6693
16808SOL     OW51843   1.276   7.865   4.694 -0.6519 -0.3336 -0.6529
16808SOL    HW151844   1.279   7.781   4.739 -0.4785 -0.8550 -1.5994
16808SOL    HW251845   1.186   7.895   4.706 -1.1977 -1.4666 -1.7003
16809SOL     OW51846   6.476   0.255   6.685 -0.3434  0.3412 -0.2803
16809SOL    HW151847   6.417   0.198   6.636  0.0784 -0.1015 -0.2840
16809SOL    HW251848   6.558   0.253   6.636  0.0971 -0.1346  0.4616
16810SOL     OW51849   0.966   1.408   0.799 -0.0006  0.1410 -0.4418
16810SOL    HW151850   1.040   1.410   0.859  0.5747  0.7446 -1.1434
16810SOL    HW251851   0.906   1.344   0.836  1.8808 -2.1006 -1.0151
16811SOL     OW51852   6.051   8.042   3.346 -0.3545  0.0396  0.3168
16811SOL    HW151853   6.071   8.090   3.267  0.2711  0.8381  0.9468
16811SOL    HW251854   6.032   8.110   3.411 -0.5100 -0.5898  0.9410
16812SOL     OW51855   5.609   1.761   1.008 -0.2830  0.5332 -0.2456
16812SOL    HW151856   5.550   1.686   0.997 -0.8343  0.9024  0.1157
16812SOL    HW251857   5.619   1.769   1.103 -1.2278  1.6766 -0.2298
16813SOL     OW51858   4.011   1.447   6.228 -0.4967 -0.1077 -0.5014
16813SOL    HW151859   3.991   1.354   6.233 -1.5981  0.0094 -2.0494
16813SOL    HW251860   4.106   1.452   6.240 -0.6012 -1.2336  1.2520
16814SOL     OW51861   5.812   6.943   6.686  0.2601  0.1542  0.2780
16814SOL    HW151862   5.858   6.942   6.770 -0.0755 -1.1411  0.4666
16814SOL    HW251863   5.840   6.862   6.642 -0.5776  0.1570 -0.2901
16815SOL     OW51864   8.289   3.662   5.905  0.6406 -0.0216 -0.5150
16815SOL    HW151865   8.248   3.748   5.894  0.8866  0.2631  0.6658
16815SOL    HW251866   8.223   3.601   5.873  0.6347  0.6126 -1.7957
16816SOL     OW51867   2.250   7.797   5.414 -0.2226  0.4608  0.4103
16816SOL    HW151868   2.249   7.796   5.318  0.3247 -3.0573  0.3130
16816SOL    HW251869   2.247   7.890   5.437  1.1036  1.5099 -3.0062
16817SOL     OW51870   5.272   3.206   7.814 -0.0557 -0.0018  0.0907
16817SOL    HW151871   5.224   3.277   7.857 -0.1820 -0.7928  1.2763
16817SOL    HW251872   5.209   3.167   7.754  0.6813  2.3859 -2.4335
16818SOL     OW51873   2.053   7.492   5.337 -0.5279  0.2776  0.1055
16818SOL    HW151874   2.030   7.409   5.294 -0.2340  0.9729 -1.4581
16818SOL    HW251875   2.106   7.538   5.272  1.4008  0.6798  1.8756
16819SOL     OW51876   6.688   0.388   4.117  0.4515  0.3271 -0.3032
16819SOL    HW151877   6.728   0.383   4.204  0.2773 -1.3316 -0.2870
16819SOL    HW251878   6.608   0.440   4.130  1.2292  1.4486  0.1794
16820SOL     OW51879   2.458   6.010   3.292  0.3783 -0.1671  0.0970
16820SOL    HW151880   2.461   6.021   3.386  1.4754 -1.4083  0.2418
16820SOL    HW251881   2.411   6.087   3.259 -0.6397 -0.0796  1.6987
16821SOL     OW51882   1.833   4.886   7.527 -0.3621  0.2989 -0.1532
16821SOL    HW151883   1.850   4.959   7.467  0.1815  0.7812  0.5651
16821SOL    HW251884   1.740   4.868   7.517 -0.2878  0.4078 -1.1031
16822SOL     OW51885   1.812   8.286   0.452  0.3280 -0.2988 -0.3151
16822SOL    HW151886   1.895   8.250   0.420  0.6063 -0.4507  0.5326
16822SOL    HW251887   1.838   8.363   0.503 -0.0870 -0.1393 -0.3460
16823SOL     OW51888   2.936   3.995   0.757  0.2639  0.5315 -0.1020
16823SOL    HW151889   3.005   3.940   0.720  0.4281  1.4210 -1.1836
16823SOL    HW251890   2.858   3.940   0.757  0.8847 -0.3905  0.8599
16824SOL     OW51891   7.967   4.865   5.282 -0.3394  0.2873  0.3534
16824SOL    HW151892   7.979   4.948   5.329 -0.4548  1.0217 -0.8662
16824SOL    HW251893   8.032   4.806   5.319 -0.5332  0.7900  1.5341
16825SOL     OW51894   6.225   5.792   0.382 -0.0380 -0.6689  0.1660
16825SOL    HW151895   6.163   5.735   0.428 -1.4157  0.8696  0.2779
16825SOL    HW251896   6.179   5.818   0.302  0.4661  0.4832  0.2359
16826SOL     OW51897   3.085   5.780   6.794  0.5800 -0.0495  0.2108
16826SOL    HW151898   3.049   5.756   6.708 -0.4537  2.6794 -0.2124
16826SOL    HW251899   3.175   5.805   6.776  1.2527 -2.0737  0.4504
16827SOL     OW51900   6.478   5.742   2.015 -0.1336 -0.0493  0.4530
16827SOL    HW151901   6.519   5.681   2.077  1.5410  0.8386  0.2899
16827SOL    HW251902   6.551   5.770   1.959 -1.5041 -0.5281 -1.7005
16828SOL     OW51903   5.187   4.076   2.550 -0.0374 -0.4823  0.3087
16828SOL    HW151904   5.280   4.099   2.542  0.1397 -0.9261  1.0034
16828SOL    HW251905   5.174   4.005   2.487  0.2733 -0.9099  0.7171
16829SOL     OW51906   0.804   8.124   7.187 -0.0173 -0.1936 -0.0384
16829SOL    HW151907   0.875   8.071   7.224 -0.1316 -0.7598 -0.6179
16829SOL    HW251908   0.732   8.113   7.249 -0.0675 -0.7951 -0.1940
16830SOL     OW51909   8.274   7.285   3.558  0.4484 -0.2279 -0.4497
16830SOL    HW151910   8.267   7.197   3.522  0.2195 -0.8809  1.1189
16830SOL    HW251911   8.201   7.333   3.519 -0.0847 -1.0386 -0.4663
16831SOL     OW51912   3.774   6.727   6.024  0.5409  0.8642  0.3445
16831SOL    HW151913   3.750   6.774   6.104  0.2558  0.5488  0.4493
16831SOL    HW251914   3.863   6.755   6.006  0.1145  2.0375 -0.0321
16832SOL     OW51915   4.042   3.264   2.200 -0.1395  0.1800 -0.2946
16832SOL    HW151916   4.074   3.224   2.281  0.8172 -1.2142 -1.3082
16832SOL    HW251917   4.016   3.353   2.225  1.8568  0.4160  1.1814
16833SOL     OW51918   7.621   3.239   4.696  0.5935  0.2256 -1.0010
16833SOL    HW151919   7.667   3.201   4.770  0.6894  0.7478 -0.7874
16833SOL    HW251920   7.528   3.230   4.717  0.5519 -1.4324 -1.7321
16834SOL     OW51921   6.263   0.012   2.202 -0.2971  0.5937 -0.3098
16834SOL    HW151922   6.350  -0.001   2.240  0.8083  2.6589 -1.9076
16834SOL    HW251923   6.265   0.102   2.168 -2.2760 -0.0504 -2.4020
16835SOL     OW51924   1.714   2.586   2.190 -0.0830 -0.3837  0.1880
16835SOL    HW151925   1.739   2.566   2.100 -0.6043 -0.4554  0.0536
16835SOL    HW251926   1.786   2.552   2.243  0.6845  0.4909 -0.2497
16836SOL     OW51927   5.222   1.005   3.160  0.5664  0.3729  0.1552
16836SOL    HW151928   5.285   0.998   3.089  1.5842  4.2725  0.4606
16836SOL    HW251929   5.266   0.963   3.235  0.2887 -1.9980 -0.9194
16837SOL     OW51930   0.458   2.551   1.313 -0.1593  0.6816 -0.1228
16837SOL    HW151931   0.413   2.623   1.357  0.9457  2.1786 -1.3422
16837SOL    HW251932   0.534   2.532   1.368 -1.1184 -0.4632  0.8627
16838SOL     OW51933   2.548   6.607   2.652 -0.0496  0.3106  0.0035
16838SOL    HW151934   2.484   6.598   2.723  0.2415  0.7653  0.3336
16838SOL    HW251935   2.514   6.553   2.581  0.3276 -1.2182  0.9565
16839SOL     OW51936   3.779   5.117   0.232 -0.0279  0.5667  0.1704
16839SOL    HW151937   3.695   5.136   0.190  0.1415  0.5199 -0.1873
16839SOL    HW251938   3.762   5.131   0.325 -1.0239 -1.5133  0.3513
16840SOL     OW51939   7.323   0.017   1.502  0.5458  0.2336  0.0664
16840SOL    HW151940   7.322  -0.067   1.456 -0.1361  0.6474 -0.7117
16840SOL    HW251941   7.258   0.007   1.572 -1.6857  0.9925 -1.7514
16841SOL     OW51942   7.184   6.956   0.209  0.0889  0.2920 -0.2017
16841SOL    HW151943   7.268   6.910   0.211  0.1947  0.4428 -0.9318
16841SOL    HW251944   7.158   6.962   0.301  0.0327 -1.2824 -0.0808
16842SOL     OW51945   2.313   4.245   0.384  0.4028 -0.0787  0.4355
16842SOL    HW151946   2.404   4.265   0.403  1.0024 -0.9696 -1.2864
16842SOL    HW251947   2.290   4.176   0.447  1.3259 -0.7459  0.0586
16843SOL     OW51948   5.525   0.996   5.248  0.3911 -0.5950  0.0063
16843SOL    HW151949   5.447   1.025   5.294  0.3090 -2.0077  0.8092
16843SOL    HW251950   5.598   1.024   5.304  0.2999 -2.1180  0.9509
16844SOL     OW51951   2.869   4.929   2.500 -0.1560  0.0847  0.3215
16844SOL    HW151952   2.924   4.874   2.445 -0.9689  1.9384 -2.5204
16844SOL    HW251953   2.926   5.002   2.525 -0.3764  0.3136  0.1604
16845SOL     OW51954   1.830   6.304   6.677  0.1796  0.3390 -0.2638
16845SOL    HW151955   1.800   6.215   6.694 -0.7647  0.6139 -0.4443
16845SOL    HW251956   1.899   6.294   6.611 -0.4659 -0.1866 -0.8637
16846SOL     OW51957   8.281   5.941   7.702  0.0536  0.1348 -0.9380
16846SOL    HW151958   8.186   5.946   7.695  0.0569  2.9357 -0.1270
16846SOL    HW251959   8.312   5.954   7.612 -0.3333  1.5112 -0.8946
16847SOL     OW51960   2.128   2.143   4.615 -0.2930 -0.2811 -0.0566
16847SOL    HW151961   2.144   2.184   4.530 -1.4711  1.5563  0.5365
16847SOL    HW251962   2.155   2.210   4.678  0.5531 -1.6110  1.0247
16848SOL     OW51963   8.350   4.351   0.573  0.3123 -0.0304 -0.3261
16848SOL    HW151964   8.398   4.395   0.644 -1.0004  0.0164  0.5507
16848SOL    HW251965   8.326   4.422   0.514 -0.2855  0.2091  0.1944
16849SOL     OW51966   1.257   8.321   2.706 -1.0808 -0.3103  0.1753
16849SOL    HW151967   1.252   8.229   2.734 -0.9962 -0.6548 -0.9236
16849SOL    HW251968   1.171   8.339   2.669 -0.8434 -0.1782 -0.3131
16850SOL     OW51969   2.430   5.393   1.095 -0.5120 -0.1016 -0.0354
16850SOL    HW151970   2.463   5.377   1.006  1.7847  0.7537  0.5971
16850SOL    HW251971   2.367   5.322   1.110 -0.7929 -0.4085 -2.2239
16851SOL     OW51972   1.853   6.795   7.521  0.5602 -0.2611 -0.3409
16851SOL    HW151973   1.804   6.726   7.564  0.1894  0.1813 -0.0460
16851SOL    HW251974   1.898   6.751   7.448 -1.3081 -0.4452 -1.4402
16852SOL     OW51975   6.703   0.084   2.359  0.3359  0.2011  0.4728
16852SOL    HW151976   6.741   0.112   2.276  0.2576 -0.7549  0.0987
16852SOL    HW251977   6.773   0.033   2.401 -0.5913 -1.9048 -0.3906
16853SOL     OW51978   6.349   0.815   3.765 -0.4480  0.2946 -0.5048
16853SOL    HW151979   6.279   0.840   3.825 -0.6540 -1.4686  0.0365
16853SOL    HW251980   6.306   0.763   3.698  0.1346  0.3621 -0.9423
16854SOL     OW51981   0.315   6.901   5.100  0.3710  0.5057 -0.8588
16854SOL    HW151982   0.244   6.931   5.156 -0.3906  0.9762 -2.0283
16854SOL    HW251983   0.341   6.816   5.136 -1.9434 -0.4955 -1.4012
16855SOL     OW51984   2.834   6.068   2.956  0.4724  0.1262 -0.1690
16855SOL    HW151985   2.803   6.035   2.872 -0.2304  3.3566 -1.3184
16855SOL    HW251986   2.781   6.022   3.022 -0.8923 -0.4764 -1.6372
16856SOL     OW51987   1.970   2.247   5.325  0.1752 -0.3821 -0.5181
16856SOL    HW151988   1.994   2.340   5.323  1.0213 -0.5311  0.9997
16856SOL    HW251989   1.937   2.229   5.237  0.1887  1.3014 -0.9065
16857SOL     OW51990   4.276   3.705   2.140  0.6175 -0.3912  0.4335
16857SOL    HW151991   4.246   3.781   2.191  0.7964  0.0856 -0.1502
16857SOL    HW251992   4.205   3.689   2.078  0.5244 -0.7860  0.6438
16858SOL     OW51993   6.671   5.257   2.171 -0.0538 -0.4481  0.0922
16858SOL    HW151994   6.744   5.206   2.136 -0.6208 -1.3440  0.1633
16858SOL    HW251995   6.593   5.204   2.151 -0.7417  0.7113 -0.4125
16859SOL     OW51996   3.245   3.741   4.736  0.3062  0.1972  0.7045
16859SOL    HW151997   3.182   3.733   4.664 -1.0439  1.2194  1.7061
16859SOL    HW251998   3.226   3.667   4.793  0.6353 -0.0025  0.5573
16860SOL     OW51999   4.489   0.740   1.041  0.5407 -0.0247  0.7060
16860SOL    HW152000   4.395   0.758   1.035  0.0997 -1.7676  1.6679
16860SOL    HW252001   4.529   0.826   1.058 -0.8144  0.8116 -0.1683
16861SOL     OW52002   6.071   4.878   7.449 -0.0306 -0.2942  0.1341
16861SOL    HW152003   6.133   4.813   7.418  1.2718  0.6719  0.6197
16861SOL    HW252004   6.070   4.945   7.380 -0.3166 -0.1657  0.2613
16862SOL     OW52005   6.700   0.900   6.892 -0.1871  0.0540 -0.4143
16862SOL    HW152006   6.724   0.824   6.945 -2.5532 -1.7091 -1.6721
16862SOL    HW252007   6.778   0.918   6.839  0.2265 -1.9573 -0.5726
16863SOL     OW52008   8.064   4.013   3.576 -0.5601  0.0797 -0.6699
16863SOL    HW152009   8.016   4.081   3.624 -1.5554 -0.8440 -0.3179
16863SOL    HW252010   8.134   3.986   3.635 -1.5343 -0.7651  0.1348
16864SOL     OW52011   6.431   2.550   4.758  0.5564  0.3268 -0.0067
16864SOL    HW152012   6.485   2.477   4.789  2.2182  1.8100  0.7857
16864SOL    HW252013   6.488   2.596   4.695  0.6312  2.4050  1.4483
16865SOL     OW52014   2.239   5.674   1.879  0.2919  0.3822 -0.2302
16865SOL    HW152015   2.261   5.591   1.922  1.1053  0.3419 -0.7123
16865SOL    HW252016   2.292   5.675   1.800 -0.1255  1.1184 -0.5105
16866SOL     OW52017   4.108   8.114   6.343  0.1008 -0.1394 -0.0657
16866SOL    HW152018   4.199   8.094   6.321  0.6928  1.8747  0.3386
16866SOL    HW252019   4.108   8.208   6.361 -2.4432  0.3487 -2.0058
16867SOL     OW52020   7.159   6.605   2.144 -0.2375 -0.3426  0.0212
16867SOL    HW152021   7.221   6.673   2.172  0.1413 -0.6819  0.0280
16867SOL    HW252022   7.208   6.553   2.080 -0.1619 -1.2358  0.7862
16868SOL     OW52023   1.775   0.154   7.875  0.2758  0.2012  0.4594
16868SOL    HW152024   1.854   0.155   7.820  0.7545  0.7569  1.1415
16868SOL    HW252025   1.806   0.180   7.962 -0.2525 -1.9155  1.3225
16869SOL     OW52026   7.942   1.802   2.783 -0.0788  0.0687 -0.9007
16869SOL    HW152027   8.030   1.809   2.818  0.4040 -1.6621 -1.6661
16869SOL    HW252028   7.896   1.745   2.845 -0.5762  0.6877 -0.6864
16870SOL     OW52029   1.358   1.035   6.942 -0.0565  0.1929  0.5719
16870SOL    HW152030   1.368   1.117   6.893 -0.1291 -1.2055 -2.0058
16870SOL    HW252031   1.337   1.062   7.031  2.0489  2.9655  0.3572
16871SOL     OW52032   0.180   4.668   7.202 -0.1040  0.7041 -0.4011
16871SOL    HW152033   0.104   4.629   7.245 -0.0578 -0.9805 -1.7112
16871SOL    HW252034   0.209   4.737   7.261 -1.0747 -0.3457  1.3794
16872SOL     OW52035   8.021   0.417   7.835 -0.2395  0.5007 -0.7239
16872SOL    HW152036   7.951   0.353   7.819  0.8137 -0.5168 -1.4572
16872SOL    HW252037   8.079   0.373   7.897  0.3191  0.8761 -0.9740
16873SOL     OW52038   0.379   5.126   1.700 -0.2256 -0.2260 -0.4022
16873SOL    HW152039   0.405   5.046   1.747  2.4312  0.6367 -0.2062
16873SOL    HW252040   0.364   5.096   1.610  0.1271 -1.0494 -0.2009
16874SOL     OW52041   6.914   5.960   6.119  0.0827  0.0655  0.7997
16874SOL    HW152042   6.999   5.960   6.164  0.1268  2.2248  0.8217
16874SOL    HW252043   6.909   5.874   6.077  2.2272 -0.1622  0.8913
16875SOL     OW52044   4.368   7.453   8.237  0.5029  0.5669  0.1562
16875SOL    HW152045   4.381   7.441   8.331 -1.3969  0.5237  0.4464
16875SOL    HW252046   4.300   7.519   8.231 -0.3241 -0.3659 -1.1571
16876SOL     OW52047   0.313   6.324   7.324  0.8173 -0.1759  0.1174
16876SOL    HW152048   0.335   6.386   7.392  2.6783 -1.3196  0.6145
16876SOL    HW252049   0.289   6.378   7.249  0.8762  1.1030  0.9966
16877SOL     OW52050   2.098   3.846   6.713  0.4786 -0.1783 -0.1400
16877SOL    HW152051   2.186   3.810   6.724  1.7194  2.4878 -0.6329
16877SOL    HW252052   2.078   3.832   6.621  1.0313  0.4999 -0.3718
16878SOL     OW52053   3.839   8.236   2.906 -0.0673  0.1425 -0.0387
16878SOL    HW152054   3.904   8.282   2.853  2.7672 -2.7161  0.6740
16878SOL    HW252055   3.778   8.199   2.842  0.2242  1.0977 -0.8980
16879SOL     OW52056   0.066   0.828   1.688 -0.1171  0.3162 -0.2595
16879SOL    HW152057   0.056   0.776   1.609 -2.2074  0.1879  0.0275
16879SOL    HW252058   0.149   0.800   1.726 -0.1948 -1.2694 -1.2153
16880SOL     OW52059   7.665   1.137   5.697  0.1421 -0.1039  0.0540
16880SOL    HW152060   7.589   1.111   5.645  0.1572 -0.8777  0.3978
16880SOL    HW252061   7.733   1.075   5.673  2.1018  3.0195 -3.3801
16881SOL     OW52062   5.773   2.034   4.910 -0.1992  0.5229 -0.2811
16881SOL    HW152063   5.681   2.027   4.885  0.1505  0.0229 -1.5002
16881SOL    HW252064   5.781   1.976   4.986 -0.9858  0.9717  0.1576
16882SOL     OW52065   5.886   2.252   1.153  0.4440 -0.0859  0.2487
16882SOL    HW152066   5.944   2.178   1.134  0.2275  0.0524 -1.0319
16882SOL    HW252067   5.927   2.326   1.108  0.3453  0.4558  1.0324
16883SOL     OW52068   1.723   0.328   4.436 -0.4062  0.7477  0.3231
16883SOL    HW152069   1.786   0.397   4.458  0.2040  1.2514 -2.5419
16883SOL    HW252070   1.767   0.247   4.460 -0.1706  1.2188  1.5835
16884SOL     OW52071   5.104   1.395   8.174 -0.6237  1.1885  0.6120
16884SOL    HW152072   5.165   1.461   8.139  0.9854 -0.6462 -0.2785
16884SOL    HW252073   5.061   1.359   8.096  0.6225 -0.7212  0.7332
16885SOL     OW52074   5.223   3.916   8.267  0.3398 -0.2739 -0.4478
16885SOL    HW152075   5.162   3.869   8.324  0.7208 -2.4501 -1.7151
16885SOL    HW252076   5.290   3.950   8.326 -0.2249 -0.8877  0.5822
16886SOL     OW52077   3.220   3.235   6.539  0.1075  0.0144  0.3139
16886SOL    HW152078   3.176   3.157   6.572 -0.3999 -0.2669 -0.9467
16886SOL    HW252079   3.287   3.201   6.479 -0.1054  0.5339 -0.2305
16887SOL     OW52080   1.824   5.726   6.664 -0.6395  0.3681  0.0984
16887SOL    HW152081   1.788   5.697   6.748 -1.5263  1.8545  0.2838
16887SOL    HW252082   1.788   5.815   6.653 -0.4434  0.2484 -1.7913
16888SOL     OW52083   5.596   4.272   3.685  0.6229  0.6049  0.4495
16888SOL    HW152084   5.527   4.225   3.639  0.3175  0.2950  1.2032
16888SOL    HW252085   5.557   4.357   3.707  0.5116  0.4759  0.7673
16889SOL     OW52086   5.086   5.329   7.049 -0.2855 -0.1020 -0.1006
16889SOL    HW152087   5.110   5.376   7.129  0.2972  1.4732 -1.1625
16889SOL    HW252088   5.169   5.296   7.015 -0.4219 -0.0108 -0.5206
16890SOL     OW52089   3.405   1.179   5.436  0.4806  0.3249 -0.4449
16890SOL    HW152090   3.318   1.151   5.464  0.3442  0.4050 -0.7849
16890SOL    HW252091   3.420   1.132   5.354  1.0684 -0.2668 -0.0030
16891SOL     OW52092   4.061   6.773   4.245  0.6708 -0.3173  0.5281
16891SOL    HW152093   4.087   6.681   4.245  0.1789 -0.4639  0.0737
16891SOL    HW252094   4.021   6.787   4.330 -1.3616 -1.1640 -0.2238
16892SOL     OW52095   1.031   2.056   8.270 -0.0704 -0.2165 -0.0582
16892SOL    HW152096   1.092   1.988   8.239  1.4723  1.0943 -0.0659
16892SOL    HW252097   0.944   2.019   8.256  0.7109 -2.1654 -0.0901
16893SOL     OW52098   2.910   4.091   4.265  0.4783  0.5203 -0.0504
16893SOL    HW152099   2.952   4.032   4.328  1.1305  0.6946 -0.3097
16893SOL    HW252100   2.838   4.039   4.228  0.0737  0.4249  0.8455
16894SOL     OW52101   2.991   4.194   3.794 -0.3935  0.3822 -0.3182
16894SOL    HW152102   3.027   4.160   3.876  0.3669  0.7534 -0.4904
16894SOL    HW252103   2.897   4.175   3.799 -0.7442  2.3715  1.6158
16895SOL     OW52104   6.343   6.246   2.182 -0.1607 -0.0068 -0.1862
16895SOL    HW152105   6.319   6.258   2.090  0.2041  0.7677 -0.1831
16895SOL    HW252106   6.265   6.272   2.231 -0.2361 -0.0894 -0.2614
16896SOL     OW52107   2.774   4.970   2.845  0.3933 -0.4347  0.4817
16896SOL    HW152108   2.744   5.036   2.907 -1.3029 -0.8046  0.1102
16896SOL    HW252109   2.852   4.932   2.886  1.4295  1.7640  0.6957
16897SOL     OW52110   0.313   6.198   2.997 -1.3687 -0.2819  0.2795
16897SOL    HW152111   0.296   6.250   2.918 -1.0429 -0.5155  0.0567
16897SOL    HW252112   0.247   6.228   3.059 -2.6477 -1.2073 -0.5826
16898SOL     OW52113   0.872   4.795   3.892  0.1638  0.1030  0.6366
16898SOL    HW152114   0.891   4.814   3.983  0.0564  0.2190  0.6365
16898SOL    HW252115   0.846   4.703   3.891 -0.4901  0.2770  0.8322
16899SOL     OW52116   6.169   1.331   3.067 -0.2257  1.0307 -0.0215
16899SOL    HW152117   6.219   1.266   3.117  1.1563  2.2372  0.1947
16899SOL    HW252118   6.097   1.280   3.028  1.6600 -0.9399 -1.1235
16900SOL     OW52119   3.290   1.919   7.277  0.3556  0.6959  0.3919
16900SOL    HW152120   3.217   1.914   7.340  0.8664  0.2945  0.9628
16900SOL    HW252121   3.251   1.960   7.200 -0.9456 -1.1162  0.0169
16901SOL     OW52122   3.912   2.893   6.721  0.6664  0.7291 -0.3144
16901SOL    HW152123   3.967   2.828   6.765  0.1046 -0.2803 -1.0648
16901SOL    HW252124   3.891   2.853   6.636 -1.8790  0.7137  0.2668
16902SOL     OW52125   6.258   1.506   6.398 -0.3244  0.0346  0.1724
16902SOL    HW152126   6.327   1.557   6.441 -1.5112  1.5500  0.3393
16902SOL    HW252127   6.194   1.489   6.467  0.1614 -1.9883  0.1989
16903SOL     OW52128   5.519   3.184   2.301 -0.1940  0.0258  0.7818
16903SOL    HW152129   5.443   3.128   2.288  0.2259 -0.4762  0.4195
16903SOL    HW252130   5.593   3.132   2.267  0.4214  0.1875  1.8178
16904SOL     OW52131   2.708   5.873   4.906 -0.3523 -0.3867  0.0722
16904SOL    HW152132   2.668   5.957   4.929 -0.4179 -0.3625 -0.1316
16904SOL    HW252133   2.635   5.812   4.898 -0.3200 -0.4231  0.0505
16905SOL     OW52134   8.273   5.848   2.606  0.4164  0.2367 -0.2617
16905SOL    HW152135   8.352   5.804   2.639  1.2780  0.4767 -1.9061
16905SOL    HW252136   8.267   5.822   2.514 -0.9931  0.8587 -0.3756
16906SOL     OW52137   0.499   6.371   5.577 -0.4047 -0.0348 -0.0030
16906SOL    HW152138   0.409   6.378   5.546 -0.7082  1.4543  1.1222
16906SOL    HW252139   0.498   6.408   5.665  0.8349 -2.3164  1.0732
16907SOL     OW52140   2.876   4.474   0.842 -0.4711 -0.1928 -0.0200
16907SOL    HW152141   2.910   4.561   0.822  1.1042 -0.7439  0.0790
16907SOL    HW252142   2.945   4.433   0.895 -1.4210 -1.3026  0.3988
16908SOL     OW52143   5.529   5.961   3.091 -0.3150 -0.3855  0.0107
16908SOL    HW152144   5.544   5.979   3.184 -3.0858 -1.4433  0.7853
16908SOL    HW252145   5.569   5.876   3.077  1.5680  0.5021 -0.2585
16909SOL     OW52146   3.314   6.448   8.201  0.0073  0.6531  0.0210
16909SOL    HW152147   3.364   6.413   8.128  0.2990  0.9121  0.0975
16909SOL    HW252148   3.275   6.370   8.243  0.2575  0.4635 -0.0994
16910SOL     OW52149   7.092   3.027   2.511  0.0940  0.5426  0.1852
16910SOL    HW152150   7.016   2.975   2.486  2.7449 -3.2307 -0.9375
16910SOL    HW252151   7.103   3.089   2.439  0.2578 -1.6009 -1.7667
16911SOL     OW52152   8.075   8.029   7.469  0.3614 -0.2754 -0.5668
16911SOL    HW152153   8.060   7.937   7.446 -2.3216  0.3502 -1.7145
16911SOL    HW252154   8.007   8.048   7.534  0.8225  0.9507 -0.4257
16912SOL     OW52155   6.091   1.308   1.174 -0.2538  0.1047 -0.2938
16912SOL    HW152156   6.102   1.338   1.084 -0.6160  2.2802  0.3213
16912SOL    HW252157   6.043   1.226   1.166  1.6515 -0.9172 -2.1587
16913SOL     OW52158   6.492   3.723   0.819 -0.4399  0.3048  0.4945
16913SOL    HW152159   6.440   3.777   0.879 -0.5175 -0.4289  1.0975
16913SOL    HW252160   6.563   3.689   0.874 -1.7835 -2.2337  0.7745
16914SOL     OW52161   3.949   4.197   3.070  0.0391 -0.2987  0.6161
16914SOL    HW152162   3.973   4.130   3.006  1.9019 -0.0227  0.9786
16914SOL    HW252163   4.012   4.187   3.141  0.7632  2.1793  0.4236
16915SOL     OW52164   2.629   0.470   6.828  0.1486 -0.4121  0.3652
16915SOL    HW152165   2.614   0.557   6.790  0.1223 -0.1208  1.0242
16915SOL    HW252166   2.604   0.479   6.920  0.1715 -1.1139  0.4483
16916SOL     OW52167   6.960   4.700   3.730  0.0426  0.0203  0.3042
16916SOL    HW152168   6.882   4.755   3.728 -0.9892 -1.3766 -2.4212
16916SOL    HW252169   7.010   4.725   3.653  2.0711  0.4552  1.6639
16917SOL     OW52170   4.421   2.262   1.477 -0.2514 -0.2308  0.1275
16917SOL    HW152171   4.417   2.190   1.414  0.3391 -1.5735  1.5573
16917SOL    HW252172   4.357   2.325   1.445  1.3495  0.0712 -2.8767
16918SOL     OW52173   1.336   1.816   3.545  0.2225  0.3309  0.0812
16918SOL    HW152174   1.354   1.722   3.549  0.7056  0.4599  2.3973
16918SOL    HW252175   1.245   1.822   3.517  0.6336 -0.7265 -1.6353
16919SOL     OW52176   4.831   2.322   3.288  0.8051  0.1225  0.0666
16919SOL    HW152177   4.835   2.371   3.370  1.6497  0.5402 -0.2075
16919SOL    HW252178   4.760   2.259   3.300 -0.4932  1.5829  0.3284
16920SOL     OW52179   2.073   0.965   3.491 -0.1526 -0.0950  0.1851
16920SOL    HW152180   1.983   0.938   3.473 -0.0906  0.0953 -0.4314
16920SOL    HW252181   2.066   1.025   3.566 -0.5617  0.0748  0.0119
16921SOL     OW52182   5.953   5.828   5.923  0.4220  0.6239  0.4485
16921SOL    HW152183   5.891   5.780   5.868  0.0935  0.3207  1.0709
16921SOL    HW252184   5.989   5.761   5.981  2.1242  0.5932 -0.5952
16922SOL     OW52185   7.508   2.141   1.667 -0.2418 -0.2853 -0.2039
16922SOL    HW152186   7.552   2.194   1.734  0.6598 -1.0686 -0.1652
16922SOL    HW252187   7.572   2.074   1.642 -0.4993  0.0654 -1.9635
16923SOL     OW52188   6.444   0.873   5.256  0.5256  0.5105 -0.0531
16923SOL    HW152189   6.463   0.828   5.174  0.2787  0.5218 -0.1172
16923SOL    HW252190   6.504   0.834   5.320  0.3500  0.1297 -0.1219
16924SOL     OW52191   3.038   0.050   3.510 -0.8077 -0.3893 -0.0379
16924SOL    HW152192   3.035   0.005   3.426 -1.9929 -1.5672  0.5881
16924SOL    HW252193   3.038  -0.021   3.575  0.3400  0.4877  0.9648
16925SOL     OW52194   1.640   1.160   6.605  0.4271  0.0674  0.4578
16925SOL    HW152195   1.577   1.139   6.535 -1.0523 -0.7368  1.9669
16925SOL    HW252196   1.697   1.226   6.566 -1.1270  0.5792 -1.1015
16926SOL     OW52197   6.514   8.002   3.488 -0.1580  0.4413  0.0877
16926SOL    HW152198   6.424   7.972   3.485  0.2586 -1.1118  1.5524
16926SOL    HW252199   6.536   8.003   3.581  0.9563  2.0428 -0.1529
16927SOL     OW52200   8.298   5.354   2.328 -0.6539 -0.3324 -0.3338
16927SOL    HW152201   8.289   5.448   2.343  0.9804 -0.2009 -0.0088
16927SOL    HW252202   8.392   5.337   2.336 -0.8474 -1.8925 -1.0056
16928SOL     OW52203   6.792   3.950   4.657  0.0886  0.2884  0.0007
16928SOL    HW152204   6.862   4.015   4.662  1.9150 -1.3418 -2.2393
16928SOL    HW252205   6.722   3.993   4.607 -0.4216  1.7849  1.8873
16929SOL     OW52206   1.732   7.631   5.090 -0.6049  0.1527  0.5411
16929SOL    HW152207   1.815   7.619   5.043 -0.8414 -2.1753  0.6403
16929SOL    HW252208   1.752   7.607   5.181 -1.0391  1.1229  0.9141
16930SOL     OW52209   3.250   2.071   5.295  0.2933 -0.7340  0.0391
16930SOL    HW152210   3.224   1.980   5.280 -0.7602 -0.2497 -1.2564
16930SOL    HW252211   3.168   2.117   5.316  0.7669 -0.0267  0.3956
16931SOL     OW52212   1.358   4.497   5.666 -0.5190  0.3706 -0.4065
16931SOL    HW152213   1.434   4.455   5.705 -1.0996  1.7325  2.4560
16931SOL    HW252214   1.318   4.429   5.612  1.5698 -0.9775 -0.3629
16932SOL     OW52215   7.562   8.305   2.710 -0.7236  0.0931  0.5928
16932SOL    HW152216   7.498   8.291   2.640  2.0668 -3.1741 -1.6596
16932SOL    HW252217   7.524   8.260   2.786 -1.9987  0.0089 -0.0732
16933SOL     OW52218   1.538   1.873   5.309 -0.5571  0.2025 -0.4277
16933SOL    HW152219   1.544   1.778   5.315  0.4036  0.2682 -0.1300
16933SOL    HW252220   1.515   1.890   5.218  2.6700 -0.2306 -1.4736
16934SOL     OW52221   5.975   3.135   7.760 -0.3682 -0.0451 -0.1357
16934SOL    HW152222   6.001   3.219   7.796  0.5205 -0.1659 -0.4935
16934SOL    HW252223   6.012   3.070   7.821 -1.4698 -0.1843  0.4206
16935SOL     OW52224   0.984   4.813   3.609  0.3691  0.1231  0.5953
16935SOL    HW152225   0.982   4.756   3.685 -0.9183  1.1779  1.3864
16935SOL    HW252226   0.916   4.878   3.625  1.1599  1.3394 -0.7019
16936SOL     OW52227   4.320   3.389   7.940  0.4162 -0.1364  0.5053
16936SOL    HW152228   4.307   3.321   8.006  0.0103 -0.6417 -0.0861
16936SOL    HW252229   4.265   3.462   7.971  1.3162  0.1623  1.4507
16937SOL     OW52230   8.324   3.262   6.700 -0.5418  0.2869 -0.4508
16937SOL    HW152231   8.277   3.250   6.782  0.0636  0.7167 -0.0415
16937SOL    HW252232   8.337   3.173   6.667  0.4360  0.0265  0.6026
16938SOL     OW52233   8.339   4.329   4.069  0.2964  0.2745  0.1907
16938SOL    HW152234   8.357   4.417   4.035 -3.1090  1.2397  0.4616
16938SOL    HW252235   8.296   4.344   4.153  0.6376 -1.7051  0.7655
16939SOL     OW52236   6.765   5.755   8.336  0.2022 -0.0709  0.3826
16939SOL    HW152237   6.830   5.721   8.275  0.6692 -0.0383  0.8605
16939SOL    HW252238   6.776   5.703   8.415 -0.2158  0.0715  0.5372
16940SOL     OW52239   1.051   6.834   2.559 -0.0085 -0.4934 -0.0274
16940SOL    HW152240   1.122   6.776   2.530  0.1247 -0.4583  0.2202
16940SOL    HW252241   1.000   6.851   2.481  2.0405  2.0332 -0.9428
16941SOL     OW52242   7.763   6.246   6.069  1.0655  0.5885  0.2236
16941SOL    HW152243   7.745   6.340   6.071 -4.0512 -0.0400 -1.0795
16941SOL    HW252244   7.804   6.232   5.984  1.3654  1.5795  0.1901
16942SOL     OW52245   6.065   3.724   5.157  0.0590 -0.0052  0.2561
16942SOL    HW152246   6.109   3.642   5.177  1.2331  0.3879 -0.5865
16942SOL    HW252247   5.992   3.700   5.100  0.2906 -0.4958  0.1643
16943SOL     OW52248   6.074   8.337   7.964  0.0717  0.3535 -0.2367
16943SOL    HW152249   6.090   8.310   8.055  0.8073  0.2127 -0.3954
16943SOL    HW252250   6.094   8.431   7.963 -0.0680  0.3826 -0.2220
16944SOL     OW52251   5.713   7.346   6.751 -0.1479  0.6916 -0.2189
16944SOL    HW152252   5.753   7.259   6.747 -1.7142 -0.0238 -1.3393
16944SOL    HW252253   5.750   7.386   6.830  1.7756 -0.3769 -0.5240
16945SOL     OW52254   3.665   0.995   8.032 -0.3426  0.4642  0.4682
16945SOL    HW152255   3.677   0.978   8.126 -0.2548  0.1988  0.4086
16945SOL    HW252256   3.694   1.085   8.021  0.8211  0.1044  0.4758
16946SOL     OW52257   3.580   8.115   3.884  0.1773 -0.9264 -0.2557
16946SOL    HW152258   3.604   8.135   3.974 -0.6976 -0.0221 -0.2065
16946SOL    HW252259   3.663   8.105   3.838  0.7284  2.0182 -0.0979
16947SOL     OW52260   0.918   7.885   4.194  0.5105 -0.0035 -0.3543
16947SOL    HW152261   0.862   7.860   4.120 -1.0999 -1.6216  1.2949
16947SOL    HW252262   0.922   7.980   4.190 -1.4478  0.0998 -1.1985
16948SOL     OW52263   4.912   7.827   0.972 -0.4913 -0.5800 -0.0854
16948SOL    HW152264   4.860   7.824   1.052 -0.9105 -0.1156 -0.3363
16948SOL    HW252265   4.910   7.918   0.945  0.1224 -0.6289 -0.3235
16949SOL     OW52266   6.626   5.056   4.667  0.3048 -0.4150 -0.1204
16949SOL    HW152267   6.693   5.006   4.715  0.5704 -1.0037 -1.0570
16949SOL    HW252268   6.599   4.997   4.597 -1.1831 -0.1620  0.2118
16950SOL     OW52269   0.794   6.048   3.720  0.1431  0.6143  0.2425
16950SOL    HW152270   0.719   5.993   3.740  0.4360 -0.2501 -0.9024
16950SOL    HW252271   0.869   6.001   3.756  0.2624  0.9061  0.3806
16951SOL     OW52272   0.788   8.175   0.354  0.1661 -0.8912 -0.1684
16951SOL    HW152273   0.718   8.232   0.324 -0.1279 -1.1412  0.0396
16951SOL    HW252274   0.777   8.171   0.449  1.3088  0.2040  0.0458
16952SOL     OW52275   3.548   6.226   1.707 -0.2072 -0.1575  0.2462
16952SOL    HW152276   3.522   6.161   1.642 -1.3605 -1.2450  1.7219
16952SOL    HW252277   3.582   6.299   1.655  1.2735 -1.9439 -1.4597
16953SOL     OW52278   7.065   6.686   6.633 -0.0738 -0.3096 -0.0176
16953SOL    HW152279   7.054   6.761   6.575  0.2701 -1.4981 -1.6664
16953SOL    HW252280   7.155   6.693   6.664 -0.8504  1.4664  2.0997
16954SOL     OW52281   2.753   7.650   6.875  0.0250 -0.6085  0.0420
16954SOL    HW152282   2.686   7.586   6.899  0.3163 -0.2536  2.0039
16954SOL    HW252283   2.769   7.698   6.956  2.4546 -0.5036 -0.4293
16955SOL     OW52284   8.133   6.135   4.863 -0.3148 -0.4085 -0.1883
16955SOL    HW152285   8.139   6.166   4.773  1.9394  2.5184  0.8042
16955SOL    HW252286   8.221   6.106   4.885 -0.2340  1.0029  1.6641
16956SOL     OW52287   7.665   5.966   7.663 -0.4548 -0.0655 -0.4531
16956SOL    HW152288   7.640   5.874   7.656  0.3461 -0.2384 -1.1742
16956SOL    HW252289   7.614   6.010   7.596  1.7741 -0.5700 -2.6066
16957SOL     OW52290   1.316   0.523   7.181  0.0611  0.4149  0.0960
16957SOL    HW152291   1.317   0.505   7.276  1.4806  2.0345  0.4282
16957SOL    HW252292   1.239   0.579   7.169 -1.5003 -1.6567 -0.1520
16958SOL     OW52293   0.568   4.398   4.465 -0.4051 -0.0104 -0.1967
16958SOL    HW152294   0.663   4.386   4.459 -0.2415  1.7305 -1.8718
16958SOL    HW252295   0.532   4.333   4.405 -0.2911 -0.6294  0.3918
16959SOL     OW52296   7.753   5.519   5.319 -0.3063  0.3267  0.3955
16959SOL    HW152297   7.788   5.437   5.282 -0.3299  0.2688  0.5033
16959SOL    HW252298   7.660   5.503   5.329 -0.1391 -0.0194  1.4492
16960SOL     OW52299   4.812   6.175   6.993  0.1529  0.1556  0.4109
16960SOL    HW152300   4.830   6.204   7.083  1.3579  0.4941  0.0867
16960SOL    HW252301   4.741   6.112   7.002  1.5203 -1.2625  1.8294
16961SOL     OW52302   4.965   0.927   2.024 -0.2741 -0.5750  0.4269
16961SOL    HW152303   5.050   0.936   1.982 -1.7708 -0.4082 -2.8726
16961SOL    HW252304   4.932   1.017   2.032 -0.7529 -0.7319  0.2656
16962SOL     OW52305   0.958   1.245   7.139 -0.3089  0.1279 -0.1979
16962SOL    HW152306   0.913   1.328   7.158 -0.9315 -0.5098  1.2518
16962SOL    HW252307   0.896   1.177   7.166  1.2222 -0.7905  1.1902
16963SOL     OW52308   6.919   3.181   0.055  0.3136 -0.5246 -0.0615
16963SOL    HW152309   6.973   3.119   0.005 -0.5216 -2.2186  1.0372
16963SOL    HW252310   6.841   3.194   0.001  0.5170 -0.3794 -0.3235
16964SOL     OW52311   6.805   1.605   5.551  0.1260  0.6067 -0.3124
16964SOL    HW152312   6.896   1.624   5.576  0.1049 -2.9649  3.9111
16964SOL    HW252313   6.813   1.555   5.470  1.3357  4.1422 -2.5763
16965SOL     OW52314   1.427   2.199   1.562  0.2569  0.8411 -0.0828
16965SOL    HW152315   1.374   2.169   1.488  0.2541  0.1974  0.1790
16965SOL    HW252316   1.363   2.229   1.626  0.1876 -0.1461  0.3251
16966SOL     OW52317   8.218   1.698   1.739 -0.4287 -0.1707  0.0735
16966SOL    HW152318   8.232   1.604   1.746 -0.8932 -0.2524 -0.0185
16966SOL    HW252319   8.148   1.717   1.802  1.5810  0.5826  2.1910
16967SOL     OW52320   4.418   1.498   2.570 -0.2984 -0.1571  0.5709
16967SOL    HW152321   4.450   1.427   2.513 -0.0742 -0.0160  0.5195
16967SOL    HW252322   4.469   1.489   2.650  0.3372  0.4752  0.2397
16968SOL     OW52323   4.160   5.106   0.204  0.5271  0.7233  0.4022
16968SOL    HW152324   4.109   5.054   0.143  0.8940 -0.5355  1.1251
16968SOL    HW252325   4.247   5.109   0.165  0.1528  2.1058 -0.3837
16969SOL     OW52326   2.725   2.825   6.903  0.5597  0.0822  0.4001
16969SOL    HW152327   2.639   2.793   6.875  0.7647  0.0269 -0.1612
16969SOL    HW252328   2.746   2.771   6.980  0.0740  0.1316  0.5709
16970SOL     OW52329   1.038   5.330   0.792 -1.0068  0.3812 -0.0399
16970SOL    HW152330   1.097   5.368   0.727 -2.0580  2.9662  0.3874
16970SOL    HW252331   0.957   5.311   0.743 -0.6735 -0.9140 -0.1344
16971SOL     OW52332   0.223   1.865   4.633 -0.1324  0.2681  0.1886
16971SOL    HW152333   0.170   1.945   4.630  0.1156  0.4416  0.3768
16971SOL    HW252334   0.222   1.839   4.725  0.8086  0.7468  0.3416
16972SOL     OW52335   3.708   2.961   2.220 -0.0675  0.3307  0.1860
16972SOL    HW152336   3.708   2.982   2.127  2.5900  1.6146  0.3947
16972SOL    HW252337   3.701   2.865   2.223  0.1860  0.2481 -1.3405
16973SOL     OW52338   7.727   8.113   2.554 -0.0531  0.3545 -0.3211
16973SOL    HW152339   7.720   8.022   2.585 -1.1792  0.7777  0.7417
16973SOL    HW252340   7.677   8.164   2.618  1.0246  1.8090 -0.5821
16974SOL     OW52341   5.250   1.643   1.769  0.2867  0.4145 -0.1575
16974SOL    HW152342   5.212   1.640   1.857  1.3004 -0.7370  0.2680
16974SOL    HW252343   5.251   1.552   1.741  0.9784  0.6499 -0.9218
16975SOL     OW52344   0.540   3.700   4.539 -0.0882 -0.2735  0.1726
16975SOL    HW152345   0.450   3.694   4.507 -0.1794  0.1087  0.3592
16975SOL    HW252346   0.554   3.618   4.586 -0.6797  0.1049  1.0173
16976SOL     OW52347   7.439   3.257   2.632  0.9528 -0.1450  0.2211
16976SOL    HW152348   7.392   3.198   2.573 -1.0572 -0.3105  1.8439
16976SOL    HW252349   7.525   3.217   2.642  0.7184 -1.0796 -1.1505
16977SOL     OW52350   0.061   2.984   7.159 -0.0186  0.1967  0.2028
16977SOL    HW152351   0.063   3.074   7.127  0.6855 -0.8958 -3.3093
16977SOL    HW252352  -0.031   2.958   7.154 -0.0078  0.2583 -0.3540
16978SOL     OW52353   2.498   4.606   3.462 -0.4026  0.4938 -0.1254
16978SOL    HW152354   2.526   4.548   3.534 -0.4906  1.8210  1.0139
16978SOL    HW252355   2.540   4.570   3.385  0.6609 -0.2918  0.7904
16979SOL     OW52356   3.108   0.607   0.326 -0.2256 -0.4035  0.4345
16979SOL    HW152357   3.188   0.591   0.376  0.8851  3.2078  0.0612
16979SOL    HW252358   3.043   0.631   0.392 -0.8534 -2.5530  0.6628
16980SOL     OW52359   0.486   0.611   5.555  0.0182  0.5728  0.0354
16980SOL    HW152360   0.492   0.695   5.510 -0.7429  0.8516  0.4325
16980SOL    HW252361   0.561   0.561   5.524  0.4441  1.3794 -0.2469
16981SOL     OW52362   1.157   2.906   2.042  0.0512 -0.7460 -0.1978
16981SOL    HW152363   1.106   2.986   2.034  3.2221  1.5128  0.4261
16981SOL    HW252364   1.179   2.900   2.135 -2.1335 -3.8143  0.2640
16982SOL     OW52365   7.920   2.362   0.809  0.2726 -0.4600 -0.0320
16982SOL    HW152366   7.975   2.438   0.789  0.5277 -0.5390  0.3604
16982SOL    HW252367   7.961   2.290   0.760 -0.0426 -0.3240 -0.5058
16983SOL     OW52368   1.341   0.458   1.049 -0.7401  0.1116  0.1055
16983SOL    HW152369   1.363   0.528   0.988 -0.2415 -1.3495 -1.4903
16983SOL    HW252370   1.269   0.411   1.006 -1.3519 -0.1102  1.3389
16984SOL     OW52371   7.451   0.265   5.144  0.2864  0.3135 -0.4841
16984SOL    HW152372   7.374   0.300   5.189 -0.1471 -0.7892 -0.3451
16984SOL    HW252373   7.432   0.280   5.051  0.7781  1.7721 -0.3691
16985SOL     OW52374   6.215   6.965   0.411  0.9211  0.0325 -0.0678
16985SOL    HW152375   6.290   6.915   0.442  0.0678 -0.5264  1.1902
16985SOL    HW252376   6.197   7.028   0.481  1.4583  1.5755 -1.2638
16986SOL     OW52377   7.821   4.101   3.849 -0.1741 -0.3330  0.2360
16986SOL    HW152378   7.908   4.081   3.885  0.4983  0.6544 -0.7805
16986SOL    HW252379   7.831   4.188   3.810 -1.7434 -0.0349  0.4650
16987SOL     OW52380   2.654   6.075   0.662  0.1158  0.9568  0.2758
16987SOL    HW152381   2.568   6.084   0.619  0.1145 -0.9810 -0.2058
16987SOL    HW252382   2.633   6.057   0.753 -0.0235 -0.0136  0.0617
16988SOL     OW52383   8.213   1.644   4.153 -0.4265  0.3013  0.2253
16988SOL    HW152384   8.145   1.577   4.157 -0.7534  0.5521 -0.7071
16988SOL    HW252385   8.202   1.694   4.234 -0.4492 -0.5028  0.7301
16989SOL     OW52386   5.044   7.692   5.163  0.1458 -0.6700 -0.1037
16989SOL    HW152387   4.951   7.708   5.174  0.1169 -1.9604  2.0435
16989SOL    HW252388   5.087   7.753   5.223  0.7488  0.1226 -1.2860
16990SOL     OW52389   7.843   5.987   2.004  0.0368 -0.1627  0.2949
16990SOL    HW152390   7.759   5.964   1.966 -0.3778 -0.4680  1.3440
16990SOL    HW252391   7.891   6.029   1.933 -0.3035 -1.6029 -0.8487
16991SOL     OW52392   2.193   1.392   3.545  0.0901  0.1892  0.1189
16991SOL    HW152393   2.220   1.415   3.456 -0.7309  2.5129  0.3991
16991SOL    HW252394   2.274   1.394   3.596  0.8039 -2.5456 -0.7502
16992SOL     OW52395   3.041   4.599   7.288 -0.6020  1.2808  0.8592
16992SOL    HW152396   3.109   4.658   7.257  1.0059  0.1418  2.0109
16992SOL    HW252397   2.978   4.594   7.216  1.7008  0.5947 -1.2429
16993SOL     OW52398   0.807   0.671   1.525 -0.2199 -0.0551  0.3258
16993SOL    HW152399   0.783   0.602   1.463  1.5613  0.7726 -1.3966
16993SOL    HW252400   0.803   0.752   1.474  0.5478  0.7589  1.5096
16994SOL     OW52401   1.528   4.493   1.301  0.5210 -0.2120  0.5258
16994SOL    HW152402   1.432   4.489   1.302  0.4606 -0.1627 -1.3873
16994SOL    HW252403   1.556   4.402   1.303  0.4737 -0.2184  1.5875
16995SOL     OW52404   4.879   6.436   7.024  0.3776 -0.0921  0.1821
16995SOL    HW152405   4.885   6.354   6.975 -0.8626  0.0081 -0.1743
16995SOL    HW252406   4.969   6.456   7.048  0.7332 -1.4508  0.1002
16996SOL     OW52407   7.800   2.435   7.790 -0.2026  0.0203 -0.8645
16996SOL    HW152408   7.881   2.392   7.817  0.4973  0.9594 -1.3703
16996SOL    HW252409   7.830   2.519   7.753 -1.6279  2.2376  2.5355
16997SOL     OW52410   1.609   3.319   0.377  0.2337 -0.7053  0.2120
16997SOL    HW152411   1.517   3.329   0.353  0.5970 -1.4647 -1.6392
16997SOL    HW252412   1.645   3.408   0.375  0.1963 -0.6863 -2.0583
16998SOL     OW52413   3.753   0.331   1.997  0.1005  0.5283  0.5004
16998SOL    HW152414   3.678   0.385   1.972 -0.7797 -1.2161 -0.7768
16998SOL    HW252415   3.732   0.300   2.085 -1.0206 -0.4631 -0.0911
16999SOL     OW52416   5.433   1.102   4.780  0.4872 -0.1706 -0.1711
16999SOL    HW152417   5.384   1.033   4.736  0.1478 -0.6320  0.9085
16999SOL    HW252418   5.491   1.056   4.840  1.3295  0.4254 -0.5002
17000SOL     OW52419   1.609   4.457   7.828  0.0176 -0.4703  0.8964
17000SOL    HW152420   1.645   4.505   7.753 -1.0591 -2.0247 -0.7017
17000SOL    HW252421   1.675   4.466   7.896  0.3887  2.2545  0.3059
17001SOL     OW52422   1.000   2.344   1.850 -0.5948  0.3646  0.5248
17001SOL    HW152423   0.924   2.389   1.888 -0.9878 -0.1005  0.3003
17001SOL    HW252424   0.962   2.275   1.796 -0.0054 -0.2775  0.9158
17002SOL     OW52425   5.534   7.900   7.751  0.6009 -0.1051  0.2042
17002SOL    HW152426   5.574   7.866   7.671  0.6487 -0.7698  0.5012
17002SOL    HW252427   5.532   7.824   7.810  0.4900  0.3584  0.7984
17003SOL     OW52428   6.120   0.871   4.209  0.1967 -0.4330 -0.1945
17003SOL    HW152429   6.209   0.907   4.202  0.2973 -1.0211 -2.5108
17003SOL    HW252430   6.065   0.933   4.163 -0.0688 -1.6963 -1.6576
17004SOL     OW52431   7.903   4.808   1.168 -0.0098  0.0509  0.4748
17004SOL    HW152432   7.902   4.875   1.099 -1.0813  0.2360  0.6477
17004SOL    HW252433   7.872   4.854   1.246 -1.4087 -0.7953  0.4456
17005SOL     OW52434   3.761   3.849   5.655  0.3467  0.9425 -0.4627
17005SOL    HW152435   3.708   3.929   5.653  1.0688  1.4219 -0.8867
17005SOL    HW252436   3.804   3.846   5.570 -0.9717 -0.8213 -1.1081
17006SOL     OW52437   4.545   6.059   7.036 -0.0912  0.0183  0.3829
17006SOL    HW152438   4.489   6.026   7.106  0.3805  0.7924  1.1450
17006SOL    HW252439   4.532   5.997   6.964 -0.9248 -0.5412  0.9919
17007SOL     OW52440   3.333   1.500   2.272 -0.1877 -0.2733  0.0039
17007SOL    HW152441   3.387   1.543   2.206 -0.1299 -0.2366  0.0744
17007SOL    HW252442   3.246   1.537   2.259 -0.3092 -0.7066 -0.4445
17008SOL     OW52443   1.175   7.272   5.163 -1.1860 -0.0163 -0.2063
17008SOL    HW152444   1.230   7.320   5.225 -0.2101 -1.3773  0.0082
17008SOL    HW252445   1.196   7.312   5.078  0.7014 -0.9446 -0.2365
17009SOL     OW52446   3.217   7.947   3.184 -0.0760 -0.5631  0.0406
17009SOL    HW152447   3.147   7.901   3.137 -1.7209  0.3152  1.4989
17009SOL    HW252448   3.172   8.017   3.231  2.1885  1.9803 -1.2806
17010SOL     OW52449   3.374   3.833   5.298 -0.1425 -0.1958 -0.1597
17010SOL    HW152450   3.373   3.851   5.392 -0.6807  1.3736 -0.4474
17010SOL    HW252451   3.323   3.752   5.289  0.4413 -0.7045  0.9525
17011SOL     OW52452   3.626   3.719   4.076  0.3558 -0.5639  0.5204
17011SOL    HW152453   3.536   3.688   4.072 -0.6707  1.8225  2.5250
17011SOL    HW252454   3.676   3.654   4.026 -2.4441 -1.9127 -0.7432
17012SOL     OW52455   5.898   4.983   5.807 -0.2996 -0.7440 -0.1277
17012SOL    HW152456   5.904   4.908   5.868  1.0683 -0.4895  0.0948
17012SOL    HW252457   5.931   5.057   5.858 -0.3931 -0.2538 -0.7771
17013SOL     OW52458   3.317   4.326   3.767  0.5099 -0.3306  0.4760
17013SOL    HW152459   3.397   4.283   3.798 -0.6276 -2.2908  0.9116
17013SOL    HW252460   3.307   4.402   3.824  1.9327 -0.1688  0.5466
17014SOL     OW52461   7.525   7.397   4.243 -0.0986  0.6506 -0.8330
17014SOL    HW152462   7.542   7.319   4.190  3.0413 -0.4626  1.5309
17014SOL    HW252463   7.463   7.449   4.190 -0.9419 -2.5508 -3.2811
17015SOL     OW52464   2.928   1.110   0.902 -0.4322  0.4157  0.5966
17015SOL    HW152465   2.858   1.154   0.855 -0.1753  1.4748  1.1766
17015SOL    HW252466   2.974   1.180   0.949  1.5509 -0.1288 -0.4290
17016SOL     OW52467   1.324   5.182   0.150 -0.9605 -0.1346 -0.2075
17016SOL    HW152468   1.275   5.264   0.140 -2.3697 -0.7748  0.8941
17016SOL    HW252469   1.266   5.116   0.113 -1.8403 -1.1559  2.6946
17017SOL     OW52470   1.733   8.063   5.458 -0.1182  0.2049  0.0235
17017SOL    HW152471   1.823   8.072   5.491  0.8595  0.3411 -2.4388
17017SOL    HW252472   1.696   8.151   5.465 -0.4586 -0.0508  1.9553
17018SOL     OW52473   0.902   2.028   2.431 -0.6540  0.1411 -0.2477
17018SOL    HW152474   0.985   2.071   2.453  0.1726 -1.5316  0.0470
17018SOL    HW252475   0.895   2.037   2.336  0.0937 -0.0731 -0.3329
17019SOL     OW52476   2.086   6.226   4.718 -0.5719 -0.0919  0.0899
17019SOL    HW152477   1.993   6.247   4.733 -0.4396  2.1912 -1.7079
17019SOL    HW252478   2.094   6.134   4.742 -2.3601  0.5689  4.2457
17020SOL     OW52479   2.913   6.078   0.233  0.0400  0.5961 -0.1110
17020SOL    HW152480   2.818   6.085   0.234 -0.0957 -0.9356 -0.3728
17020SOL    HW252481   2.940   6.103   0.322 -0.3688  3.2913 -0.6630
17021SOL     OW52482   2.848   3.185   1.786 -0.5716 -0.0287 -0.5049
17021SOL    HW152483   2.819   3.230   1.865 -0.8360 -0.4013 -0.3859
17021SOL    HW252484   2.864   3.256   1.723  1.0114  0.3717  0.2961
17022SOL     OW52485   4.276   1.952   7.104 -0.2157  0.1355  0.6532
17022SOL    HW152486   4.282   2.026   7.164  0.2627  1.2686 -0.7300
17022SOL    HW252487   4.362   1.909   7.111 -0.5124 -0.3440  1.4953
17023SOL     OW52488   4.520   7.233   6.294  0.5883 -0.3088 -0.0757
17023SOL    HW152489   4.475   7.209   6.213 -0.4112  0.1760  0.3207
17023SOL    HW252490   4.458   7.289   6.340  2.4089  2.1485 -0.4405
17024SOL     OW52491   0.354   7.302   7.843 -0.1122 -0.0303 -0.7028
17024SOL    HW152492   0.362   7.335   7.753  1.7170  0.0594 -0.5336
17024SOL    HW252493   0.373   7.209   7.837  3.1019  0.4595 -0.0740
17025SOL     OW52494   1.959   0.017   6.814  0.1657  0.0115 -0.7996
17025SOL    HW152495   1.924  -0.071   6.801 -2.1296  0.3956  1.8342
17025SOL    HW252496   1.891   0.076   6.780  0.1289  0.7555  0.5052
17026SOL     OW52497   7.148   3.870   7.775  0.3082  0.4192  0.3128
17026SOL    HW152498   7.185   3.929   7.842 -0.7241 -0.7690  2.0109
17026SOL    HW252499   7.054   3.876   7.788  0.1585 -1.0673  0.0475
17027SOL     OW52500   3.392   3.118   1.461  0.0142 -0.3346  0.0387
17027SOL    HW152501   3.299   3.139   1.462 -0.3257 -1.6710  1.6553
17027SOL    HW252502   3.426   3.160   1.382 -2.2274 -0.9842 -1.3446
17028SOL     OW52503   0.707   2.781   4.462  0.4057  0.3484  0.3830
17028SOL    HW152504   0.801   2.772   4.447  0.7027  0.1704  2.1488
17028SOL    HW252505   0.692   2.738   4.546 -1.5640 -1.1941 -0.6748
17029SOL     OW52506   1.655   7.180   5.012 -0.3920 -0.2424  0.4066
17029SOL    HW152507   1.563   7.154   5.006 -0.1268 -1.0298 -0.6469
17029SOL    HW252508   1.662   7.229   5.094 -1.5197 -1.1359  1.0576
17030SOL     OW52509   5.589   0.657   4.187  0.1312 -0.9257  0.4269
17030SOL    HW152510   5.502   0.640   4.151  0.7020 -1.1113 -0.9353
17030SOL    HW252511   5.637   0.698   4.115  1.4157 -1.5708  0.8782
17031SOL     OW52512   3.689   5.113   2.350  0.7998  0.0662 -0.5235
17031SOL    HW152513   3.654   5.030   2.382  3.2762 -0.7576  0.3188
17031SOL    HW252514   3.751   5.088   2.281  0.2370  1.3836 -1.5621
17032SOL     OW52515   4.973   1.813   7.129  0.0703 -0.1757 -0.1587
17032SOL    HW152516   4.908   1.742   7.130  0.1470 -0.2551 -0.8377
17032SOL    HW252517   4.978   1.841   7.221  0.8617 -1.7838  0.3266
17033SOL     OW52518   6.773   0.921   5.387 -0.4166  0.0681  0.3597
17033SOL    HW152519   6.771   0.865   5.309 -0.0540 -0.8258  0.9676
17033SOL    HW252520   6.736   0.866   5.456  1.2189  0.0644  1.2780
17034SOL     OW52521   8.198   4.712   4.652 -0.3070 -0.0876  0.7969
17034SOL    HW152522   8.114   4.680   4.618 -0.1405 -0.7281  0.9736
17034SOL    HW252523   8.212   4.794   4.605  0.3288 -1.3454 -1.4116
17035SOL     OW52524   0.075   4.607   5.427 -0.8626 -0.1119 -0.8426
17035SOL    HW152525   0.116   4.636   5.345  0.4368  0.7394  0.0818
17035SOL    HW252526  -0.008   4.654   5.429  0.0513  1.5516 -0.6522
17036SOL     OW52527   7.739   0.242   6.779 -0.0050 -0.4494  0.5802
17036SOL    HW152528   7.690   0.249   6.861 -0.1451 -0.5010  0.5002
17036SOL    HW252529   7.802   0.314   6.783  0.8781 -1.2244  1.3384
17037SOL     OW52530   1.219   4.474   6.446 -0.1720  0.2295  0.3328
17037SOL    HW152531   1.126   4.468   6.421 -0.4439  2.8493  0.4840
17037SOL    HW252532   1.266   4.480   6.363 -0.2207 -0.0886  0.2801
17038SOL     OW52533   1.767   3.948   1.489  0.7957 -0.2762  0.3936
17038SOL    HW152534   1.698   3.882   1.498  0.2533  0.4467  2.0060
17038SOL    HW252535   1.740   4.000   1.413 -0.5763  0.1324  1.1328
17039SOL     OW52536   4.054   0.644   5.499  0.2398 -0.2567  0.3604
17039SOL    HW152537   4.125   0.689   5.545  1.3163 -1.2040 -0.3236
17039SOL    HW252538   3.988   0.629   5.567  1.2789 -0.5661  1.3486
17040SOL     OW52539   3.516   4.231   5.713  0.5220  0.1985 -0.0582
17040SOL    HW152540   3.444   4.292   5.729  0.2368 -0.3384  0.7831
17040SOL    HW252541   3.593   4.287   5.702 -0.1374  0.8258 -1.8637
17041SOL     OW52542   6.012   7.144   7.887  0.5181 -0.1103 -0.3166
17041SOL    HW152543   6.005   7.218   7.828  2.2995  0.1722 -0.2022
17041SOL    HW252544   5.997   7.181   7.974 -0.0067 -0.1598 -0.3792
17042SOL     OW52545   7.776   1.997   5.851  0.1410 -0.0775 -0.5015
17042SOL    HW152546   7.791   1.936   5.779 -0.2888 -0.3647 -0.3516
17042SOL    HW252547   7.721   1.949   5.912 -0.2452  0.4749 -0.4057
17043SOL     OW52548   5.751   2.538   0.188  0.9832 -0.4535  0.1988
17043SOL    HW152549   5.697   2.583   0.123  0.4168 -1.5982 -0.1385
17043SOL    HW252550   5.816   2.604   0.214  1.0164  0.1275 -1.2756
17044SOL     OW52551   4.473   0.237   2.245 -1.2088 -0.3118  0.0685
17044SOL    HW152552   4.412   0.167   2.221 -0.8674 -0.3944 -0.5928
17044SOL    HW252553   4.536   0.240   2.172 -0.9711  0.3955  0.2913
17045SOL     OW52554   6.726   2.109   4.899  0.4178 -0.3043  0.0730
17045SOL    HW152555   6.708   2.057   4.821  0.4561 -0.2003 -0.0062
17045SOL    HW252556   6.793   2.060   4.946 -0.6729 -1.1345  0.8107
17046SOL     OW52557   3.357   4.480   5.131 -0.1118 -0.0685  0.2983
17046SOL    HW152558   3.359   4.405   5.191 -2.0887 -1.8204 -1.6784
17046SOL    HW252559   3.316   4.447   5.052  1.0489  2.5535 -1.5497
17047SOL     OW52560   5.255   4.074   6.727 -0.3586  0.0302  0.1376
17047SOL    HW152561   5.224   4.067   6.637 -0.5745  1.4281  0.0822
17047SOL    HW252562   5.311   4.152   6.728 -0.0971 -0.1461  1.1427
17048SOL     OW52563   8.349   0.470   3.966  0.2846 -0.2469 -0.1236
17048SOL    HW152564   8.309   0.413   3.900 -0.9610  0.7477 -0.2747
17048SOL    HW252565   8.409   0.526   3.916  0.7227 -0.7147 -0.1282
17049SOL     OW52566   3.106   0.090   5.636 -0.6072 -0.1999 -0.3129
17049SOL    HW152567   3.012   0.108   5.627 -0.4868  0.3777 -0.4346
17049SOL    HW252568   3.149   0.173   5.613 -0.0430 -0.6381 -0.8533
17050SOL     OW52569   3.932   0.718   0.940 -0.1592  0.8887  0.3637
17050SOL    HW152570   3.885   0.796   0.968  0.1106  1.0324  0.4273
17050SOL    HW252571   3.890   0.692   0.859 -0.2811  1.0750  0.3658
17051SOL     OW52572   2.735   7.457   0.581  0.0858 -0.1264  0.1521
17051SOL    HW152573   2.787   7.384   0.616  0.8974 -0.1577 -1.0759
17051SOL    HW252574   2.650   7.448   0.624  0.7430 -0.7110  1.3921
17052SOL     OW52575   5.902   6.248   0.351  0.0356  0.2663  0.2522
17052SOL    HW152576   5.846   6.320   0.378 -0.3439 -0.5495  1.7442
17052SOL    HW252577   5.856   6.169   0.380  0.1928 -0.6355 -1.7725
17053SOL     OW52578   6.863   1.520   2.762  0.0978  0.1707 -0.3130
17053SOL    HW152579   6.915   1.582   2.813 -0.2660  0.5965 -0.4455
17053SOL    HW252580   6.829   1.572   2.689 -0.3134 -0.1580 -0.3603
17054SOL     OW52581   7.872   6.446   4.976  0.0209  0.1324  0.0411
17054SOL    HW152582   7.940   6.383   5.000  0.3020 -0.1580 -1.4218
17054SOL    HW252583   7.919   6.528   4.963  0.1874 -0.1753 -1.4247
17055SOL     OW52584   1.057   6.929   3.240  0.1351 -0.3046 -0.2088
17055SOL    HW152585   1.059   7.011   3.290  0.3597  0.0303 -0.7633
17055SOL    HW252586   1.150   6.907   3.228  0.0753 -0.8620  0.2929
17056SOL     OW52587   1.796   6.895   7.203  0.4419 -0.1921 -0.4345
17056SOL    HW152588   1.734   6.962   7.173 -0.4061 -1.0797 -0.7270
17056SOL    HW252589   1.829   6.928   7.286 -0.9596 -0.0201  0.0773
17057SOL     OW52590   0.449   5.441   2.227  0.0261 -0.2147 -0.0290
17057SOL    HW152591   0.467   5.529   2.262 -1.8192 -0.5649  1.9972
17057SOL    HW252592   0.362   5.448   2.188 -1.0051 -1.5195  1.8735
17058SOL     OW52593   5.265   2.218   7.974 -0.1773  0.5614 -0.1217
17058SOL    HW152594   5.224   2.136   8.002  0.8662  0.4451  1.1823
17058SOL    HW252595   5.282   2.206   7.881  0.5386 -0.9732  0.1842
17059SOL     OW52596   7.215   5.850   7.798 -0.4415 -0.2415  0.0744
17059SOL    HW152597   7.217   5.845   7.894  0.7891  0.4271  0.0975
17059SOL    HW252598   7.266   5.775   7.769 -2.5087 -1.6526 -0.1458
17060SOL     OW52599   7.769   2.864   4.604  0.0071 -0.0494 -0.6307
17060SOL    HW152600   7.832   2.850   4.533  2.4320  2.3240  0.8963
17060SOL    HW252601   7.819   2.850   4.684 -2.0824 -0.4103  0.6855
17061SOL     OW52602   3.010   3.576   3.111 -0.2365 -0.3809 -0.0622
17061SOL    HW152603   2.952   3.624   3.053 -2.7227  0.5595  2.9444
17061SOL    HW252604   3.044   3.642   3.172  0.6347 -1.6102  0.8501
17062SOL     OW52605   3.945   7.326   6.247 -0.3037 -0.5309  0.5988
17062SOL    HW152606   3.900   7.382   6.184  0.4810 -2.4457 -1.8077
17062SOL    HW252607   3.910   7.353   6.332 -3.9269 -0.0538 -0.8633
17063SOL     OW52608   2.673   0.613   8.369  0.2821  0.0160  0.3079
17063SOL    HW152609   2.722   0.549   8.420  1.2058 -1.7025 -2.4826
17063SOL    HW252610   2.582   0.600   8.394  0.6125 -1.4465  0.8191
17064SOL     OW52611   4.544   7.795   3.649  0.4006  0.8574 -0.1700
17064SOL    HW152612   4.590   7.877   3.635  2.6170  0.3852  3.1070
17064SOL    HW252613   4.602   7.728   3.613 -0.1530  0.5674 -0.5303
17065SOL     OW52614   7.174   4.740   2.965  0.3222 -0.2562  0.3933
17065SOL    HW152615   7.087   4.780   2.969 -0.2681 -1.3698 -0.6141
17065SOL    HW252616   7.159   4.648   2.987  1.3028 -0.4117  0.4766
17066SOL     OW52617   2.908   2.997   5.428 -0.1981  0.3929  0.0465
17066SOL    HW152618   2.843   2.994   5.499  0.5560  1.3587  0.8076
17066SOL    HW252619   2.955   2.914   5.435 -1.7805 -0.6279 -0.9605
17067SOL     OW52620   5.413   3.652   4.470 -0.0937 -0.2268  0.4973
17067SOL    HW152621   5.473   3.608   4.411 -0.6717 -1.2316  0.6321
17067SOL    HW252622   5.464   3.668   4.549  0.9832  2.0258 -0.5728
17068SOL     OW52623   2.670   8.026   2.784 -0.3240  0.2513  0.5708
17068SOL    HW152624   2.708   8.050   2.699 -1.4044 -0.6298 -0.1727
17068SOL    HW252625   2.660   7.931   2.780 -3.8139  0.5315  0.1922
17069SOL     OW52626   2.813   6.368   5.234 -0.5904 -0.1346  0.0955
17069SOL    HW152627   2.824   6.380   5.328  0.8910 -0.1090 -0.0535
17069SOL    HW252628   2.774   6.282   5.225 -2.7250  0.6969  0.7950
17070SOL     OW52629   2.644   3.123   4.553  0.7839 -0.0409 -0.1432
17070SOL    HW152630   2.684   3.056   4.497 -0.2668 -1.4480  0.7173
17070SOL    HW252631   2.703   3.131   4.627  0.6375 -0.4384  0.0195
17071SOL     OW52632   3.927   2.680   3.419 -0.1222  0.1905 -0.0449
17071SOL    HW152633   4.017   2.653   3.436  0.0523  0.2726 -0.8012
17071SOL    HW252634   3.915   2.760   3.470 -0.0845 -0.3498  0.8281
17072SOL     OW52635   8.096   4.994   7.732  0.0767 -0.2912  0.0754
17072SOL    HW152636   8.084   4.923   7.669  2.1423 -1.3455  0.7734
17072SOL    HW252637   8.067   5.072   7.686 -1.0058 -1.3961 -1.2003
17073SOL     OW52638   2.012   0.183   6.016 -0.1460 -0.0723  0.2051
17073SOL    HW152639   1.999   0.254   6.079 -1.1199 -1.4649  1.6733
17073SOL    HW252640   2.083   0.131   6.053 -0.2825 -0.5579 -0.2071
17074SOL     OW52641   1.787   6.961   1.943  0.1780  0.2948  0.1889
17074SOL    HW152642   1.698   6.930   1.926  0.2994  0.9073 -1.9070
17074SOL    HW252643   1.775   7.049   1.980 -0.1602  1.2492 -2.0024
17075SOL     OW52644   5.776   0.750   7.299 -0.0617 -0.4799 -0.1001
17075SOL    HW152645   5.717   0.769   7.226  0.6068  0.8670 -0.3234
17075SOL    HW252646   5.863   0.743   7.259  0.1886 -0.6010  0.4520
17076SOL     OW52647   4.113   4.405   7.413 -0.0301 -0.1057 -0.2778
17076SOL    HW152648   4.076   4.391   7.326 -1.2354  1.3403 -0.0398
17076SOL    HW252649   4.057   4.352   7.471  1.4053 -1.9068 -0.4442
17077SOL     OW52650   7.077   5.338   3.169 -0.4179 -0.0122 -0.1465
17077SOL    HW152651   7.014   5.326   3.240 -0.6661  1.9760  0.0299
17077SOL    HW252652   7.027   5.318   3.089 -1.1399  1.0099  0.0297
17078SOL     OW52653   7.696   7.621   6.230  0.1637  0.3312 -0.4132
17078SOL    HW152654   7.645   7.698   6.255 -3.2545 -1.3120 -1.7527
17078SOL    HW252655   7.688   7.562   6.305  0.4260  0.2106 -0.4807
17079SOL     OW52656   5.934   3.216   5.736  0.1326 -0.4696  0.3031
17079SOL    HW152657   5.844   3.208   5.704  0.6424 -0.8098 -1.0941
17079SOL    HW252658   5.950   3.310   5.739 -0.1934 -0.4134  0.3587
17080SOL     OW52659   1.554   2.607   1.658 -0.6559 -0.0669 -0.2955
17080SOL    HW152660   1.593   2.676   1.605 -0.0551  0.8929  1.3251
17080SOL    HW252661   1.571   2.526   1.609  0.6467  0.6725 -1.1198
17081SOL     OW52662   0.806   3.325   5.570 -0.2088  0.5550  0.5563
17081SOL    HW152663   0.780   3.396   5.629  0.8002  1.0183  0.4544
17081SOL    HW252664   0.902   3.330   5.566 -0.2880  1.8894 -2.7765
17082SOL     OW52665   5.827   2.572   7.844  0.2310 -0.1200 -0.4403
17082SOL    HW152666   5.829   2.667   7.845 -0.2440 -0.1049 -0.3723
17082SOL    HW252667   5.919   2.545   7.851  0.3996  0.3314 -0.9341
17083SOL     OW52668   1.755   3.183   4.607  0.6531  0.3236 -0.6092
17083SOL    HW152669   1.821   3.249   4.587  0.7029  0.7155  0.7251
17083SOL    HW252670   1.770   3.161   4.699 -1.6541  1.1612  0.0420
17084SOL     OW52671   0.963   2.819   3.684 -0.7853  0.2371 -0.1158
17084SOL    HW152672   0.980   2.904   3.643  2.0847  0.4717  1.2651
17084SOL    HW252673   1.032   2.762   3.650 -1.0413 -0.7794  1.0071
17085SOL     OW52674   3.599   8.333   3.111 -0.9809  0.2038  1.3046
17085SOL    HW152675   3.664   8.307   3.045 -2.0168 -0.6095  0.5747
17085SOL    HW252676   3.595   8.428   3.104  0.6244  0.3494  1.8576
17086SOL     OW52677   1.927   2.806   2.170  0.2647 -0.1845 -0.4006
17086SOL    HW152678   1.972   2.729   2.205 -0.5459 -0.2644  0.5059
17086SOL    HW252679   1.931   2.870   2.240 -1.7785 -0.5053  0.0774
17087SOL     OW52680   6.003   8.296   6.701  0.4694 -0.4279 -0.2053
17087SOL    HW152681   5.966   8.380   6.727  2.2025  0.1082  0.6656
17087SOL    HW252682   6.012   8.302   6.606  0.1718  0.2018 -0.1967
17088SOL     OW52683   4.970   3.989   7.628  0.2744 -0.0237 -0.1586
17088SOL    HW152684   5.019   3.907   7.614 -1.0267 -0.9454  0.4795
17088SOL    HW252685   4.909   3.993   7.555 -0.3937 -0.1844  0.3832
17089SOL     OW52686   8.299   6.299   6.096 -0.0360 -0.1582  0.6111
17089SOL    HW152687   8.253   6.374   6.057 -0.2540 -1.0604 -0.9522
17089SOL    HW252688   8.377   6.336   6.136 -0.9885  1.1155  1.3705
17090SOL     OW52689   1.454   4.370   3.922  0.3812  0.6748  0.2904
17090SOL    HW152690   1.449   4.395   4.014  0.2401 -0.9660  0.7606
17090SOL    HW252691   1.424   4.279   3.920 -0.4298  0.9330 -1.4954
17091SOL     OW52692   6.636   6.331   4.956 -0.0062  0.2460 -0.1882
17091SOL    HW152693   6.642   6.292   5.044  0.5052  0.0679 -0.2951
17091SOL    HW252694   6.556   6.383   4.958 -1.3351 -1.6720 -0.3752
17092SOL     OW52695   7.332   7.250   6.947  0.4599 -0.3818  0.0337
17092SOL    HW152696   7.377   7.266   6.864  1.9313  1.2703  1.0752
17092SOL    HW252697   7.399   7.207   7.001  0.3229  0.7132  1.1104
17093SOL     OW52698   6.556   4.362   1.781  0.0572  0.6402  0.0298
17093SOL    HW152699   6.475   4.406   1.754  0.2020  0.2590 -1.0801
17093SOL    HW252700   6.536   4.326   1.867 -0.7868  0.9738 -0.0148
17094SOL     OW52701   3.151   0.739   8.064 -0.2398 -0.0093  0.0791
17094SOL    HW152702   3.229   0.754   8.117 -0.6170  1.1609  0.3452
17094SOL    HW252703   3.148   0.814   8.004 -2.0702  0.9542  1.2523
17095SOL     OW52704   6.688   6.668   7.841 -0.4557 -0.1816  0.0555
17095SOL    HW152705   6.686   6.749   7.892  2.8556 -0.9798  1.6975
17095SOL    HW252706   6.627   6.610   7.887 -1.3609  0.7105  0.0152
17096SOL     OW52707   3.503   3.667   7.955 -0.0867 -0.3801 -0.1353
17096SOL    HW152708   3.503   3.621   7.871  1.5516 -0.5531 -0.0725
17096SOL    HW252709   3.501   3.596   8.020 -3.1805 -0.2307  0.0397
17097SOL     OW52710   0.284   7.795   1.118  0.2954 -0.2284  0.3453
17097SOL    HW152711   0.195   7.813   1.149 -0.4839 -3.0336  0.0345
17097SOL    HW252712   0.329   7.758   1.194  1.1078  0.8732  0.4091
17098SOL     OW52713   2.815   8.206   0.903 -0.5258 -0.5203  0.4673
17098SOL    HW152714   2.846   8.187   0.814 -2.1346  0.3069 -0.3119
17098SOL    HW252715   2.760   8.284   0.893  1.5398  1.3840  2.6686
17099SOL     OW52716   6.478   3.294   6.252  0.2404  0.1528 -0.4631
17099SOL    HW152717   6.434   3.369   6.212  0.4842 -0.0702 -1.1696
17099SOL    HW252718   6.487   3.230   6.180  0.1658 -0.4921  0.0882
17100SOL     OW52719   4.069   7.526   4.558  0.0967 -0.1803  0.0257
17100SOL    HW152720   3.998   7.480   4.602 -1.1061  0.9894 -0.6237
17100SOL    HW252721   4.127   7.456   4.526 -0.4654 -1.1268  1.0253
17101SOL     OW52722   7.441   2.767   8.275  0.4133 -0.4684 -0.2872
17101SOL    HW152723   7.522   2.725   8.305 -0.9485 -2.0268  1.4776
17101SOL    HW252724   7.442   2.854   8.315  0.1023 -1.3895  1.8745
17102SOL     OW52725   3.331   5.477   7.485 -0.0215 -0.4209 -0.2485
17102SOL    HW152726   3.330   5.472   7.580  1.1162  3.6567  0.1695
17102SOL    HW252727   3.243   5.452   7.458 -0.6463 -0.7461  1.9231
17103SOL     OW52728   1.009   0.172   1.947 -0.0345 -0.0736  0.4174
17103SOL    HW152729   1.002   0.244   2.010  0.3425 -0.4259  0.8695
17103SOL    HW252730   0.998   0.093   1.999 -0.1741 -0.3572 -0.0334
17104SOL     OW52731   7.153   1.731   6.307  0.3415  0.1602 -0.0025
17104SOL    HW152732   7.064   1.731   6.271 -0.0457 -0.2136  0.9270
17104SOL    HW252733   7.174   1.638   6.316  1.3358  0.2127 -1.4025
17105SOL     OW52734   5.315   8.218   4.495 -0.6389  0.0552  0.0002
17105SOL    HW152735   5.364   8.154   4.444 -1.1615  0.0720 -0.5306
17105SOL    HW252736   5.377   8.289   4.510 -0.4952  0.0745 -0.6579
17106SOL     OW52737   0.295   3.908   0.926  0.6688  0.0470 -0.0085
17106SOL    HW152738   0.386   3.911   0.953 -0.1963  0.5206  3.2751
17106SOL    HW252739   0.263   3.997   0.940 -0.6939 -0.5127  0.6273
17107SOL     OW52740   0.965   1.951   5.311  0.3469  0.2146  0.1843
17107SOL    HW152741   1.044   1.971   5.262 -0.9950 -0.4769 -2.4406
17107SOL    HW252742   0.957   1.856   5.307 -0.3849  0.2313  0.8539
17108SOL     OW52743   3.864   0.093   8.244  0.5013 -0.3233 -0.1338
17108SOL    HW152744   3.834   0.026   8.306 -1.0967  0.8978  0.5053
17108SOL    HW252745   3.923   0.148   8.295  0.8418 -0.5349 -0.3007
17109SOL     OW52746   1.558   0.595   8.036 -0.3354  0.6074  0.2346
17109SOL    HW152747   1.622   0.532   8.069  0.2657  0.8224 -0.4996
17109SOL    HW252748   1.494   0.603   8.107 -0.0046 -0.2367  0.6502
17110SOL     OW52749   6.216   6.440   1.359  0.6136  0.0874  0.4980
17110SOL    HW152750   6.257   6.439   1.273  1.6801 -2.4813  0.9719
17110SOL    HW252751   6.127   6.471   1.343  0.8465 -0.1883 -1.4816
17111SOL     OW52752   0.544   7.413   5.528  0.3590  0.0338  0.2481
17111SOL    HW152753   0.492   7.473   5.475 -0.0773 -0.1417  0.4691
17111SOL    HW252754   0.577   7.348   5.466  1.1299  0.6992 -0.0476
17112SOL     OW52755   6.320   3.368   4.432  0.0540  0.5864 -0.4404
17112SOL    HW152756   6.322   3.456   4.469  0.0854  0.0726  0.8294
17112SOL    HW252757   6.351   3.379   4.341 -0.1099  1.8905 -0.3523
17113SOL     OW52758   0.661   1.135   0.728 -0.5665  0.0290  0.0464
17113SOL    HW152759   0.705   1.192   0.664 -3.6840  0.6013 -1.7956
17113SOL    HW252760   0.656   1.050   0.684 -2.2628  0.2891 -0.3190
17114SOL     OW52761   1.012   6.301   5.879  0.2528 -0.3112  0.0631
17114SOL    HW152762   0.988   6.269   5.792 -2.2775  1.6955 -0.0960
17114SOL    HW252763   1.067   6.231   5.916  0.3147 -1.8169 -2.5863
17115SOL     OW52764   8.062   3.383   6.146 -0.0385  0.0612 -0.2636
17115SOL    HW152765   8.106   3.331   6.079 -1.1673 -0.6271 -0.5088
17115SOL    HW252766   8.037   3.320   6.213 -0.9246  0.3643 -0.2876
17116SOL     OW52767   3.905   2.434   3.992  0.1692  0.1477  0.4916
17116SOL    HW152768   3.887   2.522   4.025 -0.9272 -0.1979  0.8677
17116SOL    HW252769   3.999   2.434   3.974  0.0518  1.6362 -0.2826
17117SOL     OW52770   3.831   6.328   2.188  0.0067 -0.6362 -0.1221
17117SOL    HW152771   3.836   6.288   2.275  0.8007  1.0410  0.6559
17117SOL    HW252772   3.766   6.397   2.198 -0.4851 -0.9500 -1.1003
17118SOL     OW52773   0.781   6.773   3.896 -0.2634 -0.1744 -0.0617
17118SOL    HW152774   0.801   6.708   3.828 -0.4669  0.3381 -0.6186
17118SOL    HW252775   0.865   6.816   3.913 -0.0981 -0.6798  0.4126
17119SOL     OW52776   1.393   4.042   1.631 -0.2295 -0.1330 -0.2322
17119SOL    HW152777   1.427   3.961   1.594 -0.7708 -0.2899 -0.3937
17119SOL    HW252778   1.325   4.070   1.570  1.4727  1.6741 -1.4147
17120SOL     OW52779   1.364   5.767   0.640 -0.2408  0.1176  0.1996
17120SOL    HW152780   1.283   5.817   0.634  0.0744  0.4983 -1.0775
17120SOL    HW252781   1.433   5.834   0.644  0.0471 -0.2068  0.9823
17121SOL     OW52782   7.946   0.558   1.326  0.0620  0.3096 -0.0543
17121SOL    HW152783   7.874   0.574   1.265  0.7301 -0.1062 -0.9815
17121SOL    HW252784   8.018   0.529   1.270  1.0826  1.1269  0.8027
17122SOL     OW52785   5.047   5.803   6.762 -0.0428 -0.6608 -0.1986
17122SOL    HW152786   5.107   5.827   6.833  1.0603 -0.1596 -1.2403
17122SOL    HW252787   4.960   5.808   6.800  0.3177  2.1927  0.4733
17123SOL     OW52788   4.178   3.002   7.582  0.5226  0.0059 -0.0894
17123SOL    HW152789   4.135   3.006   7.496 -0.8613 -1.6378  0.4761
17123SOL    HW252790   4.268   3.029   7.564 -0.5709  3.3254 -1.3541
17124SOL     OW52791   6.857   4.649   5.639 -0.1247 -0.0596 -0.0957
17124SOL    HW152792   6.881   4.727   5.689 -1.7218  1.4262 -1.5105
17124SOL    HW252793   6.779   4.615   5.683 -0.3597  0.0787 -0.4029
17125SOL     OW52794   1.709   1.150   2.246 -0.2876  0.0136  0.2829
17125SOL    HW152795   1.696   1.141   2.151  1.0560  1.2423 -0.0459
17125SOL    HW252796   1.719   1.244   2.260  0.7592 -0.2562  1.4653
17126SOL     OW52797   2.815   0.936   1.232  0.6959  0.7364  0.4469
17126SOL    HW152798   2.855   0.917   1.147 -0.8328  1.0432 -0.3695
17126SOL    HW252799   2.776   1.023   1.221 -0.2717  0.4030  1.1828
17127SOL     OW52800   0.414   7.272   5.915 -0.0415  0.0450  0.2192
17127SOL    HW152801   0.451   7.211   5.979 -0.3001 -0.1891  0.1472
17127SOL    HW252802   0.469   7.351   5.922  0.2843 -0.1902  0.3205
17128SOL     OW52803   8.187   8.257   0.213  0.4077  0.0315  0.2045
17128SOL    HW152804   8.253   8.188   0.222  1.4762  1.0836  0.5750
17128SOL    HW252805   8.157   8.273   0.303  0.6865  0.5379  0.2120
17129SOL     OW52806   4.273   5.970   2.346  0.0650  0.5098 -0.1257
17129SOL    HW152807   4.211   6.032   2.384  0.2958 -0.6131  2.2716
17129SOL    HW252808   4.353   6.021   2.332  0.9047  0.5034  3.6137
17130SOL     OW52809   4.836   2.676   0.871 -0.4019  0.0252 -0.7842
17130SOL    HW152810   4.754   2.634   0.896  1.1314 -1.7827  1.5647
17130SOL    HW252811   4.863   2.725   0.948  0.0327  1.8866 -2.0477
17131SOL     OW52812   7.430   5.294   7.145 -0.1367  0.0916 -0.0377
17131SOL    HW152813   7.515   5.334   7.166 -0.6070  0.0372  2.2201
17131SOL    HW252814   7.383   5.362   7.097  0.2348  1.1384  1.0267
17132SOL     OW52815   7.391   8.004   3.615 -0.3531 -0.1026 -0.4989
17132SOL    HW152816   7.341   8.001   3.696 -0.0290 -0.0738 -0.2974
17132SOL    HW252817   7.356   7.932   3.562 -1.9143  1.0479 -1.1303
17133SOL     OW52818   6.298   0.100   6.932  0.0997  0.1459  0.6329
17133SOL    HW152819   6.305   0.195   6.943  1.6881 -0.0543  1.7760
17133SOL    HW252820   6.235   0.072   6.998 -1.7203  0.5576 -0.8624
17134SOL     OW52821   0.688   5.195   0.904  0.2376  0.1422 -0.0487
17134SOL    HW152822   0.782   5.207   0.897  0.2468 -0.2722 -0.7961
17134SOL    HW252823   0.651   5.255   0.839  0.0330 -0.2196 -0.2736
17135SOL     OW52824   5.117   4.813   6.030  0.2260  0.1408 -1.0145
17135SOL    HW152825   5.037   4.845   6.073  0.8324 -1.0305  1.1535
17135SOL    HW252826   5.145   4.739   6.084  1.4426 -1.0505 -3.1439
17136SOL     OW52827   7.644   7.823   4.671 -0.8058 -0.1409  0.5530
17136SOL    HW152828   7.631   7.736   4.709 -0.5109 -0.2570  0.3892
17136SOL    HW252829   7.667   7.878   4.746 -1.1009 -0.1768  0.6737
17137SOL     OW52830   2.968   3.446   8.156 -0.2520 -0.0813 -0.5262
17137SOL    HW152831   2.925   3.361   8.151  1.5269 -1.0171 -0.9009
17137SOL    HW252832   3.050   3.435   8.106  0.3895  1.6108  0.0595
17138SOL     OW52833   1.986   6.305   4.170  0.2554  0.4577 -0.4662
17138SOL    HW152834   2.059   6.360   4.198 -0.6456  1.6430 -0.3450
17138SOL    HW252835   1.908   6.358   4.187 -0.8165 -1.4923  1.2405
17139SOL     OW52836   0.191   0.977   4.986 -0.2571  0.0205 -0.4731
17139SOL    HW152837   0.171   0.952   5.076 -3.5393 -1.5185 -1.4997
17139SOL    HW252838   0.234   0.900   4.949  0.0971  0.2564 -0.5625
17140SOL     OW52839   6.508   6.821   6.934  0.1011  0.0730  0.3260
17140SOL    HW152840   6.464   6.739   6.910 -0.3294  0.3450  0.1706
17140SOL    HW252841   6.580   6.794   6.991 -0.5227 -0.3561  0.9339
17141SOL     OW52842   6.364   5.100   3.415 -0.2518 -0.1334  0.3102
17141SOL    HW152843   6.411   5.028   3.455  0.3387 -0.3619 -0.7389
17141SOL    HW252844   6.298   5.126   3.479  0.5383 -0.5881  1.3250
17142SOL     OW52845   1.804   5.174   5.111 -0.3813  0.6218 -0.0699
17142SOL    HW152846   1.800   5.195   5.204 -0.5328  1.3842 -0.2394
17142SOL    HW252847   1.898   5.165   5.092 -0.3444  0.5920  0.1296
17143SOL     OW52848   2.521   4.287   7.098  0.3627 -0.3293  0.2558
17143SOL    HW152849   2.585   4.230   7.141  0.4902  0.2320  0.8396
17143SOL    HW252850   2.503   4.244   7.014  1.1321 -0.7582  0.2927
17144SOL     OW52851   7.377   1.317   4.018 -0.4523  0.0141  0.1997
17144SOL    HW152852   7.333   1.369   4.084 -3.1825 -2.1693  0.3012
17144SOL    HW252853   7.317   1.317   3.943  2.3182  2.0075 -2.2149
17145SOL     OW52854   3.222   2.049   1.804  0.2149 -0.1913 -0.4351
17145SOL    HW152855   3.291   1.995   1.843  0.2434 -0.0258 -0.2559
17145SOL    HW252856   3.268   2.123   1.764  0.0405  0.7304  1.0038
17146SOL     OW52857   1.615   1.968   2.487 -0.2102 -0.3744  0.1391
17146SOL    HW152858   1.536   1.915   2.476 -0.4708 -0.0434  0.3627
17146SOL    HW252859   1.679   1.909   2.525  0.1888 -1.1044 -1.5578
17147SOL     OW52860   4.629   7.422   0.158  0.0820 -0.3236  0.6891
17147SOL    HW152861   4.615   7.333   0.128  0.5101 -0.0883 -0.2572
17147SOL    HW252862   4.639   7.473   0.078  3.1418  0.0308  1.1487
17148SOL     OW52863   7.177   8.275   1.706 -0.2564  0.2636 -0.2738
17148SOL    HW152864   7.249   8.285   1.768 -0.2400 -0.9324 -0.0701
17148SOL    HW252865   7.102   8.251   1.761 -0.7512  1.2263 -0.5123
17149SOL     OW52866   4.846   0.555   3.967 -0.5964  0.2951 -0.1959
17149SOL    HW152867   4.835   0.610   3.889 -0.8990 -0.0026 -0.3685
17149SOL    HW252868   4.770   0.576   4.021 -1.1864 -0.5763 -0.6533
17150SOL     OW52869   2.968   8.185   0.112  0.2830  0.1769  0.1491
17150SOL    HW152870   2.955   8.269   0.070  2.6713 -0.2439 -1.6494
17150SOL    HW252871   2.891   8.173   0.167 -1.0001  2.6591 -0.9688
17151SOL     OW52872   2.801   2.197   2.877 -0.1260  0.5119 -0.2019
17151SOL    HW152873   2.795   2.132   2.807  0.5358 -0.0161  0.2154
17151SOL    HW252874   2.769   2.278   2.838 -0.5984  0.0191 -0.8472
17152SOL     OW52875   3.619   3.791   0.446 -0.6303  0.1822  0.0060
17152SOL    HW152876   3.703   3.762   0.412  0.0474 -0.8014  2.3303
17152SOL    HW252877   3.563   3.713   0.443 -1.0434  0.4814 -0.2641
17153SOL     OW52878   1.199   6.449   0.481  0.0165 -0.2777 -0.0177
17153SOL    HW152879   1.238   6.535   0.494 -2.0905  0.5919  1.0802
17153SOL    HW252880   1.169   6.450   0.390  0.8698 -0.2559 -0.3087
17154SOL     OW52881   2.001   6.969   0.084 -0.0279 -0.0705 -0.0265
17154SOL    HW152882   2.059   6.897   0.108  1.5760  1.1256 -0.1614
17154SOL    HW252883   2.002   7.027   0.159  0.9555  1.1651 -0.9465
17155SOL     OW52884   4.194   5.509   0.124 -0.1093 -0.0881  0.2869
17155SOL    HW152885   4.248   5.545   0.194  0.2539  0.9381 -0.4876
17155SOL    HW252886   4.121   5.467   0.169  0.8238 -0.6638  1.3226
17156SOL     OW52887   4.779   7.485   0.788  0.3826 -0.4685  0.2520
17156SOL    HW152888   4.749   7.568   0.752 -0.6367 -1.2432 -0.7725
17156SOL    HW252889   4.731   7.476   0.870 -0.4645 -0.6039 -0.2410
17157SOL     OW52890   6.047   2.915   3.906 -0.2347  0.0302 -0.0874
17157SOL    HW152891   5.961   2.921   3.866 -0.6407 -0.4778  0.7014
17157SOL    HW252892   6.053   2.825   3.939  1.2859 -0.5200 -1.6695
17158SOL     OW52893   3.480   1.004   6.714  0.4912 -0.2824 -0.0792
17158SOL    HW152894   3.488   1.098   6.696 -1.6340 -0.2591 -1.2396
17158SOL    HW252895   3.494   0.996   6.808  1.6475  1.0566 -0.1080
17159SOL     OW52896   6.587   0.609   3.751  0.4413 -0.3672 -0.0112
17159SOL    HW152897   6.550   0.528   3.784 -0.4435 -0.4460 -1.1210
17159SOL    HW252898   6.545   0.678   3.802 -0.3901 -0.5190 -0.4674
17160SOL     OW52899   6.736   2.248   6.815  0.0398 -0.1045  0.1833
17160SOL    HW152900   6.707   2.264   6.725 -2.0434  0.3299  0.8633
17160SOL    HW252901   6.699   2.162   6.836  2.4313 -1.2682 -0.0598
17161SOL     OW52902   6.480   0.390   2.645  0.3134 -0.1543  0.3865
17161SOL    HW152903   6.426   0.459   2.606  1.6633  0.1315 -1.0941
17161SOL    HW252904   6.453   0.388   2.736 -0.5804  1.5401  0.2174
17162SOL     OW52905   2.344   2.348   3.805 -0.4469 -0.0110  0.1223
17162SOL    HW152906   2.259   2.389   3.818 -0.9525 -0.2138 -2.1207
17162SOL    HW252907   2.371   2.377   3.717 -0.6747 -4.0554 -1.5143
17163SOL     OW52908   1.697   4.732   3.008 -0.4347 -0.0141  0.5251
17163SOL    HW152909   1.720   4.640   3.020  0.0676  0.0989  0.4603
17163SOL    HW252910   1.615   4.730   2.960  0.1000 -0.4248 -0.4052
17164SOL     OW52911   2.571   3.561   4.650 -0.0442  0.2034  0.5054
17164SOL    HW152912   2.629   3.627   4.688  0.6229  0.5399 -1.0432
17164SOL    HW252913   2.630   3.499   4.607 -0.7913  0.4612 -0.9589
17165SOL     OW52914   4.054   0.190   1.451  0.4450 -0.4903  0.0049
17165SOL    HW152915   3.974   0.235   1.480  0.8376  0.1809  0.0610
17165SOL    HW252916   4.027   0.099   1.441 -0.5408 -0.1486 -0.7392
17166SOL     OW52917   4.295   4.481   5.224 -0.1905 -0.0892  0.1904
17166SOL    HW152918   4.247   4.465   5.143  0.8288 -0.6632 -0.3193
17166SOL    HW252919   4.298   4.395   5.267 -0.0686  0.0539  0.4690
17167SOL     OW52920   3.574   7.201   5.339 -0.0224  0.0201 -0.2565
17167SOL    HW152921   3.519   7.244   5.273  1.0069 -0.9038 -1.7990
17167SOL    HW252922   3.635   7.269   5.368 -0.0341  0.2766 -0.8090
17168SOL     OW52923   5.417   2.635   6.689 -0.3403 -0.3321  0.6561
17168SOL    HW152924   5.434   2.712   6.635 -0.5960 -1.2441 -0.7719
17168SOL    HW252925   5.470   2.566   6.650  0.2835 -0.7866  2.2246
17169SOL     OW52926   3.997   1.441   2.271 -0.1629  0.0880 -0.2432
17169SOL    HW152927   4.032   1.490   2.345  0.4435 -0.7696  0.0650
17169SOL    HW252928   3.980   1.353   2.306 -0.9953  0.0045 -0.8288
17170SOL     OW52929   4.166   4.621   6.983 -0.0607 -0.1480  0.1210
17170SOL    HW152930   4.077   4.609   7.016  0.7523 -1.8134  1.9789
17170SOL    HW252931   4.193   4.534   6.954  0.3206  0.7133 -2.3133
17171SOL     OW52932   8.232   4.786   1.528 -0.1717 -0.1755  0.2899
17171SOL    HW152933   8.168   4.762   1.461 -0.4983 -1.4517  1.0119
17171SOL    HW252934   8.315   4.748   1.498  0.3270  1.6439 -0.7416
17172SOL     OW52935   6.268   4.976   2.561  0.4447  0.0490 -0.1552
17172SOL    HW152936   6.291   4.972   2.468 -0.3563  0.7550 -0.3925
17172SOL    HW252937   6.250   4.885   2.585  0.9492 -0.1753 -0.6059
17173SOL     OW52938   2.039   1.199   3.665  0.5657 -0.0048  0.1177
17173SOL    HW152939   1.968   1.199   3.601  0.2938 -1.6428  0.3715
17173SOL    HW252940   2.093   1.274   3.641 -1.0054  1.0518 -0.3399
17174SOL     OW52941   0.351   8.130   3.691  0.0626  0.0797 -0.1236
17174SOL    HW152942   0.313   8.196   3.749  1.0709 -0.6138  1.4054
17174SOL    HW252943   0.438   8.115   3.727  1.7927  1.4418 -3.3402
17175SOL     OW52944   6.167   2.869   2.542 -0.1657 -0.1801 -0.3294
17175SOL    HW152945   6.253   2.910   2.535 -0.8466  1.2749 -0.4550
17175SOL    HW252946   6.178   2.784   2.499  0.9234  0.4360 -1.3409
17176SOL     OW52947   3.256   4.491   1.779  0.3624  0.5722  0.6824
17176SOL    HW152948   3.281   4.552   1.710 -0.1495  1.3064  1.1430
17176SOL    HW252949   3.161   4.498   1.785  0.4892  1.3992  2.2495
17177SOL     OW52950   3.021   5.195   5.375 -0.8269  0.6053 -0.8953
17177SOL    HW152951   3.097   5.150   5.412 -0.7865 -0.4263 -2.1454
17177SOL    HW252952   2.972   5.126   5.330 -2.1088  1.3943 -0.7570
17178SOL     OW52953   5.054   6.065   5.951 -0.2903  0.1651  0.2770
17178SOL    HW152954   5.144   6.097   5.951 -0.3455  0.3291  0.7209
17178SOL    HW252955   5.046   6.014   5.870 -0.2374  1.3739 -0.5053
17179SOL     OW52956   7.507   4.670   3.324 -0.2011 -0.1238  0.1152
17179SOL    HW152957   7.430   4.681   3.267  1.6591 -0.6252 -2.7061
17179SOL    HW252958   7.483   4.599   3.383 -2.0272  0.0007 -0.3872
17180SOL     OW52959   4.938   5.592   3.862 -0.2940  0.2735  0.1684
17180SOL    HW152960   4.869   5.607   3.799 -0.1835 -0.2033 -0.0695
17180SOL    HW252961   4.894   5.557   3.940 -0.2318 -0.9099 -0.3056
17181SOL     OW52962   7.187   5.289   8.220 -0.4665 -0.4762  0.4364
17181SOL    HW152963   7.266   5.329   8.183 -0.3521  0.1322  1.3009
17181SOL    HW252964   7.164   5.220   8.158 -0.3103  0.5168 -0.7881
17182SOL     OW52965   2.330   5.488   5.994  0.0894 -0.4776  0.2857
17182SOL    HW152966   2.354   5.572   5.955 -2.0803  1.7417  3.2595
17182SOL    HW252967   2.393   5.476   6.065 -1.9387  0.8843  2.4707
17183SOL     OW52968   5.694   3.493   2.600 -0.2899 -0.0378 -0.2739
17183SOL    HW152969   5.634   3.421   2.581  1.7139 -1.4363 -1.8886
17183SOL    HW252970   5.781   3.452   2.600  0.9163  2.3172 -0.9677
17184SOL     OW52971   2.231   5.765   5.904  0.1675  0.3102 -0.8955
17184SOL    HW152972   2.140   5.735   5.907 -0.1329  1.2979  0.7210
17184SOL    HW252973   2.255   5.757   5.811 -1.6616  0.3024 -1.4166
17185SOL     OW52974   4.600   7.276   1.141 -0.4396  0.3619  0.3280
17185SOL    HW152975   4.647   7.214   1.085  1.7134  0.3780  1.9822
17185SOL    HW252976   4.583   7.352   1.084 -1.5540 -0.9791 -1.2314
17186SOL     OW52977   4.032   2.024   4.379 -0.2759 -0.4052  0.5778
17186SOL    HW152978   4.111   2.060   4.420 -1.1569  0.6438  1.4455
17186SOL    HW252979   3.976   2.101   4.366 -2.1156 -1.3762  2.2006
17187SOL     OW52980   4.665   3.046   2.700 -0.2969 -0.0240 -0.1257
17187SOL    HW152981   4.712   3.003   2.773 -0.1834  0.1517 -0.0946
17187SOL    HW252982   4.626   3.123   2.740  0.0003  0.2255 -0.3114
17188SOL     OW52983   6.242   4.457   6.654 -0.0622  0.2179 -0.7663
17188SOL    HW152984   6.297   4.381   6.671 -0.1963 -0.1159 -1.7847
17188SOL    HW252985   6.295   4.532   6.680  0.5196 -0.1581 -0.8713
17189SOL     OW52986   0.276   2.043   4.143 -0.1803  0.0368  0.8655
17189SOL    HW152987   0.361   2.069   4.106  0.6598 -0.5334  2.3041
17189SOL    HW252988   0.241   2.123   4.181  1.8584 -0.4990  4.2627
17190SOL     OW52989   2.001   0.833   1.812 -0.1627 -0.4044  0.0247
17190SOL    HW152990   2.023   0.906   1.870 -0.5673  0.4592 -0.8657
17190SOL    HW252991   1.924   0.864   1.764 -0.7245 -1.6800  0.0698
17191SOL     OW52992   2.436   8.326   6.734  0.3137  0.5939  0.0179
17191SOL    HW152993   2.431   8.342   6.828 -0.9704  1.2941 -0.1407
17191SOL    HW252994   2.523   8.356   6.709  0.7565  0.1682  1.0168
17192SOL     OW52995   3.156   4.332   5.574  0.5668 -0.3102  1.0451
17192SOL    HW152996   3.126   4.243   5.557 -2.3222  0.5989  0.7390
17192SOL    HW252997   3.160   4.338   5.669  0.9708 -0.8043  1.0643
17193SOL     OW52998   6.755   1.225   7.010 -0.0361  0.0795 -0.1201
17193SOL    HW152999   6.694   1.239   6.937  0.6936  2.5660 -0.3330
17193SOL    HW253000   6.720   1.278   7.081  1.2369  0.6507  0.1137
17194SOL     OW53001   2.264   5.067   0.563  0.1753  0.1498 -0.0616
17194SOL    HW153002   2.205   5.088   0.490 -0.3129  1.9455  0.7827
17194SOL    HW253003   2.341   5.121   0.547  0.7993 -0.7473 -0.1378
17195SOL     OW53004   7.045   7.667   6.504 -0.4081  0.5981  0.1778
17195SOL    HW153005   7.080   7.596   6.450  0.4656  1.3748 -0.3191
17195SOL    HW253006   7.017   7.625   6.585 -1.3686 -0.5347 -0.7229
17196SOL     OW53007   5.329   4.770   4.645  0.1652 -0.2149  0.0648
17196SOL    HW153008   5.242   4.777   4.606  0.0527 -1.3831  0.0777
17196SOL    HW253009   5.372   4.853   4.623 -1.2149  0.7283  0.7682
17197SOL     OW53010   7.080   4.646   4.612 -0.7927  0.6198  0.3535
17197SOL    HW153011   7.129   4.708   4.667 -0.5682  1.6458 -0.9488
17197SOL    HW253012   6.993   4.643   4.652 -1.0542  2.4177 -0.0065
17198SOL     OW53013   2.587   2.375   5.487 -0.4670 -0.0380  0.2970
17198SOL    HW153014   2.570   2.293   5.534 -0.5285 -0.2622 -0.1112
17198SOL    HW253015   2.528   2.372   5.412  1.5074 -0.9320 -1.2973
17199SOL     OW53016   8.009   7.408   4.116  0.1862 -0.1410 -0.4021
17199SOL    HW153017   7.939   7.353   4.080 -0.2780  1.0802 -1.4199
17199SOL    HW253018   7.965   7.460   4.184 -0.1253  1.2288 -1.6100
17200SOL     OW53019   7.092   7.440   6.303 -0.2867  0.2414  0.2672
17200SOL    HW153020   7.052   7.422   6.219 -0.3170 -1.0861  0.5352
17200SOL    HW253021   7.163   7.501   6.284  1.1034 -1.6612 -1.1109
17201SOL     OW53022   3.432   4.732   1.335 -0.1421 -0.2923  0.1481
17201SOL    HW153023   3.344   4.767   1.350 -1.0411 -2.1667 -0.4863
17201SOL    HW253024   3.456   4.764   1.248 -1.5784 -2.3543 -1.0794
17202SOL     OW53025   0.054   1.631   3.715 -0.1410  0.0037 -0.4015
17202SOL    HW153026   0.040   1.689   3.790 -0.7463 -1.4496  0.6563
17202SOL    HW253027   0.072   1.546   3.754 -4.2486 -1.7614 -1.7483
17203SOL     OW53028   8.198   4.163   4.292  0.6206 -0.0511 -0.3125
17203SOL    HW153029   8.268   4.192   4.350 -0.5108  1.0215  0.5483
17203SOL    HW253030   8.156   4.244   4.262 -0.7665 -0.6838 -0.1628
17204SOL     OW53031   2.790   2.769   5.209 -0.1046 -0.1751 -0.6010
17204SOL    HW153032   2.749   2.757   5.294  0.8459  0.2981 -0.0628
17204SOL    HW253033   2.819   2.860   5.208 -0.9108  0.0988 -1.8021
17205SOL     OW53034   0.297   6.399   8.088  0.1342 -0.3819  0.2677
17205SOL    HW153035   0.297   6.491   8.114 -1.2292 -0.3627  0.2849
17205SOL    HW253036   0.389   6.379   8.069  0.3429  1.1925 -0.5286
17206SOL     OW53037   7.370   6.421   1.107  0.4403 -0.2780 -0.4118
17206SOL    HW153038   7.451   6.471   1.094  0.2426  0.0973 -0.2382
17206SOL    HW253039   7.394   6.352   1.169  0.1578  1.0658  1.2673
17207SOL     OW53040   4.853   1.168   8.363 -0.0995  0.0865 -0.9392
17207SOL    HW153041   4.893   1.181   8.449  1.2142  1.1707 -1.6563
17207SOL    HW253042   4.763   1.198   8.374  0.3884  1.3932 -0.2263
17208SOL     OW53043   1.760   2.035   0.627  0.0666 -0.6575 -0.2491
17208SOL    HW153044   1.819   2.011   0.555 -0.8285 -1.2504 -0.8204
17208SOL    HW253045   1.686   2.077   0.583  0.4075  0.7990  0.5231
17209SOL     OW53046   0.334   4.496   4.847 -0.0011  0.4409 -0.0199
17209SOL    HW153047   0.313   4.507   4.755  0.8832 -0.2118 -0.3119
17209SOL    HW253048   0.302   4.408   4.869 -1.3841  1.0812  0.6542
17210SOL     OW53049   0.577   6.494   3.934  0.0268  0.1012 -0.2604
17210SOL    HW153050   0.586   6.428   3.865  1.0454 -1.2997  1.1480
17210SOL    HW253051   0.577   6.578   3.887  0.9201 -0.7962 -1.9442
17211SOL     OW53052   0.833   0.578   4.340 -0.2849  0.1381  0.2168
17211SOL    HW153053   0.781   0.590   4.261 -2.3296 -0.8259  1.3568
17211SOL    HW253054   0.822   0.659   4.390  1.5382  1.0204 -0.6988
17212SOL     OW53055   0.977   3.377   1.347 -0.1169 -0.4623  0.3497
17212SOL    HW153056   0.950   3.290   1.318  1.4134 -0.7169 -0.4057
17212SOL    HW253057   1.035   3.409   1.278 -0.1272  0.8899  0.9306
17213SOL     OW53058   2.886   5.612   7.948  0.3057  0.0519 -0.5256
17213SOL    HW153059   2.832   5.534   7.956 -0.4854  0.5013 -1.3086
17213SOL    HW253060   2.898   5.643   8.038 -0.7044 -0.0837 -0.3402
17214SOL     OW53061   6.946   2.556   6.627 -0.0054  0.3858  0.1741
17214SOL    HW153062   6.990   2.595   6.551  0.8331 -0.7957  0.0159
17214SOL    HW253063   6.975   2.465   6.627 -1.7346 -0.1991  0.6493
17215SOL     OW53064   8.345   4.592   1.809 -0.3466  0.2290  0.0010
17215SOL    HW153065   8.411   4.621   1.746  0.1192  3.7041  1.8001
17215SOL    HW253066   8.383   4.514   1.850  0.7934 -0.1750 -1.7492
17216SOL     OW53067   7.961   4.960   4.663  0.3321 -0.2912  0.2554
17216SOL    HW153068   8.055   4.969   4.679  0.1514  3.8010 -0.0142
17216SOL    HW253069   7.955   4.939   4.570  1.0239  1.2420 -0.1722
17217SOL     OW53070   6.904   0.117   0.978 -0.2792  0.5169  0.1282
17217SOL    HW153071   6.956   0.052   1.025 -1.3028 -0.8265 -0.5270
17217SOL    HW253072   6.865   0.171   1.047 -0.1658 -0.1489  0.7213
17218SOL     OW53073   0.528   3.293   3.086  0.0125 -0.3196 -0.3385
17218SOL    HW153074   0.507   3.246   3.005  0.5258 -1.0268 -0.0732
17218SOL    HW253075   0.443   3.315   3.124 -0.2314 -0.6760 -0.6719
17219SOL     OW53076   5.126   6.852   0.829  0.4797 -0.2589 -0.0475
17219SOL    HW153077   5.209   6.806   0.817  1.0057  0.7064 -0.1476
17219SOL    HW253078   5.136   6.898   0.912  0.7857  1.4016 -0.9751
17220SOL     OW53079   1.611   5.618   0.331 -0.4514 -0.0755 -0.2658
17220SOL    HW153080   1.529   5.628   0.380  0.2591  1.1092  0.7471
17220SOL    HW253081   1.635   5.526   0.342 -1.2679 -0.2557  0.0486
17221SOL     OW53082   1.360   8.039   6.377 -0.0868 -0.0829 -0.0029
17221SOL    HW153083   1.275   8.056   6.418 -0.6590 -0.8328 -0.8379
17221SOL    HW253084   1.358   8.089   6.295 -0.7507 -1.9847 -1.2213
17222SOL     OW53085   3.485   7.496   5.636 -0.0690  0.2590  0.0355
17222SOL    HW153086   3.462   7.540   5.717 -1.2969  0.2615 -0.2944
17222SOL    HW253087   3.540   7.422   5.663 -0.1605  0.4778  0.8275
17223SOL     OW53088   0.945   1.022   2.345  0.4840 -0.2483  0.3620
17223SOL    HW153089   0.893   1.057   2.417 -0.5907 -0.9313 -0.0622
17223SOL    HW253090   1.013   0.970   2.388  0.3924  0.0742  0.9050
17224SOL     OW53091   0.967   7.968   5.721  0.5512  0.7759  0.0266
17224SOL    HW153092   0.897   8.033   5.718 -3.5046 -3.1348 -0.2256
17224SOL    HW253093   0.973   7.936   5.631  3.4586  1.5619 -0.1545
17225SOL     OW53094   3.372   1.804   2.764 -0.5447 -0.1591  0.3120
17225SOL    HW153095   3.364   1.836   2.674  0.9595 -1.9567 -0.5236
17225SOL    HW253096   3.459   1.765   2.769 -0.7961 -0.5930  2.4111
17226SOL     OW53097   6.818   5.652   4.011 -0.0458 -0.2866  0.4026
17226SOL    HW153098   6.770   5.672   4.091 -0.8740  0.9428 -0.3560
17226SOL    HW253099   6.876   5.727   3.998 -0.3655 -0.1766 -0.4626
17227SOL     OW53100   6.494   0.082   6.262  0.1617  0.0727 -0.1502
17227SOL    HW153101   6.468   0.017   6.326 -0.8047  0.3064 -0.2946
17227SOL    HW253102   6.548   0.034   6.199 -0.0488 -0.4604  0.0698
17228SOL     OW53103   4.621   6.061   6.607 -0.1620  0.2272  0.7360
17228SOL    HW153104   4.680   6.071   6.533 -0.1397  0.3593  0.7699
17228SOL    HW253105   4.534   6.047   6.568 -0.0454 -0.3599  0.6877
17229SOL     OW53106   5.313   5.302   5.993 -0.5845 -0.5703 -0.3044
17229SOL    HW153107   5.279   5.213   5.979 -2.5046  0.0299  0.2248
17229SOL    HW253108   5.252   5.341   6.055 -0.9307  1.7708 -2.0049
17230SOL     OW53109   1.149   2.213   4.452 -0.2900  0.2672 -0.1157
17230SOL    HW153110   1.143   2.167   4.368  1.4479  1.2492 -0.8204
17230SOL    HW253111   1.070   2.267   4.456 -0.8595 -0.5002 -0.6448
17231SOL     OW53112   2.586   4.991   4.269  0.1397  0.3890 -0.6859
17231SOL    HW153113   2.620   5.081   4.263 -1.5249  1.0992 -0.0269
17231SOL    HW253114   2.609   4.952   4.185  0.6295  1.5375 -1.1167
17232SOL     OW53115   2.303   1.108   3.796 -0.1273 -0.2942  0.1460
17232SOL    HW153116   2.292   1.091   3.890  2.2687  0.0746  0.5651
17232SOL    HW253117   2.236   1.054   3.754 -1.7460  0.0747  2.0744
17233SOL     OW53118   8.107   3.054   2.829 -0.0901  0.6130 -0.4725
17233SOL    HW153119   8.025   3.034   2.783 -0.0716 -0.3384 -0.1252
17233SOL    HW253120   8.092   3.022   2.918  0.7299  0.2575 -0.4565
17234SOL     OW53121   6.425   7.544   3.287 -0.2680  0.3882 -0.1250
17234SOL    HW153122   6.499   7.518   3.232 -0.6668 -0.3753 -0.2946
17234SOL    HW253123   6.461   7.543   3.376 -0.2398 -0.5825 -0.1456
17235SOL     OW53124   3.963   6.501   6.394 -0.0185 -0.9792  0.0766
17235SOL    HW153125   3.947   6.514   6.488 -2.1753  1.3672 -0.5020
17235SOL    HW253126   3.979   6.590   6.361 -0.6633 -1.5931 -1.9916
17236SOL     OW53127   0.619   4.628   6.053  0.2839 -0.3676 -0.2988
17236SOL    HW153128   0.605   4.718   6.083  0.1540 -0.5038  0.0569
17236SOL    HW253129   0.700   4.601   6.096 -0.1049 -0.6943  0.2403
17237SOL     OW53130   5.877   8.162   5.500 -0.0945  0.0159 -0.3008
17237SOL    HW153131   5.961   8.143   5.541 -0.6330 -0.4314  0.6227
17237SOL    HW253132   5.813   8.155   5.571 -1.1182 -1.2560 -1.2883
17238SOL     OW53133   4.040   0.861   3.168 -0.2080  0.3476 -0.1785
17238SOL    HW153134   4.032   0.909   3.085  2.5132  3.0416  0.8859
17238SOL    HW253135   4.131   0.831   3.169 -0.8233 -1.6282  0.9048
17239SOL     OW53136   5.419   2.769   5.311  0.1554 -0.1747  0.0901
17239SOL    HW153137   5.328   2.743   5.296 -0.4970  2.0933 -0.2109
17239SOL    HW253138   5.417   2.821   5.391  1.0243  0.5570 -0.3400
17240SOL     OW53139   3.768   3.615   4.322  0.1705  0.1398 -0.5047
17240SOL    HW153140   3.738   3.664   4.246 -1.0699 -0.3321 -0.3395
17240SOL    HW253141   3.707   3.541   4.329 -0.2128  0.5734  1.3740
17241SOL     OW53142   1.431   0.919   4.214  0.5149  0.3157 -0.0080
17241SOL    HW153143   1.410   1.012   4.225  1.2181  0.6023 -0.9564
17241SOL    HW253144   1.445   0.909   4.120  1.0987 -0.6115  0.1681
17242SOL     OW53145   6.460   4.303   2.923  0.1467  0.9097 -0.0556
17242SOL    HW153146   6.416   4.358   2.859  0.6778  1.0471 -0.3026
17242SOL    HW253147   6.419   4.326   3.007 -2.3732 -1.0443 -0.5867
17243SOL     OW53148   3.676   4.582   1.345 -0.1042 -0.4275  0.0253
17243SOL    HW153149   3.601   4.637   1.365  0.1348 -0.8184  2.2957
17243SOL    HW253150   3.750   4.642   1.339  0.0910 -0.3829  2.1252
17244SOL     OW53151   1.408   3.528   5.177  0.3141  0.6044 -0.1980
17244SOL    HW153152   1.338   3.497   5.235  0.8501  0.4103  0.3436
17244SOL    HW253153   1.361   3.561   5.100 -0.3338 -0.3247 -0.2179
17245SOL     OW53154   0.227   8.071   6.873 -0.0008  1.0768  0.0332
17245SOL    HW153155   0.228   8.036   6.962  0.6016 -2.4512 -1.1943
17245SOL    HW253156   0.138   8.102   6.860 -1.4677 -2.3457  0.6274
17246SOL     OW53157   8.121   6.116   2.704  0.6389  0.4248 -0.4205
17246SOL    HW153158   8.189   6.060   2.665 -0.1459 -0.3893 -0.6542
17246SOL    HW253159   8.046   6.106   2.646 -0.0086  0.5183  0.3866
17247SOL     OW53160   4.984   1.261   6.407 -0.3681 -0.0957 -0.0341
17247SOL    HW153161   5.024   1.252   6.494 -0.5373  0.3584  0.0916
17247SOL    HW253162   4.911   1.321   6.420  0.1010  0.6301 -0.6532
17248SOL     OW53163   0.129   1.837   3.513  0.5096 -0.2313 -0.0626
17248SOL    HW153164   0.087   1.790   3.585  1.1532 -0.3055  0.2691
17248SOL    HW253165   0.056   1.867   3.459  0.0714 -1.1969 -0.0246
17249SOL     OW53166   3.147   2.727   4.691 -0.3920  0.4556  0.5996
17249SOL    HW153167   3.193   2.804   4.660 -1.9018  1.0751 -0.2420
17249SOL    HW253168   3.188   2.654   4.645  0.2487  0.8835  0.4789
17250SOL     OW53169   0.146   2.488   2.806  0.2761 -0.5400  0.7729
17250SOL    HW153170   0.232   2.489   2.848  0.2289  0.9649  0.8897
17250SOL    HW253171   0.112   2.577   2.818 -0.7189 -0.7171 -0.4648
17251SOL     OW53172   2.302   5.139   1.465  0.3689 -0.0072  0.4489
17251SOL    HW153173   2.207   5.137   1.451  0.4437  3.1171 -1.3732
17251SOL    HW253174   2.314   5.192   1.543  0.6447 -0.8974  1.0304
17252SOL     OW53175   1.013   2.861   7.444  0.5196  0.1231 -0.3608
17252SOL    HW153176   0.964   2.941   7.461 -0.4016 -0.5663  0.3182
17252SOL    HW253177   1.060   2.843   7.525  1.9809  0.7927 -1.0113
17253SOL     OW53178   7.942   4.815   3.755 -0.3988  0.8860 -0.2467
17253SOL    HW153179   7.860   4.791   3.800 -0.8492  1.4711 -0.7389
17253SOL    HW253180   7.975   4.733   3.720 -1.6762  0.8743 -1.5115
17254SOL     OW53181   3.867   3.314   4.908 -0.4900 -0.0117 -0.2971
17254SOL    HW153182   3.943   3.320   4.850 -0.3636  0.8401 -0.0557
17254SOL    HW253183   3.822   3.235   4.879  0.3333 -0.3805 -0.6294
17255SOL     OW53184   4.796   5.980   3.227 -0.3868 -0.1576 -0.4650
17255SOL    HW153185   4.887   5.951   3.236 -0.4692 -0.5848 -0.9564
17255SOL    HW253186   4.802   6.067   3.188 -0.1201  0.6701  1.2993
17256SOL     OW53187   0.550   1.088   7.063  0.0557 -0.3455 -0.0346
17256SOL    HW153188   0.476   1.118   7.116 -0.2037  2.0205 -1.5671
17256SOL    HW253189   0.515   1.082   6.974  1.2168 -1.2006 -0.4533
17257SOL     OW53190   3.534   1.696   4.267  0.0677  1.0100 -0.2877
17257SOL    HW153191   3.458   1.640   4.258 -0.5118  1.9770 -1.9043
17257SOL    HW253192   3.603   1.638   4.299 -0.8329 -0.3202 -0.6847
17258SOL     OW53193   6.352   1.690   1.425 -0.2789 -0.1296  0.1745
17258SOL    HW153194   6.380   1.599   1.418  0.1173 -0.0573  0.7422
17258SOL    HW253195   6.265   1.692   1.385 -0.4652 -0.8415  0.5290
17259SOL     OW53196   7.538   1.875   8.271 -0.1476 -0.4170 -0.2184
17259SOL    HW153197   7.492   1.803   8.314 -1.0490  0.8665  1.0617
17259SOL    HW253198   7.629   1.864   8.298 -0.5946 -0.0112  1.5912
17260SOL     OW53199   7.147   8.073   5.455  0.2475  1.4753 -0.2470
17260SOL    HW153200   7.217   8.132   5.426  1.1977  0.7511  0.5344
17260SOL    HW253201   7.131   8.097   5.546  0.7871  0.4061  0.1434
17261SOL     OW53202   0.594   8.332   8.135  0.3144 -0.4530 -0.0322
17261SOL    HW153203   0.609   8.268   8.066 -1.0955 -1.1937  0.3057
17261SOL    HW253204   0.670   8.391   8.130  0.4302 -0.6866 -1.9568
17262SOL     OW53205   5.647   2.168   1.206  0.0190 -0.3323  0.2501
17262SOL    HW153206   5.724   2.143   1.257  0.0566 -0.1878  0.2660
17262SOL    HW253207   5.673   2.251   1.164  0.2216 -0.7674 -0.5059
17263SOL     OW53208   7.229   0.001   3.234 -0.2282 -0.0232  0.2045
17263SOL    HW153209   7.191   0.022   3.319  0.1514  0.0462  0.3560
17263SOL    HW253210   7.231  -0.094   3.232  0.1938 -0.0227  0.4668
17264SOL     OW53211   2.453   3.658   0.398  0.2874 -0.1134  0.0156
17264SOL    HW153212   2.497   3.742   0.383 -0.2383  0.2372  0.3913
17264SOL    HW253213   2.485   3.601   0.328  1.3054  0.1374  0.2619
17265SOL     OW53214   1.684   5.478   7.530  0.0192  0.7496  0.7057
17265SOL    HW153215   1.738   5.549   7.497  1.2876 -0.2328  0.5730
17265SOL    HW253216   1.671   5.499   7.623 -0.4056  1.6097  0.4592
17266SOL     OW53217   8.196   7.421   8.361  0.3841  0.1580  0.1731
17266SOL    HW153218   8.243   7.341   8.341 -0.2348 -0.5520  1.4700
17266SOL    HW253219   8.176   7.415   8.455 -1.3034  0.9434 -0.0987
17267SOL     OW53220   5.693   5.592   6.550 -0.0862  0.1355 -0.1974
17267SOL    HW153221   5.719   5.537   6.624  0.6535 -0.3226 -0.7894
17267SOL    HW253222   5.766   5.653   6.538 -1.2521  1.8875  1.0089
17268SOL     OW53223   5.022   3.076   7.970  0.0700  0.1801 -0.2846
17268SOL    HW153224   4.952   3.035   7.920 -0.4072 -0.5120  0.9104
17268SOL    HW253225   5.054   3.006   8.028  2.1781  0.2809 -1.1973
17269SOL     OW53226   4.884   1.998   0.485  0.3052 -0.2475 -0.0237
17269SOL    HW153227   4.976   1.979   0.503  0.5211  0.8114  0.0585
17269SOL    HW253228   4.849   1.915   0.452  1.8416 -0.1276 -2.2442
17270SOL     OW53229   4.833   4.007   3.275  0.4067  0.2181  0.3986
17270SOL    HW153230   4.914   4.044   3.310 -0.5648  0.8526  2.0993
17270SOL    HW253231   4.776   4.083   3.264  0.1064 -0.1951 -1.0117
17271SOL     OW53232   7.064   6.136   3.842  0.2397  0.2246  0.1055
17271SOL    HW153233   6.987   6.128   3.899 -0.4756 -0.4884 -0.9357
17271SOL    HW253234   7.049   6.217   3.793  1.0200  1.0235  1.1161
17272SOL     OW53235   3.913   6.073   5.569  0.2351  0.4111  0.3202
17272SOL    HW153236   3.866   6.146   5.526 -0.5368 -0.1173  0.2391
17272SOL    HW253237   3.953   6.113   5.646 -0.3419  0.8924  0.3830
17273SOL     OW53238   1.020   7.773   3.102  0.6690 -0.1171 -0.1226
17273SOL    HW153239   0.978   7.847   3.145 -0.2223  0.1642 -1.4171
17273SOL    HW253240   1.014   7.793   3.009 -0.3705 -2.2160 -0.5568
17274SOL     OW53241   8.277   4.230   2.133 -0.2029  0.1062  0.0375
17274SOL    HW153242   8.338   4.157   2.145 -2.7254 -2.0540  0.7912
17274SOL    HW253243   8.287   4.283   2.212  2.8233  1.6931 -1.2286
17275SOL     OW53244   3.912   8.293   1.418 -0.2454 -0.6260 -0.3996
17275SOL    HW153245   3.831   8.298   1.468  0.0411  1.2502 -0.0581
17275SOL    HW253246   3.885   8.292   1.327 -0.6552 -0.1005 -0.2851
17276SOL     OW53247   5.967   0.097   5.774  0.5008 -0.7003  0.2293
17276SOL    HW153248   5.900   0.163   5.759  1.0454 -0.1181  0.3450
17276SOL    HW253249   6.031   0.112   5.704  0.3819 -1.4286 -0.0458
17277SOL     OW53250   0.942   2.829   2.759 -0.2087  0.1397  0.1101
17277SOL    HW153251   0.924   2.864   2.846  0.3626 -0.4350  0.4589
17277SOL    HW253252   0.887   2.882   2.701  0.8351  1.8379  0.5886
17278SOL     OW53253   1.356   1.752   6.035 -0.5124  0.6054  0.3586
17278SOL    HW153254   1.313   1.803   5.966 -0.3086  0.7095  0.3095
17278SOL    HW253255   1.431   1.805   6.062  0.8024 -0.4690 -0.9851
17279SOL     OW53256   7.600   7.613   5.981 -0.0947  0.0133  0.6208
17279SOL    HW153257   7.543   7.690   5.974  0.1724  0.4390  2.4944
17279SOL    HW253258   7.631   7.615   6.071  1.5474 -1.1708  0.1249
17280SOL     OW53259   4.433   0.122   4.576  0.0347 -0.5424 -0.4862
17280SOL    HW153260   4.493   0.115   4.501 -2.3444  0.0752 -2.5972
17280SOL    HW253261   4.385   0.039   4.576  0.7759 -1.0060  1.1346
17281SOL     OW53262   6.723   8.160   7.227 -0.2646 -0.1787 -0.0978
17281SOL    HW153263   6.679   8.108   7.295  0.5467 -1.1133 -0.2540
17281SOL    HW253264   6.659   8.167   7.157 -0.7309 -0.1439  0.3300
17282SOL     OW53265   3.730   4.552   3.112  0.4405 -0.2103 -0.3290
17282SOL    HW153266   3.793   4.552   3.185 -0.3516 -0.9818  0.3804
17282SOL    HW253267   3.722   4.644   3.088  0.1802  0.1505  1.0483
17283SOL     OW53268   4.960   5.049   1.633 -0.4684  0.0450 -0.4624
17283SOL    HW153269   4.993   5.055   1.722 -1.8753 -1.6511  0.2211
17283SOL    HW253270   4.889   5.114   1.629  0.4558  1.0634 -0.7922
17284SOL     OW53271   5.064   3.367   1.486  0.4068  0.4638 -0.3629
17284SOL    HW153272   5.069   3.276   1.456  0.3403 -0.3082  1.7687
17284SOL    HW253273   5.056   3.419   1.406 -1.0546 -1.5059 -1.5777
17285SOL     OW53274   3.307   5.745   2.256 -0.1254  0.1248 -0.3519
17285SOL    HW153275   3.395   5.751   2.220  0.5504 -0.5800  1.1202
17285SOL    HW253276   3.269   5.668   2.214 -1.1947  2.0864 -3.2693
17286SOL     OW53277   5.005   7.276   3.720 -0.1476  0.2045  0.0249
17286SOL    HW153278   5.061   7.317   3.787 -0.6585 -0.4274  0.8654
17286SOL    HW253279   4.972   7.196   3.762  1.3461 -1.4756 -1.7825
17287SOL     OW53280   3.020   1.047   3.594  0.6841  0.1620 -0.2923
17287SOL    HW153281   3.016   1.142   3.608  0.9052  0.1476 -0.1146
17287SOL    HW253282   3.113   1.029   3.578  0.8016 -0.1583  0.6812
17288SOL     OW53283   2.631   3.547   7.372  0.3585  0.1446  0.2527
17288SOL    HW153284   2.712   3.594   7.353 -1.6244  2.6847 -3.1251
17288SOL    HW253285   2.646   3.459   7.338  1.5914  0.7177 -0.7797
17289SOL     OW53286   4.918   0.474   6.767  0.4321  0.0268 -0.3011
17289SOL    HW153287   4.952   0.554   6.806 -1.3606  0.4679  0.4647
17289SOL    HW253288   4.982   0.407   6.789  1.4888  1.0573 -0.1343
17290SOL     OW53289   1.997   0.072   2.839 -0.2209 -0.4778  0.5820
17290SOL    HW153290   2.013  -0.013   2.880 -0.1378 -0.3703  0.7713
17290SOL    HW253291   2.073   0.125   2.862 -0.5322 -0.1785  0.9247
17291SOL     OW53292   5.687   5.838   0.674  0.0917  0.4749  0.6481
17291SOL    HW153293   5.697   5.808   0.764  0.1572  1.7738  1.0890
17291SOL    HW253294   5.755   5.790   0.625  2.1943  2.0686  1.8612
17292SOL     OW53295   1.615   7.725   3.904  0.4585 -0.6762 -0.2483
17292SOL    HW153296   1.630   7.752   3.995 -0.2271 -0.6308 -0.1462
17292SOL    HW253297   1.609   7.630   3.909 -1.9037 -0.5754  0.1379
17293SOL     OW53298   2.739   3.193   1.343 -0.2093  0.1714  0.0343
17293SOL    HW153299   2.685   3.202   1.422 -1.6495  1.2469 -0.9931
17293SOL    HW253300   2.761   3.283   1.320 -0.1393 -0.1019 -0.9999
17294SOL     OW53301   4.012   1.263   0.838 -0.0414 -0.6105  0.0409
17294SOL    HW153302   3.945   1.229   0.897 -0.2319 -0.0538  0.1587
17294SOL    HW253303   4.095   1.233   0.874 -0.0608  0.8165  1.3657
17295SOL     OW53304   5.890   1.922   2.634 -0.8117 -0.1444 -0.5460
17295SOL    HW153305   5.950   1.924   2.559  0.9077 -1.5260  0.7168
17295SOL    HW253306   5.908   2.004   2.680 -1.7593  0.6364 -1.5057
17296SOL     OW53307   7.194   4.037   6.669 -0.0940  0.2474  0.0282
17296SOL    HW153308   7.275   4.046   6.719 -1.7883  1.3193  2.8061
17296SOL    HW253309   7.188   3.943   6.650  2.2947  0.2783 -1.3271
17297SOL     OW53310   1.601   3.867   5.486 -0.4203 -0.3660  0.1871
17297SOL    HW153311   1.632   3.954   5.460 -0.1974 -0.4421  0.1916
17297SOL    HW253312   1.610   3.814   5.408  0.3612 -0.6239  0.4376
17298SOL     OW53313   4.036   6.438   1.221 -0.2514 -0.3089 -0.1075
17298SOL    HW153314   4.004   6.528   1.216  0.5903 -0.0615 -1.5780
17298SOL    HW253315   4.131   6.446   1.224 -0.0362 -1.1616 -2.6369
17299SOL     OW53316   6.367   7.973   4.372  0.4269 -0.0639 -0.1285
17299SOL    HW153317   6.318   7.991   4.291 -1.4419 -3.7651 -0.0319
17299SOL    HW253318   6.300   7.963   4.439  1.6823 -0.7796  1.0672
17300SOL     OW53319   4.822   2.959   7.822  0.1736  0.7432  0.4764
17300SOL    HW153320   4.819   2.998   7.735  0.8784  0.6249  0.3894
17300SOL    HW253321   4.797   2.868   7.808 -0.6113  0.9457  0.5423
17301SOL     OW53322   3.367   3.958   7.944 -0.4065  0.4516 -0.0918
17301SOL    HW153323   3.433   3.898   7.981 -1.1784 -0.1332  0.3778
17301SOL    HW253324   3.387   3.960   7.851  0.7164  0.8446  0.1398
17302SOL     OW53325   5.548   1.996   3.862  0.0395 -0.0262 -0.0939
17302SOL    HW153326   5.459   1.990   3.895  0.2133 -1.0047  0.2591
17302SOL    HW253327   5.588   2.068   3.911  0.1199 -1.0784  1.4817
17303SOL     OW53328   5.998   0.481   2.942  0.3999 -0.2602  0.3939
17303SOL    HW153329   5.995   0.389   2.916 -2.7184 -0.2024  0.1427
17303SOL    HW253330   6.077   0.488   2.995  2.4401 -2.3241 -2.0652
17304SOL     OW53331   0.590   3.471   1.816  0.3232  0.6884 -0.0830
17304SOL    HW153332   0.573   3.553   1.769 -0.3195 -0.1764 -1.4114
17304SOL    HW253333   0.663   3.431   1.768  0.3001  0.2402  0.2495
17305SOL     OW53334   0.258   7.686   3.018  0.0034  0.1063 -0.3623
17305SOL    HW153335   0.233   7.761   2.964 -0.9375 -0.3137 -0.5419
17305SOL    HW253336   0.181   7.670   3.073  0.3794 -0.4209  0.0197
17306SOL     OW53337   1.960   2.367   3.304 -0.1698 -0.0705 -0.1404
17306SOL    HW153338   1.973   2.462   3.309 -1.5786  0.1074  0.4383
17306SOL    HW253339   1.962   2.347   3.210 -1.3170  0.7552 -0.3558
17307SOL     OW53340   3.533   1.736   6.361 -0.0321  0.4911  0.4859
17307SOL    HW153341   3.568   1.662   6.411 -1.7730  1.0898  2.7285
17307SOL    HW253342   3.607   1.797   6.355  1.1420 -0.9582 -0.5696
17308SOL     OW53343   0.941   4.403   3.881 -0.0420  0.4899  0.1095
17308SOL    HW153344   0.901   4.330   3.929 -0.6121  0.6971 -0.0453
17308SOL    HW253345   0.868   4.461   3.860  0.3932  1.0521  0.1267
17309SOL     OW53346   1.901   8.216   5.655 -0.0477  0.7694  0.0384
17309SOL    HW153347   1.964   8.242   5.722  0.3371 -1.2231  0.5289
17309SOL    HW253348   1.901   8.288   5.592 -0.1209  2.5227  1.9345
17310SOL     OW53349   2.510   6.165   6.936 -0.4833  0.5432 -0.6966
17310SOL    HW153350   2.473   6.077   6.931  0.5675  0.1271 -1.6999
17310SOL    HW253351   2.507   6.198   6.846 -0.4522  1.3636 -0.4104
17311SOL     OW53352   7.732   6.388   3.845  0.1278  0.2910  0.1086
17311SOL    HW153353   7.655   6.446   3.847  1.2170  1.9006 -1.2553
17311SOL    HW253354   7.769   6.394   3.933 -1.3708 -0.6319  0.8307
17312SOL     OW53355   0.830   6.319   6.077 -0.1550  0.2379  0.0957
17312SOL    HW153356   0.799   6.228   6.085 -0.8742  0.4673  0.0072
17312SOL    HW253357   0.894   6.316   6.006 -1.1199  0.0277 -0.7927
17313SOL     OW53358   3.475   7.617   6.892 -0.1160 -0.0463 -0.4236
17313SOL    HW153359   3.450   7.706   6.916 -1.4354 -0.3513 -0.6139
17313SOL    HW253360   3.506   7.577   6.974  2.1701  1.0825 -0.6459
17314SOL     OW53361   7.641   5.495   6.104  0.1779 -0.5196 -0.3370
17314SOL    HW153362   7.697   5.443   6.046  1.2799 -1.1451  1.2039
17314SOL    HW253363   7.696   5.569   6.129 -0.5145  0.0857 -0.5815
17315SOL     OW53364   6.641   3.642   5.169 -0.4673  0.4797  0.2482
17315SOL    HW153365   6.558   3.607   5.136  0.0046 -0.9164  0.4701
17315SOL    HW253366   6.692   3.565   5.192 -0.0352  1.3344  2.4363
17316SOL     OW53367   6.811   1.252   7.681 -0.2280  0.2281 -0.1472
17316SOL    HW153368   6.741   1.311   7.654 -0.1029  0.1729 -0.6178
17316SOL    HW253369   6.887   1.280   7.629 -0.7889 -1.8965 -2.3344
17317SOL     OW53370   8.093   1.453   0.125  0.2276  0.0707 -0.3010
17317SOL    HW153371   7.999   1.440   0.112  0.5685 -1.0091 -2.0489
17317SOL    HW253372   8.099   1.523   0.189 -1.7674  0.6821 -0.7112
17318SOL     OW53373   2.338   7.610   7.750 -0.4535 -0.2648 -0.1939
17318SOL    HW153374   2.374   7.590   7.664 -1.6541  1.7280 -1.2434
17318SOL    HW253375   2.412   7.606   7.810  0.4358 -1.5078 -1.3475
17319SOL     OW53376   7.093   5.476   6.431 -0.0338 -0.2399  0.9171
17319SOL    HW153377   7.160   5.545   6.433 -2.1902  2.0018  3.2501
17319SOL    HW253378   7.119   5.415   6.500  1.7406 -1.7990 -0.9850
17320SOL     OW53379   0.316   4.079   0.436  0.3023 -0.1820 -0.2356
17320SOL    HW153380   0.232   4.076   0.481  0.0641 -0.1135 -0.6764
17320SOL    HW253381   0.295   4.069   0.344  0.8712 -1.4228 -0.2594
17321SOL     OW53382   2.148   1.041   4.828 -0.1493 -0.3152 -0.2344
17321SOL    HW153383   2.148   1.083   4.742 -0.9861  0.0535 -0.0650
17321SOL    HW253384   2.059   1.053   4.861  0.8128  2.0807  1.8851
17322SOL     OW53385   6.069   0.983   7.470  0.4577  0.3042  0.4826
17322SOL    HW153386   6.091   1.059   7.523 -1.0783  1.3167 -0.2659
17322SOL    HW253387   5.983   0.955   7.502 -0.4582  0.8727 -1.3414
17323SOL     OW53388   7.231   3.499   3.951  0.3128  0.5567 -0.5686
17323SOL    HW153389   7.291   3.559   3.907 -0.0850  0.1143 -1.7421
17323SOL    HW253390   7.229   3.529   4.042 -1.4694  3.6256 -1.4962
17324SOL     OW53391   5.500   5.232   1.288  0.0938  0.1941  0.2987
17324SOL    HW153392   5.579   5.258   1.241  0.7385 -0.8230  0.7844
17324SOL    HW253393   5.522   5.244   1.381 -0.8331  1.2753  0.4109
17325SOL     OW53394   6.179   5.658   0.769  0.6191  0.2341 -0.2201
17325SOL    HW153395   6.256   5.625   0.722 -0.1524  0.8656 -2.0243
17325SOL    HW253396   6.208   5.741   0.807  1.4078 -0.5396  0.9591
17326SOL     OW53397   5.342   5.225   7.368  0.4154 -0.0952 -0.8752
17326SOL    HW153398   5.410   5.249   7.432 -0.9275 -2.9401  1.9282
17326SOL    HW253399   5.263   5.268   7.401 -0.4219 -2.0767 -0.1008
17327SOL     OW53400   0.167   6.710   1.134 -1.0370  0.5062  0.7728
17327SOL    HW153401   0.188   6.662   1.054 -1.7631 -1.1562  1.5182
17327SOL    HW253402   0.183   6.646   1.204 -1.3358  1.6102  1.8764
17328SOL     OW53403   3.246   6.246   4.051  0.0375 -0.7517 -0.1724
17328SOL    HW153404   3.255   6.152   4.068 -1.5436 -0.6077  1.8762
17328SOL    HW253405   3.297   6.287   4.121  0.6676 -0.0550 -1.0205
17329SOL     OW53406   2.201   8.227   1.744 -0.0943  0.5315  0.6291
17329SOL    HW153407   2.289   8.224   1.781 -0.2733 -0.5105  0.9878
17329SOL    HW253408   2.147   8.178   1.806 -0.8557  0.8092  0.1974
17330SOL     OW53409   6.543   8.225   5.013  0.6007  0.4344  0.3610
17330SOL    HW153410   6.629   8.265   4.998  1.7751 -1.9859  0.1772
17330SOL    HW253411   6.499   8.230   4.929  1.5863 -0.5398 -0.2392
17331SOL     OW53412   3.894   4.147   3.592  0.0491  0.2805 -0.4764
17331SOL    HW153413   3.964   4.179   3.649  1.2176 -2.2120 -0.3592
17331SOL    HW253414   3.896   4.206   3.517  1.1603  1.2456  0.2639
17332SOL     OW53415   2.416   1.510   0.247 -0.6641  0.0996  0.2703
17332SOL    HW153416   2.361   1.456   0.305 -1.8502  1.6915  0.7134
17332SOL    HW253417   2.414   1.596   0.288  1.1344  0.5056 -0.4499
17333SOL     OW53418   7.221   2.007   3.131  0.3952  0.5226 -0.4611
17333SOL    HW153419   7.257   2.092   3.108 -1.7426  1.6626  0.1483
17333SOL    HW253420   7.143   1.998   3.077  0.7828 -1.2627 -0.8010
17334SOL     OW53421   6.643   5.932   7.097 -0.1178 -0.9094  0.0960
17334SOL    HW153422   6.637   5.897   7.008  0.5754 -0.4992 -0.1278
17334SOL    HW253423   6.557   5.969   7.115  0.4170  1.2964 -1.4084
17335SOL     OW53424   0.227   6.960   0.825 -0.3237 -0.6027  0.2745
17335SOL    HW153425   0.180   7.026   0.773  0.7241 -0.1041 -0.0694
17335SOL    HW253426   0.314   6.997   0.837  0.3294 -1.9861 -0.0154
17336SOL     OW53427   1.423   4.843   8.047  0.1669  0.1450 -0.0576
17336SOL    HW153428   1.396   4.822   8.136 -1.1084  1.6481 -0.0497
17336SOL    HW253429   1.453   4.934   8.051 -0.8500  0.5757 -1.3211
17337SOL     OW53430   3.521   5.509   5.386  0.4804 -0.4156 -0.2372
17337SOL    HW153431   3.451   5.522   5.323  1.0168 -2.2776 -1.3032
17337SOL    HW253432   3.577   5.442   5.346  1.1568 -1.2499  1.9533
17338SOL     OW53433   6.028   0.322   5.950  0.5532 -0.0199 -0.3120
17338SOL    HW153434   6.013   0.374   6.029  0.2581  1.9605 -1.5990
17338SOL    HW253435   5.969   0.247   5.959  1.9677 -0.9417  2.2170
17339SOL     OW53436   4.061   2.750   8.243  0.0545  0.3009 -0.3673
17339SOL    HW153437   4.145   2.709   8.265 -0.6092 -1.7902 -1.4752
17339SOL    HW253438   4.077   2.843   8.254  2.0024 -0.1264  1.1701
17340SOL     OW53439   0.114   3.866   8.044 -0.2003  0.1557 -0.3405
17340SOL    HW153440   0.113   3.785   8.095 -0.4594  0.8566  0.8081
17340SOL    HW253441   0.161   3.929   8.100 -0.6975  1.0089 -0.8584
17341SOL     OW53442   2.470   1.140   0.724 -0.4023 -0.0408  0.2086
17341SOL    HW153443   2.438   1.086   0.797 -0.5291  1.0134  0.9570
17341SOL    HW253444   2.418   1.220   0.730  0.9178  0.8383  0.1398
17342SOL     OW53445   3.213   2.310   2.019 -0.0068  0.3694  0.5567
17342SOL    HW153446   3.131   2.300   2.067 -0.7091  0.2795 -0.6241
17342SOL    HW253447   3.194   2.374   1.951  1.2734  1.3023  1.0388
17343SOL     OW53448   2.217   3.851   5.428  0.3594 -0.5772 -0.0010
17343SOL    HW153449   2.238   3.928   5.482 -0.2357 -0.4914  0.1179
17343SOL    HW253450   2.168   3.793   5.487 -0.4808 -0.3940 -0.4881
17344SOL     OW53451   6.614   7.401   5.935 -0.1044 -0.2864 -0.4336
17344SOL    HW153452   6.683   7.343   5.968 -0.4256 -0.0884  0.6181
17344SOL    HW253453   6.624   7.482   5.986 -0.5062  0.0991 -0.9518
17345SOL     OW53454   5.525   4.691   2.919  0.0024 -0.0944 -0.4031
17345SOL    HW153455   5.539   4.598   2.902  1.5422 -0.4017  2.0193
17345SOL    HW253456   5.470   4.693   2.997 -0.0856  1.0445 -0.4759
17346SOL     OW53457   1.789   5.737   7.457 -0.0308 -0.0618 -0.0181
17346SOL    HW153458   1.814   5.815   7.507 -1.8105  0.0774  0.7418
17346SOL    HW253459   1.740   5.772   7.382 -0.2723 -0.4203 -0.0283
17347SOL     OW53460   0.439   2.890   4.440 -0.3925  0.1557  0.2227
17347SOL    HW153461   0.505   2.822   4.453  0.6804  0.9790 -0.6584
17347SOL    HW253462   0.368   2.846   4.393  0.8555 -0.1159 -1.5121
17348SOL     OW53463   5.977   1.491   7.915 -0.0064 -0.1466  0.3999
17348SOL    HW153464   5.956   1.399   7.927  1.5593 -0.3410  1.9161
17348SOL    HW253465   6.038   1.512   7.985  1.6589  1.3950 -1.3744
17349SOL     OW53466   2.912   4.033   6.250 -0.4051  0.0085 -0.0852
17349SOL    HW153467   2.855   3.989   6.312  0.7168 -0.0515  0.9295
17349SOL    HW253468   2.910   3.977   6.172  0.3704 -1.4547  0.8990
17350SOL     OW53469   1.931   4.014   6.887 -0.1588  0.2083  0.5890
17350SOL    HW153470   1.948   3.935   6.835 -1.7589  0.8304 -1.0318
17350SOL    HW253471   2.016   4.040   6.920  0.6854 -1.1739 -0.3646
17351SOL     OW53472   6.230   7.106   3.720  0.0376 -0.6465 -0.3472
17351SOL    HW153473   6.188   7.027   3.753  2.1907 -1.3819  0.8173
17351SOL    HW253474   6.317   7.077   3.691  0.9593  1.2963  0.2980
17352SOL     OW53475   0.158   1.708   7.658 -0.1335  0.3255 -0.0329
17352SOL    HW153476   0.229   1.746   7.606 -0.7457  0.0326 -1.1110
17352SOL    HW253477   0.160   1.757   7.740  1.6619 -0.0434  0.1991
17353SOL     OW53478   0.954   0.870   2.971  0.0596  0.4319 -0.2108
17353SOL    HW153479   1.013   0.893   3.043  0.4765  2.8687 -1.2498
17353SOL    HW253480   1.004   0.805   2.921 -0.0595 -0.9664  1.3914
17354SOL     OW53481   5.255   5.851   6.539 -0.0797  0.0219  0.1772
17354SOL    HW153482   5.184   5.810   6.588 -0.2793  0.8167  0.5737
17354SOL    HW253483   5.327   5.788   6.543 -0.6469 -0.6444  0.0565
17355SOL     OW53484   5.624   0.291   3.467  0.0244  0.3241 -0.5656
17355SOL    HW153485   5.696   0.290   3.404  0.6211  1.4467  0.0572
17355SOL    HW253486   5.621   0.202   3.503  1.6299  0.4586 -0.0357
17356SOL     OW53487   8.257   5.106   0.160 -0.4862 -0.0095 -0.1494
17356SOL    HW153488   8.307   5.160   0.099  1.0157 -3.0058 -1.8344
17356SOL    HW253489   8.201   5.052   0.103 -1.7795 -0.3687  1.3998
17357SOL     OW53490   2.341   8.350   5.207  0.2463 -0.3350  0.6234
17357SOL    HW153491   2.429   8.312   5.204  0.9549  1.2295  0.4150
17357SOL    HW253492   2.355   8.443   5.190 -1.5891 -0.2481 -0.7498
17358SOL     OW53493   7.075   7.796   5.488  0.4673  0.1402 -0.1203
17358SOL    HW153494   7.142   7.751   5.540  0.3873 -0.4900 -0.5567
17358SOL    HW253495   7.116   7.879   5.464  1.8589 -1.0124 -2.0033
17359SOL     OW53496   1.136   1.000   2.674  0.0406 -0.1346  0.0901
17359SOL    HW153497   1.177   0.963   2.752  0.0916  1.7846  1.0253
17359SOL    HW253498   1.095   1.081   2.704 -1.1872 -0.0686 -1.5925
17360SOL     OW53499   7.538   3.123   0.692  0.0354  0.1175 -0.2677
17360SOL    HW153500   7.572   3.186   0.629  0.0769 -0.6015 -0.9824
17360SOL    HW253501   7.456   3.161   0.723  0.9379  1.3780  0.6925
17361SOL     OW53502   7.513   4.300   2.738  0.6483 -0.3264  0.2273
17361SOL    HW153503   7.542   4.245   2.811  0.4833  0.4951  0.9219
17361SOL    HW253504   7.422   4.322   2.759  0.8528  0.5853  0.1979
17362SOL     OW53505   0.382   4.938   0.261 -0.3505  0.4867 -0.5439
17362SOL    HW153506   0.461   4.985   0.287 -0.5194  0.3109  0.3120
17362SOL    HW253507   0.393   4.850   0.296 -0.5621  0.2181 -1.1362
17363SOL     OW53508   2.706   3.095   6.955 -0.1989 -0.2894  0.0545
17363SOL    HW153509   2.702   3.003   6.927  1.1946 -0.5412  0.5764
17363SOL    HW253510   2.653   3.098   7.034  0.2672 -0.8176  0.4037
17364SOL     OW53511   7.428   4.828   5.112 -0.2909 -0.5403  0.0931
17364SOL    HW153512   7.507   4.859   5.155  0.0111 -0.9180 -0.1913
17364SOL    HW253513   7.359   4.838   5.178 -0.1343  0.3882  0.1319
17365SOL     OW53514   2.050   3.488   2.776  0.4088  0.1710  0.4045
17365SOL    HW153515   2.101   3.463   2.854  0.3061 -1.0518  0.1054
17365SOL    HW253516   2.100   3.560   2.737  0.3842  0.9088  1.6674
17366SOL     OW53517   3.685   5.961   0.054  0.0928  0.0454  0.7542
17366SOL    HW153518   3.649   6.046   0.030 -0.4878 -0.7318 -1.2955
17366SOL    HW253519   3.772   5.981   0.091  1.4198  1.3913 -2.6864
17367SOL     OW53520   5.846   0.419   0.824 -0.0475 -0.0029 -0.0336
17367SOL    HW153521   5.913   0.350   0.817 -1.0895 -1.0402  0.0296
17367SOL    HW253522   5.897   0.501   0.823  1.2902 -0.7769  0.7688
17368SOL     OW53523   2.951   0.209   4.914  0.6632 -0.1686 -0.1691
17368SOL    HW153524   2.888   0.160   4.860 -0.1210  0.0845  0.4891
17368SOL    HW253525   3.034   0.163   4.902  0.5092 -0.1023 -1.6047
17369SOL     OW53526   5.012   2.488   0.723 -0.0941  0.0564  0.7080
17369SOL    HW153527   5.011   2.584   0.723 -0.4786  0.0722 -0.5330
17369SOL    HW253528   5.095   2.466   0.766  1.4810  1.0359 -1.5900
17370SOL     OW53529   3.767   2.284   5.013  0.0040  0.4428  0.1918
17370SOL    HW153530   3.829   2.223   5.052 -1.0250 -1.7847 -1.4840
17370SOL    HW253531   3.803   2.304   4.926 -0.6932  0.5875 -0.0769
17371SOL     OW53532   5.934   1.642   2.782 -0.7105  0.1486 -0.2843
17371SOL    HW153533   5.936   1.727   2.826  2.3810 -0.0514  0.1983
17371SOL    HW253534   5.949   1.662   2.690 -2.5201  0.2188 -0.6157
17372SOL     OW53535   0.552   4.989   2.441 -0.5322  0.0752 -0.1297
17372SOL    HW153536   0.614   5.046   2.395  0.6229 -2.0287 -1.3507
17372SOL    HW253537   0.541   5.030   2.527  0.5009  1.9160 -0.7997
17373SOL     OW53538   6.173   7.031   0.142 -0.0942  0.2041  0.3824
17373SOL    HW153539   6.194   7.021   0.235 -1.2959 -0.6559  0.5764
17373SOL    HW253540   6.096   7.088   0.141  1.1174  1.9243 -0.2282
17374SOL     OW53541   1.695   4.324   1.872  0.0966  0.0085 -0.1557
17374SOL    HW153542   1.785   4.355   1.867  0.5241 -0.9920  0.9406
17374SOL    HW253543   1.672   4.301   1.782  0.7352  0.7799 -0.5222
17375SOL     OW53544   0.717   2.707   7.528  0.2487 -0.3542  0.0442
17375SOL    HW153545   0.713   2.797   7.496  0.0982 -0.5526 -0.5011
17375SOL    HW253546   0.714   2.653   7.449  0.8148 -0.8285  0.3326
17376SOL     OW53547   4.578   2.172   3.438 -0.5014  0.4787  1.0453
17376SOL    HW153548   4.669   2.166   3.467 -1.0480 -0.3845  2.7626
17376SOL    HW253549   4.542   2.246   3.488 -1.4984 -1.1022  2.7774
17377SOL     OW53550   7.143   6.204   7.806  0.2206  1.1273 -0.0365
17377SOL    HW153551   7.077   6.135   7.818  0.7187  0.4951 -0.8640
17377SOL    HW253552   7.117   6.272   7.869 -0.3797  0.2708  0.6801
17378SOL     OW53553   5.109   4.627   6.860 -0.8260  0.2913  0.8458
17378SOL    HW153554   5.163   4.548   6.854 -0.1125  0.7368  1.3050
17378SOL    HW253555   5.023   4.599   6.829 -0.8355 -0.9058  1.8760
17379SOL     OW53556   1.508   7.951   4.161  0.3275 -0.2593  0.0859
17379SOL    HW153557   1.591   7.999   4.161 -0.0178  0.3630  0.6305
17379SOL    HW253558   1.532   7.859   4.171  0.8714  0.0884  2.3689
17380SOL     OW53559   2.778   7.537   4.115  0.1296 -0.2739 -0.4223
17380SOL    HW153560   2.846   7.603   4.130 -1.0179  1.0534 -0.8885
17380SOL    HW253561   2.752   7.549   4.024 -0.3526 -1.1539 -0.4121
17381SOL     OW53562   1.216   1.159   2.975  0.0386  0.7737 -0.5513
17381SOL    HW153563   1.235   1.245   3.015 -0.5237  0.3495  0.6944
17381SOL    HW253564   1.123   1.145   2.994  0.7897 -1.5011  2.1321
17382SOL     OW53565   4.876   0.779   2.260 -0.4314  0.0782  0.5032
17382SOL    HW153566   4.833   0.787   2.175  1.8633 -2.5746 -1.0503
17382SOL    HW253567   4.962   0.819   2.248 -0.3023  0.2198  1.7649
17383SOL     OW53568   0.929   0.822   7.036  0.0169 -0.1091  0.1982
17383SOL    HW153569   0.897   0.896   7.088 -0.1676  0.9458 -1.3632
17383SOL    HW253570   0.850   0.774   7.011 -0.0070  0.1619 -0.2464
17384SOL     OW53571   8.074   7.025   5.676  0.1110 -0.2273  0.0626
17384SOL    HW153572   8.098   6.948   5.727  0.5240  0.2719  0.6475
17384SOL    HW253573   8.117   7.098   5.722  0.0552  0.2990 -0.7000
17385SOL     OW53574   2.533   6.104   7.815  0.3891  0.2852  0.1684
17385SOL    HW153575   2.625   6.088   7.837  0.3353 -1.4822 -0.7308
17385SOL    HW253576   2.505   6.026   7.769 -1.4395  1.0175 -0.0645
17386SOL     OW53577   5.571   0.704   3.007  0.4936 -0.0023  0.0619
17386SOL    HW153578   5.486   0.662   3.008  1.3223 -1.7663 -0.0820
17386SOL    HW253579   5.604   0.690   2.918  0.8726  0.7906  0.0718
17387SOL     OW53580   0.341   1.231   7.151  0.4720 -0.3370 -0.2482
17387SOL    HW153581   0.246   1.231   7.167  0.5353 -0.2414  0.1373
17387SOL    HW253582   0.363   1.323   7.138  0.5454 -0.3374 -0.1276
17388SOL     OW53583   2.588   2.726   0.922 -0.7125  0.2186  0.3101
17388SOL    HW153584   2.644   2.783   0.870 -1.7786  0.6800 -0.3741
17388SOL    HW253585   2.521   2.784   0.958 -2.0025 -0.6176 -0.6534
17389SOL     OW53586   3.055   2.462   1.010 -0.4790  0.5266 -0.3733
17389SOL    HW153587   3.052   2.552   1.041  0.3413  0.4772 -0.1279
17389SOL    HW253588   2.980   2.420   1.052 -1.3443  1.2658 -1.1105
17390SOL     OW53589   2.830   3.039   2.497  0.2806  0.0491 -0.4771
17390SOL    HW153590   2.909   3.092   2.506 -0.1427  0.6292 -0.0507
17390SOL    HW253591   2.857   2.964   2.444  1.4833 -0.5135  0.8507
17391SOL     OW53592   5.641   1.136   2.725  0.0949 -0.3438 -0.0896
17391SOL    HW153593   5.590   1.145   2.806  2.2353 -1.8230  1.5364
17391SOL    HW253594   5.689   1.219   2.718 -1.4512  0.5460 -0.9528
17392SOL     OW53595   7.226   0.073   6.826 -0.1824  0.0007 -0.0142
17392SOL    HW153596   7.221  -0.022   6.824 -1.0944  0.0473 -1.1528
17392SOL    HW253597   7.305   0.094   6.775  0.8991 -0.1606  1.5228
17393SOL     OW53598   1.422   4.822   2.994 -0.0045 -0.0994 -0.2846
17393SOL    HW153599   1.353   4.853   2.936  0.3648  2.6671  0.6136
17393SOL    HW253600   1.376   4.771   3.061 -1.2613  1.6831  0.2893
17394SOL     OW53601   7.640   7.202   6.490 -0.4770 -0.4758  0.4376
17394SOL    HW153602   7.728   7.168   6.505 -0.8869 -1.5245  0.5347
17394SOL    HW253603   7.638   7.219   6.396 -0.5795 -1.6702  0.2108
17395SOL     OW53604   6.633   6.269   4.461 -0.6715  0.1408 -0.4429
17395SOL    HW153605   6.640   6.195   4.521 -2.4310  1.2581  1.2874
17395SOL    HW253606   6.704   6.256   4.398  0.5590 -1.7352  1.1955
17396SOL     OW53607   8.269   7.483   2.023  0.2089  0.0010 -1.0166
17396SOL    HW153608   8.341   7.532   2.063  1.1569 -2.8977  1.2095
17396SOL    HW253609   8.192   7.537   2.039  1.3244  1.3222  0.2090
17397SOL     OW53610   6.503   3.468   6.777 -0.2090 -0.0209  0.2689
17397SOL    HW153611   6.566   3.396   6.768  0.3757  0.4495  0.4784
17397SOL    HW253612   6.427   3.440   6.727 -0.1030 -0.9132  0.5897
17398SOL     OW53613   7.724   0.346   1.454 -0.4470 -0.0501  0.3162
17398SOL    HW153614   7.639   0.329   1.494 -1.0664  0.3362 -0.8026
17398SOL    HW253615   7.704   0.389   1.371  0.8303 -0.2668 -0.1283
17399SOL     OW53616   1.327   6.242   1.123  0.5000 -0.2949  0.6526
17399SOL    HW153617   1.339   6.314   1.185  2.9231 -0.5719  0.6095
17399SOL    HW253618   1.331   6.283   1.037 -0.2361 -0.2414  0.6369
17400SOL     OW53619   4.098   1.560   3.432 -0.0730  0.1521  0.4979
17400SOL    HW153620   4.162   1.618   3.474 -2.4933  1.1733  3.1581
17400SOL    HW253621   4.073   1.606   3.352 -0.6736  2.0602  1.6987
17401SOL     OW53622   4.373   7.587   0.862  0.1141 -0.6127  0.7622
17401SOL    HW153623   4.334   7.543   0.787  1.5011 -2.5524  1.1224
17401SOL    HW253624   4.393   7.675   0.830 -0.8023 -0.8781 -0.6197
17402SOL     OW53625   1.678   1.681   6.063 -0.2197 -0.5736  0.1477
17402SOL    HW153626   1.684   1.686   5.967  1.3399  0.6108  0.2811
17402SOL    HW253627   1.709   1.593   6.084 -0.8147 -0.9350 -0.4315
17403SOL     OW53628   1.378   0.851   7.534 -0.8897  0.1771  0.5200
17403SOL    HW153629   1.322   0.842   7.458  1.1867 -0.6276 -1.0142
17403SOL    HW253630   1.385   0.946   7.548 -0.7929  0.3686 -0.7138
17404SOL     OW53631   7.522   8.315   5.573  0.1267  0.3606 -0.5445
17404SOL    HW153632   7.468   8.361   5.637  1.2300  1.2820 -0.2443
17404SOL    HW253633   7.516   8.368   5.493  1.4798  1.1139 -0.1692
17405SOL     OW53634   6.198   0.842   1.896  0.4743  0.0987 -0.2969
17405SOL    HW153635   6.255   0.883   1.831 -0.4077  0.2810 -0.9772
17405SOL    HW253636   6.245   0.762   1.921  1.3087  0.5458 -0.3736
17406SOL     OW53637   1.872   4.821   2.547  0.4513 -0.2430 -0.4174
17406SOL    HW153638   1.883   4.762   2.472  2.8966 -2.3614  1.4498
17406SOL    HW253639   1.939   4.889   2.535 -0.5705  0.6697 -1.1702
17407SOL     OW53640   5.113   5.366   4.499  0.2542  0.0719 -0.1467
17407SOL    HW153641   5.155   5.448   4.474  0.1897  0.1852  0.1077
17407SOL    HW253642   5.092   5.323   4.417  1.9023 -0.5189 -0.2897
17408SOL     OW53643   2.767   0.618   5.018  0.3725 -0.0374  0.1977
17408SOL    HW153644   2.690   0.669   4.992  0.2077 -0.2039  0.3574
17408SOL    HW253645   2.783   0.560   4.944 -1.6610 -2.3687  1.4073
17409SOL     OW53646   0.657   5.096   1.157  0.7156  0.2056  0.4254
17409SOL    HW153647   0.695   5.171   1.203  0.1159  0.8766 -0.1537
17409SOL    HW253648   0.658   5.122   1.064 -2.0649  0.7066  0.4449
17410SOL     OW53649   0.485   7.795   2.829 -0.2743 -0.4146 -0.6704
17410SOL    HW153650   0.532   7.714   2.809 -1.6483 -1.6298  0.7282
17410SOL    HW253651   0.488   7.802   2.924 -1.0856  0.6071 -0.6980
17411SOL     OW53652   7.369   1.699   4.858 -0.3975  0.0427 -0.3471
17411SOL    HW153653   7.403   1.612   4.839  0.4683  0.2381  0.2302
17411SOL    HW253654   7.276   1.686   4.872 -0.2800 -0.7929 -0.2758
17412SOL     OW53655   6.359   5.188   7.449 -0.3912 -0.0296  0.7090
17412SOL    HW153656   6.405   5.271   7.436 -1.1820  0.1444 -1.2177
17412SOL    HW253657   6.429   5.122   7.453  0.1334  0.4840  0.1013
17413SOL     OW53658   8.350   6.577   0.485  0.6009  0.0744 -0.4346
17413SOL    HW153659   8.396   6.510   0.535 -1.1059 -0.7754  0.0729
17413SOL    HW253660   8.287   6.529   0.431  0.7008  1.1426 -1.5698
17414SOL     OW53661   7.007   7.624   4.390  0.3943 -0.3371  0.6954
17414SOL    HW153662   7.075   7.681   4.427 -0.0286  0.0391  0.9010
17414SOL    HW253663   7.047   7.589   4.310  0.9038 -0.2775  0.9143
17415SOL     OW53664   0.998   3.936   3.276 -0.6299 -0.5871 -0.3540
17415SOL    HW153665   1.030   3.854   3.314 -1.6671 -1.2193 -0.7697
17415SOL    HW253666   1.060   4.003   3.305 -1.5612 -0.9450  2.7386
17416SOL     OW53667   0.874   6.200   5.391  0.3834 -0.4808  0.3901
17416SOL    HW153668   0.850   6.128   5.332  2.2943 -1.5332  0.8154
17416SOL    HW253669   0.881   6.276   5.334 -2.9308 -0.2140  0.0970
17417SOL     OW53670   2.795   2.519   1.434 -0.2825  0.1854  0.7044
17417SOL    HW153671   2.704   2.548   1.441  0.0060  1.7273 -1.0591
17417SOL    HW253672   2.808   2.460   1.508 -2.6847 -0.0035  1.0351
17418SOL     OW53673   0.392   4.726   6.349 -0.2863  0.1584  0.0621
17418SOL    HW153674   0.410   4.740   6.256 -0.8997  0.7168  0.0168
17418SOL    HW253675   0.405   4.812   6.390  0.6616 -0.2361  0.6173
17419SOL     OW53676   0.588   4.889   5.094 -0.1038 -0.0012 -0.1479
17419SOL    HW153677   0.552   4.800   5.102 -2.7816  1.0197  0.2998
17419SOL    HW253678   0.636   4.902   5.176 -0.5820 -0.7002  0.2585
17420SOL     OW53679   5.730   3.495   5.192 -0.1103 -0.1591  0.4170
17420SOL    HW153680   5.777   3.464   5.269 -0.5788  0.2070  0.8635
17420SOL    HW253681   5.640   3.465   5.205  0.1453 -1.6188 -0.8546
17421SOL     OW53682   5.521   2.546   0.896  0.1529 -0.3867  0.1751
17421SOL    HW153683   5.585   2.484   0.862 -1.9401 -1.0308 -3.0046
17421SOL    HW253684   5.537   2.626   0.845 -1.9866 -0.8198 -1.2736
17422SOL     OW53685   3.490   3.738   4.619 -0.4441  0.5637 -0.1232
17422SOL    HW153686   3.465   3.673   4.553 -1.8220  2.7167 -1.8609
17422SOL    HW253687   3.413   3.744   4.676  0.8114 -1.4335  1.9489
17423SOL     OW53688   5.413   7.880   4.775 -0.6663 -0.5372  0.0460
17423SOL    HW153689   5.478   7.947   4.798  0.2304 -1.2768 -0.2935
17423SOL    HW253690   5.415   7.818   4.848  0.7331 -1.8152 -1.0322
17424SOL     OW53691   8.141   7.643   4.608 -0.4238 -0.2957 -0.4273
17424SOL    HW153692   8.058   7.611   4.640  0.0847 -0.8517  0.3581
17424SOL    HW253693   8.133   7.640   4.513 -2.2066  2.0378 -0.4282
17425SOL     OW53694   5.561   6.224   6.167 -0.1112  0.0441 -0.5038
17425SOL    HW153695   5.552   6.226   6.262 -0.1735  3.2349 -0.4623
17425SOL    HW253696   5.645   6.182   6.151 -0.2563 -0.8405  0.9188
17426SOL     OW53697   3.457   2.505   1.512  0.5694 -0.4786 -0.2479
17426SOL    HW153698   3.389   2.536   1.451 -0.1301  1.2987  1.2979
17426SOL    HW253699   3.432   2.544   1.596  3.4761  0.2004  0.4165
17427SOL     OW53700   1.261   2.559   2.730 -0.1175 -0.0444 -0.1470
17427SOL    HW153701   1.188   2.499   2.713  1.2503 -1.4341 -1.3837
17427SOL    HW253702   1.338   2.513   2.699  1.2672  1.5744  0.7078
17428SOL     OW53703   7.982   5.994   5.026  0.1497  0.1157  0.6398
17428SOL    HW153704   8.037   5.917   5.013 -0.7296 -0.3989 -0.2063
17428SOL    HW253705   8.023   6.063   4.974  0.4135 -0.0499  0.6316
17429SOL     OW53706   3.167   5.160   4.179 -0.0261  0.0324 -0.2840
17429SOL    HW153707   3.148   5.090   4.242  1.1678  0.6441  0.8064
17429SOL    HW253708   3.091   5.219   4.186  0.2964  0.3368  0.9731
17430SOL     OW53709   2.742   0.714   1.822 -0.0507  0.2187  0.3461
17430SOL    HW153710   2.736   0.749   1.911  0.7813  2.4122 -0.4025
17430SOL    HW253711   2.673   0.761   1.773 -0.3178 -0.7554 -0.2468
17431SOL     OW53712   6.847   6.807   7.576 -0.0808 -0.1628  0.8097
17431SOL    HW153713   6.940   6.786   7.583  0.4326  1.3764 -0.7412
17431SOL    HW253714   6.831   6.869   7.647  0.5126  0.8602  0.0775
17432SOL     OW53715   1.468   4.595   5.013  0.1089 -0.2149 -0.2510
17432SOL    HW153716   1.448   4.689   5.021  0.4340  0.0364 -1.8908
17432SOL    HW253717   1.382   4.553   5.018  0.0656  0.0158  1.7863
17433SOL     OW53718   5.721   0.262   4.189  0.0423 -0.0237  0.1468
17433SOL    HW153719   5.716   0.175   4.229  0.4679 -0.2765 -0.3456
17433SOL    HW253720   5.630   0.284   4.168 -0.0812 -0.2818  0.4039
17434SOL     OW53721   1.490   7.755   5.045 -0.4440  0.3400  0.2740
17434SOL    HW153722   1.579   7.720   5.048 -1.0491 -1.1369  1.7754
17434SOL    HW253723   1.460   7.735   4.956 -0.0279 -1.0607  0.4358
17435SOL     OW53724   0.226   3.270   6.621 -0.0453 -0.0937  0.0981
17435SOL    HW153725   0.138   3.298   6.646  0.6955  0.4117  2.4395
17435SOL    HW253726   0.228   3.176   6.640  0.3052  0.1592  1.4049
17436SOL     OW53727   7.004   5.540   5.906  0.5863 -0.3893 -0.7306
17436SOL    HW153728   7.019   5.527   5.812  0.7388 -3.7603 -0.3909
17436SOL    HW253729   7.092   5.547   5.943  0.5015  2.2591 -0.9004
17437SOL     OW53730   1.175   1.952   1.423 -0.2139  0.3529  0.8037
17437SOL    HW153731   1.098   1.934   1.369  0.5832 -1.2219  0.1417
17437SOL    HW253732   1.218   2.026   1.380 -0.5616  0.2809  0.3220
17438SOL     OW53733   7.360   0.360   3.008 -0.7810 -0.6023  0.0882
17438SOL    HW153734   7.282   0.415   3.015 -0.0977  0.2869  1.0720
17438SOL    HW253735   7.379   0.334   3.099  0.6425  0.0560  0.0087
17439SOL     OW53736   5.949   4.400   3.079  0.6411 -0.4406  0.0189
17439SOL    HW153737   5.901   4.438   3.005  1.7349 -0.4201 -0.7100
17439SOL    HW253738   5.952   4.306   3.059 -0.2708 -0.6313  0.7602
17440SOL     OW53739   8.113   2.793   1.580  0.4870 -0.0843 -0.1676
17440SOL    HW153740   8.153   2.738   1.513  1.8476  0.6907 -0.0373
17440SOL    HW253741   8.107   2.736   1.657  0.8245 -0.3958 -0.3657
17441SOL     OW53742   1.821   0.531   5.998 -0.6569  0.5430  0.2305
17441SOL    HW153743   1.851   0.595   6.063 -2.1085 -0.2840  1.7762
17441SOL    HW253744   1.874   0.550   5.921  2.4453  0.4341  2.1465
17442SOL     OW53745   7.298   3.223   0.758 -0.3429 -0.2713 -0.3740
17442SOL    HW153746   7.205   3.200   0.757 -0.8876  1.6097  0.7535
17442SOL    HW253747   7.303   3.298   0.818  1.5308  1.2278 -2.2521
17443SOL     OW53748   5.278   5.420   1.456  0.0347  0.1619  0.0218
17443SOL    HW153749   5.286   5.499   1.508  0.7613 -0.0255  0.2041
17443SOL    HW253750   5.348   5.363   1.488 -1.6349 -1.3368  1.2669
17444SOL     OW53751   0.182   5.007   8.128  0.4667 -0.3873 -0.6050
17444SOL    HW153752   0.264   5.032   8.085  1.5604 -0.2880  1.4111
17444SOL    HW253753   0.206   4.996   8.220 -1.8650 -0.0355  0.1013
17445SOL     OW53754   7.817   8.119   4.031 -0.6409  0.5852 -0.0979
17445SOL    HW153755   7.797   8.091   3.942  0.9823  0.7464 -0.5450
17445SOL    HW253756   7.862   8.203   4.021  1.8141 -0.5367  0.6455
17446SOL     OW53757   5.991   1.402   4.654  0.5202  0.1434 -0.1434
17446SOL    HW153758   5.995   1.339   4.582  3.8055 -0.4128  0.3609
17446SOL    HW253759   5.962   1.484   4.613 -0.1989 -0.7661 -1.5352
17447SOL     OW53760   1.453   4.745   6.390  0.0846  0.0691  0.1469
17447SOL    HW153761   1.491   4.687   6.322 -1.5827  0.5369 -1.2548
17447SOL    HW253762   1.510   4.821   6.390 -0.5438  0.6076 -1.6776
17448SOL     OW53763   0.207   1.957   1.690  0.3143 -0.3681 -0.2831
17448SOL    HW153764   0.282   1.912   1.653  0.0664 -0.6757 -0.4201
17448SOL    HW253765   0.244   2.021   1.750  0.7920  1.2538 -2.2329
17449SOL     OW53766   6.842   0.050   3.268 -0.0295 -0.7750 -0.5470
17449SOL    HW153767   6.765   0.103   3.246  0.8196  0.1633 -1.3857
17449SOL    HW253768   6.808  -0.039   3.275 -1.8017 -0.0199  2.4098
17450SOL     OW53769   4.113   1.982   6.860  0.2238 -0.0301 -0.3545
17450SOL    HW153770   4.159   2.005   6.941  1.5495  1.2440 -1.4173
17450SOL    HW253771   4.095   1.888   6.868 -0.3724  0.2280  1.7297
17451SOL     OW53772   0.537   7.742   1.819  0.3174  0.2493 -0.0206
17451SOL    HW153773   0.549   7.690   1.898 -0.8803 -0.1365 -0.0751
17451SOL    HW253774   0.621   7.786   1.806  1.6427 -2.2328 -0.3870
17452SOL     OW53775   1.250   4.854   3.535 -0.1071 -0.0103 -0.0627
17452SOL    HW153776   1.293   4.768   3.534 -0.7828 -0.3459 -0.4190
17452SOL    HW253777   1.158   4.835   3.549 -0.2813  0.6585 -0.2698
17453SOL     OW53778   2.623   0.567   1.612  0.6418 -0.2426 -0.0362
17453SOL    HW153779   2.575   0.617   1.678  1.5024 -1.0406  1.2561
17453SOL    HW253780   2.664   0.633   1.557  0.4055  0.4580  0.6087
17454SOL     OW53781   7.000   6.869   0.463 -0.4837 -0.1935  0.3072
17454SOL    HW153782   6.945   6.881   0.386 -0.6469  2.7507  0.7519
17454SOL    HW253783   6.943   6.824   0.526 -1.3514  0.0467 -0.2869
17455SOL     OW53784   2.188   6.150   4.468  0.0314 -0.1286  0.0080
17455SOL    HW153785   2.177   6.200   4.387  1.3821  0.3866  0.1154
17455SOL    HW253786   2.159   6.210   4.537 -1.8552 -0.8365 -0.1079
17456SOL     OW53787   3.181   3.325   7.999 -0.2799 -0.2650 -0.4636
17456SOL    HW153788   3.179   3.247   7.943 -0.3721 -1.0383  0.5839
17456SOL    HW253789   3.228   3.296   8.078  0.3638  0.9682 -0.3791
17457SOL     OW53790   6.091   5.839   1.507 -0.5006  0.0939 -0.6099
17457SOL    HW153791   6.107   5.931   1.487  1.6226 -0.1328 -0.2862
17457SOL    HW253792   6.063   5.801   1.424 -0.3049  0.8385 -1.0250
17458SOL     OW53793   7.257   3.384   3.654 -0.6745 -0.7220 -0.1104
17458SOL    HW153794   7.274   3.460   3.711 -1.0173 -0.2239 -0.6582
17458SOL    HW253795   7.305   3.405   3.573  1.0948 -2.1191  0.4997
17459SOL     OW53796   2.415   2.677   3.368  0.2879 -0.3951 -0.2305
17459SOL    HW153797   2.407   2.770   3.388  0.9952 -0.9710  3.2667
17459SOL    HW253798   2.497   2.650   3.410 -0.4971 -2.8262 -0.1188
17460SOL     OW53799   8.003   4.123   1.458  0.4983 -0.8286 -0.1136
17460SOL    HW153800   8.013   4.105   1.552  1.3612 -0.2018 -0.0712
17460SOL    HW253801   8.009   4.219   1.452 -0.3810 -0.7985 -0.7227
17461SOL     OW53802   5.839   4.354   6.285 -0.4854 -0.2492  0.0784
17461SOL    HW153803   5.894   4.276   6.273  0.0894  0.2576 -0.6236
17461SOL    HW253804   5.899   4.421   6.318 -0.0366  1.0879 -3.1381
17462SOL     OW53805   4.438   0.173   6.057  0.5600  0.3014 -0.1871
17462SOL    HW153806   4.489   0.137   5.985 -0.1479  0.6460 -0.8718
17462SOL    HW253807   4.473   0.261   6.070  2.1020 -0.4639  1.3037
17463SOL     OW53808   2.655   7.733   8.346  0.5184 -0.5738  0.4321
17463SOL    HW153809   2.563   7.755   8.330  1.0006 -0.2582 -2.4493
17463SOL    HW253810   2.653   7.641   8.375 -0.6074 -1.4591 -2.1821
17464SOL     OW53811   1.503   7.153   5.823  0.0846 -0.2711 -0.2989
17464SOL    HW153812   1.514   7.142   5.728  2.8040  1.4040 -0.2835
17464SOL    HW253813   1.528   7.069   5.860  2.8509  0.1565 -0.9685
17465SOL     OW53814   1.681   0.608   5.504  0.2419 -0.7045 -0.4230
17465SOL    HW153815   1.654   0.671   5.436 -2.5148 -0.5006  0.7423
17465SOL    HW253816   1.669   0.522   5.463 -0.0425 -0.5596 -0.6465
17466SOL     OW53817   0.250   5.884   1.841  0.4335 -0.2790  0.3911
17466SOL    HW153818   0.239   5.867   1.934 -0.6887 -1.4867  0.0611
17466SOL    HW253819   0.223   5.803   1.798 -0.6840  0.7993 -1.0521
17467SOL     OW53820   7.851   2.091   8.330  0.2335 -0.6575  0.4379
17467SOL    HW153821   7.873   1.998   8.321  0.5689 -0.6401  1.0347
17467SOL    HW253822   7.800   2.095   8.411  1.7708 -0.0585  1.4109
17468SOL     OW53823   4.066   0.128   7.569  0.2802  0.1669 -0.0434
17468SOL    HW153824   4.125   0.160   7.502  0.1866  0.9718  0.2469
17468SOL    HW253825   4.035   0.043   7.536  0.3544  0.4825 -0.9354
17469SOL     OW53826   7.224   8.105   7.954 -0.2551 -0.1816 -0.1413
17469SOL    HW153827   7.144   8.106   7.901  0.7449 -0.5911 -1.7507
17469SOL    HW253828   7.236   8.013   7.977 -0.6282 -0.0184  0.7417
17470SOL     OW53829   8.281   1.585   5.483 -0.5091 -0.4354  0.3412
17470SOL    HW153830   8.287   1.584   5.578 -1.6181  0.7709  0.4668
17470SOL    HW253831   8.285   1.678   5.460 -2.4674 -0.5233 -0.5750
17471SOL     OW53832   0.034   1.412   6.883  0.4435 -0.4256 -0.5099
17471SOL    HW153833   0.032   1.364   6.966 -1.4786 -0.2868 -0.4415
17471SOL    HW253834  -0.002   1.351   6.819 -1.8133  0.7703 -0.4634
17472SOL     OW53835   2.219   0.888   0.600 -0.4401 -0.2830 -0.2462
17472SOL    HW153836   2.240   0.930   0.683  1.4549  0.1582 -0.8927
17472SOL    HW253837   2.273   0.934   0.536 -0.1270 -2.1173 -1.3585
17473SOL     OW53838   1.349   1.878   1.995 -0.2266  0.2167 -0.5072
17473SOL    HW153839   1.402   1.893   1.916 -1.8152 -1.6056 -2.0365
17473SOL    HW253840   1.410   1.834   2.055  0.8711  1.1305 -0.9067
17474SOL     OW53841   6.008   5.778   4.482  0.4878 -0.2541 -0.1791
17474SOL    HW153842   6.040   5.689   4.490  0.0858 -0.2868  1.3563
17474SOL    HW253843   5.914   5.769   4.468  0.4222 -0.0590  0.1392
17475SOL     OW53844   2.404   1.786   2.276 -0.2035 -0.1238 -0.4537
17475SOL    HW153845   2.353   1.826   2.347  0.2217 -1.8894  0.9300
17475SOL    HW253846   2.494   1.784   2.310 -0.1976 -2.1330 -0.4630
17476SOL     OW53847   4.516   3.464   4.847 -0.1141 -0.0796 -0.5325
17476SOL    HW153848   4.529   3.553   4.880 -0.1531 -0.2018 -0.1774
17476SOL    HW253849   4.424   3.445   4.864  0.4478 -1.1170  1.7941
17477SOL     OW53850   5.701   1.637   7.209 -0.0369 -0.2997 -0.3863
17477SOL    HW153851   5.646   1.715   7.197 -2.1324 -1.1553  2.6656
17477SOL    HW253852   5.709   1.627   7.304  0.4413 -3.6123 -0.6563
17478SOL     OW53853   7.795   4.753   0.537  0.5001  0.2072  0.2593
17478SOL    HW153854   7.847   4.705   0.601  0.3759 -1.7702 -1.0583
17478SOL    HW253855   7.709   4.710   0.539  0.0866  0.9832 -0.2951
17479SOL     OW53856   2.916   3.893   3.567 -0.6091 -0.1981  0.0334
17479SOL    HW153857   2.965   3.943   3.501 -1.8091  1.0156  0.0264
17479SOL    HW253858   2.980   3.874   3.636  0.1574  0.2943 -0.5273
17480SOL     OW53859   7.217   8.018   1.566 -0.2112  0.3107 -0.2251
17480SOL    HW153860   7.198   8.107   1.595  1.0377  0.2222  0.9843
17480SOL    HW253861   7.293   8.028   1.509  0.7315 -0.0637  0.9095
17481SOL     OW53862   0.435   4.700   8.360  0.1523 -0.1676  0.6831
17481SOL    HW153863   0.457   4.607   8.366  1.0593  0.1147  2.0418
17481SOL    HW253864   0.456   4.736   8.446  4.1163  2.1749 -0.9420
17482SOL     OW53865   8.229   0.270   4.476  0.7273  0.1869 -0.2555
17482SOL    HW153866   8.311   0.319   4.466  0.0791  1.3113 -0.2526
17482SOL    HW253867   8.162   0.338   4.484 -0.1050 -0.7065  0.6150
17483SOL     OW53868   3.031   7.052   2.046 -0.4458  0.4738  0.3510
17483SOL    HW153869   3.028   7.089   1.957  0.9709 -1.0159 -0.3829
17483SOL    HW253870   2.964   7.100   2.094 -1.5917  1.0128 -1.6431
17484SOL     OW53871   2.384   5.435   2.584  0.8737  0.0519  0.7149
17484SOL    HW153872   2.389   5.424   2.679  1.6394 -0.3296  0.6369
17484SOL    HW253873   2.295   5.466   2.568  0.9519  0.7667  1.6160
17485SOL     OW53874   5.334   1.917   7.597  0.0916 -0.2891 -0.2659
17485SOL    HW153875   5.376   1.985   7.650 -0.9218  2.8872 -3.1462
17485SOL    HW253876   5.372   1.835   7.628  3.6813  1.7989  1.4750
17486SOL     OW53877   2.754   2.598   0.758  0.2802 -0.1064  0.0188
17486SOL    HW153878   2.664   2.582   0.786  0.2477 -0.5822 -0.3548
17486SOL    HW253879   2.801   2.618   0.839 -0.0093 -0.5559  0.3017
17487SOL     OW53880   4.407   3.923   5.071  0.1388 -0.3703 -0.5680
17487SOL    HW153881   4.410   4.018   5.071 -1.6307 -0.2680 -1.5312
17487SOL    HW253882   4.314   3.902   5.067  0.1412 -2.2290  3.8153
17488SOL     OW53883   5.589   2.440   2.158 -0.0464  0.0075 -0.0701
17488SOL    HW153884   5.665   2.482   2.200  0.5013 -0.5720 -0.4667
17488SOL    HW253885   5.626   2.395   2.082 -0.9313  0.4833 -0.8002
17489SOL     OW53886   3.712   5.983   3.154 -0.9703 -0.5408 -0.5888
17489SOL    HW153887   3.748   5.992   3.066 -1.3290 -1.9304 -0.9055
17489SOL    HW253888   3.619   6.003   3.145 -0.5629  2.0640  0.0447
17490SOL     OW53889   3.038   5.504   1.822  0.0273 -0.3078  0.0009
17490SOL    HW153890   2.977   5.535   1.889  1.6494 -0.5825  1.6982
17490SOL    HW253891   3.102   5.451   1.871  0.4622 -1.7432 -1.9961
17491SOL     OW53892   7.348   1.146   2.487 -0.4723 -0.0256  0.3181
17491SOL    HW153893   7.305   1.090   2.423 -0.2663  0.5243 -0.3105
17491SOL    HW253894   7.392   1.086   2.547  0.5163 -0.5329 -0.8814
17492SOL     OW53895   1.117   1.152   4.817  0.3490 -0.0876  0.1667
17492SOL    HW153896   1.085   1.210   4.748  1.0338 -1.5093 -1.4338
17492SOL    HW253897   1.040   1.133   4.871 -0.4059  0.3808 -0.7202
17493SOL     OW53898   1.224   7.334   5.723 -0.0436  0.1596 -0.2844
17493SOL    HW153899   1.219   7.242   5.695 -2.4872  0.8048 -2.2694
17493SOL    HW253900   1.246   7.382   5.644  1.8749  1.3222  0.8660
17494SOL     OW53901   5.748   7.564   7.455 -0.1304 -0.3624 -0.0196
17494SOL    HW153902   5.688   7.508   7.405 -1.4366  1.4113 -0.5645
17494SOL    HW253903   5.694   7.602   7.524  0.7492  0.0887  0.4390
17495SOL     OW53904   0.635   3.181   7.970  0.2554 -0.0259 -0.0981
17495SOL    HW153905   0.697   3.162   7.899 -1.1158 -0.9578 -1.0871
17495SOL    HW253906   0.653   3.115   8.036 -0.4804 -1.0632 -0.9147
17496SOL     OW53907   1.935   1.269   3.914  0.7148  0.0121 -0.2736
17496SOL    HW153908   1.965   1.227   3.834 -2.3295  1.4998 -2.4147
17496SOL    HW253909   1.960   1.361   3.903  0.2385  0.2343  0.4416
17497SOL     OW53910   2.122   7.780   0.674  0.0961  0.5188  0.5528
17497SOL    HW153911   2.149   7.786   0.765  3.1661  1.5879 -0.2740
17497SOL    HW253912   2.177   7.710   0.637 -2.7791 -1.5870 -0.0446
17498SOL     OW53913   2.207   0.701   5.206  0.0876  0.3257 -0.5981
17498SOL    HW153914   2.222   0.730   5.117  4.1217 -0.0323 -0.2431
17498SOL    HW253915   2.218   0.779   5.260 -2.2578  0.5310 -0.3300
17499SOL     OW53916   6.852   7.736   6.861  0.2569  0.3916 -0.1784
17499SOL    HW153917   6.844   7.776   6.774  2.8457  0.9724 -0.2311
17499SOL    HW253918   6.941   7.701   6.863 -0.5571 -1.8364  1.3761
17500SOL     OW53919   5.937   1.885   7.074 -0.1974  0.4561  0.3574
17500SOL    HW153920   5.956   1.861   7.165 -1.4435  1.2304  0.8503
17500SOL    HW253921   5.870   1.953   7.080  0.2899  1.1179 -1.1283
17501SOL     OW53922   8.254   5.701   5.787  0.5956 -0.4561 -0.1182
17501SOL    HW153923   8.266   5.627   5.847  2.3865 -2.2137 -2.4084
17501SOL    HW253924   8.318   5.766   5.816 -0.1369 -0.2733  1.1730
17502SOL     OW53925   1.280   0.743   4.369  0.2647 -0.2514  0.2361
17502SOL    HW153926   1.234   0.823   4.395 -2.7631 -1.6307 -0.3980
17502SOL    HW253927   1.323   0.765   4.287 -0.8604  0.6469 -0.1390
17503SOL     OW53928   7.551   2.530   0.587  0.2735 -0.1790  0.5876
17503SOL    HW153929   7.494   2.461   0.622 -0.1480  0.5334  1.3515
17503SOL    HW253930   7.598   2.563   0.663  2.4930 -1.4047 -0.1565
17504SOL     OW53931   7.766   6.571   0.773  0.6253  0.4688 -0.8581
17504SOL    HW153932   7.730   6.633   0.710 -1.0195 -0.2825 -0.6989
17504SOL    HW253933   7.757   6.486   0.731  0.8954  0.1186 -0.2169
17505SOL     OW53934   1.223   4.872   6.857 -0.3523  0.3757  0.3431
17505SOL    HW153935   1.276   4.850   6.780 -1.2476  1.6832 -0.7094
17505SOL    HW253936   1.186   4.789   6.885  1.2080 -0.3600  0.3167
17506SOL     OW53937   4.681   4.038   0.679  0.3688 -0.0595  0.5048
17506SOL    HW153938   4.700   4.051   0.586 -1.9476 -0.7588 -0.1311
17506SOL    HW253939   4.750   3.979   0.710 -0.1951 -1.8233 -1.4125
17507SOL     OW53940   3.777   0.054   4.325  0.3179  0.0833 -1.2748
17507SOL    HW153941   3.686   0.042   4.298 -0.5531  1.3404  0.8393
17507SOL    HW253942   3.812   0.119   4.264 -0.5506  0.4384 -1.4079
17508SOL     OW53943   4.223   1.947   1.356  0.0705  0.2157 -0.1587
17508SOL    HW153944   4.130   1.952   1.380 -0.7137 -0.3601 -2.6878
17508SOL    HW253945   4.247   1.856   1.373  0.1229  0.3261  0.3555
17509SOL     OW53946   8.123   5.364   1.295 -0.2603 -0.2469  0.8292
17509SOL    HW153947   8.145   5.427   1.226  0.7055  1.8706  2.9021
17509SOL    HW253948   8.197   5.304   1.298  0.3122  0.4506  0.8662
17510SOL     OW53949   6.777   0.977   3.941  0.0250 -0.1479 -0.2716
17510SOL    HW153950   6.835   0.901   3.941  0.4836  0.1967 -0.7053
17510SOL    HW253951   6.720   0.964   3.865  2.3097  1.5680 -2.4318
17511SOL     OW53952   4.639   1.171   2.199  0.1841 -0.0015 -0.6530
17511SOL    HW153953   4.696   1.144   2.127  1.9134 -1.4383  1.1518
17511SOL    HW253954   4.593   1.090   2.224  2.2370 -0.4526  2.0674
17512SOL     OW53955   3.213   6.216   8.028  0.2121 -0.4062  0.6622
17512SOL    HW153956   3.145   6.184   7.968  2.5081 -2.2830 -1.1192
17512SOL    HW253957   3.271   6.268   7.972  1.8136 -1.2429  1.4945
17513SOL     OW53958   4.001   3.089   7.343 -0.0205  0.1054  0.1638
17513SOL    HW153959   4.041   3.169   7.378 -1.7583  1.5047 -0.8785
17513SOL    HW253960   4.032   3.084   7.253  0.2995 -0.5918  0.3019
17514SOL     OW53961   4.697   1.947   3.222 -0.3696  1.0697 -0.1646
17514SOL    HW153962   4.613   1.966   3.264 -1.9496 -4.1310 -0.3108
17514SOL    HW253963   4.759   1.939   3.294 -1.5668 -1.2741  0.6922
17515SOL     OW53964   4.571   1.496   4.687  0.1306 -0.1284 -0.0648
17515SOL    HW153965   4.492   1.474   4.737  1.2507 -1.6870  1.1003
17515SOL    HW253966   4.538   1.517   4.599 -1.6199 -0.2044  0.5319
17516SOL     OW53967   0.721   5.921   5.495 -0.2537 -0.4953 -0.0262
17516SOL    HW153968   0.702   6.009   5.526  0.0473 -0.5809  0.3973
17516SOL    HW253969   0.650   5.867   5.530  1.5207 -1.1142  2.9033
17517SOL     OW53970   3.244   3.946   5.106  0.3993  0.1213  0.7248
17517SOL    HW153971   3.290   3.902   5.177 -0.0076 -0.5629  0.5734
17517SOL    HW253972   3.201   4.021   5.147 -1.3983 -1.3268  1.5842
17518SOL     OW53973   7.147   6.277   2.471  0.0013  0.3555 -0.2544
17518SOL    HW153974   7.171   6.185   2.460 -0.4554  0.3312 -1.1289
17518SOL    HW253975   7.161   6.316   2.385  0.5624  1.2029  0.2040
17519SOL     OW53976   7.344   5.277   5.538 -0.1944 -0.4218 -0.4891
17519SOL    HW153977   7.394   5.357   5.521  1.2252 -1.1409  0.1157
17519SOL    HW253978   7.257   5.295   5.503  0.2991  1.1211 -1.0021
17520SOL     OW53979   2.891   1.969   4.706 -0.2254  0.4612  0.2649
17520SOL    HW153980   2.930   2.055   4.719  0.2050  0.6149 -1.8080
17520SOL    HW253981   2.803   1.977   4.744  0.6089  1.0628  2.1827
17521SOL     OW53982   7.082   5.106   2.873 -0.0102 -0.6288  0.0453
17521SOL    HW153983   7.141   5.103   2.798  0.9354  0.5607  0.6822
17521SOL    HW253984   7.040   5.191   2.867 -0.5323 -0.8566  0.4133
17522SOL     OW53985   0.520   0.659   0.466  0.1364 -0.1752  0.5047
17522SOL    HW153986   0.491   0.569   0.478 -2.2339  0.4014 -0.3577
17522SOL    HW253987   0.465   0.693   0.395  0.6193  2.0831  1.1369
17523SOL     OW53988   1.351   6.670   7.329  0.4537 -0.1352 -0.1952
17523SOL    HW153989   1.283   6.708   7.384  0.5673 -0.6277  0.2944
17523SOL    HW253990   1.407   6.621   7.390  1.4808  0.5895 -0.5187
17524SOL     OW53991   2.619   6.885   1.918  0.4103 -0.1799 -0.1608
17524SOL    HW153992   2.556   6.854   1.983  0.5543  0.1491  0.1365
17524SOL    HW253993   2.649   6.805   1.874 -0.8882 -0.2730 -0.9288
17525SOL     OW53994   0.558   6.283   2.087 -0.1001 -0.2748  0.1243
17525SOL    HW153995   0.628   6.339   2.051  0.3921  0.6687  2.3913
17525SOL    HW253996   0.558   6.206   2.030  1.9405  0.2541 -0.7013
17526SOL     OW53997   7.169   0.040   2.381 -0.3671 -0.4449  0.2244
17526SOL    HW153998   7.140   0.037   2.290  0.0829  1.4250 -0.0143
17526SOL    HW253999   7.220  -0.040   2.392 -2.5076 -1.9933 -0.3958
17527SOL     OW54000   3.812   0.448   7.301  0.0173  0.1337  0.0701
17527SOL    HW154001   3.852   0.463   7.216 -0.2787  3.2214  0.3807
17527SOL    HW254002   3.876   0.481   7.364 -0.2818 -0.9728  0.9886
17528SOL     OW54003   1.263   6.879   5.558 -0.3854  0.0629  0.6011
17528SOL    HW154004   1.221   6.965   5.564  0.2957  0.3179  2.0742
17528SOL    HW254005   1.289   6.859   5.648  0.7217 -1.0509  0.0540
17529SOL     OW54006   5.736   4.394   4.300 -0.4584 -0.2649  0.3335
17529SOL    HW154007   5.820   4.422   4.337 -0.8447 -0.0274  1.0607
17529SOL    HW254008   5.733   4.299   4.315 -0.2279 -0.3074  0.1099
17530SOL     OW54009   8.369   0.278   5.242  0.1591  0.2362  0.2605
17530SOL    HW154010   8.345   0.319   5.325  0.5549  1.0564 -0.0173
17530SOL    HW254011   8.297   0.218   5.224 -0.6381  1.0917  0.4951
17531SOL     OW54012   5.563   5.228   3.550 -0.0117  0.0812  0.5262
17531SOL    HW154013   5.545   5.184   3.466  2.0433  0.1840 -0.0048
17531SOL    HW254014   5.569   5.156   3.613 -0.5895 -0.0683  0.4245
17532SOL     OW54015   1.066   4.073   6.312  0.8235  0.0633 -0.1461
17532SOL    HW154016   1.160   4.060   6.297  0.4558  0.5451 -3.7018
17532SOL    HW254017   1.024   4.006   6.258 -0.8734  1.3066 -0.4526
17533SOL     OW54018   7.341   6.461   4.039  0.8931 -0.0390 -0.6048
17533SOL    HW154019   7.380   6.469   4.126  1.8882  0.4985 -1.0880
17533SOL    HW254020   7.328   6.367   4.026 -1.4197 -0.0320  1.0299
17534SOL     OW54021   2.671   2.626   2.469 -0.3151 -0.0202  0.0859
17534SOL    HW154022   2.655   2.643   2.376 -1.0283  1.4917  0.4467
17534SOL    HW254023   2.584   2.631   2.509  0.2511  2.3718  1.2304
17535SOL     OW54024   4.107   1.059   3.950 -0.0599 -0.0070 -0.8166
17535SOL    HW154025   4.078   1.149   3.965  2.4518  0.2799  4.5971
17535SOL    HW254026   4.046   1.005   4.000  1.9501 -0.4896  1.2819
17536SOL     OW54027   8.315   0.609   2.438  0.3112  0.0896 -0.5913
17536SOL    HW154028   8.406   0.585   2.459 -0.1563 -1.9020 -0.6118
17536SOL    HW254029   8.313   0.613   2.343  0.7541  1.8909 -0.5510
17537SOL     OW54030   6.623   3.366   6.504 -0.4835 -0.0863 -0.7748
17537SOL    HW154031   6.656   3.304   6.568 -1.6842 -0.3184 -0.3549
17537SOL    HW254032   6.583   3.312   6.435  0.7886  0.1555 -1.7399
17538SOL     OW54033   1.594   2.238   8.326  0.1419  0.3350 -0.6791
17538SOL    HW154034   1.642   2.285   8.258  0.1513 -0.0112 -0.9126
17538SOL    HW254035   1.642   2.156   8.338  0.1737  0.4188 -0.2135
17539SOL     OW54036   7.239   0.274   1.463 -1.0007  0.1029 -0.1973
17539SOL    HW154037   7.245   0.316   1.377 -2.2240  0.9034  0.0887
17539SOL    HW254038   7.285   0.191   1.452 -0.3446  0.5881 -1.3645
17540SOL     OW54039   5.521   4.508   3.267 -0.3270  0.0673  0.1003
17540SOL    HW154040   5.478   4.565   3.203 -2.4676 -0.9188  0.5577
17540SOL    HW254041   5.577   4.450   3.215  0.9339  1.7211 -0.4670
17541SOL     OW54042   6.603   0.406   2.199  0.3052  0.0382 -0.1522
17541SOL    HW154043   6.568   0.466   2.133 -1.6664 -1.0936 -0.2345
17541SOL    HW254044   6.546   0.329   2.193  1.4900 -1.0064  1.3381
17542SOL     OW54045   5.753   2.471   5.440 -0.4677 -0.2673  0.4400
17542SOL    HW154046   5.709   2.513   5.366  2.1957 -0.7136 -1.5383
17542SOL    HW254047   5.782   2.544   5.495  0.4984  0.3129 -0.7864
17543SOL     OW54048   1.730   6.700   4.993 -0.0517 -0.4557  0.2931
17543SOL    HW154049   1.651   6.649   4.973 -0.5556 -0.3645  1.9558
17543SOL    HW254050   1.702   6.762   5.061  1.1082  0.5581 -0.1281
17544SOL     OW54051   6.864   2.221   5.357 -0.2847  0.1128  0.4543
17544SOL    HW154052   6.866   2.126   5.353 -1.3444  0.0957 -0.1717
17544SOL    HW254053   6.846   2.241   5.449 -1.3151 -0.3474  0.3705
17545SOL     OW54054   0.011   0.875   1.253 -0.5462  0.5655 -0.0653
17545SOL    HW154055  -0.007   0.816   1.326  2.2328 -0.8520 -0.4007
17545SOL    HW254056  -0.018   0.826   1.176 -1.3449  1.0945 -0.1122
17546SOL     OW54057   5.671   5.130   0.871  0.5527 -0.2095  0.1174
17546SOL    HW154058   5.661   5.206   0.813  0.0402  0.0994  0.5987
17546SOL    HW254059   5.622   5.061   0.828  1.9561 -0.6200 -0.9048
17547SOL     OW54060   0.853   4.319   3.059  0.0804 -0.2965  0.0197
17547SOL    HW154061   0.808   4.292   3.139  1.3107  0.7533  1.1118
17547SOL    HW254062   0.822   4.259   2.992 -0.1909 -1.8765  1.5121
17548SOL     OW54063   0.234   0.828   6.461  0.0218  0.3110  0.5848
17548SOL    HW154064   0.167   0.764   6.439  1.2457 -0.6416 -0.5287
17548SOL    HW254065   0.311   0.776   6.483  0.9842  1.3773 -0.1261
17549SOL     OW54066   7.477   7.392   4.954  0.2083  0.9099  0.3265
17549SOL    HW154067   7.470   7.300   4.929  0.4338  0.6918  1.0473
17549SOL    HW254068   7.491   7.390   5.049  0.6162  1.6734  0.2855
17550SOL     OW54069   5.626   3.976   2.810  0.1590 -0.5317 -0.1868
17550SOL    HW154070   5.713   3.937   2.798  1.0774  1.2530  0.2600
17550SOL    HW254071   5.568   3.901   2.827  1.5308 -1.7951 -0.8484
17551SOL     OW54072   4.215   6.557   6.744 -0.4185 -0.1733  0.4684
17551SOL    HW154073   4.166   6.551   6.826  1.5463 -2.4988  1.5981
17551SOL    HW254074   4.252   6.645   6.744 -1.0430  0.1120  1.7272
17552SOL     OW54075   4.360   1.457   4.914 -0.2270 -0.1589 -0.0282
17552SOL    HW154076   4.422   1.398   4.957  1.1178 -0.1976 -1.9073
17552SOL    HW254077   4.305   1.399   4.861 -1.1520 -0.0189  0.7663
17553SOL     OW54078   4.611   6.521   2.029  0.4166  0.4453 -0.0110
17553SOL    HW154079   4.597   6.460   1.956 -0.6609  0.6279  0.0370
17553SOL    HW254080   4.585   6.606   1.994 -1.6819  0.3018  1.0473
17554SOL     OW54081   6.212   1.345   2.103  0.3541 -0.7440  0.0949
17554SOL    HW154082   6.249   1.389   2.027  0.2633 -1.3786 -0.3228
17554SOL    HW254083   6.244   1.395   2.178 -1.8936  1.6903 -0.4262
17555SOL     OW54084   5.441   6.491   6.110  0.1525 -0.1731  0.5502
17555SOL    HW154085   5.482   6.518   6.027 -0.0464  0.4013  0.6365
17555SOL    HW254086   5.492   6.415   6.138  1.9753  1.2361  1.2778
17556SOL     OW54087   4.787   6.400   1.213  0.7477 -0.2952  0.2998
17556SOL    HW154088   4.775   6.334   1.281 -1.3034 -1.0121 -0.6585
17556SOL    HW254089   4.699   6.418   1.181  1.5369  0.7944 -1.4423
17557SOL     OW54090   5.362   2.724   1.677  0.1499 -0.1792 -0.2720
17557SOL    HW154091   5.299   2.702   1.609 -0.7709  0.7076  0.2736
17557SOL    HW254092   5.426   2.780   1.633 -1.4959  2.0012 -0.0105
17558SOL     OW54093   4.737   2.119   0.894 -0.0734  0.5934  1.1570
17558SOL    HW154094   4.818   2.068   0.889 -0.0044  0.5404  2.5016
17558SOL    HW254095   4.759   2.202   0.852  0.0262 -0.1984 -0.4120
17559SOL     OW54096   2.227   0.816   5.980  0.0208 -0.0291 -0.2904
17559SOL    HW154097   2.210   0.733   6.025  0.0660 -0.0823 -0.3705
17559SOL    HW254098   2.168   0.813   5.904  0.4682 -0.2621 -0.6306
17560SOL     OW54099   7.714   3.855   3.033 -0.5113 -0.2718  0.4309
17560SOL    HW154100   7.690   3.825   2.946  0.5256 -0.4987  0.2085
17560SOL    HW254101   7.700   3.778   3.089  0.5012 -0.6728  0.1529
17561SOL     OW54102   2.038   4.698   6.165 -0.4133  0.3320 -0.6691
17561SOL    HW154103   2.081   4.749   6.234 -0.0011  0.1860 -0.8114
17561SOL    HW254104   1.955   4.743   6.150 -0.7580  0.0521  0.3050
17562SOL     OW54105   0.869   2.967   7.083  0.6168 -0.4895 -0.2941
17562SOL    HW154106   0.865   2.979   6.988  2.5121 -0.5082 -0.4115
17562SOL    HW254107   0.960   2.984   7.106  0.4173 -1.4479  1.4011
17563SOL     OW54108   7.550   5.330   4.980 -0.2665  0.9277  0.2170
17563SOL    HW154109   7.603   5.250   4.972  1.8274  2.3372 -1.0811
17563SOL    HW254110   7.487   5.310   5.049 -0.4940 -2.1814 -0.7276
17564SOL     OW54111   0.234   2.732   6.849  0.3587 -0.5450  0.4439
17564SOL    HW154112   0.172   2.680   6.900  0.1632 -2.1204 -1.3004
17564SOL    HW254113   0.317   2.724   6.897  0.3820 -2.6813  0.1377
17565SOL     OW54114   7.105   4.122   0.988  0.1310  0.3966 -0.6053
17565SOL    HW154115   7.144   4.151   1.071  1.9149 -1.0644 -0.8645
17565SOL    HW254116   7.158   4.164   0.921  1.3528 -1.5844 -0.9696
17566SOL     OW54117   5.581   2.445   7.793 -0.2480  0.0185 -0.5240
17566SOL    HW154118   5.664   2.481   7.822 -0.8328  0.4497  0.6678
17566SOL    HW254119   5.525   2.447   7.870 -1.3292 -0.3853 -1.2656
17567SOL     OW54120   4.331   6.627   6.333 -0.7941  0.6487 -0.1843
17567SOL    HW154121   4.307   6.716   6.356 -0.5096  0.2741  1.7977
17567SOL    HW254122   4.359   6.588   6.416 -1.8270 -1.5674 -0.8104
17568SOL     OW54123   3.253   6.873   7.074  0.1207  0.0533  0.2092
17568SOL    HW154124   3.327   6.819   7.101  0.1339 -1.4762 -2.5814
17568SOL    HW254125   3.293   6.955   7.044  0.5659 -0.2881 -0.1395
17569SOL     OW54126   5.228   3.492   7.332 -0.8206  0.5895  0.2320
17569SOL    HW154127   5.201   3.500   7.424  0.1087  2.0871  0.4159
17569SOL    HW254128   5.154   3.451   7.288 -2.2786  2.1054  1.1932
17570SOL     OW54129   6.353   6.067   7.871 -0.3081 -0.1472 -0.0410
17570SOL    HW154130   6.344   5.972   7.865  1.7294 -0.4929  1.3058
17570SOL    HW254131   6.340   6.087   7.964  1.0808  0.6235  0.0148
17571SOL     OW54132   7.888   7.122   3.434  0.2715 -0.0919  0.6736
17571SOL    HW154133   7.823   7.157   3.374  0.3594 -1.2011 -0.0860
17571SOL    HW254134   7.951   7.194   3.445  0.7346 -0.1294 -1.2731
17572SOL     OW54135   5.557   4.005   5.642 -0.3235  0.2808 -0.4256
17572SOL    HW154136   5.606   3.932   5.607  1.2487  0.2562  1.6612
17572SOL    HW254137   5.502   3.967   5.710 -0.9447  0.7671 -0.6447
17573SOL     OW54138   1.084   7.545   3.769 -0.1171 -0.0934 -0.1468
17573SOL    HW154139   0.990   7.528   3.763 -0.5662  0.2262  3.7192
17573SOL    HW254140   1.124   7.459   3.756 -0.9657 -0.3763 -1.0301
17574SOL     OW54141   4.146   2.038   3.506 -0.4565 -0.2440  0.0933
17574SOL    HW154142   4.219   2.008   3.561  0.2883  1.1494 -0.0751
17574SOL    HW254143   4.185   2.105   3.450 -1.7916  0.2336 -0.3003
17575SOL     OW54144   7.331   5.610   5.007 -0.6989 -0.7110  0.2317
17575SOL    HW154145   7.240   5.591   5.028 -0.2979 -0.5997  2.3441
17575SOL    HW254146   7.380   5.575   5.082  1.0064 -0.8764 -0.9179
17576SOL     OW54147   4.608   1.933   4.088  0.3869 -0.1136 -0.2936
17576SOL    HW154148   4.632   1.970   4.173 -1.2532  0.9593 -0.2410
17576SOL    HW254149   4.534   1.875   4.107  2.1446 -2.5807 -0.5610
17577SOL     OW54150   2.406   4.759   0.015 -0.4357  0.3658 -0.0540
17577SOL    HW154151   2.409   4.671  -0.022  0.0375  0.7677 -1.0104
17577SOL    HW254152   2.333   4.757   0.076 -1.8541 -0.0690 -1.6977
17578SOL     OW54153   6.940   1.131   2.788 -0.7452 -0.2272  0.4493
17578SOL    HW154154   6.966   1.204   2.732 -2.0262  1.8576  2.4277
17578SOL    HW254155   6.948   1.054   2.731  2.3053  1.1478 -1.2405
17579SOL     OW54156   3.950   0.690   5.088  0.4861 -0.4415 -0.4102
17579SOL    HW154157   3.883   0.624   5.109  1.6919 -1.2793  0.9341
17579SOL    HW254158   3.934   0.761   5.150  1.0082 -0.7706  0.1087
17580SOL     OW54159   5.571   3.009   6.324 -0.3196 -0.0256  0.1946
17580SOL    HW154160   5.654   3.055   6.314 -1.7971  3.1003  0.9765
17580SOL    HW254161   5.592   2.917   6.308  3.1646  0.6793 -0.0355
17581SOL     OW54162   0.973   0.733   7.948 -0.3603 -0.1937 -0.2822
17581SOL    HW154163   0.950   0.800   7.884 -0.7931  0.7108  0.8047
17581SOL    HW254164   0.891   0.686   7.964 -0.1766 -0.6468 -0.6331
17582SOL     OW54165   1.451   5.532   5.325 -0.1939  0.6473  0.8524
17582SOL    HW154166   1.450   5.437   5.334 -2.7636  0.6199  1.0440
17582SOL    HW254167   1.533   5.559   5.365  0.3715 -1.4465  1.2227
17583SOL     OW54168   6.820   5.343   6.010 -0.1220 -0.2418 -0.5144
17583SOL    HW154169   6.879   5.268   6.006 -0.5693 -0.5743 -0.9873
17583SOL    HW254170   6.873   5.416   5.979  0.8868  0.0376  1.6523
17584SOL     OW54171   8.068   4.078   3.911  0.2688  0.6230  0.1036
17584SOL    HW154172   8.137   4.138   3.882 -1.0884  2.2565  0.1237
17584SOL    HW254173   8.100   4.042   3.994  0.9167  1.6655  0.3163
17585SOL     OW54174   6.416   2.454   4.216 -0.2539  0.3264  0.0560
17585SOL    HW154175   6.486   2.507   4.255 -0.6558  0.7234  0.2488
17585SOL    HW254176   6.451   2.425   4.132  0.0566  0.7174  0.0508
17586SOL     OW54177   3.555   4.032   5.203  0.2903  0.0344 -0.3953
17586SOL    HW154178   3.605   4.049   5.283  0.5928 -1.2818 -0.2837
17586SOL    HW254179   3.488   3.969   5.230  0.9877 -1.1720 -1.3607
17587SOL     OW54180   0.597   4.642   1.299  0.5978 -0.1983 -0.4965
17587SOL    HW154181   0.688   4.661   1.278  0.5228  0.0265 -0.6255
17587SOL    HW254182   0.600   4.560   1.347  1.0337  0.6478  0.9878
17588SOL     OW54183   1.262   3.586   6.312 -0.6759  0.0597 -0.5238
17588SOL    HW154184   1.321   3.582   6.387 -0.8728 -0.8861 -0.4139
17588SOL    HW254185   1.298   3.656   6.258 -0.5041  0.7216  0.4191
17589SOL     OW54186   4.990   3.392   3.601  0.8593 -0.3847 -0.1703
17589SOL    HW154187   5.063   3.334   3.619  2.1926  1.5107  0.8731
17589SOL    HW254188   4.980   3.390   3.506  2.3953 -0.5397 -0.3445
17590SOL     OW54189   8.297   8.164   6.258 -0.0837  0.0062 -0.0184
17590SOL    HW154190   8.261   8.238   6.305  1.6719  1.1621 -0.4100
17590SOL    HW254191   8.278   8.183   6.166 -0.4549 -0.5278 -0.0610
17591SOL     OW54192   0.375   3.845   5.068  0.3016  0.3388 -0.0764
17591SOL    HW154193   0.385   3.837   4.973  0.0543 -0.6118 -0.0322
17591SOL    HW254194   0.418   3.767   5.103 -0.2624  0.3021  0.5532
17592SOL     OW54195   3.411   4.358   1.363 -0.3596  0.4972 -0.0265
17592SOL    HW154196   3.331   4.390   1.321 -0.1448  1.1219  0.0433
17592SOL    HW254197   3.480   4.415   1.330  0.1151 -0.2277 -0.3206
17593SOL     OW54198   7.632   7.884   7.855 -0.4720  0.4554 -0.0199
17593SOL    HW154199   7.690   7.815   7.821 -1.1037  0.3327 -0.8607
17593SOL    HW254200   7.609   7.853   7.943  0.0062  0.0561 -0.0284
17594SOL     OW54201   8.196   5.555   1.601 -0.0151 -1.0764 -0.0374
17594SOL    HW154202   8.182   5.465   1.631  0.6434 -0.9894  0.5400
17594SOL    HW254203   8.161   5.610   1.671 -0.4005 -0.8758 -0.3814
17595SOL     OW54204   6.259   1.234   6.664  0.2866 -0.4771  0.1571
17595SOL    HW154205   6.240   1.224   6.570  0.5131 -0.1310  0.0765
17595SOL    HW254206   6.216   1.316   6.689  0.0552 -0.6705  0.4039
17596SOL     OW54207   0.515   4.629   7.054  0.1867  0.1732 -0.1444
17596SOL    HW154208   0.589   4.578   7.021  0.5479  1.3982 -1.3409
17596SOL    HW254209   0.540   4.720   7.037 -2.0960  0.5871 -1.7082
17597SOL     OW54210   6.323   2.035   0.871 -0.2792 -0.1155 -0.5559
17597SOL    HW154211   6.320   1.987   0.954 -0.6421 -1.0496 -1.0889
17597SOL    HW254212   6.316   2.127   0.896  3.4285 -0.0407  0.7154
17598SOL     OW54213   3.055   2.150   6.737 -0.3929  0.2239 -0.6244
17598SOL    HW154214   2.980   2.209   6.735 -0.8183 -0.2722 -3.0640
17598SOL    HW254215   3.038   2.088   6.666  1.9416 -0.3959 -0.7291
17599SOL     OW54216   0.378   7.944   4.055 -0.0037 -0.2506  0.3628
17599SOL    HW154217   0.439   7.962   4.127  0.1194 -1.4981  0.5923
17599SOL    HW254218   0.427   7.886   3.996 -1.1622 -1.8704  0.9009
17600SOL     OW54219   0.367   5.613   5.364 -0.1054  0.1556  0.3242
17600SOL    HW154220   0.417   5.552   5.310 -0.8878 -0.2803  0.0675
17600SOL    HW254221   0.313   5.557   5.420 -0.0375  0.6104  0.8547
17601SOL     OW54222   0.787   0.356   2.904  0.2694  0.0458 -0.1765
17601SOL    HW154223   0.715   0.419   2.897 -0.5099 -0.7563  0.4019
17601SOL    HW254224   0.788   0.331   2.996  1.4553  0.2211 -0.1289
17602SOL     OW54225   1.308   4.562   0.075  0.4964 -0.2209 -0.4626
17602SOL    HW154226   1.225   4.603   0.100 -0.1356 -1.0229 -1.1751
17602SOL    HW254227   1.282   4.480   0.033  1.6702 -0.6170 -0.4448
17603SOL     OW54228   2.913   6.367   0.918 -0.2182 -0.2064  0.3127
17603SOL    HW154229   2.878   6.414   0.994  0.1014 -0.1142  0.4074
17603SOL    HW254230   2.991   6.417   0.893  0.7440 -1.2571  1.0764
17604SOL     OW54231   6.815   0.325   1.131  0.8058  0.1695 -0.2033
17604SOL    HW154232   6.881   0.358   1.070  0.0472 -0.7953 -1.5999
17604SOL    HW254233   6.768   0.403   1.160  0.6885  0.5855 -1.4574
17605SOL     OW54234   3.894   1.817   6.602  0.1470  0.4553  0.2825
17605SOL    HW154235   3.814   1.784   6.645  0.4026  0.6661  0.9377
17605SOL    HW254236   3.964   1.764   6.639  0.3517  0.5280 -0.0048
17606SOL     OW54237   7.772   7.382   1.425  0.5233 -0.5312 -0.1080
17606SOL    HW154238   7.682   7.414   1.421  0.2357 -1.3301 -0.2901
17606SOL    HW254239   7.765   7.296   1.468  1.1007 -0.9235 -0.7760
17607SOL     OW54240   3.211   3.604   2.858  0.4459 -0.2903  0.3515
17607SOL    HW154241   3.158   3.566   2.787  1.9807 -0.4306 -0.7811
17607SOL    HW254242   3.168   3.576   2.938 -2.1216  0.9590 -0.4940
17608SOL     OW54243   6.389   0.551   6.444  0.4566  0.2555 -0.0689
17608SOL    HW154244   6.366   0.485   6.379 -1.7107  0.4345  0.4381
17608SOL    HW254245   6.435   0.619   6.395  2.0420 -1.2336 -0.7286
17609SOL     OW54246   6.527   8.114   8.225  0.4648  0.1148  0.1995
17609SOL    HW154247   6.448   8.092   8.274  0.8439 -2.4067 -0.2138
17609SOL    HW254248   6.503   8.191   8.173 -1.4397 -0.1262  0.6718
17610SOL     OW54249   7.605   6.646   2.964 -0.2296 -0.5569 -0.4543
17610SOL    HW154250   7.542   6.575   2.956 -1.0150 -0.0479  0.8753
17610SOL    HW254251   7.686   6.604   2.990 -1.3149 -0.8579  3.0482
17611SOL     OW54252   7.934   5.375   6.222 -0.2000  0.2572  0.3136
17611SOL    HW154253   7.987   5.320   6.280  0.1034  0.5599  0.3238
17611SOL    HW254254   7.844   5.347   6.239  0.0585 -1.3614 -0.8462
17612SOL     OW54255   5.767   0.227   3.767  0.5106 -0.1542  0.0770
17612SOL    HW154256   5.705   0.171   3.814  1.6316 -0.3363  1.4257
17612SOL    HW254257   5.808   0.169   3.703  0.2456 -0.3783  0.1095
17613SOL     OW54258   8.016   3.075   6.322 -0.0211 -0.2173  0.1564
17613SOL    HW154259   8.026   3.049   6.414  0.0397 -1.0941 -0.0811
17613SOL    HW254260   8.092   3.037   6.278  0.2061  0.6133 -0.1793
17614SOL     OW54261   6.565   0.963   3.709  0.1901  0.2757  0.3501
17614SOL    HW154262   6.487   0.911   3.729 -0.0335  0.9418  1.2517
17614SOL    HW254263   6.569   0.964   3.613 -0.2930 -0.6678  0.3148
17615SOL     OW54264   4.233   4.623   2.652  0.1783  0.0938 -0.0296
17615SOL    HW154265   4.310   4.680   2.656  1.1499 -1.2321  0.6947
17615SOL    HW254266   4.256   4.547   2.705 -0.7205 -1.4239 -1.7069
17616SOL     OW54267   1.775   1.283   7.252 -0.3443 -0.3686  0.1601
17616SOL    HW154268   1.764   1.218   7.183 -0.8861  0.5995 -0.6953
17616SOL    HW254269   1.688   1.292   7.291  0.0074 -1.0733  1.1327
17617SOL     OW54270   1.838   4.305   1.509  0.5982  0.0294  0.5362
17617SOL    HW154271   1.744   4.299   1.525 -0.0042  0.8181 -2.1079
17617SOL    HW254272   1.875   4.230   1.554 -1.7952 -2.3611 -1.1346
17618SOL     OW54273   2.864   6.871   7.020  0.0398  0.0436  0.1325
17618SOL    HW154274   2.842   6.913   6.937  0.4827  2.1749  1.0197
17618SOL    HW254275   2.780   6.857   7.063 -0.1337 -0.2112 -0.2904
17619SOL     OW54276   0.501   1.025   1.214  0.8659  0.4925  0.2638
17619SOL    HW154277   0.506   1.099   1.154  0.4320 -0.0969 -0.5341
17619SOL    HW254278   0.509   0.948   1.157  1.4638 -0.0725  1.0867
17620SOL     OW54279   8.076   7.917   1.530  0.9386  0.4285 -0.1723
17620SOL    HW154280   7.981   7.920   1.537  0.8825 -0.7871 -0.2442
17620SOL    HW254281   8.103   8.009   1.526 -0.2633  0.7713 -0.7287
17621SOL     OW54282   2.623   2.191   1.409  0.0428 -0.9315 -0.3084
17621SOL    HW154283   2.567   2.263   1.378 -0.8382 -0.6444  1.8174
17621SOL    HW254284   2.620   2.126   1.338 -2.0121 -0.4047 -0.7566
17622SOL     OW54285   5.469   3.933   0.563  0.4847 -0.0575 -0.4534
17622SOL    HW154286   5.542   3.969   0.512  0.2402 -1.5808 -1.9851
17622SOL    HW254287   5.483   3.839   0.561  0.9932 -0.1860  3.2351
17623SOL     OW54288   1.094   5.474   3.090 -0.1520 -0.1955  0.6614
17623SOL    HW154289   1.185   5.484   3.063 -0.1092 -0.9307  0.4951
17623SOL    HW254290   1.079   5.544   3.154  0.2206  0.5661 -0.0684
17624SOL     OW54291   6.846   8.099   0.611  0.8461  0.5504  0.7301
17624SOL    HW154292   6.773   8.152   0.643  0.4213 -0.1037  0.8668
17624SOL    HW254293   6.807   8.042   0.545  1.4239  0.8332  0.1317
17625SOL     OW54294   7.863   4.289   1.824 -0.1871 -0.0257  0.2991
17625SOL    HW154295   7.915   4.343   1.765  0.1378 -1.8775 -1.1868
17625SOL    HW254296   7.927   4.241   1.876 -0.4017 -1.0737 -0.3758
17626SOL     OW54297   5.682   3.687   5.543  0.5641 -0.6511 -0.1066
17626SOL    HW154298   5.761   3.642   5.514  0.3895 -1.2442  0.3190
17626SOL    HW254299   5.615   3.619   5.544  0.5090 -0.5950  1.4626
17627SOL     OW54300   0.599   6.299   7.165  0.3554 -0.0755  0.2995
17627SOL    HW154301   0.682   6.344   7.183  0.7331 -0.6305 -0.0088
17627SOL    HW254302   0.534   6.369   7.160  0.8748  0.4014  0.1575
17628SOL     OW54303   3.359   1.940   0.459 -0.3184 -0.1959  0.2629
17628SOL    HW154304   3.320   1.861   0.422  0.0391 -0.8580  1.2515
17628SOL    HW254305   3.400   1.984   0.385 -0.0284 -1.2351 -0.2083
17629SOL     OW54306   6.095   5.882   0.168  0.3176  0.2851 -0.2684
17629SOL    HW154307   6.099   5.855   0.077 -0.3318 -1.0156  0.0691
17629SOL    HW254308   6.014   5.932   0.176 -0.2333 -0.6073 -0.1617
17630SOL     OW54309   4.209   6.384   7.140  0.4131 -1.0046  0.4001
17630SOL    HW154310   4.143   6.367   7.208  0.1430 -0.9943  0.1430
17630SOL    HW254311   4.203   6.308   7.082  0.4510 -0.8808  0.2342
17631SOL     OW54312   0.859   8.310   3.077  0.4904  0.4965 -0.3312
17631SOL    HW154313   0.833   8.230   3.032  0.3897  0.5344 -0.3405
17631SOL    HW254314   0.943   8.334   3.038  1.7982 -0.9980  1.4111
17632SOL     OW54315   2.876   1.787   3.643 -0.1400  0.5094 -0.3083
17632SOL    HW154316   2.801   1.730   3.627 -0.0624  0.1500  0.5450
17632SOL    HW254317   2.872   1.805   3.737  1.5966 -0.6361  0.0422
17633SOL     OW54318   8.170   5.366   8.047  0.3565 -0.4445 -0.2618
17633SOL    HW154319   8.121   5.285   8.054  0.2782 -0.3687  0.0797
17633SOL    HW254320   8.254   5.341   8.008  0.4963 -0.7550  0.2390
17634SOL     OW54321   3.962   4.546   5.223 -0.2202 -0.1077  0.0715
17634SOL    HW154322   3.956   4.462   5.269 -2.7732 -0.2103 -0.3059
17634SOL    HW254323   3.959   4.523   5.130  1.4388  0.3129 -0.1209
17635SOL     OW54324   4.698   1.707   7.963  0.2268  0.5829  0.0710
17635SOL    HW154325   4.788   1.720   7.932  1.2655 -0.1833  2.5280
17635SOL    HW254326   4.695   1.751   8.048 -1.9087  1.0458 -0.1986
17636SOL     OW54327   5.437   0.560   7.455  0.0252 -1.0668 -0.0198
17636SOL    HW154328   5.525   0.598   7.448 -1.0285  1.4848 -0.4932
17636SOL    HW254329   5.433   0.495   7.385  1.9916 -2.3567  0.9727
17637SOL     OW54330   7.613   5.754   6.633 -0.4023  0.3952 -0.0688
17637SOL    HW154331   7.599   5.661   6.618  3.0681 -0.5584  1.6358
17637SOL    HW254332   7.527   5.786   6.661 -1.8864 -2.0590 -1.4253
17638SOL     OW54333   3.242   5.900   2.668 -0.0721  0.3411 -0.3385
17638SOL    HW154334   3.169   5.889   2.608 -0.3270 -0.5840  0.1217
17638SOL    HW254335   3.320   5.890   2.614 -0.2988 -1.0193 -0.4389
17639SOL     OW54336   1.110   1.163   7.433 -0.0034  0.1344  0.2242
17639SOL    HW154337   1.147   1.115   7.507  0.1394  0.3935  0.3186
17639SOL    HW254338   1.016   1.143   7.437  0.3218 -2.0734 -1.1176
17640SOL     OW54339   3.440   2.522   1.829 -0.3502  0.0313  0.1013
17640SOL    HW154340   3.516   2.551   1.778 -1.7397 -0.4784 -2.4799
17640SOL    HW254341   3.477   2.479   1.905  1.9509  0.0632 -0.9043
17641SOL     OW54342   0.904   8.330   3.336  0.5276  0.3039  0.2222
17641SOL    HW154343   0.969   8.265   3.364 -0.9563 -1.8916 -1.1253
17641SOL    HW254344   0.896   8.317   3.241 -0.8524  1.4827  0.1368
17642SOL     OW54345   0.075   2.184   0.864 -0.3897 -0.3846 -0.3336
17642SOL    HW154346   0.165   2.202   0.834 -0.2497  0.2033  0.4185
17642SOL    HW254347   0.033   2.270   0.866 -0.9276 -0.6400 -0.5331
17643SOL     OW54348   2.723   2.542   3.832  0.0029 -0.6894 -0.1414
17643SOL    HW154349   2.784   2.567   3.901  0.9856 -0.7816 -0.9439
17643SOL    HW254350   2.656   2.490   3.876  0.7526 -0.9763  0.6986
17644SOL     OW54351   1.492   2.675   7.269 -0.1101  0.1153 -0.3438
17644SOL    HW154352   1.443   2.630   7.200  1.7591 -1.2196 -0.8795
17644SOL    HW254353   1.582   2.674   7.238  0.4603  1.4133  1.1628
17645SOL     OW54354   0.449   5.047   0.865  0.3156  0.5874  0.4450
17645SOL    HW154355   0.514   5.103   0.907 -0.5786  1.3235  0.8639
17645SOL    HW254356   0.424   5.094   0.786  0.4204  0.2129  0.1837
17646SOL     OW54357   6.483   3.080   3.167  0.0885  0.5220 -0.4842
17646SOL    HW154358   6.555   3.120   3.216 -0.2360  1.7039 -0.9575
17646SOL    HW254359   6.436   3.153   3.128 -0.9116 -0.2817 -0.8393
17647SOL     OW54360   0.736   8.195   2.676 -0.0515  0.5176 -0.1221
17647SOL    HW154361   0.685   8.118   2.701  0.6695  0.1880  0.3728
17647SOL    HW254362   0.820   8.184   2.720 -0.0342  1.7422  0.2049
17648SOL     OW54363   1.559   6.328   2.485  0.5564  0.3780  0.2429
17648SOL    HW154364   1.469   6.304   2.462 -0.4888  1.7614  2.5071
17648SOL    HW254365   1.608   6.246   2.477 -1.1935 -0.7216  0.1809
17649SOL     OW54366   2.285   8.021   0.158  0.3807 -0.5383 -0.4144
17649SOL    HW154367   2.329   8.100   0.127 -0.1331  0.0133  0.2168
17649SOL    HW254368   2.356   7.962   0.183  0.9853  1.5929  3.8386
17650SOL     OW54369   4.310   7.093   8.106 -0.1967 -0.1597  0.2471
17650SOL    HW154370   4.256   7.115   8.182  0.9469  2.7901  0.3489
17650SOL    HW254371   4.387   7.149   8.115 -0.1923  0.6351 -3.2803
17651SOL     OW54372   2.521   3.206   6.369  0.6697  0.3633  0.0542
17651SOL    HW154373   2.596   3.228   6.424  1.3730 -1.9114  0.0980
17651SOL    HW254374   2.540   3.118   6.337 -1.4358  0.2086 -0.9042
17652SOL     OW54375   7.610   0.249   2.047  0.5444  0.0003  0.1422
17652SOL    HW154376   7.589   0.156   2.043 -0.5151  0.2560 -1.3118
17652SOL    HW254377   7.678   0.261   1.982 -0.6601  0.5149 -1.0786
17653SOL     OW54378   2.487   0.497   0.874 -0.0046 -0.0022  0.0038
17653SOL    HW154379   2.433   0.552   0.818  0.7408  0.0980 -0.6301
17653SOL    HW254380   2.424   0.448   0.927 -0.8439 -1.6955 -2.4119
17654SOL     OW54381   1.963   7.590   0.941  0.0718  0.1542  0.0122
17654SOL    HW154382   1.979   7.529   0.868  0.5502  2.3482 -1.8314
17654SOL    HW254383   1.933   7.534   1.013 -1.9560 -1.9845 -2.3097
17655SOL     OW54384   1.470   0.528   4.706 -0.2020  0.3391 -0.5486
17655SOL    HW154385   1.450   0.452   4.651 -2.7266 -0.1049  0.8337
17655SOL    HW254386   1.479   0.492   4.794  0.2369  1.4586 -0.1211
17656SOL     OW54387   4.699   2.662   4.221  0.2024  0.3718  0.3335
17656SOL    HW154388   4.767   2.602   4.252  0.6953 -0.4505 -2.0903
17656SOL    HW254389   4.617   2.621   4.246  0.5004  1.4324  3.4096
17657SOL     OW54390   6.797   2.316   0.580  0.2336 -0.4862  0.2040
17657SOL    HW154391   6.786   2.312   0.675  1.9007  0.9768  0.5075
17657SOL    HW254392   6.776   2.228   0.550 -1.3340 -0.7145  1.7879
17658SOL     OW54393   0.486   6.433   2.854  0.3605  0.3803  0.4805
17658SOL    HW154394   0.504   6.526   2.859 -1.0154  0.7292 -0.4455
17658SOL    HW254395   0.473   6.406   2.946  0.6434  1.1224  0.7425
17659SOL     OW54396   0.846   6.727   4.335  0.4312 -0.3494  0.1782
17659SOL    HW154397   0.783   6.665   4.297  0.6038 -1.3791  1.5023
17659SOL    HW254398   0.814   6.813   4.307 -2.1641 -0.7459  1.5804
17660SOL     OW54399   3.598   4.013   8.299 -0.7723  0.4581  0.1565
17660SOL    HW154400   3.567   3.934   8.342 -0.9007 -0.1505 -1.0079
17660SOL    HW254401   3.627   3.984   8.213  1.5105  1.2579  0.5658
17661SOL     OW54402   2.507   0.262   5.226  0.5234 -0.0880  0.3704
17661SOL    HW154403   2.551   0.346   5.215  0.0313  0.5796  2.7841
17661SOL    HW254404   2.415   0.281   5.207  0.5250 -0.2822  0.1611
17662SOL     OW54405   5.524   0.640   7.712  0.3021 -0.0093 -0.4474
17662SOL    HW154406   5.613   0.664   7.685 -0.2817  1.7408 -0.9710
17662SOL    HW254407   5.478   0.621   7.630  0.3871 -1.8003 -0.1251
17663SOL     OW54408   8.220   5.837   0.963  0.0782 -0.0541 -0.1538
17663SOL    HW154409   8.242   5.886   0.884  0.5846 -0.5142 -0.3008
17663SOL    HW254410   8.171   5.899   1.017 -1.4189 -0.1366 -1.3852
17664SOL     OW54411   0.032   3.552   2.119  0.2264 -0.4230 -0.8084
17664SOL    HW154412   0.113   3.596   2.143 -0.1510 -0.9836  1.8223
17664SOL    HW254413   0.055   3.500   2.041  2.3134 -0.3442 -0.3020
17665SOL     OW54414   7.189   8.177   6.734 -0.7571  0.2605 -0.8565
17665SOL    HW154415   7.120   8.119   6.702 -0.9147 -1.0707  1.6871
17665SOL    HW254416   7.253   8.119   6.774  1.1803  1.5878 -1.8292
17666SOL     OW54417   4.622   2.395   3.065  0.1803 -0.2586 -0.3938
17666SOL    HW154418   4.699   2.380   3.119 -0.2477 -0.6011  0.1276
17666SOL    HW254419   4.584   2.476   3.100 -1.6877 -1.9312  1.7504
17667SOL     OW54420   2.381   2.047   3.293 -0.4519 -0.3625  0.0012
17667SOL    HW154421   2.350   2.136   3.308 -0.5858  0.3955 -3.8164
17667SOL    HW254422   2.439   2.054   3.217 -0.5925 -3.5334 -0.5321
17668SOL     OW54423   8.174   7.226   7.215  0.1281  0.4359 -0.0777
17668SOL    HW154424   8.235   7.162   7.251  0.2537  0.2767 -0.5597
17668SOL    HW254425   8.195   7.307   7.261 -0.0025  0.1404  0.5040
17669SOL     OW54426   4.078   4.200   0.614 -0.3224 -0.0749  0.2749
17669SOL    HW154427   4.028   4.219   0.534 -2.2041  1.0505  1.6315
17669SOL    HW254428   4.086   4.105   0.615  1.8213 -0.0648 -2.3695
17670SOL     OW54429   6.748   4.750   7.928 -0.1089 -0.0705 -0.1055
17670SOL    HW154430   6.742   4.716   8.018  0.4189 -1.4768 -0.5872
17670SOL    HW254431   6.668   4.803   7.918 -0.3449 -0.1700  1.0677
17671SOL     OW54432   7.633   8.014   5.862 -0.1203  0.5960 -0.5636
17671SOL    HW154433   7.579   8.044   5.789 -1.0416 -2.2061 -1.1275
17671SOL    HW254434   7.577   7.954   5.911  1.1235  0.9046  1.3504
17672SOL     OW54435   0.220   6.894   2.883 -0.6283 -0.1731 -0.9749
17672SOL    HW154436   0.164   6.890   2.961 -1.4042 -0.5609 -1.5363
17672SOL    HW254437   0.302   6.930   2.915 -0.2810 -2.0158  0.3931
17673SOL     OW54438   7.505   6.644   5.797 -0.4034 -0.2337  0.0769
17673SOL    HW154439   7.502   6.552   5.773 -1.8299 -0.2770  0.3294
17673SOL    HW254440   7.424   6.659   5.846  0.8427  0.6203  2.0131
17674SOL     OW54441   2.374   5.021   8.103  0.2838  0.5501 -0.1100
17674SOL    HW154442   2.391   5.018   8.009 -1.3844 -0.2719 -0.4192
17674SOL    HW254443   2.323   4.942   8.121 -0.3417  1.2346  1.2956
17675SOL     OW54444   7.632   2.265   2.982  0.0743 -0.2520 -0.0480
17675SOL    HW154445   7.702   2.269   2.917 -0.2346  0.7028 -0.3392
17675SOL    HW254446   7.584   2.347   2.971 -0.4363 -0.4068  0.8812
17676SOL     OW54447   7.088   4.130   2.841 -0.3939  0.0274 -0.3648
17676SOL    HW154448   7.146   4.206   2.839 -0.9991  0.5466  1.0331
17676SOL    HW254449   7.002   4.165   2.866 -0.5740 -1.1821  0.8093
17677SOL     OW54450   0.265   4.042   7.287  0.1070 -0.7920 -0.4485
17677SOL    HW154451   0.351   4.033   7.327 -0.0501 -0.3569 -0.0164
17677SOL    HW254452   0.236   3.951   7.272  0.9053 -0.9322 -1.1837
17678SOL     OW54453   4.462   3.080   7.014 -0.3341  0.3904 -0.2132
17678SOL    HW154454   4.500   3.165   7.037 -1.2217  0.4674  1.0462
17678SOL    HW254455   4.379   3.102   6.972  0.2012  0.1745 -1.4139
17679SOL     OW54456   5.057   4.821   4.601 -0.2807 -0.2573  0.2108
17679SOL    HW154457   4.977   4.786   4.561 -0.9750  1.6884 -0.1775
17679SOL    HW254458   5.047   4.916   4.596  1.5194  0.0253  1.2673
17680SOL     OW54459   3.338   5.471   1.154  0.1297  0.3282 -0.2031
17680SOL    HW154460   3.355   5.558   1.120 -1.6407  0.7808 -0.0139
17680SOL    HW254461   3.268   5.483   1.218  0.1655 -1.1669  0.1592
17681SOL     OW54462   0.577   2.784   6.597  0.2941 -0.0959  0.5441
17681SOL    HW154463   0.575   2.688   6.591  0.0598 -0.0232 -1.2961
17681SOL    HW254464   0.668   2.805   6.614  0.5951 -0.6312 -0.3179
17682SOL     OW54465   5.421   0.912   7.315  0.4820  0.7389 -1.1508
17682SOL    HW154466   5.472   0.858   7.254 -0.9134  0.2724 -1.9478
17682SOL    HW254467   5.407   0.994   7.268  0.1965  0.7329 -1.0740
17683SOL     OW54468   2.980   6.353   0.633  0.6959  0.2463 -0.4320
17683SOL    HW154469   2.967   6.352   0.728  0.4662 -0.3815 -0.4643
17683SOL    HW254470   3.040   6.426   0.618  0.1281  0.8338  0.1165
17684SOL     OW54471   3.760   3.556   0.924 -0.1887 -0.4399  0.1251
17684SOL    HW154472   3.665   3.555   0.934 -0.0674 -2.3475  1.4434
17684SOL    HW254473   3.779   3.481   0.867  0.4362  0.9647 -1.6122
17685SOL     OW54474   2.656   3.951   5.278  0.1049  0.0742  0.4801
17685SOL    HW154475   2.677   4.041   5.303 -0.7150  0.0883  1.1512
17685SOL    HW254476   2.735   3.920   5.233  0.7746  0.7988  1.1107
17686SOL     OW54477   7.916   6.537   8.111 -0.2771 -0.1448  0.4061
17686SOL    HW154478   7.974   6.467   8.083  1.6234  1.5927 -0.3165
17686SOL    HW254479   7.974   6.613   8.121 -2.5224  2.0275 -1.5403
17687SOL     OW54480   7.361   2.437   5.815  0.4020 -0.4604  0.1384
17687SOL    HW154481   7.303   2.510   5.795  1.3774  0.4580  0.5382
17687SOL    HW254482   7.433   2.446   5.752  1.9267  0.6152  1.9088
17688SOL     OW54483   4.284   7.940   3.727  0.1447 -0.0166  0.6555
17688SOL    HW154484   4.285   8.035   3.734  1.6338  0.0212  0.1602
17688SOL    HW254485   4.198   7.915   3.760 -0.0185  1.4439  1.4180
17689SOL     OW54486   7.167   4.475   8.022 -0.3859  0.0262  0.7372
17689SOL    HW154487   7.242   4.533   8.010 -0.3969  0.2842  1.8072
17689SOL    HW254488   7.106   4.500   7.952  1.7254 -2.2730 -2.1692
17690SOL     OW54489   5.074   6.892   7.004 -0.0981 -0.2299  0.0565
17690SOL    HW154490   5.136   6.819   6.997  0.5316  0.3706 -0.6990
17690SOL    HW254491   5.089   6.927   7.092  1.4927  0.6481 -0.5298
17691SOL     OW54492   4.006   4.475   8.110  0.4266 -0.1596 -0.4981
17691SOL    HW154493   4.038   4.390   8.141  0.5420  0.6249  1.6870
17691SOL    HW254494   4.046   4.485   8.024  3.0806 -0.9340  0.5258
17692SOL     OW54495   4.581   8.090   0.587  0.4501 -0.2393  0.0722
17692SOL    HW154496   4.578   8.186   0.579 -0.9443 -0.0195  2.4290
17692SOL    HW254497   4.670   8.070   0.615  0.1347  0.6413  1.8347
17693SOL     OW54498   2.870   3.737   5.206  0.3894  0.1245  0.3975
17693SOL    HW154499   2.956   3.724   5.166  0.1283  1.1835 -0.5699
17693SOL    HW254500   2.808   3.720   5.135 -0.0588  2.9786 -0.0045
17694SOL     OW54501   4.221   7.267   6.221  0.2969  0.2925  0.1807
17694SOL    HW154502   4.134   7.307   6.214  0.3246  0.1119 -1.9632
17694SOL    HW254503   4.255   7.297   6.305 -2.6954 -1.3870  2.1992
17695SOL     OW54504   5.098   2.483   1.236 -0.2422  0.3091  0.3672
17695SOL    HW154505   5.185   2.441   1.234 -0.1154  0.5417  1.0223
17695SOL    HW254506   5.051   2.442   1.163 -0.8122 -2.4716  2.1679
17696SOL     OW54507   7.579   2.477   5.607 -0.1761  0.1485  0.1991
17696SOL    HW154508   7.604   2.543   5.542 -1.5395  0.2276 -0.2795
17696SOL    HW254509   7.615   2.395   5.572  0.9868  0.5196  0.4803
17697SOL     OW54510   6.479   4.797   5.323  0.4046 -0.0064  0.5628
17697SOL    HW154511   6.446   4.886   5.335 -0.9140 -0.3683 -0.2380
17697SOL    HW254512   6.479   4.759   5.411  1.1998  0.8342  0.9470
17698SOL     OW54513   7.036   7.597   2.872  0.0109  0.3814 -0.1476
17698SOL    HW154514   7.047   7.508   2.907 -0.7354 -1.1779 -3.4859
17698SOL    HW254515   6.941   7.609   2.867  0.0561  0.1805 -2.2637
17699SOL     OW54516   4.700   0.781   5.676  0.4914  0.0086  0.4974
17699SOL    HW154517   4.764   0.818   5.737 -0.1145  0.5273  0.8332
17699SOL    HW254518   4.751   0.722   5.621  1.1022 -0.2754  1.3372
17700SOL     OW54519   6.344   4.394   5.940 -0.4640  0.0171  0.0751
17700SOL    HW154520   6.280   4.400   6.011 -0.5480  0.3314 -0.0257
17700SOL    HW254521   6.296   4.359   5.866 -0.2861 -0.6832  0.2785
17701SOL     OW54522   6.857   3.471   3.664  0.2014  0.1704 -0.0705
17701SOL    HW154523   6.906   3.455   3.582  0.7661  0.6934  0.1603
17701SOL    HW254524   6.766   3.477   3.636  0.4582  1.0480 -0.7675
17702SOL     OW54525   6.213   6.391   7.970 -0.1147  0.7060  0.3550
17702SOL    HW154526   6.139   6.335   7.994 -1.2758  1.9973 -0.0186
17702SOL    HW254527   6.267   6.395   8.049  1.2155 -2.6048 -0.2352
17703SOL     OW54528   0.401   2.768   4.784 -0.2514 -0.5058  0.2931
17703SOL    HW154529   0.340   2.745   4.854 -1.4003 -0.9947 -0.8268
17703SOL    HW254530   0.372   2.854   4.755 -0.4684 -0.7743 -0.2961
17704SOL     OW54531   5.434   1.770   5.762 -0.0259  0.0873  0.9075
17704SOL    HW154532   5.367   1.759   5.829 -1.1342  0.4016 -0.1129
17704SOL    HW254533   5.482   1.849   5.788 -1.4869  1.1534  0.5116
17705SOL     OW54534   7.277   2.705   5.339 -0.0318 -0.0187  0.5107
17705SOL    HW154535   7.325   2.767   5.285 -2.2932  0.2668 -1.3324
17705SOL    HW254536   7.228   2.759   5.402 -1.4873  0.1091 -0.6675
17706SOL     OW54537   0.624   2.632   7.775  0.4939  0.1956  0.1487
17706SOL    HW154538   0.565   2.705   7.757  0.3557  0.1755  0.5191
17706SOL    HW254539   0.693   2.641   7.709 -0.0397  0.0867 -0.4370
17707SOL     OW54540   1.498   4.047   8.004 -0.0832 -0.7443  0.0224
17707SOL    HW154541   1.548   4.068   8.083  0.0560 -3.2037  0.6650
17707SOL    HW254542   1.412   4.086   8.018  0.8748  1.5653 -0.0773
17708SOL     OW54543   7.771   7.254   0.854 -0.2184 -0.6470 -0.1911
17708SOL    HW154544   7.766   7.350   0.858 -0.6877 -0.6962  3.2716
17708SOL    HW254545   7.856   7.237   0.814  0.2964  1.2399 -0.0398
17709SOL     OW54546   1.229   1.604   5.440 -0.4191  0.4557 -0.4228
17709SOL    HW154547   1.187   1.519   5.454  1.2756 -0.7962 -2.4307
17709SOL    HW254548   1.267   1.626   5.525 -1.2859 -0.5402  0.2576
17710SOL     OW54549   3.628   8.325   7.574  0.2399 -0.8364 -0.0838
17710SOL    HW154550   3.688   8.388   7.613  0.7753 -0.4243 -1.5091
17710SOL    HW254551   3.551   8.378   7.550  0.3814 -0.8612 -0.6002
17711SOL     OW54552   1.377   1.361   0.870 -0.2117  0.2787  0.1177
17711SOL    HW154553   1.360   1.330   0.959  1.4953  1.4484  0.9242
17711SOL    HW254554   1.379   1.457   0.879  0.3706  0.3971 -1.0889
17712SOL     OW54555   2.633   7.292   7.237 -0.1211  0.2174  0.0214
17712SOL    HW154556   2.636   7.203   7.274  1.6964  0.0880 -0.3195
17712SOL    HW254557   2.549   7.297   7.193 -0.8066 -0.8843  1.1424
17713SOL     OW54558   8.078   2.667   8.353  0.2044  0.6373  0.3843
17713SOL    HW154559   8.110   2.757   8.348  1.1737  0.2883  0.1801
17713SOL    HW254560   8.083   2.645   8.446  2.0842  0.0580  0.1737
17714SOL     OW54561   3.193   4.433   6.043 -0.0792 -0.1755  0.0576
17714SOL    HW154562   3.187   4.381   6.123  1.3422 -0.5399 -0.0357
17714SOL    HW254563   3.198   4.524   6.073 -0.7419 -0.2232  0.3162
17715SOL     OW54564   1.829   3.786   5.633 -0.2221  0.4295 -0.2207
17715SOL    HW154565   1.866   3.872   5.652  1.3831 -0.6188  1.7155
17715SOL    HW254566   1.745   3.805   5.591  0.4616  2.9092 -0.6123
17716SOL     OW54567   7.007   2.317   4.070 -0.3109 -0.2359  0.3436
17716SOL    HW154568   6.988   2.224   4.082 -1.5339 -0.0990 -0.3988
17716SOL    HW254569   7.051   2.322   3.985  1.5177 -0.3307  1.2349
17717SOL     OW54570   0.776   3.025   4.349  0.2007 -0.1745  0.1893
17717SOL    HW154571   0.749   2.937   4.375  1.5373 -0.5277  0.4396
17717SOL    HW254572   0.804   3.067   4.430 -0.4145  0.5020  0.0724
17718SOL     OW54573   0.134   1.738   1.850  0.2276  0.4234 -0.5102
17718SOL    HW154574   0.221   1.764   1.882 -0.1886 -0.0841  1.1315
17718SOL    HW254575   0.140   1.643   1.841 -0.1170  0.4041 -0.5527
17719SOL     OW54576   6.936   7.074   3.990 -0.5922 -0.0280 -0.6511
17719SOL    HW154577   7.004   7.071   4.057 -1.6324  0.7745  0.4674
17719SOL    HW254578   6.896   6.987   3.992 -1.8963  0.5422  1.1883
17720SOL     OW54579   6.895   1.810   2.093  0.0484  0.1180 -0.1049
17720SOL    HW154580   6.977   1.859   2.094 -0.8389  1.6830 -0.1905
17720SOL    HW254581   6.839   1.857   2.155 -0.8126 -0.8647 -0.1138
17721SOL     OW54582   1.291   5.082   7.858 -0.8602  0.2033 -0.4898
17721SOL    HW154583   1.349   5.092   7.933 -0.0412 -2.0945 -0.7468
17721SOL    HW254584   1.334   5.131   7.788  0.6202 -1.1056 -0.5588
17722SOL     OW54585   1.310   7.243   2.321 -0.1768 -0.4185  0.4132
17722SOL    HW154586   1.329   7.258   2.414  0.2704 -1.4161  0.4994
17722SOL    HW254587   1.225   7.199   2.321 -0.0870 -0.5937  0.3669
17723SOL     OW54588   2.567   0.129   3.425  0.6674  0.3408  0.7179
17723SOL    HW154589   2.519   0.047   3.420  2.4188 -0.6733 -0.5668
17723SOL    HW254590   2.580   0.155   3.334  1.5632  1.1727  1.0677
17724SOL     OW54591   6.873   2.769   7.098 -0.4077 -0.0358  0.3895
17724SOL    HW154592   6.966   2.766   7.075 -0.5690  2.3320 -0.9641
17724SOL    HW254593   6.828   2.752   7.015 -1.1692  0.1643  0.7565
17725SOL     OW54594   2.133   8.078   6.455  0.6715 -0.2558 -0.0786
17725SOL    HW154595   2.192   8.088   6.380  0.3010  0.2828 -0.2969
17725SOL    HW254596   2.159   8.148   6.515  0.8809 -0.6065  0.2467
17726SOL     OW54597   3.173   8.125   8.114  0.3269 -0.6981 -0.1885
17726SOL    HW154598   3.138   8.212   8.096 -1.1374 -1.7312 -2.8231
17726SOL    HW254599   3.247   8.141   8.173  0.2090  2.3290 -0.6988
17727SOL     OW54600   7.430   3.657   1.527  0.3052 -0.3866  0.2416
17727SOL    HW154601   7.491   3.715   1.481  0.8755 -0.6544  0.6517
17727SOL    HW254602   7.440   3.573   1.484  0.6726 -0.5813  0.6969
17728SOL     OW54603   7.399   7.278   6.567 -0.2640  0.3897  0.3595
17728SOL    HW154604   7.490   7.266   6.538 -0.2803  0.9967  0.0509
17728SOL    HW254605   7.348   7.278   6.487 -0.3666  1.5298  0.4075
17729SOL     OW54606   7.535   0.478   5.654  0.1610 -0.5071  0.6717
17729SOL    HW154607   7.456   0.425   5.644  0.2442 -0.4655 -0.2909
17729SOL    HW254608   7.506   0.553   5.706 -0.6644 -0.0308 -0.4382
17730SOL     OW54609   2.044   4.260   0.290 -0.1839  0.2369  0.2144
17730SOL    HW154610   2.135   4.268   0.318  0.0224 -0.9548 -0.0293
17730SOL    HW254611   1.999   4.218   0.364  0.1649 -2.0511 -0.7815
17731SOL     OW54612   6.594   7.921   1.909 -0.6932 -0.0585 -0.1214
17731SOL    HW154613   6.670   7.975   1.932  0.4110 -0.9687 -1.4734
17731SOL    HW254614   6.614   7.887   1.822 -2.8630  0.0002 -0.6990
17732SOL     OW54615   2.204   7.757   1.859 -0.1450 -0.3525  0.6015
17732SOL    HW154616   2.162   7.681   1.820 -1.1139 -0.0351  0.9952
17732SOL    HW254617   2.244   7.803   1.786 -1.1912 -0.2253  0.0937
17733SOL     OW54618   6.120   1.764   6.876 -0.3306 -0.1540 -0.0145
17733SOL    HW154619   6.078   1.830   6.931  0.9849  0.6067  0.1243
17733SOL    HW254620   6.094   1.680   6.914 -1.3922  0.2957  0.2767
17734SOL     OW54621   1.532   4.507   6.811 -0.1815 -0.5389 -0.6041
17734SOL    HW154622   1.523   4.594   6.773 -1.7261 -1.3504 -2.2664
17734SOL    HW254623   1.473   4.507   6.886  0.3883  0.0613 -0.1488
17735SOL     OW54624   1.990   7.762   2.648 -0.1256  0.1689  0.0163
17735SOL    HW154625   2.068   7.757   2.594 -0.4615 -1.6310 -0.3442
17735SOL    HW254626   2.023   7.778   2.737  0.5974  0.1621 -0.2480
17736SOL     OW54627   7.732   3.037   7.726 -0.2195 -0.3602 -0.7730
17736SOL    HW154628   7.692   3.123   7.741  0.7562  0.0673 -0.5687
17736SOL    HW254629   7.696   2.981   7.795 -0.2553  0.0905 -0.4227
17737SOL     OW54630   1.531   2.849   3.758 -0.3629 -0.5505 -0.6903
17737SOL    HW154631   1.626   2.859   3.756 -0.4697  0.9204  0.1576
17737SOL    HW254632   1.498   2.938   3.773 -1.7859 -1.2497  0.6262
17738SOL     OW54633   6.171   1.658   7.830  0.1832 -0.0739  0.5809
17738SOL    HW154634   6.092   1.604   7.828 -1.2166  1.8721  0.0405
17738SOL    HW254635   6.174   1.691   7.920 -1.7781  2.7179 -0.2518
17739SOL     OW54636   1.190   4.981   4.948  0.4466 -0.1830 -0.0342
17739SOL    HW154637   1.143   5.062   4.930 -1.2314 -1.0855  0.1173
17739SOL    HW254638   1.136   4.935   5.013  1.7944 -1.0500  0.5370
17740SOL     OW54639   5.011   0.285   4.568 -0.3542 -0.6248  0.4189
17740SOL    HW154640   5.095   0.253   4.537  0.2505  0.5146  0.7960
17740SOL    HW254641   4.989   0.357   4.508 -0.8867 -0.6925  0.5283
17741SOL     OW54642   8.067   4.577   3.201  0.3705 -0.6227  0.0546
17741SOL    HW154643   8.035   4.506   3.256 -0.9460 -1.2843 -1.4725
17741SOL    HW254644   8.005   4.648   3.214 -1.2479 -1.5133 -2.0461
17742SOL     OW54645   4.248   6.994   6.652 -0.0467 -0.0966 -0.3811
17742SOL    HW154646   4.275   6.951   6.733 -1.3533  1.6595  1.0545
17742SOL    HW254647   4.302   7.073   6.647  0.1854 -0.3026 -1.3676
17743SOL     OW54648   4.388   2.826   4.221 -0.4053 -0.1195  0.0121
17743SOL    HW154649   4.433   2.835   4.306 -0.0664  0.5519 -0.2248
17743SOL    HW254650   4.295   2.832   4.243 -0.3541 -0.6725  0.4147
17744SOL     OW54651   1.162   1.797   4.903  0.1512 -0.2109 -0.4881
17744SOL    HW154652   1.177   1.837   4.989 -2.3500 -0.4294  0.1398
17744SOL    HW254653   1.118   1.866   4.852 -2.4207 -1.3861 -0.0358
17745SOL     OW54654   2.232   7.696   0.898 -0.6668 -0.7161  0.0286
17745SOL    HW154655   2.261   7.606   0.886  1.2517 -0.2093  0.5554
17745SOL    HW254656   2.146   7.689   0.939 -0.6021 -2.3033 -0.0776
17746SOL     OW54657   5.682   2.773   8.134 -0.3390  0.5584  0.1959
17746SOL    HW154658   5.664   2.835   8.064 -1.6967  0.8544  0.7589
17746SOL    HW254659   5.775   2.784   8.153 -0.1870  1.2150 -0.8435
17747SOL     OW54660   0.785   0.605   0.373 -0.1351  0.3128  0.4896
17747SOL    HW154661   0.701   0.618   0.417 -0.3470 -2.3870  1.0350
17747SOL    HW254662   0.848   0.593   0.444  0.6285  1.6589  0.0753
17748SOL     OW54663   6.964   0.251   7.376 -0.1853 -0.2607 -0.4405
17748SOL    HW154664   6.880   0.296   7.382  0.0223  0.1459 -0.5691
17748SOL    HW254665   6.947   0.174   7.323 -0.4372 -0.0826 -0.6175
17749SOL     OW54666   0.434   6.603   3.442 -0.1923  0.1761  0.0519
17749SOL    HW154667   0.422   6.648   3.358  0.4735 -0.0284 -0.1539
17749SOL    HW254668   0.364   6.537   3.443  0.9774 -1.1679 -1.2516
17750SOL     OW54669   5.164   2.557   2.718 -0.1144 -0.2819 -0.0866
17750SOL    HW154670   5.096   2.494   2.743  0.7482 -1.3794 -0.3976
17750SOL    HW254671   5.200   2.587   2.801 -0.8691  0.1944  0.0765
17751SOL     OW54672   8.339   5.571   0.198  0.1782  0.1572  0.1130
17751SOL    HW154673   8.253   5.595   0.232  0.7173  2.0880  0.2177
17751SOL    HW254674   8.399   5.636   0.236  1.7420 -1.2873  0.2631
17752SOL     OW54675   1.262   6.031   1.297  0.1898  0.0217  0.7534
17752SOL    HW154676   1.300   6.076   1.221  0.6762 -1.9569 -0.2224
17752SOL    HW254677   1.325   5.963   1.319 -1.5512 -1.7006  0.7164
17753SOL     OW54678   4.486   2.235   5.279 -0.0098  0.1654 -0.9118
17753SOL    HW154679   4.478   2.140   5.285 -0.5616  0.3093  2.5382
17753SOL    HW254680   4.574   2.254   5.311 -0.4228  0.8985 -0.1791
17754SOL     OW54681   1.188   0.005   3.716  0.5835 -0.3735  0.1350
17754SOL    HW154682   1.244  -0.068   3.690  0.0331 -0.4144 -0.9718
17754SOL    HW254683   1.206   0.073   3.651 -0.8831 -0.5044 -0.4386
17755SOL     OW54684   2.621   1.770   5.857  0.7615  0.2329 -0.8897
17755SOL    HW154685   2.593   1.850   5.902  1.5077  0.1498 -0.2411
17755SOL    HW254686   2.564   1.763   5.781 -0.3357  0.5569 -0.1250
17756SOL     OW54687   1.060   5.235   6.407 -0.5866  0.0110 -0.1778
17756SOL    HW154688   1.092   5.154   6.446 -1.3232 -0.0061  0.4084
17756SOL    HW254689   1.132   5.264   6.351  0.1521 -0.4298  0.5123
17757SOL     OW54690   4.978   7.751   6.016  0.2909  0.0954  0.2152
17757SOL    HW154691   4.958   7.686   5.948 -0.8002  0.0890  0.5218
17757SOL    HW254692   4.999   7.831   5.967  1.3771 -0.4066 -0.1579
17758SOL     OW54693   4.792   6.714   6.975 -0.5267  0.1701 -0.9118
17758SOL    HW154694   4.811   6.620   6.971 -2.2097 -0.3071  0.6614
17758SOL    HW254695   4.863   6.751   7.026 -0.6597 -0.5286 -0.2016
17759SOL     OW54696   4.850   5.833   7.063 -0.2731 -0.7383  0.1293
17759SOL    HW154697   4.812   5.873   6.985  0.6789 -1.5165 -0.7722
17759SOL    HW254698   4.838   5.739   7.050  1.6904 -1.0070 -0.0892
17760SOL     OW54699   6.500   1.277   3.146 -0.2788 -0.1364  0.2825
17760SOL    HW154700   6.479   1.206   3.208 -0.8106 -1.1645 -1.0120
17760SOL    HW254701   6.465   1.246   3.062 -3.5301  3.0231  0.1962
17761SOL     OW54702   1.258   4.883   0.347  0.2215 -0.2924  0.0535
17761SOL    HW154703   1.208   4.802   0.338 -0.7189  0.0582  1.8537
17761SOL    HW254704   1.212   4.933   0.413  3.0003 -0.0049  1.9505
17762SOL     OW54705   0.017   5.867   8.221 -0.3093  0.6216  0.2729
17762SOL    HW154706  -0.074   5.865   8.250  0.0230 -1.3819  1.3386
17762SOL    HW254707   0.068   5.880   8.301  0.3742  1.3904 -0.2701
17763SOL     OW54708   6.657   1.592   5.080  0.5642  0.1273 -0.5030
17763SOL    HW154709   6.604   1.671   5.088 -0.2485 -0.4401 -0.0726
17763SOL    HW254710   6.651   1.550   5.166  1.3511 -0.1748 -0.5859
17764SOL     OW54711   6.663   0.225   6.446  0.3290  0.8858  0.1757
17764SOL    HW154712   6.594   0.200   6.385  0.6367  1.8033 -0.5733
17764SOL    HW254713   6.744   0.201   6.401  0.5142 -0.9302  1.3828
17765SOL     OW54714   2.415   7.906   6.623 -0.3355  0.1331  0.0817
17765SOL    HW154715   2.496   7.858   6.605 -1.0899 -0.2428 -2.8237
17765SOL    HW254716   2.427   7.990   6.580 -1.1961  0.3475  0.2510
17766SOL     OW54717   6.090   6.021   6.093  0.0413  0.2217  0.0037
17766SOL    HW154718   6.175   6.001   6.054  0.0534 -2.2078  1.1070
17766SOL    HW254719   6.029   5.962   6.050 -0.6946  0.4546  0.7086
17767SOL     OW54720   6.856   4.742   6.675 -0.5736 -0.4423  0.0610
17767SOL    HW154721   6.910   4.663   6.681 -1.5799 -1.0990  0.6941
17767SOL    HW254722   6.786   4.728   6.738 -0.4836  1.1972  0.5748
17768SOL     OW54723   8.130   0.141   4.904 -0.0808  0.2439 -0.3389
17768SOL    HW154724   8.071   0.102   4.968  1.5484  0.1158  1.1570
17768SOL    HW254725   8.099   0.108   4.819 -1.5410 -0.5529  0.4643
17769SOL     OW54726   7.702   2.996   2.878  0.0683 -0.0501  0.0174
17769SOL    HW154727   7.623   2.942   2.867 -0.9015  1.4926 -1.1186
17769SOL    HW254728   7.670   3.077   2.918  1.2973  0.1446  0.6535
17770SOL     OW54729   3.826   1.627   3.119  0.5745  0.4190 -0.1898
17770SOL    HW154730   3.793   1.574   3.192  1.1564 -0.7977 -0.7894
17770SOL    HW254731   3.748   1.663   3.078  0.0129 -1.4927 -0.8910
17771SOL     OW54732   5.079   1.549   7.439  0.3667  0.5106  0.3651
17771SOL    HW154733   5.102   1.465   7.477 -0.0545  0.4936  0.5910
17771SOL    HW254734   5.121   1.549   7.353  1.3996  0.5854  0.8593
17772SOL     OW54735   6.471   3.849   4.646 -0.4253  0.1237  0.0486
17772SOL    HW154736   6.489   3.923   4.587 -1.3497 -0.2875 -0.7901
17772SOL    HW254737   6.403   3.881   4.705  0.0498  0.3337  0.4835
17773SOL     OW54738   6.204   1.315   2.712 -0.0450  0.3880  0.2036
17773SOL    HW154739   6.121   1.324   2.665 -1.4443 -2.0803  1.9761
17773SOL    HW254740   6.185   1.348   2.800  0.8190 -0.2623  0.6437
17774SOL     OW54741   5.944   5.543   6.105  0.2813  0.5214 -0.3418
17774SOL    HW154742   5.858   5.524   6.141  0.3250  0.7861 -0.0942
17774SOL    HW254743   5.973   5.460   6.067  0.2942  0.1921  0.3679
17775SOL     OW54744   3.434   8.360   8.193  0.0928  0.3988  0.1248
17775SOL    HW154745   3.511   8.304   8.192  1.1113  1.6960  1.1773
17775SOL    HW254746   3.383   8.330   8.268  0.9232  1.1688  1.0423
17776SOL     OW54747   3.949   6.348   6.952  0.8755  0.6816 -0.1927
17776SOL    HW154748   4.035   6.310   6.934  0.6791 -0.1566  0.5508
17776SOL    HW254749   3.967   6.432   6.994  1.3317  0.5162 -0.0523
17777SOL     OW54750   7.092   3.007   2.777 -0.5061  0.1893 -0.3687
17777SOL    HW154751   7.095   3.034   2.685 -1.0728  1.2148 -0.0927
17777SOL    HW254752   7.170   3.045   2.816  0.8418 -1.9007 -0.8215
17778SOL     OW54753   2.499   3.340   7.571  0.2625 -0.1550  0.3409
17778SOL    HW154754   2.583   3.314   7.609 -0.3255 -1.4477  0.8311
17778SOL    HW254755   2.510   3.432   7.548  1.2532  0.1604  1.9508
17779SOL     OW54756   4.367   3.045   1.628 -0.5179 -0.0752  0.5779
17779SOL    HW154757   4.368   3.136   1.657 -1.0599  0.4176 -0.8455
17779SOL    HW254758   4.373   3.050   1.533 -0.7793 -1.5185  0.4594
17780SOL     OW54759   0.743   2.300   2.493  0.1567 -0.2481 -0.2411
17780SOL    HW154760   0.689   2.373   2.464  0.8586 -0.2264 -1.5734
17780SOL    HW254761   0.681   2.235   2.527 -0.5216  0.6381  0.2530
17781SOL     OW54762   0.916   3.781   8.295  0.3511 -0.9068  0.1649
17781SOL    HW154763   0.978   3.765   8.366  0.5981  0.5782  0.3142
17781SOL    HW254764   0.956   3.738   8.219  1.2414 -0.5360  0.4074
17782SOL     OW54765   3.050   5.188   4.424  0.2801  0.6312 -0.3378
17782SOL    HW154766   3.027   5.168   4.514 -0.3928  1.0806 -0.4053
17782SOL    HW254767   3.045   5.104   4.378  0.2412  0.4718 -0.0421
17783SOL     OW54768   3.211   0.941   6.258  0.3667  0.0341 -0.0991
17783SOL    HW154769   3.291   0.935   6.310  1.5350  0.6407 -1.7386
17783SOL    HW254770   3.140   0.928   6.321  1.7142  0.2937  1.5397
17784SOL     OW54771   4.065   0.734   4.308 -0.0593  0.3588  0.0404
17784SOL    HW154772   4.085   0.774   4.223 -0.7288  0.3834 -0.1170
17784SOL    HW254773   3.971   0.752   4.320  0.1017  0.6294  0.9304
17785SOL     OW54774   1.660   2.768   0.655  0.0038 -0.5677 -0.0397
17785SOL    HW154775   1.638   2.847   0.606  0.9221  1.0667  2.0278
17785SOL    HW254776   1.620   2.697   0.605 -1.0755  1.2010 -1.8457
17786SOL     OW54777   1.788   0.135   8.188  0.7083 -0.2843  0.8527
17786SOL    HW154778   1.842   0.061   8.217  2.4499  1.3382  1.9222
17786SOL    HW254779   1.849   0.194   8.144 -0.9752 -0.2483 -1.6799
17787SOL     OW54780   7.663   4.965   3.313 -0.2770 -0.4067 -0.2100
17787SOL    HW154781   7.679   5.017   3.391 -1.5078 -1.2553  0.6560
17787SOL    HW254782   7.589   5.009   3.270  1.1866  0.7884 -1.6295
17788SOL     OW54783   1.444   2.596   5.431 -0.0071 -0.1009 -0.0368
17788SOL    HW154784   1.427   2.598   5.525  0.2801 -1.2244  0.0637
17788SOL    HW254785   1.366   2.634   5.391 -1.1931 -1.7782  0.5691
17789SOL     OW54786   2.942   4.931   5.290  0.0569  0.2845  0.4009
17789SOL    HW154787   2.860   4.882   5.287  0.8930 -1.1928  0.8347
17789SOL    HW254788   3.008   4.870   5.257  0.9537  1.5643 -0.2895
17790SOL     OW54789   2.173   8.190   0.596 -0.0954 -0.0811 -0.3268
17790SOL    HW154790   2.169   8.286   0.590  2.9906  0.2158  0.8703
17790SOL    HW254791   2.130   8.170   0.680 -0.9182  0.1888 -0.6665
17791SOL     OW54792   4.465   2.504   1.684 -0.1192 -0.0640 -0.2741
17791SOL    HW154793   4.418   2.584   1.709 -3.2516 -2.1714  1.2267
17791SOL    HW254794   4.444   2.492   1.591 -0.2930  0.4209 -0.3006
17792SOL     OW54795   4.283   4.783   1.543 -0.3727  0.3236  0.2041
17792SOL    HW154796   4.267   4.864   1.493 -0.9824 -0.2387 -0.5364
17792SOL    HW254797   4.272   4.713   1.479 -0.0700 -0.3612  0.8907
17793SOL     OW54798   4.112   1.035   1.225  0.1846  0.1873 -0.2199
17793SOL    HW154799   4.153   1.003   1.145 -0.7278  0.2635 -0.7302
17793SOL    HW254800   4.138   0.972   1.292 -1.6688 -1.7600 -1.2197
17794SOL     OW54801   5.062   2.977   5.689  0.2162  0.0763  0.1697
17794SOL    HW154802   5.036   2.919   5.760  0.9520 -0.2487  0.1817
17794SOL    HW254803   5.014   3.058   5.705 -0.1756 -0.2422  0.6234
17795SOL     OW54804   8.294   1.502   0.995  0.0703  0.3840  0.2529
17795SOL    HW154805   8.277   1.524   0.903  3.1299 -0.0273 -0.5322
17795SOL    HW254806   8.207   1.498   1.035 -1.5254 -0.7736 -2.9224
17796SOL     OW54807   6.870   0.996   3.531 -0.3636  0.0496 -0.0206
17796SOL    HW154808   6.845   1.063   3.595 -1.4695 -1.1932  0.9023
17796SOL    HW254809   6.802   0.999   3.464  0.5469  1.0320 -0.9387
17797SOL     OW54810   3.110   4.588   4.923  0.0397 -0.2109 -0.5272
17797SOL    HW154811   3.034   4.538   4.891 -0.9391 -0.1662  1.5058
17797SOL    HW254812   3.185   4.545   4.883 -0.9491 -1.5887 -1.0128
17798SOL     OW54813   2.858   3.043   5.138 -0.5303 -0.3029 -0.7083
17798SOL    HW154814   2.919   3.058   5.210 -2.8855 -1.6747  1.7587
17798SOL    HW254815   2.783   3.098   5.158 -1.0143 -0.2281 -2.5381
17799SOL     OW54816   6.762   6.629   3.292 -0.7630 -0.1343 -0.5740
17799SOL    HW154817   6.746   6.713   3.335 -0.9935  0.2029 -1.3043
17799SOL    HW254818   6.836   6.591   3.340 -1.2548  0.0566  0.3510
17800SOL     OW54819   0.107   2.889   3.299 -0.0619  0.5558 -0.1778
17800SOL    HW154820   0.129   2.867   3.389 -1.0421 -0.7065 -0.2117
17800SOL    HW254821   0.190   2.885   3.252 -0.0478 -3.2662 -0.1546
17801SOL     OW54822   3.477   2.158   5.753  0.1796 -0.1546 -0.4045
17801SOL    HW154823   3.492   2.197   5.667 -0.4733  0.9416 -0.0424
17801SOL    HW254824   3.562   2.123   5.779  0.6636  0.5892 -0.9746
17802SOL     OW54825   4.766   4.747   0.965  0.1307  0.2537 -0.0643
17802SOL    HW154826   4.697   4.688   0.996  0.1027 -1.2275 -2.6325
17802SOL    HW254827   4.771   4.815   1.032 -2.0351 -0.9608  1.4807
17803SOL     OW54828   0.194   5.600   3.637 -0.2019 -0.5503  0.3973
17803SOL    HW154829   0.246   5.528   3.672  0.0881 -1.2251 -1.3116
17803SOL    HW254830   0.127   5.558   3.584 -0.2259  0.4072 -0.3758
17804SOL     OW54831   0.748   5.872   0.813  0.2006  0.0069 -0.8386
17804SOL    HW154832   0.820   5.931   0.837  1.4266 -0.4436 -3.1090
17804SOL    HW254833   0.689   5.875   0.888  1.9720  1.3483  0.6123
17805SOL     OW54834   4.160   5.638   7.841  0.2022  0.1328  0.5756
17805SOL    HW154835   4.099   5.565   7.859  0.3877  0.0576  0.9163
17805SOL    HW254836   4.104   5.708   7.807  0.0841 -0.3180 -0.1626
17806SOL     OW54837   6.529   0.070   3.340 -0.4884  0.0213  0.1180
17806SOL    HW154838   6.515   0.104   3.429  0.3145  0.3415  0.1252
17806SOL    HW254839   6.523   0.147   3.284 -1.1799 -0.2093 -0.1325
17807SOL     OW54840   3.311   2.437   3.604  0.0717  0.1310 -0.1886
17807SOL    HW154841   3.335   2.428   3.696 -1.0808  1.5038  0.2929
17807SOL    HW254842   3.304   2.347   3.572 -1.6933 -0.4758  1.6949
17808SOL     OW54843   2.370   0.280   6.248  0.7021 -0.9890  0.4462
17808SOL    HW154844   2.397   0.191   6.271  0.1313 -1.7911 -1.6985
17808SOL    HW254845   2.275   0.275   6.243  0.7039 -0.4764 -0.3574
17809SOL     OW54846   1.951   1.593   7.580 -0.2645  0.0899 -0.1067
17809SOL    HW154847   2.035   1.560   7.548 -1.1087 -1.4314 -0.9075
17809SOL    HW254848   1.938   1.675   7.534 -0.0855 -0.6171 -1.4750
17810SOL     OW54849   4.972   0.427   4.207  0.7613 -0.0629 -0.0446
17810SOL    HW154850   4.905   0.364   4.232  0.1874  1.2695  2.0823
17810SOL    HW254851   4.935   0.471   4.130  0.1076 -0.7078 -0.1140
17811SOL     OW54852   7.335   2.438   3.841 -0.8113  0.0601 -0.3616
17811SOL    HW154853   7.282   2.361   3.862  0.3899 -0.8683 -0.6293
17811SOL    HW254854   7.316   2.500   3.912  0.3083 -1.5536  1.4348
17812SOL     OW54855   6.271   8.010   0.597 -0.0851  0.0691  0.2452
17812SOL    HW154856   6.276   7.925   0.640 -0.5599 -1.1923 -2.0379
17812SOL    HW254857   6.229   7.992   0.513  1.9079  2.1562 -1.3175
17813SOL     OW54858   7.229   0.342   6.663 -0.0373 -0.2435  0.8086
17813SOL    HW154859   7.241   0.252   6.692  0.6257 -0.3509  0.2328
17813SOL    HW254860   7.166   0.379   6.724 -0.2758 -1.0819  1.0823
17814SOL     OW54861   2.163   2.829   1.829  0.0763 -0.3038  0.0186
17814SOL    HW154862   2.074   2.853   1.801 -0.2062 -0.7167  0.5502
17814SOL    HW254863   2.189   2.900   1.888 -0.2511 -0.6261  0.5608
17815SOL     OW54864   1.878   6.845   5.719 -0.3737 -0.1753 -0.0031
17815SOL    HW154865   1.801   6.787   5.719 -1.0779  0.7324  0.0599
17815SOL    HW254866   1.860   6.908   5.789  0.5070 -0.0456  0.1110
17816SOL     OW54867   4.669   7.477   6.145 -1.0256 -0.3092  0.3379
17816SOL    HW154868   4.632   7.558   6.109  0.8321  0.9398  1.0757
17816SOL    HW254869   4.625   7.466   6.229 -3.4014 -1.7438 -0.9950
17817SOL     OW54870   2.142   7.741   4.006 -0.0292 -1.3846 -0.1767
17817SOL    HW154871   2.235   7.760   3.993  0.1169 -2.7430 -1.1903
17817SOL    HW254872   2.097   7.802   3.948  0.2006 -0.6347  0.4109
17818SOL     OW54873   2.447   6.985   6.903 -0.5808 -0.8968  0.3094
17818SOL    HW154874   2.361   7.020   6.928 -0.9320 -2.0828  0.8437
17818SOL    HW254875   2.489   6.964   6.986  0.9425  1.1930  0.1476
17819SOL     OW54876   3.957   7.573   5.272  0.5398  0.6586  0.4286
17819SOL    HW154877   3.910   7.585   5.190 -2.0234  0.6601  1.8065
17819SOL    HW254878   4.049   7.583   5.248  0.1988 -2.2781 -2.9552
17820SOL     OW54879   3.175   3.958   6.897 -0.4378 -0.4008 -0.1396
17820SOL    HW154880   3.190   3.868   6.925  3.8074 -0.1680 -0.9119
17820SOL    HW254881   3.164   4.007   6.978 -3.0501 -1.5343  0.2815
17821SOL     OW54882   7.881   4.959   0.035  0.1322  0.2333 -0.2446
17821SOL    HW154883   7.881   4.936   0.128  0.9202  3.3070  0.6219
17821SOL    HW254884   7.796   4.927   0.003  0.4875 -2.2999  1.0514
17822SOL     OW54885   4.233   1.871   2.622 -0.8097 -0.0845  0.4352
17822SOL    HW154886   4.157   1.929   2.613 -0.7649 -0.0469  0.2801
17822SOL    HW254887   4.198   1.791   2.662 -1.3044 -0.7883 -1.2992
17823SOL     OW54888   6.474   1.723   2.140 -0.3598  0.3670 -0.2735
17823SOL    HW154889   6.401   1.712   2.079  0.5654 -1.4519 -1.1397
17823SOL    HW254890   6.546   1.753   2.084 -0.1800  1.1867  0.3944
17824SOL     OW54891   8.097   4.605   3.657 -0.0177  0.0227  0.6284
17824SOL    HW154892   8.062   4.516   3.664  2.1160 -0.9621 -0.3781
17824SOL    HW254893   8.173   4.596   3.600  2.5028  1.7999  3.4361
17825SOL     OW54894   6.892   4.770   0.243 -0.3031  0.1597  0.0436
17825SOL    HW154895   6.898   4.709   0.170  1.3036 -0.9885  1.0622
17825SOL    HW254896   6.958   4.836   0.224  0.6734 -0.5660  0.7784
17826SOL     OW54897   3.527   5.948   4.455 -0.0542  0.1610 -0.0956
17826SOL    HW154898   3.508   5.979   4.543  2.6833  1.2169  0.2305
17826SOL    HW254899   3.452   5.975   4.403 -1.6233 -0.3031  1.8439
17827SOL     OW54900   7.948   3.131   6.928 -0.0891  0.2525  0.0258
17827SOL    HW154901   7.891   3.122   6.852  0.2962  0.6675 -0.3196
17827SOL    HW254902   7.892   3.113   7.003 -0.7990  1.1345 -0.2767
17828SOL     OW54903   0.807   1.809   1.490  0.2548 -0.0109 -0.0419
17828SOL    HW154904   0.736   1.864   1.455 -2.1489 -2.1703  1.1680
17828SOL    HW254905   0.825   1.747   1.420  1.4018  0.8638 -0.5538
17829SOL     OW54906   3.432   1.891   1.866 -0.3465 -0.5677 -0.1987
17829SOL    HW154907   3.508   1.890   1.807 -0.3610 -1.2725 -0.2162
17829SOL    HW254908   3.402   1.800   1.867 -2.1663 -0.0476 -1.4641
17830SOL     OW54909   1.551   8.085   7.577 -0.4720 -0.6458  0.5924
17830SOL    HW154910   1.639   8.106   7.548 -0.3350  1.5764  2.2492
17830SOL    HW254911   1.496   8.095   7.499  0.4911 -0.0363 -0.0182
17831SOL     OW54912   7.235   0.384   5.236 -0.5016  0.7489  0.0105
17831SOL    HW154913   7.158   0.335   5.208 -0.7445  1.1929 -0.1132
17831SOL    HW254914   7.237   0.373   5.331 -2.2753  2.8982  0.3804
17832SOL     OW54915   2.156   4.554   4.491 -0.3712  0.2678 -0.1505
17832SOL    HW154916   2.089   4.518   4.433 -1.5383  0.0702  1.2642
17832SOL    HW254917   2.149   4.502   4.571  0.8433  0.8748  0.3796
17833SOL     OW54918   2.509   3.761   0.080  0.1115  0.3854 -0.1099
17833SOL    HW154919   2.571   3.832   0.099 -1.1680  1.7096 -0.6042
17833SOL    HW254920   2.435   3.806   0.039 -0.8328 -1.2406 -0.2452
17834SOL     OW54921   3.279   7.867   8.288 -0.5298  0.1951  0.3586
17834SOL    HW154922   3.318   7.847   8.203 -1.4749 -1.7179  0.3103
17834SOL    HW254923   3.185   7.875   8.270 -0.7944 -0.6546  1.2566
17835SOL     OW54924   1.893   2.944   2.393 -0.1786 -0.2758  0.1165
17835SOL    HW154925   1.910   2.874   2.456 -0.8331 -0.1075  0.4952
17835SOL    HW254926   1.867   3.019   2.447 -0.0508  0.0817 -0.3165
17836SOL     OW54927   0.803   3.242   3.715 -0.1778 -0.0676 -0.1241
17836SOL    HW154928   0.838   3.244   3.804 -0.4079 -0.2264 -0.0312
17836SOL    HW254929   0.785   3.334   3.695 -0.9462 -0.1118  0.3194
17837SOL     OW54930   1.792   7.014   2.375  0.1511  0.2322 -0.1769
17837SOL    HW154931   1.700   7.009   2.349 -0.1178  0.8217  0.6153
17837SOL    HW254932   1.792   6.992   2.468  1.0498 -1.4990 -0.5446
17838SOL     OW54933   1.965   0.338   0.140 -0.5307 -0.9525  0.5215
17838SOL    HW154934   1.895   0.273   0.138 -1.2858 -0.2751  2.5634
17838SOL    HW254935   1.921   0.422   0.132  0.2317 -0.5832  0.0739
17839SOL     OW54936   5.138   4.101   5.968  0.2725 -0.0265  0.1593
17839SOL    HW154937   5.205   4.048   6.010 -0.8877 -1.6327  0.0951
17839SOL    HW254938   5.146   4.080   5.875  1.7644  2.2692 -0.3095
17840SOL     OW54939   6.650   2.304   1.589  0.9578 -0.1506 -0.6989
17840SOL    HW154940   6.652   2.330   1.497 -1.3806 -0.3553 -0.8547
17840SOL    HW254941   6.590   2.229   1.591  1.1975 -0.3238  0.9654
17841SOL     OW54942   5.260   0.958   7.652  0.3378  0.4696  0.1374
17841SOL    HW154943   5.185   0.949   7.594  0.4910 -0.0924  0.0206
17841SOL    HW254944   5.262   0.876   7.702  0.7135  0.5918  0.3305
17842SOL     OW54945   8.274   7.645   7.506  0.0012  0.2091  0.6957
17842SOL    HW154946   8.340   7.703   7.469 -1.2667  1.2447 -0.0536
17842SOL    HW254947   8.286   7.650   7.600 -0.4873  2.2423  0.6883
17843SOL     OW54948   5.474   0.054   8.176 -0.5654 -0.0186  0.0810
17843SOL    HW154949   5.516   0.021   8.097 -0.2642 -0.0571  0.2527
17843SOL    HW254950   5.547   0.076   8.234 -0.7850 -0.4342  0.5274
17844SOL     OW54951   1.495   5.396   4.877  0.5546 -0.0369 -0.4612
17844SOL    HW154952   1.442   5.451   4.933 -0.7276 -1.3866 -0.2866
17844SOL    HW254953   1.436   5.367   4.807  1.6958  0.3265 -1.6221
17845SOL     OW54954   1.053   2.193   3.441  0.7966  0.2394 -0.0340
17845SOL    HW154955   1.011   2.258   3.385  0.2513 -1.6438 -1.9295
17845SOL    HW254956   1.137   2.232   3.465  0.3702  1.7403 -0.8955
17846SOL     OW54957   7.690   0.384   5.862 -0.3681 -0.1363  0.4955
17846SOL    HW154958   7.627   0.400   5.933 -0.5466 -0.5251  0.4250
17846SOL    HW254959   7.642   0.404   5.782  0.3982  2.1999  0.5358
17847SOL     OW54960   4.314   4.406   3.869  0.9101 -0.4567 -0.0753
17847SOL    HW154961   4.277   4.319   3.888  0.3426 -0.1402  0.3095
17847SOL    HW254962   4.401   4.388   3.834  0.6352 -1.2018 -0.4001
17848SOL     OW54963   3.399   1.987   5.065  0.1863 -0.1471 -0.1367
17848SOL    HW154964   3.458   2.027   5.001 -1.1782  2.1579 -0.0881
17848SOL    HW254965   3.420   2.031   5.147  1.1488 -2.2723  0.8344
17849SOL     OW54966   7.546   2.420   1.150  0.6793 -0.2540 -0.1091
17849SOL    HW154967   7.600   2.492   1.183 -0.4688  1.2159 -1.2897
17849SOL    HW254968   7.585   2.396   1.066  0.4283 -0.2658 -0.2250
17850SOL     OW54969   6.607   0.561   3.485 -0.2990  0.1359 -0.2254
17850SOL    HW154970   6.702   0.547   3.485 -0.5293 -1.7233 -0.6165
17850SOL    HW254971   6.585   0.578   3.576  0.1495 -1.8853  0.3260
17851SOL     OW54972   8.259   0.333   7.998 -0.0836 -0.2379 -0.4101
17851SOL    HW154973   8.274   0.371   8.084  0.0214  0.9704 -0.9309
17851SOL    HW254974   8.330   0.368   7.944 -0.7879 -0.0609 -1.2514
17852SOL     OW54975   4.045   5.513   7.041 -0.1177  0.5115 -0.8205
17852SOL    HW154976   4.041   5.470   6.956  2.7146  0.1238 -0.8372
17852SOL    HW254977   3.956   5.505   7.076 -1.2416  0.3015 -3.5167
17853SOL     OW54978   0.335   0.599   5.827  0.5069 -0.2944 -0.1538
17853SOL    HW154979   0.370   0.580   5.740  0.3705 -0.0674 -0.2618
17853SOL    HW254980   0.344   0.694   5.836 -0.7225 -0.1242 -0.4795
17854SOL     OW54981   5.282   1.599   8.084  0.6384 -0.3103 -0.1731
17854SOL    HW154982   5.325   1.565   8.006  1.6394 -1.6946  0.9259
17854SOL    HW254983   5.332   1.678   8.106 -1.0867  1.4573 -2.1808
17855SOL     OW54984   8.199   0.037   6.334  0.1572  0.0892 -0.0543
17855SOL    HW154985   8.218   0.125   6.298  0.6068 -0.1359 -0.3829
17855SOL    HW254986   8.103   0.031   6.333  0.0851  0.9064  0.7841
17856SOL     OW54987   4.618   2.116   4.381  0.7318 -0.0539 -0.1529
17856SOL    HW154988   4.694   2.161   4.345  0.4823  0.8341  0.3779
17856SOL    HW254989   4.654   2.052   4.443  1.0449  0.8533  0.6396
17857SOL     OW54990   5.059   1.783   7.620  0.0666  0.1953 -0.0123
17857SOL    HW154991   5.138   1.833   7.600  0.6784 -0.4447  0.7321
17857SOL    HW254992   5.087   1.692   7.617 -0.6201 -0.0385  0.3837
17858SOL     OW54993   7.054   4.785   2.653 -0.3976 -0.3496 -0.5756
17858SOL    HW154994   7.137   4.798   2.700 -0.6499  1.8638 -0.6068
17858SOL    HW254995   6.993   4.754   2.721  0.2348 -1.1636 -0.3664
17859SOL     OW54996   2.992   3.834   4.017 -0.4976 -0.2655  0.6736
17859SOL    HW154997   2.913   3.878   3.986  0.1161 -0.0549 -0.6485
17859SOL    HW254998   3.064   3.884   3.979  0.2712 -0.8277  1.3429
17860SOL     OW54999   3.365   2.759   5.509 -0.6324 -0.0119 -0.2020
17860SOL    HW155000   3.397   2.670   5.494 -0.5622 -0.0521  0.1875
17860SOL    HW255001   3.439   2.815   5.484  0.1146 -0.1284  1.5756
17861SOL     OW55002   7.618   7.059   2.273  0.2882 -0.6692 -0.0320
17861SOL    HW155003   7.632   7.134   2.331  1.4576 -0.1106 -0.9937
17861SOL    HW255004   7.617   6.983   2.331 -0.6594  0.0406  0.9347
17862SOL     OW55005   2.623   7.564   2.562  0.4566  0.2930 -0.3613
17862SOL    HW155006   2.608   7.475   2.596  0.4511  0.8419  1.1326
17862SOL    HW255007   2.535   7.596   2.541  0.2895  0.5045  0.6049
17863SOL     OW55008   2.607   4.347   2.776 -0.2071  0.1305 -0.2764
17863SOL    HW155009   2.696   4.322   2.803 -0.3904 -0.1680  0.0574
17863SOL    HW255010   2.620   4.394   2.694  0.3358  0.7973  0.1696
17864SOL     OW55011   4.138   0.364   1.212 -0.6293 -0.2190  0.2898
17864SOL    HW155012   4.094   0.318   1.283 -0.8303 -1.2165 -0.4617
17864SOL    HW255013   4.068   0.411   1.167 -0.5639  0.0615  0.4732
17865SOL     OW55014   0.122   5.631   8.086  0.0991 -0.2876 -0.2325
17865SOL    HW155015   0.093   5.541   8.104  0.7845 -0.3344  0.7300
17865SOL    HW255016   0.085   5.683   8.157  2.4283 -0.3861  1.1672
17866SOL     OW55017   1.910   4.150   0.508 -0.3801 -0.5199 -0.4523
17866SOL    HW155018   1.815   4.163   0.509 -0.5727 -1.7910  0.1551
17866SOL    HW255019   1.922   4.062   0.543  0.9331 -0.9640 -1.9226
17867SOL     OW55020   5.943   1.381   2.532 -0.4953  0.9850 -0.0968
17867SOL    HW155021   5.941   1.470   2.497  0.0881  0.8716 -0.4187
17867SOL    HW255022   5.880   1.383   2.604  1.1777  2.3006  1.4219
17868SOL     OW55023   5.732   1.625   6.002  0.4580 -0.7305  0.4564
17868SOL    HW155024   5.644   1.659   6.018  0.8709 -0.1069  1.5439
17868SOL    HW255025   5.772   1.690   5.944 -0.4795 -2.1260 -1.8889
17869SOL     OW55026   0.690   2.438   4.239  0.5881  0.6043 -0.3727
17869SOL    HW155027   0.624   2.370   4.255 -0.3426  1.2366 -1.3991
17869SOL    HW255028   0.640   2.519   4.234  1.6502  1.3320  0.4782
17870SOL     OW55029   5.263   5.004   7.776 -0.1030  0.1598 -0.2755
17870SOL    HW155030   5.228   5.091   7.759 -3.1154 -0.3581  2.2762
17870SOL    HW255031   5.349   5.019   7.814 -1.5135  2.3269  2.4455
17871SOL     OW55032   5.554   6.843   0.421  0.1955  0.1522 -0.2198
17871SOL    HW155033   5.558   6.748   0.416  2.2378  0.1880  0.1566
17871SOL    HW255034   5.624   6.868   0.481  0.2433  1.9412 -0.9332
17872SOL     OW55035   5.288   3.727   4.826 -0.1442  0.1922  0.0460
17872SOL    HW155036   5.230   3.754   4.755  0.1743 -0.0402 -0.3035
17872SOL    HW255037   5.265   3.636   4.842 -0.9886  0.5495  1.0026
17873SOL     OW55038   0.284   2.872   3.062 -0.7916  0.0373  0.7124
17873SOL    HW155039   0.341   2.822   3.004 -0.1753  1.7254 -0.2098
17873SOL    HW255040   0.195   2.849   3.033 -0.5133 -0.3508  0.1499
17874SOL     OW55041   7.880   1.754   1.650 -0.2233 -0.6013  0.1902
17874SOL    HW155042   7.934   1.779   1.575 -0.0299 -0.0409  0.5148
17874SOL    HW255043   7.814   1.822   1.657 -0.1898 -0.6062  0.5832
17875SOL     OW55044   4.378   5.925   8.016  0.1077 -0.0819  0.6828
17875SOL    HW155045   4.322   5.981   8.070  0.1000  2.1577 -1.4962
17875SOL    HW255046   4.467   5.942   8.047  0.1387  1.4739 -0.1714
17876SOL     OW55047   8.133   4.268   0.254 -0.3293 -0.7107  0.0358
17876SOL    HW155048   8.161   4.354   0.223 -1.9342 -0.3964 -0.6242
17876SOL    HW255049   8.055   4.285   0.306  0.3082 -1.6137  1.3430
17877SOL     OW55050   0.030   7.466   5.825 -0.0405 -0.3051 -0.1895
17877SOL    HW155051   0.125   7.478   5.818 -0.0160 -0.6729 -0.5403
17877SOL    HW255052   0.016   7.439   5.915  0.1142  0.3800  0.0517
17878SOL     OW55053   3.137   7.194   0.645  0.1176 -0.0942 -0.0066
17878SOL    HW155054   3.144   7.163   0.736  0.8592 -1.2517 -0.4307
17878SOL    HW255055   3.083   7.128   0.602 -1.5576  1.2561 -0.0946
17879SOL     OW55056   2.640   6.365   5.569  0.1605 -0.3537  0.0286
17879SOL    HW155057   2.588   6.444   5.577  0.2670  0.0051 -2.1010
17879SOL    HW255058   2.730   6.392   5.588 -0.1627 -0.6331  2.1433
17880SOL     OW55059   3.510   7.412   2.702  0.2084 -0.6195  0.3194
17880SOL    HW155060   3.427   7.365   2.707 -0.2191 -0.0500 -0.9813
17880SOL    HW255061   3.489   7.493   2.656  1.5286 -0.5885 -0.2837
17881SOL     OW55062   6.899   1.253   3.653 -0.2341 -0.6948  0.6255
17881SOL    HW155063   6.813   1.278   3.686  0.0195  0.2456  0.5832
17881SOL    HW255064   6.954   1.246   3.731  0.0518  0.2979  0.5199
17882SOL     OW55065   5.457   1.453   4.791 -0.2226 -0.4943 -0.3389
17882SOL    HW155066   5.497   1.369   4.769 -0.0410 -0.6748  0.6348
17882SOL    HW255067   5.369   1.448   4.755 -0.0030 -0.8600 -0.8266
17883SOL     OW55068   6.321   1.674   1.914 -0.3730 -0.0577  0.7291
17883SOL    HW155069   6.243   1.730   1.909 -0.0371  0.3129 -0.6981
17883SOL    HW255070   6.293   1.591   1.875 -0.0561  0.0871  0.1840
17884SOL     OW55071   1.792   4.382   0.113  0.0630  0.4116  0.3297
17884SOL    HW155072   1.721   4.401   0.052 -1.1839  0.3919  1.7110
17884SOL    HW255073   1.803   4.463   0.162  0.8777  0.3524  0.2514
17885SOL     OW55074   1.193   6.880   4.643  0.2397  0.8683 -0.0425
17885SOL    HW155075   1.104   6.882   4.608  0.2854  2.3435 -0.1082
17885SOL    HW255076   1.182   6.872   4.737  0.0757 -0.0269 -0.1233
17886SOL     OW55077   5.929   4.487   8.093  0.3606 -0.7774 -0.4491
17886SOL    HW155078   5.978   4.469   8.013  0.5057 -0.5909 -0.4031
17886SOL    HW255079   5.938   4.582   8.107  3.0275 -1.2147  1.5343
17887SOL     OW55080   1.331   0.647   3.520 -0.4794 -0.0492  0.4883
17887SOL    HW155081   1.416   0.611   3.544 -0.1071  0.4907  0.0120
17887SOL    HW255082   1.310   0.707   3.592 -1.2218 -1.3758  1.4100
17888SOL     OW55083   3.711   0.527   8.038  0.0227 -0.2597 -0.0654
17888SOL    HW155084   3.655   0.546   8.114  1.0432 -2.6830  1.4417
17888SOL    HW255085   3.800   0.537   8.072  0.5171  0.3057 -1.4809
17889SOL     OW55086   3.235   4.094   6.096  0.5278  0.4916 -0.2472
17889SOL    HW155087   3.240   4.000   6.115 -0.8859  0.2524 -0.8882
17889SOL    HW255088   3.322   4.117   6.063  0.6242 -0.8184 -0.9700
17890SOL     OW55089   3.533   5.956   6.378 -0.2067 -0.2995 -0.1959
17890SOL    HW155090   3.599   5.889   6.358 -0.2477 -0.6770  0.8610
17890SOL    HW255091   3.584   6.036   6.393 -0.2123  0.2038 -2.4066
17891SOL     OW55092   3.421   7.192   8.038 -0.4316  0.4319 -0.2351
17891SOL    HW155093   3.451   7.169   8.126  0.0656  1.0412 -0.2419
17891SOL    HW255094   3.380   7.112   8.005  0.8593 -0.3090 -0.0915
17892SOL     OW55095   0.729   4.344   6.495 -0.7672  0.4065  0.1033
17892SOL    HW155096   0.682   4.306   6.420 -1.3431  2.5820 -0.7181
17892SOL    HW255097   0.801   4.283   6.511 -3.1215 -2.4611  0.6776
17893SOL     OW55098   0.461   5.575   3.418 -0.5235 -0.1448  0.2480
17893SOL    HW155099   0.465   5.661   3.459 -1.5699 -0.5554  1.2523
17893SOL    HW255100   0.396   5.527   3.469 -0.5820 -1.2528 -0.8296
17894SOL     OW55101   0.856   6.405   4.030 -0.6126 -0.5911  0.2698
17894SOL    HW155102   0.918   6.464   4.072 -1.8340  1.3107 -0.4900
17894SOL    HW255103   0.906   6.363   3.960 -0.0327  0.4850  0.0293
17895SOL     OW55104   2.892   5.789   0.520 -0.4641 -0.3237  0.1999
17895SOL    HW155105   2.812   5.834   0.547 -1.1529 -1.1193 -0.4735
17895SOL    HW255106   2.875   5.759   0.431  0.3907 -0.9395  0.2260
17896SOL     OW55107   1.071   1.860   1.887  0.0527 -0.4115  0.3377
17896SOL    HW155108   1.107   1.938   1.844  0.2548 -0.5153  0.3159
17896SOL    HW255109   1.134   1.841   1.957  0.4144 -1.0188 -0.1496
17897SOL     OW55110   4.920   1.629   0.459  0.0783 -0.5782 -0.3924
17897SOL    HW155111   4.986   1.634   0.528 -0.3785 -1.7882  0.1681
17897SOL    HW255112   4.884   1.541   0.468 -1.0210 -0.2264 -1.2334
17898SOL     OW55113   7.339   0.639   1.532 -0.2113 -0.1446  0.3500
17898SOL    HW155114   7.293   0.630   1.448 -0.9150  0.2062  0.6939
17898SOL    HW255115   7.270   0.648   1.596  0.3485  0.6434  0.8571
17899SOL     OW55116   5.856   6.125   7.311 -0.0705 -0.5281 -0.0192
17899SOL    HW155117   5.834   6.202   7.257  1.2557 -0.3336 -0.3004
17899SOL    HW255118   5.803   6.136   7.390  0.9049  1.2886  0.4525
17900SOL     OW55119   2.180   4.669   0.145 -0.3265  0.5483 -0.3508
17900SOL    HW155120   2.112   4.688   0.210  1.0279  0.4069  1.2047
17900SOL    HW255121   2.148   4.594   0.096 -0.9940  0.0333  0.8356
17901SOL     OW55122   4.396   4.123   3.871 -0.2274 -0.4508 -0.1144
17901SOL    HW155123   4.453   4.047   3.887  0.0445 -0.0551  0.8589
17901SOL    HW255124   4.449   4.182   3.818  0.5464  0.2033  1.3256
17902SOL     OW55125   1.307   6.398   1.586 -0.0308 -0.3646  0.4856
17902SOL    HW155126   1.262   6.480   1.603 -1.8991 -1.1179 -0.5538
17902SOL    HW255127   1.304   6.387   1.491  4.0460  0.4028  0.0609
17903SOL     OW55128   4.545   1.375   6.955  0.1468 -0.3235  0.2786
17903SOL    HW155129   4.632   1.362   6.991  0.9405  1.5918 -0.8048
17903SOL    HW255130   4.515   1.458   6.993  0.7415  1.4332 -2.6953
17904SOL     OW55131   2.264   1.928   3.567  0.4910 -0.1997  0.5496
17904SOL    HW155132   2.169   1.939   3.568  0.6210  1.4974 -0.8148
17904SOL    HW255133   2.295   1.974   3.645  0.2738  0.1841  0.4086
17905SOL     OW55134   7.567   7.668   6.650 -0.9334 -0.0785 -0.0114
17905SOL    HW155135   7.627   7.739   6.672 -2.2096  1.3453 -0.9120
17905SOL    HW255136   7.484   7.694   6.692 -0.8748 -2.1650  1.5162
17906SOL     OW55137   7.160   5.041   7.135 -0.1581 -0.4053  0.4058
17906SOL    HW155138   7.217   5.038   7.212  1.4279 -2.1073 -0.7498
17906SOL    HW255139   7.141   5.134   7.123 -1.4431 -0.1562  3.4861
17907SOL     OW55140   0.052   5.865   4.768 -0.4757  0.2050 -0.4838
17907SOL    HW155141  -0.034   5.825   4.773 -0.6242  0.5799  0.0404
17907SOL    HW255142   0.049   5.937   4.831  0.1797  0.2979 -0.5482
17908SOL     OW55143   5.183   8.256   1.760  0.1864  0.3028 -0.0951
17908SOL    HW155144   5.105   8.216   1.720 -0.0197  1.9738 -1.5193
17908SOL    HW255145   5.257   8.211   1.718 -0.0032 -0.3745  0.2775
17909SOL     OW55146   0.951   6.442   5.286  0.1477  0.2600 -0.2120
17909SOL    HW155147   1.041   6.474   5.291 -0.0876  0.8744  0.1746
17909SOL    HW255148   0.897   6.519   5.302 -0.4536 -0.0630 -0.6678
17910SOL     OW55149   3.583   1.109   4.053  0.0116  0.2000 -0.1655
17910SOL    HW155150   3.551   1.198   4.036  0.5851  0.3292 -0.6357
17910SOL    HW255151   3.635   1.088   3.975  0.6536 -0.1772  0.3548
17911SOL     OW55152   0.796   4.128   1.353 -0.7914  0.6631 -0.0327
17911SOL    HW155153   0.829   4.184   1.282  0.9731 -1.2410 -0.8097
17911SOL    HW255154   0.724   4.079   1.314 -0.0689 -0.1039 -0.4395
17912SOL     OW55155   4.850   4.938   6.401 -0.1420 -0.1815 -0.1265
17912SOL    HW155156   4.898   4.916   6.321 -0.4043 -1.1671 -0.0254
17912SOL    HW255157   4.912   4.921   6.471 -0.2994 -0.4535 -0.0540
17913SOL     OW55158   2.165   1.968   7.334  0.0901 -0.1385 -0.6593
17913SOL    HW155159   2.148   2.008   7.248  1.6535 -1.7486 -1.7796
17913SOL    HW255160   2.079   1.967   7.377 -0.2982  2.9698 -1.1366
17914SOL     OW55161   5.730   6.032   0.453  0.2256 -0.0825 -0.4924
17914SOL    HW155162   5.701   5.976   0.525  0.3767 -0.6197 -0.8407
17914SOL    HW255163   5.717   5.979   0.374  2.8147 -0.6748 -0.6181
17915SOL     OW55164   2.209   2.941   7.302 -0.0489  0.3511  0.3891
17915SOL    HW155165   2.266   2.950   7.379 -1.3012  0.6809  1.3016
17915SOL    HW255166   2.256   2.986   7.232  0.6917  0.8629  1.1947
17916SOL     OW55167   6.892   5.327   8.237  0.3943 -0.0631  0.2498
17916SOL    HW155168   6.886   5.410   8.190 -0.7236  0.3710  1.1194
17916SOL    HW255169   6.986   5.311   8.246  0.6442  1.4624  0.6930
17917SOL     OW55170   3.042   3.580   5.590 -0.2305  0.2887 -0.5528
17917SOL    HW155171   2.989   3.503   5.611 -0.9097  0.8275 -0.2634
17917SOL    HW255172   3.126   3.564   5.634 -0.2633 -0.4124 -0.7339
17918SOL     OW55173   5.061   1.245   5.299 -0.6513  0.6150  0.0533
17918SOL    HW155174   5.154   1.269   5.304  0.2876 -2.5630  0.3820
17918SOL    HW255175   5.043   1.241   5.205 -0.4623  1.1954 -0.0150
17919SOL     OW55176   8.362   3.032   2.999  0.2410  0.3854 -0.7163
17919SOL    HW155177   8.385   2.992   2.916  1.5542 -1.9999  0.6779
17919SOL    HW255178   8.331   2.959   3.053 -1.5047  1.9971  0.6151
17920SOL     OW55179   3.564   1.674   1.491  1.1232 -0.5421  0.0463
17920SOL    HW155180   3.557   1.746   1.429  2.2578  0.0229  0.5474
17920SOL    HW255181   3.473   1.653   1.514  0.7834  0.7870 -0.0320
17921SOL     OW55182   7.049   3.181   6.695 -0.0642  0.1466  0.0934
17921SOL    HW155183   7.057   3.128   6.616 -1.4063  2.1684 -1.5191
17921SOL    HW255184   7.139   3.192   6.726  0.4309 -1.1991 -0.7848
17922SOL     OW55185   3.961   0.292   2.891  0.1773 -0.0741  0.5861
17922SOL    HW155186   3.948   0.302   2.797  0.9880  0.5006  0.5268
17922SOL    HW255187   4.045   0.333   2.909  0.8131 -1.5869  1.3061
17923SOL     OW55188   2.434   7.439   5.837 -0.2206 -0.1267 -0.2001
17923SOL    HW155189   2.452   7.465   5.746  0.8881  1.0844  0.3351
17923SOL    HW255190   2.518   7.408   5.870  0.3859  2.9080  1.4828
17924SOL     OW55191   5.994   1.031   5.575  0.2014 -0.1458  0.2759
17924SOL    HW155192   6.088   1.039   5.585  0.3578 -2.2438  1.0367
17924SOL    HW255193   5.982   0.976   5.498 -0.3305 -0.9365  0.9025
17925SOL     OW55194   7.862   1.205   3.413 -0.1903 -0.0386  0.5610
17925SOL    HW155195   7.868   1.138   3.345  0.4132  0.1293  0.4389
17925SOL    HW255196   7.825   1.160   3.489 -0.0781 -0.4332  0.3799
17926SOL     OW55197   1.866   7.209   7.060 -0.7914  0.1149  0.1061
17926SOL    HW155198   1.783   7.202   7.109 -0.9554  0.9499 -0.0288
17926SOL    HW255199   1.840   7.205   6.968 -0.8427  1.6026  0.0289
17927SOL     OW55200   0.872   1.393   3.685  0.8935  0.1595  0.0256
17927SOL    HW155201   0.936   1.351   3.743  1.6195 -0.8240 -1.4212
17927SOL    HW255202   0.921   1.463   3.643  0.0434  1.6621  1.4304
17928SOL     OW55203   8.122   3.674   7.893  0.1638  0.5972 -0.0106
17928SOL    HW155204   8.162   3.755   7.922 -1.1271  2.0647 -2.0287
17928SOL    HW255205   8.030   3.682   7.918 -0.1630  0.1795 -1.0230
17929SOL     OW55206   0.070   0.955   2.367  0.1406 -0.3744 -0.2666
17929SOL    HW155207   0.006   0.976   2.299 -1.2068 -2.7337  0.1495
17929SOL    HW255208   0.017   0.932   2.443  1.4206 -2.8291 -0.0292
17930SOL     OW55209   5.080   1.949   2.519  0.4762 -0.5160 -0.1136
17930SOL    HW155210   5.011   1.912   2.574  0.8447  2.0673  2.3702
17930SOL    HW255211   5.161   1.918   2.559  0.7505  0.0707 -0.1999
17931SOL     OW55212   7.449   5.697   2.548 -0.7336 -0.4137  0.5656
17931SOL    HW155213   7.379   5.640   2.580 -0.7883 -0.6772 -0.0189
17931SOL    HW255214   7.493   5.727   2.628 -1.2236 -0.6101  0.9164
17932SOL     OW55215   0.659   6.655   1.805 -0.0379  1.5089 -0.0162
17932SOL    HW155216   0.573   6.689   1.781 -0.1696  0.8644 -0.4463
17932SOL    HW255217   0.706   6.732   1.837 -0.3702  2.0854 -0.8953
17933SOL     OW55218   1.941   5.124   5.738  0.4361 -0.1520  0.6665
17933SOL    HW155219   1.969   5.200   5.686  0.4685 -0.2418  0.5510
17933SOL    HW255220   1.920   5.160   5.824 -1.0844  0.2478  0.1564
17934SOL     OW55221   1.006   3.394   4.585  0.5200  1.1554 -0.0922
17934SOL    HW155222   1.029   3.344   4.507  0.9079  1.6618 -0.3051
17934SOL    HW255223   1.080   3.382   4.644 -1.7634 -3.4961  2.4260
17935SOL     OW55224   0.589   1.330   1.460  0.4572 -0.1549 -0.1825
17935SOL    HW155225   0.536   1.252   1.477  2.3173 -1.2583  1.0375
17935SOL    HW255226   0.572   1.387   1.535  2.8342 -1.6686  1.6796
17936SOL     OW55227   7.878   0.946   7.319 -0.3655  0.0841 -0.5408
17936SOL    HW155228   7.897   0.860   7.359  0.7733 -0.0410 -1.2962
17936SOL    HW255229   7.892   0.932   7.226  0.1856  1.1869 -0.6353
17937SOL     OW55230   1.305   8.043   4.029  0.9951 -0.4978  0.2454
17937SOL    HW155231   1.347   8.061   3.944  0.8563  0.4174  0.3591
17937SOL    HW255232   1.375   8.005   4.082  0.5324 -3.2159 -0.9510
17938SOL     OW55233   4.663   0.006   4.292 -0.7249 -0.2762 -0.3620
17938SOL    HW155234   4.720   0.083   4.285 -3.2935  1.7891 -0.0462
17938SOL    HW255235   4.678  -0.043   4.211  1.2015  0.3407 -0.4243
17939SOL     OW55236   0.218   5.023   1.163  0.2009  0.3465  0.2903
17939SOL    HW155237   0.295   4.968   1.176  0.4065  0.8199  1.1466
17939SOL    HW255238   0.249   5.112   1.178  0.0049  0.7768 -1.6420
17940SOL     OW55239   6.798   0.693   2.504 -0.2785  0.3829  0.0674
17940SOL    HW155240   6.771   0.605   2.530 -1.7956  0.6738 -0.3780
17940SOL    HW255241   6.804   0.690   2.408 -1.1966  0.9435 -0.0319
17941SOL     OW55242   2.069   3.142   1.332  0.5931  0.1609 -0.0349
17941SOL    HW155243   2.089   3.120   1.423 -3.5731  0.2112  1.1128
17941SOL    HW255244   2.017   3.068   1.300  0.2275  1.0671 -1.6842
17942SOL     OW55245   0.946   2.847   0.148  0.1163 -0.0956  0.4282
17942SOL    HW155246   0.928   2.767   0.197 -0.9799 -0.0536  0.1141
17942SOL    HW255247   0.959   2.818   0.058  1.6562 -0.1200  0.6346
17943SOL     OW55248   4.714   7.749   7.672 -0.1592 -0.9482 -0.3095
17943SOL    HW155249   4.684   7.745   7.581 -1.6721 -0.0176  0.0958
17943SOL    HW255250   4.708   7.659   7.703  1.5206 -1.4889 -1.4418
17944SOL     OW55251   1.246   6.577   5.637 -0.3409 -0.0637  0.1196
17944SOL    HW155252   1.173   6.624   5.675 -1.0215 -0.6802 -0.4017
17944SOL    HW255253   1.239   6.594   5.543  0.0290 -0.3357  0.0390
17945SOL     OW55254   2.868   4.308   3.445  0.3987  0.0477 -0.2965
17945SOL    HW155255   2.909   4.379   3.493 -0.1012  0.2948 -0.2294
17945SOL    HW255256   2.925   4.232   3.460 -0.3222 -0.1645  1.5827
17946SOL     OW55257   1.827   3.154   3.254 -0.0444 -0.0270 -0.0346
17946SOL    HW155258   1.883   3.137   3.330 -0.7564 -0.8556  0.3271
17946SOL    HW255259   1.754   3.205   3.290 -0.4477 -0.5323 -0.1284
17947SOL     OW55260   4.497   4.503   2.515 -0.4341 -0.0608 -0.5487
17947SOL    HW155261   4.582   4.541   2.538 -0.1652 -0.0724 -1.4933
17947SOL    HW255262   4.463   4.470   2.598  0.8070 -0.7032 -0.2720
17948SOL     OW55263   6.607   1.206   3.833 -0.1354  0.5335 -0.4564
17948SOL    HW155264   6.556   1.210   3.914 -0.6593 -1.7859 -0.6064
17948SOL    HW255265   6.581   1.123   3.793 -0.2475  1.8298 -3.2579
17949SOL     OW55266   3.402   5.001   3.678 -0.6698 -0.3135 -0.4354
17949SOL    HW155267   3.383   4.909   3.664  1.0205 -0.8865  0.7204
17949SOL    HW255268   3.364   5.021   3.764 -0.1946 -0.2197 -0.2410
17950SOL     OW55269   1.089   1.715   0.800  0.1945 -0.1267  0.1141
17950SOL    HW155270   1.009   1.685   0.756  1.0053 -1.5429 -0.4888
17950SOL    HW255271   1.160   1.682   0.744  1.2120  2.5769 -0.3081
17951SOL     OW55272   7.213   5.599   6.105  0.1027 -0.0652  0.1074
17951SOL    HW155273   7.271   5.647   6.046 -1.5499  0.1920 -1.3754
17951SOL    HW255274   7.255   5.514   6.115  0.9500  0.2495 -0.5849
17952SOL     OW55275   1.446   4.877   5.028 -0.5023  0.6798 -0.3921
17952SOL    HW155276   1.371   4.911   4.979 -0.5462  0.9753 -0.1273
17952SOL    HW255277   1.508   4.949   5.030 -0.1128  0.3607 -0.7981
17953SOL     OW55278   2.486   7.544   6.657 -0.1497 -0.3937 -0.5075
17953SOL    HW155279   2.461   7.598   6.732 -1.5198  0.0480 -1.2391
17953SOL    HW255280   2.494   7.606   6.584 -1.0005 -1.0656 -1.1974
17954SOL     OW55281   4.384   0.222   1.207 -0.0355  0.1735 -0.2669
17954SOL    HW155282   4.290   0.241   1.204 -0.0674  0.0801  0.0834
17954SOL    HW255283   4.426   0.307   1.195 -0.1704  0.3269  0.3093
17955SOL     OW55284   5.844   0.484   3.605 -0.5996  0.3521  0.4581
17955SOL    HW155285   5.845   0.390   3.623 -1.3914  0.5505  1.6221
17955SOL    HW255286   5.913   0.496   3.540  0.5235 -0.8361  1.3608
17956SOL     OW55287   0.787   7.550   1.007  0.2022 -0.4000 -0.4000
17956SOL    HW155288   0.842   7.598   1.069 -0.5496 -0.1493  0.0859
17956SOL    HW255289   0.794   7.459   1.035  0.2213 -0.3440 -0.2212
17957SOL     OW55290   3.301   3.554   3.372  0.9201 -0.1485 -0.3830
17957SOL    HW155291   3.206   3.562   3.375  1.0288  1.1711  0.0853
17957SOL    HW255292   3.330   3.570   3.461  1.5166 -1.9206 -0.2263
17958SOL     OW55293   5.805   4.661   1.107  0.0105 -0.1325 -0.2448
17958SOL    HW155294   5.811   4.730   1.041 -0.0521  2.2846  2.0826
17958SOL    HW255295   5.830   4.581   1.061  0.4817  1.4791 -3.0151
17959SOL     OW55296   4.479   1.748   2.507 -0.1910  0.0511  0.0045
17959SOL    HW155297   4.396   1.794   2.505  0.2034  0.7480 -1.0468
17959SOL    HW255298   4.455   1.655   2.514 -1.0466  0.2512 -0.2534
17960SOL     OW55299   6.483   6.743   4.310  0.2872  0.8683  0.2113
17960SOL    HW155300   6.436   6.688   4.249  0.4599  0.7802  0.1570
17960SOL    HW255301   6.537   6.683   4.361  0.1717  0.9434  0.4278
17961SOL     OW55302   5.799   2.590   2.245  0.1716 -0.3954 -0.2214
17961SOL    HW155303   5.869   2.525   2.244 -0.1854 -0.8159 -2.1818
17961SOL    HW255304   5.844   2.673   2.260  0.8862 -0.8504  0.2183
17962SOL     OW55305   7.649   8.189   5.032 -0.0270  0.3023  0.1264
17962SOL    HW155306   7.646   8.187   4.937 -1.0582 -0.9205  0.1646
17962SOL    HW255307   7.656   8.282   5.053  1.3004  0.5247 -1.1424
17963SOL     OW55308   3.026   2.279   4.344 -0.4561  0.0599 -0.1789
17963SOL    HW155309   2.961   2.279   4.414 -0.0484 -1.8115  0.2483
17963SOL    HW255310   3.105   2.315   4.385 -1.0578  1.9359 -0.5836
17964SOL     OW55311   2.446   2.864   3.807 -0.7183 -0.0758 -0.3333
17964SOL    HW155312   2.458   2.802   3.879 -0.7707 -1.4255 -1.4363
17964SOL    HW255313   2.517   2.844   3.746  0.0071  1.8169 -0.1579
17965SOL     OW55314   2.283   0.901   4.433 -0.2130  0.2414  0.2979
17965SOL    HW155315   2.358   0.876   4.487  0.1363 -1.1838 -0.7914
17965SOL    HW255316   2.306   0.871   4.345 -2.9329 -2.2056  0.2937
17966SOL     OW55317   3.026   4.065   0.230 -0.1181  0.0601  0.0162
17966SOL    HW155318   3.109   4.108   0.253  0.3033 -0.2877 -0.8421
17966SOL    HW255319   2.993   4.114   0.155 -0.6914  0.1835  0.3382
17967SOL     OW55320   4.960   6.240   0.441 -0.0889  0.3639 -0.3143
17967SOL    HW155321   4.990   6.263   0.353  1.9111  2.6886  0.8397
17967SOL    HW255322   4.956   6.324   0.487 -0.2525 -0.8653  2.0449
17968SOL     OW55323   8.301   7.765   5.159 -0.6444  0.0945 -0.1227
17968SOL    HW155324   8.256   7.844   5.188  3.1833  2.0523  1.2477
17968SOL    HW255325   8.285   7.701   5.229 -0.9274  0.9103  0.5782
17969SOL     OW55326   0.475   6.279   2.471  0.1552  0.0106  0.1352
17969SOL    HW155327   0.388   6.251   2.499  0.1357  0.6291  0.7100
17969SOL    HW255328   0.507   6.207   2.416 -0.9943  0.0779 -0.6479
17970SOL     OW55329   1.615   0.892   4.952 -0.4214  0.0351 -0.6429
17970SOL    HW155330   1.594   0.857   4.866  0.6231  0.5237 -1.1074
17970SOL    HW255331   1.590   0.822   5.013 -0.0791 -0.7885 -1.4182
17971SOL     OW55332   7.723   4.549   4.746  0.5487  0.7177 -0.4888
17971SOL    HW155333   7.725   4.640   4.778  0.4126  0.0718  1.4726
17971SOL    HW255334   7.664   4.552   4.670 -1.2804  1.8758  0.8952
17972SOL     OW55335   5.552   6.195   0.239 -0.2164  0.0740  0.6660
17972SOL    HW155336   5.599   6.177   0.321  0.1402  1.2620  0.7322
17972SOL    HW255337   5.622   6.203   0.173 -0.5193 -1.2934  0.1365
17973SOL     OW55338   6.321   7.235   2.863 -0.5155  0.3915  0.0833
17973SOL    HW155339   6.244   7.189   2.898 -0.1457  0.1819  0.6285
17973SOL    HW255340   6.372   7.259   2.941 -0.7849  1.8938 -0.1674
17974SOL     OW55341   1.655   2.967   1.266  0.2441  0.7677 -0.1399
17974SOL    HW155342   1.572   2.928   1.294  1.3223 -0.7034  1.1783
17974SOL    HW255343   1.639   2.994   1.175 -0.5859 -2.9916 -1.3172
17975SOL     OW55344   1.487   6.815   3.010  0.5662  0.4597 -0.1489
17975SOL    HW155345   1.461   6.777   3.094  1.7568  2.3660  1.1508
17975SOL    HW255346   1.410   6.866   2.983  0.3509  0.2315  0.0219
17976SOL     OW55347   6.416   3.514   3.618 -0.0686 -0.0137 -0.1226
17976SOL    HW155348   6.437   3.606   3.634 -0.4368  0.1597 -0.6068
17976SOL    HW255349   6.497   3.475   3.585 -0.2940  0.4752 -1.2858
17977SOL     OW55350   2.522   7.908   0.255 -0.8800  0.0433 -0.3268
17977SOL    HW155351   2.596   7.914   0.194 -0.8004 -0.7327 -0.3123
17977SOL    HW255352   2.543   7.970   0.325  0.6691 -1.4985  0.6444
17978SOL     OW55353   4.802   4.014   5.682  0.0315 -0.2470 -0.0667
17978SOL    HW155354   4.727   3.967   5.718 -1.3234  0.0709 -2.2868
17978SOL    HW255355   4.776   4.035   5.592  2.9021 -0.4142 -1.0362
17979SOL     OW55356   5.210   6.646   7.587 -0.3256  0.5419 -0.3189
17979SOL    HW155357   5.297   6.640   7.628  0.6936 -0.2130 -2.4351
17979SOL    HW255358   5.150   6.653   7.661  1.5589  1.7164  1.2180
17980SOL     OW55359   1.237   4.058   8.021  0.1548 -0.2400 -0.0289
17980SOL    HW155360   1.178   4.129   8.047 -1.3257 -1.4080 -0.0429
17980SOL    HW255361   1.197   4.022   7.942  1.8003 -0.0500 -0.9940
17981SOL     OW55362   0.242   6.230   3.306  0.0111 -0.1149 -0.7229
17981SOL    HW155363   0.212   6.301   3.362  1.7303 -0.0269  0.1395
17981SOL    HW255364   0.166   6.208   3.252 -1.0095  1.3064  0.0860
17982SOL     OW55365   3.209   2.576   1.667  0.5842 -0.6946 -0.6184
17982SOL    HW155366   3.221   2.670   1.648 -1.4182  0.5037  3.1262
17982SOL    HW255367   3.269   2.559   1.740  0.1054 -2.0540 -0.5333
17983SOL     OW55368   1.850   2.668   3.884 -0.0370  0.0618  0.1602
17983SOL    HW155369   1.821   2.731   3.818 -0.7360  0.1917  0.5715
17983SOL    HW255370   1.868   2.722   3.961  2.8316  0.1878 -0.4919
17984SOL     OW55371   2.454   8.243   8.106 -0.3886  0.4410  0.0892
17984SOL    HW155372   2.514   8.238   8.180  0.2054 -1.2129 -0.4500
17984SOL    HW255373   2.498   8.193   8.036 -2.6027 -1.3283 -0.1459
17985SOL     OW55374   7.852   8.170   7.632  0.1064  0.4082  0.2129
17985SOL    HW155375   7.846   8.079   7.661 -0.0620 -0.2830 -1.8609
17985SOL    HW255376   7.761   8.198   7.622  0.1454  1.0204  1.3635
17986SOL     OW55377   1.629   2.102   4.242 -0.2347 -0.7262  0.4220
17986SOL    HW155378   1.562   2.130   4.305 -0.1728  0.3531  0.0207
17986SOL    HW255379   1.707   2.086   4.295 -0.5154 -0.9758  0.7628
17987SOL     OW55380   2.626   7.028   2.636 -0.2095  0.1383  0.3032
17987SOL    HW155381   2.630   6.970   2.712 -0.8778  0.6389  0.7296
17987SOL    HW255382   2.558   6.991   2.580  1.2542 -1.0376 -0.7513
17988SOL     OW55383   1.430   1.140   8.140 -0.3011 -0.2587  0.1833
17988SOL    HW155384   1.380   1.204   8.089  1.4788  0.9927 -0.0897
17988SOL    HW255385   1.383   1.134   8.223 -1.4290  0.1301 -0.3971
17989SOL     OW55386   8.139   2.941   0.059  0.0317  0.5143  0.3377
17989SOL    HW155387   8.081   3.002   0.106  1.2400  1.5920  0.4821
17989SOL    HW255388   8.226   2.958   0.095  0.5830 -0.4673 -0.4867
17990SOL     OW55389   4.100   3.647   2.737 -0.2443 -0.3732  0.2987
17990SOL    HW155390   4.085   3.669   2.645 -0.7434 -3.0960 -0.3592
17990SOL    HW255391   4.188   3.681   2.755  0.3358 -0.7782 -1.5411
17991SOL     OW55392   2.483   4.277   1.177 -0.1161 -0.3275 -0.4467
17991SOL    HW155393   2.447   4.267   1.089 -0.3296 -1.2702 -0.2561
17991SOL    HW255394   2.550   4.344   1.168 -0.7814  0.2642 -1.1369
17992SOL     OW55395   6.677   1.742   1.955 -0.2436  0.2169 -0.2958
17992SOL    HW155396   6.671   1.663   1.900 -0.5094 -0.6767  0.9580
17992SOL    HW255397   6.770   1.749   1.977 -0.3257 -0.2647  0.2645
17993SOL     OW55398   0.867   3.501   2.373  0.2875  0.4139 -0.0664
17993SOL    HW155399   0.864   3.537   2.462 -0.2995 -0.3648  0.2495
17993SOL    HW255400   0.800   3.549   2.325  0.1495  0.3833  0.0959
17994SOL     OW55401   2.786   1.950   0.793  0.0923 -0.4950  0.3989
17994SOL    HW155402   2.829   2.018   0.844 -0.0706 -0.4775  0.5157
17994SOL    HW255403   2.793   1.979   0.702 -1.7830  0.7299  0.5910
17995SOL     OW55404   7.380   1.102   4.487  0.2865 -0.4858  0.2788
17995SOL    HW155405   7.314   1.032   4.484 -0.0909 -0.1118 -0.6582
17995SOL    HW255406   7.361   1.149   4.568 -1.6687  0.5798 -0.7065
17996SOL     OW55407   7.651   6.356   6.579 -0.2526  0.2390 -0.1660
17996SOL    HW155408   7.578   6.408   6.546 -0.7629  1.7334  2.9547
17996SOL    HW255409   7.726   6.382   6.525 -1.1240  1.9904 -0.5799
17997SOL     OW55410   2.727   5.294   3.460  0.0541 -0.4296 -0.0442
17997SOL    HW155411   2.654   5.264   3.514 -0.6024  1.2250  0.0273
17997SOL    HW255412   2.748   5.219   3.405 -2.5353 -0.5856 -0.9635
17998SOL     OW55413   0.230   4.409   4.268 -0.0030  0.1086 -0.5231
17998SOL    HW155414   0.322   4.424   4.244  0.0303 -0.5467 -0.8327
17998SOL    HW255415   0.182   4.474   4.216  0.3574  1.2481  0.5145
17999SOL     OW55416   6.050   3.382   6.743 -0.0956  0.0778 -0.0025
17999SOL    HW155417   6.102   3.414   6.670 -0.9917 -0.7374 -1.0448
17999SOL    HW255418   5.966   3.359   6.704  0.0157 -2.1438  0.9094
18000SOL     OW55419   2.059   2.822   3.744 -0.2171 -0.2002 -0.2647
18000SOL    HW155420   2.096   2.884   3.681  0.3077  0.5703  0.7715
18000SOL    HW255421   2.067   2.866   3.829 -1.0920 -1.1283  0.3271
18001SOL     OW55422   5.467   1.272   4.356 -0.2936  0.1901  0.8270
18001SOL    HW155423   5.538   1.320   4.312 -1.2217  1.3337  0.5226
18001SOL    HW255424   5.472   1.184   4.320 -0.1545  0.7302 -0.5587
18002SOL     OW55425   6.760   7.854   6.552  0.3636  0.4271  1.1598
18002SOL    HW155426   6.707   7.776   6.537 -0.2814  0.8005  1.4448
18002SOL    HW255427   6.700   7.916   6.594  0.5293  1.5012 -0.1158
18003SOL     OW55428   6.014   2.932   6.239 -0.1273  0.4288 -0.1533
18003SOL    HW155429   6.072   2.902   6.169  0.4516 -0.2371  0.5923
18003SOL    HW255430   6.015   2.861   6.303 -0.7058  0.9940  0.5000
18004SOL     OW55431   8.289   1.702   2.450  0.0528 -0.3464 -0.6300
18004SOL    HW155432   8.242   1.659   2.521  1.2012  1.1900  1.1310
18004SOL    HW255433   8.241   1.784   2.436 -0.3976 -0.8053 -1.9453
18005SOL     OW55434   6.402   1.087   7.801  1.0097  0.0135 -0.5948
18005SOL    HW155435   6.370   1.103   7.890 -1.4537 -0.7016 -1.2658
18005SOL    HW255436   6.399   1.174   7.760  1.7185  0.2687 -0.1289
18006SOL     OW55437   7.537   6.181   3.740  0.2999  0.3037 -0.2025
18006SOL    HW155438   7.458   6.191   3.794  0.5755 -1.4425  0.5997
18006SOL    HW255439   7.599   6.245   3.776  0.1263 -0.1408  0.9410
18007SOL     OW55440   7.443   2.078   7.224  0.5743  1.1625  0.4655
18007SOL    HW155441   7.355   2.115   7.215 -1.0507 -1.4754  3.4697
18007SOL    HW255442   7.478   2.119   7.304  0.6961 -0.1385  1.1057
18008SOL     OW55443   2.130   8.310   1.494  0.3100 -0.2643  0.1829
18008SOL    HW155444   2.068   8.373   1.531 -0.8329 -1.9370  1.2577
18008SOL    HW255445   2.175   8.273   1.571  1.5035 -0.2160 -0.4764
18009SOL     OW55446   2.099   1.313   1.197  0.0073  0.6065  0.9596
18009SOL    HW155447   2.019   1.345   1.241 -1.6263 -1.5895 -0.2177
18009SOL    HW255448   2.081   1.322   1.104  1.2140  0.1946  0.6671
18010SOL     OW55449   1.899   7.868   2.300 -0.4672  0.2674 -0.1395
18010SOL    HW155450   1.979   7.896   2.344 -0.2512 -0.4939 -0.0378
18010SOL    HW255451   1.833   7.931   2.329 -0.3685 -0.3078  1.4073
18011SOL     OW55452   3.657   0.128   1.431 -1.0672  0.2494  0.5970
18011SOL    HW155453   3.621   0.045   1.460 -0.7494  0.6316  2.1461
18011SOL    HW255454   3.693   0.109   1.344 -3.1232 -0.6174 -0.1301
18012SOL     OW55455   2.626   0.189   0.302  0.2569  0.0015  0.5505
18012SOL    HW155456   2.538   0.158   0.323  0.1806  0.4682  0.9433
18012SOL    HW255457   2.679   0.164   0.378  1.5607 -4.3631 -1.4434
18013SOL     OW55458   5.304   0.962   6.472 -0.9276  0.1446  0.0806
18013SOL    HW155459   5.314   1.001   6.385  1.6749  0.3587  0.4116
18013SOL    HW255460   5.336   0.873   6.462 -2.0973 -0.3450  0.5000
18014SOL     OW55461   1.482   4.582   4.739 -0.2150  0.6588 -0.1151
18014SOL    HW155462   1.474   4.609   4.831  0.1846  0.0918  0.1025
18014SOL    HW255463   1.577   4.570   4.727 -0.2398  1.0338 -0.6967
18015SOL     OW55464   5.302   1.364   7.754 -0.3300  0.5522  0.3795
18015SOL    HW155465   5.357   1.401   7.824 -0.6291  2.6562 -0.4279
18015SOL    HW255466   5.346   1.282   7.731  0.4867  0.4346  2.1441
18016SOL     OW55467   0.077   1.012   6.593  0.5362  0.5051 -0.8978
18016SOL    HW155468   0.126   0.939   6.556  2.6390  1.5325 -0.3057
18016SOL    HW255469   0.047   1.062   6.516 -0.9699 -0.9352 -1.3048
18017SOL     OW55470   0.891   2.305   6.618 -0.1109  0.3279 -0.3820
18017SOL    HW155471   0.885   2.228   6.562 -1.2825  0.6420 -0.7025
18017SOL    HW255472   0.808   2.351   6.606  0.5812  1.6714 -0.2396
18018SOL     OW55473   4.386   6.495   5.256 -0.0556  0.5306 -0.3636
18018SOL    HW155474   4.301   6.458   5.231  0.2323 -1.7863  1.6382
18018SOL    HW255475   4.389   6.486   5.351  2.4312  0.5379 -0.3685
18019SOL     OW55476   0.957   0.448   5.443  0.0106 -0.1461 -0.2573
18019SOL    HW155477   0.880   0.504   5.433 -0.1750 -0.5090 -0.9534
18019SOL    HW255478   1.023   0.487   5.386  0.1630 -0.1513 -0.0860
18020SOL     OW55479   2.208   5.741   0.882  0.2245  0.1194 -0.3921
18020SOL    HW155480   2.256   5.717   0.961 -1.0724 -0.3552  0.2766
18020SOL    HW255481   2.193   5.835   0.892 -0.2570 -0.0069  0.1179
18021SOL     OW55482   1.196   5.569   4.317  0.2880 -0.2040  0.5435
18021SOL    HW155483   1.146   5.560   4.236 -1.1568 -2.0168  1.5637
18021SOL    HW255484   1.287   5.563   4.290 -0.1948 -1.8564 -0.8567
18022SOL     OW55485   3.411   6.472   3.603  0.1601  0.5967 -0.0071
18022SOL    HW155486   3.429   6.381   3.579  0.5238  1.3050 -2.8495
18022SOL    HW255487   3.489   6.500   3.650  0.0553 -0.5198  0.8920
18023SOL     OW55488   1.753   0.818   0.393  0.5289  0.2282 -0.4758
18023SOL    HW155489   1.836   0.856   0.424  0.4441 -0.4846  0.6423
18023SOL    HW255490   1.686   0.865   0.442  0.2343  0.8816 -1.4617
18024SOL     OW55491   6.556   2.498   3.647 -0.4723 -0.5358  0.0300
18024SOL    HW155492   6.493   2.513   3.577 -1.8507 -0.1729  1.2850
18024SOL    HW255493   6.627   2.561   3.629  0.9432 -2.7072 -2.8594
18025SOL     OW55494   1.239   6.524   8.343 -0.3699  0.4551  0.2412
18025SOL    HW155495   1.233   6.617   8.363 -0.9212  0.2510  1.0913
18025SOL    HW255496   1.193   6.514   8.260  0.6454  1.1002 -0.4158
18026SOL     OW55497   6.432   7.060   7.004 -0.4873  0.0049 -0.1989
18026SOL    HW155498   6.520   7.084   7.032 -1.1200  0.0141  1.9737
18026SOL    HW255499   6.440   6.970   6.972  0.8939  1.0806 -3.3969
18027SOL     OW55500   3.253   3.559   6.307  0.4165 -0.5004 -0.1091
18027SOL    HW155501   3.228   3.477   6.264  0.3810  0.9122 -3.0222
18027SOL    HW255502   3.340   3.541   6.343  1.0256 -1.4819 -1.9276
18028SOL     OW55503   0.183   4.932   3.218  0.0194 -0.1121  0.1386
18028SOL    HW155504   0.275   4.955   3.204  0.0030 -0.4554 -0.5745
18028SOL    HW255505   0.135   5.010   3.193  0.1463  0.3518  1.2812
18029SOL     OW55506   8.192   8.155   1.481  0.5728  0.0320 -0.3621
18029SOL    HW155507   8.284   8.161   1.507  0.8640 -0.3517 -1.2686
18029SOL    HW255508   8.187   8.204   1.399 -0.2959  1.1061  0.2999
18030SOL     OW55509   6.767   5.516   3.197  0.0734  0.0960  0.1214
18030SOL    HW155510   6.722   5.506   3.281 -0.0622 -0.8880 -0.0535
18030SOL    HW255511   6.803   5.605   3.199 -0.7976  0.4455  0.7904
18031SOL     OW55512   1.106   8.124   6.409 -0.2898  0.1179  0.0069
18031SOL    HW155513   1.046   8.100   6.338 -0.2248 -0.4487  0.1356
18031SOL    HW255514   1.051   8.169   6.473 -0.2900  0.9153 -0.5383
18032SOL     OW55515   7.988   7.766   7.459  0.5066 -0.3432  0.6873
18032SOL    HW155516   7.950   7.702   7.399  0.1262  0.7564 -0.2983
18032SOL    HW255517   8.066   7.723   7.493 -0.2926 -1.7104  0.8606
18033SOL     OW55518   5.186   4.906   0.897 -0.6976 -0.3344 -0.3972
18033SOL    HW155519   5.144   4.979   0.943 -0.3192 -0.3546 -0.0088
18033SOL    HW255520   5.113   4.854   0.863 -0.9734  0.5919 -1.2819
18034SOL     OW55521   7.709   1.246   1.902  0.0152  0.1171 -0.1666
18034SOL    HW155522   7.720   1.325   1.955 -0.5503 -0.2917  0.5781
18034SOL    HW255523   7.618   1.251   1.871 -0.6553 -1.1379  1.4279
18035SOL     OW55524   7.053   0.659   7.396 -0.3117  0.1866  0.2612
18035SOL    HW155525   6.988   0.714   7.352 -0.3367  1.7072  2.0357
18035SOL    HW255526   7.129   0.660   7.338 -1.5374 -0.9417 -1.4530
18036SOL     OW55527   5.090   3.378   0.102  0.4608  0.0783  0.4799
18036SOL    HW155528   5.057   3.340   0.184  1.4906 -0.6719  0.5616
18036SOL    HW255529   5.175   3.337   0.089  1.0607  1.4609 -0.0915
18037SOL     OW55530   0.633   2.799   0.936 -0.7367 -0.1580 -0.1188
18037SOL    HW155531   0.728   2.802   0.950 -0.8188  0.1595  0.3956
18037SOL    HW255532   0.622   2.803   0.841 -0.1890 -1.4823 -0.2570
18038SOL     OW55533   3.291   2.512   4.112  0.6035 -0.3293 -0.5823
18038SOL    HW155534   3.382   2.493   4.135 -0.2231 -1.4071  2.1670
18038SOL    HW255535   3.252   2.547   4.192 -1.5794 -0.5856 -1.4618
18039SOL     OW55536   1.271   6.066   2.151  0.0762 -0.3858 -0.1662
18039SOL    HW155537   1.311   6.139   2.199 -0.3358 -0.3818  0.1765
18039SOL    HW255538   1.297   6.081   2.060  1.4599 -0.7962  0.1419
18040SOL     OW55539   5.388   1.132   6.271  0.0316  0.3276  0.2681
18040SOL    HW155540   5.467   1.137   6.217  1.4241  0.6657  2.2469
18040SOL    HW255541   5.344   1.216   6.258  0.7398  0.6935  0.2411
18041SOL     OW55542   4.392   5.345   1.985 -0.2331  0.5250  0.2108
18041SOL    HW155543   4.381   5.334   2.080  0.1202 -0.7058  0.1255
18041SOL    HW255544   4.337   5.277   1.947  0.1426  0.5879 -0.4568
18042SOL     OW55545   0.122   4.971   5.726 -0.6227  0.6824 -0.2845
18042SOL    HW155546   0.091   5.014   5.806  0.0726  1.1816 -0.2717
18042SOL    HW255547   0.156   5.042   5.673 -0.8083  0.3128 -0.9036
18043SOL     OW55548   6.671   2.943   3.740 -0.2625 -0.1658 -0.4042
18043SOL    HW155549   6.662   2.996   3.819  1.1409 -0.5541  0.0538
18043SOL    HW255550   6.689   3.005   3.670 -1.7329  0.2002 -0.4903
18044SOL     OW55551   2.700   2.888   3.031  0.1532 -0.1267 -0.1170
18044SOL    HW155552   2.647   2.965   3.009 -1.9072 -0.5287  2.8056
18044SOL    HW255553   2.759   2.919   3.099  2.0423 -0.3156 -1.5936
18045SOL     OW55554   4.181   6.883   4.825 -0.4807  0.3428  0.3243
18045SOL    HW155555   4.144   6.839   4.749 -0.8278  1.3584 -0.1229
18045SOL    HW255556   4.120   6.865   4.896 -0.9289  0.5755  0.0035
18046SOL     OW55557   3.138   6.256   1.720  0.3808  0.0089  0.1088
18046SOL    HW155558   3.121   6.170   1.758 -1.4024  0.0228 -0.5643
18046SOL    HW255559   3.117   6.318   1.789  0.3668 -0.0642  0.1703
18047SOL     OW55560   0.511   0.991   2.936  0.5138 -0.0730  0.3477
18047SOL    HW155561   0.506   1.083   2.907 -0.4003 -0.5182 -0.9983
18047SOL    HW255562   0.460   0.989   3.017 -0.6922  0.3663 -0.3577
18048SOL     OW55563   5.320   2.915   5.772  0.0643 -0.0681 -0.0474
18048SOL    HW155564   5.294   2.952   5.688  1.3642  0.6328 -0.1748
18048SOL    HW255565   5.288   2.978   5.837  1.2369  0.7100 -0.1931
18049SOL     OW55566   0.275   2.134   1.887 -0.2120 -0.6974  0.1113
18049SOL    HW155567   0.268   2.219   1.930 -0.4279  0.3042 -1.8377
18049SOL    HW255568   0.368   2.122   1.872 -0.0492 -1.4233  1.4868
18050SOL     OW55569   2.707   2.037   4.356 -0.4379 -0.2688 -0.3420
18050SOL    HW155570   2.797   2.009   4.374 -0.2675 -0.3901 -1.3266
18050SOL    HW255571   2.673   2.064   4.442  0.4143 -0.5541  0.1036
18051SOL     OW55572   4.599   5.018   7.930 -0.1319  0.0104  0.4722
18051SOL    HW155573   4.613   4.924   7.941  1.1723  0.3156  1.6533
18051SOL    HW255574   4.669   5.046   7.871  0.2668  0.4307  1.1263
18052SOL     OW55575   1.147   0.972   0.373  0.0384 -0.2541 -0.1382
18052SOL    HW155576   1.139   0.953   0.279 -0.1998  0.1049 -0.1940
18052SOL    HW255577   1.205   0.904   0.407 -0.6470 -0.9735 -0.3670
18053SOL     OW55578   0.352   7.030   1.843  0.1031 -0.0741  0.5357
18053SOL    HW155579   0.392   7.030   1.931  3.4276  3.0206 -0.7067
18053SOL    HW255580   0.374   6.945   1.807  0.3639 -0.6779  2.0336
18054SOL     OW55581   7.329   7.572   7.794 -0.0713 -0.5025 -0.1019
18054SOL    HW155582   7.289   7.567   7.881 -1.6029 -2.2556 -0.8452
18054SOL    HW255583   7.282   7.643   7.750 -0.1213 -0.4089  0.1018
18055SOL     OW55584   0.843   1.884   7.690  0.2673 -0.0138  0.4276
18055SOL    HW155585   0.773   1.821   7.673  0.8515 -0.5668  0.0317
18055SOL    HW255586   0.849   1.887   7.786 -1.3746  1.2653  0.5274
18056SOL     OW55587   7.920   7.958   8.060 -1.0086 -0.6386 -0.0414
18056SOL    HW155588   7.904   7.879   8.111 -1.7450 -1.3165 -1.2773
18056SOL    HW255589   7.868   7.946   7.981 -0.5240  0.7456 -0.5928
18057SOL     OW55590   7.690   1.137   4.650  0.4582  0.0946  0.4883
18057SOL    HW155591   7.649   1.150   4.565 -0.9460 -0.1275  1.0919
18057SOL    HW255592   7.749   1.212   4.660  0.6492  0.1144 -0.6711
18058SOL     OW55593   3.847   4.171   2.133  0.8337 -0.0083 -0.4129
18058SOL    HW155594   3.757   4.184   2.104  1.2155  0.1303 -1.5789
18058SOL    HW255595   3.840   4.154   2.227 -0.6393 -2.7131 -0.9417
18059SOL     OW55596   1.853   2.676   6.617 -0.5456  0.3072  0.5646
18059SOL    HW155597   1.777   2.716   6.659 -0.0952  0.5095  1.2235
18059SOL    HW255598   1.894   2.747   6.568  0.6261  0.8910  2.2674
18060SOL     OW55599   1.418   7.372   5.362  0.2941 -0.4397  0.3999
18060SOL    HW155600   1.484   7.341   5.300 -0.5810  0.5860 -1.1306
18060SOL    HW255601   1.459   7.446   5.407  0.2233  0.2126 -0.5669
18061SOL     OW55602   2.331   7.548   5.582  0.6827  0.6847  0.6561
18061SOL    HW155603   2.314   7.628   5.532  0.3780  0.4827  0.4336
18061SOL    HW255604   2.247   7.502   5.584  0.7854  0.5065  1.0294
18062SOL     OW55605   0.326   0.625   7.853 -0.1750  0.1402  0.4967
18062SOL    HW155606   0.334   0.655   7.944 -0.0389  1.1818  0.1529
18062SOL    HW255607   0.258   0.557   7.856 -1.0649  1.0275  1.1820
18063SOL     OW55608   4.530   2.163   2.280 -0.6470  0.2642  0.1692
18063SOL    HW155609   4.540   2.163   2.184  0.3634  1.2196  0.2553
18063SOL    HW255610   4.581   2.088   2.309  0.8697  1.2329  0.0959
18064SOL     OW55611   4.241   0.851   0.954 -0.0481  0.3859  1.1113
18064SOL    HW155612   4.169   0.845   0.891 -0.1823  0.4120  1.2608
18064SOL    HW255613   4.312   0.893   0.906 -0.0362  0.1036  0.8795
18065SOL     OW55614   5.580   2.687   0.426 -0.4616  0.4362  0.0961
18065SOL    HW155615   5.619   2.647   0.503 -2.2776 -0.0323  0.8124
18065SOL    HW255616   5.490   2.653   0.423 -1.2886  2.5192 -0.6872
18066SOL     OW55617   6.572   8.046   6.632  0.0903  0.0291  0.1213
18066SOL    HW155618   6.565   8.049   6.727 -0.9972 -1.7645  0.1401
18066SOL    HW255619   6.481   8.051   6.601  0.2570 -1.5275 -0.7094
18067SOL     OW55620   4.804   2.648   7.794 -0.1235 -0.5850 -0.1307
18067SOL    HW155621   4.710   2.636   7.781 -0.2094 -0.1480  0.0804
18067SOL    HW255622   4.841   2.560   7.784 -0.3765 -0.5413 -1.6875
18068SOL     OW55623   7.915   3.160   5.709  0.2759 -0.3842  0.3056
18068SOL    HW155624   7.925   3.236   5.767  2.1069  1.0019 -1.6231
18068SOL    HW255625   7.985   3.100   5.736  0.9054  0.1076 -0.1722
18069SOL     OW55626   5.293   4.927   3.521 -0.0070  0.3999  0.6386
18069SOL    HW155627   5.268   5.002   3.574  0.2548  0.9173  0.0502
18069SOL    HW255628   5.227   4.922   3.452  1.4581  1.8241 -0.9680
18070SOL     OW55629   7.381   7.393   2.307  0.6867 -0.0911  1.2632
18070SOL    HW155630   7.334   7.390   2.223  1.1311 -0.3346  1.0151
18070SOL    HW255631   7.426   7.477   2.306  0.0434  0.2689  1.6276
18071SOL     OW55632   0.794   0.525   5.953  0.0493  0.1676  0.2592
18071SOL    HW155633   0.724   0.477   5.996 -0.0690  0.0463 -0.0609
18071SOL    HW255634   0.860   0.458   5.934 -0.4161 -0.0074 -0.8095
18072SOL     OW55635   4.830   2.132   2.699 -0.5875  0.9458 -0.3611
18072SOL    HW155636   4.848   2.045   2.664  0.6545  1.3131 -0.6667
18072SOL    HW255637   4.765   2.116   2.768  0.4397 -0.3870  0.3656
18073SOL     OW55638   2.333   5.969   5.530 -0.7863  0.1119 -0.3365
18073SOL    HW155639   2.356   5.886   5.573 -0.9404  1.0522  1.6512
18073SOL    HW255640   2.410   6.024   5.541 -1.0268  0.5543 -0.8346
18074SOL     OW55641   5.743   4.180   1.147 -0.6500  0.1913  0.4628
18074SOL    HW155642   5.732   4.230   1.228 -1.0874  1.7934 -0.5383
18074SOL    HW255643   5.660   4.194   1.100 -1.7451 -3.3378  1.0753
18075SOL     OW55644   6.095   0.911   6.100 -0.0074 -0.6929  0.2285
18075SOL    HW155645   6.016   0.857   6.105 -0.1283 -0.6865 -1.1770
18075SOL    HW255646   6.153   0.874   6.166 -0.3577 -2.1080 -0.2043
18076SOL     OW55647   4.016   4.495   2.452  0.4290 -0.2851  0.2569
18076SOL    HW155648   4.107   4.469   2.460  0.4857 -0.0963  0.2180
18076SOL    HW255649   4.017   4.574   2.398 -0.0311 -2.0686 -2.5698
18077SOL     OW55650   7.474   1.272   1.214 -0.1334  0.1564  0.6894
18077SOL    HW155651   7.457   1.361   1.184 -0.2584 -0.5849 -1.5987
18077SOL    HW255652   7.567   1.273   1.238  0.1075  0.6933 -0.2001
18078SOL     OW55653   6.045   5.778   8.059  0.0236  0.7982 -0.0033
18078SOL    HW155654   6.094   5.817   7.986 -1.7034  2.3862 -0.3941
18078SOL    HW255655   5.954   5.804   8.043 -0.8101 -1.0839  1.3070
18079SOL     OW55656   5.143   0.937   2.309 -0.4572 -0.0988  0.2383
18079SOL    HW155657   5.093   0.996   2.365  1.3114  1.3883  0.3348
18079SOL    HW255658   5.188   0.879   2.371 -1.1711 -0.7054  0.1966
18080SOL     OW55659   2.934   4.527   0.309  0.3179 -0.0851 -0.2818
18080SOL    HW155660   2.884   4.496   0.233 -0.0743  0.9238 -0.4531
18080SOL    HW255661   3.023   4.539   0.276  0.6734 -1.7655 -0.0090
18081SOL     OW55662   3.477   7.388   1.569 -0.2354 -0.5700 -0.2518
18081SOL    HW155663   3.477   7.484   1.579  0.3646 -0.7878  2.5814
18081SOL    HW255664   3.552   7.370   1.512  0.2847  0.6170  0.0223
18082SOL     OW55665   2.198   4.647   3.494 -0.5529  0.0904 -0.0645
18082SOL    HW155666   2.160   4.693   3.569 -0.3040  2.0503 -1.0484
18082SOL    HW255667   2.290   4.637   3.516 -0.6058  0.0745  0.1528
18083SOL     OW55668   6.761   8.176   8.026 -0.5603  0.0927  0.0851
18083SOL    HW155669   6.714   8.240   7.973  1.1272 -0.2892 -2.0385
18083SOL    HW255670   6.813   8.229   8.087 -0.0906  0.7422 -0.8487
18084SOL     OW55671   7.696   7.492   2.737 -0.3480 -0.5236  0.3315
18084SOL    HW155672   7.714   7.500   2.831 -0.6699 -2.4354  0.5872
18084SOL    HW255673   7.769   7.442   2.702 -0.7650 -0.7460 -0.2424
18085SOL     OW55674   5.705   5.431   5.323  0.1759 -0.6268 -0.0104
18085SOL    HW155675   5.695   5.516   5.280  0.5539 -0.6364 -0.1167
18085SOL    HW255676   5.671   5.368   5.259 -0.2898 -0.5415  0.1470
18086SOL     OW55677   7.069   1.978   6.224  0.2139  0.3107 -0.4353
18086SOL    HW155678   6.996   2.038   6.241  0.6901  0.5972  0.6649
18086SOL    HW255679   7.084   1.934   6.308  1.5048  0.4775 -0.5638
18087SOL     OW55680   2.917   7.709   3.757  0.3363  0.5365 -0.1954
18087SOL    HW155681   3.012   7.715   3.768  0.2128  0.6560  0.9298
18087SOL    HW255682   2.883   7.784   3.804 -0.3249  0.5186 -0.6330
18088SOL     OW55683   7.459   7.329   3.180 -0.0811  0.3371 -1.1518
18088SOL    HW155684   7.441   7.421   3.162  1.2028  0.3173 -2.7297
18088SOL    HW255685   7.379   7.297   3.223 -0.5529  2.1480 -0.5922
18089SOL     OW55686   3.488   0.599   7.893 -0.1967  0.4143  0.2502
18089SOL    HW155687   3.535   0.565   7.969  1.9124  2.4784 -0.0019
18089SOL    HW255688   3.530   0.684   7.876 -0.7384  0.1160 -3.0817
18090SOL     OW55689   6.137   1.855   2.123  0.3688 -0.2896  0.2736
18090SOL    HW155690   6.136   1.761   2.101 -2.1099 -0.2774  0.0708
18090SOL    HW255691   6.127   1.899   2.038  1.2027  0.1717  0.4046
18091SOL     OW55692   5.800   2.792   1.713 -0.0452  0.1728 -0.3315
18091SOL    HW155693   5.824   2.873   1.669 -1.1649  1.6532  1.6463
18091SOL    HW255694   5.873   2.774   1.772  0.4127 -0.5409 -1.0988
18092SOL     OW55695   1.782   1.619   3.083 -0.0958  0.0708  0.0223
18092SOL    HW155696   1.747   1.583   3.165  1.9321  0.0740  0.9583
18092SOL    HW255697   1.768   1.550   3.018 -1.5993  0.0106  0.3840
18093SOL     OW55698   0.621   7.740   5.972  0.2122 -0.1755  0.2884
18093SOL    HW155699   0.572   7.735   6.054 -0.7551 -0.4653 -0.2897
18093SOL    HW255700   0.647   7.832   5.965  0.2048 -0.1280  0.8677
18094SOL     OW55701   4.154   1.785   7.312  0.1501  0.1062  0.3750
18094SOL    HW155702   4.099   1.858   7.342 -0.5913 -0.6323  0.8304
18094SOL    HW255703   4.186   1.815   7.226 -1.1639  0.4657 -0.0273
18095SOL     OW55704   1.046   3.166   4.985  0.2925 -0.0388 -0.9475
18095SOL    HW155705   1.056   3.075   5.015 -0.7187 -0.0662 -0.6512
18095SOL    HW255706   1.135   3.201   4.985  0.4213 -0.2455  1.4630
18096SOL     OW55707   1.297   3.854   0.016  0.3041 -0.3537  0.0369
18096SOL    HW155708   1.232   3.800   0.060  1.2033 -0.5439  1.1952
18096SOL    HW255709   1.299   3.823  -0.074 -2.8910  1.2242 -0.7203
18097SOL     OW55710   2.717   4.975   0.517  0.1320  0.2598 -0.8445
18097SOL    HW155711   2.764   4.900   0.481  0.5618  0.0767  0.0766
18097SOL    HW255712   2.663   4.939   0.587  1.2145  0.9486  0.3940
18098SOL     OW55713   4.453   3.159   1.377  0.5525  0.3045 -0.8253
18098SOL    HW155714   4.537   3.123   1.349  1.3015  1.0886  0.3652
18098SOL    HW255715   4.475   3.223   1.445 -0.9857  0.7071 -0.6718
18099SOL     OW55716   2.069   0.521   0.448  0.3880  0.0093 -0.3257
18099SOL    HW155717   2.063   0.616   0.434 -1.7763  0.9805  4.8139
18099SOL    HW255718   2.154   0.509   0.491 -0.2371  0.0704  0.9760
18100SOL     OW55719   7.551   2.194   4.147 -0.0845 -0.3211 -0.1072
18100SOL    HW155720   7.559   2.269   4.206  0.1476  1.0040 -1.7289
18100SOL    HW255721   7.525   2.121   4.203  0.7782  0.7047  1.7115
18101SOL     OW55722   7.755   3.823   1.580 -0.6265 -0.8385  0.1895
18101SOL    HW155723   7.797   3.742   1.608 -0.1852 -0.4061  0.8136
18101SOL    HW255724   7.701   3.798   1.505  0.3122 -1.5295 -0.2896
18102SOL     OW55725   6.377   4.848   3.857  0.7220 -0.1486  0.4694
18102SOL    HW155726   6.368   4.778   3.793  0.8882  0.5103 -0.3041
18102SOL    HW255727   6.294   4.895   3.853  0.5865 -0.3389  1.0297
18103SOL     OW55728   7.950   4.798   4.405  0.2529 -0.0466  0.6929
18103SOL    HW155729   7.998   4.731   4.358  0.4110  0.2042  0.4973
18103SOL    HW255730   7.903   4.847   4.337 -1.5558 -1.2795  0.9964
18104SOL     OW55731   5.234   2.244   2.762 -0.0443 -0.2138 -0.1707
18104SOL    HW155732   5.296   2.215   2.694  0.0045 -0.6595  0.0627
18104SOL    HW255733   5.159   2.277   2.713  0.4079  0.3964 -0.4602
18105SOL     OW55734   6.824   3.577   2.667 -0.6433 -0.1814 -0.1585
18105SOL    HW155735   6.890   3.611   2.606 -1.0390 -0.3049 -0.6570
18105SOL    HW255736   6.826   3.482   2.654  0.6187 -0.4279  1.3913
18106SOL     OW55737   2.065   2.411   7.171 -0.3427 -0.7576  0.0679
18106SOL    HW155738   2.152   2.445   7.190  0.1494 -1.8378 -0.1422
18106SOL    HW255739   2.043   2.445   7.084  0.3138 -1.2960 -0.3182
18107SOL     OW55740   4.697   1.775   7.311  0.1225  0.8358 -0.3390
18107SOL    HW155741   4.640   1.773   7.389  1.8412 -0.4215  0.9441
18107SOL    HW255742   4.781   1.805   7.344  0.6093  1.3201 -1.9498
18108SOL     OW55743   8.200   3.641   0.047  0.3084  0.2357 -0.0230
18108SOL    HW155744   8.274   3.683   0.091  0.2912 -1.0088  1.2407
18108SOL    HW255745   8.182   3.697  -0.028  1.7822  1.1971  0.3096
18109SOL     OW55746   8.293   0.780   3.743  0.2073 -0.0576  0.2879
18109SOL    HW155747   8.198   0.773   3.755  0.2829 -0.9927  0.4299
18109SOL    HW255748   8.315   0.868   3.774 -0.3916 -0.3988  1.7431
18110SOL     OW55749   4.665   0.356   4.754  0.0429 -0.1976  0.2807
18110SOL    HW155750   4.670   0.401   4.670  0.4550  2.0756  1.4316
18110SOL    HW255751   4.746   0.305   4.759  0.4501  0.3743 -0.3260
18111SOL     OW55752   6.516   0.842   0.795 -0.7756 -0.1338 -0.1436
18111SOL    HW155753   6.589   0.904   0.805 -0.0058 -0.9447 -0.5216
18111SOL    HW255754   6.547   0.781   0.728 -2.6726  0.7183 -1.8849
18112SOL     OW55755   7.553   0.757   5.755 -0.8148 -0.1749  0.0496
18112SOL    HW155756   7.517   0.728   5.839 -1.5212 -0.4811 -0.3498
18112SOL    HW255757   7.506   0.837   5.734 -0.9884 -0.3609 -0.2843
18113SOL     OW55758   0.216   1.301   2.628 -0.4586  0.3192 -0.1566
18113SOL    HW155759   0.269   1.306   2.548  1.2207  1.0921  0.9333
18113SOL    HW255760   0.207   1.391   2.657 -1.9640  0.1409 -0.0142
18114SOL     OW55761   8.052   7.900   2.160  0.4522 -0.1351 -0.1143
18114SOL    HW155762   8.020   7.948   2.236  0.7574  1.9275 -1.2249
18114SOL    HW255763   7.980   7.906   2.096  0.9942 -0.0543 -0.7268
18115SOL     OW55764   4.988   6.479   5.535  0.5677  0.7390 -0.3973
18115SOL    HW155765   5.033   6.426   5.600 -1.8162  0.1713  0.8812
18115SOL    HW255766   4.965   6.418   5.465 -0.8313  0.3621  0.3654
18116SOL     OW55767   7.218   6.036   5.754 -0.3428  0.1098  0.2444
18116SOL    HW155768   7.259   5.968   5.807  0.6681 -0.9216 -1.7130
18116SOL    HW255769   7.231   6.117   5.803  0.7532 -0.7453  1.4262
18117SOL     OW55770   4.190   0.506   0.926 -0.1301  0.1643 -0.1606
18117SOL    HW155771   4.213   0.481   1.015 -0.8466 -0.9970 -0.2777
18117SOL    HW255772   4.117   0.567   0.936 -0.1677  0.0854  0.0500
18118SOL     OW55773   7.959   2.959   0.399  0.0740  0.2119 -0.9836
18118SOL    HW155774   8.053   2.945   0.387 -0.0726 -1.9193 -0.0881
18118SOL    HW255775   7.918   2.891   0.346 -0.8271 -1.0976  1.2397
18119SOL     OW55776   0.086   6.519   3.001  0.1294  0.0746 -0.2465
18119SOL    HW155777   0.108   6.446   2.943 -1.6127 -0.4626 -0.3004
18119SOL    HW255778   0.060   6.589   2.942  0.7367  0.3807 -0.1601
18120SOL     OW55779   8.051   7.252   6.213 -0.1330 -0.2274 -0.0688
18120SOL    HW155780   8.017   7.292   6.293 -0.7917  2.1842 -1.4391
18120SOL    HW255781   8.020   7.310   6.143  2.6832 -0.6941 -1.8485
18121SOL     OW55782   6.940   0.690   6.686  0.4852 -0.4478  0.2701
18121SOL    HW155783   6.986   0.694   6.770  0.7218 -1.2451  0.1810
18121SOL    HW255784   6.856   0.649   6.706 -0.2028  0.9529  0.4215
18122SOL     OW55785   3.306   2.323   4.335  0.9892 -0.0437 -0.4071
18122SOL    HW155786   3.388   2.364   4.308 -0.3793  2.0356 -1.6780
18122SOL    HW255787   3.292   2.253   4.270  2.4242 -1.3913  0.6821
18123SOL     OW55788   7.019   0.437   4.190 -0.1742 -0.3024  0.3625
18123SOL    HW155789   6.993   0.345   4.193 -0.4385 -0.2023  2.1422
18123SOL    HW255790   7.115   0.435   4.181  0.0571 -0.8189  2.4741
18124SOL     OW55791   6.960   2.537   3.600 -0.2992  0.1326 -1.0525
18124SOL    HW155792   6.934   2.489   3.521 -0.0362  1.0836 -1.7500
18124SOL    HW255793   6.895   2.606   3.608 -0.6523 -0.3079 -0.0898
18125SOL     OW55794   4.029   8.285   0.226  0.4097  0.2386  0.3406
18125SOL    HW155795   3.989   8.277   0.313 -0.3520  1.2614  0.1045
18125SOL    HW255796   4.120   8.261   0.240 -0.1729 -1.8520  0.9621
18126SOL     OW55797   2.590   7.090   4.383  0.0513  0.9168 -0.1818
18126SOL    HW155798   2.562   7.006   4.419 -0.6727  1.3252  0.2241
18126SOL    HW255799   2.657   7.067   4.318 -0.2820  0.0224 -0.2207
18127SOL     OW55800   0.483   7.009   2.075  1.1353  0.5960 -0.7079
18127SOL    HW155801   0.501   7.093   2.118 -1.7693  1.3619 -0.8017
18127SOL    HW255802   0.515   6.944   2.137  2.1847  1.7183 -0.0045
18128SOL     OW55803   2.888   7.084   7.863  0.6979 -0.0779  0.2854
18128SOL    HW155804   2.917   7.024   7.932 -1.4482 -0.5034  0.8868
18128SOL    HW255805   2.806   7.046   7.831  0.2545  1.5560 -0.6133
18129SOL     OW55806   3.861   3.810   0.892  0.1888  0.2674 -0.3511
18129SOL    HW155807   3.856   3.834   0.800  0.3370 -0.2969 -0.5073
18129SOL    HW255808   3.826   3.721   0.896  1.4664 -0.2351 -0.0765
18130SOL     OW55809   2.554   7.077   8.345 -0.0612  1.2356  0.2435
18130SOL    HW155810   2.553   7.128   8.264  1.2843  1.1872  0.1730
18130SOL    HW255811   2.500   7.000   8.326 -0.7694  1.8359 -0.1904
18131SOL     OW55812   6.266   5.242   4.000  0.1247  0.1159  0.2765
18131SOL    HW155813   6.258   5.300   3.924  0.2058  0.7823  0.7641
18131SOL    HW255814   6.277   5.302   4.074  1.4572 -0.5473  0.6457
18132SOL     OW55815   6.661   5.614   2.338  1.1961 -0.0560  0.0096
18132SOL    HW155816   6.691   5.704   2.325 -2.1637  1.0719 -0.8574
18132SOL    HW255817   6.671   5.573   2.252 -0.2257  0.5209 -0.4560
18133SOL     OW55818   0.163   5.381   8.171  0.2471  0.3856 -0.7255
18133SOL    HW155819   0.192   5.289   8.163  1.7233  0.8928 -1.6936
18133SOL    HW255820   0.124   5.386   8.258  1.8867 -0.7241  0.1332
18134SOL     OW55821   1.279   5.314   1.943 -0.2204 -0.0926 -0.3595
18134SOL    HW155822   1.208   5.250   1.944 -0.7153  0.4486  0.2669
18134SOL    HW255823   1.234   5.399   1.942  0.1756  0.4892  4.9765
18135SOL     OW55824   4.963   1.619   3.071 -0.6214 -0.4231  0.0971
18135SOL    HW155825   4.991   1.628   3.162  0.6678  0.8583 -0.3650
18135SOL    HW255826   4.880   1.665   3.066 -1.6975 -2.2003  1.0104
18136SOL     OW55827   4.825   7.423   2.452 -0.2853  0.2782  0.0663
18136SOL    HW155828   4.797   7.335   2.425  0.1269  0.1017  0.2061
18136SOL    HW255829   4.920   7.417   2.458 -0.1573  1.0178 -0.9165
18137SOL     OW55830   1.124   6.927   7.215 -0.4078 -0.0446 -0.0269
18137SOL    HW155831   1.187   6.882   7.160 -1.1364 -0.2220 -0.7363
18137SOL    HW255832   1.129   7.019   7.188  0.1125  0.0885  0.4851
18138SOL     OW55833   0.492   1.863   4.523  0.4912  0.7331 -0.0345
18138SOL    HW155834   0.405   1.881   4.558 -0.1722  1.1421 -1.8125
18138SOL    HW255835   0.507   1.771   4.541  0.2947  0.9716  1.5115
18139SOL     OW55836   7.846   2.256   6.131  0.1536  0.1003 -0.5594
18139SOL    HW155837   7.773   2.276   6.072  0.2900  1.6863 -0.2333
18139SOL    HW255838   7.809   2.266   6.219  0.9126  1.6706 -0.3833
18140SOL     OW55839   5.802   6.329   7.921 -0.2345  0.3489 -0.1946
18140SOL    HW155840   5.862   6.277   7.975  0.1521 -0.8311 -1.6607
18140SOL    HW255841   5.858   6.395   7.881 -0.0080 -0.3153 -1.0169
18141SOL     OW55842   7.915   2.165   3.076 -0.3529 -0.2223  0.1692
18141SOL    HW155843   7.910   2.161   2.980  1.0592 -1.4220  0.1109
18141SOL    HW255844   7.852   2.100   3.105 -1.9478  1.2374  0.1413
18142SOL     OW55845   4.179   1.622   2.742 -0.2712  0.2472  0.1288
18142SOL    HW155846   4.112   1.555   2.754 -0.9967  1.1080  1.0183
18142SOL    HW255847   4.262   1.575   2.751 -0.7572 -0.6364  0.0937
18143SOL     OW55848   1.272   7.147   0.447  0.3366  0.1850  0.2250
18143SOL    HW155849   1.198   7.201   0.418 -0.7383 -0.2457  2.0030
18143SOL    HW255850   1.349   7.194   0.417 -0.6189  1.6733  0.0044
18144SOL     OW55851   0.147   0.680   6.136  0.6551  0.1819 -0.0153
18144SOL    HW155852   0.082   0.709   6.200  1.9485 -0.0461  1.4466
18144SOL    HW255853   0.117   0.592   6.111  0.3152  0.1382  0.5208
18145SOL     OW55854   2.763   2.622   6.512  0.2962 -0.3342 -0.2493
18145SOL    HW155855   2.681   2.661   6.539  0.2130 -0.3905 -0.4152
18145SOL    HW255856   2.828   2.692   6.521  0.7000 -0.9346  2.1595
18146SOL     OW55857   1.737   6.721   8.350 -0.1814 -0.0021 -0.2973
18146SOL    HW155858   1.798   6.789   8.323 -0.9223  0.9800  0.3888
18146SOL    HW255859   1.730   6.663   8.275  0.4661  0.6803 -0.9027
18147SOL     OW55860   0.912   7.542   5.940 -0.0664 -0.2095 -0.2420
18147SOL    HW155861   0.865   7.486   6.002 -0.1668 -0.3054 -0.4056
18147SOL    HW255862   0.892   7.505   5.854  0.9652 -0.7456 -0.2691
18148SOL     OW55863   0.853   1.386   4.487  0.2402 -0.3058  0.2505
18148SOL    HW155864   0.903   1.315   4.446  1.3502 -1.0489  2.6516
18148SOL    HW255865   0.893   1.395   4.574  0.8688  4.0189 -0.2583
18149SOL     OW55866   3.374   2.553   6.131 -0.3467 -0.0768 -0.2684
18149SOL    HW155867   3.313   2.586   6.065 -0.7716  0.5291  0.4123
18149SOL    HW255868   3.413   2.632   6.169 -0.6858 -0.3860  0.7406
18150SOL     OW55869   3.118   6.510   4.525  0.0502  0.1782 -0.0889
18150SOL    HW155870   3.082   6.517   4.436  0.6676 -0.6458 -0.4219
18150SOL    HW255871   3.081   6.429   4.559 -1.0498  1.0381  0.8398
18151SOL     OW55872   2.888   3.673   6.763 -0.3304 -0.8663 -0.1711
18151SOL    HW155873   2.903   3.766   6.781 -2.7413 -0.1437 -1.3973
18151SOL    HW255874   2.974   3.632   6.774  0.9202  1.5842 -0.0846
18152SOL     OW55875   5.259   1.804   7.340  0.1150 -0.3212 -0.1938
18152SOL    HW155876   5.224   1.744   7.405  0.4132 -0.4951 -0.1952
18152SOL    HW255877   5.320   1.859   7.388 -0.1144 -0.0544 -0.2046
18153SOL     OW55878   1.926   1.417   5.771  0.0411 -0.4566  0.1436
18153SOL    HW155879   1.892   1.421   5.682 -2.5513 -1.7450  0.9606
18153SOL    HW255880   1.882   1.340   5.810  2.9376 -1.4191  1.8225
18154SOL     OW55881   1.263   3.769   7.085  0.1968  0.1456 -0.4038
18154SOL    HW155882   1.184   3.795   7.134  0.2767 -1.8964  0.9048
18154SOL    HW255883   1.323   3.843   7.097 -0.4222  0.4404  1.1657
18155SOL     OW55884   2.884   5.824   2.005 -0.4741 -0.2843  0.1475
18155SOL    HW155885   2.876   5.731   1.985  0.5624 -0.3428 -0.0248
18155SOL    HW255886   2.834   5.836   2.086 -0.1745 -1.0833  0.4518
18156SOL     OW55887   4.870   5.710   0.931 -0.6068  0.3474  0.1168
18156SOL    HW155888   4.898   5.641   0.992 -0.8699  0.5166  0.4334
18156SOL    HW255889   4.943   5.771   0.929 -0.9337  0.7946  0.9524
18157SOL     OW55890   7.740   0.961   3.119 -0.2135  0.2985  0.4170
18157SOL    HW155891   7.828   0.956   3.157  1.0328  0.8737 -2.1543
18157SOL    HW255892   7.733   0.883   3.064 -0.1002  1.6354 -1.6200
18158SOL     OW55893   6.756   6.848   3.441 -0.2800 -0.5357 -0.2023
18158SOL    HW155894   6.744   6.938   3.409 -0.5919 -0.8353 -0.9564
18158SOL    HW255895   6.740   6.854   3.535  0.1758  0.2855 -0.1673
18159SOL     OW55896   4.522   5.224   4.460  0.1356 -0.0831  0.4818
18159SOL    HW155897   4.503   5.176   4.541 -0.3905 -1.2991 -0.3369
18159SOL    HW255898   4.604   5.186   4.429 -0.5678 -0.8769 -0.4614
18160SOL     OW55899   2.761   0.427   4.530  0.0924 -0.3839  0.1765
18160SOL    HW155900   2.670   0.456   4.538  0.6560  1.2803  0.9019
18160SOL    HW255901   2.763   0.375   4.450 -1.6282 -0.9907  0.4927
18161SOL     OW55902   6.483   6.605   0.976  0.2216  0.7491  0.4260
18161SOL    HW155903   6.392   6.594   1.003 -0.4762  1.3725 -1.4537
18161SOL    HW255904   6.518   6.516   0.972 -0.4242  0.4715  0.7722
18162SOL     OW55905   1.451   5.892   6.768  0.4482  0.0825 -0.0299
18162SOL    HW155906   1.486   5.818   6.818  0.0658  0.2738  0.5379
18162SOL    HW255907   1.528   5.943   6.744  0.8885 -1.3512 -1.8762
18163SOL     OW55908   1.174   0.550   2.608 -0.8068  0.5009  0.2996
18163SOL    HW155909   1.253   0.509   2.575 -0.6760 -0.1824  1.4162
18163SOL    HW255910   1.121   0.478   2.642 -1.0595  1.1184  1.2811
18164SOL     OW55911   6.960   6.209   0.601 -0.5120  0.0216 -0.4944
18164SOL    HW155912   7.047   6.199   0.563 -0.0558 -0.1688  0.5626
18164SOL    HW255913   6.920   6.281   0.551  1.2517  1.9602  0.6974
18165SOL     OW55914   3.133   7.038   3.967 -0.5187  0.0547 -0.1154
18165SOL    HW155915   3.069   7.000   3.908 -0.6094  0.2684 -0.1531
18165SOL    HW255916   3.091   7.117   4.002 -1.3300 -1.1868  1.8861
18166SOL     OW55917   5.716   0.609   1.503 -0.1680  0.1967 -0.0488
18166SOL    HW155918   5.803   0.648   1.502  0.0430 -0.1967  1.1228
18166SOL    HW255919   5.693   0.598   1.410  0.2766  1.9027 -0.3946
18167SOL     OW55920   0.148   4.524   0.163 -0.3182  0.4737 -0.0729
18167SOL    HW155921   0.222   4.464   0.172 -0.4440  0.5616  1.9976
18167SOL    HW255922   0.135   4.559   0.251 -0.9905  2.6784 -0.9923
18168SOL     OW55923   2.550   7.237   2.392  0.3649 -0.1952 -0.4128
18168SOL    HW155924   2.630   7.204   2.432  0.5581 -0.4150 -0.9718
18168SOL    HW255925   2.580   7.287   2.316 -0.0490 -0.7357 -0.9408
18169SOL     OW55926   1.857   0.312   5.425 -0.3453  0.5068 -0.1413
18169SOL    HW155927   1.904   0.384   5.468 -0.2503  0.5773 -0.3604
18169SOL    HW255928   1.912   0.290   5.349 -1.0767  1.1573 -0.8877
18170SOL     OW55929   3.472   5.327   2.051  0.2412  0.2374  0.3655
18170SOL    HW155930   3.427   5.244   2.062 -0.4653  0.5138 -0.3371
18170SOL    HW255931   3.484   5.361   2.140 -1.6845  0.5351  0.5503
18171SOL     OW55932   2.099   6.629   2.775  0.2656 -0.4656 -0.1247
18171SOL    HW155933   2.037   6.559   2.795 -3.7186  2.8451  0.5358
18171SOL    HW255934   2.128   6.661   2.860  0.1917  0.1107 -0.3067
18172SOL     OW55935   4.518   3.835   5.307 -0.1047 -0.2664  0.4963
18172SOL    HW155936   4.470   3.888   5.371  1.6461  1.4147  0.5065
18172SOL    HW255937   4.488   3.867   5.222 -0.5598 -0.7130  0.4872
18173SOL     OW55938   4.072   3.288   3.657  0.0916 -0.5168 -0.6553
18173SOL    HW155939   3.987   3.274   3.700 -0.2248 -1.5577 -1.5592
18173SOL    HW255940   4.132   3.305   3.729 -0.4248 -2.1911  0.2398
18174SOL     OW55941   1.338   1.182   5.728 -0.2876 -0.0100 -0.0156
18174SOL    HW155942   1.382   1.260   5.763 -0.0713 -0.9608  1.9254
18174SOL    HW255943   1.266   1.166   5.789 -0.6384 -1.0390 -0.6847
18175SOL     OW55944   5.601   8.016   8.108 -0.1393  0.0380 -0.6275
18175SOL    HW155945   5.674   8.066   8.073 -1.5928  0.2826 -3.6532
18175SOL    HW255946   5.535   8.083   8.130  1.1508  0.0678  4.3532
18176SOL     OW55947   6.683   6.913   5.032 -0.0329 -0.1188  0.2793
18176SOL    HW155948   6.767   6.958   5.029 -0.5300  0.7732 -0.8964
18176SOL    HW255949   6.621   6.979   5.063 -0.5625 -0.3159 -0.3280
18177SOL     OW55950   2.960   6.367   2.327  0.6005 -0.6165  0.2574
18177SOL    HW155951   3.028   6.368   2.260 -0.4206  0.4897 -0.8277
18177SOL    HW255952   2.971   6.449   2.374 -0.5853  0.0879 -0.6221
18178SOL     OW55953   2.337   5.402   3.720 -0.2393  0.1506  0.2553
18178SOL    HW155954   2.332   5.343   3.645 -0.4108 -1.2837  1.3662
18178SOL    HW255955   2.245   5.419   3.742 -0.2281 -1.1471  1.4227
18179SOL     OW55956   5.967   6.065   6.511  0.4535 -0.2290  0.5639
18179SOL    HW155957   5.964   6.132   6.443  1.9718 -0.7795 -0.0810
18179SOL    HW255958   6.055   6.071   6.548  0.1528 -0.9447  1.4610
18180SOL     OW55959   1.828   7.861   7.048 -0.8016 -0.1413  0.1581
18180SOL    HW155960   1.811   7.780   7.097  1.4719 -0.2835  0.8186
18180SOL    HW255961   1.917   7.885   7.072 -0.0276  0.4869 -2.9968
18181SOL     OW55962   3.024   5.651   3.489  0.1797  0.2670 -0.3250
18181SOL    HW155963   3.032   5.556   3.490 -0.3256  0.2279  0.6160
18181SOL    HW255964   3.113   5.682   3.474  0.2737 -0.3471 -1.1529
18182SOL     OW55965   0.070   7.508   6.520 -0.0168  0.4871 -0.0636
18182SOL    HW155966   0.003   7.577   6.516  0.2077  0.7571  0.7828
18182SOL    HW255967   0.047   7.456   6.596  1.6554  1.5605  1.2423
18183SOL     OW55968   3.103   1.515   8.080  0.3097  0.1845  0.1421
18183SOL    HW155969   3.051   1.471   8.012 -2.5500  1.2510  1.4701
18183SOL    HW255970   3.116   1.449   8.147 -0.1931  0.1675  0.2263
18184SOL     OW55971   0.769   2.140   5.300  0.4274  0.3081 -0.0751
18184SOL    HW155972   0.838   2.080   5.327 -1.1114 -0.3953  2.7263
18184SOL    HW255973   0.815   2.215   5.263  2.6408 -0.4636  0.9460
18185SOL     OW55974   3.103   0.555   1.488  0.1659 -0.2770 -0.1649
18185SOL    HW155975   3.043   0.516   1.551 -1.1903  0.0508 -1.1906
18185SOL    HW255976   3.093   0.649   1.499  0.5524 -0.2182 -0.2903
18186SOL     OW55977   6.457   0.561   6.763  0.0023 -0.1294 -0.3609
18186SOL    HW155978   6.447   0.561   6.668 -2.3899 -0.0745 -0.1754
18186SOL    HW255979   6.399   0.491   6.793  0.8013 -0.2105  1.0624
18187SOL     OW55980   5.838   7.286   6.168  0.0205  0.6917  0.0628
18187SOL    HW155981   5.925   7.255   6.193 -0.0294  0.7360  0.2971
18187SOL    HW255982   5.853   7.341   6.091 -0.0272 -0.8271 -1.0678
18188SOL     OW55983   3.947   2.784   5.377  0.1695  0.0661  0.0550
18188SOL    HW155984   4.005   2.794   5.453  0.5532 -1.4657 -0.0102
18188SOL    HW255985   3.863   2.758   5.414  0.1039  0.2216  0.0150
18189SOL     OW55986   3.275   3.395   0.510 -0.4772 -0.4320 -0.8333
18189SOL    HW155987   3.183   3.415   0.529  0.1279 -0.1800  2.4803
18189SOL    HW255988   3.283   3.301   0.531  0.2630 -0.1477  0.2064
18190SOL     OW55989   3.432   5.145   6.756 -0.0325  0.6608 -0.0353
18190SOL    HW155990   3.466   5.210   6.694  1.2901  1.5444  1.5316
18190SOL    HW255991   3.339   5.166   6.764 -0.2631  0.4787 -1.7282
18191SOL     OW55992   6.937   4.471   1.336  0.3642  0.1748 -0.3180
18191SOL    HW155993   6.936   4.390   1.387 -0.5893  1.3422  1.6326
18191SOL    HW255994   6.845   4.491   1.322  0.6012  0.7656 -1.0737
18192SOL     OW55995   4.038   1.190   6.251 -0.0366  0.2695 -0.4969
18192SOL    HW155996   3.975   1.122   6.227  1.1329 -0.2626 -2.2143
18192SOL    HW255997   4.087   1.152   6.325  1.2743 -1.2582 -2.0611
18193SOL     OW55998   4.654   7.653   6.917 -0.1568 -0.2206 -0.4354
18193SOL    HW155999   4.697   7.736   6.895  0.2598  0.3833  2.3229
18193SOL    HW256000   4.561   7.669   6.901 -0.0666  0.7608 -0.0446
18194SOL     OW56001   2.114   7.844   6.186  0.4120  0.0412 -0.3399
18194SOL    HW156002   2.208   7.848   6.173  0.7120 -0.3260  1.4308
18194SOL    HW256003   2.091   7.928   6.227  0.1515 -0.2634  0.1583
18195SOL     OW56004   3.438   7.641   3.760 -0.1038  0.4136 -0.5096
18195SOL    HW156005   3.474   7.619   3.846 -0.4143 -1.0456 -0.7193
18195SOL    HW256006   3.364   7.581   3.749 -1.2662  1.8851 -1.0053
18196SOL     OW56007   4.323   5.765   1.690 -0.1854 -0.5220 -0.7807
18196SOL    HW156008   4.385   5.744   1.759 -0.4161 -0.3062 -0.5032
18196SOL    HW256009   4.343   5.856   1.667 -0.4648 -0.4171 -0.6160
18197SOL     OW56010   7.642   1.733   7.690 -0.3880 -0.4285 -0.3900
18197SOL    HW156011   7.619   1.734   7.782 -0.4758  0.0275 -0.4112
18197SOL    HW256012   7.642   1.826   7.665 -0.7716 -0.5717 -0.9459
18198SOL     OW56013   6.827   5.343   0.224 -0.5402 -0.2080 -0.0215
18198SOL    HW156014   6.899   5.310   0.170 -0.4640  0.0407 -0.0735
18198SOL    HW256015   6.810   5.273   0.287  0.0534 -0.0787  0.2865
18199SOL     OW56016   1.726   0.607   1.453 -0.3536 -0.4739 -0.6858
18199SOL    HW156017   1.800   0.596   1.392 -1.7201 -3.2181 -2.0260
18199SOL    HW256018   1.669   0.533   1.435 -2.5841  0.5446  1.5897
18200SOL     OW56019   5.718   5.554   7.404 -0.1241  0.3206 -0.0220
18200SOL    HW156020   5.678   5.579   7.321  0.0221  1.1703  0.1551
18200SOL    HW256021   5.812   5.556   7.387 -0.1132 -0.2379 -0.0380
18201SOL     OW56022   3.401   0.685   5.873 -0.1875  0.6388  0.0735
18201SOL    HW156023   3.364   0.610   5.826 -0.9623  0.8033  0.4163
18201SOL    HW256024   3.339   0.756   5.857  1.6613  1.9093 -2.1997
18202SOL     OW56025   3.531   3.530   6.366  0.3188 -0.1279 -0.4493
18202SOL    HW156026   3.591   3.465   6.402  0.0873  1.2294  2.7546
18202SOL    HW256027   3.583   3.579   6.303  1.4733 -1.2488 -0.4120
18203SOL     OW56028   5.604   8.273   5.071  0.3633  0.2970 -0.1919
18203SOL    HW156029   5.649   8.284   5.155  0.0114  1.0445 -0.0841
18203SOL    HW256030   5.539   8.205   5.086  0.4705  0.2552  0.0765
18204SOL     OW56031   5.360   6.256   5.632  0.4705  0.2994 -0.0273
18204SOL    HW156032   5.335   6.171   5.667  0.2248  0.0976 -0.6681
18204SOL    HW256033   5.442   6.238   5.584  1.4014  0.7818  1.3373
18205SOL     OW56034   6.608   1.495   0.336  0.4013  0.0845 -0.5356
18205SOL    HW156035   6.590   1.403   0.354  0.2815  0.2860  0.4125
18205SOL    HW256036   6.526   1.540   0.353  0.2667  0.2961 -1.6442
18206SOL     OW56037   3.123   7.172   1.836  0.0026  0.4208 -0.4767
18206SOL    HW156038   3.218   7.171   1.846  0.0642  1.2102 -0.8617
18206SOL    HW256039   3.109   7.169   1.742 -0.2978  1.7228 -0.4941
18207SOL     OW56040   2.894   6.183   5.809  0.1391 -0.3809 -0.7384
18207SOL    HW156041   2.885   6.148   5.720 -1.4607 -1.4760 -0.1910
18207SOL    HW256042   2.945   6.118   5.856  0.7022  0.0399 -0.7617
18208SOL     OW56043   7.879   6.195   3.399 -0.1783 -0.4978  0.4632
18208SOL    HW156044   7.919   6.276   3.367  0.9416 -0.8537  0.9120
18208SOL    HW256045   7.842   6.155   3.321  1.0030 -0.5087 -0.1174
18209SOL     OW56046   2.723   3.174   1.061 -0.1009 -0.1442  0.3084
18209SOL    HW156047   2.719   3.149   1.154  0.9029  2.2244  1.0551
18209SOL    HW256048   2.666   3.251   1.055 -1.6188 -1.3284 -1.4810
18210SOL     OW56049   6.435   6.896   1.651  0.5730 -0.1582  0.3873
18210SOL    HW156050   6.524   6.864   1.632  0.3190 -0.6354 -0.0138
18210SOL    HW256051   6.425   6.972   1.594 -0.4193 -1.9524 -1.9736
18211SOL     OW56052   6.662   7.474   1.154 -0.1292 -0.2384 -0.3682
18211SOL    HW156053   6.668   7.388   1.197  1.7318 -0.1233 -0.2898
18211SOL    HW256054   6.575   7.506   1.176 -0.4041 -1.5787  0.6329
18212SOL     OW56055   4.322   0.354   4.490 -0.5194 -0.2009 -0.0550
18212SOL    HW156056   4.355   0.430   4.537  0.1268 -0.0096 -0.8027
18212SOL    HW256057   4.370   0.280   4.528 -0.8844 -0.2026  0.4191
18213SOL     OW56058   0.119   5.777   7.408  0.1149 -0.0922  0.2864
18213SOL    HW156059   0.059   5.836   7.363  0.1644 -0.0299  0.3034
18213SOL    HW256060   0.205   5.797   7.370 -0.0315 -0.9426 -0.5534
18214SOL     OW56061   2.463   0.553   2.571 -0.2813 -0.0050 -0.0341
18214SOL    HW156062   2.448   0.551   2.477  0.9384  0.5086 -0.2571
18214SOL    HW256063   2.557   0.565   2.580 -0.6075  2.2106  1.2168
18215SOL     OW56064   3.982   5.176   1.399 -0.4507  0.4427 -0.3669
18215SOL    HW156065   4.067   5.195   1.440  0.6751 -2.1909 -1.2841
18215SOL    HW256066   3.944   5.108   1.455 -0.9511  0.0628 -1.1558
18216SOL     OW56067   0.630   5.869   7.126  0.1110  0.0859 -0.3082
18216SOL    HW156068   0.667   5.782   7.116 -1.5786 -0.5558 -1.4126
18216SOL    HW256069   0.645   5.912   7.042 -0.6148  0.2158 -0.3825
18217SOL     OW56070   3.298   3.169   3.747  0.4554 -0.5353  0.4077
18217SOL    HW156071   3.366   3.219   3.792  0.6142 -0.6538  0.3006
18217SOL    HW256072   3.315   3.183   3.654 -0.3342  0.3339  0.3812
18218SOL     OW56073   7.019   5.610   2.251 -0.2798  0.2122 -0.3357
18218SOL    HW156074   7.027   5.515   2.258  0.3066  0.2368 -0.6299
18218SOL    HW256075   6.971   5.624   2.169 -0.9182  0.1577  0.0177
18219SOL     OW56076   3.960   4.901   0.496 -0.1209  0.2962 -0.2950
18219SOL    HW156077   3.884   4.957   0.479 -0.2608 -0.0739 -0.9312
18219SOL    HW256078   3.945   4.866   0.584  0.2871  1.7519  0.3826
18220SOL     OW56079   6.270   1.439   3.633 -0.3590  0.1381 -0.2894
18220SOL    HW156080   6.323   1.392   3.568  1.6455  1.1709  0.5159
18220SOL    HW256081   6.281   1.387   3.713 -0.0284  0.7037  0.0354
18221SOL     OW56082   3.051   0.363   4.394  0.5618  0.4545 -0.4216
18221SOL    HW156083   2.990   0.300   4.355 -0.6011  1.4013 -0.2024
18221SOL    HW256084   3.009   0.448   4.379  0.3805  0.9158  2.3088
18222SOL     OW56085   7.053   0.724   5.429 -0.5590 -0.6371  0.0574
18222SOL    HW156086   7.027   0.769   5.509 -0.5664  0.5803 -0.6155
18222SOL    HW256087   7.047   0.790   5.360  1.7966 -0.9607 -0.5677
18223SOL     OW56088   5.887   8.239   1.198 -0.0087 -0.2588 -0.6147
18223SOL    HW156089   5.922   8.325   1.221 -0.3761 -0.4331  0.7211
18223SOL    HW256090   5.792   8.249   1.204 -0.0345 -1.0335  0.7711
18224SOL     OW56091   7.556   7.136   4.100  0.9700  0.0474  0.1845
18224SOL    HW156092   7.465   7.106   4.104 -0.1356  3.0217 -0.2248
18224SOL    HW256093   7.604   7.059   4.069 -1.7059 -1.1175 -1.5549
18225SOL     OW56094   4.873   1.881   3.404 -0.3643  0.6344 -0.2561
18225SOL    HW156095   4.908   1.921   3.483  0.8438  2.3062 -1.5552
18225SOL    HW256096   4.945   1.828   3.370 -1.7713 -2.4114  1.1483
18226SOL     OW56097   4.862   7.619   6.471  0.5356 -0.8361  0.2043
18226SOL    HW156098   4.784   7.568   6.452  1.4510 -1.0609 -3.9451
18226SOL    HW256099   4.932   7.554   6.478  0.8963 -0.4576  0.1799
18227SOL     OW56100   5.312   1.700   7.076  0.0985 -0.5003  0.7421
18227SOL    HW156101   5.275   1.615   7.097  0.1220 -0.1974  2.1261
18227SOL    HW256102   5.313   1.747   7.160 -1.9348  1.6628 -0.3373
18228SOL     OW56103   2.732   4.343   6.834 -0.1393 -0.1912 -0.3421
18228SOL    HW156104   2.762   4.424   6.794  0.1451 -0.8558 -1.5251
18228SOL    HW256105   2.807   4.310   6.882  0.2079 -0.4620 -1.0462
18229SOL     OW56106   5.645   2.309   7.082  0.3963 -0.2231  0.1943
18229SOL    HW156107   5.637   2.392   7.037  0.6375  0.4807  1.3925
18229SOL    HW256108   5.727   2.316   7.131 -0.4876 -0.3789  1.7918
18230SOL     OW56109   0.677   3.584   5.333 -0.6094  0.5464  0.0681
18230SOL    HW156110   0.609   3.567   5.398 -0.9752 -1.0097 -0.6765
18230SOL    HW256111   0.629   3.598   5.251 -0.0690 -1.7043 -0.7076
18231SOL     OW56112   2.820   5.284   3.797  0.2853 -0.0201  0.3424
18231SOL    HW156113   2.874   5.237   3.733 -0.3339  0.0838 -0.2662
18231SOL    HW256114   2.814   5.373   3.762 -1.8494 -0.4872 -0.6233
18232SOL     OW56115   6.722   6.772   1.380 -0.5627  0.4637 -0.2958
18232SOL    HW156116   6.633   6.750   1.354  0.3666 -1.1176 -2.3695
18232SOL    HW256117   6.773   6.693   1.364  1.3677  1.5457  0.1112
18233SOL     OW56118   2.176   5.675   6.324  0.1279 -0.2900  0.2429
18233SOL    HW156119   2.099   5.688   6.379  0.8840 -0.2412  1.3253
18233SOL    HW256120   2.180   5.581   6.311  1.0333 -0.5384  1.9590
18234SOL     OW56121   2.107   6.415   7.572 -0.2702 -0.3853 -0.1167
18234SOL    HW156122   2.074   6.481   7.633 -1.0739 -0.9970  0.1249
18234SOL    HW256123   2.168   6.363   7.624  0.5066  0.2732 -0.3571
18235SOL     OW56124   2.378   3.201   0.913  0.2982 -0.3904 -0.8554
18235SOL    HW156125   2.401   3.181   1.004 -0.8154 -0.4408 -0.5631
18235SOL    HW256126   2.282   3.193   0.911  0.3558 -0.9718 -2.1715
18236SOL     OW56127   4.953   0.495   6.397 -0.2424  0.2791  0.4132
18236SOL    HW156128   4.877   0.529   6.446  1.9036  1.4209  3.2474
18236SOL    HW256129   4.992   0.573   6.357  0.3373 -0.0234  0.3832
18237SOL     OW56130   6.179   3.275   4.188 -0.1017 -0.4899 -0.2983
18237SOL    HW156131   6.139   3.234   4.112 -2.3826 -1.9527  1.5707
18237SOL    HW256132   6.160   3.215   4.261  2.0751  0.7721  1.4359
18238SOL     OW56133   5.463   4.908   4.133 -0.2363  0.0039 -0.4511
18238SOL    HW156134   5.390   4.868   4.178  1.6489 -0.2179  2.6937
18238SOL    HW256135   5.476   4.992   4.177  0.0615  1.0885 -2.4512
18239SOL     OW56136   2.401   5.223   8.295 -0.1391 -0.6306 -0.3248
18239SOL    HW156137   2.473   5.193   8.350 -1.0700 -1.6857  0.3492
18239SOL    HW256138   2.412   5.175   8.213  0.3460 -0.2247 -0.5035
18240SOL     OW56139   6.933   5.720   0.536  0.2377  0.1262  0.5231
18240SOL    HW156140   6.967   5.630   0.537 -1.5427 -0.5838  0.0730
18240SOL    HW256141   6.849   5.714   0.491  0.0772  2.0371  0.4818
18241SOL     OW56142   3.467   5.930   6.947  0.3672 -0.1980 -0.3762
18241SOL    HW156143   3.558   5.904   6.937  0.2230 -1.1074  0.5548
18241SOL    HW256144   3.471   6.023   6.971  1.0489 -0.3140 -0.0284
18242SOL     OW56145   0.463   4.237   6.349 -0.8274 -0.4471 -0.3293
18242SOL    HW156146   0.371   4.215   6.360 -0.6023 -1.3497 -0.1407
18242SOL    HW256147   0.483   4.215   6.258 -1.0047  0.5693 -0.6231
18243SOL     OW56148   2.504   5.189   0.478  0.1131  0.8057 -0.1298
18243SOL    HW156149   2.564   5.117   0.457 -0.1137  1.1137 -2.0450
18243SOL    HW256150   2.558   5.268   0.469 -0.1836  0.9959 -0.2534
18244SOL     OW56151   4.155   2.014   5.572  0.2484  0.6295  0.1078
18244SOL    HW156152   4.207   1.945   5.614 -0.5847  0.2281  0.4950
18244SOL    HW256153   4.082   1.968   5.531  0.9622  1.0170 -1.7101
18245SOL     OW56154   3.154   0.696   4.362 -0.5178 -0.5636  0.1728
18245SOL    HW156155   3.062   0.674   4.350 -1.2255  0.9784  2.2238
18245SOL    HW256156   3.165   0.702   4.457  1.1322  1.4067 -0.0764
18246SOL     OW56157   3.243   1.026   0.929  0.0932  0.7470  0.0573
18246SOL    HW156158   3.214   1.111   0.894  1.2885  1.0660 -0.2090
18246SOL    HW256159   3.228   1.032   1.023 -0.5277  0.9555 -0.0469
18247SOL     OW56160   4.050   1.416   0.041 -0.3146 -0.2321  0.2198
18247SOL    HW156161   3.973   1.462   0.074  1.8046  2.8032  1.3762
18247SOL    HW256162   4.085   1.369   0.116 -0.1928 -0.3515  0.0904
18248SOL     OW56163   0.747   2.483   0.618 -0.1993  0.0375  0.3248
18248SOL    HW156164   0.706   2.565   0.647  0.4337  0.6264 -0.3937
18248SOL    HW256165   0.737   2.483   0.523 -1.9077 -1.6893  0.4546
18249SOL     OW56166   1.310   1.821   3.185 -0.1424  0.6208 -0.2024
18249SOL    HW156167   1.253   1.884   3.141 -0.8189  0.1870  0.0319
18249SOL    HW256168   1.254   1.746   3.203  0.4152  0.3198  0.3491
18250SOL     OW56169   0.323   6.162   2.188 -0.3761 -0.6666  0.4074
18250SOL    HW156170   0.273   6.242   2.200 -0.7567 -0.3700 -2.4943
18250SOL    HW256171   0.415   6.191   2.186 -0.4695 -0.3883  0.0897
18251SOL     OW56172   6.123   2.062   7.982  0.1500  0.0374 -0.2460
18251SOL    HW156173   6.145   1.975   8.016  1.4042  0.2805 -0.4014
18251SOL    HW256174   6.177   2.122   8.032  0.7684  0.5499 -1.4788
18252SOL     OW56175   1.278   4.607   8.021  0.6121  0.4769 -0.6695
18252SOL    HW156176   1.357   4.661   8.029  0.3175  0.7387  0.6881
18252SOL    HW256177   1.207   4.670   8.006  0.4491  0.3573 -0.3953
18253SOL     OW56178   6.452   1.272   5.785 -0.2491 -0.3591 -0.0285
18253SOL    HW156179   6.506   1.347   5.809  0.9548 -1.0584 -0.4368
18253SOL    HW256180   6.393   1.260   5.859 -0.6126  1.1064 -0.0476
18254SOL     OW56181   2.469   6.778   0.724 -0.6948  0.1813  0.0380
18254SOL    HW156182   2.466   6.827   0.642 -3.4077 -1.3674 -0.9386
18254SOL    HW256183   2.450   6.843   0.792  0.2003  1.2333 -0.6963
18255SOL     OW56184   3.555   2.614   3.182 -0.3611  0.3042  0.1529
18255SOL    HW156185   3.511   2.687   3.139  1.6944  0.1359 -2.5254
18255SOL    HW256186   3.586   2.650   3.265 -0.4246  2.1120 -0.5652
18256SOL     OW56187   3.883   0.405   4.511  0.0806 -0.0817  0.0241
18256SOL    HW156188   3.912   0.490   4.545 -0.2080  0.3408 -0.7453
18256SOL    HW256189   3.962   0.367   4.472  0.6735 -1.0440  2.0137
18257SOL     OW56190   7.924   1.862   7.578  0.1994 -0.0556 -0.6506
18257SOL    HW156191   7.928   1.937   7.638 -2.0726 -0.8257  0.5648
18257SOL    HW256192   7.831   1.850   7.561  0.5664 -2.1142 -1.4573
18258SOL     OW56193   6.521   5.841   3.041  0.3235 -0.1921  0.3407
18258SOL    HW156194   6.473   5.810   2.964  2.3730 -2.0325 -0.3121
18258SOL    HW256195   6.507   5.774   3.107 -0.0735  0.5488  1.0210
18259SOL     OW56196   1.429   5.326   6.406 -0.1071  0.5390  0.1471
18259SOL    HW156197   1.406   5.312   6.498  0.1269  1.6401  0.3911
18259SOL    HW256198   1.460   5.417   6.403  0.7321  0.2344 -0.8534
18260SOL     OW56199   4.377   5.595   3.042 -0.5354 -0.1519 -0.4657
18260SOL    HW156200   4.353   5.659   2.976 -2.5087 -1.8290 -1.4753
18260SOL    HW256201   4.455   5.552   3.006  1.4507  2.2130  0.6897
18261SOL     OW56202   4.790   3.622   7.019  0.0812 -0.3709 -0.0720
18261SOL    HW156203   4.845   3.546   7.001  0.8043  0.2494 -0.5528
18261SOL    HW256204   4.709   3.605   6.971  0.2841 -0.7801 -0.2770
18262SOL     OW56205   1.755   3.841   0.359 -0.1202  0.1463 -0.0508
18262SOL    HW156206   1.690   3.909   0.340 -0.0419 -0.1041 -1.3075
18262SOL    HW256207   1.815   3.882   0.421 -0.6079  0.9089 -0.0715
18263SOL     OW56208   5.935   1.384   1.401  0.2991  0.0158 -0.3265
18263SOL    HW156209   5.872   1.455   1.394 -1.9051 -1.9174 -1.5445
18263SOL    HW256210   5.969   1.372   1.313 -1.0332 -1.7953 -0.6456
18264SOL     OW56211   1.897   3.756   7.836  0.2887  0.0163 -0.4415
18264SOL    HW156212   1.889   3.813   7.912 -0.8036  0.3870 -0.8177
18264SOL    HW256213   1.991   3.737   7.829  0.4161  0.1045  0.8920
18265SOL     OW56214   0.164   3.427   6.044  0.1766 -0.3157  0.3685
18265SOL    HW156215   0.092   3.417   6.106  0.2690 -0.1617  0.5030
18265SOL    HW256216   0.226   3.485   6.089 -0.8712  1.8385 -0.8157
18266SOL     OW56217   8.219   2.881   0.399 -0.0728 -0.4270  0.1805
18266SOL    HW156218   8.287   2.910   0.459  0.6312 -1.8822  0.1494
18266SOL    HW256219   8.204   2.789   0.422 -0.6942 -0.6601 -1.0340
18267SOL     OW56220   0.827   3.912   0.608  0.5996 -0.5192 -0.8913
18267SOL    HW156221   0.762   3.936   0.541 -0.4462 -0.3384  0.1378
18267SOL    HW256222   0.828   3.817   0.608  0.1046 -0.5296 -0.7262
18268SOL     OW56223   0.570   0.373   0.304  0.3080  0.1029  0.4861
18268SOL    HW156224   0.604   0.332   0.383 -0.6048 -2.4538 -0.3683
18268SOL    HW256225   0.480   0.342   0.297 -0.2153  1.7183 -0.6373
18269SOL     OW56226   1.545   5.876   7.198 -0.8575 -0.3371 -0.0356
18269SOL    HW156227   1.526   5.783   7.184  0.7995 -0.8929  1.1100
18269SOL    HW256228   1.612   5.897   7.134 -2.6107  0.6556 -1.6413
18270SOL     OW56229   2.102   2.770   5.605  0.2077 -0.5932 -0.3117
18270SOL    HW156230   2.188   2.787   5.643 -0.2786  0.3848  0.3821
18270SOL    HW256231   2.058   2.715   5.670  0.5466 -1.7179 -0.9977
18271SOL     OW56232   0.064   1.702   1.154  0.3210  0.0278 -0.5468
18271SOL    HW156233  -0.000   1.643   1.114 -0.1363  0.5736 -0.6378
18271SOL    HW256234   0.096   1.755   1.081 -1.2204  1.6845 -0.1102
18272SOL     OW56235   0.448   2.261   1.343  0.4166 -0.3100 -0.4641
18272SOL    HW156236   0.437   2.354   1.321  0.9592 -0.3354 -0.8560
18272SOL    HW256237   0.482   2.222   1.263 -1.0595 -1.1044 -0.7314
18273SOL     OW56238   2.944   0.334   6.720  0.1066  0.0030 -0.3106
18273SOL    HW156239   2.889   0.339   6.798  0.6990 -0.0710  0.1111
18273SOL    HW256240   2.937   0.421   6.680 -0.2145  0.0339 -0.1879
18274SOL     OW56241   5.998   3.009   8.272 -0.5906 -0.0263 -0.7409
18274SOL    HW156242   5.998   3.091   8.322 -1.4135 -0.9506  0.8421
18274SOL    HW256243   5.962   3.034   8.187 -0.2670  1.3695 -0.4987
18275SOL     OW56244   7.044   5.128   0.577  0.4896  0.0407  0.2670
18275SOL    HW156245   7.072   5.054   0.631 -1.4522  0.3869  1.8412
18275SOL    HW256246   7.049   5.204   0.635  0.1599  0.7605 -0.6252
18276SOL     OW56247   7.681   4.225   6.656  0.1113 -0.2002 -0.2842
18276SOL    HW156248   7.724   4.145   6.687 -0.7347  0.0231  1.5796
18276SOL    HW256249   7.733   4.252   6.580  2.7297 -0.4285  1.3242
18277SOL     OW56250   5.671   0.781   6.361 -0.1229  0.2023  0.1124
18277SOL    HW156251   5.653   0.851   6.424  0.6279  0.7202 -0.2388
18277SOL    HW256252   5.597   0.721   6.371 -1.0928  1.3365 -0.0017
18278SOL     OW56253   0.140   7.896   0.031 -0.4184  0.2225 -0.8692
18278SOL    HW156254   0.138   7.802   0.045  2.3689  0.1627 -0.4196
18278SOL    HW256255   0.084   7.910  -0.046 -2.2763 -1.5120  0.0614
18279SOL     OW56256   2.455   6.352   4.423 -0.3780 -0.2110 -0.1260
18279SOL    HW156257   2.432   6.427   4.478 -1.2822 -0.2864 -0.3821
18279SOL    HW256258   2.374   6.330   4.378 -0.1926 -1.5061  0.1382
18280SOL     OW56259   2.843   5.350   2.447 -0.1672  0.1894 -0.7905
18280SOL    HW156260   2.804   5.434   2.471 -2.5223 -0.4103 -2.1375
18280SOL    HW256261   2.872   5.361   2.357 -0.2446 -0.3559 -0.8885
18281SOL     OW56262   2.627   1.099   3.263  0.4286  0.1864  0.8777
18281SOL    HW156263   2.692   1.042   3.223  0.8740  1.9093 -1.0281
18281SOL    HW256264   2.578   1.136   3.189 -2.1593 -0.3326  2.1964
18282SOL     OW56265   5.230   3.355   5.088 -0.8028  0.1545 -0.7750
18282SOL    HW156266   5.211   3.411   5.164  0.9875  1.1479 -0.9856
18282SOL    HW256267   5.255   3.271   5.126 -1.8402  0.0056 -0.3747
18283SOL     OW56268   0.805   2.985   2.165 -0.4577  0.5595  0.9777
18283SOL    HW156269   0.871   3.012   2.229 -1.5967 -0.5473  2.6765
18283SOL    HW256270   0.808   2.890   2.166 -1.5951  0.5073  0.5413
18284SOL     OW56271   8.037   3.347   2.874  0.6989  0.0378  0.0746
18284SOL    HW156272   8.123   3.387   2.882  0.2326  1.1552 -0.2372
18284SOL    HW256273   8.047   3.280   2.807  1.1005  0.8302 -0.6650
18285SOL     OW56274   5.348   2.093   5.899  0.0242 -0.5141 -0.3211
18285SOL    HW156275   5.371   2.164   5.958 -0.9211 -1.4751  1.2892
18285SOL    HW256276   5.420   2.090   5.836  1.1541  0.4776  0.8583
18286SOL     OW56277   8.159   4.022   0.710 -0.2998  0.0449 -0.0967
18286SOL    HW156278   8.187   4.099   0.760 -0.7924 -0.1057  0.4118
18286SOL    HW256279   8.068   4.008   0.736 -0.4817 -0.1951 -0.8352
18287SOL     OW56280   4.144   2.358   6.922  0.9230  0.5888 -0.0177
18287SOL    HW156281   4.099   2.288   6.970 -2.1428  0.7218 -2.4025
18287SOL    HW256282   4.095   2.437   6.943  1.8907  1.3228 -0.4348
18288SOL     OW56283   0.637   4.894   6.737  0.1445  0.1583  0.3585
18288SOL    HW156284   0.553   4.934   6.761 -0.3481 -0.2645 -0.6028
18288SOL    HW256285   0.696   4.917   6.808 -0.6412  0.9533  0.7695
18289SOL     OW56286   4.436   5.329   1.694 -0.3032 -0.2201  0.0970
18289SOL    HW156287   4.358   5.349   1.745  0.0866  0.7532  0.3456
18289SOL    HW256288   4.475   5.253   1.736 -1.5181 -1.1939 -0.4886
18290SOL     OW56289   4.000   8.100   2.464  0.5294 -0.5279  0.0266
18290SOL    HW156290   4.092   8.084   2.445  0.7207 -0.6672  1.0014
18290SOL    HW256291   3.987   8.062   2.551  0.5797  2.9394  1.7353
18291SOL     OW56292   1.400   0.869   1.447  0.6740 -0.3114 -0.1754
18291SOL    HW156293   1.363   0.811   1.380 -0.3697  1.2393 -0.9938
18291SOL    HW256294   1.332   0.872   1.515  0.1790  0.8521 -0.6925
18292SOL     OW56295   0.996   4.401   5.092 -0.2879 -0.0246 -0.0804
18292SOL    HW156296   0.943   4.325   5.070  0.1334  0.0849 -1.6328
18292SOL    HW256297   0.934   4.466   5.125 -0.6265 -1.0683  1.4357
18293SOL     OW56298   7.260   2.006   0.400 -0.4282  0.7445  0.2250
18293SOL    HW156299   7.214   2.051   0.329 -1.9594 -1.0104  0.0388
18293SOL    HW256300   7.195   1.947   0.438  1.2808 -0.8249  0.8800
18294SOL     OW56301   2.792   0.055   6.851  0.2761  0.3489 -0.4445
18294SOL    HW156302   2.727   0.079   6.785 -3.5330  0.1681  2.8597
18294SOL    HW256303   2.815   0.139   6.893 -0.3654  0.0899  0.4592
18295SOL     OW56304   0.346   0.300   5.179 -0.2270  0.5203  0.0782
18295SOL    HW156305   0.301   0.221   5.149 -0.3350  0.8124 -0.5451
18295SOL    HW256306   0.292   0.372   5.146  0.9077  0.8896 -1.0718
18296SOL     OW56307   4.064   3.498   4.713  0.3246  0.0228 -0.0952
18296SOL    HW156308   4.063   3.441   4.636 -1.4813 -0.5045  0.2767
18296SOL    HW256309   3.972   3.515   4.732  0.7380  0.5726  1.6434
18297SOL     OW56310   0.427   7.163   1.478 -0.1934 -0.0637 -0.1996
18297SOL    HW156311   0.434   7.068   1.489 -0.4162 -0.2150 -1.2656
18297SOL    HW256312   0.500   7.198   1.530 -1.3921 -0.6607  1.9746
18298SOL     OW56313   7.530   4.528   8.301 -0.3213 -0.3787 -0.5599
18298SOL    HW156314   7.600   4.575   8.348  1.3138 -2.6539 -0.5753
18298SOL    HW256315   7.531   4.567   8.214  1.4907 -0.8387 -0.7934
18299SOL     OW56316   2.210   4.109   3.874 -0.0720 -0.0509 -0.3482
18299SOL    HW156317   2.153   4.035   3.894 -0.4458  0.4159  0.3599
18299SOL    HW256318   2.223   4.153   3.958  0.8674  0.1803 -0.6029
18300SOL     OW56319   1.377   0.506   4.255  0.1646 -0.2285 -0.3154
18300SOL    HW156320   1.332   0.573   4.307  0.1915 -0.5631  0.1493
18300SOL    HW256321   1.308   0.462   4.206  0.1269  0.0218 -0.4907
18301SOL     OW56322   7.449   0.722   2.543 -0.2890 -0.2641 -0.0007
18301SOL    HW156323   7.372   0.716   2.488  0.0293  0.2094 -0.5112
18301SOL    HW256324   7.470   0.816   2.543 -0.1602 -0.2878  0.7488
18302SOL     OW56325   6.180   6.172   1.421  0.0511 -0.2901  0.3508
18302SOL    HW156326   6.202   6.265   1.413  1.1309 -0.5219  0.4840
18302SOL    HW256327   6.262   6.130   1.447 -0.1872 -1.4095 -0.6047
18303SOL     OW56328   5.794   3.240   6.719  0.0678 -0.1275 -0.3021
18303SOL    HW156329   5.725   3.249   6.786  0.9657 -1.5166  0.8703
18303SOL    HW256330   5.839   3.159   6.742  2.2398  0.8326 -0.8999
18304SOL     OW56331   4.822   2.226   3.572  0.2111  0.0642  0.6198
18304SOL    HW156332   4.915   2.234   3.591  0.4486  0.1142 -0.4888
18304SOL    HW256333   4.788   2.316   3.577  0.2892  0.0899  0.6849
18305SOL     OW56334   7.973   0.893   4.103 -0.1643  0.1411 -0.0080
18305SOL    HW156335   8.047   0.917   4.047 -0.4230 -0.0635 -0.4456
18305SOL    HW256336   7.968   0.962   4.168  0.1622  0.3700 -0.2248
18306SOL     OW56337   4.868   3.239   4.234  0.2594 -0.0898 -0.1336
18306SOL    HW156338   4.910   3.302   4.292 -0.8765  0.1458  0.4610
18306SOL    HW256339   4.859   3.284   4.150 -1.0154  0.7544  0.4315
18307SOL     OW56340   3.408   7.289   4.424  0.6723 -0.0314 -0.2852
18307SOL    HW156341   3.439   7.228   4.358  1.4234  0.5650 -0.4940
18307SOL    HW256342   3.450   7.261   4.505  0.1015 -0.4926 -0.1464
18308SOL     OW56343   8.048   1.405   2.544 -0.7391 -0.1635  0.0812
18308SOL    HW156344   8.051   1.493   2.580 -1.9247 -1.0637  2.6182
18308SOL    HW256345   8.132   1.366   2.567 -1.0659 -0.3720  0.9790
18309SOL     OW56346   8.139   5.471   0.932 -0.0122 -0.3738 -0.3490
18309SOL    HW156347   8.211   5.527   0.900 -0.7650  1.5086  1.0532
18309SOL    HW256348   8.183   5.396   0.972  1.2079  0.7141  0.4247
18310SOL     OW56349   3.811   7.428   4.308  0.4928 -0.0747 -0.1908
18310SOL    HW156350   3.900   7.455   4.285  1.4406 -0.8214  2.3192
18310SOL    HW256351   3.777   7.500   4.361 -0.3698  0.1313 -0.9986
18311SOL     OW56352   1.258   4.355   8.281  0.2265 -0.1272 -0.0753
18311SOL    HW156353   1.213   4.376   8.199 -0.0333 -3.0173 -0.7722
18311SOL    HW256354   1.243   4.262   8.294  1.3097 -0.0144  2.6597
18312SOL     OW56355   7.702   3.710   5.642  0.3305 -0.6011 -0.5361
18312SOL    HW156356   7.637   3.770   5.606  1.3600  1.2836  0.6191
18312SOL    HW256357   7.771   3.707   5.576  0.4206 -0.2500 -0.4602
18313SOL     OW56358   7.752   2.745   6.875 -0.1663 -0.1283  0.1080
18313SOL    HW156359   7.766   2.739   6.969 -1.2622 -1.1992  0.2111
18313SOL    HW256360   7.696   2.822   6.864 -0.3899 -0.2566  0.3591
18314SOL     OW56361   6.560   6.876   7.456 -0.0264  0.5224  0.3563
18314SOL    HW156362   6.652   6.854   7.474  0.1657  1.7790  1.0049
18314SOL    HW256363   6.535   6.933   7.529 -1.3130  0.2336  0.1486
18315SOL     OW56364   5.170   3.866   2.404 -0.6741 -0.2241 -0.3604
18315SOL    HW156365   5.190   3.827   2.319 -1.1517  1.7560 -1.4435
18315SOL    HW256366   5.079   3.842   2.421  0.0599 -2.5210  0.7445
18316SOL     OW56367   8.183   7.129   2.439  0.0079  0.3918 -0.6246
18316SOL    HW156368   8.137   7.107   2.357  0.1701 -1.9789 -0.1450
18316SOL    HW256369   8.124   7.099   2.508  0.4020  1.2850  0.1247
18317SOL     OW56370   4.739   7.996   3.935  0.5094 -0.2374  0.1279
18317SOL    HW156371   4.833   8.012   3.936  0.1914  1.9268  0.7688
18317SOL    HW256372   4.713   8.012   3.844  0.9127 -2.2959 -0.4099
18318SOL     OW56373   3.997   0.862   2.890 -0.1538 -1.0994 -0.1438
18318SOL    HW156374   3.982   0.770   2.912  0.5878 -1.2165 -0.0965
18318SOL    HW256375   3.933   0.882   2.822 -1.6977 -1.0711  1.2557
18319SOL     OW56376   2.332   6.293   5.804 -0.6358  0.5968 -1.2183
18319SOL    HW156377   2.312   6.200   5.818  1.2690  0.3528  0.3381
18319SOL    HW256378   2.425   6.293   5.779 -0.2168  2.1638  0.2026
18320SOL     OW56379   3.427   3.130   6.382  0.4296 -0.1020  0.3302
18320SOL    HW156380   3.516   3.094   6.383  0.7675  0.5204 -1.7895
18320SOL    HW256381   3.406   3.139   6.289 -2.7781 -2.3708  0.6866
18321SOL     OW56382   6.983   3.872   0.964  0.1253  0.0119  0.1371
18321SOL    HW156383   7.036   3.952   0.967 -0.5549  0.4522  0.6448
18321SOL    HW256384   6.915   3.892   0.899 -0.2070 -0.0489  0.4650
18322SOL     OW56385   5.199   4.171   1.699  0.1346  0.5331  0.2972
18322SOL    HW156386   5.258   4.096   1.702 -1.0067 -0.5183 -1.5830
18322SOL    HW256387   5.114   4.136   1.728 -0.0109  1.5646  1.1729
18323SOL     OW56388   2.375   4.078   6.060  0.4729 -0.5015  0.1626
18323SOL    HW156389   2.301   4.132   6.035  1.6524  0.9727 -0.2426
18323SOL    HW256390   2.412   4.122   6.136  0.9262 -1.2512  0.3875
18324SOL     OW56391   0.379   0.293   7.682 -0.3665  0.5139  0.0062
18324SOL    HW156392   0.406   0.317   7.771  0.5821  0.6140 -0.3036
18324SOL    HW256393   0.310   0.227   7.696 -0.4675  0.7708  0.8161
18325SOL     OW56394   4.746   3.705   0.501  0.0002 -0.8482 -0.0721
18325SOL    HW156395   4.673   3.765   0.484  0.5848 -0.4977 -1.5396
18325SOL    HW256396   4.769   3.719   0.593 -1.5970 -0.7762  0.3393
18326SOL     OW56397   2.496   0.273   4.775  0.0344 -0.5346  0.1288
18326SOL    HW156398   2.581   0.311   4.795 -0.9991  0.2573  3.8796
18326SOL    HW256399   2.434   0.325   4.826 -2.5595 -1.8506 -1.4719
18327SOL     OW56400   2.404   4.718   6.951 -0.1556 -0.1868  0.1527
18327SOL    HW156401   2.439   4.791   7.003  0.4493 -0.3473 -0.0207
18327SOL    HW256402   2.346   4.672   7.012  1.0760 -0.7731  0.9232
18328SOL     OW56403   5.793   7.756   5.051  0.3338 -0.4996  0.0917
18328SOL    HW156404   5.751   7.724   4.971 -2.5256  0.5018  1.0824
18328SOL    HW256405   5.824   7.843   5.028 -0.2989 -0.2959 -0.0052
18329SOL     OW56406   7.650   6.795   6.882 -0.1643  0.5073  0.2025
18329SOL    HW156407   7.656   6.786   6.977 -0.3390 -0.1603  0.1537
18329SOL    HW256408   7.581   6.860   6.869 -2.6497 -1.9044  0.4894
18330SOL     OW56409   0.552   4.086   5.742  0.3933 -0.1613  0.2913
18330SOL    HW156410   0.525   4.173   5.713 -0.9096 -0.1522  1.4470
18330SOL    HW256411   0.508   4.026   5.682  0.3752 -0.0496  0.1932
18331SOL     OW56412   2.322   5.144   5.218  0.1235  0.0724  0.6043
18331SOL    HW156413   2.322   5.239   5.230 -0.2991 -0.1236  2.5867
18331SOL    HW256414   2.402   5.126   5.168 -1.6031  1.7277 -3.1073
18332SOL     OW56415   5.474   4.945   0.070 -0.0276 -0.7624 -0.3241
18332SOL    HW156416   5.421   4.941   0.150 -0.3232 -1.0134 -0.5310
18332SOL    HW256417   5.565   4.937   0.101 -0.1929 -2.0067 -0.0987
18333SOL     OW56418   6.226   0.544   3.091 -0.3379 -0.1857 -0.2093
18333SOL    HW156419   6.265   0.536   3.178 -0.6958 -1.5076 -0.1538
18333SOL    HW256420   6.298   0.574   3.035 -0.1635  0.9079  0.5687
18334SOL     OW56421   0.826   6.157   4.645 -0.2049  0.4549 -0.6541
18334SOL    HW156422   0.752   6.134   4.588  0.1826  1.8660 -1.8052
18334SOL    HW256423   0.902   6.116   4.604  0.0269  1.2162 -1.0166
18335SOL     OW56424   7.398   4.989   5.516 -0.0731 -0.1572 -0.3251
18335SOL    HW156425   7.410   4.932   5.592  1.3999 -0.1889 -0.5488
18335SOL    HW256426   7.395   5.077   5.553 -1.5839 -0.2919 -0.0524
18336SOL     OW56427   0.048   2.712   6.143  0.2507 -0.1573  0.2991
18336SOL    HW156428  -0.032   2.689   6.191  0.6774 -0.5102  0.8416
18336SOL    HW256429   0.072   2.798   6.176  0.3975 -0.2869  0.5325
18337SOL     OW56430   2.895   2.782   2.394 -0.1575 -0.2779 -0.5554
18337SOL    HW156431   2.847   2.706   2.428 -0.2679 -0.8446 -1.9294
18337SOL    HW256432   2.880   2.780   2.300  0.0716  1.3072 -0.6509
18338SOL     OW56433   7.110   7.073   3.438  0.0421  0.4519  0.3924
18338SOL    HW156434   7.070   7.124   3.368 -1.6353 -2.3030 -0.8361
18338SOL    HW256435   7.201   7.064   3.411 -0.6969 -1.0791 -1.9056
18339SOL     OW56436   0.086   6.032   0.092  0.2335  0.4336 -0.3091
18339SOL    HW156437   0.111   6.038   0.185  0.6209  1.4843 -0.4657
18339SOL    HW256438  -0.009   6.042   0.092  0.3455  1.6252 -0.1031
18340SOL     OW56439   1.823   3.293   7.616 -0.2319  0.2699 -0.4021
18340SOL    HW156440   1.882   3.360   7.582 -0.0562 -0.4859 -1.6968
18340SOL    HW256441   1.754   3.287   7.550 -2.1401  1.5468  1.3639
18341SOL     OW56442   4.492   7.737   3.171 -0.0561 -0.3376  0.1790
18341SOL    HW156443   4.486   7.667   3.106 -1.3715  0.1925 -0.3000
18341SOL    HW256444   4.466   7.816   3.124  0.6262  0.3517  0.9202
18342SOL     OW56445   1.883   7.647   3.822 -0.2898 -0.2847 -0.0659
18342SOL    HW156446   1.800   7.692   3.836 -0.1966 -0.2721  0.4730
18342SOL    HW256447   1.910   7.617   3.910  1.4362  1.7722  0.1882
18343SOL     OW56448   4.440   7.673   6.323  0.4088  0.0049  0.4470
18343SOL    HW156449   4.412   7.593   6.368  0.8044 -0.8469 -0.7635
18343SOL    HW256450   4.487   7.723   6.390 -0.3984 -0.4715  1.3895
18344SOL     OW56451   7.674   4.490   3.148 -0.1894  0.0903  0.2269
18344SOL    HW156452   7.681   4.550   3.222 -0.8880 -0.2213  0.5584
18344SOL    HW256453   7.715   4.535   3.075 -1.5695  1.3909  0.2112
18345SOL     OW56454   7.286   0.082   5.731  0.5058 -0.8475  0.2580
18345SOL    HW156455   7.301   0.160   5.677  2.1049 -1.0384  0.3525
18345SOL    HW256456   7.199   0.053   5.708 -1.1259  2.2164  1.8274
18346SOL     OW56457   5.811   3.426   6.489  0.1622  0.1017 -0.1147
18346SOL    HW156458   5.799   3.362   6.560 -0.9222 -1.6437 -1.7853
18346SOL    HW256459   5.894   3.402   6.449 -0.8611 -1.2039 -1.5756
18347SOL     OW56460   1.510   3.541   3.486  0.0035  0.0656  0.8363
18347SOL    HW156461   1.477   3.509   3.570 -0.8448  0.2057  0.5672
18347SOL    HW256462   1.432   3.553   3.432  0.6659 -3.2053 -1.1521
18348SOL     OW56463   2.614   2.069   8.260  0.2957  0.9110 -0.3664
18348SOL    HW156464   2.612   2.089   8.166  1.7098  1.8496 -0.2374
18348SOL    HW256465   2.659   1.985   8.266  1.5523  1.5519 -0.4689
18349SOL     OW56466   7.542   6.967   7.123  0.5007  0.0815 -0.0866
18349SOL    HW156467   7.551   6.912   7.200  2.4836 -0.0792 -0.3867
18349SOL    HW256468   7.631   6.984   7.094 -0.1599  0.6999 -1.9593
18350SOL     OW56469   4.120   0.446   0.605  0.0315  0.1708  0.0680
18350SOL    HW156470   4.094   0.461   0.514  0.1339 -0.7157 -0.1152
18350SOL    HW256471   4.166   0.526   0.630 -0.1512  0.4947 -0.6000
18351SOL     OW56472   0.425   7.424   3.564  0.0504  0.1227  0.5226
18351SOL    HW156473   0.435   7.402   3.472  0.0926 -2.1031  1.0187
18351SOL    HW256474   0.333   7.450   3.573  0.1869  0.9157 -0.2184
18352SOL     OW56475   0.028   5.017   6.807 -0.2278  0.0594  0.6706
18352SOL    HW156476   0.084   5.085   6.846 -0.1753 -0.4808  1.5643
18352SOL    HW256477   0.033   4.944   6.869 -1.5364 -0.1782  0.5183
18353SOL     OW56478   4.170   6.612   6.055  0.4090 -0.2038  0.3961
18353SOL    HW156479   4.208   6.597   6.141  0.1214 -0.4370  0.4820
18353SOL    HW256480   4.206   6.696   6.027  1.3754 -0.6519  0.2647
18354SOL     OW56481   2.468   3.144   1.216 -0.6653  0.3443 -0.4941
18354SOL    HW156482   2.558   3.151   1.248 -0.6672 -0.9922 -0.1356
18354SOL    HW256483   2.420   3.211   1.264 -0.3716 -0.6522  1.2852
18355SOL     OW56484   5.323   0.164   3.277  0.1263 -0.0592  0.1831
18355SOL    HW156485   5.262   0.236   3.262 -0.1841 -0.4443 -0.4680
18355SOL    HW256486   5.270   0.095   3.317 -0.2084 -0.8728 -1.5349
18356SOL     OW56487   1.741   6.176   7.369  0.0928  0.0407  0.1148
18356SOL    HW156488   1.817   6.235   7.372  0.4796 -0.3126 -1.7380
18356SOL    HW256489   1.759   6.117   7.297 -1.8126 -0.2518 -0.1740
18357SOL     OW56490   5.265   5.399   2.340  0.0265 -0.0175 -0.7819
18357SOL    HW156491   5.243   5.357   2.257  0.3118  0.3426 -1.0451
18357SOL    HW256492   5.335   5.344   2.376  0.4492  0.2540 -1.1600
18358SOL     OW56493   8.055   1.628   2.107  0.3312 -0.3800  0.1085
18358SOL    HW156494   7.965   1.642   2.137 -0.4679 -0.5959 -2.0316
18358SOL    HW256495   8.096   1.714   2.115  0.3780 -0.5452  2.2982
18359SOL     OW56496   8.105   7.508   3.882  0.3439  1.0269  0.1380
18359SOL    HW156497   8.062   7.478   3.962 -0.6613  0.9466 -0.4127
18359SOL    HW256498   8.174   7.567   3.912 -0.5412  1.6412  1.0260
18360SOL     OW56499   4.971   4.164   1.304  0.0577 -0.3352  0.2342
18360SOL    HW156500   4.909   4.133   1.238 -1.1137  0.0407  1.1388
18360SOL    HW256501   4.925   4.155   1.387  0.7273  1.1880  0.7988
18361SOL     OW56502   7.041   2.769   1.041  0.1247 -0.0158 -0.3256
18361SOL    HW156503   7.128   2.731   1.052 -0.4083 -1.0638  0.5130
18361SOL    HW256504   6.982   2.693   1.037 -0.6655  0.6255 -1.9133
18362SOL     OW56505   1.209   0.085   6.847 -0.4161 -0.7284 -0.2456
18362SOL    HW156506   1.239   0.138   6.921 -0.3486 -1.0970 -0.0058
18362SOL    HW256507   1.238   0.134   6.770  0.0943 -0.6736 -0.0227
18363SOL     OW56508   0.417   6.808   5.644  0.1048 -0.2778 -0.5334
18363SOL    HW156509   0.509   6.802   5.620 -0.1241 -0.2792 -1.4562
18363SOL    HW256510   0.388   6.892   5.607  0.3065  0.9213  1.8230
18364SOL     OW56511   6.059   4.403   2.708 -0.1842 -0.1626  0.3074
18364SOL    HW156512   5.975   4.396   2.663 -0.8958 -0.8347  1.6831
18364SOL    HW256513   6.074   4.316   2.745  0.5826  0.2411  0.9937
18365SOL     OW56514   0.072   2.446   2.247  0.0322  0.4608 -0.0634
18365SOL    HW156515   0.016   2.380   2.287 -1.3907  0.1809 -2.3118
18365SOL    HW256516   0.105   2.498   2.320 -1.3716 -0.7886  1.5190
18366SOL     OW56517   6.012   3.050   7.188  0.3998  0.3340 -0.1966
18366SOL    HW156518   6.073   2.980   7.208  1.8405  0.5373 -3.1954
18366SOL    HW256519   5.982   3.082   7.273  2.0009 -1.9019  1.3090
18367SOL     OW56520   5.145   6.306   0.794  0.6548 -0.3796 -0.2217
18367SOL    HW156521   5.115   6.354   0.717 -0.5972 -1.9030 -0.7485
18367SOL    HW256522   5.087   6.335   0.864  0.6939 -0.2156 -0.2582
18368SOL     OW56523   7.374   1.872   7.835 -0.2151 -0.1394 -0.1975
18368SOL    HW156524   7.369   1.921   7.918 -2.2999  1.6606 -1.2753
18368SOL    HW256525   7.443   1.916   7.786  0.7243 -0.9339  0.3753
18369SOL     OW56526   7.105   0.901   0.325  0.2341 -0.0930  0.1507
18369SOL    HW156527   7.138   0.856   0.402  0.4327  0.5134  0.4183
18369SOL    HW256528   7.076   0.986   0.357 -0.5675 -0.1974 -0.2728
18370SOL     OW56529   2.122   5.845   7.872 -0.1421 -0.5363  0.0552
18370SOL    HW156530   2.112   5.772   7.811  0.5021 -0.6440  0.0678
18370SOL    HW256531   2.208   5.831   7.912  0.9667  1.3661 -1.4632
18371SOL     OW56532   6.923   3.079   2.982  0.5061 -0.0791 -0.1746
18371SOL    HW156533   6.844   3.112   2.939  0.8062  1.0115  0.0834
18371SOL    HW256534   6.979   3.051   2.911 -0.2751 -1.2954 -0.3489
18372SOL     OW56535   6.196   5.161   4.496  0.3037 -0.9431  0.4912
18372SOL    HW156536   6.125   5.106   4.530  0.4294 -0.8204  0.9510
18372SOL    HW256537   6.215   5.222   4.567  0.0985 -0.2360 -0.0477
18373SOL     OW56538   1.544   6.880   5.771  0.4764  0.7210  0.3514
18373SOL    HW156539   1.527   6.878   5.865  1.2003 -1.5633  0.5125
18373SOL    HW256540   1.579   6.793   5.752 -0.5771  0.7739 -2.2052
18374SOL     OW56541   5.967   4.122   4.261  0.3324 -0.0441 -0.1873
18374SOL    HW156542   5.872   4.134   4.268 -0.3706 -2.6426 -3.0810
18374SOL    HW256543   6.000   4.134   4.350 -3.2415 -3.1042  1.7917
18375SOL     OW56544   0.146   6.098   0.338  0.2746  0.2580 -0.2375
18375SOL    HW156545   0.098   6.136   0.412  2.2099 -2.8465  2.9683
18375SOL    HW256546   0.235   6.087   0.371  1.0092 -2.2764 -2.6734
18376SOL     OW56547   4.528   3.010   1.909 -0.0058 -0.1107  0.7585
18376SOL    HW156548   4.619   3.040   1.902  0.1950 -1.0723 -2.5428
18376SOL    HW256549   4.514   2.998   2.003  3.4195 -0.3569  1.3809
18377SOL     OW56550   1.907   7.093   5.863 -0.1352  0.4013 -0.6967
18377SOL    HW156551   1.898   7.161   5.930 -4.6701 -2.5073  2.2407
18377SOL    HW256552   2.000   7.074   5.860  0.9294  4.3488  0.7263
18378SOL     OW56553   5.029   4.363   2.041  0.0837 -0.3639 -0.0649
18378SOL    HW156554   5.093   4.422   2.080  1.1965 -2.2361  1.0967
18378SOL    HW256555   5.008   4.403   1.957  1.9964  0.8604 -0.0190
18379SOL     OW56556   4.031   1.572   4.074  0.1331  0.1182 -0.1574
18379SOL    HW156557   3.940   1.549   4.093 -0.4318  1.3486 -1.1800
18379SOL    HW256558   4.079   1.546   4.153 -0.5810 -3.1824 -0.6576
18380SOL     OW56559   2.210   4.373   7.693  0.2663 -0.3502 -0.2032
18380SOL    HW156560   2.138   4.419   7.651  0.5923  1.2888  0.9385
18380SOL    HW256561   2.194   4.382   7.787  0.7058 -2.0327  0.0735
18381SOL     OW56562   4.127   5.976   1.660  0.6075  0.4118 -0.1571
18381SOL    HW156563   4.149   5.904   1.720 -3.1219  0.3170  1.4020
18381SOL    HW256564   4.073   6.035   1.713  0.1590  2.2624 -2.5132
18382SOL     OW56565   6.021   3.495   0.665 -0.3572  0.0515 -0.2428
18382SOL    HW156566   6.104   3.451   0.681  0.1145  0.4108 -1.5564
18382SOL    HW256567   5.992   3.525   0.751  1.0744  0.2870  0.1722
18383SOL     OW56568   3.031   7.877   2.821  0.4244  0.9042  0.4694
18383SOL    HW156569   2.945   7.843   2.796  1.9484 -1.3407 -2.2103
18383SOL    HW256570   3.039   7.856   2.914 -1.6030  0.5419  0.6027
18384SOL     OW56571   4.107   8.271   1.621  0.0508 -0.2984  0.4004
18384SOL    HW156572   4.085   8.191   1.670 -0.4419 -0.6298 -0.3401
18384SOL    HW256573   4.044   8.272   1.549  0.2607  0.5989  0.2258
18385SOL     OW56574   2.797   5.603   6.398 -0.6112  0.1810 -0.8471
18385SOL    HW156575   2.721   5.548   6.413  0.2428 -0.9796 -0.6543
18385SOL    HW256576   2.848   5.558   6.331  1.2613 -0.5245  0.9351
18386SOL     OW56577   1.662   4.245   0.831  0.8101  0.2134  0.1940
18386SOL    HW156578   1.697   4.182   0.895  1.7184 -1.2378 -1.6394
18386SOL    HW256579   1.739   4.289   0.796  0.1900  2.3184  1.3289
18387SOL     OW56580   6.878   1.238   3.959 -0.1283  0.4180 -0.4062
18387SOL    HW156581   6.800   1.184   3.950  0.0642 -0.0722  0.6602
18387SOL    HW256582   6.949   1.175   3.973  0.3003  0.8941 -0.4064
18388SOL     OW56583   2.210   0.321   4.184 -0.1720  0.1428  0.0905
18388SOL    HW156584   2.266   0.302   4.109  0.2865  0.3822  0.3646
18388SOL    HW256585   2.179   0.410   4.169  0.3701  0.3988  0.4557
18389SOL     OW56586   5.890   1.829   5.863  0.0596 -0.2432  0.2367
18389SOL    HW156587   5.949   1.816   5.938 -0.2901 -2.7728  0.1599
18389SOL    HW256588   5.947   1.823   5.786  0.0303 -0.4240  0.2285
18390SOL     OW56589   7.728   0.564   3.258 -0.1038  0.4645 -0.2342
18390SOL    HW156590   7.682   0.517   3.188 -1.2057  1.2808 -0.0717
18390SOL    HW256591   7.691   0.652   3.257 -1.7722 -0.0700  2.8063
18391SOL     OW56592   8.274   6.702   0.183  0.0628 -0.8009 -0.2173
18391SOL    HW156593   8.262   6.620   0.136  0.0369 -1.3576  0.7524
18391SOL    HW256594   8.336   6.682   0.253 -0.3351 -0.1304  0.3450
18392SOL     OW56595   5.684   7.082   0.232  0.4504  0.5468  0.0640
18392SOL    HW156596   5.620   7.012   0.220  1.4687 -0.3963 -0.0733
18392SOL    HW256597   5.639   7.161   0.204  0.2058 -0.4644 -2.7472
18393SOL     OW56598   3.769   1.089   1.347 -0.3830  0.8164  0.5122
18393SOL    HW156599   3.829   1.143   1.399 -0.2088  3.5815 -2.3107
18393SOL    HW256600   3.685   1.134   1.352 -1.1957 -0.6430  0.8697
18394SOL     OW56601   7.970   1.003   3.708  0.1066  0.4736  0.3081
18394SOL    HW156602   7.958   1.093   3.737 -2.1411  0.0985  0.7992
18394SOL    HW256603   7.883   0.976   3.678  0.7425 -1.4756  0.0495
18395SOL     OW56604   1.611   6.242   6.185 -0.1400  0.0353  0.0541
18395SOL    HW156605   1.695   6.287   6.180 -0.1777  0.0614 -0.3468
18395SOL    HW256606   1.632   6.157   6.224 -0.0967  0.4679  0.9884
18396SOL     OW56607   0.454   4.204   1.869 -0.1476 -0.5932  0.1095
18396SOL    HW156608   0.406   4.270   1.819 -0.5531 -1.5204 -0.7791
18396SOL    HW256609   0.463   4.241   1.957 -1.7947 -0.0559  0.0806
18397SOL     OW56610   0.723   1.139   3.500 -0.3217 -0.3887 -0.9865
18397SOL    HW156611   0.633   1.115   3.525 -0.0435 -0.4220  0.0544
18397SOL    HW256612   0.719   1.233   3.483 -0.4475 -0.2701 -0.3522
18398SOL     OW56613   2.359   3.370   1.385  0.8386  0.8883  0.1939
18398SOL    HW156614   2.427   3.436   1.371  1.6010 -0.1151 -1.1224
18398SOL    HW256615   2.298   3.382   1.312  1.2956 -0.1806 -0.4027
18399SOL     OW56616   5.601   8.150   1.646  0.6887  0.1182 -0.1437
18399SOL    HW156617   5.643   8.221   1.597 -0.5160  0.2059 -1.0978
18399SOL    HW256618   5.650   8.145   1.728  2.8821 -0.0929 -1.3625
18400SOL     OW56619   7.440   2.173   3.674 -0.5328  0.4300 -0.6361
18400SOL    HW156620   7.387   2.156   3.752  0.5366 -0.1209 -0.0188
18400SOL    HW256621   7.457   2.086   3.637  1.3360  0.4431  0.1131
18401SOL     OW56622   3.387   2.230   1.680 -0.3736 -0.4088 -0.2087
18401SOL    HW156623   3.419   2.316   1.707  0.4244 -0.3458 -1.2710
18401SOL    HW256624   3.460   2.171   1.701 -1.8112 -1.2977  2.8023
18402SOL     OW56625   1.188   6.537   3.644  0.3228 -0.8434 -0.1693
18402SOL    HW156626   1.149   6.449   3.644 -1.8842  0.0699 -0.9778
18402SOL    HW256627   1.274   6.524   3.685 -0.1091 -3.2838  0.1728
18403SOL     OW56628   5.834   3.308   3.177  0.0094  0.0964  0.2159
18403SOL    HW156629   5.919   3.287   3.214  0.6928  0.7298 -0.9572
18403SOL    HW256630   5.847   3.309   3.083 -1.6898 -1.4306 -0.1017
18404SOL     OW56631   1.803   0.399   7.661 -0.3933 -0.1083 -0.3992
18404SOL    HW156632   1.821   0.367   7.572  0.1635 -0.7255 -0.0693
18404SOL    HW256633   1.736   0.340   7.694 -0.1557 -0.2624 -0.1887
18405SOL     OW56634   1.753   3.201   0.158  0.4721 -0.1186  0.6180
18405SOL    HW156635   1.783   3.284   0.122 -0.1778  0.3169  1.0536
18405SOL    HW256636   1.747   3.216   0.252 -1.0341 -0.1982  0.5521
18406SOL     OW56637   1.000   3.703   5.247  0.1175 -0.1537 -0.3631
18406SOL    HW156638   0.930   3.653   5.289  0.1832 -0.9198 -1.1406
18406SOL    HW256639   1.077   3.647   5.253  0.7902  0.8621  0.8633
18407SOL     OW56640   4.641   3.134   4.363 -0.0622 -0.0208  0.6976
18407SOL    HW156641   4.614   3.046   4.386  2.6725 -0.8627  1.1355
18407SOL    HW256642   4.724   3.122   4.316 -0.6207  2.2233 -1.0422
18408SOL     OW56643   8.333   0.979   0.702  0.0168  0.5288 -0.5511
18408SOL    HW156644   8.311   0.896   0.745  0.2060 -0.0025 -1.4742
18408SOL    HW256645   8.313   1.045   0.769 -2.4598 -0.0584 -0.5846
18409SOL     OW56646   5.065   6.281   3.298  0.2843  0.1258  0.1817
18409SOL    HW156647   5.098   6.222   3.366  0.6305  0.4097  0.2601
18409SOL    HW256648   5.102   6.247   3.217  0.5131  0.2531  0.2311
18410SOL     OW56649   6.332   3.883   5.144 -0.2070 -0.1169  0.1143
18410SOL    HW156650   6.253   3.830   5.144 -1.2008  1.3095  0.0921
18410SOL    HW256651   6.301   3.973   5.148  1.4369  0.4643  1.0240
18411SOL     OW56652   4.756   0.707   3.710 -0.5752 -0.1075 -0.4983
18411SOL    HW156653   4.692   0.758   3.662  0.4150  0.8930 -0.7892
18411SOL    HW256654   4.780   0.635   3.651  0.0729  0.6844 -1.2156
18412SOL     OW56655   2.008   7.465   0.662 -0.7234 -0.1748 -0.1454
18412SOL    HW156656   2.084   7.520   0.643  1.1557 -2.3778  0.4882
18412SOL    HW256657   1.976   7.438   0.576  1.7516 -2.3774 -0.4912
18413SOL     OW56658   7.695   2.670   5.138 -0.0909 -0.4918  0.5041
18413SOL    HW156659   7.690   2.765   5.134 -0.1244 -0.5012  0.2775
18413SOL    HW256660   7.604   2.641   5.146 -0.0877 -0.5078  0.4853
18414SOL     OW56661   4.428   6.006   4.342 -0.0767  0.0666  0.3340
18414SOL    HW156662   4.441   5.989   4.435 -2.2956 -0.1603  0.6449
18414SOL    HW256663   4.499   6.066   4.319  1.5641 -1.2295  1.7246
18415SOL     OW56664   0.396   4.622   2.627  0.2388 -0.1824  0.2931
18415SOL    HW156665   0.443   4.629   2.711 -0.9357 -2.3041  1.1913
18415SOL    HW256666   0.466   4.611   2.562  1.1416  0.7399  1.0688
18416SOL     OW56667   7.834   3.762   0.409 -0.0632 -0.2546  0.3938
18416SOL    HW156668   7.854   3.709   0.332 -0.4551  0.4919 -0.2417
18416SOL    HW256669   7.758   3.719   0.449 -0.0455 -0.4784  0.1882
18417SOL     OW56670   7.968   8.350   5.082 -0.1124  0.3600  0.3835
18417SOL    HW156671   7.883   8.378   5.117  0.4822 -0.4356  2.6675
18417SOL    HW256672   7.958   8.255   5.071  0.3549  0.3156  0.3346
18418SOL     OW56673   0.874   5.051   0.309 -0.4669  0.3275 -0.4576
18418SOL    HW156674   0.922   4.971   0.286  0.8660  1.2030 -0.8628
18418SOL    HW256675   0.887   5.109   0.234 -0.3696  1.3635  0.3411
18419SOL     OW56676   6.709   7.268   4.958  0.1453 -0.3760 -0.2463
18419SOL    HW156677   6.707   7.251   5.052 -2.5376  0.5594 -0.0355
18419SOL    HW256678   6.624   7.308   4.939  0.6909 -0.3108 -3.0447
18420SOL     OW56679   6.656   6.427   8.138 -0.3151  0.3683  0.3090
18420SOL    HW156680   6.677   6.484   8.212  0.4179 -1.5775  1.6877
18420SOL    HW256681   6.704   6.346   8.156  0.4089  0.0356 -2.6662
18421SOL     OW56682   0.802   6.989   4.206 -0.0374  0.3152  0.2312
18421SOL    HW156683   0.854   6.986   4.126 -0.6255 -0.7891 -0.1170
18421SOL    HW256684   0.777   7.082   4.215  1.4039  0.7410  0.0519
18422SOL     OW56685   1.501   0.417   1.855 -0.0812  0.5928 -0.2888
18422SOL    HW156686   1.585   0.373   1.845 -1.0161 -1.6197  0.8084
18422SOL    HW256687   1.444   0.374   1.791 -0.5424  1.6973 -0.6477
18423SOL     OW56688   6.935   2.720   7.429  0.3257  0.4368  0.1867
18423SOL    HW156689   6.969   2.655   7.491  0.2163 -0.4026 -0.6138
18423SOL    HW256690   6.924   2.672   7.348 -1.1489  1.1136 -0.0424
18424SOL     OW56691   3.527   5.535   5.843 -0.6494 -1.3735 -0.4892
18424SOL    HW156692   3.587   5.465   5.866 -0.4283 -0.8255  0.6622
18424SOL    HW256693   3.583   5.612   5.831 -1.2254  0.2481  4.7058
18425SOL     OW56694   6.547   6.027   1.260  0.0894  0.1111 -0.1071
18425SOL    HW156695   6.520   6.068   1.178  0.8194 -0.2240 -0.5241
18425SOL    HW256696   6.642   6.038   1.262 -0.1211  2.5816  2.0164
18426SOL     OW56697   3.545   6.750   6.312  0.2933 -0.4735 -0.3487
18426SOL    HW156698   3.459   6.711   6.294  0.4207 -0.9438  0.0294
18426SOL    HW256699   3.597   6.677   6.344  0.7557 -0.1315 -0.3200
18427SOL     OW56700   2.663   5.439   7.859  0.0845 -0.2930  0.8837
18427SOL    HW156701   2.639   5.366   7.917 -1.0813 -1.3762 -0.8766
18427SOL    HW256702   2.581   5.464   7.817  0.5370  1.8410  1.1801
18428SOL     OW56703   0.999   6.392   6.650 -0.2259  0.3139  0.6737
18428SOL    HW156704   0.962   6.406   6.563  0.3113 -1.0407  0.1942
18428SOL    HW256705   1.056   6.468   6.665  1.0584 -0.2854 -0.9327
18429SOL     OW56706   1.313   8.308   4.429 -0.1661 -0.2452 -0.4128
18429SOL    HW156707   1.369   8.337   4.501  2.8078 -1.0823 -2.2173
18429SOL    HW256708   1.308   8.383   4.370  1.8743 -1.1052 -1.7991
18430SOL     OW56709   0.551   2.953   5.113 -0.1212  0.2511 -0.0514
18430SOL    HW156710   0.618   2.922   5.052  0.3801 -0.3135  0.7613
18430SOL    HW256711   0.545   3.047   5.096 -0.6545 -0.0367 -1.5848
18431SOL     OW56712   2.221   6.494   3.542 -0.6264 -0.1719  0.5296
18431SOL    HW156713   2.294   6.491   3.604 -1.2417 -0.5867  1.2529
18431SOL    HW256714   2.174   6.412   3.556 -1.9701  0.6360  0.9941
18432SOL     OW56715   4.760   2.700   6.237  0.2102 -0.0837  0.4358
18432SOL    HW156716   4.686   2.711   6.296  0.4267  4.6968  0.1782
18432SOL    HW256717   4.834   2.740   6.283  1.7870 -1.3279 -0.8606
18433SOL     OW56718   3.155   4.257   3.572 -0.4612  0.2991  0.2985
18433SOL    HW156719   3.099   4.233   3.646  1.4331  1.3574  2.1580
18433SOL    HW256720   3.236   4.289   3.612  0.1322  2.2283 -2.2072
18434SOL     OW56721   0.222   0.076   6.794  0.0640  0.2562 -0.2069
18434SOL    HW156722   0.155   0.034   6.848 -0.0996  0.9840  0.1693
18434SOL    HW256723   0.230   0.165   6.830  0.1924  0.6465 -1.1703
18435SOL     OW56724   1.660   4.564   4.151 -0.0027 -0.1462 -0.2069
18435SOL    HW156725   1.585   4.623   4.149 -0.4130 -0.6764 -1.1834
18435SOL    HW256726   1.622   4.477   4.164  0.4306 -0.4297 -0.7956
18436SOL     OW56727   2.469   2.686   4.002  0.0803 -0.5198  0.2189
18436SOL    HW156728   2.528   2.636   4.059 -0.9216  0.5105  2.2502
18436SOL    HW256729   2.381   2.659   4.029 -0.4377  0.4559 -0.4231
18437SOL     OW56730   3.664   6.421   6.976 -0.4533 -0.0094  0.5167
18437SOL    HW156731   3.745   6.382   6.943 -0.6308  0.6355 -0.7518
18437SOL    HW256732   3.595   6.381   6.923 -0.7721  0.8402  0.2655
18438SOL     OW56733   3.401   4.557   6.674  0.1632  0.1339 -0.7832
18438SOL    HW156734   3.319   4.601   6.654 -0.5578 -0.5746  0.4474
18438SOL    HW256735   3.419   4.503   6.597 -2.6462 -2.7224  0.3428
18439SOL     OW56736   2.427   6.418   5.112 -0.1530 -0.7074 -0.1099
18439SOL    HW156737   2.490   6.490   5.108 -1.6657  0.6439 -1.4093
18439SOL    HW256738   2.430   6.388   5.202  1.4024  0.1780  0.1722
18440SOL     OW56739   7.306   0.878   6.500 -0.2340 -0.9985 -0.5843
18440SOL    HW156740   7.330   0.836   6.582 -1.3629  1.3584  1.0814
18440SOL    HW256741   7.225   0.834   6.473 -1.2590 -0.1886  0.9830
18441SOL     OW56742   3.835   6.378   0.845 -0.1497 -0.3659 -0.0866
18441SOL    HW156743   3.854   6.327   0.923  0.1635 -1.4964 -0.8679
18441SOL    HW256744   3.919   6.388   0.801 -0.2762  0.4826 -0.1544
18442SOL     OW56745   3.640   6.993   7.837  1.2798  0.3070  0.4028
18442SOL    HW156746   3.670   6.915   7.885  2.2512 -0.7756 -1.7932
18442SOL    HW256747   3.717   7.049   7.833  0.7596  1.1119  1.4248
18443SOL     OW56748   4.812   4.897   2.653  0.3040  0.3202 -0.3717
18443SOL    HW156749   4.800   4.844   2.732  0.3999  0.8455  0.0052
18443SOL    HW256750   4.814   4.834   2.581 -0.5146 -0.1167 -0.0274
18444SOL     OW56751   4.275   0.733   5.628  0.0367 -0.1577 -0.1950
18444SOL    HW156752   4.331   0.723   5.551 -0.3424  1.4405 -0.7178
18444SOL    HW256753   4.332   0.711   5.701  0.8821 -0.1670 -0.8315
18445SOL     OW56754   2.986   7.894   0.744  0.5712 -0.2029  0.1913
18445SOL    HW156755   2.911   7.842   0.715  0.9562 -1.0176  0.6225
18445SOL    HW256756   3.056   7.872   0.683  0.2902  1.1033 -0.6556
18446SOL     OW56757   5.784   8.103   3.700 -0.2733 -0.2613  0.0392
18446SOL    HW156758   5.783   8.129   3.608 -0.8173  1.6231  0.5340
18446SOL    HW256759   5.793   8.008   3.698  2.1036 -0.0835 -1.9148
18447SOL     OW56760   0.931   6.629   7.851 -0.5349  0.0488  0.0640
18447SOL    HW156761   0.856   6.570   7.856 -1.3359  1.1164  0.9366
18447SOL    HW256762   0.931   6.676   7.934  2.6006 -1.6392  1.2182
18448SOL     OW56763   5.460   1.988   1.363 -0.2181  0.2685 -0.3273
18448SOL    HW156764   5.536   1.933   1.343 -1.0461  0.0764 -3.5231
18448SOL    HW256765   5.462   2.057   1.296 -2.8515  0.1909 -0.5886
18449SOL     OW56766   4.666   5.877   7.590  0.6685  0.5189 -0.0144
18449SOL    HW156767   4.709   5.961   7.606  1.8857  0.0398 -0.6286
18449SOL    HW256768   4.719   5.836   7.521 -0.8178 -0.0855 -0.8494
18450SOL     OW56769   2.284   4.683   2.765  0.5036  1.1743 -0.1190
18450SOL    HW156770   2.326   4.613   2.714 -0.5556  0.5547 -0.1571
18450SOL    HW256771   2.191   4.677   2.743  0.1350  1.3990  1.2832
18451SOL     OW56772   1.206   0.193   2.448 -0.8287 -0.1970  0.4792
18451SOL    HW156773   1.257   0.261   2.493 -1.2257  1.2087 -1.1074
18451SOL    HW256774   1.148   0.158   2.516 -1.2178  1.6677  1.1651
18452SOL     OW56775   1.238   0.170   5.488 -0.0669 -0.0150 -0.2134
18452SOL    HW156776   1.307   0.197   5.428 -0.0433  0.8222  0.1752
18452SOL    HW256777   1.235   0.239   5.553 -0.1363 -0.8721  0.7204
18453SOL     OW56778   5.089   6.300   5.044  0.1402 -0.1269  0.6082
18453SOL    HW156779   5.127   6.285   4.957 -0.1927 -0.2906  0.4888
18453SOL    HW256780   5.118   6.225   5.096  1.0407  0.3970  0.8787
18454SOL     OW56781   1.757   1.822   3.882 -0.3008 -0.5456 -0.6007
18454SOL    HW156782   1.692   1.866   3.937 -0.7274 -3.1321  1.1271
18454SOL    HW256783   1.797   1.893   3.831 -0.8401  1.8413  2.0430
18455SOL     OW56784   7.494   2.380   7.707  0.0094 -0.1854 -0.5913
18455SOL    HW156785   7.533   2.293   7.718 -0.4782 -0.3284  0.0836
18455SOL    HW256786   7.567   2.435   7.680  0.5237 -0.6128 -0.1123
18456SOL     OW56787   0.516   2.841   3.727 -0.7944 -0.0552 -0.5099
18456SOL    HW156788   0.482   2.929   3.739  1.4721  0.7101  0.7884
18456SOL    HW256789   0.583   2.849   3.659 -0.4947 -0.7334 -0.3140
18457SOL     OW56790   3.159   3.107   7.834  0.0074 -0.4642  0.4323
18457SOL    HW156791   3.160   3.155   7.751 -0.8739  0.0564  0.7095
18457SOL    HW256792   3.193   3.020   7.812 -0.4515 -0.4112 -0.5239
18458SOL     OW56793   1.037   4.342   2.565  0.0337 -0.5398 -0.1404
18458SOL    HW156794   1.108   4.402   2.546  0.8235 -0.7613  1.8251
18458SOL    HW256795   0.958   4.397   2.566  0.1868 -0.2289 -1.9400
18459SOL     OW56796   2.027   1.794   5.832  0.3903 -0.1922  0.0487
18459SOL    HW156797   2.069   1.723   5.881 -1.3804  0.5539  2.9029
18459SOL    HW256798   1.935   1.766   5.825  0.2995  0.4235 -1.6398
18460SOL     OW56799   6.884   0.920   4.658  0.9963 -0.1213  0.0216
18460SOL    HW156800   6.960   0.948   4.606 -0.0075  0.1562 -1.3544
18460SOL    HW256801   6.813   0.977   4.629 -0.2454 -1.7492 -0.2592
18461SOL     OW56802   8.202   3.263   8.138 -0.1795 -0.6733 -0.8205
18461SOL    HW156803   8.253   3.182   8.143 -0.3089 -0.7438 -0.6366
18461SOL    HW256804   8.200   3.296   8.228  0.5870 -0.0228 -1.0323
18462SOL     OW56805   0.335   5.643   6.988 -0.2676 -0.0091  0.0150
18462SOL    HW156806   0.307   5.552   6.999 -0.2006 -0.0517 -0.1625
18462SOL    HW256807   0.423   5.637   6.952 -1.2238  0.0894 -2.5808
18463SOL     OW56808   7.457   3.890   1.714 -0.8488  0.7622  0.1322
18463SOL    HW156809   7.455   3.806   1.667  1.2609 -0.0379  1.3174
18463SOL    HW256810   7.506   3.948   1.656 -0.6769  0.6011  0.1128
18464SOL     OW56811   5.194   1.205   3.440  0.8115 -0.1992 -0.0082
18464SOL    HW156812   5.110   1.158   3.437  0.3492  0.6552 -0.8176
18464SOL    HW256813   5.180   1.283   3.387  0.8822  2.0158  2.9404
18465SOL     OW56814   0.127   3.604   5.702 -0.0546  0.7207  0.1745
18465SOL    HW156815   0.068   3.613   5.776 -0.7918 -0.8521 -0.1845
18465SOL    HW256816   0.078   3.637   5.627 -0.4210 -0.3249 -0.0737
18466SOL     OW56817   4.033   2.692   1.158  0.0339 -0.1461 -0.6278
18466SOL    HW156818   4.018   2.736   1.241 -1.8329  0.2864 -1.1566
18466SOL    HW256819   3.946   2.666   1.128  0.9800 -3.8553 -0.5809
18467SOL     OW56820   5.415   6.398   7.652 -0.1982 -0.1687  0.4983
18467SOL    HW156821   5.339   6.353   7.687  0.6731 -1.6450  0.5777
18467SOL    HW256822   5.425   6.476   7.706 -1.2638 -0.3018  0.8948
18468SOL     OW56823   2.544   0.265   4.141 -0.1986  0.5271  0.3674
18468SOL    HW156824   2.543   0.201   4.070  1.1984 -1.2452  1.8450
18468SOL    HW256825   2.534   0.349   4.097  0.8616 -0.4714 -1.9699
18469SOL     OW56826   7.838   5.986   0.601 -0.0659  0.7818  0.1509
18469SOL    HW156827   7.748   6.020   0.596 -0.4155 -0.2343 -1.0976
18469SOL    HW256828   7.838   5.930   0.678 -1.3568 -1.3815 -1.3073
18470SOL     OW56829   7.308   0.176   7.057 -0.2701 -0.1979  0.4184
18470SOL    HW156830   7.264   0.134   6.983  0.5886 -0.2955 -0.0436
18470SOL    HW256831   7.247   0.167   7.130 -1.1757 -0.0137 -0.2979
18471SOL     OW56832   3.507   3.994   7.691 -0.0466 -0.4386 -0.0155
18471SOL    HW156833   3.572   3.924   7.704  0.1680 -0.3468 -0.5881
18471SOL    HW256834   3.557   4.075   7.698  0.1266 -0.3808 -1.5939
18472SOL     OW56835   4.719   7.764   4.442 -0.4907 -0.2652  0.0061
18472SOL    HW156836   4.672   7.772   4.359  0.5632 -0.1974 -0.6041
18472SOL    HW256837   4.811   7.780   4.419  0.1742 -2.6635  0.7322
18473SOL     OW56838   6.747   5.366   0.992 -0.1282  0.4187  0.2194
18473SOL    HW156839   6.792   5.287   0.962  0.8266  1.0429 -0.0535
18473SOL    HW256840   6.670   5.373   0.935  0.2366  0.1466 -0.3140
18474SOL     OW56841   0.710   6.217   1.422  0.0228 -0.2592 -1.3237
18474SOL    HW156842   0.618   6.241   1.413  0.1867  0.1672 -1.9211
18474SOL    HW256843   0.758   6.298   1.404  0.4875 -0.2094  0.0695
18475SOL     OW56844   4.468   7.659   5.526 -0.3700  0.0351 -0.4240
18475SOL    HW156845   4.479   7.585   5.466 -2.5085 -1.2122  0.5707
18475SOL    HW256846   4.476   7.620   5.613 -1.6788  0.9255  0.1216
18476SOL     OW56847   5.461   2.677   3.788  0.5574 -0.9217 -0.1634
18476SOL    HW156848   5.489   2.607   3.730  1.2522 -0.9843  0.2324
18476SOL    HW256849   5.464   2.756   3.734  1.1863 -0.9807 -0.2275
18477SOL     OW56850   3.337   8.203   0.315  0.1213 -0.3549  0.5410
18477SOL    HW156851   3.286   8.135   0.358 -2.3362  1.2454  0.3931
18477SOL    HW256852   3.411   8.157   0.275 -0.8111 -2.7215  1.3691
18478SOL     OW56853   2.423   7.278   5.140 -0.3025 -0.2773  0.5097
18478SOL    HW156854   2.453   7.297   5.051  0.0310  1.2778  0.9115
18478SOL    HW256855   2.490   7.220   5.176  0.0316 -0.1944  0.0356
18479SOL     OW56856   4.151   5.434   6.591  0.5118 -0.1068  0.5723
18479SOL    HW156857   4.200   5.386   6.525 -1.3849 -1.2730 -0.0792
18479SOL    HW256858   4.174   5.525   6.576  1.5063 -0.5031 -0.5037
18480SOL     OW56859   3.378   4.765   1.048  0.1510 -0.7105 -0.2637
18480SOL    HW156860   3.322   4.834   1.011  0.9117  1.2012  1.9264
18480SOL    HW256861   3.467   4.792   1.025  0.4355 -1.2564  0.1882
18481SOL     OW56862   2.429   2.985   6.657  0.2753 -0.1082 -0.1791
18481SOL    HW156863   2.369   3.046   6.701  0.8122 -0.1765  0.6734
18481SOL    HW256864   2.422   2.904   6.708  0.0580 -0.5580 -0.9138
18482SOL     OW56865   3.529   2.538   7.073  0.0038 -0.4058 -0.0852
18482SOL    HW156866   3.497   2.484   7.001 -0.1452 -0.1587 -0.2073
18482SOL    HW256867   3.548   2.476   7.143 -0.1270 -0.6187 -0.2355
18483SOL     OW56868   2.110   1.378   2.740 -0.3161  0.2698  0.0678
18483SOL    HW156869   2.022   1.339   2.732 -0.0827 -0.2760  0.0824
18483SOL    HW256870   2.123   1.425   2.658 -1.3050  1.8036  0.7546
18484SOL     OW56871   1.057   5.220   4.079  0.0825 -0.0273 -0.4188
18484SOL    HW156872   1.046   5.161   4.005 -1.1483  0.4697 -0.6650
18484SOL    HW256873   1.129   5.278   4.053 -0.0638 -0.1207 -1.0532
18485SOL     OW56874   3.889   7.583   7.151  0.2279 -0.5822 -0.4646
18485SOL    HW156875   3.896   7.517   7.219  1.7478  0.4338  0.4032
18485SOL    HW256876   3.804   7.624   7.166  0.9314  0.2968  1.5003
18486SOL     OW56877   7.083   4.215   0.419  0.3353  0.1676 -0.4621
18486SOL    HW156878   7.091   4.278   0.490  1.1959  1.0942 -1.3451
18486SOL    HW256879   7.097   4.130   0.461  0.6561  0.6809  0.5048
18487SOL     OW56880   5.163   2.594   8.071  0.3342 -0.1072  0.2703
18487SOL    HW156881   5.083   2.647   8.070 -0.1998 -0.8793  0.9629
18487SOL    HW256882   5.179   2.574   7.979 -1.1280 -1.1804  0.2144
18488SOL     OW56883   2.769   5.293   7.647  0.0050 -0.0157 -0.2610
18488SOL    HW156884   2.861   5.309   7.626 -0.2029 -0.4743 -1.6768
18488SOL    HW256885   2.750   5.350   7.721  1.7084 -0.7244  0.7551
18489SOL     OW56886   4.888   2.138   8.284 -0.4367 -1.2686 -0.2012
18489SOL    HW156887   4.896   2.064   8.224 -0.4533 -1.5127  0.0950
18489SOL    HW256888   4.885   2.098   8.371  1.6898 -0.8230  0.1184
18490SOL     OW56889   6.832   3.833   0.687  0.4578 -0.0503 -0.0137
18490SOL    HW156890   6.842   3.846   0.592  1.3611  1.5465  0.2532
18490SOL    HW256891   6.856   3.742   0.701 -0.6046 -0.5961 -1.4247
18491SOL     OW56892   3.883   3.649   3.914  0.2136  0.6053 -0.4316
18491SOL    HW156893   3.959   3.650   3.972 -0.0338 -0.2703 -0.0636
18491SOL    HW256894   3.873   3.739   3.884  1.8405  0.5949 -1.0743
18492SOL     OW56895   4.332   0.107   5.694 -0.3816  0.0024 -0.4313
18492SOL    HW156896   4.406   0.131   5.749 -0.2469 -0.2419 -0.5020
18492SOL    HW256897   4.276   0.184   5.693 -0.1344  0.1831 -0.3642
18493SOL     OW56898   1.153   4.080   2.588  0.7247 -0.3600 -0.0729
18493SOL    HW156899   1.103   4.162   2.584 -0.9923 -1.3423  0.1931
18493SOL    HW256900   1.244   4.108   2.589  0.2514  1.4853 -1.7105
18494SOL     OW56901   3.434   6.341   7.944  0.5700  0.2523 -0.0526
18494SOL    HW156902   3.427   6.436   7.932 -1.0434  0.0180 -1.3598
18494SOL    HW256903   3.432   6.305   7.855 -1.3003 -1.1007  0.4566
18495SOL     OW56904   6.676   7.472   2.235  0.0284 -0.1498  0.5181
18495SOL    HW156905   6.640   7.464   2.146 -0.6969  0.0450  0.7921
18495SOL    HW256906   6.715   7.560   2.237 -1.7372  0.6586  1.0217
18496SOL     OW56907   7.617   1.786   1.080 -0.3738  0.0131 -0.2428
18496SOL    HW156908   7.645   1.874   1.053 -0.3755  0.2314  0.4691
18496SOL    HW256909   7.554   1.800   1.150 -1.0633 -0.5364 -0.7374
18497SOL     OW56910   0.492   1.331   6.519  0.4583 -0.6102 -0.4621
18497SOL    HW156911   0.552   1.376   6.579  0.5986 -1.1872 -0.1614
18497SOL    HW256912   0.419   1.391   6.509  0.1611 -0.7352  0.7405
18498SOL     OW56913   1.496   4.127   4.762  0.1611  0.3861  0.5784
18498SOL    HW156914   1.501   4.204   4.818  0.7626  0.3418  0.5841
18498SOL    HW256915   1.530   4.056   4.816  1.0045  0.3955  0.0676
18499SOL     OW56916   1.440   1.160   2.782  0.2366  0.1172  0.1920
18499SOL    HW156917   1.447   1.066   2.765 -0.4636  0.2907 -1.1885
18499SOL    HW256918   1.383   1.167   2.859 -0.4189 -0.5589 -0.2261
18500SOL     OW56919   5.322   0.248   4.748  0.8071 -0.0305  0.1794
18500SOL    HW156920   5.285   0.177   4.800  0.9509 -0.4816 -0.3225
18500SOL    HW256921   5.304   0.222   4.657 -0.6358  1.3898  0.0238
18501SOL     OW56922   8.235   5.778   3.700 -0.3723  0.0052 -0.0220
18501SOL    HW156923   8.208   5.688   3.719  1.2360 -0.6754 -0.7368
18501SOL    HW256924   8.158   5.831   3.720 -1.6645 -1.6206 -0.4501
18502SOL     OW56925   7.857   3.380   4.950 -0.1391 -0.0887  0.1512
18502SOL    HW156926   7.945   3.343   4.954 -0.5385 -0.9468  1.2808
18502SOL    HW256927   7.854   3.424   4.865  0.8584 -1.3491 -0.5726
18503SOL     OW56928   7.423   4.902   2.438  0.0096  0.1006  0.3280
18503SOL    HW156929   7.351   4.953   2.402  1.1497  0.8913 -0.9125
18503SOL    HW256930   7.481   4.966   2.479  1.2906 -0.1927 -0.9505
18504SOL     OW56931   8.341   2.702   1.005  0.1498 -0.8185  0.1623
18504SOL    HW156932   8.286   2.736   0.935 -0.8407 -1.2221  0.7211
18504SOL    HW256933   8.318   2.756   1.081 -1.4277 -2.6541  1.0549
18505SOL     OW56934   3.849   3.244   0.498  0.0978 -0.1119 -0.0180
18505SOL    HW156935   3.818   3.168   0.450  0.8693  0.6612 -1.8395
18505SOL    HW256936   3.942   3.251   0.475 -0.0221  1.5369 -0.1587
18506SOL     OW56937   4.462   2.862   4.681 -0.4582 -0.0066 -0.1610
18506SOL    HW156938   4.485   2.840   4.771 -0.6862  2.0255  0.4435
18506SOL    HW256939   4.367   2.877   4.684 -0.9814 -2.4979 -1.3606
18507SOL     OW56940   2.744   2.261   0.047 -0.1232 -0.1399 -0.2355
18507SOL    HW156941   2.688   2.338   0.056  0.1459 -0.0329  0.6477
18507SOL    HW256942   2.690   2.196   0.003 -0.8078  0.0923  0.2542
18508SOL     OW56943   5.662   1.725   3.900 -0.1283 -0.7921 -0.8346
18508SOL    HW156944   5.644   1.819   3.903 -0.3447 -0.6677 -3.4086
18508SOL    HW256945   5.590   1.689   3.847 -0.2784 -2.4923  0.4494
18509SOL     OW56946   0.454   8.162   7.488 -0.8536 -0.1629  0.1431
18509SOL    HW156947   0.456   8.256   7.470  3.8639 -0.4038 -1.9564
18509SOL    HW256948   0.486   8.154   7.577  1.2220  0.2581 -0.5102
18510SOL     OW56949   0.251   5.800   4.580  0.0103 -0.9950 -0.1830
18510SOL    HW156950   0.308   5.863   4.624  0.5237  0.0820 -2.2676
18510SOL    HW256951   0.176   5.790   4.638  0.7335  0.2111  1.0087
18511SOL     OW56952   3.849   3.294   5.971 -0.4765 -0.0762 -0.2576
18511SOL    HW156953   3.819   3.281   5.881  1.2513 -1.7965 -0.6503
18511SOL    HW256954   3.796   3.232   6.023 -0.0496 -0.6003 -0.4324
18512SOL     OW56955   6.608   2.859   2.693  0.5336 -0.5034 -0.9594
18512SOL    HW156956   6.698   2.825   2.698 -0.0379 -1.9390  1.5664
18512SOL    HW256957   6.590   2.890   2.782 -0.8444  1.5919 -1.8996
18513SOL     OW56958   3.770   8.137   1.978 -0.1620  0.0008 -0.3895
18513SOL    HW156959   3.679   8.156   1.955  0.1741  0.1075 -1.6864
18513SOL    HW256960   3.807   8.222   2.004 -0.1368  0.1511 -0.9185
18514SOL     OW56961   4.847   0.892   1.178  0.3161  0.1063  0.1340
18514SOL    HW156962   4.828   0.951   1.104  0.3741 -2.4458 -2.0584
18514SOL    HW256963   4.921   0.840   1.148  2.0219  0.6383  3.0900
18515SOL     OW56964   0.168   2.591   3.524 -0.5683 -0.4005 -0.3087
18515SOL    HW156965   0.073   2.577   3.526 -0.8075  0.8113 -1.5549
18515SOL    HW256966   0.202   2.517   3.475 -0.9961 -0.3194 -0.7405
18516SOL     OW56967   5.553   5.431   2.157 -0.0711 -0.1608  0.0871
18516SOL    HW156968   5.564   5.517   2.196  2.7994 -0.9724  1.3585
18516SOL    HW256969   5.599   5.436   2.073  1.4006 -0.7833  0.8162
18517SOL     OW56970   3.483   2.109   0.243 -0.3658  0.5118 -0.7445
18517SOL    HW156971   3.408   2.097   0.185 -0.3915 -0.6092 -0.5010
18517SOL    HW256972   3.482   2.203   0.264 -0.0769  1.0537 -2.9087
18518SOL     OW56973   5.721   1.021   7.057  0.0592 -0.2437 -0.1712
18518SOL    HW156974   5.783   1.019   6.984  2.8121 -0.1517  2.0004
18518SOL    HW256975   5.742   1.102   7.104 -1.7040 -0.2507  0.7140
18519SOL     OW56976   3.811   6.191   6.443 -0.0544 -0.1279  0.0829
18519SOL    HW156977   3.857   6.113   6.413  0.1588  0.5435 -1.4347
18519SOL    HW256978   3.880   6.247   6.478  0.1403  0.3243 -0.9748
18520SOL     OW56979   4.359   0.496   5.255 -0.1706  0.2549  0.0323
18520SOL    HW156980   4.358   0.401   5.269  0.8051 -0.0414 -1.5891
18520SOL    HW256981   4.268   0.518   5.233 -0.8299  0.0730  2.3050
18521SOL     OW56982   6.550   0.367   7.115 -0.1185 -0.3882  0.5252
18521SOL    HW156983   6.569   0.304   7.045 -0.1162  2.4289 -2.2246
18521SOL    HW256984   6.635   0.405   7.136 -0.6229  2.3365 -1.7496
18522SOL     OW56985   6.324   3.460   7.284 -0.2102  0.1875  0.4799
18522SOL    HW156986   6.230   3.441   7.283 -0.3981  1.0768 -0.3416
18522SOL    HW256987   6.365   3.380   7.251 -0.7550  0.1011 -0.0118
18523SOL     OW56988   4.963   8.045   6.437 -0.1511  0.3674 -0.0279
18523SOL    HW156989   4.953   8.088   6.352  0.7868 -0.5799 -0.6256
18523SOL    HW256990   4.975   8.118   6.498  1.3181  0.9953 -1.0082
18524SOL     OW56991   7.086   0.542   1.291 -0.2141 -1.0385  0.4051
18524SOL    HW156992   7.068   0.636   1.288  1.7245 -0.6094  0.6020
18524SOL    HW256993   7.047   0.513   1.373 -1.5750 -0.6167 -0.0536
18525SOL     OW56994   3.391   3.107   2.929  0.6696 -0.2462 -0.4771
18525SOL    HW156995   3.323   3.047   2.958 -0.9542  1.1361 -1.2637
18525SOL    HW256996   3.449   3.117   3.004 -1.4035  0.4724  1.1191
18526SOL     OW56997   5.200   4.526   4.258  0.1301  0.0217 -0.2311
18526SOL    HW156998   5.202   4.440   4.217 -0.3995  0.0685 -0.3663
18526SOL    HW256999   5.135   4.575   4.207 -0.5490  0.0763  0.6667
18527SOL     OW57000   1.004   5.109   2.214  0.3620  0.2771 -0.2284
18527SOL    HW157001   1.089   5.075   2.187  0.1293  0.1007 -0.7659
18527SOL    HW257002   1.021   5.157   2.295  0.4400 -2.5581  1.5762
18528SOL     OW57003   0.515   5.522   7.793 -0.0837  0.4496  0.0747
18528SOL    HW157004   0.455   5.448   7.784  0.5322 -0.0649  0.2341
18528SOL    HW257005   0.507   5.569   7.709  0.1665 -0.2700 -0.3573
18529SOL     OW57006   5.125   5.105   1.238  0.4463 -0.0899  0.3146
18529SOL    HW157007   5.049   5.157   1.266 -0.7214 -1.9131  0.6774
18529SOL    HW257008   5.137   5.041   1.308  1.4740 -0.7097 -0.4147
18530SOL     OW57009   6.711   7.372   4.209 -0.3939  0.2169  0.5569
18530SOL    HW157010   6.724   7.313   4.134 -0.3367 -0.8582  1.3794
18530SOL    HW257011   6.616   7.386   4.212 -0.3455  0.7390 -0.0469
18531SOL     OW57012   3.601   1.347   3.007  0.0532 -0.4264  0.0311
18531SOL    HW157013   3.566   1.259   2.994  0.6786 -0.9769  1.6993
18531SOL    HW257014   3.656   1.338   3.085  1.2030  1.1477 -0.5674
18532SOL     OW57015   5.544   4.564   7.336 -0.0396 -0.0296  0.5461
18532SOL    HW157016   5.536   4.653   7.370  1.8152  0.3409  0.1425
18532SOL    HW257017   5.626   4.531   7.374 -0.8616 -1.7059  0.9538
18533SOL     OW57018   5.618   3.298   4.278 -0.2796  0.3734 -0.0318
18533SOL    HW157019   5.646   3.296   4.370  0.1502  0.0606 -0.1691
18533SOL    HW257020   5.616   3.391   4.256 -0.2659  0.4428  0.2596
18534SOL     OW57021   7.377   6.001   2.777  0.7009  0.2881  0.3026
18534SOL    HW157022   7.324   5.990   2.698  1.6335 -0.3791 -0.2613
18534SOL    HW257023   7.333   6.070   2.826 -0.6691 -0.2463 -0.1331
18535SOL     OW57024   5.249   6.994   0.603 -0.1802  0.4150 -0.3731
18535SOL    HW157025   5.264   6.917   0.657 -2.6636  1.1397  1.5777
18535SOL    HW257026   5.181   6.968   0.541  0.4238  0.4882 -1.0825
18536SOL     OW57027   2.193   6.195   5.501  0.3932  0.0718  0.4509
18536SOL    HW157028   2.222   6.110   5.535  0.4572  0.2878  0.9576
18536SOL    HW257029   2.117   6.217   5.555 -1.5086 -1.0396 -1.6249
18537SOL     OW57030   7.499   0.428   7.395 -0.3937 -0.0263  0.2844
18537SOL    HW157031   7.495   0.443   7.489  0.4657  0.9204  0.1806
18537SOL    HW257032   7.407   0.421   7.368 -0.6376 -0.7928  1.2494
18538SOL     OW57033   1.376   7.431   3.111  0.4371  0.0069 -0.4076
18538SOL    HW157034   1.358   7.465   3.198  2.0320  0.4883 -0.2411
18538SOL    HW257035   1.463   7.391   3.118  0.4734 -0.1874 -1.7122
18539SOL     OW57036   2.906   4.918   7.677 -0.5005 -0.5685  0.1426
18539SOL    HW157037   2.917   5.001   7.724 -1.2235 -0.9728  1.0423
18539SOL    HW257038   2.949   4.853   7.732  0.9824 -0.6655 -1.0630
18540SOL     OW57039   6.272   3.972   7.556 -0.7938 -0.1186 -0.5728
18540SOL    HW157040   6.254   3.887   7.518 -1.7724 -0.5643  0.7903
18540SOL    HW257041   6.357   3.997   7.521  0.3345 -2.4478  0.3059
18541SOL     OW57042   1.703   4.437   3.377 -0.3516  0.3176 -0.4225
18541SOL    HW157043   1.687   4.427   3.471  2.3633 -2.3461 -0.0706
18541SOL    HW257044   1.760   4.514   3.370 -0.7205  0.6394  0.0491
18542SOL     OW57045   1.546   0.537   3.192  0.1732  0.0960 -0.1953
18542SOL    HW157046   1.575   0.512   3.280  0.5988  3.0554  0.6518
18542SOL    HW257047   1.612   0.501   3.134  0.8705 -0.4476  0.8964
18543SOL     OW57048   4.834   1.455   7.364  0.2344 -0.1515  0.3779
18543SOL    HW157049   4.925   1.486   7.361 -0.1440  0.9757 -0.1785
18543SOL    HW257050   4.797   1.496   7.442 -0.5812  1.8437 -0.9490
18544SOL     OW57051   2.892   5.462   6.116  0.3619  0.2853  0.3760
18544SOL    HW157052   2.849   5.451   6.031  2.0831 -0.6116 -0.4481
18544SOL    HW257053   2.965   5.400   6.113  1.2297  1.1779  2.0019
18545SOL     OW57054   3.263   7.071   2.492 -0.0261 -0.0075 -0.8572
18545SOL    HW157055   3.219   7.131   2.431 -0.4937  0.3012 -0.2181
18545SOL    HW257056   3.317   7.128   2.547  0.5657 -0.3103 -1.1065
18546SOL     OW57057   7.803   4.355   2.265  0.1547  0.3276 -0.0162
18546SOL    HW157058   7.764   4.430   2.309  1.1608  1.0070 -0.2599
18546SOL    HW257059   7.860   4.393   2.199 -0.3704 -0.6710 -1.0711
18547SOL     OW57060   6.229   1.368   4.767 -0.3053  0.1689  0.0353
18547SOL    HW157061   6.140   1.373   4.731 -0.3742  0.9672  0.2971
18547SOL    HW257062   6.285   1.402   4.697 -0.4158  1.4982  0.5583
18548SOL     OW57063   0.108   3.845   5.143  0.3880 -0.3006  0.2503
18548SOL    HW157064   0.200   3.830   5.120  1.2834 -0.3601  3.3643
18548SOL    HW257065   0.109   3.927   5.192 -1.6194  0.7738 -1.3588
18549SOL     OW57066   3.215   5.727   5.382  0.0522  0.1700  0.1012
18549SOL    HW157067   3.127   5.693   5.369  0.6633 -2.2047  1.5522
18549SOL    HW257068   3.245   5.751   5.294 -2.0503  1.2299 -0.3982
18550SOL     OW57069   1.870   6.281   1.182 -0.4109  0.1068 -0.2361
18550SOL    HW157070   1.899   6.190   1.190  0.7297  0.5339  0.6654
18550SOL    HW257071   1.807   6.279   1.110 -0.3226 -1.3754 -0.3077
18551SOL     OW57072   5.404   1.211   6.823 -0.5980  0.3201  0.2960
18551SOL    HW157073   5.353   1.139   6.786  0.3294  0.6036 -1.6368
18551SOL    HW257074   5.444   1.254   6.747  0.3586  1.7422  1.5475
18552SOL     OW57075   8.184   1.034   5.532 -0.5412  1.0641  0.2352
18552SOL    HW157076   8.176   0.943   5.560 -2.9970  1.2142  0.2421
18552SOL    HW257077   8.158   1.033   5.440  1.2180  1.5281 -0.3017
18553SOL     OW57078   2.327   6.450   2.932  0.8682 -0.3397 -0.6874
18553SOL    HW157079   2.393   6.384   2.954  0.9328 -0.5575 -1.5232
18553SOL    HW257080   2.267   6.406   2.873 -0.0727 -0.1565  0.1045
18554SOL     OW57081   1.239   5.383   1.055  0.1608  0.0252 -0.5564
18554SOL    HW157082   1.307   5.417   0.997  0.2203 -0.4154 -0.7474
18554SOL    HW257083   1.265   5.293   1.072 -0.6871 -0.3316 -1.1072
18555SOL     OW57084   1.065   3.087   7.678  0.5106 -0.0363  0.4969
18555SOL    HW157085   1.094   3.136   7.601 -0.6126 -1.8183 -1.1272
18555SOL    HW257086   1.146   3.057   7.720  1.1382  1.2751  0.2842
18556SOL     OW57087   6.089   0.467   1.999  0.2736 -0.6298  0.7046
18556SOL    HW157088   6.012   0.418   2.026 -0.8636  0.3276 -0.6328
18556SOL    HW257089   6.115   0.426   1.916 -1.2372  1.4175 -0.9181
18557SOL     OW57090   5.338   4.602   5.126 -0.0209  0.6984  0.2562
18557SOL    HW157091   5.364   4.672   5.065  0.6399  0.5502  0.3624
18557SOL    HW257092   5.407   4.536   5.118 -0.1923  0.4488  0.7939
18558SOL     OW57093   3.964   4.582   1.616  0.1386  0.4595 -0.0907
18558SOL    HW157094   3.879   4.552   1.648  0.3134  0.1153  0.0585
18558SOL    HW257095   3.971   4.545   1.528  0.9116 -1.0311  0.5813
18559SOL     OW57096   5.848   2.045   3.467 -0.4806 -0.0554  0.1478
18559SOL    HW157097   5.761   2.017   3.493  0.0134 -1.0446  0.7959
18559SOL    HW257098   5.871   2.115   3.528 -0.7802  0.1471  0.0298
18560SOL     OW57099   7.978   2.209   2.215 -0.8882  0.0354  0.8500
18560SOL    HW157100   7.907   2.145   2.229 -0.2957 -0.6772  0.6848
18560SOL    HW257101   7.945   2.290   2.253 -2.3541  0.0831 -0.3909
18561SOL     OW57102   2.861   2.691   4.039 -0.2219 -0.2327  0.5363
18561SOL    HW157103   2.849   2.777   3.999  1.4849 -0.4034 -0.4013
18561SOL    HW257104   2.948   2.663   4.012  0.3253 -1.1276  2.9541
18562SOL     OW57105   2.186   2.115   8.064  0.5922  0.5515 -0.3246
18562SOL    HW157106   2.236   2.170   8.124  0.7314  0.0006  0.0678
18562SOL    HW257107   2.114   2.081   8.117  0.0869  0.9329 -0.7535
18563SOL     OW57108   5.121   0.583   3.926  0.0505 -0.1665 -0.0749
18563SOL    HW157109   5.043   0.570   3.980  0.2722 -1.8684 -0.1051
18563SOL    HW257110   5.098   0.654   3.867 -0.8467  0.5090  1.0401
18564SOL     OW57111   5.574   8.066   6.086  0.2605 -0.4050 -0.2855
18564SOL    HW157112   5.543   7.976   6.071  0.1886 -0.2881 -0.8520
18564SOL    HW257113   5.540   8.116   6.012  2.2734 -0.3769 -1.2550
18565SOL     OW57114   6.167   7.631   3.361 -0.1210  0.4329  0.1207
18565SOL    HW157115   6.081   7.606   3.327 -0.1283  1.1901 -0.4276
18565SOL    HW257116   6.217   7.549   3.358  0.0744  0.5547 -2.3328
18566SOL     OW57117   6.024   1.280   5.853  0.5929  0.0853 -0.1009
18566SOL    HW157118   5.993   1.253   5.767  0.3799  0.7976 -0.2525
18566SOL    HW257119   6.043   1.374   5.844  0.6800  0.1405  0.5938
18567SOL     OW57120   6.095   2.645   5.737  0.0008 -0.1677  0.2623
18567SOL    HW157121   6.069   2.555   5.760 -0.1819  0.0503  0.9148
18567SOL    HW257122   6.160   2.668   5.803 -0.0055  0.2112  0.1356
18568SOL     OW57123   7.553   5.008   8.207 -0.2891  0.3551  0.2703
18568SOL    HW157124   7.477   4.968   8.164 -0.3445  0.6079  0.1317
18568SOL    HW257125   7.619   5.015   8.137 -0.4644  0.9920  0.1654
18569SOL     OW57126   2.801   7.435   5.335 -0.1200 -0.5742 -0.2807
18569SOL    HW157127   2.873   7.384   5.297  1.1865  0.6781  0.4198
18569SOL    HW257128   2.837   7.469   5.417 -1.0216  1.2669 -0.6182
18570SOL     OW57129   5.526   5.673   4.857 -0.6257  0.1820  0.0142
18570SOL    HW157130   5.444   5.631   4.833 -0.4063  0.1232 -0.6521
18570SOL    HW257131   5.592   5.631   4.802 -0.4653  1.7248 -1.0399
18571SOL     OW57132   3.904   7.624   5.008 -0.2307  0.1292  0.0408
18571SOL    HW157133   3.957   7.675   4.946 -0.0885  0.5444  0.4995
18571SOL    HW257134   3.826   7.598   4.958 -0.2549  0.7091 -0.2222
18572SOL     OW57135   2.717   7.948   5.956 -0.7957  0.1570 -0.5197
18572SOL    HW157136   2.694   7.974   5.867  1.3086  0.9692 -0.8692
18572SOL    HW257137   2.718   7.853   5.954  0.7793  0.1588 -1.8265
18573SOL     OW57138   2.612   2.143   4.617 -0.3844 -0.0945  0.4019
18573SOL    HW157139   2.628   2.084   4.691 -0.2126  1.7909  1.9408
18573SOL    HW257140   2.520   2.169   4.626 -0.6068 -0.5255 -0.5701
18574SOL     OW57141   5.044   1.686   3.324 -0.6859  0.5631  0.4132
18574SOL    HW157142   5.134   1.690   3.290 -0.8201 -1.7574 -0.3781
18574SOL    HW257143   5.049   1.628   3.400 -1.5980 -0.1325 -0.0358
18575SOL     OW57144   5.421   3.285   6.072 -0.1433  0.2978  0.4457
18575SOL    HW157145   5.490   3.225   6.043  0.3499  0.7356  0.6759
18575SOL    HW257146   5.454   3.372   6.047 -1.3129  0.4040 -0.8107
18576SOL     OW57147   7.959   2.219   4.691 -0.4517  0.2758  0.2687
18576SOL    HW157148   7.938   2.248   4.779  0.7769 -0.3989  0.8141
18576SOL    HW257149   8.053   2.201   4.693 -0.2312  0.9945 -1.3931
18577SOL     OW57150   3.543   1.092   1.740 -0.6147 -0.0422 -0.2203
18577SOL    HW157151   3.606   1.023   1.721 -0.5237 -0.0273  0.0172
18577SOL    HW257152   3.586   1.173   1.711 -0.5629 -0.0427 -0.1457
18578SOL     OW57153   1.645   2.613   4.114 -0.6158  0.3317  0.4071
18578SOL    HW157154   1.663   2.549   4.044 -2.7159  0.7484 -0.5927
18578SOL    HW257155   1.599   2.563   4.181 -1.3203  0.5565  0.0985
18579SOL     OW57156   2.840   7.629   6.216  0.4973 -0.1859 -1.2858
18579SOL    HW157157   2.798   7.552   6.255  1.4366 -0.2988 -0.4454
18579SOL    HW257158   2.826   7.699   6.278 -1.2902  0.6525 -2.5456
18580SOL     OW57159   1.112   6.873   4.894  0.3784 -0.8539 -0.2301
18580SOL    HW157160   1.127   6.883   4.987  0.1966  0.1104 -0.2957
18580SOL    HW257161   1.038   6.812   4.888 -1.1754  0.8835  0.3536
18581SOL     OW57162   1.261   6.890   4.135  0.0095  0.0380  0.3639
18581SOL    HW157163   1.334   6.952   4.141 -0.5336  0.9522 -1.6466
18581SOL    HW257164   1.298   6.807   4.165  1.3381  0.8735  1.1609
18582SOL     OW57165   4.985   1.222   4.602  0.0824  0.1813  0.3055
18582SOL    HW157166   4.997   1.128   4.608  0.0428  0.1854  0.4722
18582SOL    HW257167   4.980   1.241   4.508  2.3580  0.3108  0.1611
18583SOL     OW57168   6.457   3.949   0.666  0.2082  0.3083 -0.3844
18583SOL    HW157169   6.467   3.859   0.698 -1.7788  0.4364  0.7436
18583SOL    HW257170   6.402   3.941   0.588  0.8200  0.4834 -0.8443
18584SOL     OW57171   4.424   5.170   5.668 -0.1775 -0.5477  0.2835
18584SOL    HW157172   4.501   5.198   5.618  0.8314 -2.1987  0.8471
18584SOL    HW257173   4.410   5.241   5.731  0.2391  0.2494 -0.4961
18585SOL     OW57174   4.777   0.450   0.484 -0.1790  0.1012 -0.3903
18585SOL    HW157175   4.682   0.460   0.480 -0.1296  0.4956 -0.5979
18585SOL    HW257176   4.795   0.434   0.577 -0.4416  0.1192 -0.3361
18586SOL     OW57177   6.573   3.569   2.999  0.3661 -0.2396  0.1898
18586SOL    HW157178   6.663   3.537   2.996  1.4909  2.6442  0.4042
18586SOL    HW257179   6.564   3.622   2.920 -1.0672 -0.2184  0.3406
18587SOL     OW57180   2.851   2.389   2.500 -0.2019  0.9081  0.3586
18587SOL    HW157181   2.775   2.447   2.501  0.3917  1.7226  0.0823
18587SOL    HW257182   2.882   2.391   2.410 -1.9492 -2.3263 -0.4651
18588SOL     OW57183   1.477   6.184   2.880  0.7335  0.1947 -0.5207
18588SOL    HW157184   1.389   6.144   2.875  0.9532 -0.4427  0.4577
18588SOL    HW257185   1.461   6.273   2.911  0.3977  0.2439 -0.8204
18589SOL     OW57186   5.679   1.795   1.271  0.5614 -0.0984 -0.2311
18589SOL    HW157187   5.728   1.876   1.279 -0.8474  0.7575  0.0560
18589SOL    HW257188   5.720   1.735   1.333  0.3147  1.0770  1.1031
18590SOL     OW57189   5.301   0.549   3.584 -0.4146 -0.0742  0.3855
18590SOL    HW157190   5.321   0.634   3.622 -1.4888  0.4104 -0.0936
18590SOL    HW257191   5.341   0.486   3.643  1.7020  0.7904 -0.0663
18591SOL     OW57192   2.452   6.620   6.303  0.0925 -0.1117 -0.2189
18591SOL    HW157193   2.461   6.612   6.208 -0.1254 -0.9400 -0.1798
18591SOL    HW257194   2.542   6.618   6.336  0.1256 -0.8549 -0.3429
18592SOL     OW57195   1.733   0.767   4.232  0.0792 -0.0385  0.0046
18592SOL    HW157196   1.679   0.708   4.180  0.6925  0.0910 -0.8003
18592SOL    HW257197   1.807   0.713   4.261  0.8183  0.3919 -1.0167
18593SOL     OW57198   7.145   0.641   6.513 -0.2568 -0.4744 -0.2721
18593SOL    HW157199   7.091   0.689   6.576 -0.6677  0.8528 -1.5756
18593SOL    HW257200   7.159   0.555   6.553 -0.4593  0.3290  1.6403
18594SOL     OW57201   4.498   6.514   6.527 -0.0364  0.0053 -0.0615
18594SOL    HW157202   4.492   6.559   6.611 -1.3756 -0.1758 -0.0459
18594SOL    HW257203   4.543   6.431   6.547 -0.1580  0.0581  0.4329
18595SOL     OW57204   8.186   2.013   6.756  0.2724  0.1527 -0.1183
18595SOL    HW157205   8.264   2.062   6.784 -1.1910  1.4913  2.0218
18595SOL    HW257206   8.167   1.955   6.829 -1.0143  0.2553 -0.3421
18596SOL     OW57207   3.260   2.324   6.243 -0.6960  0.6404  0.3438
18596SOL    HW157208   3.197   2.299   6.175  0.2208 -0.1303 -0.2349
18596SOL    HW257209   3.301   2.403   6.209 -1.8142  1.5592  1.0414
18597SOL     OW57210   6.139   7.366   3.763  0.5342  0.1963  0.2393
18597SOL    HW157211   6.052   7.386   3.730 -0.4697  1.9912  3.4481
18597SOL    HW257212   6.146   7.271   3.757 -1.2464  0.0834 -0.9321
18598SOL     OW57213   5.400   1.905   5.436 -0.4776  0.2905  0.1054
18598SOL    HW157214   5.475   1.953   5.399 -0.4091  1.0108  1.1395
18598SOL    HW257215   5.438   1.830   5.480 -0.7097 -2.0050 -3.2430
18599SOL     OW57216   6.032   2.430   0.943 -0.1676 -0.1536 -0.1576
18599SOL    HW157217   5.995   2.511   0.908 -1.4895 -0.7412 -0.1691
18599SOL    HW257218   6.106   2.458   0.996 -1.3362  1.1700  0.8319
18600SOL     OW57219   7.144   6.678   5.412  0.5330 -0.0279  0.2572
18600SOL    HW157220   7.157   6.607   5.350  0.0799 -0.0798  0.2179
18600SOL    HW257221   7.228   6.685   5.458  0.8583 -0.0160 -0.3235
18601SOL     OW57222   0.034   3.705   7.474 -0.1661 -0.3673  0.0198
18601SOL    HW157223  -0.048   3.752   7.464 -0.1146 -0.2953 -0.0711
18601SOL    HW257224   0.031   3.668   7.562  0.0736  0.3515  0.3397
18602SOL     OW57225   0.347   7.457   1.185  0.2170  0.1278 -0.0131
18602SOL    HW157226   0.393   7.540   1.195  1.4064 -0.5580  0.4397
18602SOL    HW257227   0.270   7.466   1.241 -0.8646  1.7195 -1.6695
18603SOL     OW57228   1.464   7.593   7.350  0.0473  0.2322  0.1024
18603SOL    HW157229   1.439   7.576   7.441  2.8882 -0.3664  0.8739
18603SOL    HW257230   1.493   7.684   7.350  0.4760  0.0988 -0.0855
18604SOL     OW57231   7.167   4.555   7.315  0.5355 -0.6704 -0.0897
18604SOL    HW157232   7.199   4.627   7.370  1.0320 -0.9153 -0.0474
18604SOL    HW257233   7.217   4.479   7.345 -2.2612 -1.8109  2.1778
18605SOL     OW57234   5.056   1.522   2.664  0.1349  0.0138  0.0293
18605SOL    HW157235   5.031   1.600   2.714 -0.2778  0.0592 -0.2409
18605SOL    HW257236   4.980   1.464   2.670 -0.0411  0.1499 -0.8056
18606SOL     OW57237   3.611   0.956   0.269 -0.4792  0.1578  0.3650
18606SOL    HW157238   3.609   1.050   0.287 -0.6950  0.0456  0.9200
18606SOL    HW257239   3.704   0.933   0.274 -0.2577  0.5822 -1.0806
18607SOL     OW57240   4.157   4.876   4.468 -0.1335  0.0639 -0.1101
18607SOL    HW157241   4.154   4.828   4.551  0.1072  0.6811  0.2610
18607SOL    HW257242   4.128   4.964   4.491 -1.0990 -0.0411 -0.8873
18608SOL     OW57243   7.792   7.206   2.101  1.1082  0.0033 -0.0100
18608SOL    HW157244   7.753   7.292   2.090  0.5313 -0.3102 -0.4550
18608SOL    HW257245   7.721   7.151   2.135  1.2243 -0.5073 -0.5639
18609SOL     OW57246   0.411   6.845   0.061 -0.8378  0.2884  0.5045
18609SOL    HW157247   0.402   6.807  -0.026  0.0312  0.1832  0.4599
18609SOL    HW257248   0.375   6.933   0.053 -1.7260 -0.0798  0.3060
18610SOL     OW57249   6.364   4.505   7.554 -0.1402 -0.3591  0.1785
18610SOL    HW157250   6.436   4.556   7.593  0.1367  0.2250 -1.0509
18610SOL    HW257251   6.346   4.437   7.618 -0.0331  0.8544  1.5523
18611SOL     OW57252   4.846   6.442   7.622 -0.1966 -0.2620 -0.0444
18611SOL    HW157253   4.834   6.519   7.566  1.4683 -1.0320 -1.5408
18611SOL    HW257254   4.910   6.469   7.687 -1.8073  0.4936  1.3079
18612SOL     OW57255   4.671   6.950   1.373  0.1772  0.3454  0.0522
18612SOL    HW157256   4.723   7.019   1.332  1.0685 -1.7568 -2.6548
18612SOL    HW257257   4.733   6.878   1.386 -1.4145 -1.2423 -0.6930
18613SOL     OW57258   0.748   7.227   2.722 -0.4156 -0.3527  0.0260
18613SOL    HW157259   0.704   7.149   2.688 -2.5981 -0.0707  1.9533
18613SOL    HW257260   0.706   7.243   2.806  0.9935  2.0818  0.3465
18614SOL     OW57261   0.836   3.721   5.503 -0.8065 -0.1553 -0.1190
18614SOL    HW157262   0.803   3.786   5.441  1.2549 -1.3427 -2.6189
18614SOL    HW257263   0.795   3.639   5.476  1.1556 -0.9439 -0.8796
18615SOL     OW57264   2.964   5.654   7.601 -0.8425  0.1460 -0.7608
18615SOL    HW157265   2.948   5.731   7.545 -0.3973  0.0466 -1.0361
18615SOL    HW257266   2.896   5.658   7.668  0.1049  1.6750  0.1677
18616SOL     OW57267   5.106   3.029   4.783  0.0804 -0.4674  0.1155
18616SOL    HW157268   5.172   2.989   4.725  0.5010 -0.3840  0.5304
18616SOL    HW257269   5.042   3.067   4.723  1.2109  0.8091 -0.3456
18617SOL     OW57270   1.867   4.551   4.748  0.0959 -0.6047 -0.3955
18617SOL    HW157271   1.930   4.481   4.761  0.6111  0.0183  0.6551
18617SOL    HW257272   1.831   4.536   4.661  2.5464 -0.3178 -1.5358
18618SOL     OW57273   4.871   6.400   1.801 -0.1369  0.2721  0.5235
18618SOL    HW157274   4.785   6.425   1.767 -0.3658 -0.9752  0.1463
18618SOL    HW257275   4.929   6.404   1.724 -0.2394 -0.6159  0.3922
18619SOL     OW57276   8.277   4.219   6.974 -0.1007  0.1202  0.4019
18619SOL    HW157277   8.359   4.192   7.014 -0.8648  1.0839  2.8038
18619SOL    HW257278   8.210   4.163   7.013 -0.8451  0.8498  0.2255
18620SOL     OW57279   2.599   6.819   4.238 -0.3295 -0.4579 -0.5045
18620SOL    HW157280   2.515   6.810   4.194 -0.4531 -4.2993  0.1255
18620SOL    HW257281   2.620   6.730   4.267  2.7461  0.7890  1.6234
18621SOL     OW57282   0.605   1.307   0.238 -0.0230 -0.3719  0.4664
18621SOL    HW157283   0.569   1.280   0.153  1.7065 -0.2051 -0.3686
18621SOL    HW257284   0.598   1.403   0.236  0.1092 -0.3625  0.4692
18622SOL     OW57285   2.939   5.827   3.676 -0.3040  0.6389 -0.5688
18622SOL    HW157286   2.885   5.865   3.606 -1.4848 -0.9486 -0.5780
18622SOL    HW257287   2.971   5.745   3.640  1.5239  1.1742 -0.2564
18623SOL     OW57288   7.792   2.964   1.829 -0.3318 -0.3582  0.0652
18623SOL    HW157289   7.861   2.906   1.798  0.3127  1.3438 -2.0110
18623SOL    HW257290   7.823   2.997   1.913  0.0185 -1.7833  0.5089
18624SOL     OW57291   7.643   6.118   2.802  0.3377  0.0205  0.0905
18624SOL    HW157292   7.589   6.041   2.816  0.2671  0.1671  0.6446
18624SOL    HW257293   7.594   6.171   2.739 -1.1567  1.0731  2.0062
18625SOL     OW57294   7.440   7.058   3.774  0.2335  0.4359 -0.2318
18625SOL    HW157295   7.485   7.143   3.776  0.8261  0.1134  1.2779
18625SOL    HW257296   7.354   7.075   3.812  1.0423  0.0246  1.9095
18626SOL     OW57297   2.132   2.290   2.091 -0.0169 -0.3070 -0.2825
18626SOL    HW157298   2.205   2.233   2.065  1.3749  0.9785  0.6575
18626SOL    HW257299   2.147   2.372   2.044  0.3081  0.6650  1.4223
18627SOL     OW57300   2.848   4.441   7.861 -0.0794  0.1605 -0.2840
18627SOL    HW157301   2.895   4.510   7.907 -3.0907  1.8170  0.5607
18627SOL    HW257302   2.842   4.472   7.771 -1.4763  1.0894  0.1065
18628SOL     OW57303   1.121   2.499   4.155  0.3460  0.2896  0.3512
18628SOL    HW157304   1.135   2.555   4.079 -2.0518  1.9399  1.0235
18628SOL    HW257305   1.199   2.444   4.158  1.1521  1.0971 -2.4662
18629SOL     OW57306   6.384   7.602   0.117 -0.3383 -0.0216 -0.1047
18629SOL    HW157307   6.451   7.574   0.055  1.1283  1.0209  0.9538
18629SOL    HW257308   6.370   7.525   0.172 -0.6485 -0.5087 -0.8369
18630SOL     OW57309   4.513   2.113   7.523  0.2011 -0.0558 -0.4723
18630SOL    HW157310   4.544   2.148   7.440  1.0623  2.4843  0.8143
18630SOL    HW257311   4.460   2.183   7.561  1.1580 -0.4887  1.8281
18631SOL     OW57312   5.205   5.281   5.688 -1.0242 -0.0665  0.4517
18631SOL    HW157313   5.122   5.261   5.645 -1.2013  0.0489  0.7379
18631SOL    HW257314   5.185   5.353   5.748 -0.6584  0.1422  0.3310
18632SOL     OW57315   7.525   7.417   5.232  0.2150  0.6776 -0.6301
18632SOL    HW157316   7.617   7.391   5.239  0.4510  1.3754 -0.9712
18632SOL    HW257317   7.484   7.386   5.312  0.8083  0.5783 -0.3634
18633SOL     OW57318   5.082   3.827   5.398  1.0571 -0.1753 -0.2672
18633SOL    HW157319   5.018   3.841   5.328 -1.2908 -3.0955  1.0899
18633SOL    HW257320   5.154   3.887   5.377 -0.6454  0.9124 -3.7132
18634SOL     OW57321   7.145   8.149   1.966  1.3770 -0.2291  0.3515
18634SOL    HW157322   7.235   8.129   1.991  1.4542  1.3139  1.4088
18634SOL    HW257323   7.126   8.233   2.008  0.4487  1.0134 -2.3036
18635SOL     OW57324   2.977   2.022   4.333  0.1420  0.2450  0.0779
18635SOL    HW157325   3.010   2.000   4.245  1.3203  0.4195  0.4602
18635SOL    HW257326   3.004   2.113   4.347  0.1275  0.1572  0.7068
18636SOL     OW57327   6.111   4.568   0.318  0.2009 -0.4957  0.4556
18636SOL    HW157328   6.114   4.656   0.356  1.1480 -0.2125 -0.2569
18636SOL    HW257329   6.032   4.529   0.357  0.4435  0.2138  1.7402
18637SOL     OW57330   1.516   0.185   7.944  0.4081 -0.2483 -0.2139
18637SOL    HW157331   1.509   0.208   8.037 -0.2240 -1.0713 -0.0442
18637SOL    HW257332   1.608   0.161   7.932  0.5032 -0.0936  0.1928
18638SOL     OW57333   2.521   8.369   4.837 -0.2799 -0.2853  0.6254
18638SOL    HW157334   2.522   8.327   4.752  0.1617 -1.0977  1.0221
18638SOL    HW257335   2.557   8.457   4.821 -0.6837 -0.2449 -0.1032
18639SOL     OW57336   2.904   0.353   8.259 -0.5722  0.1076  0.2298
18639SOL    HW157337   2.989   0.314   8.240 -0.0836  1.0041  0.5002
18639SOL    HW257338   2.896   0.424   8.195 -0.9797  0.2253  0.4085
18640SOL     OW57339   7.114   4.099   3.531  0.7856  0.0823  0.0852
18640SOL    HW157340   7.185   4.144   3.486  0.4244  1.5971  0.9319
18640SOL    HW257341   7.054   4.072   3.462  0.7235  1.4804 -0.4472
18641SOL     OW57342   1.271   3.630   4.916  0.1983 -0.2481  0.3205
18641SOL    HW157343   1.175   3.638   4.911  0.2815  0.3902 -0.3737
18641SOL    HW257344   1.296   3.590   4.833  0.6306  0.5973  0.0315
18642SOL     OW57345   5.755   3.439   7.594 -0.0116  0.3203 -0.4833
18642SOL    HW157346   5.690   3.394   7.647  0.7280  0.4022  0.5193
18642SOL    HW257347   5.740   3.532   7.612  1.2028  0.2948  0.7696
18643SOL     OW57348   1.613   5.279   5.779  0.1989  0.7314  0.2589
18643SOL    HW157349   1.648   5.204   5.730 -0.6170  0.7925 -0.4398
18643SOL    HW257350   1.672   5.288   5.853  0.3822 -0.5419  0.3048
18644SOL     OW57351   2.512   6.451   3.436  0.1693  0.1329  0.3241
18644SOL    HW157352   2.439   6.512   3.430 -0.2033 -0.3151  0.1462
18644SOL    HW257353   2.589   6.506   3.450  0.2841  0.9319 -2.6805
18645SOL     OW57354   1.457   4.413   0.377  0.7295 -0.0577 -0.3615
18645SOL    HW157355   1.484   4.358   0.303 -0.9121 -0.8491 -0.4189
18645SOL    HW257356   1.503   4.496   0.364  1.5549 -0.6686 -1.4885
18646SOL     OW57357   3.245   3.703   8.196  0.3079 -0.1013 -0.0117
18646SOL    HW157358   3.228   3.632   8.258  0.9685 -0.3831 -0.1435
18646SOL    HW257359   3.322   3.674   8.147 -0.0273  0.2456 -0.7666
18647SOL     OW57360   4.642   2.823   7.389 -0.8415 -0.2711 -0.3539
18647SOL    HW157361   4.725   2.858   7.358 -1.4858  1.2911 -0.3991
18647SOL    HW257362   4.578   2.856   7.326 -1.5652 -1.0418 -0.0383
18648SOL     OW57363   5.019   5.398   4.781  0.0754 -0.3762 -0.2681
18648SOL    HW157364   5.072   5.403   4.702  0.4119  0.1664 -0.0115
18648SOL    HW257365   4.929   5.389   4.749  0.2306 -0.3974 -0.7073
18649SOL     OW57366   4.822   7.183   1.417 -0.0123  0.5891 -0.5436
18649SOL    HW157367   4.749   7.233   1.454 -1.1098 -0.5942 -1.0226
18649SOL    HW257368   4.879   7.248   1.377 -1.9111  1.4018 -2.0433
18650SOL     OW57369   2.517   4.454   3.028 -0.2162 -0.5509 -0.0119
18650SOL    HW157370   2.576   4.526   3.049 -0.7611 -0.1382  0.1303
18650SOL    HW257371   2.548   4.420   2.944  0.2160 -0.3349  0.0616
18651SOL     OW57372   5.945   6.624   7.013  0.0180 -0.2044  0.1819
18651SOL    HW157373   5.995   6.543   7.021 -1.1981 -0.9468  0.3577
18651SOL    HW257374   5.880   6.607   6.945  0.8043  1.1944 -0.9849
18652SOL     OW57375   4.664   7.607   7.218  0.6242  0.6039 -0.0682
18652SOL    HW157376   4.587   7.624   7.164  0.7409  4.5395  0.6560
18652SOL    HW257377   4.731   7.575   7.157 -0.9725 -1.0903 -1.0155
18653SOL     OW57378   0.752   0.265   1.839 -0.2566 -0.3790  0.2507
18653SOL    HW157379   0.724   0.173   1.836  1.2932 -0.8756 -0.0198
18653SOL    HW257380   0.846   0.261   1.852  0.2703  1.1103 -2.3025
18654SOL     OW57381   7.657   6.658   1.865  0.0076  0.3359  0.2756
18654SOL    HW157382   7.647   6.745   1.904  0.3912  0.3380  0.3770
18654SOL    HW257383   7.640   6.597   1.937 -2.1254  0.2773 -0.2217
18655SOL     OW57384   7.716   3.708   3.486  0.4893 -0.3990  0.3909
18655SOL    HW157385   7.674   3.686   3.570  1.2381 -2.2083  0.3401
18655SOL    HW257386   7.671   3.787   3.457 -0.5016 -0.3161  1.9986
18656SOL     OW57387   6.478   5.865   4.155 -0.4769 -0.0506 -0.0344
18656SOL    HW157388   6.403   5.840   4.209  0.9745  0.8294  2.6106
18656SOL    HW257389   6.476   5.961   4.155  0.8083 -0.0043  0.4049
18657SOL     OW57390   3.707   5.688   0.608  0.5242  0.4630 -0.2224
18657SOL    HW157391   3.639   5.715   0.670  0.5385 -1.8356  0.8953
18657SOL    HW257392   3.659   5.661   0.530  0.0898 -1.1439  0.5576
18658SOL     OW57393   5.006   4.856   6.626  0.0787 -0.0258  0.1789
18658SOL    HW157394   5.077   4.792   6.627 -0.7506 -0.9802 -0.0275
18658SOL    HW257395   5.038   4.928   6.680  2.4628  1.0178 -2.4244
18659SOL     OW57396   6.894   2.702   4.230  0.1401 -0.0347  0.3642
18659SOL    HW157397   6.883   2.765   4.301  0.3672  0.6875 -0.2311
18659SOL    HW257398   6.908   2.755   4.152  0.6398 -0.8257 -0.1050
18660SOL     OW57399   2.514   6.383   7.472  0.2997 -0.2420 -0.1411
18660SOL    HW157400   2.593   6.427   7.504 -0.1285  0.3354  0.1514
18660SOL    HW257401   2.536   6.290   7.472  1.4989  0.0000 -1.5046
18661SOL     OW57402   1.705   5.149   3.534 -0.4685  0.5524  0.1685
18661SOL    HW157403   1.678   5.159   3.443  1.6520 -1.4540 -0.7988
18661SOL    HW257404   1.643   5.086   3.571 -1.0718  1.0428  0.0032
18662SOL     OW57405   7.072   7.370   1.673 -0.0144 -0.5645  0.7853
18662SOL    HW157406   7.136   7.337   1.609  1.8245 -0.9840  2.7395
18662SOL    HW257407   6.998   7.311   1.665  0.8432 -1.6041  0.1415
18663SOL     OW57408   5.467   4.577   6.692 -0.0463 -0.6586  0.4602
18663SOL    HW157409   5.527   4.550   6.622  0.8024 -0.8446  1.2465
18663SOL    HW257410   5.438   4.495   6.732 -0.8369 -0.5710  0.0868
18664SOL     OW57411   6.986   1.045   8.297 -0.0534  0.3957  0.4274
18664SOL    HW157412   6.982   1.139   8.316  0.5314  0.3222  0.9761
18664SOL    HW257413   7.046   1.037   8.223  0.6734  0.3887  1.0017
18665SOL     OW57414   6.594   8.284   0.128  0.3182 -0.1230  0.0694
18665SOL    HW157415   6.644   8.272   0.209  0.5774 -0.8273 -0.1923
18665SOL    HW257416   6.628   8.218   0.068  0.1696  0.4416 -0.6433
18666SOL     OW57417   1.813   4.274   6.163 -0.2033 -0.5248 -0.2092
18666SOL    HW157418   1.843   4.204   6.106  1.5057 -1.7304  1.9987
18666SOL    HW257419   1.724   4.248   6.187 -0.7300 -0.2904 -1.8070
18667SOL     OW57420   2.087   1.375   4.718  0.3497  0.8280  0.0305
18667SOL    HW157421   2.144   1.439   4.675  0.2885  0.3977 -0.7013
18667SOL    HW257422   1.999   1.412   4.709 -0.0271 -0.5141 -2.6453
18668SOL     OW57423   1.850   4.288   3.712  0.0621 -0.2803  0.2233
18668SOL    HW157424   1.784   4.353   3.688 -1.3097 -2.0229 -0.9650
18668SOL    HW257425   1.861   4.299   3.807 -0.6834  1.1504  0.1743
18669SOL     OW57426   5.326   2.599   7.217  0.4472  0.5664  0.4759
18669SOL    HW157427   5.400   2.647   7.178 -0.4294  1.5106 -0.0791
18669SOL    HW257428   5.353   2.583   7.307  1.0929  1.4330  0.4526
18670SOL     OW57429   5.370   4.570   7.792  0.2588  0.6536  0.4007
18670SOL    HW157430   5.284   4.598   7.761  0.3882  1.2516  0.5754
18670SOL    HW257431   5.362   4.570   7.888  0.1099 -0.3937  0.4033
18671SOL     OW57432   7.208   4.026   5.944  0.2132  0.2027 -0.1677
18671SOL    HW157433   7.156   3.948   5.965  0.7421  0.1652  1.0692
18671SOL    HW257434   7.237   4.011   5.854 -0.1116 -0.7872 -0.1262
18672SOL     OW57435   6.921   0.635   3.268  0.3611  0.0927  0.4853
18672SOL    HW157436   7.006   0.677   3.259  1.1935 -1.3018  1.5365
18672SOL    HW257437   6.921   0.599   3.356 -1.4269  0.2702  0.5928
18673SOL     OW57438   2.407   1.199   7.785 -0.6545 -0.0911  0.3218
18673SOL    HW157439   2.388   1.172   7.875 -1.2971 -0.1330  0.1779
18673SOL    HW257440   2.326   1.180   7.736 -0.1062 -0.6489 -0.3963
18674SOL     OW57441   4.688   1.835   6.260 -0.2060 -0.1158 -0.2247
18674SOL    HW157442   4.628   1.889   6.312 -0.8416 -0.4856 -0.5671
18674SOL    HW257443   4.744   1.898   6.215 -0.3142  0.2351  0.1280
18675SOL     OW57444   5.479   0.327   4.094 -0.0400  0.0128  0.3483
18675SOL    HW157445   5.394   0.298   4.127  0.0478 -0.0753  0.4992
18675SOL    HW257446   5.464   0.416   4.064  0.1533  0.5128  1.7117
18676SOL     OW57447   2.440   6.159   0.500  0.2439  0.5779 -0.1850
18676SOL    HW157448   2.406   6.248   0.500  0.5054  0.7540  2.3407
18676SOL    HW257449   2.363   6.103   0.498  0.0817  0.8185 -1.8989
18677SOL     OW57450   3.151   1.934   8.277 -0.4494  0.4114 -0.1244
18677SOL    HW157451   3.148   2.030   8.284 -1.6958  0.5521 -1.9618
18677SOL    HW257452   3.070   1.911   8.231  0.8797 -1.3122 -1.7218
18678SOL     OW57453   1.155   3.790   4.018 -0.1137 -0.4122 -0.1988
18678SOL    HW157454   1.149   3.885   4.011  0.9486 -0.3977 -1.0255
18678SOL    HW257455   1.065   3.762   4.037 -0.4175  0.7511  0.1679
18679SOL     OW57456   6.352   7.425   0.314 -0.3694  0.6100 -0.2186
18679SOL    HW157457   6.290   7.380   0.372 -0.8664  0.7561 -0.6337
18679SOL    HW257458   6.394   7.354   0.265  0.6144  0.4246  0.8559
18680SOL     OW57459   7.704   6.319   1.172 -0.3491  0.1707 -0.2082
18680SOL    HW157460   7.656   6.304   1.253 -0.7942  0.9302 -0.3180
18680SOL    HW257461   7.738   6.408   1.180  0.9802 -0.3127 -0.1724
18681SOL     OW57462   2.947   5.504   0.076  0.1230 -0.1667 -0.2415
18681SOL    HW157463   3.022   5.453   0.045  0.6168  0.0954  0.4858
18681SOL    HW257464   2.871   5.448   0.060  0.8048 -1.9657  2.2089
18682SOL     OW57465   6.832   5.419   4.677 -0.3892 -0.0221 -0.4322
18682SOL    HW157466   6.845   5.353   4.609  4.0049  1.3066 -1.1938
18682SOL    HW257467   6.905   5.406   4.737 -0.8503  2.5484  0.8209
18683SOL     OW57468   0.180   8.317   7.140  0.5039 -0.0375 -0.5952
18683SOL    HW157469   0.201   8.226   7.163 -0.4900  0.5944  3.6999
18683SOL    HW257470   0.094   8.313   7.099  0.8434 -1.0678 -1.2467
18684SOL     OW57471   5.941   3.995   0.034  0.0685 -0.2478 -0.3466
18684SOL    HW157472   6.007   3.939   0.077  0.7829  0.2964 -0.7099
18684SOL    HW257473   5.880   4.017   0.104  0.2498 -0.7864 -0.0044
18685SOL     OW57474   2.208   1.070   5.612  0.0135  0.6610 -0.0782
18685SOL    HW157475   2.118   1.040   5.603  0.4537 -0.3429 -1.4162
18685SOL    HW257476   2.206   1.129   5.688 -1.7796  0.7882 -0.1850
18686SOL     OW57477   7.000   2.388   3.100 -0.3037  0.6004 -0.0671
18686SOL    HW157478   7.030   2.301   3.074 -1.1582  0.0351  0.8046
18686SOL    HW257479   6.958   2.423   3.022 -2.7925 -1.0548  0.4361
18687SOL     OW57480   4.960   0.932   7.617 -0.5663  0.1309  0.0941
18687SOL    HW157481   5.006   0.956   7.697  2.0622  0.7820 -1.5117
18687SOL    HW257482   4.869   0.959   7.634 -0.2654 -0.2964  3.0199
18688SOL     OW57483   8.240   7.035   3.469  0.7834 -0.2477 -0.2279
18688SOL    HW157484   8.152   6.998   3.465 -1.0826  3.4276  1.4024
18688SOL    HW257485   8.274   7.007   3.554 -0.6726  1.6237  1.0652
18689SOL     OW57486   5.191   7.970   4.598  0.4894 -0.2415 -0.2372
18689SOL    HW157487   5.224   7.918   4.671 -1.4665 -0.2927  0.6750
18689SOL    HW257488   5.250   8.045   4.592  1.1597 -0.6724  0.8598
18690SOL     OW57489   0.533   7.230   2.273  0.0418 -0.1809 -0.3896
18690SOL    HW157490   0.585   7.255   2.349  0.5702  0.8394 -1.0563
18690SOL    HW257491   0.578   7.272   2.199 -0.1445 -1.5839 -1.3274
18691SOL     OW57492   7.004   3.162   3.528 -0.3021  0.2197 -0.1910
18691SOL    HW157493   7.045   3.110   3.459 -0.2723 -0.6042  0.4285
18691SOL    HW257494   7.061   3.150   3.604 -1.3705 -0.5091  0.5341
18692SOL     OW57495   2.214   1.184   4.454  0.7820  0.0630 -0.2855
18692SOL    HW157496   2.299   1.223   4.473  0.6328 -0.1482  0.9113
18692SOL    HW257497   2.229   1.090   4.460  0.1787  0.0498  1.3231
18693SOL     OW57498   4.761   4.168   0.432 -0.5999 -0.5475 -0.2039
18693SOL    HW157499   4.856   4.176   0.445 -0.5302 -1.1632 -0.3505
18693SOL    HW257500   4.751   4.127   0.347 -1.0044 -0.5020 -0.1806
18694SOL     OW57501   2.661   3.656   2.018  0.7237  0.0352  0.0100
18694SOL    HW157502   2.622   3.599   1.953 -0.9184  0.3056  0.7032
18694SOL    HW257503   2.688   3.734   1.969  1.7514 -0.7591 -0.7132
18695SOL     OW57504   8.093   2.046   6.302  0.0048 -0.2268 -0.1527
18695SOL    HW157505   8.105   1.976   6.238 -1.4079 -0.9228  0.2979
18695SOL    HW257506   8.125   2.009   6.384 -1.2753 -0.5973  0.2063
18696SOL     OW57507   4.338   2.852   5.405  0.4882 -0.0023  0.2243
18696SOL    HW157508   4.433   2.844   5.401  0.6103  0.7554  1.2080
18696SOL    HW257509   4.322   2.916   5.474 -0.6965  0.7065 -0.6524
18697SOL     OW57510   2.064   0.667   0.022  0.1886 -1.2850 -0.5928
18697SOL    HW157511   2.038   0.748  -0.022 -0.6834 -0.1819  1.7663
18697SOL    HW257512   1.995   0.652   0.087  1.4829 -2.6726  0.5396
18698SOL     OW57513   6.246   0.375   4.794  0.5316  0.5002  0.6106
18698SOL    HW157514   6.294   0.359   4.875 -0.2754  1.0471  1.2212
18698SOL    HW257515   6.171   0.429   4.821  0.7142  1.4276 -0.6359
18699SOL     OW57516   5.816   1.344   0.683  0.1524 -0.4580  0.2649
18699SOL    HW157517   5.820   1.421   0.627 -0.4831 -0.4835  0.1784
18699SOL    HW257518   5.788   1.377   0.768 -0.5170 -0.6358  0.1237
18700SOL     OW57519   2.645   3.451   1.087  0.1462 -0.0285  0.5861
18700SOL    HW157520   2.719   3.507   1.064 -1.5713  2.5379  0.8253
18700SOL    HW257521   2.592   3.505   1.146 -1.2122 -2.2829  1.5726
18701SOL     OW57522   1.373   3.449   1.505 -0.2912 -0.1150 -0.0280
18701SOL    HW157523   1.324   3.530   1.513  1.8736  1.3582 -0.7389
18701SOL    HW257524   1.392   3.441   1.411 -2.0253 -2.4845 -0.2778
18702SOL     OW57525   8.366   2.819   1.878 -0.0173  0.8086  0.3164
18702SOL    HW157526   8.403   2.749   1.932 -1.3311  0.9462  1.4299
18702SOL    HW257527   8.432   2.888   1.880  0.9217 -0.0446 -0.1052
18703SOL     OW57528   3.107   1.693   3.551 -0.8086 -0.1359 -0.3438
18703SOL    HW157529   3.048   1.661   3.484 -0.1132  0.4883 -1.2714
18703SOL    HW257530   3.051   1.744   3.610 -1.3395 -0.2960 -0.7033
18704SOL     OW57531   8.289   4.171   8.312  0.1898  0.2764  0.1177
18704SOL    HW157532   8.323   4.253   8.347 -0.9206  0.8836 -0.1480
18704SOL    HW257533   8.256   4.124   8.388 -0.9530  0.9733  0.0781
18705SOL     OW57534   8.210   6.322   6.977 -0.0994 -0.3926  0.4629
18705SOL    HW157535   8.135   6.359   7.023 -0.2893  0.8755 -0.7916
18705SOL    HW257536   8.188   6.333   6.884  2.4708  1.8393  0.0130
18706SOL     OW57537   5.785   4.651   3.275 -0.9886 -0.4868 -0.0291
18706SOL    HW157538   5.879   4.636   3.268 -0.6390  0.7930  1.3419
18706SOL    HW257539   5.746   4.564   3.274  0.1941 -1.0184 -0.8453
18707SOL     OW57540   2.293   3.134   7.102 -0.1396  0.6065  0.0632
18707SOL    HW157541   2.261   3.207   7.049 -0.0987  1.3657  1.0483
18707SOL    HW257542   2.286   3.166   7.192  0.0101 -0.5644  0.5016
18708SOL     OW57543   4.304   0.971   4.475  0.2735 -0.1460 -0.6798
18708SOL    HW157544   4.241   1.033   4.511  2.1763  1.8519 -0.5353
18708SOL    HW257545   4.269   0.885   4.497 -0.5875  0.9009  2.5940
18709SOL     OW57546   3.093   4.818   3.290  0.1157  0.1693 -0.3046
18709SOL    HW157547   3.162   4.798   3.227 -0.0165 -0.7588 -0.1791
18709SOL    HW257548   3.124   4.782   3.373 -0.2355  0.3114 -0.1056
18710SOL     OW57549   8.217   2.591   2.971 -0.2742  0.0567 -0.1402
18710SOL    HW157550   8.132   2.629   2.990 -0.6601 -0.4206 -0.8827
18710SOL    HW257551   8.204   2.497   2.984 -0.9656 -0.5210 -3.9725
18711SOL     OW57552   1.750   2.686   4.865 -0.6566 -0.2563  0.7181
18711SOL    HW157553   1.766   2.750   4.934  0.7905 -1.0436  1.1421
18711SOL    HW257554   1.764   2.601   4.907  0.0942 -0.7575 -0.5019
18712SOL     OW57555   1.485   1.474   1.509 -0.1244 -0.3566 -0.6307
18712SOL    HW157556   1.433   1.504   1.584 -0.1034  0.3953 -0.9143
18712SOL    HW257557   1.504   1.382   1.529 -1.5291 -0.6459 -0.5093
18713SOL     OW57558   0.980   6.027   2.283 -0.3964  0.0966  0.3698
18713SOL    HW157559   0.951   6.105   2.237  1.6919 -0.6806 -2.5446
18713SOL    HW257560   0.966   6.047   2.376  0.6327  4.1850 -0.1650
18714SOL     OW57561   1.702   3.850   7.629  0.0164 -0.2456 -0.2643
18714SOL    HW157562   1.625   3.834   7.683 -0.5541 -5.0123 -1.9223
18714SOL    HW257563   1.774   3.811   7.678  0.2348 -0.9063 -1.0756
18715SOL     OW57564   7.074   7.562   0.408  0.1890  1.3974  0.6023
18715SOL    HW157565   7.016   7.512   0.465  1.3053 -0.3273  0.2969
18715SOL    HW257566   7.067   7.519   0.323  2.5588  0.5315  0.7693
18716SOL     OW57567   6.724   0.187   6.999 -0.4479  0.0219  0.2839
18716SOL    HW157568   6.804   0.160   6.954 -0.4437 -0.8752  0.7898
18716SOL    HW257569   6.732   0.149   7.087 -1.3346  0.0797  0.4021
18717SOL     OW57570   7.167   1.516   1.223 -0.4273  0.1298 -0.1770
18717SOL    HW157571   7.177   1.439   1.279 -2.3693  0.6642  0.9847
18717SOL    HW257572   7.212   1.586   1.270  0.4989 -0.0487 -0.7649
18718SOL     OW57573   2.401   3.879   0.717  0.4566  0.1854 -0.5463
18718SOL    HW157574   2.443   3.825   0.785  2.5120  1.5949 -0.5942
18718SOL    HW257575   2.378   3.960   0.762 -1.2911 -0.1213 -0.8117
18719SOL     OW57576   6.428   3.668   4.979  0.4851 -0.2783  0.0927
18719SOL    HW157577   6.345   3.652   4.934  0.6980 -0.9665 -0.0603
18719SOL    HW257578   6.410   3.743   5.036 -0.2215 -0.3873  0.0179
18720SOL     OW57579   3.855   6.916   4.794  0.2961  0.8930 -0.1609
18720SOL    HW157580   3.847   6.854   4.866  1.5908  1.1346  0.2144
18720SOL    HW257581   3.769   6.958   4.788 -0.4174 -0.5166 -0.0490
18721SOL     OW57582   2.698   3.517   5.758  0.5396 -0.6658 -0.3267
18721SOL    HW157583   2.636   3.536   5.687  0.3956 -0.7129 -0.2122
18721SOL    HW257584   2.759   3.454   5.719  0.1980 -1.0387 -0.2747
18722SOL     OW57585   2.294   0.125   5.947  0.0577 -0.1786  0.2036
18722SOL    HW157586   2.265   0.137   6.038  0.6091  2.0428  0.1290
18722SOL    HW257587   2.264   0.204   5.902 -0.0092 -1.1547 -1.5227
18723SOL     OW57588   7.756   7.935   2.000 -0.9615  0.1980  0.2114
18723SOL    HW157589   7.689   7.939   1.932 -1.2190  1.7626  0.5167
18723SOL    HW257590   7.827   7.991   1.967 -0.1945 -0.6872  0.3121
18724SOL     OW57591   7.430   8.290   8.055 -0.2924 -0.1947  0.1948
18724SOL    HW157592   7.510   8.240   8.070 -0.7201 -1.0846 -0.4756
18724SOL    HW257593   7.375   8.234   8.001 -0.7952  0.9771 -0.5706
18725SOL     OW57594   8.246   6.494   7.269 -0.0291 -0.2296 -0.1532
18725SOL    HW157595   8.287   6.448   7.342  0.4433 -1.1836 -1.0009
18725SOL    HW257596   8.318   6.540   7.226  0.0815 -1.3609 -1.2420
18726SOL     OW57597   1.889   5.365   6.758 -0.1454  0.3469  0.7163
18726SOL    HW157598   1.972   5.403   6.731  0.1842 -0.4763  0.5635
18726SOL    HW257599   1.897   5.271   6.740 -0.8186  0.1384  1.4110
18727SOL     OW57600   8.072   8.258   1.262 -0.5527 -0.4197  0.3444
18727SOL    HW157601   8.011   8.314   1.213  0.6319  0.7706  0.1683
18727SOL    HW257602   8.027   8.242   1.345 -1.6305 -0.5963 -0.2513
18728SOL     OW57603   5.048   4.367   7.797 -0.1758 -0.2581 -0.7776
18728SOL    HW157604   5.088   4.370   7.884 -1.5885  2.2630 -0.1184
18728SOL    HW257605   5.035   4.459   7.773 -2.7394 -0.9117 -2.2608
18729SOL     OW57606   0.417   5.547   7.291 -0.2165 -0.2995 -0.0100
18729SOL    HW157607   0.407   5.640   7.272  0.8780 -0.0420  0.6455
18729SOL    HW257608   0.367   5.503   7.221 -1.6370  0.7762  0.2783
18730SOL     OW57609   1.851   7.848   6.483  0.0797  0.0899  0.1983
18730SOL    HW157610   1.759   7.852   6.510  0.0647 -2.4557  0.7713
18730SOL    HW257611   1.874   7.939   6.465 -2.9071  0.7059 -1.2341
18731SOL     OW57612   5.846   0.715   0.938 -0.6858  0.1389  0.1906
18731SOL    HW157613   5.935   0.732   0.905 -1.1637 -1.1552 -1.9030
18731SOL    HW257614   5.790   0.770   0.884 -1.2006  1.0471  1.5967
18732SOL     OW57615   5.819   6.394   0.985 -0.2438  0.7753  0.2614
18732SOL    HW157616   5.746   6.445   0.949  0.3126  0.3235 -1.6191
18732SOL    HW257617   5.808   6.401   1.080 -0.8753  3.4013  0.0845
18733SOL     OW57618   0.443   3.527   2.043 -0.5349 -0.4011 -0.4348
18733SOL    HW157619   0.418   3.439   2.070  0.5054 -0.8059 -0.7363
18733SOL    HW257620   0.478   3.516   1.954  0.0527  0.2272 -0.2959
18734SOL     OW57621   8.091   5.875   2.854 -0.0557 -0.1950 -0.0400
18734SOL    HW157622   8.111   5.968   2.860  0.7322 -0.4182  1.2728
18734SOL    HW257623   8.131   5.847   2.772 -0.1149  0.5703 -0.3367
18735SOL     OW57624   5.789   2.449   0.482 -0.2086  0.2138 -0.2961
18735SOL    HW157625   5.713   2.398   0.457 -0.2431  0.3702 -0.5239
18735SOL    HW257626   5.808   2.502   0.404 -0.1263  0.4860 -0.0925
18736SOL     OW57627   2.381   3.185   1.840  0.3756 -0.4395 -0.5115
18736SOL    HW157628   2.305   3.138   1.875  0.8794 -0.5535  0.4687
18736SOL    HW257629   2.377   3.170   1.746 -0.5204 -0.8861 -0.4171
18737SOL     OW57630   7.965   0.732   3.193 -0.2961  0.9502 -0.0744
18737SOL    HW157631   8.050   0.744   3.150  0.2653 -0.0986  0.7092
18737SOL    HW257632   7.902   0.728   3.121  0.4741  0.4385 -0.7342
18738SOL     OW57633   3.317   6.307   4.857 -0.3404  0.0340  0.0052
18738SOL    HW157634   3.318   6.239   4.924  0.3905 -0.5014 -0.5358
18738SOL    HW257635   3.231   6.298   4.816 -0.4857 -0.1497  0.3428
18739SOL     OW57636   6.159   0.265   7.494 -0.1850 -0.2162  0.5795
18739SOL    HW157637   6.216   0.284   7.420 -0.9272  2.1839  0.5330
18739SOL    HW257638   6.083   0.322   7.482  0.1502  1.0952  3.6862
18740SOL     OW57639   5.175   0.806   4.431 -0.5111 -0.1189 -0.5220
18740SOL    HW157640   5.216   0.841   4.352  0.7148 -1.2877 -0.4400
18740SOL    HW257641   5.248   0.781   4.487 -1.3452 -1.3216  0.0793
18741SOL     OW57642   4.236   1.573   2.122  0.2313 -0.0542 -0.6840
18741SOL    HW157643   4.192   1.521   2.189  0.9215  1.4537  1.0555
18741SOL    HW257644   4.325   1.539   2.119  1.4954  2.4124  2.3552
18742SOL     OW57645   8.355   0.066   2.804 -0.4269  0.4620 -0.0923
18742SOL    HW157646   8.282   0.087   2.745 -0.5208 -1.6250 -0.8111
18742SOL    HW257647   8.433   0.094   2.756 -0.6805  2.4737  0.5721
18743SOL     OW57648   0.520   7.449   4.526  0.0810 -0.0981 -0.3217
18743SOL    HW157649   0.478   7.365   4.505  0.0050 -0.0031 -0.5550
18743SOL    HW257650   0.453   7.499   4.573  0.0794 -0.1149 -0.3061
18744SOL     OW57651   2.025   7.257   2.239 -0.3476 -0.9502 -0.2595
18744SOL    HW157652   1.931   7.274   2.244  0.0782  1.4828  0.9220
18744SOL    HW257653   2.045   7.207   2.318 -0.4726 -0.4170  0.1132
18745SOL     OW57654   3.138   5.402   3.844 -0.2813 -0.2709  0.1461
18745SOL    HW157655   3.172   5.446   3.922 -1.9678  0.4663  0.5036
18745SOL    HW257656   3.045   5.422   3.844 -0.4845 -1.0699 -1.5468
18746SOL     OW57657   5.744   4.015   0.214 -0.3610  0.1140  0.4779
18746SOL    HW157658   5.693   3.935   0.226 -1.0779  0.6406  1.1148
18746SOL    HW257659   5.739   4.059   0.299 -0.8687  1.3281 -0.1463
18747SOL     OW57660   5.921   3.515   7.143 -0.6269  0.1577  0.1095
18747SOL    HW157661   5.918   3.519   7.239 -2.7011 -0.9158  0.1487
18747SOL    HW257662   5.983   3.445   7.124  1.2090  1.5988  0.5776
18748SOL     OW57663   0.151   1.865   0.509  0.4235 -0.2616 -0.2258
18748SOL    HW157664   0.205   1.920   0.452 -0.6035  0.4725 -0.5057
18748SOL    HW257665   0.188   1.879   0.596  2.3560 -1.8100 -0.7159
18749SOL     OW57666   6.152   2.279   3.221  0.5028 -0.8747 -0.2826
18749SOL    HW157667   6.096   2.347   3.184 -0.3326 -1.3524  0.0679
18749SOL    HW257668   6.234   2.285   3.171  0.5267  0.5174 -0.1155
18750SOL     OW57669   0.735   4.330   4.072 -0.4958  0.4753 -0.1791
18750SOL    HW157670   0.791   4.389   4.122 -0.0632 -1.0146  1.1412
18750SOL    HW257671   0.646   4.351   4.101 -0.2559 -0.3519  1.2656
18751SOL     OW57672   6.542   8.300   6.049  0.3949 -0.2504  0.1499
18751SOL    HW157673   6.465   8.279   5.996 -1.5913  1.4113  2.1528
18751SOL    HW257674   6.576   8.215   6.077 -0.5207 -1.0362 -1.0484
18752SOL     OW57675   0.389   1.414   2.045 -0.2383  0.1553 -0.1011
18752SOL    HW157676   0.462   1.474   2.032 -1.1969  1.6095  0.9048
18752SOL    HW257677   0.401   1.380   2.134 -0.0707 -0.6318 -0.4191
18753SOL     OW57678   0.192   6.686   0.834  0.1218  0.3942  0.2047
18753SOL    HW157679   0.191   6.782   0.844  1.0938  0.3603  0.6567
18753SOL    HW257680   0.102   6.665   0.808 -0.0039  1.4696 -0.3062
18754SOL     OW57681   7.041   1.707   3.681  0.4057  0.0864  0.1519
18754SOL    HW157682   7.062   1.630   3.628 -2.1146  0.5520 -1.7391
18754SOL    HW257683   7.074   1.781   3.630 -0.1999  0.4280  0.2416
18755SOL     OW57684   2.611   4.829   5.193 -0.1312  0.1732 -0.1346
18755SOL    HW157685   2.578   4.811   5.105  1.5859  0.3480 -0.8701
18755SOL    HW257686   2.658   4.749   5.218  0.7263  0.6863 -0.0588
18756SOL     OW57687   1.479   2.222   0.955  0.0547  0.7360 -0.2057
18756SOL    HW157688   1.527   2.204   0.874 -0.0266 -0.0494 -0.0809
18756SOL    HW257689   1.516   2.304   0.987 -0.0223  1.1430 -1.1242
18757SOL     OW57690   7.747   7.628   1.823 -0.5117  0.1726 -0.3649
18757SOL    HW157691   7.819   7.691   1.831 -0.3007  0.1737 -1.9404
18757SOL    HW257692   7.780   7.549   1.866  0.7958 -0.0854 -1.7619
18758SOL     OW57693   0.158   3.942   6.224 -0.3328  0.5742  0.2365
18758SOL    HW157694   0.128   4.025   6.260 -0.5903  0.9617 -0.8431
18758SOL    HW257695   0.242   3.962   6.183  0.8474 -0.2404  2.1315
18759SOL     OW57696   0.343   1.546   4.450  0.0783  0.0282  0.0585
18759SOL    HW157697   0.315   1.479   4.511 -0.0319 -0.7374 -0.8115
18759SOL    HW257698   0.439   1.539   4.448  0.0201 -0.6670 -0.6435
18760SOL     OW57699   3.312   1.533   4.231  0.2370  0.4578  0.2132
18760SOL    HW157700   3.348   1.483   4.157  1.1405  1.2515  0.0915
18760SOL    HW257701   3.300   1.469   4.300  0.4260 -0.1046 -0.2676
18761SOL     OW57702   1.027   3.338   1.765  0.4540 -0.6388  0.3054
18761SOL    HW157703   0.991   3.366   1.681  1.1243  0.8366  0.4940
18761SOL    HW257704   1.096   3.276   1.742  1.3423  0.5389 -0.3124
18762SOL     OW57705   1.660   3.115   2.202  0.0014  0.5067 -0.0994
18762SOL    HW157706   1.743   3.101   2.247  0.0341 -1.6773 -0.7171
18762SOL    HW257707   1.684   3.153   2.118  0.4793 -0.8660 -0.6012
18763SOL     OW57708   6.856   5.231   4.224  0.3004 -0.7918 -0.0115
18763SOL    HW157709   6.763   5.244   4.204  0.5087 -1.2408 -1.3489
18763SOL    HW257710   6.898   5.312   4.197 -0.0217  0.6167  3.2686
18764SOL     OW57711   0.993   5.377   5.029 -0.3826  0.4615  0.4545
18764SOL    HW157712   0.972   5.288   5.003 -0.2946  0.2136  1.2081
18764SOL    HW257713   1.010   5.371   5.123  2.0680  0.8248  0.0999
18765SOL     OW57714   8.143   5.890   0.014  0.1368  0.7982  0.1568
18765SOL    HW157715   8.197   5.880   0.092  1.4098 -1.0324 -0.8770
18765SOL    HW257716   8.091   5.809   0.010  1.1573  0.1681 -1.6222
18766SOL     OW57717   4.629   8.266   4.048 -0.1912  0.4654 -0.2936
18766SOL    HW157718   4.570   8.298   3.979  0.0102  0.6759 -0.3700
18766SOL    HW257719   4.669   8.187   4.011 -2.5213 -1.3349  0.8110
18767SOL     OW57720   1.711   6.634   3.144  0.1699  0.3251 -0.1788
18767SOL    HW157721   1.765   6.699   3.098 -0.7684 -0.0745 -1.9349
18767SOL    HW257722   1.680   6.681   3.221  1.6181  1.1040 -0.0218
18768SOL     OW57723   2.303   3.426   0.480 -0.0055 -0.0554 -0.2045
18768SOL    HW157724   2.330   3.373   0.556 -0.7517 -1.7678 -1.0835
18768SOL    HW257725   2.380   3.479   0.460  2.1218 -3.2929 -1.3745
18769SOL     OW57726   0.883   4.932   4.974  0.1943  0.2853  0.4419
18769SOL    HW157727   0.832   4.864   4.931  0.2566  1.2661 -1.2914
18769SOL    HW257728   0.837   4.949   5.056 -1.2202 -0.1134 -0.2384
18770SOL     OW57729   0.088   5.384   0.468 -0.2940  0.0481 -0.3229
18770SOL    HW157730   0.134   5.310   0.428  3.5107  1.3667  1.2225
18770SOL    HW257731  -0.005   5.366   0.451  0.4878 -4.3843 -1.1002
18771SOL     OW57732   2.597   2.773   1.514 -0.5891 -0.6891 -0.1783
18771SOL    HW157733   2.532   2.837   1.484  0.6041  0.9568  0.5672
18771SOL    HW257734   2.681   2.812   1.491  0.2996 -0.6358  2.7045
18772SOL     OW57735   3.287   2.170   0.082 -0.0206  0.2961 -0.3604
18772SOL    HW157736   3.322   2.154  -0.006 -2.7849 -2.2855 -1.1756
18772SOL    HW257737   3.258   2.261   0.081  0.5562  0.4895 -1.8881
18773SOL     OW57738   1.851   6.342   6.209 -0.0511  0.2258  0.1565
18773SOL    HW157739   1.891   6.417   6.164 -1.2984  0.4019 -0.7026
18773SOL    HW257740   1.905   6.267   6.184  1.7357  0.9180  1.7113
18774SOL     OW57741   1.214   4.124   5.733 -0.0212  0.7387  0.0795
18774SOL    HW157742   1.211   4.200   5.675  0.9825  1.4168  0.8845
18774SOL    HW257743   1.275   4.063   5.690 -1.2656  0.1137 -0.8555
18775SOL     OW57744   1.906   4.321   6.490  0.7257 -0.4004  0.3638
18775SOL    HW157745   1.879   4.405   6.452  0.2689  0.0441  1.6234
18775SOL    HW257746   1.960   4.346   6.565  3.3356 -1.2479 -1.0829
18776SOL     OW57747   1.313   3.052   7.852 -0.1022  0.1699 -0.1798
18776SOL    HW157748   1.315   2.962   7.885  0.5100  0.5681  0.9378
18776SOL    HW257749   1.378   3.055   7.782 -0.9090 -0.5245 -0.9643
18777SOL     OW57750   0.312   5.006   1.458 -0.0415 -0.3413  0.1528
18777SOL    HW157751   0.343   5.010   1.368 -0.0979 -0.0485  0.1444
18777SOL    HW257752   0.289   4.914   1.472  0.4202 -0.4755  0.0226
18778SOL     OW57753   5.507   1.471   0.810 -0.4086  0.0033 -0.4352
18778SOL    HW157754   5.591   1.474   0.856 -0.6171  2.3681 -0.0795
18778SOL    HW257755   5.467   1.556   0.828 -2.4001 -0.6419 -1.5199
18779SOL     OW57756   2.963   7.033   4.335  0.2845 -0.5058  0.1252
18779SOL    HW157757   2.895   7.011   4.272 -0.6786  0.0458  0.9382
18779SOL    HW257758   3.038   6.980   4.310 -0.2454 -0.6685 -1.1647
18780SOL     OW57759   5.614   0.066   1.753  0.1402 -0.3056  0.3660
18780SOL    HW157760   5.554   0.010   1.802 -0.4696  0.7940  0.9069
18780SOL    HW257761   5.669   0.108   1.820  1.0823 -0.7912 -0.0775
18781SOL     OW57762   3.593   3.694   3.097  0.6832 -0.5544  0.1913
18781SOL    HW157763   3.504   3.670   3.070  1.1700 -0.1518 -1.9611
18781SOL    HW257764   3.606   3.782   3.063  1.8421 -0.5383  0.6175
18782SOL     OW57765   1.862   2.429   4.025  0.3899  0.4421 -0.2820
18782SOL    HW157766   1.873   2.513   3.981  1.8961  0.7453  0.5885
18782SOL    HW257767   1.917   2.368   3.976  0.7504  0.3999  0.1646
18783SOL     OW57768   1.514   7.606   7.862 -0.5183 -0.0490  0.1601
18783SOL    HW157769   1.514   7.696   7.829  0.3849 -0.1408 -0.1403
18783SOL    HW257770   1.607   7.587   7.877 -0.6629 -1.0596 -0.1684
18784SOL     OW57771   3.773   8.114   6.712 -0.7167 -0.3111 -0.3888
18784SOL    HW157772   3.833   8.100   6.785  1.4592  0.3287 -1.9304
18784SOL    HW257773   3.792   8.203   6.682  0.2647 -1.3424 -3.1702
18785SOL     OW57774   1.789   1.336   8.117  0.0549 -0.5367 -0.3897
18785SOL    HW157775   1.862   1.340   8.056  0.7850 -0.8140  0.4417
18785SOL    HW257776   1.802   1.412   8.175  0.0085 -0.9003  0.1070
18786SOL     OW57777   8.265   1.941   5.234 -0.2332 -0.1740  0.3603
18786SOL    HW157778   8.282   1.894   5.153 -0.0236 -1.9026  1.3599
18786SOL    HW257779   8.351   1.952   5.274 -0.4757 -0.5967  1.0087
18787SOL     OW57780   4.704   4.333   5.736  0.3552 -0.2962  0.1702
18787SOL    HW157781   4.755   4.271   5.788 -0.2027 -0.5190  0.4583
18787SOL    HW257782   4.749   4.416   5.747  1.6319 -0.7999 -0.9225
18788SOL     OW57783   0.590   1.514   0.919  0.1711  0.2517 -0.4438
18788SOL    HW157784   0.639   1.499   0.999  0.0166  0.1810 -0.3609
18788SOL    HW257785   0.607   1.606   0.897 -1.8400  1.0741  1.1054
18789SOL     OW57786   5.715   4.835   6.151  0.2822 -0.4282 -0.5105
18789SOL    HW157787   5.698   4.741   6.152 -0.3075 -0.3257 -0.6911
18789SOL    HW257788   5.636   4.874   6.112  1.5071 -0.0763 -2.8404
18790SOL     OW57789   7.975   6.159   6.548  0.3897 -0.4832 -0.7616
18790SOL    HW157790   7.925   6.156   6.466 -0.9948 -0.3092  0.0460
18790SOL    HW257791   8.059   6.197   6.523 -0.8134  1.7316 -1.7356
18791SOL     OW57792   5.843   2.787   5.817 -0.2958 -0.0488 -0.4154
18791SOL    HW157793   5.935   2.763   5.804  0.4683  3.0304 -1.3742
18791SOL    HW257794   5.845   2.879   5.843 -3.1318  0.1741 -0.6647
18792SOL     OW57795   7.442   3.145   8.070  0.2623  0.7315 -0.2276
18792SOL    HW157796   7.375   3.079   8.056 -0.2495  0.8798  1.3945
18792SOL    HW257797   7.398   3.228   8.051 -0.0142  0.8244  0.7810
18793SOL     OW57798   8.181   8.286   0.478 -0.0599  0.2834  0.0336
18793SOL    HW157799   8.212   8.242   0.558  2.8284 -0.6322 -1.4725
18793SOL    HW257800   8.247   8.353   0.460 -0.6229  0.4309 -1.6074
18794SOL     OW57801   0.146   3.261   1.447  0.2161 -0.1333 -0.1653
18794SOL    HW157802   0.145   3.252   1.542 -0.8903  1.7824  0.0526
18794SOL    HW257803   0.222   3.316   1.429 -0.7307  1.2309 -0.1546
18795SOL     OW57804   7.378   4.650   1.176 -0.4344 -0.4303 -0.3404
18795SOL    HW157805   7.354   4.679   1.263  1.3117  0.0011  0.0492
18795SOL    HW257806   7.362   4.555   1.176  0.3318 -0.5823  0.7658
18796SOL     OW57807   7.862   1.746   0.193 -0.0682 -0.2824  0.1721
18796SOL    HW157808   7.788   1.695   0.225 -1.3232 -0.0887 -2.2073
18796SOL    HW257809   7.874   1.717   0.102  2.0122  0.5714  0.1063
18797SOL     OW57810   6.033   4.583   7.827 -0.4589 -0.1382 -0.1009
18797SOL    HW157811   6.011   4.622   7.743  0.3997  1.7342  0.4880
18797SOL    HW257812   6.127   4.595   7.836 -0.6973  0.8343  1.6371
18798SOL     OW57813   8.098   4.164   1.940  0.0953  0.0011 -0.3270
18798SOL    HW157814   8.138   4.127   1.861 -1.2658  0.2032 -1.1571
18798SOL    HW257815   8.171   4.186   1.997  1.0795 -0.8005 -1.2485
18799SOL     OW57816   2.509   2.049   0.154 -0.1414 -0.8990 -0.6141
18799SOL    HW157817   2.533   2.072   0.064 -0.7402 -1.2380 -0.8603
18799SOL    HW257818   2.415   2.035   0.151 -0.1232 -1.1747  0.0131
18800SOL     OW57819   0.932   4.098   8.009  0.0189  0.3210 -0.1786
18800SOL    HW157820   0.933   4.140   7.923 -0.0215 -0.9352 -0.8127
18800SOL    HW257821   0.903   4.008   7.991 -2.0723  0.6002  1.4044
18801SOL     OW57822   0.368   5.373   5.043  0.3107 -0.0287 -0.0526
18801SOL    HW157823   0.359   5.280   5.065  2.6355 -0.0750  0.9724
18801SOL    HW257824   0.371   5.375   4.947 -2.2322 -0.6808 -0.2237
18802SOL     OW57825   4.757   7.213   6.095 -0.5353  0.0616 -0.4797
18802SOL    HW157826   4.717   7.192   6.180 -2.5783 -0.5318 -1.5159
18802SOL    HW257827   4.770   7.308   6.097  0.2967 -0.0623  0.8223
18803SOL     OW57828   3.972   6.021   4.583  0.3638  0.4359  0.2034
18803SOL    HW157829   3.914   5.948   4.605 -0.2778  0.5752 -0.9719
18803SOL    HW257830   4.032   5.984   4.518  0.6837  0.6822  0.3609
18804SOL     OW57831   5.270   4.272   4.743  0.1955  0.4114  0.3027
18804SOL    HW157832   5.242   4.339   4.681 -1.6851  0.3689  1.0571
18804SOL    HW257833   5.330   4.318   4.802 -0.2549  1.1694  0.1811
18805SOL     OW57834   5.107   0.648   6.184 -0.2059  0.2010 -0.3712
18805SOL    HW157835   5.174   0.710   6.156 -0.4267  0.8795  0.5621
18805SOL    HW257836   5.120   0.572   6.128  1.2159  0.3988 -0.3493
18806SOL     OW57837   0.359   0.968   2.394 -0.3699 -0.1062  0.0008
18806SOL    HW157838   0.404   0.902   2.447  0.8583  1.4518  0.9799
18806SOL    HW257839   0.267   0.958   2.417 -0.2463 -1.5959 -0.0255
18807SOL     OW57840   2.611   2.625   5.004  0.1752  0.0051  0.4331
18807SOL    HW157841   2.620   2.688   5.076  1.4349  0.2140  0.1116
18807SOL    HW257842   2.640   2.542   5.042  2.4072  0.4227 -0.2413
18808SOL     OW57843   0.594   7.913   4.539  0.1201  0.3591 -0.2627
18808SOL    HW157844   0.599   7.833   4.487 -0.4743  0.6420 -0.7745
18808SOL    HW257845   0.514   7.904   4.591 -0.9407  1.3624 -1.6383
18809SOL     OW57846   2.563   4.839   5.527 -0.2262 -0.5728 -0.3593
18809SOL    HW157847   2.492   4.834   5.463 -1.5380  0.8048  0.9108
18809SOL    HW257848   2.523   4.811   5.609  1.4165 -2.2920 -0.0747
18810SOL     OW57849   2.274   6.531   0.317  0.0102 -0.4827  0.0366
18810SOL    HW157850   2.263   6.507   0.225  2.2672  1.3313 -0.7879
18810SOL    HW257851   2.368   6.541   0.328 -0.0406 -2.0738  2.9797
18811SOL     OW57852   7.863   7.149   1.238  0.8170  0.2149 -0.0157
18811SOL    HW157853   7.914   7.110   1.167  1.7179  0.2835  0.5750
18811SOL    HW257854   7.890   7.241   1.238  1.8063 -0.0439  1.2207
18812SOL     OW57855   7.068   3.706   3.050 -0.0714  0.2358 -0.7721
18812SOL    HW157856   7.118   3.728   3.129 -1.5453 -0.1359  0.3151
18812SOL    HW257857   7.025   3.787   3.025 -0.2876  0.1477 -0.6844
18813SOL     OW57858   7.250   4.341   2.789  0.3788 -0.3499 -0.1760
18813SOL    HW157859   7.241   4.369   2.698 -1.4805  1.9151  0.6116
18813SOL    HW257860   7.218   4.415   2.840 -1.3738 -2.6117  2.2465
18814SOL     OW57861   1.729   7.609   4.416  0.0116  0.6601  0.2295
18814SOL    HW157862   1.788   7.679   4.445  0.2492  0.5964 -0.1007
18814SOL    HW257863   1.785   7.532   4.410  0.8087  1.3289 -3.6753
18815SOL     OW57864   4.289   2.728   2.627 -0.1267 -0.3732  0.6787
18815SOL    HW157865   4.300   2.821   2.645 -1.1337  0.2544 -1.5838
18815SOL    HW257866   4.362   2.686   2.672  2.1920  1.8482 -0.7192
18816SOL     OW57867   3.482   4.708   7.380  0.6246 -0.0284  0.0831
18816SOL    HW157868   3.557   4.761   7.406  0.5240  0.5398 -0.7028
18816SOL    HW257869   3.517   4.621   7.365  0.9670  0.0296  0.5504
18817SOL     OW57870   7.727   5.434   0.143  0.3693 -0.1754 -0.2910
18817SOL    HW157871   7.682   5.429   0.227  0.2228  2.3201 -0.1317
18817SOL    HW257872   7.683   5.369   0.088  0.3999 -1.7783  1.4879
18818SOL     OW57873   5.770   6.329   1.323 -0.1028 -0.6345  0.1009
18818SOL    HW157874   5.715   6.259   1.289 -0.0300 -0.1994 -0.9495
18818SOL    HW257875   5.828   6.286   1.386 -0.6501 -1.3509  0.1257
18819SOL     OW57876   4.015   2.579   5.907  0.9038  0.4320 -0.0021
18819SOL    HW157877   3.989   2.668   5.928 -2.1075 -0.6236  1.2862
18819SOL    HW257878   3.945   2.546   5.850  0.0955 -2.0989  2.2504
18820SOL     OW57879   3.427   1.450   8.108 -0.1131 -0.9015 -0.7577
18820SOL    HW157880   3.511   1.454   8.063  0.0582  0.2699 -0.3603
18820SOL    HW257881   3.364   1.426   8.040  0.0066  1.6170 -1.8353
18821SOL     OW57882   2.476   0.698   0.536 -0.0086  0.3335  0.4278
18821SOL    HW157883   2.458   0.712   0.443  1.9292  0.3608  0.0057
18821SOL    HW257884   2.473   0.786   0.574 -0.0266  0.4206  0.2282
18822SOL     OW57885   2.007   6.985   0.759 -0.0544 -0.1240 -0.1129
18822SOL    HW157886   1.912   6.992   0.747  0.0494 -0.8329 -1.6646
18822SOL    HW257887   2.017   6.940   0.843 -1.0960 -0.1337  0.0242
18823SOL     OW57888   0.904   3.624   7.463  0.2380 -0.0129  0.3307
18823SOL    HW157889   0.953   3.612   7.545  0.8712  1.3805  0.1876
18823SOL    HW257890   0.947   3.565   7.401  2.0354  1.4198  0.1156
18824SOL     OW57891   3.501   3.172   4.669 -0.5007  0.4309 -0.2941
18824SOL    HW157892   3.478   3.139   4.582  2.0395  0.2966 -0.9908
18824SOL    HW257893   3.510   3.266   4.657  0.2577  0.3648 -0.3072
18825SOL     OW57894   8.114   1.957   4.204 -0.2582  0.2044  0.1441
18825SOL    HW157895   8.206   1.969   4.183 -0.2107  0.6698  0.6208
18825SOL    HW257896   8.073   2.041   4.184 -0.5777  0.0131 -0.0305
18826SOL     OW57897   8.016   2.124   0.642  0.1371  0.1598  0.4489
18826SOL    HW157898   8.093   2.098   0.591 -2.1595 -1.5161 -2.5533
18826SOL    HW257899   8.019   2.070   0.720  1.8072 -0.1506  0.1982
18827SOL     OW57900   6.713   1.882   6.010  0.1778 -0.6579 -0.0851
18827SOL    HW157901   6.724   1.826   5.934 -0.6437 -1.2673  0.2308
18827SOL    HW257902   6.752   1.966   5.984  0.3240 -0.9987 -0.9973
18828SOL     OW57903   6.629   4.178   0.539  0.2017 -0.0463  0.3878
18828SOL    HW157904   6.564   4.108   0.551 -1.3877  1.6605  2.6423
18828SOL    HW257905   6.682   4.149   0.465 -2.3148 -2.1634 -0.7505
18829SOL     OW57906   2.654   3.964   4.480 -0.1200 -0.3150 -0.2072
18829SOL    HW157907   2.642   3.983   4.387 -0.8558  0.9088  0.1205
18829SOL    HW257908   2.571   3.925   4.507  0.1793 -0.8965 -0.0993
18830SOL     OW57909   4.136   0.175   3.166 -0.0987 -0.1896 -1.4000
18830SOL    HW157910   4.157   0.128   3.085 -1.9307 -0.2758 -1.8739
18830SOL    HW257911   4.053   0.218   3.147  0.1470  0.9432 -0.0147
18831SOL     OW57912   4.635   7.952   6.844  0.2004  0.2724  0.1699
18831SOL    HW157913   4.712   7.945   6.787  1.4536  2.5603  1.4061
18831SOL    HW257914   4.614   8.046   6.845 -1.5753 -0.0840  1.2011
18832SOL     OW57915   6.506   2.167   3.783  0.4247 -0.4877 -0.3625
18832SOL    HW157916   6.547   2.103   3.724 -1.2505 -1.3244 -0.6902
18832SOL    HW257917   6.419   2.181   3.745  0.8202  2.2163 -0.4368
18833SOL     OW57918   5.267   5.114   4.407  0.0273 -0.1609 -0.1051
18833SOL    HW157919   5.319   5.194   4.418  0.8530 -0.5286 -1.2764
18833SOL    HW257920   5.198   5.122   4.474 -0.1497  1.7214 -0.4545
18834SOL     OW57921   1.106   6.822   2.074  0.1584  0.0966  0.1091
18834SOL    HW157922   1.020   6.861   2.089 -0.5751 -0.9538 -1.1939
18834SOL    HW257923   1.123   6.769   2.152 -1.1564 -1.0570 -0.3673
18835SOL     OW57924   4.544   7.726   3.940  0.3416 -0.4202 -0.2701
18835SOL    HW157925   4.545   7.632   3.926 -2.3282 -0.5448 -0.2000
18835SOL    HW257926   4.547   7.764   3.852 -2.4033 -0.7569 -0.5821
18836SOL     OW57927   7.660   3.227   4.223 -0.2311 -0.1075  0.4185
18836SOL    HW157928   7.736   3.225   4.281  0.0359 -1.4250  0.0508
18836SOL    HW257929   7.587   3.198   4.277  0.1266 -1.9284 -0.0148
18837SOL     OW57930   0.920   2.585   3.815 -0.0520 -1.0373  0.3076
18837SOL    HW157931   1.014   2.582   3.833  0.0880 -2.0349 -0.4973
18837SOL    HW257932   0.902   2.677   3.797  0.4951 -0.6078  1.7865
18838SOL     OW57933   4.454   6.302   7.629 -0.3734 -0.4840  0.5473
18838SOL    HW157934   4.438   6.222   7.679 -2.7025 -1.0777 -0.9593
18838SOL    HW257935   4.500   6.273   7.550  0.9991  0.0704  1.1136
18839SOL     OW57936   0.735   0.960   2.158  0.0663  0.4646 -0.3182
18839SOL    HW157937   0.801   0.986   2.222  0.6610  0.5373 -0.9502
18839SOL    HW257938   0.670   1.031   2.161 -0.1648  0.2286  0.5429
18840SOL     OW57939   5.175   2.602   2.270 -0.1849  0.4507 -0.5221
18840SOL    HW157940   5.162   2.561   2.185 -0.3462 -0.8970  0.1144
18840SOL    HW257941   5.097   2.580   2.320 -0.2834  1.5831 -0.1433
18841SOL     OW57942   8.304   1.287   2.521 -0.3175  0.1543 -0.4239
18841SOL    HW157943   8.345   1.296   2.435 -0.1429 -0.3335 -0.3936
18841SOL    HW257944   8.377   1.291   2.583 -0.4419  0.5058 -0.2978
18842SOL     OW57945   5.422   8.005   7.450 -0.0303 -0.3475 -0.3574
18842SOL    HW157946   5.510   7.967   7.453 -0.3044 -0.9187  1.5986
18842SOL    HW257947   5.418   8.062   7.526 -0.8640  0.8964 -1.2825
18843SOL     OW57948   4.472   7.815   1.981  0.5008  0.0453 -0.2631
18843SOL    HW157949   4.536   7.881   1.954  0.0093  0.0104 -1.6215
18843SOL    HW257950   4.519   7.732   1.978  0.1880 -0.1104 -2.2417
18844SOL     OW57951   1.550   4.693   2.364 -0.9437  0.0212 -0.3177
18844SOL    HW157952   1.571   4.702   2.457 -0.8664  0.4072 -0.3705
18844SOL    HW257953   1.630   4.719   2.318 -1.9433  3.0770 -0.5633
18845SOL     OW57954   2.002   1.913   3.009 -0.7483 -0.1507 -0.4641
18845SOL    HW157955   2.050   1.831   3.022 -1.1216 -0.1498  1.2808
18845SOL    HW257956   2.068   1.977   2.984  0.0347 -0.3651  0.9643
18846SOL     OW57957   3.558   5.533   6.423  0.0394  0.3259 -0.1298
18846SOL    HW157958   3.486   5.595   6.430  1.3051  2.0854 -1.5104
18846SOL    HW257959   3.593   5.547   6.334  1.0784 -1.6076 -0.0912
18847SOL     OW57960   6.962   7.472   3.856 -0.5184  0.2821  0.4083
18847SOL    HW157961   6.942   7.410   3.785  0.9834 -0.6711  0.7632
18847SOL    HW257962   6.878   7.487   3.899 -1.1587 -0.4724 -0.5235
18848SOL     OW57963   1.843   3.535   5.782  0.4128 -0.5419 -0.4133
18848SOL    HW157964   1.821   3.601   5.717  0.8390 -0.7280 -0.7525
18848SOL    HW257965   1.770   3.473   5.780 -0.4630  0.4024  0.5855
18849SOL     OW57966   7.007   6.374   3.688  0.5351 -0.7208  0.1194
18849SOL    HW157967   6.952   6.453   3.687 -0.8626 -1.6612  0.2074
18849SOL    HW257968   7.096   6.408   3.688 -0.0174  0.8946  1.2782
18850SOL     OW57969   7.234   3.507   2.868  0.1704  0.1565  0.0138
18850SOL    HW157970   7.244   3.565   2.792 -0.7252  0.3270  0.0187
18850SOL    HW257971   7.161   3.545   2.917 -1.5393 -1.8847 -0.8244
18851SOL     OW57972   5.964   0.716   1.929  0.5490 -0.0480 -0.6466
18851SOL    HW157973   5.993   0.635   1.971 -1.5854 -0.1648  0.7380
18851SOL    HW257974   6.045   0.766   1.917  1.7317 -1.7385 -0.1428
18852SOL     OW57975   2.562   3.099   3.918  0.0928 -0.3593  0.0266
18852SOL    HW157976   2.555   3.009   3.885  3.1948 -0.5310 -0.5485
18852SOL    HW257977   2.508   3.151   3.858  1.7497 -1.3400 -2.5356
18853SOL     OW57978   4.227   7.003   4.190  0.0512  0.2200  0.2286
18853SOL    HW157979   4.170   6.939   4.234  0.2757  0.0948  0.3359
18853SOL    HW257980   4.242   7.071   4.256  0.0877  0.2151  0.2253
18854SOL     OW57981   4.459   2.702   2.160  0.2020 -0.1278 -0.1597
18854SOL    HW157982   4.433   2.681   2.070  0.7004  0.4391 -0.4460
18854SOL    HW257983   4.479   2.617   2.199 -0.7782 -0.4519 -0.3353
18855SOL     OW57984   5.780   4.869   5.311  0.1872 -0.0725  0.0077
18855SOL    HW157985   5.841   4.914   5.251  0.3355 -1.0581 -0.5976
18855SOL    HW257986   5.710   4.933   5.325  0.6242  0.5307 -0.4614
18856SOL     OW57987   6.688   0.144   4.859 -0.1902 -0.6009  0.3355
18856SOL    HW157988   6.682   0.216   4.922 -2.4195  1.0547 -1.5878
18856SOL    HW257989   6.748   0.081   4.899 -0.2395  1.0984  3.3076
18857SOL     OW57990   6.287   4.573   8.174  0.7067  0.2716  0.3811
18857SOL    HW157991   6.281   4.481   8.149  0.5495  0.2198  0.5997
18857SOL    HW257992   6.274   4.573   8.269 -0.5073  0.6291  0.2348
18858SOL     OW57993   1.763   3.004   7.230  0.3807 -0.6705 -0.4381
18858SOL    HW157994   1.825   2.938   7.196 -1.4226 -3.2086  0.8942
18858SOL    HW257995   1.814   3.053   7.294  0.9865 -3.1273  1.1223
18859SOL     OW57996   1.885   4.595   1.522 -0.8353  0.4681  0.1320
18859SOL    HW157997   1.860   4.505   1.499 -1.0239  0.8352 -1.1808
18859SOL    HW257998   1.809   4.648   1.496  0.7829  1.5120 -3.1270
18860SOL     OW57999   0.037   2.904   0.636  0.0053 -0.4740 -0.0168
18860SOL    HW158000   0.065   2.992   0.611  1.2017 -0.9409 -0.3951
18860SOL    HW258001   0.114   2.848   0.619 -0.8109 -1.6312 -0.0315
18861SOL     OW58002   2.105   0.579   1.690 -0.1210 -0.2111  0.2191
18861SOL    HW158003   2.096   0.672   1.714  0.1026  0.3233 -1.6200
18861SOL    HW258004   2.155   0.580   1.609 -0.9946 -1.8947 -0.3803
18862SOL     OW58005   5.596   2.635   8.365 -0.0940  0.0424 -0.2828
18862SOL    HW158006   5.637   2.670   8.287 -0.8439 -1.0055 -1.1805
18862SOL    HW258007   5.546   2.709   8.401 -2.2664 -0.1867 -2.5535
18863SOL     OW58008   3.162   1.958   2.958  0.2691  0.0414 -0.2855
18863SOL    HW158009   3.143   1.942   3.050 -0.0839  0.0414 -0.3562
18863SOL    HW258010   3.172   1.871   2.920  0.7636  0.0499 -0.1760
18864SOL     OW58011   7.461   5.238   4.266 -0.1510 -0.4368 -0.0226
18864SOL    HW158012   7.382   5.288   4.247  0.6735  0.3462 -1.6016
18864SOL    HW258013   7.463   5.170   4.198 -0.7863 -2.0980  1.5540
18865SOL     OW58014   6.006   2.157   5.605 -0.1909 -0.4184 -0.0609
18865SOL    HW158015   6.057   2.087   5.647  0.9292  1.0483  1.1509
18865SOL    HW258016   6.072   2.220   5.575 -1.2299  1.4458  1.3788
18866SOL     OW58017   2.694   3.723   1.462  0.0365 -0.0329 -0.4278
18866SOL    HW158018   2.634   3.765   1.524  0.0709 -0.4191 -0.1299
18866SOL    HW258019   2.755   3.793   1.437  0.0217  0.1264 -0.0295
18867SOL     OW58020   6.935   2.532   7.221  0.0349  0.2610  0.3539
18867SOL    HW158021   6.848   2.493   7.232  0.9719 -2.7534 -1.5295
18867SOL    HW258022   6.930   2.579   7.138  0.0835  0.5061  0.4890
18868SOL     OW58023   2.849   3.927   1.266  0.2556 -0.5181  0.1921
18868SOL    HW158024   2.910   3.899   1.334 -1.1388 -1.3616  1.1338
18868SOL    HW258025   2.905   3.963   1.197  1.7304  0.1328  1.6582
18869SOL     OW58026   3.780   7.613   4.520 -1.0351 -0.4361  0.1290
18869SOL    HW158027   3.831   7.694   4.525 -1.0105 -0.4532  0.1537
18869SOL    HW258028   3.706   7.628   4.579 -0.6172 -0.7294  0.7360
18870SOL     OW58029   1.898   0.162   4.066 -0.6923  0.1943  0.5734
18870SOL    HW158030   1.818   0.117   4.093 -0.2406 -0.4980  0.7562
18870SOL    HW258031   1.886   0.252   4.098 -1.4199  0.1150  0.5424
18871SOL     OW58032   5.523   0.990   2.315 -0.2273  0.3974  0.1967
18871SOL    HW158033   5.460   1.041   2.265 -1.0597 -1.4800 -0.7651
18871SOL    HW258034   5.560   0.929   2.252  1.0056  0.0428  1.2169
18872SOL     OW58035   0.838   0.973   1.004  0.1420  0.3501  0.4659
18872SOL    HW158036   0.757   0.928   1.028 -0.3123  0.0931 -1.3580
18872SOL    HW258037   0.866   0.930   0.923  0.7872  2.0527 -0.2584
18873SOL     OW58038   7.017   5.292   6.260  0.3704  0.1497 -0.1921
18873SOL    HW158039   7.063   5.367   6.297  1.2361 -0.5084  0.1197
18873SOL    HW258040   7.054   5.282   6.172 -0.4754  0.6986 -0.6133
18874SOL     OW58041   4.436   2.894   7.229 -0.1989  0.1064 -0.3020
18874SOL    HW158042   4.346   2.896   7.263 -1.1880 -1.2575 -2.5466
18874SOL    HW258043   4.435   2.956   7.156  0.6816  0.0522 -0.3722
18875SOL     OW58044   1.954   1.607   5.187  0.0719 -0.4825 -0.3250
18875SOL    HW158045   2.034   1.594   5.137  0.4113  0.6648 -0.0967
18875SOL    HW258046   1.970   1.561   5.270  1.2663  1.2765  0.4816
18876SOL     OW58047   8.078   5.277   4.406  0.0897  0.0951  0.1414
18876SOL    HW158048   8.009   5.235   4.355  1.4819 -1.3291 -0.6625
18876SOL    HW258049   8.052   5.264   4.497 -1.6885  1.3689 -0.1331
18877SOL     OW58050   4.199   6.703   7.464  0.2856 -0.0273  0.1198
18877SOL    HW158051   4.218   6.731   7.554  2.6082 -0.5934 -0.1180
18877SOL    HW258052   4.238   6.616   7.458  1.0712  0.4008 -1.6956
18878SOL     OW58053   3.934   0.611   2.067  0.2320 -0.7748 -0.2703
18878SOL    HW158054   3.851   0.637   2.027  0.1809 -0.2063  0.1883
18878SOL    HW258055   3.931   0.515   2.068 -0.5959 -0.7525  0.0993
18879SOL     OW58056   5.850   0.996   2.711 -0.2517  0.3214 -0.5963
18879SOL    HW158057   5.769   1.036   2.678 -0.7943 -0.4080 -0.1907
18879SOL    HW258058   5.865   1.041   2.794 -1.3946 -0.9179  0.3330
18880SOL     OW58059   1.380   2.375   6.236 -0.2436  0.7041 -0.4682
18880SOL    HW158060   1.431   2.324   6.299 -2.9520 -1.3705  0.2182
18880SOL    HW258061   1.294   2.384   6.275 -1.3825  1.3820 -2.8955
18881SOL     OW58062   1.297   2.282   3.786  0.3410  0.3621 -0.4340
18881SOL    HW158063   1.271   2.345   3.719 -1.1029 -0.1034 -0.3459
18881SOL    HW258064   1.272   2.196   3.749 -1.0444  0.1422  0.8989
18882SOL     OW58065   2.475   0.514   5.480 -0.5436  0.1471  0.9239
18882SOL    HW158066   2.545   0.539   5.540 -2.4287  2.7250  2.2763
18882SOL    HW258067   2.517   0.503   5.395  1.7334 -0.2825  2.0575
18883SOL     OW58068   4.100   0.376   5.449 -0.1672 -0.0650  0.2383
18883SOL    HW158069   4.073   0.467   5.442  1.5839  0.3859 -1.6719
18883SOL    HW258070   4.018   0.327   5.455 -1.2323  1.4835 -0.8834
18884SOL     OW58071   5.377   5.566   1.911 -0.1294  0.2236 -0.2256
18884SOL    HW158072   5.348   5.575   2.002 -0.2520 -0.0732 -0.2358
18884SOL    HW258073   5.451   5.506   1.916  1.4324  2.0611 -0.0123
18885SOL     OW58074   0.777   4.729   2.232 -0.1341 -0.3279  0.0746
18885SOL    HW158075   0.860   4.682   2.237 -0.2951 -0.5514  0.9443
18885SOL    HW258076   0.761   4.759   2.322 -1.1107 -0.5036 -0.0243
18886SOL     OW58077   4.623   2.032   6.425 -0.0517 -0.3960 -0.1988
18886SOL    HW158078   4.604   2.014   6.518  0.2594  1.4576  0.2781
18886SOL    HW258079   4.546   2.081   6.395  0.5445  0.3891 -0.4616
18887SOL     OW58080   7.642   4.947   1.279  0.1320 -0.4248 -0.7069
18887SOL    HW158081   7.649   4.987   1.192  0.5178 -0.0736 -0.5173
18887SOL    HW258082   7.621   5.019   1.337 -1.3822 -0.8558 -0.6757
18888SOL     OW58083   4.780   1.972   4.543  0.0123  0.6008 -0.1992
18888SOL    HW158084   4.798   2.020   4.624 -2.0603  0.3541  0.4829
18888SOL    HW258085   4.824   1.888   4.554 -2.2146 -0.4191  1.8530
18889SOL     OW58086   2.900   4.258   6.035  0.1188 -0.1390  0.0017
18889SOL    HW158087   2.929   4.222   6.119 -1.4158  1.8368  1.4876
18889SOL    HW258088   2.836   4.195   6.003 -1.1729  0.2452  1.6429
18890SOL     OW58089   2.844   2.278   4.574 -0.0131  1.2261 -0.4579
18890SOL    HW158090   2.892   2.250   4.653  0.1507 -0.0951 -1.0012
18890SOL    HW258091   2.764   2.225   4.575  0.8746 -0.2299 -2.1717
18891SOL     OW58092   4.484   0.249   2.910  0.4321  0.1427 -0.7130
18891SOL    HW158093   4.496   0.190   2.835 -0.5612  0.8400 -1.4422
18891SOL    HW258094   4.399   0.291   2.894 -0.4144 -0.5935  1.4177
18892SOL     OW58095   6.863   4.690   3.127  0.2580  0.0072  0.3787
18892SOL    HW158096   6.793   4.734   3.175  0.6181  1.3734 -0.3111
18892SOL    HW258097   6.930   4.671   3.194 -0.0080  0.2705  0.7221
18893SOL     OW58098   3.813   4.963   3.841 -0.4444  0.1195  0.3038
18893SOL    HW158099   3.780   4.878   3.868  0.8068 -1.2030 -2.0390
18893SOL    HW258100   3.766   4.983   3.761  0.9763  0.4705 -0.4724
18894SOL     OW58101   5.131   1.377   6.863  1.0546  0.5365  0.1337
18894SOL    HW158102   5.215   1.402   6.825  0.6812  1.0655 -0.3916
18894SOL    HW258103   5.071   1.445   6.832 -0.7336 -2.4768 -3.9637
18895SOL     OW58104   7.415   3.645   3.088  0.2169 -0.4640  0.4026
18895SOL    HW158105   7.504   3.649   3.123 -0.1014 -2.7465  1.6832
18895SOL    HW258106   7.414   3.565   3.035 -1.3060 -1.0095  1.2040
18896SOL     OW58107   7.647   3.922   2.022 -0.7379 -0.1027  0.0694
18896SOL    HW158108   7.669   4.001   2.072 -1.4365  0.7444 -0.9393
18896SOL    HW258109   7.562   3.895   2.057 -1.1354  0.3782 -0.5207
18897SOL     OW58110   2.104   2.574   1.383  0.0320  0.0604 -0.3225
18897SOL    HW158111   2.123   2.490   1.426 -0.0328  0.7492  1.1019
18897SOL    HW258112   2.039   2.553   1.317 -0.9777 -0.8151  0.9062
18898SOL     OW58113   7.207   4.484   3.043 -0.3384  0.4556 -0.0183
18898SOL    HW158114   7.140   4.421   3.069  0.8171 -0.1865  1.6100
18898SOL    HW258115   7.290   4.436   3.051  0.6309  2.2190  1.6742
18899SOL     OW58116   4.476   3.723   1.952 -0.1945  0.2240 -0.8111
18899SOL    HW158117   4.403   3.720   2.014 -1.3278  0.9813 -2.0620
18899SOL    HW258118   4.528   3.646   1.974 -1.6995 -0.7037 -0.2758
18900SOL     OW58119   7.467   8.115   6.705  0.7954 -0.4840 -0.0601
18900SOL    HW158120   7.467   8.207   6.731 -1.4802 -0.0677 -1.2877
18900SOL    HW258121   7.541   8.106   6.646  0.2374  0.9178 -1.0066
18901SOL     OW58122   5.873   6.880   4.148 -0.4984  0.2994 -0.1401
18901SOL    HW158123   5.947   6.927   4.186  0.9702 -0.4288 -1.9176
18901SOL    HW258124   5.867   6.799   4.199  2.2768 -1.2735 -2.0537
18902SOL     OW58125   2.459   4.979   6.740 -0.2317  0.2728  0.1131
18902SOL    HW158126   2.384   4.934   6.778  0.0642  0.0003  0.3834
18902SOL    HW258127   2.428   5.067   6.721 -0.9121 -0.1209 -0.6844
18903SOL     OW58128   2.747   7.568   2.959 -0.0159  0.0619 -0.0984
18903SOL    HW158129   2.750   7.473   2.942 -0.0141  0.2443 -1.2536
18903SOL    HW258130   2.733   7.576   3.053  1.5772 -1.0824  0.2850
18904SOL     OW58131   3.563   5.060   5.554  0.8960 -0.0312  0.4731
18904SOL    HW158132   3.645   5.013   5.534  0.4604 -0.0568 -1.5081
18904SOL    HW258133   3.505   5.036   5.482  0.5654  3.3493 -0.5479
18905SOL     OW58134   3.573   7.589   3.978 -0.0174  0.1826 -0.0477
18905SOL    HW158135   3.575   7.548   4.064  0.1994  3.5857  1.7441
18905SOL    HW258136   3.658   7.567   3.939  0.2915 -0.6014  1.0306
18906SOL     OW58137   6.552   5.707   5.417  0.5308  0.4110 -0.4895
18906SOL    HW158138   6.594   5.720   5.332  0.8120 -1.3302 -0.6478
18906SOL    HW258139   6.547   5.612   5.427 -1.9684  0.5567  0.2356
18907SOL     OW58140   8.155   0.967   3.473  0.2187 -0.1943 -0.0187
18907SOL    HW158141   8.225   1.021   3.509 -0.4333  0.8490 -0.2656
18907SOL    HW258142   8.081   0.982   3.532  0.2768 -1.5368  0.4326
18908SOL     OW58143   1.326   6.092   5.250  0.0562 -0.2245 -0.7092
18908SOL    HW158144   1.363   6.133   5.172  0.4620 -1.3396 -1.1258
18908SOL    HW258145   1.325   6.161   5.315 -0.6472  0.8400 -1.8008
18909SOL     OW58146   2.318   5.639   4.953  0.5369 -0.0955 -0.5067
18909SOL    HW158147   2.330   5.727   4.918 -0.0603  0.0826 -0.2739
18909SOL    HW258148   2.284   5.652   5.041  1.1033 -0.5534 -0.2105
18910SOL     OW58149   6.566   7.903   3.742  0.3605  0.2250  0.2753
18910SOL    HW158150   6.616   7.933   3.818  0.7424  0.0090  0.1116
18910SOL    HW258151   6.475   7.905   3.771  0.5577 -0.5580  0.9816
18911SOL     OW58152   3.104   4.681   5.196  0.2550 -0.4238 -0.7399
18911SOL    HW158153   3.156   4.758   5.175  0.4598 -0.4016 -0.1399
18911SOL    HW258154   3.110   4.626   5.117  0.3634  0.0254 -1.0475
18912SOL     OW58155   8.179   7.636   4.964  0.7746 -0.7969 -0.1499
18912SOL    HW158156   8.222   7.712   5.003 -2.1584  0.9086  0.0095
18912SOL    HW258157   8.128   7.598   5.035 -1.4534 -0.0543 -1.2531
18913SOL     OW58158   6.419   3.153   1.896  0.9358  0.2749  0.0541
18913SOL    HW158159   6.331   3.116   1.907  1.2169 -0.3425  0.2648
18913SOL    HW258160   6.418   3.232   1.951  0.6832 -0.0214  0.4908
18914SOL     OW58161   2.469   4.755   6.063 -0.2135  0.3321 -0.2127
18914SOL    HW158162   2.514   4.681   6.102 -3.0139 -1.0487  0.6770
18914SOL    HW258163   2.378   4.745   6.091 -1.2417  2.5609 -2.3820
18915SOL     OW58164   0.833   2.610   5.630 -0.2508 -0.0585  0.1119
18915SOL    HW158165   0.896   2.547   5.665 -0.6886 -0.5768 -0.0307
18915SOL    HW258166   0.872   2.639   5.547  0.3674  0.5206  0.5938
18916SOL     OW58167   3.608   1.175   0.952  0.4130 -0.2991  0.6032
18916SOL    HW158168   3.648   1.247   1.002 -0.4478  0.4264  0.2674
18916SOL    HW258169   3.554   1.129   1.016  1.1571 -0.8219  0.8783
18917SOL     OW58170   2.045   5.312   5.304  0.0786  0.1524 -0.6341
18917SOL    HW158171   2.066   5.259   5.227 -1.4232  0.6191 -1.4179
18917SOL    HW258172   2.078   5.399   5.282 -2.6731  0.9649 -2.0034
18918SOL     OW58173   4.468   0.270   7.491  0.2083 -0.3676 -0.4556
18918SOL    HW158174   4.457   0.235   7.579  1.4720 -1.6272 -0.7557
18918SOL    HW258175   4.535   0.214   7.451  0.1555  0.5951 -1.9872
18919SOL     OW58176   6.174   7.763   1.630 -0.5099  0.4519  0.2025
18919SOL    HW158177   6.160   7.795   1.720  2.8996 -3.5715  2.5007
18919SOL    HW258178   6.127   7.680   1.627 -0.1633  0.2959 -1.6230
18920SOL     OW58179   4.760   2.780   2.097 -0.3908 -0.3485  0.5401
18920SOL    HW158180   4.834   2.835   2.074 -3.0255  1.8621 -4.0879
18920SOL    HW258181   4.712   2.829   2.164 -1.0796  1.6869 -1.3365
18921SOL     OW58182   8.199   5.304   1.674 -0.2789 -0.2252 -0.5440
18921SOL    HW158183   8.284   5.281   1.636 -0.5675 -0.8196 -0.8313
18921SOL    HW258184   8.211   5.293   1.769 -0.4889 -1.8445 -0.6841
18922SOL     OW58185   3.493   1.762   2.270  0.3568 -0.2980  0.0129
18922SOL    HW158186   3.531   1.674   2.267 -0.5265 -0.6748 -0.4846
18922SOL    HW258187   3.458   1.776   2.182 -0.6768  0.0197  0.4567
18923SOL     OW58188   3.151   1.067   4.410  0.3894  0.3695  0.1403
18923SOL    HW158189   3.088   1.007   4.450  1.4226  0.4085  1.9331
18923SOL    HW258190   3.176   1.025   4.328  0.5760 -1.3442  1.0244
18924NA      NA58191   4.967   7.306   3.524  0.0894  0.5282 -0.1962
18925NA      NA58192   0.779   2.426   3.825  0.3402 -0.1924  0.1280
18926NA      NA58193   0.319   4.587   7.033  0.1926 -0.8600 -0.3579
18927NA      NA58194   5.544   5.464   3.478 -0.7671  0.1356  0.3986
18928NA      NA58195   6.604   4.761   1.107 -0.7064  0.4283 -0.1496
18929NA      NA58196   5.627   4.948   2.218 -0.5591 -0.1876  0.0609
18930NA      NA58197   5.454   5.238   2.180 -0.4065 -0.0315 -0.1495
18931NA      NA58198   8.114   8.184   0.022  0.5155  0.3266  0.2952
18932NA      NA58199   6.095   0.666   4.226 -0.2039  0.0270  0.1388
18933NA      NA58200   1.567   5.139   1.756  0.1519  0.4022 -0.1197
18934NA      NA58201   6.134   6.711   2.020  0.2540  0.5724  0.6068
18935NA      NA58202   5.326   7.188   1.981  0.2497 -0.5440 -0.0207
18936NA      NA58203   2.424   7.218   5.536 -0.1396  0.3685  0.2562
18937NA      NA58204   5.895   6.272   4.412  0.3683 -0.1927 -0.2915
18938NA      NA58205   6.298   6.843   1.800  0.5172 -0.4738  0.2941
18939NA      NA58206   5.612   5.089   2.735 -0.2846 -0.2848  0.7957
18940NA      NA58207   5.703   4.026   2.209 -0.0967  0.1197  0.0007
18941NA      NA58208   3.780   6.352   3.233  0.5557  0.0918 -0.0372
18942NA      NA58209   3.712   7.178   3.081  0.5179  0.6059 -0.6857
18943NA      NA58210   0.024   1.843   1.704  0.0163  0.1726  0.2177
18944NA      NA58211   3.213   2.311   2.820 -0.3529  0.5611 -0.3890
18945NA      NA58212   6.016   1.000   3.114 -0.2934 -0.1061 -0.1475
18946NA      NA58213   5.630   7.556   2.271  0.5910  0.1908 -0.5237
18947NA      NA58214   4.275   4.885   3.780 -0.3602 -0.0584 -0.0185
18948NA      NA58215   4.459   7.548   1.771  0.4463  0.3228  0.0659
18949NA      NA58216   5.415   7.091   2.253  0.2919 -0.1359 -0.1849
18950NA      NA58217   5.367   6.751   5.324  0.0165  0.0050 -0.6919
18951NA      NA58218   5.390   3.625   6.383  0.1621 -0.1900 -0.1792
18952NA      NA58219   5.841   7.010   3.377  0.0733 -0.1681 -0.3092
18953NA      NA58220   4.527   7.477   3.679 -0.5228 -0.3633  0.5303
18954NA      NA58221   6.061   5.392   1.154 -0.1463 -0.3144  0.0039
18955NA      NA58222   1.447   8.143   4.922 -0.3586  0.4176  0.3398
18956NA      NA58223   2.370   1.853   3.384 -0.1790  0.1934 -0.0246
18957NA      NA58224   4.483   5.575   8.187 -0.5099 -0.2144 -0.2788
18958NA      NA58225   0.095   7.927   2.224  0.0628 -0.1023  0.2762
18959NA      NA58226   2.704   1.180   5.152  0.0825  0.6863  0.2082
18960NA      NA58227   3.514   5.512   5.604 -0.4708 -0.2371  0.3371
18961NA      NA58228   5.280   5.759   3.643 -0.8496  0.0946  0.2069
18962NA      NA58229   5.251   6.893   1.999  0.3132 -0.4294 -0.4667
18963NA      NA58230   5.016   8.217   3.766  0.1131 -0.3739  0.0223
18964NA      NA58231   4.108   6.640   3.441  0.0972 -0.1087  0.0044
18965NA      NA58232   6.324   6.560   2.758 -0.3018  0.2635  0.3325
18966NA      NA58233   4.353   7.759   3.621 -0.3393 -0.3919 -0.1025
18967NA      NA58234   5.062   1.987   2.293  0.0803  0.5135  0.0877
18968NA      NA58235   4.538   5.707   3.772 -0.5947 -0.1716  0.3185
18969NA      NA58236   6.509   5.542   2.814  0.1765 -0.1571  0.4423
18970NA      NA58237   4.277   5.859   3.721 -0.3341 -0.0365  0.4236
18971NA      NA58238   1.778   5.678   1.667  0.1485 -0.1797  0.3632
18972NA      NA58239   4.633   7.882   4.076  0.1740  0.0103 -0.4907
18973NA      NA58240   6.296   7.099   5.436  0.1359 -0.1117  0.2857
18974NA      NA58241   2.633   3.576   0.008 -0.1436 -0.0632 -0.2179
18975NA      NA58242   5.287   8.119   3.663 -0.1744  0.1065 -0.1129
18976NA      NA58243   3.590   6.977   3.468  0.2165  0.5347  0.0114
18977NA      NA58244   5.452   5.765   3.405  0.1228 -0.2577 -0.1808
18978NA      NA58245   7.705   0.421   2.454  0.1785 -0.5910 -0.1931
18979NA      NA58246   3.814   6.793   3.437 -0.1517 -0.3537 -0.2201
18980NA      NA58247   4.480   2.890   1.747  0.6502  0.3156 -0.1519
18981NA      NA58248   6.513   5.596   2.488 -0.3327  0.6931  0.0741
18982NA      NA58249   5.382   6.046   3.534 -0.2856  0.2304 -0.1060
18983NA      NA58250   6.994   4.749   4.138  0.2013  0.2431 -0.5450
18984NA      NA58251   5.797   6.511   4.254 -0.0546  0.0762  0.9325
18985NA      NA58252   3.484   7.379   3.164 -0.2703  0.2130 -0.1559
18986NA      NA58253   5.236   7.624   0.824 -0.9490  0.1537 -0.0419
18987NA      NA58254   3.719   6.036   2.750  0.1308  0.0485  0.1738
18988NA      NA58255   5.798   4.945   2.461  0.2355 -0.6758  0.3814
18989NA      NA58256   3.779   7.850   5.874 -0.0310  0.7883 -0.3496
18990NA      NA58257   5.599   5.219   1.931  0.4227  0.0255 -0.2165
18991NA      NA58258   6.646   2.294   4.338  0.2864 -0.4022 -0.1598
18992NA      NA58259   0.452   3.130   7.197 -0.4456  0.2459  0.0602
18993NA      NA58260   4.260   6.087   3.537 -0.8711  0.0422 -0.2918
18994NA      NA58261   4.129   5.813   3.470  0.1351 -0.0558  0.1178
18995NA      NA58262   3.647   7.372   2.857  0.0152 -0.4488 -0.1040
18996NA      NA58263   5.383   7.375   2.257 -0.4493  0.0006 -0.1701
18997NA      NA58264   4.355   6.827   3.392 -0.5866  0.0624  0.0779
18998NA      NA58265   6.661   6.420   2.672  0.3083  0.0570 -0.1838
18999NA      NA58266   2.981   7.080   5.736 -0.5579  0.2584 -0.6324
19000NA      NA58267   1.093   5.921   2.117 -0.1708  0.4315  0.4335
19001NA      NA58268   7.578   7.045   2.788 -0.2122 -0.1581 -0.2532
19002NA      NA58269   5.444   5.035   2.420 -0.2581  0.1684 -0.2440
19003NA      NA58270   5.777   5.054   3.011  0.3708  0.0523  0.2831
19004NA      NA58271   6.111   8.367   2.361  0.7466  0.4466 -0.0839
19005NA      NA58272   1.558   0.964   8.138 -0.0737  0.2457  0.4614
19006NA      NA58273   6.611   5.328   2.639  0.0704  0.1179  0.1332
19007NA      NA58274   3.454   7.131   3.753 -0.0205 -0.1372 -0.4432
19008NA      NA58275   0.621   6.433   4.132 -0.8617  0.3148 -0.6376
19009NA      NA58276   3.591   3.075   7.277  0.2846 -0.0877 -0.0558
19010NA      NA58277   0.662   1.691   4.192  0.1199  0.3411 -0.4610
19011NA      NA58278   6.438   5.113   6.061  0.5911 -0.3055 -0.0548
19012NA      NA58279   2.388   3.842   7.545 -0.5204 -0.0937 -0.0464
19013NA      NA58280   4.662   7.334   3.417  0.0891  0.3263  0.1734
19014NA      NA58281   5.615   6.712   5.169  0.2721  0.1004  0.3860
19015NA      NA58282   5.440   7.556   2.030  0.1296  0.0719 -0.1859
19016NA      NA58283   5.065   8.272   2.356  0.2370  0.0333  0.3271
19017NA      NA58284   5.425   6.930   5.054  0.2906 -0.3756 -0.2480
19018NA      NA58285   6.109   5.084   4.057  0.4957  0.3061  0.0811
19019NA      NA58286   0.563   0.603   6.297  0.2712  0.6465  0.3473
19020NA      NA58287   3.599   0.417   7.352 -0.2560 -0.0487  0.2515
19021NA      NA58288   1.340   2.822   1.956  0.0532  0.1486  0.0596
19022NA      NA58289   5.648   1.681   6.790  0.1462 -0.6258 -0.8948
19023NA      NA58290   7.391   5.571   2.928 -0.2695  0.0096 -0.2526
19024NA      NA58291   1.247   7.798   4.499  0.2240  0.0456  0.2881
19025NA      NA58292   4.084   7.179   4.490  0.2707 -0.1788  0.5532
19026NA      NA58293   6.710   6.266   2.399 -0.4570 -0.4836  0.5716
19027NA      NA58294   6.476   5.048   2.639  0.1360  0.2876 -0.3552
19028NA      NA58295   5.243   7.290   3.376  0.0615 -0.0256  0.2695
19029NA      NA58296   4.502   7.173   3.636  0.3559  0.0177 -0.0144
19030NA      NA58297   6.286   7.163   6.835 -0.0227  0.1833 -0.2024
19031NA      NA58298   0.342   6.385   1.246  0.0917 -0.0597 -0.0968
19032NA      NA58299   4.695   1.306   7.700  0.1119  0.3356  0.0021
19033NA      NA58300   0.068   4.167   3.955  0.3336 -0.6141  0.2783
19034NA      NA58301   5.811   4.011   7.055 -0.3093 -0.3137 -0.0031
19035NA      NA58302   5.606   5.485   5.739  0.1034 -0.6474  0.8775
19036NA      NA58303   5.572   6.594   8.202  0.3299  0.5680 -0.0885
19037NA      NA58304   3.511   2.206   3.042  0.3305 -0.3133  0.6227
19038NA      NA58305   0.330   8.261   6.210  0.2881 -0.6010  0.1806
19039NA      NA58306   4.270   0.066   4.882  0.9457 -0.4006  0.8518
19040NA      NA58307   3.891   5.820   0.593 -0.2046 -0.1336  0.1001
19041NA      NA58308   4.443   5.851   3.487 -0.2158  0.3245  0.2315
19042CL      CL58309   6.925   3.159   5.146 -0.6074 -0.0069  0.3148
19043CL      CL58310   7.191   5.063   2.311 -0.2384  0.1256  0.4775
19044CL      CL58311   1.711   6.018   6.665 -0.0968  0.4177 -0.0726
19045CL      CL58312   5.885   1.166   2.958  0.2484  0.4144 -0.1820
19046CL      CL58313   0.865   3.326   6.942  0.5323 -0.1488 -0.0926
19047CL      CL58314   3.513   3.285   7.386  0.3725 -0.2413 -0.2056
19048CL      CL58315   6.465   1.240   4.104 -0.3138  0.3716 -0.2093
19049CL      CL58316   2.996   4.518   2.603 -0.0930 -0.3834  0.3610
19050CL      CL58317   3.402   2.933   7.267 -0.1176  0.0298 -0.4150
19051CL      CL58318   4.372   5.953   6.471 -0.0303 -0.0320  0.3716
19052CL      CL58319   0.602   7.168   5.345 -0.1306  0.3579  0.1620
19053CL      CL58320   7.832   1.596   5.053  0.4597 -0.1446 -0.1615
19054CL      CL58321   2.443   1.828   5.544 -0.2387  0.0107  0.3050
19055CL      CL58322   4.524   1.544   4.374 -0.1755 -0.0443  0.0041
19056CL      CL58323   0.000   4.555   1.362  0.1941 -0.2620 -0.3998
19057CL      CL58324   6.505   3.883   2.291 -0.2018  0.3532 -0.1024
19058CL      CL58325   4.572   6.424   0.647  0.3029  0.0572  0.2507
19059CL      CL58326   2.203   1.990   0.072  0.0906 -0.0028  0.1563
19060CL      CL58327   6.649   7.555   3.048 -0.3017  0.1965  0.4107
19061CL      CL58328   1.578   7.565   2.449 -0.3439 -0.2230  0.2782
19062CL      CL58329   5.488   1.053   0.268 -0.2316  0.3863  0.2425
19063CL      CL58330   7.959   4.336   3.677  0.3332 -0.1868  0.2552
19064CL      CL58331   4.346   4.009   7.827  0.3305 -0.1535  0.4808
19065CL      CL58332   3.280   2.273   7.924 -0.0547  0.3877 -0.1206
19066CL      CL58333   2.189   5.592   5.242 -0.0736  0.2018  0.1135
19067CL      CL58334   7.464   0.462   0.316  0.2379  0.0246 -0.0557
19068CL      CL58335   3.867   2.741   4.456 -0.0759  0.4941 -0.1085
19069CL      CL58336   1.716   1.220   5.897 -0.0254 -0.0826  0.1116
19070CL      CL58337   5.699   3.708   0.456  0.1711 -0.1009  0.3867
19071CL      CL58338   1.787   2.623   6.092  0.4597 -0.0928 -0.0968
19072CL      CL58339   3.691   5.427   5.104 -0.4456 -0.0775  0.5031
19073CL      CL58340   7.247   0.333   5.543 -0.2587 -0.1299  0.0976
19074CL      CL58341   7.088   0.045   2.091  0.3500  0.1730  0.1028
19075CL      CL58342   2.524   0.834   4.613  0.2901 -0.3879 -0.3814
19076CL      CL58343   1.590   2.519   1.027 -0.4339 -0.1115  0.1581
19077CL      CL58344   7.013   1.055   1.467  0.1739  0.1600  0.4929
19078CL      CL58345   1.136   6.632   1.661 -0.1492 -0.1125  0.1079
19079CL      CL58346   2.667   7.044   3.115  0.0024  0.0707 -0.1743
19080CL      CL58347   1.055   1.411   6.141 -0.6340 -0.3814 -0.1215
19081CL      CL58348   3.653   1.741   6.827  0.5803 -0.0969  0.0146
19082CL      CL58349   7.877   5.163   4.140 -0.4150  0.1322 -0.2492
19083CL      CL58350   2.597   1.225   2.621 -0.1245  0.0461  0.4329
19084CL      CL58351   0.461   2.667   0.365  0.1702 -0.0753  0.1823
19085CL      CL58352   7.445   0.719   6.735 -0.0692 -0.1829 -0.1935
19086CL      CL58353   8.001   5.517   2.568 -0.0332  0.0036  0.5600
19087CL      CL58354   2.357   5.323   1.706 -0.1953  0.0919 -0.5358
19088CL      CL58355   5.952   3.527   5.750  0.2649 -0.0463 -0.3814
19089CL      CL58356   3.161   3.165   0.894 -0.1084  0.1391  0.0134
19090CL      CL58357   4.305   7.425   6.457 -0.0812  0.6151  0.0648
19091CL      CL58358   7.112   2.589   2.685 -0.0863 -0.0493  0.0489
19092CL      CL58359   7.601   2.058   7.714  0.1918  0.2495 -0.1267
19093CL      CL58360   6.211   7.640   7.632  0.3125 -0.2094 -0.1355
19094CL      CL58361   5.704   5.923   7.943  0.1456 -0.6474 -0.3316
19095CL      CL58362   4.164   1.145   7.614 -0.1360 -0.3135 -0.0823
   8.37058   8.37058   8.37058
