;
;   File g3dp_pamam.itp  was generated
;   By user: sairam (1000)
;   On host: sairam
;   At date: Sat. August  6 19:14:29 2023
;
;   This is a standalone topology file
;
;   Created by:
;   ParmEd:       amb2gro_top_gro.py, VERSION 3.4.1
;   Executable:   amb2gro_top_gro.py
;   Library dir:  /usr/local/gromacs/share/gromacs/top
;   Command line:
;     ./amb2gro_top_gro.py -p g3dp_pamam.prmtop -c g3dp_pamam.inpcrd -t g3dp_pamam.itp -g g3dp_pamam.gro -b g3dp_pamam.pdb
;
;
;[ defaults ]
;; nbfunc        comb-rule       gen-pairs       fudgeLJ fudgeQQ
;1               2               yes             0.5          0.83333333  
;
;[ atomtypes ]
;; name    at.num    mass    charge ptype  sigma      epsilon
;n4             7  14.010000  0.00000000  A     0.32499985        0.71128
;c3             6  12.010000  0.00000000  A     0.33996695      0.4577296
;c              6  12.010000  0.00000000  A     0.33996695       0.359824
;o              8  16.000000  0.00000000  A     0.29599219        0.87864
;hx             1   1.008000  0.00000000  A     0.19599772      0.0656888
;hc             1   1.008000  0.00000000  A     0.26495328      0.0656888
;hn             1   1.008000  0.00000000  A     0.10690785      0.0656888
;n              7  14.010000  0.00000000  A     0.32499985        0.71128
;h1             1   1.008000  0.00000000  A      0.2471353      0.0656888


[ moleculetype ]
; Name            nrexcl
g3dp_pamam       3

[ atoms ]
;   nr       type  resnr residue  atom   cgnr    charge       mass  typeB    chargeB      massB
; residue    1 aaa rtp aaa q 2.0
    1         n4      1    aaa     N1      1 -0.01815100  14.010000   ; qtot -0.018151
    2         c3      1    aaa     C1      2 0.01243000  12.010000   ; qtot -0.005721
    3         c3      1    aaa     C2      3 0.01243000  12.010000   ; qtot 0.006709
    4         n4      1    aaa     N2      4 -0.01815100  14.010000   ; qtot -0.011442
    5         c3      1    aaa     C3      5 -0.01431700  12.010000   ; qtot -0.025759
    6         c3      1    aaa     C4      6 -0.01431700  12.010000   ; qtot -0.040076
    7         c3      1    aaa     C5      7 -0.01431700  12.010000   ; qtot -0.054393
    8         c3      1    aaa     C6      8 -0.01431700  12.010000   ; qtot -0.068710
    9         c3      1    aaa     C7      9 -0.26758200  12.010000   ; qtot -0.336292
   10          c      1    aaa     C8     10 0.71337400  12.010000   ; qtot 0.377082
   11         c3      1    aaa     C9     11 -0.26758200  12.010000   ; qtot 0.109500
   12          c      1    aaa    C10     12 0.71337400  12.010000   ; qtot 0.822874
   13         c3      1    aaa    C11     13 -0.26758200  12.010000   ; qtot 0.555292
   14          c      1    aaa    C12     14 0.71337400  12.010000   ; qtot 1.268666
   15         c3      1    aaa    C13     15 -0.26758200  12.010000   ; qtot 1.001084
   16          c      1    aaa    C14     16 0.71337400  12.010000   ; qtot 1.714458
   17          o      1    aaa     O1     17 -0.55531800  16.000000   ; qtot 1.159140
   18          o      1    aaa     O2     18 -0.55531800  16.000000   ; qtot 0.603822
   19          o      1    aaa     O3     19 -0.55531800  16.000000   ; qtot 0.048504
   20          o      1    aaa     O4     20 -0.55531800  16.000000   ; qtot -0.506814
   21         hx      1    aaa     H1     21 0.08276100   1.008000   ; qtot -0.424053
   22         hx      1    aaa     H2     22 0.08276100   1.008000   ; qtot -0.341292
   23         hx      1    aaa     H3     23 0.08276100   1.008000   ; qtot -0.258531
   24         hx      1    aaa     H4     24 0.08276100   1.008000   ; qtot -0.175770
   25         hx      1    aaa     H5     25 0.10467000   1.008000   ; qtot -0.071100
   26         hx      1    aaa     H6     26 0.10467000   1.008000   ; qtot 0.033570
   27         hx      1    aaa     H7     27 0.10467000   1.008000   ; qtot 0.138240
   28         hx      1    aaa     H8     28 0.10467000   1.008000   ; qtot 0.242910
   29         hx      1    aaa     H9     29 0.10467000   1.008000   ; qtot 0.347580
   30         hx      1    aaa    H10     30 0.10467000   1.008000   ; qtot 0.452250
   31         hx      1    aaa    H11     31 0.10467000   1.008000   ; qtot 0.556920
   32         hx      1    aaa    H12     32 0.10467000   1.008000   ; qtot 0.661590
   33         hc      1    aaa    H13     33 0.11830200   1.008000   ; qtot 0.779892
   34         hc      1    aaa    H14     34 0.11830200   1.008000   ; qtot 0.898194
   35         hc      1    aaa    H15     35 0.11830200   1.008000   ; qtot 1.016496
   36         hc      1    aaa    H16     36 0.11830200   1.008000   ; qtot 1.134798
   37         hc      1    aaa    H17     37 0.11830200   1.008000   ; qtot 1.253100
   38         hc      1    aaa    H18     38 0.11830200   1.008000   ; qtot 1.371402
   39         hc      1    aaa    H19     39 0.11830200   1.008000   ; qtot 1.489704
   40         hc      1    aaa    H20     40 0.11830200   1.008000   ; qtot 1.608006
   41         hn      1    aaa    H37     41 0.19599700   1.008000   ; qtot 1.804003
   42         hn      1    aaa    H38     42 0.19599700   1.008000   ; qtot 2.000000
; residue    2 bbb rtp bbb q 1.0
   43         n4      2    bbb     N1     43 -0.02747900  14.010000   ; qtot 1.972521
   44         c3      2    bbb     C1     44 -0.05097600  12.010000   ; qtot 1.921545
   45         c3      2    bbb     C2     45 -0.05097600  12.010000   ; qtot 1.870569
   46         c3      2    bbb     C3     46 -0.18457900  12.010000   ; qtot 1.685990
   47          c      2    bbb     C4     47 0.67254400  12.010000   ; qtot 2.358534
   48         c3      2    bbb     C5     48 -0.18457900  12.010000   ; qtot 2.173955
   49          c      2    bbb     C6     49 0.67254400  12.010000   ; qtot 2.846499
   50         c3      2    bbb     C7     50 -0.02083000  12.010000   ; qtot 2.825669
   51         c3      2    bbb     C8     51 -0.03328100  12.010000   ; qtot 2.792388
   52          n      2    bbb     N2     52 -0.33303000  14.010000   ; qtot 2.459358
   53          o      2    bbb     O1     53 -0.52917200  16.000000   ; qtot 1.930186
   54          o      2    bbb     O2     54 -0.52917200  16.000000   ; qtot 1.401014
   55         hx      2    bbb     H1     55 0.11563300   1.008000   ; qtot 1.516647
   56         hx      2    bbb     H2     56 0.11563300   1.008000   ; qtot 1.632280
   57         hx      2    bbb     H3     57 0.11563300   1.008000   ; qtot 1.747913
   58         hx      2    bbb     H4     58 0.11563300   1.008000   ; qtot 1.863546
   59         hc      2    bbb     H5     59 0.08347900   1.008000   ; qtot 1.947025
   60         hc      2    bbb     H6     60 0.08347900   1.008000   ; qtot 2.030504
   61         hc      2    bbb     H7     61 0.08347900   1.008000   ; qtot 2.113983
   62         hc      2    bbb     H8     62 0.08347900   1.008000   ; qtot 2.197462
   63         hx      2    bbb     H9     63 0.07988000   1.008000   ; qtot 2.277342
   64         hx      2    bbb    H10     64 0.07988000   1.008000   ; qtot 2.357222
   65         h1      2    bbb    H11     65 0.10618100   1.008000   ; qtot 2.463403
   66         h1      2    bbb    H12     66 0.10618100   1.008000   ; qtot 2.569584
   67         hn      2    bbb    H13     67 0.25916100   1.008000   ; qtot 2.828745
   68         hn      2    bbb    H25     68 0.17125500   1.008000   ; qtot 3.000000
; residue    3 bbb rtp bbb q 1.0
   69         n4      3    bbb     N1     69 -0.02747900  14.010000   ; qtot 2.972521
   70         c3      3    bbb     C1     70 -0.05097600  12.010000   ; qtot 2.921545
   71         c3      3    bbb     C2     71 -0.05097600  12.010000   ; qtot 2.870569
   72         c3      3    bbb     C3     72 -0.18457900  12.010000   ; qtot 2.685990
   73          c      3    bbb     C4     73 0.67254400  12.010000   ; qtot 3.358534
   74         c3      3    bbb     C5     74 -0.18457900  12.010000   ; qtot 3.173955
   75          c      3    bbb     C6     75 0.67254400  12.010000   ; qtot 3.846499
   76         c3      3    bbb     C7     76 -0.02083000  12.010000   ; qtot 3.825669
   77         c3      3    bbb     C8     77 -0.03328100  12.010000   ; qtot 3.792388
   78          n      3    bbb     N2     78 -0.33303000  14.010000   ; qtot 3.459358
   79          o      3    bbb     O1     79 -0.52917200  16.000000   ; qtot 2.930186
   80          o      3    bbb     O2     80 -0.52917200  16.000000   ; qtot 2.401014
   81         hx      3    bbb     H1     81 0.11563300   1.008000   ; qtot 2.516647
   82         hx      3    bbb     H2     82 0.11563300   1.008000   ; qtot 2.632280
   83         hx      3    bbb     H3     83 0.11563300   1.008000   ; qtot 2.747913
   84         hx      3    bbb     H4     84 0.11563300   1.008000   ; qtot 2.863546
   85         hc      3    bbb     H5     85 0.08347900   1.008000   ; qtot 2.947025
   86         hc      3    bbb     H6     86 0.08347900   1.008000   ; qtot 3.030504
   87         hc      3    bbb     H7     87 0.08347900   1.008000   ; qtot 3.113983
   88         hc      3    bbb     H8     88 0.08347900   1.008000   ; qtot 3.197462
   89         hx      3    bbb     H9     89 0.07988000   1.008000   ; qtot 3.277342
   90         hx      3    bbb    H10     90 0.07988000   1.008000   ; qtot 3.357222
   91         h1      3    bbb    H11     91 0.10618100   1.008000   ; qtot 3.463403
   92         h1      3    bbb    H12     92 0.10618100   1.008000   ; qtot 3.569584
   93         hn      3    bbb    H13     93 0.25916100   1.008000   ; qtot 3.828745
   94         hn      3    bbb    H25     94 0.17125500   1.008000   ; qtot 4.000000
; residue    4 bbb rtp bbb q 1.0
   95         n4      4    bbb     N1     95 -0.02747900  14.010000   ; qtot 3.972521
   96         c3      4    bbb     C1     96 -0.05097600  12.010000   ; qtot 3.921545
   97         c3      4    bbb     C2     97 -0.05097600  12.010000   ; qtot 3.870569
   98         c3      4    bbb     C3     98 -0.18457900  12.010000   ; qtot 3.685990
   99          c      4    bbb     C4     99 0.67254400  12.010000   ; qtot 4.358534
  100         c3      4    bbb     C5    100 -0.18457900  12.010000   ; qtot 4.173955
  101          c      4    bbb     C6    101 0.67254400  12.010000   ; qtot 4.846499
  102         c3      4    bbb     C7    102 -0.02083000  12.010000   ; qtot 4.825669
  103         c3      4    bbb     C8    103 -0.03328100  12.010000   ; qtot 4.792388
  104          n      4    bbb     N2    104 -0.33303000  14.010000   ; qtot 4.459358
  105          o      4    bbb     O1    105 -0.52917200  16.000000   ; qtot 3.930186
  106          o      4    bbb     O2    106 -0.52917200  16.000000   ; qtot 3.401014
  107         hx      4    bbb     H1    107 0.11563300   1.008000   ; qtot 3.516647
  108         hx      4    bbb     H2    108 0.11563300   1.008000   ; qtot 3.632280
  109         hx      4    bbb     H3    109 0.11563300   1.008000   ; qtot 3.747913
  110         hx      4    bbb     H4    110 0.11563300   1.008000   ; qtot 3.863546
  111         hc      4    bbb     H5    111 0.08347900   1.008000   ; qtot 3.947025
  112         hc      4    bbb     H6    112 0.08347900   1.008000   ; qtot 4.030504
  113         hc      4    bbb     H7    113 0.08347900   1.008000   ; qtot 4.113983
  114         hc      4    bbb     H8    114 0.08347900   1.008000   ; qtot 4.197462
  115         hx      4    bbb     H9    115 0.07988000   1.008000   ; qtot 4.277342
  116         hx      4    bbb    H10    116 0.07988000   1.008000   ; qtot 4.357222
  117         h1      4    bbb    H11    117 0.10618100   1.008000   ; qtot 4.463403
  118         h1      4    bbb    H12    118 0.10618100   1.008000   ; qtot 4.569584
  119         hn      4    bbb    H13    119 0.25916100   1.008000   ; qtot 4.828745
  120         hn      4    bbb    H25    120 0.17125500   1.008000   ; qtot 5.000000
; residue    5 bbb rtp bbb q 1.0
  121         n4      5    bbb     N1    121 -0.02747900  14.010000   ; qtot 4.972521
  122         c3      5    bbb     C1    122 -0.05097600  12.010000   ; qtot 4.921545
  123         c3      5    bbb     C2    123 -0.05097600  12.010000   ; qtot 4.870569
  124         c3      5    bbb     C3    124 -0.18457900  12.010000   ; qtot 4.685990
  125          c      5    bbb     C4    125 0.67254400  12.010000   ; qtot 5.358534
  126         c3      5    bbb     C5    126 -0.18457900  12.010000   ; qtot 5.173955
  127          c      5    bbb     C6    127 0.67254400  12.010000   ; qtot 5.846499
  128         c3      5    bbb     C7    128 -0.02083000  12.010000   ; qtot 5.825669
  129         c3      5    bbb     C8    129 -0.03328100  12.010000   ; qtot 5.792388
  130          n      5    bbb     N2    130 -0.33303000  14.010000   ; qtot 5.459358
  131          o      5    bbb     O1    131 -0.52917200  16.000000   ; qtot 4.930186
  132          o      5    bbb     O2    132 -0.52917200  16.000000   ; qtot 4.401014
  133         hx      5    bbb     H1    133 0.11563300   1.008000   ; qtot 4.516647
  134         hx      5    bbb     H2    134 0.11563300   1.008000   ; qtot 4.632280
  135         hx      5    bbb     H3    135 0.11563300   1.008000   ; qtot 4.747913
  136         hx      5    bbb     H4    136 0.11563300   1.008000   ; qtot 4.863546
  137         hc      5    bbb     H5    137 0.08347900   1.008000   ; qtot 4.947025
  138         hc      5    bbb     H6    138 0.08347900   1.008000   ; qtot 5.030504
  139         hc      5    bbb     H7    139 0.08347900   1.008000   ; qtot 5.113983
  140         hc      5    bbb     H8    140 0.08347900   1.008000   ; qtot 5.197462
  141         hx      5    bbb     H9    141 0.07988000   1.008000   ; qtot 5.277342
  142         hx      5    bbb    H10    142 0.07988000   1.008000   ; qtot 5.357222
  143         h1      5    bbb    H11    143 0.10618100   1.008000   ; qtot 5.463403
  144         h1      5    bbb    H12    144 0.10618100   1.008000   ; qtot 5.569584
  145         hn      5    bbb    H13    145 0.25916100   1.008000   ; qtot 5.828745
  146         hn      5    bbb    H25    146 0.17125500   1.008000   ; qtot 6.000000
; residue    6 bbb rtp bbb q 1.0
  147         n4      6    bbb     N1    147 -0.02747900  14.010000   ; qtot 5.972521
  148         c3      6    bbb     C1    148 -0.05097600  12.010000   ; qtot 5.921545
  149         c3      6    bbb     C2    149 -0.05097600  12.010000   ; qtot 5.870569
  150         c3      6    bbb     C3    150 -0.18457900  12.010000   ; qtot 5.685990
  151          c      6    bbb     C4    151 0.67254400  12.010000   ; qtot 6.358534
  152         c3      6    bbb     C5    152 -0.18457900  12.010000   ; qtot 6.173955
  153          c      6    bbb     C6    153 0.67254400  12.010000   ; qtot 6.846499
  154         c3      6    bbb     C7    154 -0.02083000  12.010000   ; qtot 6.825669
  155         c3      6    bbb     C8    155 -0.03328100  12.010000   ; qtot 6.792388
  156          n      6    bbb     N2    156 -0.33303000  14.010000   ; qtot 6.459358
  157          o      6    bbb     O1    157 -0.52917200  16.000000   ; qtot 5.930186
  158          o      6    bbb     O2    158 -0.52917200  16.000000   ; qtot 5.401014
  159         hx      6    bbb     H1    159 0.11563300   1.008000   ; qtot 5.516647
  160         hx      6    bbb     H2    160 0.11563300   1.008000   ; qtot 5.632280
  161         hx      6    bbb     H3    161 0.11563300   1.008000   ; qtot 5.747913
  162         hx      6    bbb     H4    162 0.11563300   1.008000   ; qtot 5.863546
  163         hc      6    bbb     H5    163 0.08347900   1.008000   ; qtot 5.947025
  164         hc      6    bbb     H6    164 0.08347900   1.008000   ; qtot 6.030504
  165         hc      6    bbb     H7    165 0.08347900   1.008000   ; qtot 6.113983
  166         hc      6    bbb     H8    166 0.08347900   1.008000   ; qtot 6.197462
  167         hx      6    bbb     H9    167 0.07988000   1.008000   ; qtot 6.277342
  168         hx      6    bbb    H10    168 0.07988000   1.008000   ; qtot 6.357222
  169         h1      6    bbb    H11    169 0.10618100   1.008000   ; qtot 6.463403
  170         h1      6    bbb    H12    170 0.10618100   1.008000   ; qtot 6.569584
  171         hn      6    bbb    H13    171 0.25916100   1.008000   ; qtot 6.828745
  172         hn      6    bbb    H25    172 0.17125500   1.008000   ; qtot 7.000000
; residue    7 bbb rtp bbb q 1.0
  173         n4      7    bbb     N1    173 -0.02747900  14.010000   ; qtot 6.972521
  174         c3      7    bbb     C1    174 -0.05097600  12.010000   ; qtot 6.921545
  175         c3      7    bbb     C2    175 -0.05097600  12.010000   ; qtot 6.870569
  176         c3      7    bbb     C3    176 -0.18457900  12.010000   ; qtot 6.685990
  177          c      7    bbb     C4    177 0.67254400  12.010000   ; qtot 7.358534
  178         c3      7    bbb     C5    178 -0.18457900  12.010000   ; qtot 7.173955
  179          c      7    bbb     C6    179 0.67254400  12.010000   ; qtot 7.846499
  180         c3      7    bbb     C7    180 -0.02083000  12.010000   ; qtot 7.825669
  181         c3      7    bbb     C8    181 -0.03328100  12.010000   ; qtot 7.792388
  182          n      7    bbb     N2    182 -0.33303000  14.010000   ; qtot 7.459358
  183          o      7    bbb     O1    183 -0.52917200  16.000000   ; qtot 6.930186
  184          o      7    bbb     O2    184 -0.52917200  16.000000   ; qtot 6.401014
  185         hx      7    bbb     H1    185 0.11563300   1.008000   ; qtot 6.516647
  186         hx      7    bbb     H2    186 0.11563300   1.008000   ; qtot 6.632280
  187         hx      7    bbb     H3    187 0.11563300   1.008000   ; qtot 6.747913
  188         hx      7    bbb     H4    188 0.11563300   1.008000   ; qtot 6.863546
  189         hc      7    bbb     H5    189 0.08347900   1.008000   ; qtot 6.947025
  190         hc      7    bbb     H6    190 0.08347900   1.008000   ; qtot 7.030504
  191         hc      7    bbb     H7    191 0.08347900   1.008000   ; qtot 7.113983
  192         hc      7    bbb     H8    192 0.08347900   1.008000   ; qtot 7.197462
  193         hx      7    bbb     H9    193 0.07988000   1.008000   ; qtot 7.277342
  194         hx      7    bbb    H10    194 0.07988000   1.008000   ; qtot 7.357222
  195         h1      7    bbb    H11    195 0.10618100   1.008000   ; qtot 7.463403
  196         h1      7    bbb    H12    196 0.10618100   1.008000   ; qtot 7.569584
  197         hn      7    bbb    H13    197 0.25916100   1.008000   ; qtot 7.828745
  198         hn      7    bbb    H25    198 0.17125500   1.008000   ; qtot 8.000000
; residue    8 bbb rtp bbb q 1.0
  199         n4      8    bbb     N1    199 -0.02747900  14.010000   ; qtot 7.972521
  200         c3      8    bbb     C1    200 -0.05097600  12.010000   ; qtot 7.921545
  201         c3      8    bbb     C2    201 -0.05097600  12.010000   ; qtot 7.870569
  202         c3      8    bbb     C3    202 -0.18457900  12.010000   ; qtot 7.685990
  203          c      8    bbb     C4    203 0.67254400  12.010000   ; qtot 8.358534
  204         c3      8    bbb     C5    204 -0.18457900  12.010000   ; qtot 8.173955
  205          c      8    bbb     C6    205 0.67254400  12.010000   ; qtot 8.846499
  206         c3      8    bbb     C7    206 -0.02083000  12.010000   ; qtot 8.825669
  207         c3      8    bbb     C8    207 -0.03328100  12.010000   ; qtot 8.792388
  208          n      8    bbb     N2    208 -0.33303000  14.010000   ; qtot 8.459358
  209          o      8    bbb     O1    209 -0.52917200  16.000000   ; qtot 7.930186
  210          o      8    bbb     O2    210 -0.52917200  16.000000   ; qtot 7.401014
  211         hx      8    bbb     H1    211 0.11563300   1.008000   ; qtot 7.516647
  212         hx      8    bbb     H2    212 0.11563300   1.008000   ; qtot 7.632280
  213         hx      8    bbb     H3    213 0.11563300   1.008000   ; qtot 7.747913
  214         hx      8    bbb     H4    214 0.11563300   1.008000   ; qtot 7.863546
  215         hc      8    bbb     H5    215 0.08347900   1.008000   ; qtot 7.947025
  216         hc      8    bbb     H6    216 0.08347900   1.008000   ; qtot 8.030504
  217         hc      8    bbb     H7    217 0.08347900   1.008000   ; qtot 8.113983
  218         hc      8    bbb     H8    218 0.08347900   1.008000   ; qtot 8.197462
  219         hx      8    bbb     H9    219 0.07988000   1.008000   ; qtot 8.277342
  220         hx      8    bbb    H10    220 0.07988000   1.008000   ; qtot 8.357222
  221         h1      8    bbb    H11    221 0.10618100   1.008000   ; qtot 8.463403
  222         h1      8    bbb    H12    222 0.10618100   1.008000   ; qtot 8.569584
  223         hn      8    bbb    H13    223 0.25916100   1.008000   ; qtot 8.828745
  224         hn      8    bbb    H25    224 0.17125500   1.008000   ; qtot 9.000000
; residue    9 bbb rtp bbb q 1.0
  225         n4      9    bbb     N1    225 -0.02747900  14.010000   ; qtot 8.972521
  226         c3      9    bbb     C1    226 -0.05097600  12.010000   ; qtot 8.921545
  227         c3      9    bbb     C2    227 -0.05097600  12.010000   ; qtot 8.870569
  228         c3      9    bbb     C3    228 -0.18457900  12.010000   ; qtot 8.685990
  229          c      9    bbb     C4    229 0.67254400  12.010000   ; qtot 9.358534
  230         c3      9    bbb     C5    230 -0.18457900  12.010000   ; qtot 9.173955
  231          c      9    bbb     C6    231 0.67254400  12.010000   ; qtot 9.846499
  232         c3      9    bbb     C7    232 -0.02083000  12.010000   ; qtot 9.825669
  233         c3      9    bbb     C8    233 -0.03328100  12.010000   ; qtot 9.792388
  234          n      9    bbb     N2    234 -0.33303000  14.010000   ; qtot 9.459358
  235          o      9    bbb     O1    235 -0.52917200  16.000000   ; qtot 8.930186
  236          o      9    bbb     O2    236 -0.52917200  16.000000   ; qtot 8.401014
  237         hx      9    bbb     H1    237 0.11563300   1.008000   ; qtot 8.516647
  238         hx      9    bbb     H2    238 0.11563300   1.008000   ; qtot 8.632280
  239         hx      9    bbb     H3    239 0.11563300   1.008000   ; qtot 8.747913
  240         hx      9    bbb     H4    240 0.11563300   1.008000   ; qtot 8.863546
  241         hc      9    bbb     H5    241 0.08347900   1.008000   ; qtot 8.947025
  242         hc      9    bbb     H6    242 0.08347900   1.008000   ; qtot 9.030504
  243         hc      9    bbb     H7    243 0.08347900   1.008000   ; qtot 9.113983
  244         hc      9    bbb     H8    244 0.08347900   1.008000   ; qtot 9.197462
  245         hx      9    bbb     H9    245 0.07988000   1.008000   ; qtot 9.277342
  246         hx      9    bbb    H10    246 0.07988000   1.008000   ; qtot 9.357222
  247         h1      9    bbb    H11    247 0.10618100   1.008000   ; qtot 9.463403
  248         h1      9    bbb    H12    248 0.10618100   1.008000   ; qtot 9.569584
  249         hn      9    bbb    H13    249 0.25916100   1.008000   ; qtot 9.828745
  250         hn      9    bbb    H25    250 0.17125500   1.008000   ; qtot 10.000000
; residue   10 bbb rtp bbb q 1.0
  251         n4     10    bbb     N1    251 -0.02747900  14.010000   ; qtot 9.972521
  252         c3     10    bbb     C1    252 -0.05097600  12.010000   ; qtot 9.921545
  253         c3     10    bbb     C2    253 -0.05097600  12.010000   ; qtot 9.870569
  254         c3     10    bbb     C3    254 -0.18457900  12.010000   ; qtot 9.685990
  255          c     10    bbb     C4    255 0.67254400  12.010000   ; qtot 10.358534
  256         c3     10    bbb     C5    256 -0.18457900  12.010000   ; qtot 10.173955
  257          c     10    bbb     C6    257 0.67254400  12.010000   ; qtot 10.846499
  258         c3     10    bbb     C7    258 -0.02083000  12.010000   ; qtot 10.825669
  259         c3     10    bbb     C8    259 -0.03328100  12.010000   ; qtot 10.792388
  260          n     10    bbb     N2    260 -0.33303000  14.010000   ; qtot 10.459358
  261          o     10    bbb     O1    261 -0.52917200  16.000000   ; qtot 9.930186
  262          o     10    bbb     O2    262 -0.52917200  16.000000   ; qtot 9.401014
  263         hx     10    bbb     H1    263 0.11563300   1.008000   ; qtot 9.516647
  264         hx     10    bbb     H2    264 0.11563300   1.008000   ; qtot 9.632280
  265         hx     10    bbb     H3    265 0.11563300   1.008000   ; qtot 9.747913
  266         hx     10    bbb     H4    266 0.11563300   1.008000   ; qtot 9.863546
  267         hc     10    bbb     H5    267 0.08347900   1.008000   ; qtot 9.947025
  268         hc     10    bbb     H6    268 0.08347900   1.008000   ; qtot 10.030504
  269         hc     10    bbb     H7    269 0.08347900   1.008000   ; qtot 10.113983
  270         hc     10    bbb     H8    270 0.08347900   1.008000   ; qtot 10.197462
  271         hx     10    bbb     H9    271 0.07988000   1.008000   ; qtot 10.277342
  272         hx     10    bbb    H10    272 0.07988000   1.008000   ; qtot 10.357222
  273         h1     10    bbb    H11    273 0.10618100   1.008000   ; qtot 10.463403
  274         h1     10    bbb    H12    274 0.10618100   1.008000   ; qtot 10.569584
  275         hn     10    bbb    H13    275 0.25916100   1.008000   ; qtot 10.828745
  276         hn     10    bbb    H25    276 0.17125500   1.008000   ; qtot 11.000000
; residue   11 bbb rtp bbb q 1.0
  277         n4     11    bbb     N1    277 -0.02747900  14.010000   ; qtot 10.972521
  278         c3     11    bbb     C1    278 -0.05097600  12.010000   ; qtot 10.921545
  279         c3     11    bbb     C2    279 -0.05097600  12.010000   ; qtot 10.870569
  280         c3     11    bbb     C3    280 -0.18457900  12.010000   ; qtot 10.685990
  281          c     11    bbb     C4    281 0.67254400  12.010000   ; qtot 11.358534
  282         c3     11    bbb     C5    282 -0.18457900  12.010000   ; qtot 11.173955
  283          c     11    bbb     C6    283 0.67254400  12.010000   ; qtot 11.846499
  284         c3     11    bbb     C7    284 -0.02083000  12.010000   ; qtot 11.825669
  285         c3     11    bbb     C8    285 -0.03328100  12.010000   ; qtot 11.792388
  286          n     11    bbb     N2    286 -0.33303000  14.010000   ; qtot 11.459358
  287          o     11    bbb     O1    287 -0.52917200  16.000000   ; qtot 10.930186
  288          o     11    bbb     O2    288 -0.52917200  16.000000   ; qtot 10.401014
  289         hx     11    bbb     H1    289 0.11563300   1.008000   ; qtot 10.516647
  290         hx     11    bbb     H2    290 0.11563300   1.008000   ; qtot 10.632280
  291         hx     11    bbb     H3    291 0.11563300   1.008000   ; qtot 10.747913
  292         hx     11    bbb     H4    292 0.11563300   1.008000   ; qtot 10.863546
  293         hc     11    bbb     H5    293 0.08347900   1.008000   ; qtot 10.947025
  294         hc     11    bbb     H6    294 0.08347900   1.008000   ; qtot 11.030504
  295         hc     11    bbb     H7    295 0.08347900   1.008000   ; qtot 11.113983
  296         hc     11    bbb     H8    296 0.08347900   1.008000   ; qtot 11.197462
  297         hx     11    bbb     H9    297 0.07988000   1.008000   ; qtot 11.277342
  298         hx     11    bbb    H10    298 0.07988000   1.008000   ; qtot 11.357222
  299         h1     11    bbb    H11    299 0.10618100   1.008000   ; qtot 11.463403
  300         h1     11    bbb    H12    300 0.10618100   1.008000   ; qtot 11.569584
  301         hn     11    bbb    H13    301 0.25916100   1.008000   ; qtot 11.828745
  302         hn     11    bbb    H25    302 0.17125500   1.008000   ; qtot 12.000000
; residue   12 bbb rtp bbb q 1.0
  303         n4     12    bbb     N1    303 -0.02747900  14.010000   ; qtot 11.972521
  304         c3     12    bbb     C1    304 -0.05097600  12.010000   ; qtot 11.921545
  305         c3     12    bbb     C2    305 -0.05097600  12.010000   ; qtot 11.870569
  306         c3     12    bbb     C3    306 -0.18457900  12.010000   ; qtot 11.685990
  307          c     12    bbb     C4    307 0.67254400  12.010000   ; qtot 12.358534
  308         c3     12    bbb     C5    308 -0.18457900  12.010000   ; qtot 12.173955
  309          c     12    bbb     C6    309 0.67254400  12.010000   ; qtot 12.846499
  310         c3     12    bbb     C7    310 -0.02083000  12.010000   ; qtot 12.825669
  311         c3     12    bbb     C8    311 -0.03328100  12.010000   ; qtot 12.792388
  312          n     12    bbb     N2    312 -0.33303000  14.010000   ; qtot 12.459358
  313          o     12    bbb     O1    313 -0.52917200  16.000000   ; qtot 11.930186
  314          o     12    bbb     O2    314 -0.52917200  16.000000   ; qtot 11.401014
  315         hx     12    bbb     H1    315 0.11563300   1.008000   ; qtot 11.516647
  316         hx     12    bbb     H2    316 0.11563300   1.008000   ; qtot 11.632280
  317         hx     12    bbb     H3    317 0.11563300   1.008000   ; qtot 11.747913
  318         hx     12    bbb     H4    318 0.11563300   1.008000   ; qtot 11.863546
  319         hc     12    bbb     H5    319 0.08347900   1.008000   ; qtot 11.947025
  320         hc     12    bbb     H6    320 0.08347900   1.008000   ; qtot 12.030504
  321         hc     12    bbb     H7    321 0.08347900   1.008000   ; qtot 12.113983
  322         hc     12    bbb     H8    322 0.08347900   1.008000   ; qtot 12.197462
  323         hx     12    bbb     H9    323 0.07988000   1.008000   ; qtot 12.277342
  324         hx     12    bbb    H10    324 0.07988000   1.008000   ; qtot 12.357222
  325         h1     12    bbb    H11    325 0.10618100   1.008000   ; qtot 12.463403
  326         h1     12    bbb    H12    326 0.10618100   1.008000   ; qtot 12.569584
  327         hn     12    bbb    H13    327 0.25916100   1.008000   ; qtot 12.828745
  328         hn     12    bbb    H25    328 0.17125500   1.008000   ; qtot 13.000000
; residue   13 bbb rtp bbb q 1.0
  329         n4     13    bbb     N1    329 -0.02747900  14.010000   ; qtot 12.972521
  330         c3     13    bbb     C1    330 -0.05097600  12.010000   ; qtot 12.921545
  331         c3     13    bbb     C2    331 -0.05097600  12.010000   ; qtot 12.870569
  332         c3     13    bbb     C3    332 -0.18457900  12.010000   ; qtot 12.685990
  333          c     13    bbb     C4    333 0.67254400  12.010000   ; qtot 13.358534
  334         c3     13    bbb     C5    334 -0.18457900  12.010000   ; qtot 13.173955
  335          c     13    bbb     C6    335 0.67254400  12.010000   ; qtot 13.846499
  336         c3     13    bbb     C7    336 -0.02083000  12.010000   ; qtot 13.825669
  337         c3     13    bbb     C8    337 -0.03328100  12.010000   ; qtot 13.792388
  338          n     13    bbb     N2    338 -0.33303000  14.010000   ; qtot 13.459358
  339          o     13    bbb     O1    339 -0.52917200  16.000000   ; qtot 12.930186
  340          o     13    bbb     O2    340 -0.52917200  16.000000   ; qtot 12.401014
  341         hx     13    bbb     H1    341 0.11563300   1.008000   ; qtot 12.516647
  342         hx     13    bbb     H2    342 0.11563300   1.008000   ; qtot 12.632280
  343         hx     13    bbb     H3    343 0.11563300   1.008000   ; qtot 12.747913
  344         hx     13    bbb     H4    344 0.11563300   1.008000   ; qtot 12.863546
  345         hc     13    bbb     H5    345 0.08347900   1.008000   ; qtot 12.947025
  346         hc     13    bbb     H6    346 0.08347900   1.008000   ; qtot 13.030504
  347         hc     13    bbb     H7    347 0.08347900   1.008000   ; qtot 13.113983
  348         hc     13    bbb     H8    348 0.08347900   1.008000   ; qtot 13.197462
  349         hx     13    bbb     H9    349 0.07988000   1.008000   ; qtot 13.277342
  350         hx     13    bbb    H10    350 0.07988000   1.008000   ; qtot 13.357222
  351         h1     13    bbb    H11    351 0.10618100   1.008000   ; qtot 13.463403
  352         h1     13    bbb    H12    352 0.10618100   1.008000   ; qtot 13.569584
  353         hn     13    bbb    H13    353 0.25916100   1.008000   ; qtot 13.828745
  354         hn     13    bbb    H25    354 0.17125500   1.008000   ; qtot 14.000000
; residue   14 bbb rtp bbb q 1.0
  355         n4     14    bbb     N1    355 -0.02747900  14.010000   ; qtot 13.972521
  356         c3     14    bbb     C1    356 -0.05097600  12.010000   ; qtot 13.921545
  357         c3     14    bbb     C2    357 -0.05097600  12.010000   ; qtot 13.870569
  358         c3     14    bbb     C3    358 -0.18457900  12.010000   ; qtot 13.685990
  359          c     14    bbb     C4    359 0.67254400  12.010000   ; qtot 14.358534
  360         c3     14    bbb     C5    360 -0.18457900  12.010000   ; qtot 14.173955
  361          c     14    bbb     C6    361 0.67254400  12.010000   ; qtot 14.846499
  362         c3     14    bbb     C7    362 -0.02083000  12.010000   ; qtot 14.825669
  363         c3     14    bbb     C8    363 -0.03328100  12.010000   ; qtot 14.792388
  364          n     14    bbb     N2    364 -0.33303000  14.010000   ; qtot 14.459358
  365          o     14    bbb     O1    365 -0.52917200  16.000000   ; qtot 13.930186
  366          o     14    bbb     O2    366 -0.52917200  16.000000   ; qtot 13.401014
  367         hx     14    bbb     H1    367 0.11563300   1.008000   ; qtot 13.516647
  368         hx     14    bbb     H2    368 0.11563300   1.008000   ; qtot 13.632280
  369         hx     14    bbb     H3    369 0.11563300   1.008000   ; qtot 13.747913
  370         hx     14    bbb     H4    370 0.11563300   1.008000   ; qtot 13.863546
  371         hc     14    bbb     H5    371 0.08347900   1.008000   ; qtot 13.947025
  372         hc     14    bbb     H6    372 0.08347900   1.008000   ; qtot 14.030504
  373         hc     14    bbb     H7    373 0.08347900   1.008000   ; qtot 14.113983
  374         hc     14    bbb     H8    374 0.08347900   1.008000   ; qtot 14.197462
  375         hx     14    bbb     H9    375 0.07988000   1.008000   ; qtot 14.277342
  376         hx     14    bbb    H10    376 0.07988000   1.008000   ; qtot 14.357222
  377         h1     14    bbb    H11    377 0.10618100   1.008000   ; qtot 14.463403
  378         h1     14    bbb    H12    378 0.10618100   1.008000   ; qtot 14.569584
  379         hn     14    bbb    H13    379 0.25916100   1.008000   ; qtot 14.828745
  380         hn     14    bbb    H25    380 0.17125500   1.008000   ; qtot 15.000000
; residue   15 bbb rtp bbb q 1.0
  381         n4     15    bbb     N1    381 -0.02747900  14.010000   ; qtot 14.972521
  382         c3     15    bbb     C1    382 -0.05097600  12.010000   ; qtot 14.921545
  383         c3     15    bbb     C2    383 -0.05097600  12.010000   ; qtot 14.870569
  384         c3     15    bbb     C3    384 -0.18457900  12.010000   ; qtot 14.685990
  385          c     15    bbb     C4    385 0.67254400  12.010000   ; qtot 15.358534
  386         c3     15    bbb     C5    386 -0.18457900  12.010000   ; qtot 15.173955
  387          c     15    bbb     C6    387 0.67254400  12.010000   ; qtot 15.846499
  388         c3     15    bbb     C7    388 -0.02083000  12.010000   ; qtot 15.825669
  389         c3     15    bbb     C8    389 -0.03328100  12.010000   ; qtot 15.792388
  390          n     15    bbb     N2    390 -0.33303000  14.010000   ; qtot 15.459358
  391          o     15    bbb     O1    391 -0.52917200  16.000000   ; qtot 14.930186
  392          o     15    bbb     O2    392 -0.52917200  16.000000   ; qtot 14.401014
  393         hx     15    bbb     H1    393 0.11563300   1.008000   ; qtot 14.516647
  394         hx     15    bbb     H2    394 0.11563300   1.008000   ; qtot 14.632280
  395         hx     15    bbb     H3    395 0.11563300   1.008000   ; qtot 14.747913
  396         hx     15    bbb     H4    396 0.11563300   1.008000   ; qtot 14.863546
  397         hc     15    bbb     H5    397 0.08347900   1.008000   ; qtot 14.947025
  398         hc     15    bbb     H6    398 0.08347900   1.008000   ; qtot 15.030504
  399         hc     15    bbb     H7    399 0.08347900   1.008000   ; qtot 15.113983
  400         hc     15    bbb     H8    400 0.08347900   1.008000   ; qtot 15.197462
  401         hx     15    bbb     H9    401 0.07988000   1.008000   ; qtot 15.277342
  402         hx     15    bbb    H10    402 0.07988000   1.008000   ; qtot 15.357222
  403         h1     15    bbb    H11    403 0.10618100   1.008000   ; qtot 15.463403
  404         h1     15    bbb    H12    404 0.10618100   1.008000   ; qtot 15.569584
  405         hn     15    bbb    H13    405 0.25916100   1.008000   ; qtot 15.828745
  406         hn     15    bbb    H25    406 0.17125500   1.008000   ; qtot 16.000000
; residue   16 bbb rtp bbb q 1.0
  407         n4     16    bbb     N1    407 -0.02747900  14.010000   ; qtot 15.972521
  408         c3     16    bbb     C1    408 -0.05097600  12.010000   ; qtot 15.921545
  409         c3     16    bbb     C2    409 -0.05097600  12.010000   ; qtot 15.870569
  410         c3     16    bbb     C3    410 -0.18457900  12.010000   ; qtot 15.685990
  411          c     16    bbb     C4    411 0.67254400  12.010000   ; qtot 16.358534
  412         c3     16    bbb     C5    412 -0.18457900  12.010000   ; qtot 16.173955
  413          c     16    bbb     C6    413 0.67254400  12.010000   ; qtot 16.846499
  414         c3     16    bbb     C7    414 -0.02083000  12.010000   ; qtot 16.825669
  415         c3     16    bbb     C8    415 -0.03328100  12.010000   ; qtot 16.792388
  416          n     16    bbb     N2    416 -0.33303000  14.010000   ; qtot 16.459358
  417          o     16    bbb     O1    417 -0.52917200  16.000000   ; qtot 15.930186
  418          o     16    bbb     O2    418 -0.52917200  16.000000   ; qtot 15.401014
  419         hx     16    bbb     H1    419 0.11563300   1.008000   ; qtot 15.516647
  420         hx     16    bbb     H2    420 0.11563300   1.008000   ; qtot 15.632280
  421         hx     16    bbb     H3    421 0.11563300   1.008000   ; qtot 15.747913
  422         hx     16    bbb     H4    422 0.11563300   1.008000   ; qtot 15.863546
  423         hc     16    bbb     H5    423 0.08347900   1.008000   ; qtot 15.947025
  424         hc     16    bbb     H6    424 0.08347900   1.008000   ; qtot 16.030504
  425         hc     16    bbb     H7    425 0.08347900   1.008000   ; qtot 16.113983
  426         hc     16    bbb     H8    426 0.08347900   1.008000   ; qtot 16.197462
  427         hx     16    bbb     H9    427 0.07988000   1.008000   ; qtot 16.277342
  428         hx     16    bbb    H10    428 0.07988000   1.008000   ; qtot 16.357222
  429         h1     16    bbb    H11    429 0.10618100   1.008000   ; qtot 16.463403
  430         h1     16    bbb    H12    430 0.10618100   1.008000   ; qtot 16.569584
  431         hn     16    bbb    H13    431 0.25916100   1.008000   ; qtot 16.828745
  432         hn     16    bbb    H25    432 0.17125500   1.008000   ; qtot 17.000000
; residue   17 bbb rtp bbb q 1.0
  433         n4     17    bbb     N1    433 -0.02747900  14.010000   ; qtot 16.972521
  434         c3     17    bbb     C1    434 -0.05097600  12.010000   ; qtot 16.921545
  435         c3     17    bbb     C2    435 -0.05097600  12.010000   ; qtot 16.870569
  436         c3     17    bbb     C3    436 -0.18457900  12.010000   ; qtot 16.685990
  437          c     17    bbb     C4    437 0.67254400  12.010000   ; qtot 17.358534
  438         c3     17    bbb     C5    438 -0.18457900  12.010000   ; qtot 17.173955
  439          c     17    bbb     C6    439 0.67254400  12.010000   ; qtot 17.846499
  440         c3     17    bbb     C7    440 -0.02083000  12.010000   ; qtot 17.825669
  441         c3     17    bbb     C8    441 -0.03328100  12.010000   ; qtot 17.792388
  442          n     17    bbb     N2    442 -0.33303000  14.010000   ; qtot 17.459358
  443          o     17    bbb     O1    443 -0.52917200  16.000000   ; qtot 16.930186
  444          o     17    bbb     O2    444 -0.52917200  16.000000   ; qtot 16.401014
  445         hx     17    bbb     H1    445 0.11563300   1.008000   ; qtot 16.516647
  446         hx     17    bbb     H2    446 0.11563300   1.008000   ; qtot 16.632280
  447         hx     17    bbb     H3    447 0.11563300   1.008000   ; qtot 16.747913
  448         hx     17    bbb     H4    448 0.11563300   1.008000   ; qtot 16.863546
  449         hc     17    bbb     H5    449 0.08347900   1.008000   ; qtot 16.947025
  450         hc     17    bbb     H6    450 0.08347900   1.008000   ; qtot 17.030504
  451         hc     17    bbb     H7    451 0.08347900   1.008000   ; qtot 17.113983
  452         hc     17    bbb     H8    452 0.08347900   1.008000   ; qtot 17.197462
  453         hx     17    bbb     H9    453 0.07988000   1.008000   ; qtot 17.277342
  454         hx     17    bbb    H10    454 0.07988000   1.008000   ; qtot 17.357222
  455         h1     17    bbb    H11    455 0.10618100   1.008000   ; qtot 17.463403
  456         h1     17    bbb    H12    456 0.10618100   1.008000   ; qtot 17.569584
  457         hn     17    bbb    H13    457 0.25916100   1.008000   ; qtot 17.828745
  458         hn     17    bbb    H25    458 0.17125500   1.008000   ; qtot 18.000000
; residue   18 bbb rtp bbb q 1.0
  459         n4     18    bbb     N1    459 -0.02747900  14.010000   ; qtot 17.972521
  460         c3     18    bbb     C1    460 -0.05097600  12.010000   ; qtot 17.921545
  461         c3     18    bbb     C2    461 -0.05097600  12.010000   ; qtot 17.870569
  462         c3     18    bbb     C3    462 -0.18457900  12.010000   ; qtot 17.685990
  463          c     18    bbb     C4    463 0.67254400  12.010000   ; qtot 18.358534
  464         c3     18    bbb     C5    464 -0.18457900  12.010000   ; qtot 18.173955
  465          c     18    bbb     C6    465 0.67254400  12.010000   ; qtot 18.846499
  466         c3     18    bbb     C7    466 -0.02083000  12.010000   ; qtot 18.825669
  467         c3     18    bbb     C8    467 -0.03328100  12.010000   ; qtot 18.792388
  468          n     18    bbb     N2    468 -0.33303000  14.010000   ; qtot 18.459358
  469          o     18    bbb     O1    469 -0.52917200  16.000000   ; qtot 17.930186
  470          o     18    bbb     O2    470 -0.52917200  16.000000   ; qtot 17.401014
  471         hx     18    bbb     H1    471 0.11563300   1.008000   ; qtot 17.516647
  472         hx     18    bbb     H2    472 0.11563300   1.008000   ; qtot 17.632280
  473         hx     18    bbb     H3    473 0.11563300   1.008000   ; qtot 17.747913
  474         hx     18    bbb     H4    474 0.11563300   1.008000   ; qtot 17.863546
  475         hc     18    bbb     H5    475 0.08347900   1.008000   ; qtot 17.947025
  476         hc     18    bbb     H6    476 0.08347900   1.008000   ; qtot 18.030504
  477         hc     18    bbb     H7    477 0.08347900   1.008000   ; qtot 18.113983
  478         hc     18    bbb     H8    478 0.08347900   1.008000   ; qtot 18.197462
  479         hx     18    bbb     H9    479 0.07988000   1.008000   ; qtot 18.277342
  480         hx     18    bbb    H10    480 0.07988000   1.008000   ; qtot 18.357222
  481         h1     18    bbb    H11    481 0.10618100   1.008000   ; qtot 18.463403
  482         h1     18    bbb    H12    482 0.10618100   1.008000   ; qtot 18.569584
  483         hn     18    bbb    H13    483 0.25916100   1.008000   ; qtot 18.828745
  484         hn     18    bbb    H25    484 0.17125500   1.008000   ; qtot 19.000000
; residue   19 bbb rtp bbb q 1.0
  485         n4     19    bbb     N1    485 -0.02747900  14.010000   ; qtot 18.972521
  486         c3     19    bbb     C1    486 -0.05097600  12.010000   ; qtot 18.921545
  487         c3     19    bbb     C2    487 -0.05097600  12.010000   ; qtot 18.870569
  488         c3     19    bbb     C3    488 -0.18457900  12.010000   ; qtot 18.685990
  489          c     19    bbb     C4    489 0.67254400  12.010000   ; qtot 19.358534
  490         c3     19    bbb     C5    490 -0.18457900  12.010000   ; qtot 19.173955
  491          c     19    bbb     C6    491 0.67254400  12.010000   ; qtot 19.846499
  492         c3     19    bbb     C7    492 -0.02083000  12.010000   ; qtot 19.825669
  493         c3     19    bbb     C8    493 -0.03328100  12.010000   ; qtot 19.792388
  494          n     19    bbb     N2    494 -0.33303000  14.010000   ; qtot 19.459358
  495          o     19    bbb     O1    495 -0.52917200  16.000000   ; qtot 18.930186
  496          o     19    bbb     O2    496 -0.52917200  16.000000   ; qtot 18.401014
  497         hx     19    bbb     H1    497 0.11563300   1.008000   ; qtot 18.516647
  498         hx     19    bbb     H2    498 0.11563300   1.008000   ; qtot 18.632280
  499         hx     19    bbb     H3    499 0.11563300   1.008000   ; qtot 18.747913
  500         hx     19    bbb     H4    500 0.11563300   1.008000   ; qtot 18.863546
  501         hc     19    bbb     H5    501 0.08347900   1.008000   ; qtot 18.947025
  502         hc     19    bbb     H6    502 0.08347900   1.008000   ; qtot 19.030504
  503         hc     19    bbb     H7    503 0.08347900   1.008000   ; qtot 19.113983
  504         hc     19    bbb     H8    504 0.08347900   1.008000   ; qtot 19.197462
  505         hx     19    bbb     H9    505 0.07988000   1.008000   ; qtot 19.277342
  506         hx     19    bbb    H10    506 0.07988000   1.008000   ; qtot 19.357222
  507         h1     19    bbb    H11    507 0.10618100   1.008000   ; qtot 19.463403
  508         h1     19    bbb    H12    508 0.10618100   1.008000   ; qtot 19.569584
  509         hn     19    bbb    H13    509 0.25916100   1.008000   ; qtot 19.828745
  510         hn     19    bbb    H25    510 0.17125500   1.008000   ; qtot 20.000000
; residue   20 bbb rtp bbb q 1.0
  511         n4     20    bbb     N1    511 -0.02747900  14.010000   ; qtot 19.972521
  512         c3     20    bbb     C1    512 -0.05097600  12.010000   ; qtot 19.921545
  513         c3     20    bbb     C2    513 -0.05097600  12.010000   ; qtot 19.870569
  514         c3     20    bbb     C3    514 -0.18457900  12.010000   ; qtot 19.685990
  515          c     20    bbb     C4    515 0.67254400  12.010000   ; qtot 20.358534
  516         c3     20    bbb     C5    516 -0.18457900  12.010000   ; qtot 20.173955
  517          c     20    bbb     C6    517 0.67254400  12.010000   ; qtot 20.846499
  518         c3     20    bbb     C7    518 -0.02083000  12.010000   ; qtot 20.825669
  519         c3     20    bbb     C8    519 -0.03328100  12.010000   ; qtot 20.792388
  520          n     20    bbb     N2    520 -0.33303000  14.010000   ; qtot 20.459358
  521          o     20    bbb     O1    521 -0.52917200  16.000000   ; qtot 19.930186
  522          o     20    bbb     O2    522 -0.52917200  16.000000   ; qtot 19.401014
  523         hx     20    bbb     H1    523 0.11563300   1.008000   ; qtot 19.516647
  524         hx     20    bbb     H2    524 0.11563300   1.008000   ; qtot 19.632280
  525         hx     20    bbb     H3    525 0.11563300   1.008000   ; qtot 19.747913
  526         hx     20    bbb     H4    526 0.11563300   1.008000   ; qtot 19.863546
  527         hc     20    bbb     H5    527 0.08347900   1.008000   ; qtot 19.947025
  528         hc     20    bbb     H6    528 0.08347900   1.008000   ; qtot 20.030504
  529         hc     20    bbb     H7    529 0.08347900   1.008000   ; qtot 20.113983
  530         hc     20    bbb     H8    530 0.08347900   1.008000   ; qtot 20.197462
  531         hx     20    bbb     H9    531 0.07988000   1.008000   ; qtot 20.277342
  532         hx     20    bbb    H10    532 0.07988000   1.008000   ; qtot 20.357222
  533         h1     20    bbb    H11    533 0.10618100   1.008000   ; qtot 20.463403
  534         h1     20    bbb    H12    534 0.10618100   1.008000   ; qtot 20.569584
  535         hn     20    bbb    H13    535 0.25916100   1.008000   ; qtot 20.828745
  536         hn     20    bbb    H25    536 0.17125500   1.008000   ; qtot 21.000000
; residue   21 bbb rtp bbb q 1.0
  537         n4     21    bbb     N1    537 -0.02747900  14.010000   ; qtot 20.972521
  538         c3     21    bbb     C1    538 -0.05097600  12.010000   ; qtot 20.921545
  539         c3     21    bbb     C2    539 -0.05097600  12.010000   ; qtot 20.870569
  540         c3     21    bbb     C3    540 -0.18457900  12.010000   ; qtot 20.685990
  541          c     21    bbb     C4    541 0.67254400  12.010000   ; qtot 21.358534
  542         c3     21    bbb     C5    542 -0.18457900  12.010000   ; qtot 21.173955
  543          c     21    bbb     C6    543 0.67254400  12.010000   ; qtot 21.846499
  544         c3     21    bbb     C7    544 -0.02083000  12.010000   ; qtot 21.825669
  545         c3     21    bbb     C8    545 -0.03328100  12.010000   ; qtot 21.792388
  546          n     21    bbb     N2    546 -0.33303000  14.010000   ; qtot 21.459358
  547          o     21    bbb     O1    547 -0.52917200  16.000000   ; qtot 20.930186
  548          o     21    bbb     O2    548 -0.52917200  16.000000   ; qtot 20.401014
  549         hx     21    bbb     H1    549 0.11563300   1.008000   ; qtot 20.516647
  550         hx     21    bbb     H2    550 0.11563300   1.008000   ; qtot 20.632280
  551         hx     21    bbb     H3    551 0.11563300   1.008000   ; qtot 20.747913
  552         hx     21    bbb     H4    552 0.11563300   1.008000   ; qtot 20.863546
  553         hc     21    bbb     H5    553 0.08347900   1.008000   ; qtot 20.947025
  554         hc     21    bbb     H6    554 0.08347900   1.008000   ; qtot 21.030504
  555         hc     21    bbb     H7    555 0.08347900   1.008000   ; qtot 21.113983
  556         hc     21    bbb     H8    556 0.08347900   1.008000   ; qtot 21.197462
  557         hx     21    bbb     H9    557 0.07988000   1.008000   ; qtot 21.277342
  558         hx     21    bbb    H10    558 0.07988000   1.008000   ; qtot 21.357222
  559         h1     21    bbb    H11    559 0.10618100   1.008000   ; qtot 21.463403
  560         h1     21    bbb    H12    560 0.10618100   1.008000   ; qtot 21.569584
  561         hn     21    bbb    H13    561 0.25916100   1.008000   ; qtot 21.828745
  562         hn     21    bbb    H25    562 0.17125500   1.008000   ; qtot 22.000000
; residue   22 bbb rtp bbb q 1.0
  563         n4     22    bbb     N1    563 -0.02747900  14.010000   ; qtot 21.972521
  564         c3     22    bbb     C1    564 -0.05097600  12.010000   ; qtot 21.921545
  565         c3     22    bbb     C2    565 -0.05097600  12.010000   ; qtot 21.870569
  566         c3     22    bbb     C3    566 -0.18457900  12.010000   ; qtot 21.685990
  567          c     22    bbb     C4    567 0.67254400  12.010000   ; qtot 22.358534
  568         c3     22    bbb     C5    568 -0.18457900  12.010000   ; qtot 22.173955
  569          c     22    bbb     C6    569 0.67254400  12.010000   ; qtot 22.846499
  570         c3     22    bbb     C7    570 -0.02083000  12.010000   ; qtot 22.825669
  571         c3     22    bbb     C8    571 -0.03328100  12.010000   ; qtot 22.792388
  572          n     22    bbb     N2    572 -0.33303000  14.010000   ; qtot 22.459358
  573          o     22    bbb     O1    573 -0.52917200  16.000000   ; qtot 21.930186
  574          o     22    bbb     O2    574 -0.52917200  16.000000   ; qtot 21.401014
  575         hx     22    bbb     H1    575 0.11563300   1.008000   ; qtot 21.516647
  576         hx     22    bbb     H2    576 0.11563300   1.008000   ; qtot 21.632280
  577         hx     22    bbb     H3    577 0.11563300   1.008000   ; qtot 21.747913
  578         hx     22    bbb     H4    578 0.11563300   1.008000   ; qtot 21.863546
  579         hc     22    bbb     H5    579 0.08347900   1.008000   ; qtot 21.947025
  580         hc     22    bbb     H6    580 0.08347900   1.008000   ; qtot 22.030504
  581         hc     22    bbb     H7    581 0.08347900   1.008000   ; qtot 22.113983
  582         hc     22    bbb     H8    582 0.08347900   1.008000   ; qtot 22.197462
  583         hx     22    bbb     H9    583 0.07988000   1.008000   ; qtot 22.277342
  584         hx     22    bbb    H10    584 0.07988000   1.008000   ; qtot 22.357222
  585         h1     22    bbb    H11    585 0.10618100   1.008000   ; qtot 22.463403
  586         h1     22    bbb    H12    586 0.10618100   1.008000   ; qtot 22.569584
  587         hn     22    bbb    H13    587 0.25916100   1.008000   ; qtot 22.828745
  588         hn     22    bbb    H25    588 0.17125500   1.008000   ; qtot 23.000000
; residue   23 bbb rtp bbb q 1.0
  589         n4     23    bbb     N1    589 -0.02747900  14.010000   ; qtot 22.972521
  590         c3     23    bbb     C1    590 -0.05097600  12.010000   ; qtot 22.921545
  591         c3     23    bbb     C2    591 -0.05097600  12.010000   ; qtot 22.870569
  592         c3     23    bbb     C3    592 -0.18457900  12.010000   ; qtot 22.685990
  593          c     23    bbb     C4    593 0.67254400  12.010000   ; qtot 23.358534
  594         c3     23    bbb     C5    594 -0.18457900  12.010000   ; qtot 23.173955
  595          c     23    bbb     C6    595 0.67254400  12.010000   ; qtot 23.846499
  596         c3     23    bbb     C7    596 -0.02083000  12.010000   ; qtot 23.825669
  597         c3     23    bbb     C8    597 -0.03328100  12.010000   ; qtot 23.792388
  598          n     23    bbb     N2    598 -0.33303000  14.010000   ; qtot 23.459358
  599          o     23    bbb     O1    599 -0.52917200  16.000000   ; qtot 22.930186
  600          o     23    bbb     O2    600 -0.52917200  16.000000   ; qtot 22.401014
  601         hx     23    bbb     H1    601 0.11563300   1.008000   ; qtot 22.516647
  602         hx     23    bbb     H2    602 0.11563300   1.008000   ; qtot 22.632280
  603         hx     23    bbb     H3    603 0.11563300   1.008000   ; qtot 22.747913
  604         hx     23    bbb     H4    604 0.11563300   1.008000   ; qtot 22.863546
  605         hc     23    bbb     H5    605 0.08347900   1.008000   ; qtot 22.947025
  606         hc     23    bbb     H6    606 0.08347900   1.008000   ; qtot 23.030504
  607         hc     23    bbb     H7    607 0.08347900   1.008000   ; qtot 23.113983
  608         hc     23    bbb     H8    608 0.08347900   1.008000   ; qtot 23.197462
  609         hx     23    bbb     H9    609 0.07988000   1.008000   ; qtot 23.277342
  610         hx     23    bbb    H10    610 0.07988000   1.008000   ; qtot 23.357222
  611         h1     23    bbb    H11    611 0.10618100   1.008000   ; qtot 23.463403
  612         h1     23    bbb    H12    612 0.10618100   1.008000   ; qtot 23.569584
  613         hn     23    bbb    H13    613 0.25916100   1.008000   ; qtot 23.828745
  614         hn     23    bbb    H25    614 0.17125500   1.008000   ; qtot 24.000000
; residue   24 bbb rtp bbb q 1.0
  615         n4     24    bbb     N1    615 -0.02747900  14.010000   ; qtot 23.972521
  616         c3     24    bbb     C1    616 -0.05097600  12.010000   ; qtot 23.921545
  617         c3     24    bbb     C2    617 -0.05097600  12.010000   ; qtot 23.870569
  618         c3     24    bbb     C3    618 -0.18457900  12.010000   ; qtot 23.685990
  619          c     24    bbb     C4    619 0.67254400  12.010000   ; qtot 24.358534
  620         c3     24    bbb     C5    620 -0.18457900  12.010000   ; qtot 24.173955
  621          c     24    bbb     C6    621 0.67254400  12.010000   ; qtot 24.846499
  622         c3     24    bbb     C7    622 -0.02083000  12.010000   ; qtot 24.825669
  623         c3     24    bbb     C8    623 -0.03328100  12.010000   ; qtot 24.792388
  624          n     24    bbb     N2    624 -0.33303000  14.010000   ; qtot 24.459358
  625          o     24    bbb     O1    625 -0.52917200  16.000000   ; qtot 23.930186
  626          o     24    bbb     O2    626 -0.52917200  16.000000   ; qtot 23.401014
  627         hx     24    bbb     H1    627 0.11563300   1.008000   ; qtot 23.516647
  628         hx     24    bbb     H2    628 0.11563300   1.008000   ; qtot 23.632280
  629         hx     24    bbb     H3    629 0.11563300   1.008000   ; qtot 23.747913
  630         hx     24    bbb     H4    630 0.11563300   1.008000   ; qtot 23.863546
  631         hc     24    bbb     H5    631 0.08347900   1.008000   ; qtot 23.947025
  632         hc     24    bbb     H6    632 0.08347900   1.008000   ; qtot 24.030504
  633         hc     24    bbb     H7    633 0.08347900   1.008000   ; qtot 24.113983
  634         hc     24    bbb     H8    634 0.08347900   1.008000   ; qtot 24.197462
  635         hx     24    bbb     H9    635 0.07988000   1.008000   ; qtot 24.277342
  636         hx     24    bbb    H10    636 0.07988000   1.008000   ; qtot 24.357222
  637         h1     24    bbb    H11    637 0.10618100   1.008000   ; qtot 24.463403
  638         h1     24    bbb    H12    638 0.10618100   1.008000   ; qtot 24.569584
  639         hn     24    bbb    H13    639 0.25916100   1.008000   ; qtot 24.828745
  640         hn     24    bbb    H25    640 0.17125500   1.008000   ; qtot 25.000000
; residue   25 bbb rtp bbb q 1.0
  641         n4     25    bbb     N1    641 -0.02747900  14.010000   ; qtot 24.972521
  642         c3     25    bbb     C1    642 -0.05097600  12.010000   ; qtot 24.921545
  643         c3     25    bbb     C2    643 -0.05097600  12.010000   ; qtot 24.870569
  644         c3     25    bbb     C3    644 -0.18457900  12.010000   ; qtot 24.685990
  645          c     25    bbb     C4    645 0.67254400  12.010000   ; qtot 25.358534
  646         c3     25    bbb     C5    646 -0.18457900  12.010000   ; qtot 25.173955
  647          c     25    bbb     C6    647 0.67254400  12.010000   ; qtot 25.846499
  648         c3     25    bbb     C7    648 -0.02083000  12.010000   ; qtot 25.825669
  649         c3     25    bbb     C8    649 -0.03328100  12.010000   ; qtot 25.792388
  650          n     25    bbb     N2    650 -0.33303000  14.010000   ; qtot 25.459358
  651          o     25    bbb     O1    651 -0.52917200  16.000000   ; qtot 24.930186
  652          o     25    bbb     O2    652 -0.52917200  16.000000   ; qtot 24.401014
  653         hx     25    bbb     H1    653 0.11563300   1.008000   ; qtot 24.516647
  654         hx     25    bbb     H2    654 0.11563300   1.008000   ; qtot 24.632280
  655         hx     25    bbb     H3    655 0.11563300   1.008000   ; qtot 24.747913
  656         hx     25    bbb     H4    656 0.11563300   1.008000   ; qtot 24.863546
  657         hc     25    bbb     H5    657 0.08347900   1.008000   ; qtot 24.947025
  658         hc     25    bbb     H6    658 0.08347900   1.008000   ; qtot 25.030504
  659         hc     25    bbb     H7    659 0.08347900   1.008000   ; qtot 25.113983
  660         hc     25    bbb     H8    660 0.08347900   1.008000   ; qtot 25.197462
  661         hx     25    bbb     H9    661 0.07988000   1.008000   ; qtot 25.277342
  662         hx     25    bbb    H10    662 0.07988000   1.008000   ; qtot 25.357222
  663         h1     25    bbb    H11    663 0.10618100   1.008000   ; qtot 25.463403
  664         h1     25    bbb    H12    664 0.10618100   1.008000   ; qtot 25.569584
  665         hn     25    bbb    H13    665 0.25916100   1.008000   ; qtot 25.828745
  666         hn     25    bbb    H25    666 0.17125500   1.008000   ; qtot 26.000000
; residue   26 bbb rtp bbb q 1.0
  667         n4     26    bbb     N1    667 -0.02747900  14.010000   ; qtot 25.972521
  668         c3     26    bbb     C1    668 -0.05097600  12.010000   ; qtot 25.921545
  669         c3     26    bbb     C2    669 -0.05097600  12.010000   ; qtot 25.870569
  670         c3     26    bbb     C3    670 -0.18457900  12.010000   ; qtot 25.685990
  671          c     26    bbb     C4    671 0.67254400  12.010000   ; qtot 26.358534
  672         c3     26    bbb     C5    672 -0.18457900  12.010000   ; qtot 26.173955
  673          c     26    bbb     C6    673 0.67254400  12.010000   ; qtot 26.846499
  674         c3     26    bbb     C7    674 -0.02083000  12.010000   ; qtot 26.825669
  675         c3     26    bbb     C8    675 -0.03328100  12.010000   ; qtot 26.792388
  676          n     26    bbb     N2    676 -0.33303000  14.010000   ; qtot 26.459358
  677          o     26    bbb     O1    677 -0.52917200  16.000000   ; qtot 25.930186
  678          o     26    bbb     O2    678 -0.52917200  16.000000   ; qtot 25.401014
  679         hx     26    bbb     H1    679 0.11563300   1.008000   ; qtot 25.516647
  680         hx     26    bbb     H2    680 0.11563300   1.008000   ; qtot 25.632280
  681         hx     26    bbb     H3    681 0.11563300   1.008000   ; qtot 25.747913
  682         hx     26    bbb     H4    682 0.11563300   1.008000   ; qtot 25.863546
  683         hc     26    bbb     H5    683 0.08347900   1.008000   ; qtot 25.947025
  684         hc     26    bbb     H6    684 0.08347900   1.008000   ; qtot 26.030504
  685         hc     26    bbb     H7    685 0.08347900   1.008000   ; qtot 26.113983
  686         hc     26    bbb     H8    686 0.08347900   1.008000   ; qtot 26.197462
  687         hx     26    bbb     H9    687 0.07988000   1.008000   ; qtot 26.277342
  688         hx     26    bbb    H10    688 0.07988000   1.008000   ; qtot 26.357222
  689         h1     26    bbb    H11    689 0.10618100   1.008000   ; qtot 26.463403
  690         h1     26    bbb    H12    690 0.10618100   1.008000   ; qtot 26.569584
  691         hn     26    bbb    H13    691 0.25916100   1.008000   ; qtot 26.828745
  692         hn     26    bbb    H25    692 0.17125500   1.008000   ; qtot 27.000000
; residue   27 bbb rtp bbb q 1.0
  693         n4     27    bbb     N1    693 -0.02747900  14.010000   ; qtot 26.972521
  694         c3     27    bbb     C1    694 -0.05097600  12.010000   ; qtot 26.921545
  695         c3     27    bbb     C2    695 -0.05097600  12.010000   ; qtot 26.870569
  696         c3     27    bbb     C3    696 -0.18457900  12.010000   ; qtot 26.685990
  697          c     27    bbb     C4    697 0.67254400  12.010000   ; qtot 27.358534
  698         c3     27    bbb     C5    698 -0.18457900  12.010000   ; qtot 27.173955
  699          c     27    bbb     C6    699 0.67254400  12.010000   ; qtot 27.846499
  700         c3     27    bbb     C7    700 -0.02083000  12.010000   ; qtot 27.825669
  701         c3     27    bbb     C8    701 -0.03328100  12.010000   ; qtot 27.792388
  702          n     27    bbb     N2    702 -0.33303000  14.010000   ; qtot 27.459358
  703          o     27    bbb     O1    703 -0.52917200  16.000000   ; qtot 26.930186
  704          o     27    bbb     O2    704 -0.52917200  16.000000   ; qtot 26.401014
  705         hx     27    bbb     H1    705 0.11563300   1.008000   ; qtot 26.516647
  706         hx     27    bbb     H2    706 0.11563300   1.008000   ; qtot 26.632280
  707         hx     27    bbb     H3    707 0.11563300   1.008000   ; qtot 26.747913
  708         hx     27    bbb     H4    708 0.11563300   1.008000   ; qtot 26.863546
  709         hc     27    bbb     H5    709 0.08347900   1.008000   ; qtot 26.947025
  710         hc     27    bbb     H6    710 0.08347900   1.008000   ; qtot 27.030504
  711         hc     27    bbb     H7    711 0.08347900   1.008000   ; qtot 27.113983
  712         hc     27    bbb     H8    712 0.08347900   1.008000   ; qtot 27.197462
  713         hx     27    bbb     H9    713 0.07988000   1.008000   ; qtot 27.277342
  714         hx     27    bbb    H10    714 0.07988000   1.008000   ; qtot 27.357222
  715         h1     27    bbb    H11    715 0.10618100   1.008000   ; qtot 27.463403
  716         h1     27    bbb    H12    716 0.10618100   1.008000   ; qtot 27.569584
  717         hn     27    bbb    H13    717 0.25916100   1.008000   ; qtot 27.828745
  718         hn     27    bbb    H25    718 0.17125500   1.008000   ; qtot 28.000000
; residue   28 bbb rtp bbb q 1.0
  719         n4     28    bbb     N1    719 -0.02747900  14.010000   ; qtot 27.972521
  720         c3     28    bbb     C1    720 -0.05097600  12.010000   ; qtot 27.921545
  721         c3     28    bbb     C2    721 -0.05097600  12.010000   ; qtot 27.870569
  722         c3     28    bbb     C3    722 -0.18457900  12.010000   ; qtot 27.685990
  723          c     28    bbb     C4    723 0.67254400  12.010000   ; qtot 28.358534
  724         c3     28    bbb     C5    724 -0.18457900  12.010000   ; qtot 28.173955
  725          c     28    bbb     C6    725 0.67254400  12.010000   ; qtot 28.846499
  726         c3     28    bbb     C7    726 -0.02083000  12.010000   ; qtot 28.825669
  727         c3     28    bbb     C8    727 -0.03328100  12.010000   ; qtot 28.792388
  728          n     28    bbb     N2    728 -0.33303000  14.010000   ; qtot 28.459358
  729          o     28    bbb     O1    729 -0.52917200  16.000000   ; qtot 27.930186
  730          o     28    bbb     O2    730 -0.52917200  16.000000   ; qtot 27.401014
  731         hx     28    bbb     H1    731 0.11563300   1.008000   ; qtot 27.516647
  732         hx     28    bbb     H2    732 0.11563300   1.008000   ; qtot 27.632280
  733         hx     28    bbb     H3    733 0.11563300   1.008000   ; qtot 27.747913
  734         hx     28    bbb     H4    734 0.11563300   1.008000   ; qtot 27.863546
  735         hc     28    bbb     H5    735 0.08347900   1.008000   ; qtot 27.947025
  736         hc     28    bbb     H6    736 0.08347900   1.008000   ; qtot 28.030504
  737         hc     28    bbb     H7    737 0.08347900   1.008000   ; qtot 28.113983
  738         hc     28    bbb     H8    738 0.08347900   1.008000   ; qtot 28.197462
  739         hx     28    bbb     H9    739 0.07988000   1.008000   ; qtot 28.277342
  740         hx     28    bbb    H10    740 0.07988000   1.008000   ; qtot 28.357222
  741         h1     28    bbb    H11    741 0.10618100   1.008000   ; qtot 28.463403
  742         h1     28    bbb    H12    742 0.10618100   1.008000   ; qtot 28.569584
  743         hn     28    bbb    H13    743 0.25916100   1.008000   ; qtot 28.828745
  744         hn     28    bbb    H25    744 0.17125500   1.008000   ; qtot 29.000000
; residue   29 bbb rtp bbb q 1.0
  745         n4     29    bbb     N1    745 -0.02747900  14.010000   ; qtot 28.972521
  746         c3     29    bbb     C1    746 -0.05097600  12.010000   ; qtot 28.921545
  747         c3     29    bbb     C2    747 -0.05097600  12.010000   ; qtot 28.870569
  748         c3     29    bbb     C3    748 -0.18457900  12.010000   ; qtot 28.685990
  749          c     29    bbb     C4    749 0.67254400  12.010000   ; qtot 29.358534
  750         c3     29    bbb     C5    750 -0.18457900  12.010000   ; qtot 29.173955
  751          c     29    bbb     C6    751 0.67254400  12.010000   ; qtot 29.846499
  752         c3     29    bbb     C7    752 -0.02083000  12.010000   ; qtot 29.825669
  753         c3     29    bbb     C8    753 -0.03328100  12.010000   ; qtot 29.792388
  754          n     29    bbb     N2    754 -0.33303000  14.010000   ; qtot 29.459358
  755          o     29    bbb     O1    755 -0.52917200  16.000000   ; qtot 28.930186
  756          o     29    bbb     O2    756 -0.52917200  16.000000   ; qtot 28.401014
  757         hx     29    bbb     H1    757 0.11563300   1.008000   ; qtot 28.516647
  758         hx     29    bbb     H2    758 0.11563300   1.008000   ; qtot 28.632280
  759         hx     29    bbb     H3    759 0.11563300   1.008000   ; qtot 28.747913
  760         hx     29    bbb     H4    760 0.11563300   1.008000   ; qtot 28.863546
  761         hc     29    bbb     H5    761 0.08347900   1.008000   ; qtot 28.947025
  762         hc     29    bbb     H6    762 0.08347900   1.008000   ; qtot 29.030504
  763         hc     29    bbb     H7    763 0.08347900   1.008000   ; qtot 29.113983
  764         hc     29    bbb     H8    764 0.08347900   1.008000   ; qtot 29.197462
  765         hx     29    bbb     H9    765 0.07988000   1.008000   ; qtot 29.277342
  766         hx     29    bbb    H10    766 0.07988000   1.008000   ; qtot 29.357222
  767         h1     29    bbb    H11    767 0.10618100   1.008000   ; qtot 29.463403
  768         h1     29    bbb    H12    768 0.10618100   1.008000   ; qtot 29.569584
  769         hn     29    bbb    H13    769 0.25916100   1.008000   ; qtot 29.828745
  770         hn     29    bbb    H25    770 0.17125500   1.008000   ; qtot 30.000000
; residue   30 ccc rtp ccc q 1.0
  771          n     30    ccc     N1    771 -0.26410000  14.010000   ; qtot 29.735900
  772         hn     30    ccc     H4    772 0.27630000   1.008000   ; qtot 30.012200
  773         c3     30    ccc     C3    773 -0.17900000  12.010000   ; qtot 29.833200
  774         c3     30    ccc     C4    774 0.08000000  12.010000   ; qtot 29.913200
  775         h1     30    ccc     H5    775 0.13870000   1.008000   ; qtot 30.051900
  776         h1     30    ccc     H6    776 0.13870000   1.008000   ; qtot 30.190600
  777         hx     30    ccc     H7    777 0.07790000   1.008000   ; qtot 30.268500
  778         hx     30    ccc     H8    778 0.07790000   1.008000   ; qtot 30.346400
  779         n4     30    ccc     N2    779 -0.16780000  14.010000   ; qtot 30.178600
  780         hn     30    ccc     H9    780 0.27380000   1.008000   ; qtot 30.452400
  781         hn     30    ccc    H10    781 0.27380000   1.008000   ; qtot 30.726200
  782         hn     30    ccc    H11    782 0.27380000   1.008000   ; qtot 31.000000
; residue   31 ccc rtp ccc q 1.0
  783          n     31    ccc     N1    783 -0.26410000  14.010000   ; qtot 30.735900
  784         hn     31    ccc     H4    784 0.27630000   1.008000   ; qtot 31.012200
  785         c3     31    ccc     C3    785 -0.17900000  12.010000   ; qtot 30.833200
  786         c3     31    ccc     C4    786 0.08000000  12.010000   ; qtot 30.913200
  787         h1     31    ccc     H5    787 0.13870000   1.008000   ; qtot 31.051900
  788         h1     31    ccc     H6    788 0.13870000   1.008000   ; qtot 31.190600
  789         hx     31    ccc     H7    789 0.07790000   1.008000   ; qtot 31.268500
  790         hx     31    ccc     H8    790 0.07790000   1.008000   ; qtot 31.346400
  791         n4     31    ccc     N2    791 -0.16780000  14.010000   ; qtot 31.178600
  792         hn     31    ccc     H9    792 0.27380000   1.008000   ; qtot 31.452400
  793         hn     31    ccc    H10    793 0.27380000   1.008000   ; qtot 31.726200
  794         hn     31    ccc    H11    794 0.27380000   1.008000   ; qtot 32.000000
; residue   32 ccc rtp ccc q 1.0
  795          n     32    ccc     N1    795 -0.26410000  14.010000   ; qtot 31.735900
  796         hn     32    ccc     H4    796 0.27630000   1.008000   ; qtot 32.012200
  797         c3     32    ccc     C3    797 -0.17900000  12.010000   ; qtot 31.833200
  798         c3     32    ccc     C4    798 0.08000000  12.010000   ; qtot 31.913200
  799         h1     32    ccc     H5    799 0.13870000   1.008000   ; qtot 32.051900
  800         h1     32    ccc     H6    800 0.13870000   1.008000   ; qtot 32.190600
  801         hx     32    ccc     H7    801 0.07790000   1.008000   ; qtot 32.268500
  802         hx     32    ccc     H8    802 0.07790000   1.008000   ; qtot 32.346400
  803         n4     32    ccc     N2    803 -0.16780000  14.010000   ; qtot 32.178600
  804         hn     32    ccc     H9    804 0.27380000   1.008000   ; qtot 32.452400
  805         hn     32    ccc    H10    805 0.27380000   1.008000   ; qtot 32.726200
  806         hn     32    ccc    H11    806 0.27380000   1.008000   ; qtot 33.000000
; residue   33 ccc rtp ccc q 1.0
  807          n     33    ccc     N1    807 -0.26410000  14.010000   ; qtot 32.735900
  808         hn     33    ccc     H4    808 0.27630000   1.008000   ; qtot 33.012200
  809         c3     33    ccc     C3    809 -0.17900000  12.010000   ; qtot 32.833200
  810         c3     33    ccc     C4    810 0.08000000  12.010000   ; qtot 32.913200
  811         h1     33    ccc     H5    811 0.13870000   1.008000   ; qtot 33.051900
  812         h1     33    ccc     H6    812 0.13870000   1.008000   ; qtot 33.190600
  813         hx     33    ccc     H7    813 0.07790000   1.008000   ; qtot 33.268500
  814         hx     33    ccc     H8    814 0.07790000   1.008000   ; qtot 33.346400
  815         n4     33    ccc     N2    815 -0.16780000  14.010000   ; qtot 33.178600
  816         hn     33    ccc     H9    816 0.27380000   1.008000   ; qtot 33.452400
  817         hn     33    ccc    H10    817 0.27380000   1.008000   ; qtot 33.726200
  818         hn     33    ccc    H11    818 0.27380000   1.008000   ; qtot 34.000000
; residue   34 ccc rtp ccc q 1.0
  819          n     34    ccc     N1    819 -0.26410000  14.010000   ; qtot 33.735900
  820         hn     34    ccc     H4    820 0.27630000   1.008000   ; qtot 34.012200
  821         c3     34    ccc     C3    821 -0.17900000  12.010000   ; qtot 33.833200
  822         c3     34    ccc     C4    822 0.08000000  12.010000   ; qtot 33.913200
  823         h1     34    ccc     H5    823 0.13870000   1.008000   ; qtot 34.051900
  824         h1     34    ccc     H6    824 0.13870000   1.008000   ; qtot 34.190600
  825         hx     34    ccc     H7    825 0.07790000   1.008000   ; qtot 34.268500
  826         hx     34    ccc     H8    826 0.07790000   1.008000   ; qtot 34.346400
  827         n4     34    ccc     N2    827 -0.16780000  14.010000   ; qtot 34.178600
  828         hn     34    ccc     H9    828 0.27380000   1.008000   ; qtot 34.452400
  829         hn     34    ccc    H10    829 0.27380000   1.008000   ; qtot 34.726200
  830         hn     34    ccc    H11    830 0.27380000   1.008000   ; qtot 35.000000
; residue   35 ccc rtp ccc q 1.0
  831          n     35    ccc     N1    831 -0.26410000  14.010000   ; qtot 34.735900
  832         hn     35    ccc     H4    832 0.27630000   1.008000   ; qtot 35.012200
  833         c3     35    ccc     C3    833 -0.17900000  12.010000   ; qtot 34.833200
  834         c3     35    ccc     C4    834 0.08000000  12.010000   ; qtot 34.913200
  835         h1     35    ccc     H5    835 0.13870000   1.008000   ; qtot 35.051900
  836         h1     35    ccc     H6    836 0.13870000   1.008000   ; qtot 35.190600
  837         hx     35    ccc     H7    837 0.07790000   1.008000   ; qtot 35.268500
  838         hx     35    ccc     H8    838 0.07790000   1.008000   ; qtot 35.346400
  839         n4     35    ccc     N2    839 -0.16780000  14.010000   ; qtot 35.178600
  840         hn     35    ccc     H9    840 0.27380000   1.008000   ; qtot 35.452400
  841         hn     35    ccc    H10    841 0.27380000   1.008000   ; qtot 35.726200
  842         hn     35    ccc    H11    842 0.27380000   1.008000   ; qtot 36.000000
; residue   36 ccc rtp ccc q 1.0
  843          n     36    ccc     N1    843 -0.26410000  14.010000   ; qtot 35.735900
  844         hn     36    ccc     H4    844 0.27630000   1.008000   ; qtot 36.012200
  845         c3     36    ccc     C3    845 -0.17900000  12.010000   ; qtot 35.833200
  846         c3     36    ccc     C4    846 0.08000000  12.010000   ; qtot 35.913200
  847         h1     36    ccc     H5    847 0.13870000   1.008000   ; qtot 36.051900
  848         h1     36    ccc     H6    848 0.13870000   1.008000   ; qtot 36.190600
  849         hx     36    ccc     H7    849 0.07790000   1.008000   ; qtot 36.268500
  850         hx     36    ccc     H8    850 0.07790000   1.008000   ; qtot 36.346400
  851         n4     36    ccc     N2    851 -0.16780000  14.010000   ; qtot 36.178600
  852         hn     36    ccc     H9    852 0.27380000   1.008000   ; qtot 36.452400
  853         hn     36    ccc    H10    853 0.27380000   1.008000   ; qtot 36.726200
  854         hn     36    ccc    H11    854 0.27380000   1.008000   ; qtot 37.000000
; residue   37 ccc rtp ccc q 1.0
  855          n     37    ccc     N1    855 -0.26410000  14.010000   ; qtot 36.735900
  856         hn     37    ccc     H4    856 0.27630000   1.008000   ; qtot 37.012200
  857         c3     37    ccc     C3    857 -0.17900000  12.010000   ; qtot 36.833200
  858         c3     37    ccc     C4    858 0.08000000  12.010000   ; qtot 36.913200
  859         h1     37    ccc     H5    859 0.13870000   1.008000   ; qtot 37.051900
  860         h1     37    ccc     H6    860 0.13870000   1.008000   ; qtot 37.190600
  861         hx     37    ccc     H7    861 0.07790000   1.008000   ; qtot 37.268500
  862         hx     37    ccc     H8    862 0.07790000   1.008000   ; qtot 37.346400
  863         n4     37    ccc     N2    863 -0.16780000  14.010000   ; qtot 37.178600
  864         hn     37    ccc     H9    864 0.27380000   1.008000   ; qtot 37.452400
  865         hn     37    ccc    H10    865 0.27380000   1.008000   ; qtot 37.726200
  866         hn     37    ccc    H11    866 0.27380000   1.008000   ; qtot 38.000000
; residue   38 ccc rtp ccc q 1.0
  867          n     38    ccc     N1    867 -0.26410000  14.010000   ; qtot 37.735900
  868         hn     38    ccc     H4    868 0.27630000   1.008000   ; qtot 38.012200
  869         c3     38    ccc     C3    869 -0.17900000  12.010000   ; qtot 37.833200
  870         c3     38    ccc     C4    870 0.08000000  12.010000   ; qtot 37.913200
  871         h1     38    ccc     H5    871 0.13870000   1.008000   ; qtot 38.051900
  872         h1     38    ccc     H6    872 0.13870000   1.008000   ; qtot 38.190600
  873         hx     38    ccc     H7    873 0.07790000   1.008000   ; qtot 38.268500
  874         hx     38    ccc     H8    874 0.07790000   1.008000   ; qtot 38.346400
  875         n4     38    ccc     N2    875 -0.16780000  14.010000   ; qtot 38.178600
  876         hn     38    ccc     H9    876 0.27380000   1.008000   ; qtot 38.452400
  877         hn     38    ccc    H10    877 0.27380000   1.008000   ; qtot 38.726200
  878         hn     38    ccc    H11    878 0.27380000   1.008000   ; qtot 39.000000
; residue   39 ccc rtp ccc q 1.0
  879          n     39    ccc     N1    879 -0.26410000  14.010000   ; qtot 38.735900
  880         hn     39    ccc     H4    880 0.27630000   1.008000   ; qtot 39.012200
  881         c3     39    ccc     C3    881 -0.17900000  12.010000   ; qtot 38.833200
  882         c3     39    ccc     C4    882 0.08000000  12.010000   ; qtot 38.913200
  883         h1     39    ccc     H5    883 0.13870000   1.008000   ; qtot 39.051900
  884         h1     39    ccc     H6    884 0.13870000   1.008000   ; qtot 39.190600
  885         hx     39    ccc     H7    885 0.07790000   1.008000   ; qtot 39.268500
  886         hx     39    ccc     H8    886 0.07790000   1.008000   ; qtot 39.346400
  887         n4     39    ccc     N2    887 -0.16780000  14.010000   ; qtot 39.178600
  888         hn     39    ccc     H9    888 0.27380000   1.008000   ; qtot 39.452400
  889         hn     39    ccc    H10    889 0.27380000   1.008000   ; qtot 39.726200
  890         hn     39    ccc    H11    890 0.27380000   1.008000   ; qtot 40.000000
; residue   40 ccc rtp ccc q 1.0
  891          n     40    ccc     N1    891 -0.26410000  14.010000   ; qtot 39.735900
  892         hn     40    ccc     H4    892 0.27630000   1.008000   ; qtot 40.012200
  893         c3     40    ccc     C3    893 -0.17900000  12.010000   ; qtot 39.833200
  894         c3     40    ccc     C4    894 0.08000000  12.010000   ; qtot 39.913200
  895         h1     40    ccc     H5    895 0.13870000   1.008000   ; qtot 40.051900
  896         h1     40    ccc     H6    896 0.13870000   1.008000   ; qtot 40.190600
  897         hx     40    ccc     H7    897 0.07790000   1.008000   ; qtot 40.268500
  898         hx     40    ccc     H8    898 0.07790000   1.008000   ; qtot 40.346400
  899         n4     40    ccc     N2    899 -0.16780000  14.010000   ; qtot 40.178600
  900         hn     40    ccc     H9    900 0.27380000   1.008000   ; qtot 40.452400
  901         hn     40    ccc    H10    901 0.27380000   1.008000   ; qtot 40.726200
  902         hn     40    ccc    H11    902 0.27380000   1.008000   ; qtot 41.000000
; residue   41 ccc rtp ccc q 1.0
  903          n     41    ccc     N1    903 -0.26410000  14.010000   ; qtot 40.735900
  904         hn     41    ccc     H4    904 0.27630000   1.008000   ; qtot 41.012200
  905         c3     41    ccc     C3    905 -0.17900000  12.010000   ; qtot 40.833200
  906         c3     41    ccc     C4    906 0.08000000  12.010000   ; qtot 40.913200
  907         h1     41    ccc     H5    907 0.13870000   1.008000   ; qtot 41.051900
  908         h1     41    ccc     H6    908 0.13870000   1.008000   ; qtot 41.190600
  909         hx     41    ccc     H7    909 0.07790000   1.008000   ; qtot 41.268500
  910         hx     41    ccc     H8    910 0.07790000   1.008000   ; qtot 41.346400
  911         n4     41    ccc     N2    911 -0.16780000  14.010000   ; qtot 41.178600
  912         hn     41    ccc     H9    912 0.27380000   1.008000   ; qtot 41.452400
  913         hn     41    ccc    H10    913 0.27380000   1.008000   ; qtot 41.726200
  914         hn     41    ccc    H11    914 0.27380000   1.008000   ; qtot 42.000000
; residue   42 ccc rtp ccc q 1.0
  915          n     42    ccc     N1    915 -0.26410000  14.010000   ; qtot 41.735900
  916         hn     42    ccc     H4    916 0.27630000   1.008000   ; qtot 42.012200
  917         c3     42    ccc     C3    917 -0.17900000  12.010000   ; qtot 41.833200
  918         c3     42    ccc     C4    918 0.08000000  12.010000   ; qtot 41.913200
  919         h1     42    ccc     H5    919 0.13870000   1.008000   ; qtot 42.051900
  920         h1     42    ccc     H6    920 0.13870000   1.008000   ; qtot 42.190600
  921         hx     42    ccc     H7    921 0.07790000   1.008000   ; qtot 42.268500
  922         hx     42    ccc     H8    922 0.07790000   1.008000   ; qtot 42.346400
  923         n4     42    ccc     N2    923 -0.16780000  14.010000   ; qtot 42.178600
  924         hn     42    ccc     H9    924 0.27380000   1.008000   ; qtot 42.452400
  925         hn     42    ccc    H10    925 0.27380000   1.008000   ; qtot 42.726200
  926         hn     42    ccc    H11    926 0.27380000   1.008000   ; qtot 43.000000
; residue   43 ccc rtp ccc q 1.0
  927          n     43    ccc     N1    927 -0.26410000  14.010000   ; qtot 42.735900
  928         hn     43    ccc     H4    928 0.27630000   1.008000   ; qtot 43.012200
  929         c3     43    ccc     C3    929 -0.17900000  12.010000   ; qtot 42.833200
  930         c3     43    ccc     C4    930 0.08000000  12.010000   ; qtot 42.913200
  931         h1     43    ccc     H5    931 0.13870000   1.008000   ; qtot 43.051900
  932         h1     43    ccc     H6    932 0.13870000   1.008000   ; qtot 43.190600
  933         hx     43    ccc     H7    933 0.07790000   1.008000   ; qtot 43.268500
  934         hx     43    ccc     H8    934 0.07790000   1.008000   ; qtot 43.346400
  935         n4     43    ccc     N2    935 -0.16780000  14.010000   ; qtot 43.178600
  936         hn     43    ccc     H9    936 0.27380000   1.008000   ; qtot 43.452400
  937         hn     43    ccc    H10    937 0.27380000   1.008000   ; qtot 43.726200
  938         hn     43    ccc    H11    938 0.27380000   1.008000   ; qtot 44.000000
; residue   44 ccc rtp ccc q 1.0
  939          n     44    ccc     N1    939 -0.26410000  14.010000   ; qtot 43.735900
  940         hn     44    ccc     H4    940 0.27630000   1.008000   ; qtot 44.012200
  941         c3     44    ccc     C3    941 -0.17900000  12.010000   ; qtot 43.833200
  942         c3     44    ccc     C4    942 0.08000000  12.010000   ; qtot 43.913200
  943         h1     44    ccc     H5    943 0.13870000   1.008000   ; qtot 44.051900
  944         h1     44    ccc     H6    944 0.13870000   1.008000   ; qtot 44.190600
  945         hx     44    ccc     H7    945 0.07790000   1.008000   ; qtot 44.268500
  946         hx     44    ccc     H8    946 0.07790000   1.008000   ; qtot 44.346400
  947         n4     44    ccc     N2    947 -0.16780000  14.010000   ; qtot 44.178600
  948         hn     44    ccc     H9    948 0.27380000   1.008000   ; qtot 44.452400
  949         hn     44    ccc    H10    949 0.27380000   1.008000   ; qtot 44.726200
  950         hn     44    ccc    H11    950 0.27380000   1.008000   ; qtot 45.000000
; residue   45 ccc rtp ccc q 1.0
  951          n     45    ccc     N1    951 -0.26410000  14.010000   ; qtot 44.735900
  952         hn     45    ccc     H4    952 0.27630000   1.008000   ; qtot 45.012200
  953         c3     45    ccc     C3    953 -0.17900000  12.010000   ; qtot 44.833200
  954         c3     45    ccc     C4    954 0.08000000  12.010000   ; qtot 44.913200
  955         h1     45    ccc     H5    955 0.13870000   1.008000   ; qtot 45.051900
  956         h1     45    ccc     H6    956 0.13870000   1.008000   ; qtot 45.190600
  957         hx     45    ccc     H7    957 0.07790000   1.008000   ; qtot 45.268500
  958         hx     45    ccc     H8    958 0.07790000   1.008000   ; qtot 45.346400
  959         n4     45    ccc     N2    959 -0.16780000  14.010000   ; qtot 45.178600
  960         hn     45    ccc     H9    960 0.27380000   1.008000   ; qtot 45.452400
  961         hn     45    ccc    H10    961 0.27380000   1.008000   ; qtot 45.726200
  962         hn     45    ccc    H11    962 0.27380000   1.008000   ; qtot 46.000000
; residue   46 ccc rtp ccc q 1.0
  963          n     46    ccc     N1    963 -0.26410000  14.010000   ; qtot 45.735900
  964         hn     46    ccc     H4    964 0.27630000   1.008000   ; qtot 46.012200
  965         c3     46    ccc     C3    965 -0.17900000  12.010000   ; qtot 45.833200
  966         c3     46    ccc     C4    966 0.08000000  12.010000   ; qtot 45.913200
  967         h1     46    ccc     H5    967 0.13870000   1.008000   ; qtot 46.051900
  968         h1     46    ccc     H6    968 0.13870000   1.008000   ; qtot 46.190600
  969         hx     46    ccc     H7    969 0.07790000   1.008000   ; qtot 46.268500
  970         hx     46    ccc     H8    970 0.07790000   1.008000   ; qtot 46.346400
  971         n4     46    ccc     N2    971 -0.16780000  14.010000   ; qtot 46.178600
  972         hn     46    ccc     H9    972 0.27380000   1.008000   ; qtot 46.452400
  973         hn     46    ccc    H10    973 0.27380000   1.008000   ; qtot 46.726200
  974         hn     46    ccc    H11    974 0.27380000   1.008000   ; qtot 47.000000
; residue   47 ccc rtp ccc q 1.0
  975          n     47    ccc     N1    975 -0.26410000  14.010000   ; qtot 46.735900
  976         hn     47    ccc     H4    976 0.27630000   1.008000   ; qtot 47.012200
  977         c3     47    ccc     C3    977 -0.17900000  12.010000   ; qtot 46.833200
  978         c3     47    ccc     C4    978 0.08000000  12.010000   ; qtot 46.913200
  979         h1     47    ccc     H5    979 0.13870000   1.008000   ; qtot 47.051900
  980         h1     47    ccc     H6    980 0.13870000   1.008000   ; qtot 47.190600
  981         hx     47    ccc     H7    981 0.07790000   1.008000   ; qtot 47.268500
  982         hx     47    ccc     H8    982 0.07790000   1.008000   ; qtot 47.346400
  983         n4     47    ccc     N2    983 -0.16780000  14.010000   ; qtot 47.178600
  984         hn     47    ccc     H9    984 0.27380000   1.008000   ; qtot 47.452400
  985         hn     47    ccc    H10    985 0.27380000   1.008000   ; qtot 47.726200
  986         hn     47    ccc    H11    986 0.27380000   1.008000   ; qtot 48.000000
; residue   48 ccc rtp ccc q 1.0
  987          n     48    ccc     N1    987 -0.26410000  14.010000   ; qtot 47.735900
  988         hn     48    ccc     H4    988 0.27630000   1.008000   ; qtot 48.012200
  989         c3     48    ccc     C3    989 -0.17900000  12.010000   ; qtot 47.833200
  990         c3     48    ccc     C4    990 0.08000000  12.010000   ; qtot 47.913200
  991         h1     48    ccc     H5    991 0.13870000   1.008000   ; qtot 48.051900
  992         h1     48    ccc     H6    992 0.13870000   1.008000   ; qtot 48.190600
  993         hx     48    ccc     H7    993 0.07790000   1.008000   ; qtot 48.268500
  994         hx     48    ccc     H8    994 0.07790000   1.008000   ; qtot 48.346400
  995         n4     48    ccc     N2    995 -0.16780000  14.010000   ; qtot 48.178600
  996         hn     48    ccc     H9    996 0.27380000   1.008000   ; qtot 48.452400
  997         hn     48    ccc    H10    997 0.27380000   1.008000   ; qtot 48.726200
  998         hn     48    ccc    H11    998 0.27380000   1.008000   ; qtot 49.000000
; residue   49 ccc rtp ccc q 1.0
  999          n     49    ccc     N1    999 -0.26410000  14.010000   ; qtot 48.735900
 1000         hn     49    ccc     H4   1000 0.27630000   1.008000   ; qtot 49.012200
 1001         c3     49    ccc     C3   1001 -0.17900000  12.010000   ; qtot 48.833200
 1002         c3     49    ccc     C4   1002 0.08000000  12.010000   ; qtot 48.913200
 1003         h1     49    ccc     H5   1003 0.13870000   1.008000   ; qtot 49.051900
 1004         h1     49    ccc     H6   1004 0.13870000   1.008000   ; qtot 49.190600
 1005         hx     49    ccc     H7   1005 0.07790000   1.008000   ; qtot 49.268500
 1006         hx     49    ccc     H8   1006 0.07790000   1.008000   ; qtot 49.346400
 1007         n4     49    ccc     N2   1007 -0.16780000  14.010000   ; qtot 49.178600
 1008         hn     49    ccc     H9   1008 0.27380000   1.008000   ; qtot 49.452400
 1009         hn     49    ccc    H10   1009 0.27380000   1.008000   ; qtot 49.726200
 1010         hn     49    ccc    H11   1010 0.27380000   1.008000   ; qtot 50.000000
; residue   50 ccc rtp ccc q 1.0
 1011          n     50    ccc     N1   1011 -0.26410000  14.010000   ; qtot 49.735900
 1012         hn     50    ccc     H4   1012 0.27630000   1.008000   ; qtot 50.012200
 1013         c3     50    ccc     C3   1013 -0.17900000  12.010000   ; qtot 49.833200
 1014         c3     50    ccc     C4   1014 0.08000000  12.010000   ; qtot 49.913200
 1015         h1     50    ccc     H5   1015 0.13870000   1.008000   ; qtot 50.051900
 1016         h1     50    ccc     H6   1016 0.13870000   1.008000   ; qtot 50.190600
 1017         hx     50    ccc     H7   1017 0.07790000   1.008000   ; qtot 50.268500
 1018         hx     50    ccc     H8   1018 0.07790000   1.008000   ; qtot 50.346400
 1019         n4     50    ccc     N2   1019 -0.16780000  14.010000   ; qtot 50.178600
 1020         hn     50    ccc     H9   1020 0.27380000   1.008000   ; qtot 50.452400
 1021         hn     50    ccc    H10   1021 0.27380000   1.008000   ; qtot 50.726200
 1022         hn     50    ccc    H11   1022 0.27380000   1.008000   ; qtot 51.000000
; residue   51 ccc rtp ccc q 1.0
 1023          n     51    ccc     N1   1023 -0.26410000  14.010000   ; qtot 50.735900
 1024         hn     51    ccc     H4   1024 0.27630000   1.008000   ; qtot 51.012200
 1025         c3     51    ccc     C3   1025 -0.17900000  12.010000   ; qtot 50.833200
 1026         c3     51    ccc     C4   1026 0.08000000  12.010000   ; qtot 50.913200
 1027         h1     51    ccc     H5   1027 0.13870000   1.008000   ; qtot 51.051900
 1028         h1     51    ccc     H6   1028 0.13870000   1.008000   ; qtot 51.190600
 1029         hx     51    ccc     H7   1029 0.07790000   1.008000   ; qtot 51.268500
 1030         hx     51    ccc     H8   1030 0.07790000   1.008000   ; qtot 51.346400
 1031         n4     51    ccc     N2   1031 -0.16780000  14.010000   ; qtot 51.178600
 1032         hn     51    ccc     H9   1032 0.27380000   1.008000   ; qtot 51.452400
 1033         hn     51    ccc    H10   1033 0.27380000   1.008000   ; qtot 51.726200
 1034         hn     51    ccc    H11   1034 0.27380000   1.008000   ; qtot 52.000000
; residue   52 ccc rtp ccc q 1.0
 1035          n     52    ccc     N1   1035 -0.26410000  14.010000   ; qtot 51.735900
 1036         hn     52    ccc     H4   1036 0.27630000   1.008000   ; qtot 52.012200
 1037         c3     52    ccc     C3   1037 -0.17900000  12.010000   ; qtot 51.833200
 1038         c3     52    ccc     C4   1038 0.08000000  12.010000   ; qtot 51.913200
 1039         h1     52    ccc     H5   1039 0.13870000   1.008000   ; qtot 52.051900
 1040         h1     52    ccc     H6   1040 0.13870000   1.008000   ; qtot 52.190600
 1041         hx     52    ccc     H7   1041 0.07790000   1.008000   ; qtot 52.268500
 1042         hx     52    ccc     H8   1042 0.07790000   1.008000   ; qtot 52.346400
 1043         n4     52    ccc     N2   1043 -0.16780000  14.010000   ; qtot 52.178600
 1044         hn     52    ccc     H9   1044 0.27380000   1.008000   ; qtot 52.452400
 1045         hn     52    ccc    H10   1045 0.27380000   1.008000   ; qtot 52.726200
 1046         hn     52    ccc    H11   1046 0.27380000   1.008000   ; qtot 53.000000
; residue   53 ccc rtp ccc q 1.0
 1047          n     53    ccc     N1   1047 -0.26410000  14.010000   ; qtot 52.735900
 1048         hn     53    ccc     H4   1048 0.27630000   1.008000   ; qtot 53.012200
 1049         c3     53    ccc     C3   1049 -0.17900000  12.010000   ; qtot 52.833200
 1050         c3     53    ccc     C4   1050 0.08000000  12.010000   ; qtot 52.913200
 1051         h1     53    ccc     H5   1051 0.13870000   1.008000   ; qtot 53.051900
 1052         h1     53    ccc     H6   1052 0.13870000   1.008000   ; qtot 53.190600
 1053         hx     53    ccc     H7   1053 0.07790000   1.008000   ; qtot 53.268500
 1054         hx     53    ccc     H8   1054 0.07790000   1.008000   ; qtot 53.346400
 1055         n4     53    ccc     N2   1055 -0.16780000  14.010000   ; qtot 53.178600
 1056         hn     53    ccc     H9   1056 0.27380000   1.008000   ; qtot 53.452400
 1057         hn     53    ccc    H10   1057 0.27380000   1.008000   ; qtot 53.726200
 1058         hn     53    ccc    H11   1058 0.27380000   1.008000   ; qtot 54.000000
; residue   54 ccc rtp ccc q 1.0
 1059          n     54    ccc     N1   1059 -0.26410000  14.010000   ; qtot 53.735900
 1060         hn     54    ccc     H4   1060 0.27630000   1.008000   ; qtot 54.012200
 1061         c3     54    ccc     C3   1061 -0.17900000  12.010000   ; qtot 53.833200
 1062         c3     54    ccc     C4   1062 0.08000000  12.010000   ; qtot 53.913200
 1063         h1     54    ccc     H5   1063 0.13870000   1.008000   ; qtot 54.051900
 1064         h1     54    ccc     H6   1064 0.13870000   1.008000   ; qtot 54.190600
 1065         hx     54    ccc     H7   1065 0.07790000   1.008000   ; qtot 54.268500
 1066         hx     54    ccc     H8   1066 0.07790000   1.008000   ; qtot 54.346400
 1067         n4     54    ccc     N2   1067 -0.16780000  14.010000   ; qtot 54.178600
 1068         hn     54    ccc     H9   1068 0.27380000   1.008000   ; qtot 54.452400
 1069         hn     54    ccc    H10   1069 0.27380000   1.008000   ; qtot 54.726200
 1070         hn     54    ccc    H11   1070 0.27380000   1.008000   ; qtot 55.000000
; residue   55 ccc rtp ccc q 1.0
 1071          n     55    ccc     N1   1071 -0.26410000  14.010000   ; qtot 54.735900
 1072         hn     55    ccc     H4   1072 0.27630000   1.008000   ; qtot 55.012200
 1073         c3     55    ccc     C3   1073 -0.17900000  12.010000   ; qtot 54.833200
 1074         c3     55    ccc     C4   1074 0.08000000  12.010000   ; qtot 54.913200
 1075         h1     55    ccc     H5   1075 0.13870000   1.008000   ; qtot 55.051900
 1076         h1     55    ccc     H6   1076 0.13870000   1.008000   ; qtot 55.190600
 1077         hx     55    ccc     H7   1077 0.07790000   1.008000   ; qtot 55.268500
 1078         hx     55    ccc     H8   1078 0.07790000   1.008000   ; qtot 55.346400
 1079         n4     55    ccc     N2   1079 -0.16780000  14.010000   ; qtot 55.178600
 1080         hn     55    ccc     H9   1080 0.27380000   1.008000   ; qtot 55.452400
 1081         hn     55    ccc    H10   1081 0.27380000   1.008000   ; qtot 55.726200
 1082         hn     55    ccc    H11   1082 0.27380000   1.008000   ; qtot 56.000000
; residue   56 ccc rtp ccc q 1.0
 1083          n     56    ccc     N1   1083 -0.26410000  14.010000   ; qtot 55.735900
 1084         hn     56    ccc     H4   1084 0.27630000   1.008000   ; qtot 56.012200
 1085         c3     56    ccc     C3   1085 -0.17900000  12.010000   ; qtot 55.833200
 1086         c3     56    ccc     C4   1086 0.08000000  12.010000   ; qtot 55.913200
 1087         h1     56    ccc     H5   1087 0.13870000   1.008000   ; qtot 56.051900
 1088         h1     56    ccc     H6   1088 0.13870000   1.008000   ; qtot 56.190600
 1089         hx     56    ccc     H7   1089 0.07790000   1.008000   ; qtot 56.268500
 1090         hx     56    ccc     H8   1090 0.07790000   1.008000   ; qtot 56.346400
 1091         n4     56    ccc     N2   1091 -0.16780000  14.010000   ; qtot 56.178600
 1092         hn     56    ccc     H9   1092 0.27380000   1.008000   ; qtot 56.452400
 1093         hn     56    ccc    H10   1093 0.27380000   1.008000   ; qtot 56.726200
 1094         hn     56    ccc    H11   1094 0.27380000   1.008000   ; qtot 57.000000
; residue   57 ccc rtp ccc q 1.0
 1095          n     57    ccc     N1   1095 -0.26410000  14.010000   ; qtot 56.735900
 1096         hn     57    ccc     H4   1096 0.27630000   1.008000   ; qtot 57.012200
 1097         c3     57    ccc     C3   1097 -0.17900000  12.010000   ; qtot 56.833200
 1098         c3     57    ccc     C4   1098 0.08000000  12.010000   ; qtot 56.913200
 1099         h1     57    ccc     H5   1099 0.13870000   1.008000   ; qtot 57.051900
 1100         h1     57    ccc     H6   1100 0.13870000   1.008000   ; qtot 57.190600
 1101         hx     57    ccc     H7   1101 0.07790000   1.008000   ; qtot 57.268500
 1102         hx     57    ccc     H8   1102 0.07790000   1.008000   ; qtot 57.346400
 1103         n4     57    ccc     N2   1103 -0.16780000  14.010000   ; qtot 57.178600
 1104         hn     57    ccc     H9   1104 0.27380000   1.008000   ; qtot 57.452400
 1105         hn     57    ccc    H10   1105 0.27380000   1.008000   ; qtot 57.726200
 1106         hn     57    ccc    H11   1106 0.27380000   1.008000   ; qtot 58.000000
; residue   58 ccc rtp ccc q 1.0
 1107          n     58    ccc     N1   1107 -0.26410000  14.010000   ; qtot 57.735900
 1108         hn     58    ccc     H4   1108 0.27630000   1.008000   ; qtot 58.012200
 1109         c3     58    ccc     C3   1109 -0.17900000  12.010000   ; qtot 57.833200
 1110         c3     58    ccc     C4   1110 0.08000000  12.010000   ; qtot 57.913200
 1111         h1     58    ccc     H5   1111 0.13870000   1.008000   ; qtot 58.051900
 1112         h1     58    ccc     H6   1112 0.13870000   1.008000   ; qtot 58.190600
 1113         hx     58    ccc     H7   1113 0.07790000   1.008000   ; qtot 58.268500
 1114         hx     58    ccc     H8   1114 0.07790000   1.008000   ; qtot 58.346400
 1115         n4     58    ccc     N2   1115 -0.16780000  14.010000   ; qtot 58.178600
 1116         hn     58    ccc     H9   1116 0.27380000   1.008000   ; qtot 58.452400
 1117         hn     58    ccc    H10   1117 0.27380000   1.008000   ; qtot 58.726200
 1118         hn     58    ccc    H11   1118 0.27380000   1.008000   ; qtot 59.000000
; residue   59 ccc rtp ccc q 1.0
 1119          n     59    ccc     N1   1119 -0.26410000  14.010000   ; qtot 58.735900
 1120         hn     59    ccc     H4   1120 0.27630000   1.008000   ; qtot 59.012200
 1121         c3     59    ccc     C3   1121 -0.17900000  12.010000   ; qtot 58.833200
 1122         c3     59    ccc     C4   1122 0.08000000  12.010000   ; qtot 58.913200
 1123         h1     59    ccc     H5   1123 0.13870000   1.008000   ; qtot 59.051900
 1124         h1     59    ccc     H6   1124 0.13870000   1.008000   ; qtot 59.190600
 1125         hx     59    ccc     H7   1125 0.07790000   1.008000   ; qtot 59.268500
 1126         hx     59    ccc     H8   1126 0.07790000   1.008000   ; qtot 59.346400
 1127         n4     59    ccc     N2   1127 -0.16780000  14.010000   ; qtot 59.178600
 1128         hn     59    ccc     H9   1128 0.27380000   1.008000   ; qtot 59.452400
 1129         hn     59    ccc    H10   1129 0.27380000   1.008000   ; qtot 59.726200
 1130         hn     59    ccc    H11   1130 0.27380000   1.008000   ; qtot 60.000000
; residue   60 ccc rtp ccc q 1.0
 1131          n     60    ccc     N1   1131 -0.26410000  14.010000   ; qtot 59.735900
 1132         hn     60    ccc     H4   1132 0.27630000   1.008000   ; qtot 60.012200
 1133         c3     60    ccc     C3   1133 -0.17900000  12.010000   ; qtot 59.833200
 1134         c3     60    ccc     C4   1134 0.08000000  12.010000   ; qtot 59.913200
 1135         h1     60    ccc     H5   1135 0.13870000   1.008000   ; qtot 60.051900
 1136         h1     60    ccc     H6   1136 0.13870000   1.008000   ; qtot 60.190600
 1137         hx     60    ccc     H7   1137 0.07790000   1.008000   ; qtot 60.268500
 1138         hx     60    ccc     H8   1138 0.07790000   1.008000   ; qtot 60.346400
 1139         n4     60    ccc     N2   1139 -0.16780000  14.010000   ; qtot 60.178600
 1140         hn     60    ccc     H9   1140 0.27380000   1.008000   ; qtot 60.452400
 1141         hn     60    ccc    H10   1141 0.27380000   1.008000   ; qtot 60.726200
 1142         hn     60    ccc    H11   1142 0.27380000   1.008000   ; qtot 61.000000
; residue   61 ccc rtp ccc q 1.0
 1143          n     61    ccc     N1   1143 -0.26410000  14.010000   ; qtot 60.735900
 1144         hn     61    ccc     H4   1144 0.27630000   1.008000   ; qtot 61.012200
 1145         c3     61    ccc     C3   1145 -0.17900000  12.010000   ; qtot 60.833200
 1146         c3     61    ccc     C4   1146 0.08000000  12.010000   ; qtot 60.913200
 1147         h1     61    ccc     H5   1147 0.13870000   1.008000   ; qtot 61.051900
 1148         h1     61    ccc     H6   1148 0.13870000   1.008000   ; qtot 61.190600
 1149         hx     61    ccc     H7   1149 0.07790000   1.008000   ; qtot 61.268500
 1150         hx     61    ccc     H8   1150 0.07790000   1.008000   ; qtot 61.346400
 1151         n4     61    ccc     N2   1151 -0.16780000  14.010000   ; qtot 61.178600
 1152         hn     61    ccc     H9   1152 0.27380000   1.008000   ; qtot 61.452400
 1153         hn     61    ccc    H10   1153 0.27380000   1.008000   ; qtot 61.726200
 1154         hn     61    ccc    H11   1154 0.27380000   1.008000   ; qtot 62.000000

[ bonds ]
;    ai     aj funct         c0         c1         c2         c3
      1      2     1   0.15110 237065.440000
      1      7     1   0.15110 237065.440000
      1      8     1   0.15110 237065.440000
      2      3     1   0.15375 251793.120000
      3      4     1   0.15110 237065.440000
      4      5     1   0.15110 237065.440000
      4      6     1   0.15110 237065.440000
      5     11     1   0.15375 251793.120000
      6      9     1   0.15375 251793.120000
      7     13     1   0.15375 251793.120000
      8     15     1   0.15375 251793.120000
      9     10     1   0.15241 261918.400000
     10     18     1   0.12183 533627.360000
     10     52     1   0.13789 357815.680000
     11     12     1   0.15241 261918.400000
     12     17     1   0.12183 533627.360000
     12     78     1   0.13789 357815.680000
     13     14     1   0.15241 261918.400000
     14     20     1   0.12183 533627.360000
     14    104     1   0.13789 357815.680000
     15     16     1   0.15241 261918.400000
     16     19     1   0.12183 533627.360000
     16    130     1   0.13789 357815.680000
     43     44     1   0.15110 237065.440000
     43     45     1   0.15110 237065.440000
     43     50     1   0.15110 237065.440000
     44     46     1   0.15375 251793.120000
     45     48     1   0.15375 251793.120000
     46     47     1   0.15241 261918.400000
     47     53     1   0.12183 533627.360000
     47    156     1   0.13789 357815.680000
     48     49     1   0.15241 261918.400000
     49     54     1   0.12183 533627.360000
     49    182     1   0.13789 357815.680000
     50     51     1   0.15375 251793.120000
     51     52     1   0.14619 275056.160000
     69     70     1   0.15110 237065.440000
     69     71     1   0.15110 237065.440000
     69     76     1   0.15110 237065.440000
     70     72     1   0.15375 251793.120000
     71     74     1   0.15375 251793.120000
     72     73     1   0.15241 261918.400000
     73     79     1   0.12183 533627.360000
     73    208     1   0.13789 357815.680000
     74     75     1   0.15241 261918.400000
     75     80     1   0.12183 533627.360000
     75    234     1   0.13789 357815.680000
     76     77     1   0.15375 251793.120000
     77     78     1   0.14619 275056.160000
     95     96     1   0.15110 237065.440000
     95     97     1   0.15110 237065.440000
     95    102     1   0.15110 237065.440000
     96     98     1   0.15375 251793.120000
     97    100     1   0.15375 251793.120000
     98     99     1   0.15241 261918.400000
     99    105     1   0.12183 533627.360000
     99    260     1   0.13789 357815.680000
    100    101     1   0.15241 261918.400000
    101    106     1   0.12183 533627.360000
    101    286     1   0.13789 357815.680000
    102    103     1   0.15375 251793.120000
    103    104     1   0.14619 275056.160000
    121    122     1   0.15110 237065.440000
    121    123     1   0.15110 237065.440000
    121    128     1   0.15110 237065.440000
    122    124     1   0.15375 251793.120000
    123    126     1   0.15375 251793.120000
    124    125     1   0.15241 261918.400000
    125    131     1   0.12183 533627.360000
    125    312     1   0.13789 357815.680000
    126    127     1   0.15241 261918.400000
    127    132     1   0.12183 533627.360000
    127    338     1   0.13789 357815.680000
    128    129     1   0.15375 251793.120000
    129    130     1   0.14619 275056.160000
    147    148     1   0.15110 237065.440000
    147    149     1   0.15110 237065.440000
    147    154     1   0.15110 237065.440000
    148    150     1   0.15375 251793.120000
    149    152     1   0.15375 251793.120000
    150    151     1   0.15241 261918.400000
    151    157     1   0.12183 533627.360000
    151    364     1   0.13789 357815.680000
    152    153     1   0.15241 261918.400000
    153    158     1   0.12183 533627.360000
    153    390     1   0.13789 357815.680000
    154    155     1   0.15375 251793.120000
    155    156     1   0.14619 275056.160000
    173    174     1   0.15110 237065.440000
    173    175     1   0.15110 237065.440000
    173    180     1   0.15110 237065.440000
    174    176     1   0.15375 251793.120000
    175    178     1   0.15375 251793.120000
    176    177     1   0.15241 261918.400000
    177    183     1   0.12183 533627.360000
    177    416     1   0.13789 357815.680000
    178    179     1   0.15241 261918.400000
    179    184     1   0.12183 533627.360000
    179    442     1   0.13789 357815.680000
    180    181     1   0.15375 251793.120000
    181    182     1   0.14619 275056.160000
    199    200     1   0.15110 237065.440000
    199    201     1   0.15110 237065.440000
    199    206     1   0.15110 237065.440000
    200    202     1   0.15375 251793.120000
    201    204     1   0.15375 251793.120000
    202    203     1   0.15241 261918.400000
    203    209     1   0.12183 533627.360000
    203    468     1   0.13789 357815.680000
    204    205     1   0.15241 261918.400000
    205    210     1   0.12183 533627.360000
    205    494     1   0.13789 357815.680000
    206    207     1   0.15375 251793.120000
    207    208     1   0.14619 275056.160000
    225    226     1   0.15110 237065.440000
    225    227     1   0.15110 237065.440000
    225    232     1   0.15110 237065.440000
    226    228     1   0.15375 251793.120000
    227    230     1   0.15375 251793.120000
    228    229     1   0.15241 261918.400000
    229    235     1   0.12183 533627.360000
    229    520     1   0.13789 357815.680000
    230    231     1   0.15241 261918.400000
    231    236     1   0.12183 533627.360000
    231    546     1   0.13789 357815.680000
    232    233     1   0.15375 251793.120000
    233    234     1   0.14619 275056.160000
    251    252     1   0.15110 237065.440000
    251    253     1   0.15110 237065.440000
    251    258     1   0.15110 237065.440000
    252    254     1   0.15375 251793.120000
    253    256     1   0.15375 251793.120000
    254    255     1   0.15241 261918.400000
    255    261     1   0.12183 533627.360000
    255    572     1   0.13789 357815.680000
    256    257     1   0.15241 261918.400000
    257    262     1   0.12183 533627.360000
    257    598     1   0.13789 357815.680000
    258    259     1   0.15375 251793.120000
    259    260     1   0.14619 275056.160000
    277    278     1   0.15110 237065.440000
    277    279     1   0.15110 237065.440000
    277    284     1   0.15110 237065.440000
    278    280     1   0.15375 251793.120000
    279    282     1   0.15375 251793.120000
    280    281     1   0.15241 261918.400000
    281    287     1   0.12183 533627.360000
    281    624     1   0.13789 357815.680000
    282    283     1   0.15241 261918.400000
    283    288     1   0.12183 533627.360000
    283    650     1   0.13789 357815.680000
    284    285     1   0.15375 251793.120000
    285    286     1   0.14619 275056.160000
    303    304     1   0.15110 237065.440000
    303    305     1   0.15110 237065.440000
    303    310     1   0.15110 237065.440000
    304    306     1   0.15375 251793.120000
    305    308     1   0.15375 251793.120000
    306    307     1   0.15241 261918.400000
    307    313     1   0.12183 533627.360000
    307    676     1   0.13789 357815.680000
    308    309     1   0.15241 261918.400000
    309    314     1   0.12183 533627.360000
    309    702     1   0.13789 357815.680000
    310    311     1   0.15375 251793.120000
    311    312     1   0.14619 275056.160000
    329    330     1   0.15110 237065.440000
    329    331     1   0.15110 237065.440000
    329    336     1   0.15110 237065.440000
    330    332     1   0.15375 251793.120000
    331    334     1   0.15375 251793.120000
    332    333     1   0.15241 261918.400000
    333    339     1   0.12183 533627.360000
    333    728     1   0.13789 357815.680000
    334    335     1   0.15241 261918.400000
    335    340     1   0.12183 533627.360000
    335    754     1   0.13789 357815.680000
    336    337     1   0.15375 251793.120000
    337    338     1   0.14619 275056.160000
    355    356     1   0.15110 237065.440000
    355    357     1   0.15110 237065.440000
    355    362     1   0.15110 237065.440000
    356    358     1   0.15375 251793.120000
    357    360     1   0.15375 251793.120000
    358    359     1   0.15241 261918.400000
    359    771     1   0.13789 357815.680000
    359    365     1   0.12183 533627.360000
    360    361     1   0.15241 261918.400000
    361    366     1   0.12183 533627.360000
    361    783     1   0.13789 357815.680000
    362    363     1   0.15375 251793.120000
    363    364     1   0.14619 275056.160000
    381    382     1   0.15110 237065.440000
    381    383     1   0.15110 237065.440000
    381    388     1   0.15110 237065.440000
    382    384     1   0.15375 251793.120000
    383    386     1   0.15375 251793.120000
    384    385     1   0.15241 261918.400000
    385    795     1   0.13789 357815.680000
    385    391     1   0.12183 533627.360000
    386    387     1   0.15241 261918.400000
    387    392     1   0.12183 533627.360000
    387    807     1   0.13789 357815.680000
    388    389     1   0.15375 251793.120000
    389    390     1   0.14619 275056.160000
    407    408     1   0.15110 237065.440000
    407    409     1   0.15110 237065.440000
    407    414     1   0.15110 237065.440000
    408    410     1   0.15375 251793.120000
    409    412     1   0.15375 251793.120000
    410    411     1   0.15241 261918.400000
    411    819     1   0.13789 357815.680000
    411    417     1   0.12183 533627.360000
    412    413     1   0.15241 261918.400000
    413    418     1   0.12183 533627.360000
    413    831     1   0.13789 357815.680000
    414    415     1   0.15375 251793.120000
    415    416     1   0.14619 275056.160000
    433    434     1   0.15110 237065.440000
    433    435     1   0.15110 237065.440000
    433    440     1   0.15110 237065.440000
    434    436     1   0.15375 251793.120000
    435    438     1   0.15375 251793.120000
    436    437     1   0.15241 261918.400000
    437    843     1   0.13789 357815.680000
    437    443     1   0.12183 533627.360000
    438    439     1   0.15241 261918.400000
    439    444     1   0.12183 533627.360000
    439    855     1   0.13789 357815.680000
    440    441     1   0.15375 251793.120000
    441    442     1   0.14619 275056.160000
    459    460     1   0.15110 237065.440000
    459    461     1   0.15110 237065.440000
    459    466     1   0.15110 237065.440000
    460    462     1   0.15375 251793.120000
    461    464     1   0.15375 251793.120000
    462    463     1   0.15241 261918.400000
    463    867     1   0.13789 357815.680000
    463    469     1   0.12183 533627.360000
    464    465     1   0.15241 261918.400000
    465    470     1   0.12183 533627.360000
    465    879     1   0.13789 357815.680000
    466    467     1   0.15375 251793.120000
    467    468     1   0.14619 275056.160000
    485    486     1   0.15110 237065.440000
    485    487     1   0.15110 237065.440000
    485    492     1   0.15110 237065.440000
    486    488     1   0.15375 251793.120000
    487    490     1   0.15375 251793.120000
    488    489     1   0.15241 261918.400000
    489    891     1   0.13789 357815.680000
    489    495     1   0.12183 533627.360000
    490    491     1   0.15241 261918.400000
    491    496     1   0.12183 533627.360000
    491    903     1   0.13789 357815.680000
    492    493     1   0.15375 251793.120000
    493    494     1   0.14619 275056.160000
    511    512     1   0.15110 237065.440000
    511    513     1   0.15110 237065.440000
    511    518     1   0.15110 237065.440000
    512    514     1   0.15375 251793.120000
    513    516     1   0.15375 251793.120000
    514    515     1   0.15241 261918.400000
    515    915     1   0.13789 357815.680000
    515    521     1   0.12183 533627.360000
    516    517     1   0.15241 261918.400000
    517    522     1   0.12183 533627.360000
    517    927     1   0.13789 357815.680000
    518    519     1   0.15375 251793.120000
    519    520     1   0.14619 275056.160000
    537    538     1   0.15110 237065.440000
    537    539     1   0.15110 237065.440000
    537    544     1   0.15110 237065.440000
    538    540     1   0.15375 251793.120000
    539    542     1   0.15375 251793.120000
    540    541     1   0.15241 261918.400000
    541    939     1   0.13789 357815.680000
    541    547     1   0.12183 533627.360000
    542    543     1   0.15241 261918.400000
    543    548     1   0.12183 533627.360000
    543    951     1   0.13789 357815.680000
    544    545     1   0.15375 251793.120000
    545    546     1   0.14619 275056.160000
    563    564     1   0.15110 237065.440000
    563    565     1   0.15110 237065.440000
    563    570     1   0.15110 237065.440000
    564    566     1   0.15375 251793.120000
    565    568     1   0.15375 251793.120000
    566    567     1   0.15241 261918.400000
    567    963     1   0.13789 357815.680000
    567    573     1   0.12183 533627.360000
    568    569     1   0.15241 261918.400000
    569    574     1   0.12183 533627.360000
    569    975     1   0.13789 357815.680000
    570    571     1   0.15375 251793.120000
    571    572     1   0.14619 275056.160000
    589    590     1   0.15110 237065.440000
    589    591     1   0.15110 237065.440000
    589    596     1   0.15110 237065.440000
    590    592     1   0.15375 251793.120000
    591    594     1   0.15375 251793.120000
    592    593     1   0.15241 261918.400000
    593    987     1   0.13789 357815.680000
    593    599     1   0.12183 533627.360000
    594    595     1   0.15241 261918.400000
    595    600     1   0.12183 533627.360000
    595    999     1   0.13789 357815.680000
    596    597     1   0.15375 251793.120000
    597    598     1   0.14619 275056.160000
    615    616     1   0.15110 237065.440000
    615    617     1   0.15110 237065.440000
    615    622     1   0.15110 237065.440000
    616    618     1   0.15375 251793.120000
    617    620     1   0.15375 251793.120000
    618    619     1   0.15241 261918.400000
    619   1011     1   0.13789 357815.680000
    619    625     1   0.12183 533627.360000
    620    621     1   0.15241 261918.400000
    621    626     1   0.12183 533627.360000
    621   1023     1   0.13789 357815.680000
    622    623     1   0.15375 251793.120000
    623    624     1   0.14619 275056.160000
    641    642     1   0.15110 237065.440000
    641    643     1   0.15110 237065.440000
    641    648     1   0.15110 237065.440000
    642    644     1   0.15375 251793.120000
    643    646     1   0.15375 251793.120000
    644    645     1   0.15241 261918.400000
    645   1035     1   0.13789 357815.680000
    645    651     1   0.12183 533627.360000
    646    647     1   0.15241 261918.400000
    647    652     1   0.12183 533627.360000
    647   1047     1   0.13789 357815.680000
    648    649     1   0.15375 251793.120000
    649    650     1   0.14619 275056.160000
    667    668     1   0.15110 237065.440000
    667    669     1   0.15110 237065.440000
    667    674     1   0.15110 237065.440000
    668    670     1   0.15375 251793.120000
    669    672     1   0.15375 251793.120000
    670    671     1   0.15241 261918.400000
    671   1059     1   0.13789 357815.680000
    671    677     1   0.12183 533627.360000
    672    673     1   0.15241 261918.400000
    673    678     1   0.12183 533627.360000
    673   1071     1   0.13789 357815.680000
    674    675     1   0.15375 251793.120000
    675    676     1   0.14619 275056.160000
    693    694     1   0.15110 237065.440000
    693    695     1   0.15110 237065.440000
    693    700     1   0.15110 237065.440000
    694    696     1   0.15375 251793.120000
    695    698     1   0.15375 251793.120000
    696    697     1   0.15241 261918.400000
    697   1083     1   0.13789 357815.680000
    697    703     1   0.12183 533627.360000
    698    699     1   0.15241 261918.400000
    699    704     1   0.12183 533627.360000
    699   1095     1   0.13789 357815.680000
    700    701     1   0.15375 251793.120000
    701    702     1   0.14619 275056.160000
    719    720     1   0.15110 237065.440000
    719    721     1   0.15110 237065.440000
    719    726     1   0.15110 237065.440000
    720    722     1   0.15375 251793.120000
    721    724     1   0.15375 251793.120000
    722    723     1   0.15241 261918.400000
    723   1107     1   0.13789 357815.680000
    723    729     1   0.12183 533627.360000
    724    725     1   0.15241 261918.400000
    725    730     1   0.12183 533627.360000
    725   1119     1   0.13789 357815.680000
    726    727     1   0.15375 251793.120000
    727    728     1   0.14619 275056.160000
    745    746     1   0.15110 237065.440000
    745    747     1   0.15110 237065.440000
    745    752     1   0.15110 237065.440000
    746    748     1   0.15375 251793.120000
    747    750     1   0.15375 251793.120000
    748    749     1   0.15241 261918.400000
    749   1131     1   0.13789 357815.680000
    749    755     1   0.12183 533627.360000
    750    751     1   0.15241 261918.400000
    751   1143     1   0.13789 357815.680000
    751    756     1   0.12183 533627.360000
    752    753     1   0.15375 251793.120000
    753    754     1   0.14619 275056.160000
    771    773     1   0.14619 275056.160000
    773    774     1   0.15375 251793.120000
    774    779     1   0.15110 237065.440000
    783    785     1   0.14619 275056.160000
    785    786     1   0.15375 251793.120000
    786    791     1   0.15110 237065.440000
    795    797     1   0.14619 275056.160000
    797    798     1   0.15375 251793.120000
    798    803     1   0.15110 237065.440000
    807    809     1   0.14619 275056.160000
    809    810     1   0.15375 251793.120000
    810    815     1   0.15110 237065.440000
    819    821     1   0.14619 275056.160000
    821    822     1   0.15375 251793.120000
    822    827     1   0.15110 237065.440000
    831    833     1   0.14619 275056.160000
    833    834     1   0.15375 251793.120000
    834    839     1   0.15110 237065.440000
    843    845     1   0.14619 275056.160000
    845    846     1   0.15375 251793.120000
    846    851     1   0.15110 237065.440000
    855    857     1   0.14619 275056.160000
    857    858     1   0.15375 251793.120000
    858    863     1   0.15110 237065.440000
    867    869     1   0.14619 275056.160000
    869    870     1   0.15375 251793.120000
    870    875     1   0.15110 237065.440000
    879    881     1   0.14619 275056.160000
    881    882     1   0.15375 251793.120000
    882    887     1   0.15110 237065.440000
    891    893     1   0.14619 275056.160000
    893    894     1   0.15375 251793.120000
    894    899     1   0.15110 237065.440000
    903    905     1   0.14619 275056.160000
    905    906     1   0.15375 251793.120000
    906    911     1   0.15110 237065.440000
    915    917     1   0.14619 275056.160000
    917    918     1   0.15375 251793.120000
    918    923     1   0.15110 237065.440000
    927    929     1   0.14619 275056.160000
    929    930     1   0.15375 251793.120000
    930    935     1   0.15110 237065.440000
    939    941     1   0.14619 275056.160000
    941    942     1   0.15375 251793.120000
    942    947     1   0.15110 237065.440000
    951    953     1   0.14619 275056.160000
    953    954     1   0.15375 251793.120000
    954    959     1   0.15110 237065.440000
    963    965     1   0.14619 275056.160000
    965    966     1   0.15375 251793.120000
    966    971     1   0.15110 237065.440000
    975    977     1   0.14619 275056.160000
    977    978     1   0.15375 251793.120000
    978    983     1   0.15110 237065.440000
    987    989     1   0.14619 275056.160000
    989    990     1   0.15375 251793.120000
    990    995     1   0.15110 237065.440000
    999   1001     1   0.14619 275056.160000
   1001   1002     1   0.15375 251793.120000
   1002   1007     1   0.15110 237065.440000
   1011   1013     1   0.14619 275056.160000
   1013   1014     1   0.15375 251793.120000
   1014   1019     1   0.15110 237065.440000
   1023   1025     1   0.14619 275056.160000
   1025   1026     1   0.15375 251793.120000
   1026   1031     1   0.15110 237065.440000
   1035   1037     1   0.14619 275056.160000
   1037   1038     1   0.15375 251793.120000
   1038   1043     1   0.15110 237065.440000
   1047   1049     1   0.14619 275056.160000
   1049   1050     1   0.15375 251793.120000
   1050   1055     1   0.15110 237065.440000
   1059   1061     1   0.14619 275056.160000
   1061   1062     1   0.15375 251793.120000
   1062   1067     1   0.15110 237065.440000
   1071   1073     1   0.14619 275056.160000
   1073   1074     1   0.15375 251793.120000
   1074   1079     1   0.15110 237065.440000
   1083   1085     1   0.14619 275056.160000
   1085   1086     1   0.15375 251793.120000
   1086   1091     1   0.15110 237065.440000
   1095   1097     1   0.14619 275056.160000
   1097   1098     1   0.15375 251793.120000
   1098   1103     1   0.15110 237065.440000
   1107   1109     1   0.14619 275056.160000
   1109   1110     1   0.15375 251793.120000
   1110   1115     1   0.15110 237065.440000
   1119   1121     1   0.14619 275056.160000
   1121   1122     1   0.15375 251793.120000
   1122   1127     1   0.15110 237065.440000
   1131   1133     1   0.14619 275056.160000
   1133   1134     1   0.15375 251793.120000
   1134   1139     1   0.15110 237065.440000
   1143   1145     1   0.14619 275056.160000
   1145   1146     1   0.15375 251793.120000
   1146   1151     1   0.15110 237065.440000
      1     41     1   0.10304 312293.760000
      2     21     1   0.10910 283424.160000
      2     22     1   0.10910 283424.160000
      3     23     1   0.10910 283424.160000
      3     24     1   0.10910 283424.160000
      4     42     1   0.10304 312293.760000
      5     25     1   0.10910 283424.160000
      5     26     1   0.10910 283424.160000
      6     27     1   0.10910 283424.160000
      6     28     1   0.10910 283424.160000
      7     29     1   0.10910 283424.160000
      7     30     1   0.10910 283424.160000
      8     31     1   0.10910 283424.160000
      8     32     1   0.10910 283424.160000
      9     33     1   0.10969 276646.080000
      9     34     1   0.10969 276646.080000
     11     35     1   0.10969 276646.080000
     11     36     1   0.10969 276646.080000
     13     37     1   0.10969 276646.080000
     13     38     1   0.10969 276646.080000
     15     39     1   0.10969 276646.080000
     15     40     1   0.10969 276646.080000
     43     68     1   0.10304 312293.760000
     44     55     1   0.10910 283424.160000
     44     56     1   0.10910 283424.160000
     45     57     1   0.10910 283424.160000
     45     58     1   0.10910 283424.160000
     46     59     1   0.10969 276646.080000
     46     60     1   0.10969 276646.080000
     48     61     1   0.10969 276646.080000
     48     62     1   0.10969 276646.080000
     50     63     1   0.10910 283424.160000
     50     64     1   0.10910 283424.160000
     51     65     1   0.10969 276646.080000
     51     66     1   0.10969 276646.080000
     52     67     1   0.10129 337397.760000
     69     94     1   0.10304 312293.760000
     70     81     1   0.10910 283424.160000
     70     82     1   0.10910 283424.160000
     71     83     1   0.10910 283424.160000
     71     84     1   0.10910 283424.160000
     72     85     1   0.10969 276646.080000
     72     86     1   0.10969 276646.080000
     74     87     1   0.10969 276646.080000
     74     88     1   0.10969 276646.080000
     76     89     1   0.10910 283424.160000
     76     90     1   0.10910 283424.160000
     77     91     1   0.10969 276646.080000
     77     92     1   0.10969 276646.080000
     78     93     1   0.10129 337397.760000
     95    120     1   0.10304 312293.760000
     96    107     1   0.10910 283424.160000
     96    108     1   0.10910 283424.160000
     97    109     1   0.10910 283424.160000
     97    110     1   0.10910 283424.160000
     98    111     1   0.10969 276646.080000
     98    112     1   0.10969 276646.080000
    100    113     1   0.10969 276646.080000
    100    114     1   0.10969 276646.080000
    102    115     1   0.10910 283424.160000
    102    116     1   0.10910 283424.160000
    103    117     1   0.10969 276646.080000
    103    118     1   0.10969 276646.080000
    104    119     1   0.10129 337397.760000
    121    146     1   0.10304 312293.760000
    122    133     1   0.10910 283424.160000
    122    134     1   0.10910 283424.160000
    123    135     1   0.10910 283424.160000
    123    136     1   0.10910 283424.160000
    124    137     1   0.10969 276646.080000
    124    138     1   0.10969 276646.080000
    126    139     1   0.10969 276646.080000
    126    140     1   0.10969 276646.080000
    128    141     1   0.10910 283424.160000
    128    142     1   0.10910 283424.160000
    129    143     1   0.10969 276646.080000
    129    144     1   0.10969 276646.080000
    130    145     1   0.10129 337397.760000
    147    172     1   0.10304 312293.760000
    148    159     1   0.10910 283424.160000
    148    160     1   0.10910 283424.160000
    149    161     1   0.10910 283424.160000
    149    162     1   0.10910 283424.160000
    150    163     1   0.10969 276646.080000
    150    164     1   0.10969 276646.080000
    152    165     1   0.10969 276646.080000
    152    166     1   0.10969 276646.080000
    154    167     1   0.10910 283424.160000
    154    168     1   0.10910 283424.160000
    155    169     1   0.10969 276646.080000
    155    170     1   0.10969 276646.080000
    156    171     1   0.10129 337397.760000
    173    198     1   0.10304 312293.760000
    174    185     1   0.10910 283424.160000
    174    186     1   0.10910 283424.160000
    175    187     1   0.10910 283424.160000
    175    188     1   0.10910 283424.160000
    176    189     1   0.10969 276646.080000
    176    190     1   0.10969 276646.080000
    178    191     1   0.10969 276646.080000
    178    192     1   0.10969 276646.080000
    180    193     1   0.10910 283424.160000
    180    194     1   0.10910 283424.160000
    181    195     1   0.10969 276646.080000
    181    196     1   0.10969 276646.080000
    182    197     1   0.10129 337397.760000
    199    224     1   0.10304 312293.760000
    200    211     1   0.10910 283424.160000
    200    212     1   0.10910 283424.160000
    201    213     1   0.10910 283424.160000
    201    214     1   0.10910 283424.160000
    202    215     1   0.10969 276646.080000
    202    216     1   0.10969 276646.080000
    204    217     1   0.10969 276646.080000
    204    218     1   0.10969 276646.080000
    206    219     1   0.10910 283424.160000
    206    220     1   0.10910 283424.160000
    207    221     1   0.10969 276646.080000
    207    222     1   0.10969 276646.080000
    208    223     1   0.10129 337397.760000
    225    250     1   0.10304 312293.760000
    226    237     1   0.10910 283424.160000
    226    238     1   0.10910 283424.160000
    227    239     1   0.10910 283424.160000
    227    240     1   0.10910 283424.160000
    228    241     1   0.10969 276646.080000
    228    242     1   0.10969 276646.080000
    230    243     1   0.10969 276646.080000
    230    244     1   0.10969 276646.080000
    232    245     1   0.10910 283424.160000
    232    246     1   0.10910 283424.160000
    233    247     1   0.10969 276646.080000
    233    248     1   0.10969 276646.080000
    234    249     1   0.10129 337397.760000
    251    276     1   0.10304 312293.760000
    252    263     1   0.10910 283424.160000
    252    264     1   0.10910 283424.160000
    253    265     1   0.10910 283424.160000
    253    266     1   0.10910 283424.160000
    254    267     1   0.10969 276646.080000
    254    268     1   0.10969 276646.080000
    256    269     1   0.10969 276646.080000
    256    270     1   0.10969 276646.080000
    258    271     1   0.10910 283424.160000
    258    272     1   0.10910 283424.160000
    259    273     1   0.10969 276646.080000
    259    274     1   0.10969 276646.080000
    260    275     1   0.10129 337397.760000
    277    302     1   0.10304 312293.760000
    278    289     1   0.10910 283424.160000
    278    290     1   0.10910 283424.160000
    279    291     1   0.10910 283424.160000
    279    292     1   0.10910 283424.160000
    280    293     1   0.10969 276646.080000
    280    294     1   0.10969 276646.080000
    282    295     1   0.10969 276646.080000
    282    296     1   0.10969 276646.080000
    284    297     1   0.10910 283424.160000
    284    298     1   0.10910 283424.160000
    285    299     1   0.10969 276646.080000
    285    300     1   0.10969 276646.080000
    286    301     1   0.10129 337397.760000
    303    328     1   0.10304 312293.760000
    304    315     1   0.10910 283424.160000
    304    316     1   0.10910 283424.160000
    305    317     1   0.10910 283424.160000
    305    318     1   0.10910 283424.160000
    306    319     1   0.10969 276646.080000
    306    320     1   0.10969 276646.080000
    308    321     1   0.10969 276646.080000
    308    322     1   0.10969 276646.080000
    310    323     1   0.10910 283424.160000
    310    324     1   0.10910 283424.160000
    311    325     1   0.10969 276646.080000
    311    326     1   0.10969 276646.080000
    312    327     1   0.10129 337397.760000
    329    354     1   0.10304 312293.760000
    330    341     1   0.10910 283424.160000
    330    342     1   0.10910 283424.160000
    331    343     1   0.10910 283424.160000
    331    344     1   0.10910 283424.160000
    332    345     1   0.10969 276646.080000
    332    346     1   0.10969 276646.080000
    334    347     1   0.10969 276646.080000
    334    348     1   0.10969 276646.080000
    336    349     1   0.10910 283424.160000
    336    350     1   0.10910 283424.160000
    337    351     1   0.10969 276646.080000
    337    352     1   0.10969 276646.080000
    338    353     1   0.10129 337397.760000
    355    380     1   0.10304 312293.760000
    356    367     1   0.10910 283424.160000
    356    368     1   0.10910 283424.160000
    357    369     1   0.10910 283424.160000
    357    370     1   0.10910 283424.160000
    358    371     1   0.10969 276646.080000
    358    372     1   0.10969 276646.080000
    360    373     1   0.10969 276646.080000
    360    374     1   0.10969 276646.080000
    362    375     1   0.10910 283424.160000
    362    376     1   0.10910 283424.160000
    363    377     1   0.10969 276646.080000
    363    378     1   0.10969 276646.080000
    364    379     1   0.10129 337397.760000
    381    406     1   0.10304 312293.760000
    382    393     1   0.10910 283424.160000
    382    394     1   0.10910 283424.160000
    383    395     1   0.10910 283424.160000
    383    396     1   0.10910 283424.160000
    384    397     1   0.10969 276646.080000
    384    398     1   0.10969 276646.080000
    386    399     1   0.10969 276646.080000
    386    400     1   0.10969 276646.080000
    388    401     1   0.10910 283424.160000
    388    402     1   0.10910 283424.160000
    389    403     1   0.10969 276646.080000
    389    404     1   0.10969 276646.080000
    390    405     1   0.10129 337397.760000
    407    432     1   0.10304 312293.760000
    408    419     1   0.10910 283424.160000
    408    420     1   0.10910 283424.160000
    409    421     1   0.10910 283424.160000
    409    422     1   0.10910 283424.160000
    410    423     1   0.10969 276646.080000
    410    424     1   0.10969 276646.080000
    412    425     1   0.10969 276646.080000
    412    426     1   0.10969 276646.080000
    414    427     1   0.10910 283424.160000
    414    428     1   0.10910 283424.160000
    415    429     1   0.10969 276646.080000
    415    430     1   0.10969 276646.080000
    416    431     1   0.10129 337397.760000
    433    458     1   0.10304 312293.760000
    434    445     1   0.10910 283424.160000
    434    446     1   0.10910 283424.160000
    435    447     1   0.10910 283424.160000
    435    448     1   0.10910 283424.160000
    436    449     1   0.10969 276646.080000
    436    450     1   0.10969 276646.080000
    438    451     1   0.10969 276646.080000
    438    452     1   0.10969 276646.080000
    440    453     1   0.10910 283424.160000
    440    454     1   0.10910 283424.160000
    441    455     1   0.10969 276646.080000
    441    456     1   0.10969 276646.080000
    442    457     1   0.10129 337397.760000
    459    484     1   0.10304 312293.760000
    460    471     1   0.10910 283424.160000
    460    472     1   0.10910 283424.160000
    461    473     1   0.10910 283424.160000
    461    474     1   0.10910 283424.160000
    462    475     1   0.10969 276646.080000
    462    476     1   0.10969 276646.080000
    464    477     1   0.10969 276646.080000
    464    478     1   0.10969 276646.080000
    466    479     1   0.10910 283424.160000
    466    480     1   0.10910 283424.160000
    467    481     1   0.10969 276646.080000
    467    482     1   0.10969 276646.080000
    468    483     1   0.10129 337397.760000
    485    510     1   0.10304 312293.760000
    486    497     1   0.10910 283424.160000
    486    498     1   0.10910 283424.160000
    487    499     1   0.10910 283424.160000
    487    500     1   0.10910 283424.160000
    488    501     1   0.10969 276646.080000
    488    502     1   0.10969 276646.080000
    490    503     1   0.10969 276646.080000
    490    504     1   0.10969 276646.080000
    492    505     1   0.10910 283424.160000
    492    506     1   0.10910 283424.160000
    493    507     1   0.10969 276646.080000
    493    508     1   0.10969 276646.080000
    494    509     1   0.10129 337397.760000
    511    536     1   0.10304 312293.760000
    512    523     1   0.10910 283424.160000
    512    524     1   0.10910 283424.160000
    513    525     1   0.10910 283424.160000
    513    526     1   0.10910 283424.160000
    514    527     1   0.10969 276646.080000
    514    528     1   0.10969 276646.080000
    516    529     1   0.10969 276646.080000
    516    530     1   0.10969 276646.080000
    518    531     1   0.10910 283424.160000
    518    532     1   0.10910 283424.160000
    519    533     1   0.10969 276646.080000
    519    534     1   0.10969 276646.080000
    520    535     1   0.10129 337397.760000
    537    562     1   0.10304 312293.760000
    538    549     1   0.10910 283424.160000
    538    550     1   0.10910 283424.160000
    539    551     1   0.10910 283424.160000
    539    552     1   0.10910 283424.160000
    540    553     1   0.10969 276646.080000
    540    554     1   0.10969 276646.080000
    542    555     1   0.10969 276646.080000
    542    556     1   0.10969 276646.080000
    544    557     1   0.10910 283424.160000
    544    558     1   0.10910 283424.160000
    545    559     1   0.10969 276646.080000
    545    560     1   0.10969 276646.080000
    546    561     1   0.10129 337397.760000
    563    588     1   0.10304 312293.760000
    564    575     1   0.10910 283424.160000
    564    576     1   0.10910 283424.160000
    565    577     1   0.10910 283424.160000
    565    578     1   0.10910 283424.160000
    566    579     1   0.10969 276646.080000
    566    580     1   0.10969 276646.080000
    568    581     1   0.10969 276646.080000
    568    582     1   0.10969 276646.080000
    570    583     1   0.10910 283424.160000
    570    584     1   0.10910 283424.160000
    571    585     1   0.10969 276646.080000
    571    586     1   0.10969 276646.080000
    572    587     1   0.10129 337397.760000
    589    614     1   0.10304 312293.760000
    590    601     1   0.10910 283424.160000
    590    602     1   0.10910 283424.160000
    591    603     1   0.10910 283424.160000
    591    604     1   0.10910 283424.160000
    592    605     1   0.10969 276646.080000
    592    606     1   0.10969 276646.080000
    594    607     1   0.10969 276646.080000
    594    608     1   0.10969 276646.080000
    596    609     1   0.10910 283424.160000
    596    610     1   0.10910 283424.160000
    597    611     1   0.10969 276646.080000
    597    612     1   0.10969 276646.080000
    598    613     1   0.10129 337397.760000
    615    640     1   0.10304 312293.760000
    616    627     1   0.10910 283424.160000
    616    628     1   0.10910 283424.160000
    617    629     1   0.10910 283424.160000
    617    630     1   0.10910 283424.160000
    618    631     1   0.10969 276646.080000
    618    632     1   0.10969 276646.080000
    620    633     1   0.10969 276646.080000
    620    634     1   0.10969 276646.080000
    622    635     1   0.10910 283424.160000
    622    636     1   0.10910 283424.160000
    623    637     1   0.10969 276646.080000
    623    638     1   0.10969 276646.080000
    624    639     1   0.10129 337397.760000
    641    666     1   0.10304 312293.760000
    642    653     1   0.10910 283424.160000
    642    654     1   0.10910 283424.160000
    643    655     1   0.10910 283424.160000
    643    656     1   0.10910 283424.160000
    644    657     1   0.10969 276646.080000
    644    658     1   0.10969 276646.080000
    646    659     1   0.10969 276646.080000
    646    660     1   0.10969 276646.080000
    648    661     1   0.10910 283424.160000
    648    662     1   0.10910 283424.160000
    649    663     1   0.10969 276646.080000
    649    664     1   0.10969 276646.080000
    650    665     1   0.10129 337397.760000
    667    692     1   0.10304 312293.760000
    668    679     1   0.10910 283424.160000
    668    680     1   0.10910 283424.160000
    669    681     1   0.10910 283424.160000
    669    682     1   0.10910 283424.160000
    670    683     1   0.10969 276646.080000
    670    684     1   0.10969 276646.080000
    672    685     1   0.10969 276646.080000
    672    686     1   0.10969 276646.080000
    674    687     1   0.10910 283424.160000
    674    688     1   0.10910 283424.160000
    675    689     1   0.10969 276646.080000
    675    690     1   0.10969 276646.080000
    676    691     1   0.10129 337397.760000
    693    718     1   0.10304 312293.760000
    694    705     1   0.10910 283424.160000
    694    706     1   0.10910 283424.160000
    695    707     1   0.10910 283424.160000
    695    708     1   0.10910 283424.160000
    696    709     1   0.10969 276646.080000
    696    710     1   0.10969 276646.080000
    698    711     1   0.10969 276646.080000
    698    712     1   0.10969 276646.080000
    700    713     1   0.10910 283424.160000
    700    714     1   0.10910 283424.160000
    701    715     1   0.10969 276646.080000
    701    716     1   0.10969 276646.080000
    702    717     1   0.10129 337397.760000
    719    744     1   0.10304 312293.760000
    720    731     1   0.10910 283424.160000
    720    732     1   0.10910 283424.160000
    721    733     1   0.10910 283424.160000
    721    734     1   0.10910 283424.160000
    722    735     1   0.10969 276646.080000
    722    736     1   0.10969 276646.080000
    724    737     1   0.10969 276646.080000
    724    738     1   0.10969 276646.080000
    726    739     1   0.10910 283424.160000
    726    740     1   0.10910 283424.160000
    727    741     1   0.10969 276646.080000
    727    742     1   0.10969 276646.080000
    728    743     1   0.10129 337397.760000
    745    770     1   0.10304 312293.760000
    746    757     1   0.10910 283424.160000
    746    758     1   0.10910 283424.160000
    747    759     1   0.10910 283424.160000
    747    760     1   0.10910 283424.160000
    748    761     1   0.10969 276646.080000
    748    762     1   0.10969 276646.080000
    750    763     1   0.10969 276646.080000
    750    764     1   0.10969 276646.080000
    752    765     1   0.10910 283424.160000
    752    766     1   0.10910 283424.160000
    753    767     1   0.10969 276646.080000
    753    768     1   0.10969 276646.080000
    754    769     1   0.10129 337397.760000
    771    772     1   0.10129 337397.760000
    773    775     1   0.10969 276646.080000
    773    776     1   0.10969 276646.080000
    774    777     1   0.10910 283424.160000
    774    778     1   0.10910 283424.160000
    779    780     1   0.10304 312293.760000
    779    781     1   0.10304 312293.760000
    779    782     1   0.10304 312293.760000
    783    784     1   0.10129 337397.760000
    785    787     1   0.10969 276646.080000
    785    788     1   0.10969 276646.080000
    786    789     1   0.10910 283424.160000
    786    790     1   0.10910 283424.160000
    791    792     1   0.10304 312293.760000
    791    793     1   0.10304 312293.760000
    791    794     1   0.10304 312293.760000
    795    796     1   0.10129 337397.760000
    797    799     1   0.10969 276646.080000
    797    800     1   0.10969 276646.080000
    798    801     1   0.10910 283424.160000
    798    802     1   0.10910 283424.160000
    803    804     1   0.10304 312293.760000
    803    805     1   0.10304 312293.760000
    803    806     1   0.10304 312293.760000
    807    808     1   0.10129 337397.760000
    809    811     1   0.10969 276646.080000
    809    812     1   0.10969 276646.080000
    810    813     1   0.10910 283424.160000
    810    814     1   0.10910 283424.160000
    815    816     1   0.10304 312293.760000
    815    817     1   0.10304 312293.760000
    815    818     1   0.10304 312293.760000
    819    820     1   0.10129 337397.760000
    821    823     1   0.10969 276646.080000
    821    824     1   0.10969 276646.080000
    822    825     1   0.10910 283424.160000
    822    826     1   0.10910 283424.160000
    827    828     1   0.10304 312293.760000
    827    829     1   0.10304 312293.760000
    827    830     1   0.10304 312293.760000
    831    832     1   0.10129 337397.760000
    833    835     1   0.10969 276646.080000
    833    836     1   0.10969 276646.080000
    834    837     1   0.10910 283424.160000
    834    838     1   0.10910 283424.160000
    839    840     1   0.10304 312293.760000
    839    841     1   0.10304 312293.760000
    839    842     1   0.10304 312293.760000
    843    844     1   0.10129 337397.760000
    845    847     1   0.10969 276646.080000
    845    848     1   0.10969 276646.080000
    846    849     1   0.10910 283424.160000
    846    850     1   0.10910 283424.160000
    851    852     1   0.10304 312293.760000
    851    853     1   0.10304 312293.760000
    851    854     1   0.10304 312293.760000
    855    856     1   0.10129 337397.760000
    857    859     1   0.10969 276646.080000
    857    860     1   0.10969 276646.080000
    858    861     1   0.10910 283424.160000
    858    862     1   0.10910 283424.160000
    863    864     1   0.10304 312293.760000
    863    865     1   0.10304 312293.760000
    863    866     1   0.10304 312293.760000
    867    868     1   0.10129 337397.760000
    869    871     1   0.10969 276646.080000
    869    872     1   0.10969 276646.080000
    870    873     1   0.10910 283424.160000
    870    874     1   0.10910 283424.160000
    875    876     1   0.10304 312293.760000
    875    877     1   0.10304 312293.760000
    875    878     1   0.10304 312293.760000
    879    880     1   0.10129 337397.760000
    881    883     1   0.10969 276646.080000
    881    884     1   0.10969 276646.080000
    882    885     1   0.10910 283424.160000
    882    886     1   0.10910 283424.160000
    887    888     1   0.10304 312293.760000
    887    889     1   0.10304 312293.760000
    887    890     1   0.10304 312293.760000
    891    892     1   0.10129 337397.760000
    893    895     1   0.10969 276646.080000
    893    896     1   0.10969 276646.080000
    894    897     1   0.10910 283424.160000
    894    898     1   0.10910 283424.160000
    899    900     1   0.10304 312293.760000
    899    901     1   0.10304 312293.760000
    899    902     1   0.10304 312293.760000
    903    904     1   0.10129 337397.760000
    905    907     1   0.10969 276646.080000
    905    908     1   0.10969 276646.080000
    906    909     1   0.10910 283424.160000
    906    910     1   0.10910 283424.160000
    911    912     1   0.10304 312293.760000
    911    913     1   0.10304 312293.760000
    911    914     1   0.10304 312293.760000
    915    916     1   0.10129 337397.760000
    917    919     1   0.10969 276646.080000
    917    920     1   0.10969 276646.080000
    918    921     1   0.10910 283424.160000
    918    922     1   0.10910 283424.160000
    923    924     1   0.10304 312293.760000
    923    925     1   0.10304 312293.760000
    923    926     1   0.10304 312293.760000
    927    928     1   0.10129 337397.760000
    929    931     1   0.10969 276646.080000
    929    932     1   0.10969 276646.080000
    930    933     1   0.10910 283424.160000
    930    934     1   0.10910 283424.160000
    935    936     1   0.10304 312293.760000
    935    937     1   0.10304 312293.760000
    935    938     1   0.10304 312293.760000
    939    940     1   0.10129 337397.760000
    941    943     1   0.10969 276646.080000
    941    944     1   0.10969 276646.080000
    942    945     1   0.10910 283424.160000
    942    946     1   0.10910 283424.160000
    947    948     1   0.10304 312293.760000
    947    949     1   0.10304 312293.760000
    947    950     1   0.10304 312293.760000
    951    952     1   0.10129 337397.760000
    953    955     1   0.10969 276646.080000
    953    956     1   0.10969 276646.080000
    954    957     1   0.10910 283424.160000
    954    958     1   0.10910 283424.160000
    959    960     1   0.10304 312293.760000
    959    961     1   0.10304 312293.760000
    959    962     1   0.10304 312293.760000
    963    964     1   0.10129 337397.760000
    965    967     1   0.10969 276646.080000
    965    968     1   0.10969 276646.080000
    966    969     1   0.10910 283424.160000
    966    970     1   0.10910 283424.160000
    971    972     1   0.10304 312293.760000
    971    973     1   0.10304 312293.760000
    971    974     1   0.10304 312293.760000
    975    976     1   0.10129 337397.760000
    977    979     1   0.10969 276646.080000
    977    980     1   0.10969 276646.080000
    978    981     1   0.10910 283424.160000
    978    982     1   0.10910 283424.160000
    983    984     1   0.10304 312293.760000
    983    985     1   0.10304 312293.760000
    983    986     1   0.10304 312293.760000
    987    988     1   0.10129 337397.760000
    989    991     1   0.10969 276646.080000
    989    992     1   0.10969 276646.080000
    990    993     1   0.10910 283424.160000
    990    994     1   0.10910 283424.160000
    995    996     1   0.10304 312293.760000
    995    997     1   0.10304 312293.760000
    995    998     1   0.10304 312293.760000
    999   1000     1   0.10129 337397.760000
   1001   1003     1   0.10969 276646.080000
   1001   1004     1   0.10969 276646.080000
   1002   1005     1   0.10910 283424.160000
   1002   1006     1   0.10910 283424.160000
   1007   1008     1   0.10304 312293.760000
   1007   1009     1   0.10304 312293.760000
   1007   1010     1   0.10304 312293.760000
   1011   1012     1   0.10129 337397.760000
   1013   1015     1   0.10969 276646.080000
   1013   1016     1   0.10969 276646.080000
   1014   1017     1   0.10910 283424.160000
   1014   1018     1   0.10910 283424.160000
   1019   1020     1   0.10304 312293.760000
   1019   1021     1   0.10304 312293.760000
   1019   1022     1   0.10304 312293.760000
   1023   1024     1   0.10129 337397.760000
   1025   1027     1   0.10969 276646.080000
   1025   1028     1   0.10969 276646.080000
   1026   1029     1   0.10910 283424.160000
   1026   1030     1   0.10910 283424.160000
   1031   1032     1   0.10304 312293.760000
   1031   1033     1   0.10304 312293.760000
   1031   1034     1   0.10304 312293.760000
   1035   1036     1   0.10129 337397.760000
   1037   1039     1   0.10969 276646.080000
   1037   1040     1   0.10969 276646.080000
   1038   1041     1   0.10910 283424.160000
   1038   1042     1   0.10910 283424.160000
   1043   1044     1   0.10304 312293.760000
   1043   1045     1   0.10304 312293.760000
   1043   1046     1   0.10304 312293.760000
   1047   1048     1   0.10129 337397.760000
   1049   1051     1   0.10969 276646.080000
   1049   1052     1   0.10969 276646.080000
   1050   1053     1   0.10910 283424.160000
   1050   1054     1   0.10910 283424.160000
   1055   1056     1   0.10304 312293.760000
   1055   1057     1   0.10304 312293.760000
   1055   1058     1   0.10304 312293.760000
   1059   1060     1   0.10129 337397.760000
   1061   1063     1   0.10969 276646.080000
   1061   1064     1   0.10969 276646.080000
   1062   1065     1   0.10910 283424.160000
   1062   1066     1   0.10910 283424.160000
   1067   1068     1   0.10304 312293.760000
   1067   1069     1   0.10304 312293.760000
   1067   1070     1   0.10304 312293.760000
   1071   1072     1   0.10129 337397.760000
   1073   1075     1   0.10969 276646.080000
   1073   1076     1   0.10969 276646.080000
   1074   1077     1   0.10910 283424.160000
   1074   1078     1   0.10910 283424.160000
   1079   1080     1   0.10304 312293.760000
   1079   1081     1   0.10304 312293.760000
   1079   1082     1   0.10304 312293.760000
   1083   1084     1   0.10129 337397.760000
   1085   1087     1   0.10969 276646.080000
   1085   1088     1   0.10969 276646.080000
   1086   1089     1   0.10910 283424.160000
   1086   1090     1   0.10910 283424.160000
   1091   1092     1   0.10304 312293.760000
   1091   1093     1   0.10304 312293.760000
   1091   1094     1   0.10304 312293.760000
   1095   1096     1   0.10129 337397.760000
   1097   1099     1   0.10969 276646.080000
   1097   1100     1   0.10969 276646.080000
   1098   1101     1   0.10910 283424.160000
   1098   1102     1   0.10910 283424.160000
   1103   1104     1   0.10304 312293.760000
   1103   1105     1   0.10304 312293.760000
   1103   1106     1   0.10304 312293.760000
   1107   1108     1   0.10129 337397.760000
   1109   1111     1   0.10969 276646.080000
   1109   1112     1   0.10969 276646.080000
   1110   1113     1   0.10910 283424.160000
   1110   1114     1   0.10910 283424.160000
   1115   1116     1   0.10304 312293.760000
   1115   1117     1   0.10304 312293.760000
   1115   1118     1   0.10304 312293.760000
   1119   1120     1   0.10129 337397.760000
   1121   1123     1   0.10969 276646.080000
   1121   1124     1   0.10969 276646.080000
   1122   1125     1   0.10910 283424.160000
   1122   1126     1   0.10910 283424.160000
   1127   1128     1   0.10304 312293.760000
   1127   1129     1   0.10304 312293.760000
   1127   1130     1   0.10304 312293.760000
   1131   1132     1   0.10129 337397.760000
   1133   1135     1   0.10969 276646.080000
   1133   1136     1   0.10969 276646.080000
   1134   1137     1   0.10910 283424.160000
   1134   1138     1   0.10910 283424.160000
   1139   1140     1   0.10304 312293.760000
   1139   1141     1   0.10304 312293.760000
   1139   1142     1   0.10304 312293.760000
   1143   1144     1   0.10129 337397.760000
   1145   1147     1   0.10969 276646.080000
   1145   1148     1   0.10969 276646.080000
   1146   1149     1   0.10910 283424.160000
   1146   1150     1   0.10910 283424.160000
   1151   1152     1   0.10304 312293.760000
   1151   1153     1   0.10304 312293.760000
   1151   1154     1   0.10304 312293.760000

[ pairs ]
;    ai     aj funct         c0         c1         c2         c3
      1      4     1
      1     14     1
      1     16     1
      2     13     1
      2     15     1
      2      5     1
      2      6     1
      7      3     1
      8      3     1
      3     11     1
      3      9     1
      4     12     1
      4     10     1
      5      9     1
      5     17     1
      5     78     1
      6     11     1
      6     18     1
      6     52     1
      7     15     1
      7     20     1
      7    104     1
      8     13     1
      8     19     1
      8    130     1
      9     51     1
     10     50     1
     11     77     1
     12     76     1
     13    103     1
     14    102     1
     15    129     1
     16    128     1
     17     77     1
     18     51     1
     19    129     1
     20    103     1
     43     47     1
     43     49     1
     43     52     1
     44     48     1
     44     51     1
     44     53     1
     44    156     1
     45     46     1
     45     51     1
     45     54     1
     45    182     1
     46     50     1
     46    155     1
     47    154     1
     48     50     1
     48    181     1
     49    180     1
     53    155     1
     54    181     1
     69     73     1
     69     75     1
     69     78     1
     70     74     1
     70     77     1
     70     79     1
     70    208     1
     71     72     1
     71     77     1
     71     80     1
     71    234     1
     72     76     1
     72    207     1
     73    206     1
     74     76     1
     74    233     1
     75    232     1
     79    207     1
     80    233     1
     95     99     1
     95    101     1
     95    104     1
     96    100     1
     96    103     1
     96    105     1
     96    260     1
     97     98     1
     97    103     1
     97    106     1
     97    286     1
     98    102     1
     98    259     1
     99    258     1
    100    102     1
    100    285     1
    101    284     1
    105    259     1
    106    285     1
    121    125     1
    121    127     1
    121    130     1
    122    126     1
    122    129     1
    122    131     1
    122    312     1
    123    124     1
    123    129     1
    123    132     1
    123    338     1
    124    128     1
    124    311     1
    125    310     1
    126    128     1
    126    337     1
    127    336     1
    131    311     1
    132    337     1
    147    151     1
    147    153     1
    147    156     1
    148    152     1
    148    155     1
    148    157     1
    148    364     1
    149    150     1
    149    155     1
    149    158     1
    149    390     1
    150    154     1
    150    363     1
    151    362     1
    152    154     1
    152    389     1
    153    388     1
    157    363     1
    158    389     1
    173    177     1
    173    179     1
    173    182     1
    174    178     1
    174    181     1
    174    183     1
    174    416     1
    175    176     1
    175    181     1
    175    184     1
    175    442     1
    176    180     1
    176    415     1
    177    414     1
    178    180     1
    178    441     1
    179    440     1
    183    415     1
    184    441     1
    199    203     1
    199    205     1
    199    208     1
    200    204     1
    200    207     1
    200    209     1
    200    468     1
    201    202     1
    201    207     1
    201    210     1
    201    494     1
    202    206     1
    202    467     1
    203    466     1
    204    206     1
    204    493     1
    205    492     1
    209    467     1
    210    493     1
    225    229     1
    225    231     1
    225    234     1
    226    230     1
    226    233     1
    226    235     1
    226    520     1
    227    228     1
    227    233     1
    227    236     1
    227    546     1
    228    232     1
    228    519     1
    229    518     1
    230    232     1
    230    545     1
    231    544     1
    235    519     1
    236    545     1
    251    255     1
    251    257     1
    251    260     1
    252    256     1
    252    259     1
    252    261     1
    252    572     1
    253    254     1
    253    259     1
    253    262     1
    253    598     1
    254    258     1
    254    571     1
    255    570     1
    256    258     1
    256    597     1
    257    596     1
    261    571     1
    262    597     1
    277    281     1
    277    283     1
    277    286     1
    278    282     1
    278    285     1
    278    287     1
    278    624     1
    279    280     1
    279    285     1
    279    288     1
    279    650     1
    280    284     1
    280    623     1
    281    622     1
    282    284     1
    282    649     1
    283    648     1
    287    623     1
    288    649     1
    303    307     1
    303    309     1
    303    312     1
    304    308     1
    304    311     1
    304    313     1
    304    676     1
    305    306     1
    305    311     1
    305    314     1
    305    702     1
    306    310     1
    306    675     1
    307    674     1
    308    310     1
    308    701     1
    309    700     1
    313    675     1
    314    701     1
    329    333     1
    329    335     1
    329    338     1
    330    334     1
    330    337     1
    330    339     1
    330    728     1
    331    332     1
    331    337     1
    331    340     1
    331    754     1
    332    336     1
    332    727     1
    333    726     1
    334    336     1
    334    753     1
    335    752     1
    339    727     1
    340    753     1
    355    359     1
    355    361     1
    355    364     1
    356    360     1
    356    363     1
    356    771     1
    356    365     1
    357    358     1
    357    363     1
    357    366     1
    357    783     1
    358    362     1
    358    773     1
    359    774     1
    360    362     1
    360    785     1
    361    786     1
    365    773     1
    366    785     1
    381    385     1
    381    387     1
    381    390     1
    382    386     1
    382    389     1
    382    795     1
    382    391     1
    383    384     1
    383    389     1
    383    392     1
    383    807     1
    384    388     1
    384    797     1
    385    798     1
    386    388     1
    386    809     1
    387    810     1
    391    797     1
    392    809     1
    407    411     1
    407    413     1
    407    416     1
    408    412     1
    408    415     1
    408    819     1
    408    417     1
    409    410     1
    409    415     1
    409    418     1
    409    831     1
    410    414     1
    410    821     1
    411    822     1
    412    414     1
    412    833     1
    413    834     1
    417    821     1
    418    833     1
    433    437     1
    433    439     1
    433    442     1
    434    438     1
    434    441     1
    434    843     1
    434    443     1
    435    436     1
    435    441     1
    435    444     1
    435    855     1
    436    440     1
    436    845     1
    437    846     1
    438    440     1
    438    857     1
    439    858     1
    443    845     1
    444    857     1
    459    463     1
    459    465     1
    459    468     1
    460    464     1
    460    467     1
    460    867     1
    460    469     1
    461    462     1
    461    467     1
    461    470     1
    461    879     1
    462    466     1
    462    869     1
    463    870     1
    464    466     1
    464    881     1
    465    882     1
    469    869     1
    470    881     1
    485    489     1
    485    491     1
    485    494     1
    486    490     1
    486    493     1
    486    891     1
    486    495     1
    487    488     1
    487    493     1
    487    496     1
    487    903     1
    488    492     1
    488    893     1
    489    894     1
    490    492     1
    490    905     1
    491    906     1
    495    893     1
    496    905     1
    511    515     1
    511    517     1
    511    520     1
    512    516     1
    512    519     1
    512    915     1
    512    521     1
    513    514     1
    513    519     1
    513    522     1
    513    927     1
    514    518     1
    514    917     1
    515    918     1
    516    518     1
    516    929     1
    517    930     1
    521    917     1
    522    929     1
    537    541     1
    537    543     1
    537    546     1
    538    542     1
    538    545     1
    538    939     1
    538    547     1
    539    540     1
    539    545     1
    539    548     1
    539    951     1
    540    544     1
    540    941     1
    541    942     1
    542    544     1
    542    953     1
    543    954     1
    547    941     1
    548    953     1
    563    567     1
    563    569     1
    563    572     1
    564    568     1
    564    571     1
    564    963     1
    564    573     1
    565    566     1
    565    571     1
    565    574     1
    565    975     1
    566    570     1
    566    965     1
    567    966     1
    568    570     1
    568    977     1
    569    978     1
    573    965     1
    574    977     1
    589    593     1
    589    595     1
    589    598     1
    590    594     1
    590    597     1
    590    987     1
    590    599     1
    591    592     1
    591    597     1
    591    600     1
    591    999     1
    592    596     1
    592    989     1
    593    990     1
    594    596     1
    594   1001     1
    595   1002     1
    599    989     1
    600   1001     1
    615    619     1
    615    621     1
    615    624     1
    616    620     1
    616    623     1
    616   1011     1
    616    625     1
    617    618     1
    617    623     1
    617    626     1
    617   1023     1
    618    622     1
    618   1013     1
    619   1014     1
    620    622     1
    620   1025     1
    621   1026     1
    625   1013     1
    626   1025     1
    641    645     1
    641    647     1
    641    650     1
    642    646     1
    642    649     1
    642   1035     1
    642    651     1
    643    644     1
    643    649     1
    643    652     1
    643   1047     1
    644    648     1
    644   1037     1
    645   1038     1
    646    648     1
    646   1049     1
    647   1050     1
    651   1037     1
    652   1049     1
    667    671     1
    667    673     1
    667    676     1
    668    672     1
    668    675     1
    668   1059     1
    668    677     1
    669    670     1
    669    675     1
    669    678     1
    669   1071     1
    670    674     1
    670   1061     1
    671   1062     1
    672    674     1
    672   1073     1
    673   1074     1
    677   1061     1
    678   1073     1
    693    697     1
    693    699     1
    693    702     1
    694    698     1
    694    701     1
    694   1083     1
    694    703     1
    695    696     1
    695    701     1
    695    704     1
    695   1095     1
    696    700     1
    696   1085     1
    697   1086     1
    698    700     1
    698   1097     1
    699   1098     1
    703   1085     1
    704   1097     1
    719    723     1
    719    725     1
    719    728     1
    720    724     1
    720    727     1
    720   1107     1
    720    729     1
    721    722     1
    721    727     1
    721    730     1
    721   1119     1
    722    726     1
    722   1109     1
    723   1110     1
    724    726     1
    724   1121     1
    725   1122     1
    729   1109     1
    730   1121     1
    745    749     1
    745    751     1
    745    754     1
    746    750     1
    746    753     1
    746   1131     1
    746    755     1
    747    748     1
    747    753     1
    747   1143     1
    747    756     1
    748    752     1
    748   1133     1
    749   1134     1
    750    752     1
    750   1145     1
    751   1146     1
    755   1133     1
    756   1145     1
    771    779     1
    783    791     1
    795    803     1
    807    815     1
    819    827     1
    831    839     1
    843    851     1
    855    863     1
    867    875     1
    879    887     1
    891    899     1
    903    911     1
    915    923     1
    927    935     1
    939    947     1
    951    959     1
    963    971     1
    975    983     1
    987    995     1
    999   1007     1
   1011   1019     1
   1023   1031     1
   1035   1043     1
   1047   1055     1
   1059   1067     1
   1071   1079     1
   1083   1091     1
   1095   1103     1
   1107   1115     1
   1119   1127     1
   1131   1139     1
   1143   1151     1
      1     23     1
      1     24     1
      1     37     1
      1     38     1
      1     39     1
      1     40     1
      2     29     1
      2     30     1
      2     31     1
      2     32     1
      2     42     1
     41      3     1
      3     25     1
      3     26     1
      3     27     1
      3     28     1
      4     21     1
      4     22     1
      4     35     1
      4     36     1
      4     33     1
      4     34     1
      5     23     1
      5     24     1
      5     27     1
      5     28     1
      6     23     1
      6     24     1
      6     25     1
      6     26     1
      7     21     1
      7     22     1
      7     31     1
      7     32     1
      8     21     1
      8     22     1
      8     29     1
      8     30     1
      9     42     1
      9     67     1
     10     27     1
     10     28     1
     10     65     1
     10     66     1
     11     42     1
     11     93     1
     12     25     1
     12     26     1
     12     91     1
     12     92     1
     41     13     1
     13    119     1
     14     29     1
     14     30     1
     14    117     1
     14    118     1
     41     15     1
     15    145     1
     16     31     1
     16     32     1
     16    143     1
     16    144     1
     17     35     1
     17     36     1
     17     93     1
     18     33     1
     18     34     1
     18     67     1
     19     39     1
     19     40     1
     19    145     1
     20     37     1
     20     38     1
     20    119     1
     41     21     1
     21     23     1
     21     24     1
     41     22     1
     22     23     1
     22     24     1
     23     42     1
     24     42     1
     25     42     1
     25     35     1
     25     36     1
     26     42     1
     26     35     1
     26     36     1
     27     42     1
     27     33     1
     27     34     1
     28     42     1
     28     33     1
     28     34     1
     41     29     1
     29     37     1
     29     38     1
     41     30     1
     30     37     1
     30     38     1
     41     31     1
     31     39     1
     31     40     1
     41     32     1
     32     39     1
     32     40     1
     33     52     1
     34     52     1
     35     78     1
     36     78     1
     37    104     1
     38    104     1
     39    130     1
     40    130     1
     43     59     1
     43     60     1
     43     61     1
     43     62     1
     43     65     1
     43     66     1
     44     57     1
     44     58     1
     44     63     1
     44     64     1
     45     55     1
     45     56     1
     45     63     1
     45     64     1
     46     68     1
     46    171     1
     47     55     1
     47     56     1
     47    169     1
     47    170     1
     48     68     1
     48    197     1
     49     57     1
     49     58     1
     49    195     1
     49    196     1
     50     55     1
     50     56     1
     50     57     1
     50     58     1
     50     67     1
     51     68     1
     52     63     1
     52     64     1
     53     59     1
     53     60     1
     53    171     1
     54     61     1
     54     62     1
     54    197     1
     55     68     1
     55     59     1
     55     60     1
     56     68     1
     56     59     1
     56     60     1
     57     68     1
     57     61     1
     57     62     1
     58     68     1
     58     61     1
     58     62     1
     59    156     1
     60    156     1
     61    182     1
     62    182     1
     63     68     1
     63     65     1
     63     66     1
     64     68     1
     64     65     1
     64     66     1
     65     67     1
     66     67     1
     69     85     1
     69     86     1
     69     87     1
     69     88     1
     69     91     1
     69     92     1
     70     83     1
     70     84     1
     70     89     1
     70     90     1
     71     81     1
     71     82     1
     71     89     1
     71     90     1
     72     94     1
     72    223     1
     73     81     1
     73     82     1
     73    221     1
     73    222     1
     74     94     1
     74    249     1
     75     83     1
     75     84     1
     75    247     1
     75    248     1
     76     81     1
     76     82     1
     76     83     1
     76     84     1
     76     93     1
     77     94     1
     78     89     1
     78     90     1
     79     85     1
     79     86     1
     79    223     1
     80     87     1
     80     88     1
     80    249     1
     81     94     1
     81     85     1
     81     86     1
     82     94     1
     82     85     1
     82     86     1
     83     94     1
     83     87     1
     83     88     1
     84     94     1
     84     87     1
     84     88     1
     85    208     1
     86    208     1
     87    234     1
     88    234     1
     89     94     1
     89     91     1
     89     92     1
     90     94     1
     90     91     1
     90     92     1
     91     93     1
     92     93     1
     95    111     1
     95    112     1
     95    113     1
     95    114     1
     95    117     1
     95    118     1
     96    109     1
     96    110     1
     96    115     1
     96    116     1
     97    107     1
     97    108     1
     97    115     1
     97    116     1
     98    120     1
     98    275     1
     99    107     1
     99    108     1
     99    273     1
     99    274     1
    100    120     1
    100    301     1
    101    109     1
    101    110     1
    101    299     1
    101    300     1
    102    107     1
    102    108     1
    102    109     1
    102    110     1
    102    119     1
    103    120     1
    104    115     1
    104    116     1
    105    111     1
    105    112     1
    105    275     1
    106    113     1
    106    114     1
    106    301     1
    107    120     1
    107    111     1
    107    112     1
    108    120     1
    108    111     1
    108    112     1
    109    120     1
    109    113     1
    109    114     1
    110    120     1
    110    113     1
    110    114     1
    111    260     1
    112    260     1
    113    286     1
    114    286     1
    115    120     1
    115    117     1
    115    118     1
    116    120     1
    116    117     1
    116    118     1
    117    119     1
    118    119     1
    121    137     1
    121    138     1
    121    139     1
    121    140     1
    121    143     1
    121    144     1
    122    135     1
    122    136     1
    122    141     1
    122    142     1
    123    133     1
    123    134     1
    123    141     1
    123    142     1
    124    146     1
    124    327     1
    125    133     1
    125    134     1
    125    325     1
    125    326     1
    126    146     1
    126    353     1
    127    135     1
    127    136     1
    127    351     1
    127    352     1
    128    133     1
    128    134     1
    128    135     1
    128    136     1
    128    145     1
    129    146     1
    130    141     1
    130    142     1
    131    137     1
    131    138     1
    131    327     1
    132    139     1
    132    140     1
    132    353     1
    133    146     1
    133    137     1
    133    138     1
    134    146     1
    134    137     1
    134    138     1
    135    146     1
    135    139     1
    135    140     1
    136    146     1
    136    139     1
    136    140     1
    137    312     1
    138    312     1
    139    338     1
    140    338     1
    141    146     1
    141    143     1
    141    144     1
    142    146     1
    142    143     1
    142    144     1
    143    145     1
    144    145     1
    147    163     1
    147    164     1
    147    165     1
    147    166     1
    147    169     1
    147    170     1
    148    161     1
    148    162     1
    148    167     1
    148    168     1
    149    159     1
    149    160     1
    149    167     1
    149    168     1
    150    172     1
    150    379     1
    151    159     1
    151    160     1
    151    377     1
    151    378     1
    152    172     1
    152    405     1
    153    161     1
    153    162     1
    153    403     1
    153    404     1
    154    159     1
    154    160     1
    154    161     1
    154    162     1
    154    171     1
    155    172     1
    156    167     1
    156    168     1
    157    163     1
    157    164     1
    157    379     1
    158    165     1
    158    166     1
    158    405     1
    159    172     1
    159    163     1
    159    164     1
    160    172     1
    160    163     1
    160    164     1
    161    172     1
    161    165     1
    161    166     1
    162    172     1
    162    165     1
    162    166     1
    163    364     1
    164    364     1
    165    390     1
    166    390     1
    167    172     1
    167    169     1
    167    170     1
    168    172     1
    168    169     1
    168    170     1
    169    171     1
    170    171     1
    173    189     1
    173    190     1
    173    191     1
    173    192     1
    173    195     1
    173    196     1
    174    187     1
    174    188     1
    174    193     1
    174    194     1
    175    185     1
    175    186     1
    175    193     1
    175    194     1
    176    198     1
    176    431     1
    177    185     1
    177    186     1
    177    429     1
    177    430     1
    178    198     1
    178    457     1
    179    187     1
    179    188     1
    179    455     1
    179    456     1
    180    185     1
    180    186     1
    180    187     1
    180    188     1
    180    197     1
    181    198     1
    182    193     1
    182    194     1
    183    189     1
    183    190     1
    183    431     1
    184    191     1
    184    192     1
    184    457     1
    185    198     1
    185    189     1
    185    190     1
    186    198     1
    186    189     1
    186    190     1
    187    198     1
    187    191     1
    187    192     1
    188    198     1
    188    191     1
    188    192     1
    189    416     1
    190    416     1
    191    442     1
    192    442     1
    193    198     1
    193    195     1
    193    196     1
    194    198     1
    194    195     1
    194    196     1
    195    197     1
    196    197     1
    199    215     1
    199    216     1
    199    217     1
    199    218     1
    199    221     1
    199    222     1
    200    213     1
    200    214     1
    200    219     1
    200    220     1
    201    211     1
    201    212     1
    201    219     1
    201    220     1
    202    224     1
    202    483     1
    203    211     1
    203    212     1
    203    481     1
    203    482     1
    204    224     1
    204    509     1
    205    213     1
    205    214     1
    205    507     1
    205    508     1
    206    211     1
    206    212     1
    206    213     1
    206    214     1
    206    223     1
    207    224     1
    208    219     1
    208    220     1
    209    215     1
    209    216     1
    209    483     1
    210    217     1
    210    218     1
    210    509     1
    211    224     1
    211    215     1
    211    216     1
    212    224     1
    212    215     1
    212    216     1
    213    224     1
    213    217     1
    213    218     1
    214    224     1
    214    217     1
    214    218     1
    215    468     1
    216    468     1
    217    494     1
    218    494     1
    219    224     1
    219    221     1
    219    222     1
    220    224     1
    220    221     1
    220    222     1
    221    223     1
    222    223     1
    225    241     1
    225    242     1
    225    243     1
    225    244     1
    225    247     1
    225    248     1
    226    239     1
    226    240     1
    226    245     1
    226    246     1
    227    237     1
    227    238     1
    227    245     1
    227    246     1
    228    250     1
    228    535     1
    229    237     1
    229    238     1
    229    533     1
    229    534     1
    230    250     1
    230    561     1
    231    239     1
    231    240     1
    231    559     1
    231    560     1
    232    237     1
    232    238     1
    232    239     1
    232    240     1
    232    249     1
    233    250     1
    234    245     1
    234    246     1
    235    241     1
    235    242     1
    235    535     1
    236    243     1
    236    244     1
    236    561     1
    237    250     1
    237    241     1
    237    242     1
    238    250     1
    238    241     1
    238    242     1
    239    250     1
    239    243     1
    239    244     1
    240    250     1
    240    243     1
    240    244     1
    241    520     1
    242    520     1
    243    546     1
    244    546     1
    245    250     1
    245    247     1
    245    248     1
    246    250     1
    246    247     1
    246    248     1
    247    249     1
    248    249     1
    251    267     1
    251    268     1
    251    269     1
    251    270     1
    251    273     1
    251    274     1
    252    265     1
    252    266     1
    252    271     1
    252    272     1
    253    263     1
    253    264     1
    253    271     1
    253    272     1
    254    276     1
    254    587     1
    255    263     1
    255    264     1
    255    585     1
    255    586     1
    256    276     1
    256    613     1
    257    265     1
    257    266     1
    257    611     1
    257    612     1
    258    263     1
    258    264     1
    258    265     1
    258    266     1
    258    275     1
    259    276     1
    260    271     1
    260    272     1
    261    267     1
    261    268     1
    261    587     1
    262    269     1
    262    270     1
    262    613     1
    263    276     1
    263    267     1
    263    268     1
    264    276     1
    264    267     1
    264    268     1
    265    276     1
    265    269     1
    265    270     1
    266    276     1
    266    269     1
    266    270     1
    267    572     1
    268    572     1
    269    598     1
    270    598     1
    271    276     1
    271    273     1
    271    274     1
    272    276     1
    272    273     1
    272    274     1
    273    275     1
    274    275     1
    277    293     1
    277    294     1
    277    295     1
    277    296     1
    277    299     1
    277    300     1
    278    291     1
    278    292     1
    278    297     1
    278    298     1
    279    289     1
    279    290     1
    279    297     1
    279    298     1
    280    302     1
    280    639     1
    281    289     1
    281    290     1
    281    637     1
    281    638     1
    282    302     1
    282    665     1
    283    291     1
    283    292     1
    283    663     1
    283    664     1
    284    289     1
    284    290     1
    284    291     1
    284    292     1
    284    301     1
    285    302     1
    286    297     1
    286    298     1
    287    293     1
    287    294     1
    287    639     1
    288    295     1
    288    296     1
    288    665     1
    289    302     1
    289    293     1
    289    294     1
    290    302     1
    290    293     1
    290    294     1
    291    302     1
    291    295     1
    291    296     1
    292    302     1
    292    295     1
    292    296     1
    293    624     1
    294    624     1
    295    650     1
    296    650     1
    297    302     1
    297    299     1
    297    300     1
    298    302     1
    298    299     1
    298    300     1
    299    301     1
    300    301     1
    303    319     1
    303    320     1
    303    321     1
    303    322     1
    303    325     1
    303    326     1
    304    317     1
    304    318     1
    304    323     1
    304    324     1
    305    315     1
    305    316     1
    305    323     1
    305    324     1
    306    328     1
    306    691     1
    307    315     1
    307    316     1
    307    689     1
    307    690     1
    308    328     1
    308    717     1
    309    317     1
    309    318     1
    309    715     1
    309    716     1
    310    315     1
    310    316     1
    310    317     1
    310    318     1
    310    327     1
    311    328     1
    312    323     1
    312    324     1
    313    319     1
    313    320     1
    313    691     1
    314    321     1
    314    322     1
    314    717     1
    315    328     1
    315    319     1
    315    320     1
    316    328     1
    316    319     1
    316    320     1
    317    328     1
    317    321     1
    317    322     1
    318    328     1
    318    321     1
    318    322     1
    319    676     1
    320    676     1
    321    702     1
    322    702     1
    323    328     1
    323    325     1
    323    326     1
    324    328     1
    324    325     1
    324    326     1
    325    327     1
    326    327     1
    329    345     1
    329    346     1
    329    347     1
    329    348     1
    329    351     1
    329    352     1
    330    343     1
    330    344     1
    330    349     1
    330    350     1
    331    341     1
    331    342     1
    331    349     1
    331    350     1
    332    354     1
    332    743     1
    333    341     1
    333    342     1
    333    741     1
    333    742     1
    334    354     1
    334    769     1
    335    343     1
    335    344     1
    335    767     1
    335    768     1
    336    341     1
    336    342     1
    336    343     1
    336    344     1
    336    353     1
    337    354     1
    338    349     1
    338    350     1
    339    345     1
    339    346     1
    339    743     1
    340    347     1
    340    348     1
    340    769     1
    341    354     1
    341    345     1
    341    346     1
    342    354     1
    342    345     1
    342    346     1
    343    354     1
    343    347     1
    343    348     1
    344    354     1
    344    347     1
    344    348     1
    345    728     1
    346    728     1
    347    754     1
    348    754     1
    349    354     1
    349    351     1
    349    352     1
    350    354     1
    350    351     1
    350    352     1
    351    353     1
    352    353     1
    355    371     1
    355    372     1
    355    373     1
    355    374     1
    355    377     1
    355    378     1
    356    369     1
    356    370     1
    356    375     1
    356    376     1
    357    367     1
    357    368     1
    357    375     1
    357    376     1
    358    380     1
    358    772     1
    359    367     1
    359    368     1
    359    775     1
    359    776     1
    360    380     1
    360    784     1
    361    369     1
    361    370     1
    361    787     1
    361    788     1
    362    367     1
    362    368     1
    362    369     1
    362    370     1
    362    379     1
    363    380     1
    364    375     1
    364    376     1
    365    371     1
    365    372     1
    365    772     1
    366    373     1
    366    374     1
    366    784     1
    367    380     1
    367    371     1
    367    372     1
    368    380     1
    368    371     1
    368    372     1
    369    380     1
    369    373     1
    369    374     1
    370    380     1
    370    373     1
    370    374     1
    371    771     1
    372    771     1
    373    783     1
    374    783     1
    375    380     1
    375    377     1
    375    378     1
    376    380     1
    376    377     1
    376    378     1
    377    379     1
    378    379     1
    381    397     1
    381    398     1
    381    399     1
    381    400     1
    381    403     1
    381    404     1
    382    395     1
    382    396     1
    382    401     1
    382    402     1
    383    393     1
    383    394     1
    383    401     1
    383    402     1
    384    406     1
    384    796     1
    385    393     1
    385    394     1
    385    799     1
    385    800     1
    386    406     1
    386    808     1
    387    395     1
    387    396     1
    387    811     1
    387    812     1
    388    393     1
    388    394     1
    388    395     1
    388    396     1
    388    405     1
    389    406     1
    390    401     1
    390    402     1
    391    397     1
    391    398     1
    391    796     1
    392    399     1
    392    400     1
    392    808     1
    393    406     1
    393    397     1
    393    398     1
    394    406     1
    394    397     1
    394    398     1
    395    406     1
    395    399     1
    395    400     1
    396    406     1
    396    399     1
    396    400     1
    397    795     1
    398    795     1
    399    807     1
    400    807     1
    401    406     1
    401    403     1
    401    404     1
    402    406     1
    402    403     1
    402    404     1
    403    405     1
    404    405     1
    407    423     1
    407    424     1
    407    425     1
    407    426     1
    407    429     1
    407    430     1
    408    421     1
    408    422     1
    408    427     1
    408    428     1
    409    419     1
    409    420     1
    409    427     1
    409    428     1
    410    432     1
    410    820     1
    411    419     1
    411    420     1
    411    823     1
    411    824     1
    412    432     1
    412    832     1
    413    421     1
    413    422     1
    413    835     1
    413    836     1
    414    419     1
    414    420     1
    414    421     1
    414    422     1
    414    431     1
    415    432     1
    416    427     1
    416    428     1
    417    423     1
    417    424     1
    417    820     1
    418    425     1
    418    426     1
    418    832     1
    419    432     1
    419    423     1
    419    424     1
    420    432     1
    420    423     1
    420    424     1
    421    432     1
    421    425     1
    421    426     1
    422    432     1
    422    425     1
    422    426     1
    423    819     1
    424    819     1
    425    831     1
    426    831     1
    427    432     1
    427    429     1
    427    430     1
    428    432     1
    428    429     1
    428    430     1
    429    431     1
    430    431     1
    433    449     1
    433    450     1
    433    451     1
    433    452     1
    433    455     1
    433    456     1
    434    447     1
    434    448     1
    434    453     1
    434    454     1
    435    445     1
    435    446     1
    435    453     1
    435    454     1
    436    458     1
    436    844     1
    437    445     1
    437    446     1
    437    847     1
    437    848     1
    438    458     1
    438    856     1
    439    447     1
    439    448     1
    439    859     1
    439    860     1
    440    445     1
    440    446     1
    440    447     1
    440    448     1
    440    457     1
    441    458     1
    442    453     1
    442    454     1
    443    449     1
    443    450     1
    443    844     1
    444    451     1
    444    452     1
    444    856     1
    445    458     1
    445    449     1
    445    450     1
    446    458     1
    446    449     1
    446    450     1
    447    458     1
    447    451     1
    447    452     1
    448    458     1
    448    451     1
    448    452     1
    449    843     1
    450    843     1
    451    855     1
    452    855     1
    453    458     1
    453    455     1
    453    456     1
    454    458     1
    454    455     1
    454    456     1
    455    457     1
    456    457     1
    459    475     1
    459    476     1
    459    477     1
    459    478     1
    459    481     1
    459    482     1
    460    473     1
    460    474     1
    460    479     1
    460    480     1
    461    471     1
    461    472     1
    461    479     1
    461    480     1
    462    484     1
    462    868     1
    463    471     1
    463    472     1
    463    871     1
    463    872     1
    464    484     1
    464    880     1
    465    473     1
    465    474     1
    465    883     1
    465    884     1
    466    471     1
    466    472     1
    466    473     1
    466    474     1
    466    483     1
    467    484     1
    468    479     1
    468    480     1
    469    475     1
    469    476     1
    469    868     1
    470    477     1
    470    478     1
    470    880     1
    471    484     1
    471    475     1
    471    476     1
    472    484     1
    472    475     1
    472    476     1
    473    484     1
    473    477     1
    473    478     1
    474    484     1
    474    477     1
    474    478     1
    475    867     1
    476    867     1
    477    879     1
    478    879     1
    479    484     1
    479    481     1
    479    482     1
    480    484     1
    480    481     1
    480    482     1
    481    483     1
    482    483     1
    485    501     1
    485    502     1
    485    503     1
    485    504     1
    485    507     1
    485    508     1
    486    499     1
    486    500     1
    486    505     1
    486    506     1
    487    497     1
    487    498     1
    487    505     1
    487    506     1
    488    510     1
    488    892     1
    489    497     1
    489    498     1
    489    895     1
    489    896     1
    490    510     1
    490    904     1
    491    499     1
    491    500     1
    491    907     1
    491    908     1
    492    497     1
    492    498     1
    492    499     1
    492    500     1
    492    509     1
    493    510     1
    494    505     1
    494    506     1
    495    501     1
    495    502     1
    495    892     1
    496    503     1
    496    504     1
    496    904     1
    497    510     1
    497    501     1
    497    502     1
    498    510     1
    498    501     1
    498    502     1
    499    510     1
    499    503     1
    499    504     1
    500    510     1
    500    503     1
    500    504     1
    501    891     1
    502    891     1
    503    903     1
    504    903     1
    505    510     1
    505    507     1
    505    508     1
    506    510     1
    506    507     1
    506    508     1
    507    509     1
    508    509     1
    511    527     1
    511    528     1
    511    529     1
    511    530     1
    511    533     1
    511    534     1
    512    525     1
    512    526     1
    512    531     1
    512    532     1
    513    523     1
    513    524     1
    513    531     1
    513    532     1
    514    536     1
    514    916     1
    515    523     1
    515    524     1
    515    919     1
    515    920     1
    516    536     1
    516    928     1
    517    525     1
    517    526     1
    517    931     1
    517    932     1
    518    523     1
    518    524     1
    518    525     1
    518    526     1
    518    535     1
    519    536     1
    520    531     1
    520    532     1
    521    527     1
    521    528     1
    521    916     1
    522    529     1
    522    530     1
    522    928     1
    523    536     1
    523    527     1
    523    528     1
    524    536     1
    524    527     1
    524    528     1
    525    536     1
    525    529     1
    525    530     1
    526    536     1
    526    529     1
    526    530     1
    527    915     1
    528    915     1
    529    927     1
    530    927     1
    531    536     1
    531    533     1
    531    534     1
    532    536     1
    532    533     1
    532    534     1
    533    535     1
    534    535     1
    537    553     1
    537    554     1
    537    555     1
    537    556     1
    537    559     1
    537    560     1
    538    551     1
    538    552     1
    538    557     1
    538    558     1
    539    549     1
    539    550     1
    539    557     1
    539    558     1
    540    562     1
    540    940     1
    541    549     1
    541    550     1
    541    943     1
    541    944     1
    542    562     1
    542    952     1
    543    551     1
    543    552     1
    543    955     1
    543    956     1
    544    549     1
    544    550     1
    544    551     1
    544    552     1
    544    561     1
    545    562     1
    546    557     1
    546    558     1
    547    553     1
    547    554     1
    547    940     1
    548    555     1
    548    556     1
    548    952     1
    549    562     1
    549    553     1
    549    554     1
    550    562     1
    550    553     1
    550    554     1
    551    562     1
    551    555     1
    551    556     1
    552    562     1
    552    555     1
    552    556     1
    553    939     1
    554    939     1
    555    951     1
    556    951     1
    557    562     1
    557    559     1
    557    560     1
    558    562     1
    558    559     1
    558    560     1
    559    561     1
    560    561     1
    563    579     1
    563    580     1
    563    581     1
    563    582     1
    563    585     1
    563    586     1
    564    577     1
    564    578     1
    564    583     1
    564    584     1
    565    575     1
    565    576     1
    565    583     1
    565    584     1
    566    588     1
    566    964     1
    567    575     1
    567    576     1
    567    967     1
    567    968     1
    568    588     1
    568    976     1
    569    577     1
    569    578     1
    569    979     1
    569    980     1
    570    575     1
    570    576     1
    570    577     1
    570    578     1
    570    587     1
    571    588     1
    572    583     1
    572    584     1
    573    579     1
    573    580     1
    573    964     1
    574    581     1
    574    582     1
    574    976     1
    575    588     1
    575    579     1
    575    580     1
    576    588     1
    576    579     1
    576    580     1
    577    588     1
    577    581     1
    577    582     1
    578    588     1
    578    581     1
    578    582     1
    579    963     1
    580    963     1
    581    975     1
    582    975     1
    583    588     1
    583    585     1
    583    586     1
    584    588     1
    584    585     1
    584    586     1
    585    587     1
    586    587     1
    589    605     1
    589    606     1
    589    607     1
    589    608     1
    589    611     1
    589    612     1
    590    603     1
    590    604     1
    590    609     1
    590    610     1
    591    601     1
    591    602     1
    591    609     1
    591    610     1
    592    614     1
    592    988     1
    593    601     1
    593    602     1
    593    991     1
    593    992     1
    594    614     1
    594   1000     1
    595    603     1
    595    604     1
    595   1003     1
    595   1004     1
    596    601     1
    596    602     1
    596    603     1
    596    604     1
    596    613     1
    597    614     1
    598    609     1
    598    610     1
    599    605     1
    599    606     1
    599    988     1
    600    607     1
    600    608     1
    600   1000     1
    601    614     1
    601    605     1
    601    606     1
    602    614     1
    602    605     1
    602    606     1
    603    614     1
    603    607     1
    603    608     1
    604    614     1
    604    607     1
    604    608     1
    605    987     1
    606    987     1
    607    999     1
    608    999     1
    609    614     1
    609    611     1
    609    612     1
    610    614     1
    610    611     1
    610    612     1
    611    613     1
    612    613     1
    615    631     1
    615    632     1
    615    633     1
    615    634     1
    615    637     1
    615    638     1
    616    629     1
    616    630     1
    616    635     1
    616    636     1
    617    627     1
    617    628     1
    617    635     1
    617    636     1
    618    640     1
    618   1012     1
    619    627     1
    619    628     1
    619   1015     1
    619   1016     1
    620    640     1
    620   1024     1
    621    629     1
    621    630     1
    621   1027     1
    621   1028     1
    622    627     1
    622    628     1
    622    629     1
    622    630     1
    622    639     1
    623    640     1
    624    635     1
    624    636     1
    625    631     1
    625    632     1
    625   1012     1
    626    633     1
    626    634     1
    626   1024     1
    627    640     1
    627    631     1
    627    632     1
    628    640     1
    628    631     1
    628    632     1
    629    640     1
    629    633     1
    629    634     1
    630    640     1
    630    633     1
    630    634     1
    631   1011     1
    632   1011     1
    633   1023     1
    634   1023     1
    635    640     1
    635    637     1
    635    638     1
    636    640     1
    636    637     1
    636    638     1
    637    639     1
    638    639     1
    641    657     1
    641    658     1
    641    659     1
    641    660     1
    641    663     1
    641    664     1
    642    655     1
    642    656     1
    642    661     1
    642    662     1
    643    653     1
    643    654     1
    643    661     1
    643    662     1
    644    666     1
    644   1036     1
    645    653     1
    645    654     1
    645   1039     1
    645   1040     1
    646    666     1
    646   1048     1
    647    655     1
    647    656     1
    647   1051     1
    647   1052     1
    648    653     1
    648    654     1
    648    655     1
    648    656     1
    648    665     1
    649    666     1
    650    661     1
    650    662     1
    651    657     1
    651    658     1
    651   1036     1
    652    659     1
    652    660     1
    652   1048     1
    653    666     1
    653    657     1
    653    658     1
    654    666     1
    654    657     1
    654    658     1
    655    666     1
    655    659     1
    655    660     1
    656    666     1
    656    659     1
    656    660     1
    657   1035     1
    658   1035     1
    659   1047     1
    660   1047     1
    661    666     1
    661    663     1
    661    664     1
    662    666     1
    662    663     1
    662    664     1
    663    665     1
    664    665     1
    667    683     1
    667    684     1
    667    685     1
    667    686     1
    667    689     1
    667    690     1
    668    681     1
    668    682     1
    668    687     1
    668    688     1
    669    679     1
    669    680     1
    669    687     1
    669    688     1
    670    692     1
    670   1060     1
    671    679     1
    671    680     1
    671   1063     1
    671   1064     1
    672    692     1
    672   1072     1
    673    681     1
    673    682     1
    673   1075     1
    673   1076     1
    674    679     1
    674    680     1
    674    681     1
    674    682     1
    674    691     1
    675    692     1
    676    687     1
    676    688     1
    677    683     1
    677    684     1
    677   1060     1
    678    685     1
    678    686     1
    678   1072     1
    679    692     1
    679    683     1
    679    684     1
    680    692     1
    680    683     1
    680    684     1
    681    692     1
    681    685     1
    681    686     1
    682    692     1
    682    685     1
    682    686     1
    683   1059     1
    684   1059     1
    685   1071     1
    686   1071     1
    687    692     1
    687    689     1
    687    690     1
    688    692     1
    688    689     1
    688    690     1
    689    691     1
    690    691     1
    693    709     1
    693    710     1
    693    711     1
    693    712     1
    693    715     1
    693    716     1
    694    707     1
    694    708     1
    694    713     1
    694    714     1
    695    705     1
    695    706     1
    695    713     1
    695    714     1
    696    718     1
    696   1084     1
    697    705     1
    697    706     1
    697   1087     1
    697   1088     1
    698    718     1
    698   1096     1
    699    707     1
    699    708     1
    699   1099     1
    699   1100     1
    700    705     1
    700    706     1
    700    707     1
    700    708     1
    700    717     1
    701    718     1
    702    713     1
    702    714     1
    703    709     1
    703    710     1
    703   1084     1
    704    711     1
    704    712     1
    704   1096     1
    705    718     1
    705    709     1
    705    710     1
    706    718     1
    706    709     1
    706    710     1
    707    718     1
    707    711     1
    707    712     1
    708    718     1
    708    711     1
    708    712     1
    709   1083     1
    710   1083     1
    711   1095     1
    712   1095     1
    713    718     1
    713    715     1
    713    716     1
    714    718     1
    714    715     1
    714    716     1
    715    717     1
    716    717     1
    719    735     1
    719    736     1
    719    737     1
    719    738     1
    719    741     1
    719    742     1
    720    733     1
    720    734     1
    720    739     1
    720    740     1
    721    731     1
    721    732     1
    721    739     1
    721    740     1
    722    744     1
    722   1108     1
    723    731     1
    723    732     1
    723   1111     1
    723   1112     1
    724    744     1
    724   1120     1
    725    733     1
    725    734     1
    725   1123     1
    725   1124     1
    726    731     1
    726    732     1
    726    733     1
    726    734     1
    726    743     1
    727    744     1
    728    739     1
    728    740     1
    729    735     1
    729    736     1
    729   1108     1
    730    737     1
    730    738     1
    730   1120     1
    731    744     1
    731    735     1
    731    736     1
    732    744     1
    732    735     1
    732    736     1
    733    744     1
    733    737     1
    733    738     1
    734    744     1
    734    737     1
    734    738     1
    735   1107     1
    736   1107     1
    737   1119     1
    738   1119     1
    739    744     1
    739    741     1
    739    742     1
    740    744     1
    740    741     1
    740    742     1
    741    743     1
    742    743     1
    745    761     1
    745    762     1
    745    763     1
    745    764     1
    745    767     1
    745    768     1
    746    759     1
    746    760     1
    746    765     1
    746    766     1
    747    757     1
    747    758     1
    747    765     1
    747    766     1
    748    770     1
    748   1132     1
    749    757     1
    749    758     1
    749   1135     1
    749   1136     1
    750    770     1
    750   1144     1
    751    759     1
    751    760     1
    751   1147     1
    751   1148     1
    752    757     1
    752    758     1
    752    759     1
    752    760     1
    752    769     1
    753    770     1
    754    765     1
    754    766     1
    755    761     1
    755    762     1
    755   1132     1
    756    763     1
    756    764     1
    756   1144     1
    757    770     1
    757    761     1
    757    762     1
    758    770     1
    758    761     1
    758    762     1
    759    770     1
    759    763     1
    759    764     1
    760    770     1
    760    763     1
    760    764     1
    761   1131     1
    762   1131     1
    763   1143     1
    764   1143     1
    765    770     1
    765    767     1
    765    768     1
    766    770     1
    766    767     1
    766    768     1
    767    769     1
    768    769     1
    771    777     1
    771    778     1
    772    774     1
    772    775     1
    772    776     1
    773    780     1
    773    781     1
    773    782     1
    775    779     1
    775    777     1
    775    778     1
    776    779     1
    776    777     1
    776    778     1
    777    780     1
    777    781     1
    777    782     1
    778    780     1
    778    781     1
    778    782     1
    783    789     1
    783    790     1
    784    786     1
    784    787     1
    784    788     1
    785    792     1
    785    793     1
    785    794     1
    787    791     1
    787    789     1
    787    790     1
    788    791     1
    788    789     1
    788    790     1
    789    792     1
    789    793     1
    789    794     1
    790    792     1
    790    793     1
    790    794     1
    795    801     1
    795    802     1
    796    798     1
    796    799     1
    796    800     1
    797    804     1
    797    805     1
    797    806     1
    799    803     1
    799    801     1
    799    802     1
    800    803     1
    800    801     1
    800    802     1
    801    804     1
    801    805     1
    801    806     1
    802    804     1
    802    805     1
    802    806     1
    807    813     1
    807    814     1
    808    810     1
    808    811     1
    808    812     1
    809    816     1
    809    817     1
    809    818     1
    811    815     1
    811    813     1
    811    814     1
    812    815     1
    812    813     1
    812    814     1
    813    816     1
    813    817     1
    813    818     1
    814    816     1
    814    817     1
    814    818     1
    819    825     1
    819    826     1
    820    822     1
    820    823     1
    820    824     1
    821    828     1
    821    829     1
    821    830     1
    823    827     1
    823    825     1
    823    826     1
    824    827     1
    824    825     1
    824    826     1
    825    828     1
    825    829     1
    825    830     1
    826    828     1
    826    829     1
    826    830     1
    831    837     1
    831    838     1
    832    834     1
    832    835     1
    832    836     1
    833    840     1
    833    841     1
    833    842     1
    835    839     1
    835    837     1
    835    838     1
    836    839     1
    836    837     1
    836    838     1
    837    840     1
    837    841     1
    837    842     1
    838    840     1
    838    841     1
    838    842     1
    843    849     1
    843    850     1
    844    846     1
    844    847     1
    844    848     1
    845    852     1
    845    853     1
    845    854     1
    847    851     1
    847    849     1
    847    850     1
    848    851     1
    848    849     1
    848    850     1
    849    852     1
    849    853     1
    849    854     1
    850    852     1
    850    853     1
    850    854     1
    855    861     1
    855    862     1
    856    858     1
    856    859     1
    856    860     1
    857    864     1
    857    865     1
    857    866     1
    859    863     1
    859    861     1
    859    862     1
    860    863     1
    860    861     1
    860    862     1
    861    864     1
    861    865     1
    861    866     1
    862    864     1
    862    865     1
    862    866     1
    867    873     1
    867    874     1
    868    870     1
    868    871     1
    868    872     1
    869    876     1
    869    877     1
    869    878     1
    871    875     1
    871    873     1
    871    874     1
    872    875     1
    872    873     1
    872    874     1
    873    876     1
    873    877     1
    873    878     1
    874    876     1
    874    877     1
    874    878     1
    879    885     1
    879    886     1
    880    882     1
    880    883     1
    880    884     1
    881    888     1
    881    889     1
    881    890     1
    883    887     1
    883    885     1
    883    886     1
    884    887     1
    884    885     1
    884    886     1
    885    888     1
    885    889     1
    885    890     1
    886    888     1
    886    889     1
    886    890     1
    891    897     1
    891    898     1
    892    894     1
    892    895     1
    892    896     1
    893    900     1
    893    901     1
    893    902     1
    895    899     1
    895    897     1
    895    898     1
    896    899     1
    896    897     1
    896    898     1
    897    900     1
    897    901     1
    897    902     1
    898    900     1
    898    901     1
    898    902     1
    903    909     1
    903    910     1
    904    906     1
    904    907     1
    904    908     1
    905    912     1
    905    913     1
    905    914     1
    907    911     1
    907    909     1
    907    910     1
    908    911     1
    908    909     1
    908    910     1
    909    912     1
    909    913     1
    909    914     1
    910    912     1
    910    913     1
    910    914     1
    915    921     1
    915    922     1
    916    918     1
    916    919     1
    916    920     1
    917    924     1
    917    925     1
    917    926     1
    919    923     1
    919    921     1
    919    922     1
    920    923     1
    920    921     1
    920    922     1
    921    924     1
    921    925     1
    921    926     1
    922    924     1
    922    925     1
    922    926     1
    927    933     1
    927    934     1
    928    930     1
    928    931     1
    928    932     1
    929    936     1
    929    937     1
    929    938     1
    931    935     1
    931    933     1
    931    934     1
    932    935     1
    932    933     1
    932    934     1
    933    936     1
    933    937     1
    933    938     1
    934    936     1
    934    937     1
    934    938     1
    939    945     1
    939    946     1
    940    942     1
    940    943     1
    940    944     1
    941    948     1
    941    949     1
    941    950     1
    943    947     1
    943    945     1
    943    946     1
    944    947     1
    944    945     1
    944    946     1
    945    948     1
    945    949     1
    945    950     1
    946    948     1
    946    949     1
    946    950     1
    951    957     1
    951    958     1
    952    954     1
    952    955     1
    952    956     1
    953    960     1
    953    961     1
    953    962     1
    955    959     1
    955    957     1
    955    958     1
    956    959     1
    956    957     1
    956    958     1
    957    960     1
    957    961     1
    957    962     1
    958    960     1
    958    961     1
    958    962     1
    963    969     1
    963    970     1
    964    966     1
    964    967     1
    964    968     1
    965    972     1
    965    973     1
    965    974     1
    967    971     1
    967    969     1
    967    970     1
    968    971     1
    968    969     1
    968    970     1
    969    972     1
    969    973     1
    969    974     1
    970    972     1
    970    973     1
    970    974     1
    975    981     1
    975    982     1
    976    978     1
    976    979     1
    976    980     1
    977    984     1
    977    985     1
    977    986     1
    979    983     1
    979    981     1
    979    982     1
    980    983     1
    980    981     1
    980    982     1
    981    984     1
    981    985     1
    981    986     1
    982    984     1
    982    985     1
    982    986     1
    987    993     1
    987    994     1
    988    990     1
    988    991     1
    988    992     1
    989    996     1
    989    997     1
    989    998     1
    991    995     1
    991    993     1
    991    994     1
    992    995     1
    992    993     1
    992    994     1
    993    996     1
    993    997     1
    993    998     1
    994    996     1
    994    997     1
    994    998     1
    999   1005     1
    999   1006     1
   1000   1002     1
   1000   1003     1
   1000   1004     1
   1001   1008     1
   1001   1009     1
   1001   1010     1
   1003   1007     1
   1003   1005     1
   1003   1006     1
   1004   1007     1
   1004   1005     1
   1004   1006     1
   1005   1008     1
   1005   1009     1
   1005   1010     1
   1006   1008     1
   1006   1009     1
   1006   1010     1
   1011   1017     1
   1011   1018     1
   1012   1014     1
   1012   1015     1
   1012   1016     1
   1013   1020     1
   1013   1021     1
   1013   1022     1
   1015   1019     1
   1015   1017     1
   1015   1018     1
   1016   1019     1
   1016   1017     1
   1016   1018     1
   1017   1020     1
   1017   1021     1
   1017   1022     1
   1018   1020     1
   1018   1021     1
   1018   1022     1
   1023   1029     1
   1023   1030     1
   1024   1026     1
   1024   1027     1
   1024   1028     1
   1025   1032     1
   1025   1033     1
   1025   1034     1
   1027   1031     1
   1027   1029     1
   1027   1030     1
   1028   1031     1
   1028   1029     1
   1028   1030     1
   1029   1032     1
   1029   1033     1
   1029   1034     1
   1030   1032     1
   1030   1033     1
   1030   1034     1
   1035   1041     1
   1035   1042     1
   1036   1038     1
   1036   1039     1
   1036   1040     1
   1037   1044     1
   1037   1045     1
   1037   1046     1
   1039   1043     1
   1039   1041     1
   1039   1042     1
   1040   1043     1
   1040   1041     1
   1040   1042     1
   1041   1044     1
   1041   1045     1
   1041   1046     1
   1042   1044     1
   1042   1045     1
   1042   1046     1
   1047   1053     1
   1047   1054     1
   1048   1050     1
   1048   1051     1
   1048   1052     1
   1049   1056     1
   1049   1057     1
   1049   1058     1
   1051   1055     1
   1051   1053     1
   1051   1054     1
   1052   1055     1
   1052   1053     1
   1052   1054     1
   1053   1056     1
   1053   1057     1
   1053   1058     1
   1054   1056     1
   1054   1057     1
   1054   1058     1
   1059   1065     1
   1059   1066     1
   1060   1062     1
   1060   1063     1
   1060   1064     1
   1061   1068     1
   1061   1069     1
   1061   1070     1
   1063   1067     1
   1063   1065     1
   1063   1066     1
   1064   1067     1
   1064   1065     1
   1064   1066     1
   1065   1068     1
   1065   1069     1
   1065   1070     1
   1066   1068     1
   1066   1069     1
   1066   1070     1
   1071   1077     1
   1071   1078     1
   1072   1074     1
   1072   1075     1
   1072   1076     1
   1073   1080     1
   1073   1081     1
   1073   1082     1
   1075   1079     1
   1075   1077     1
   1075   1078     1
   1076   1079     1
   1076   1077     1
   1076   1078     1
   1077   1080     1
   1077   1081     1
   1077   1082     1
   1078   1080     1
   1078   1081     1
   1078   1082     1
   1083   1089     1
   1083   1090     1
   1084   1086     1
   1084   1087     1
   1084   1088     1
   1085   1092     1
   1085   1093     1
   1085   1094     1
   1087   1091     1
   1087   1089     1
   1087   1090     1
   1088   1091     1
   1088   1089     1
   1088   1090     1
   1089   1092     1
   1089   1093     1
   1089   1094     1
   1090   1092     1
   1090   1093     1
   1090   1094     1
   1095   1101     1
   1095   1102     1
   1096   1098     1
   1096   1099     1
   1096   1100     1
   1097   1104     1
   1097   1105     1
   1097   1106     1
   1099   1103     1
   1099   1101     1
   1099   1102     1
   1100   1103     1
   1100   1101     1
   1100   1102     1
   1101   1104     1
   1101   1105     1
   1101   1106     1
   1102   1104     1
   1102   1105     1
   1102   1106     1
   1107   1113     1
   1107   1114     1
   1108   1110     1
   1108   1111     1
   1108   1112     1
   1109   1116     1
   1109   1117     1
   1109   1118     1
   1111   1115     1
   1111   1113     1
   1111   1114     1
   1112   1115     1
   1112   1113     1
   1112   1114     1
   1113   1116     1
   1113   1117     1
   1113   1118     1
   1114   1116     1
   1114   1117     1
   1114   1118     1
   1119   1125     1
   1119   1126     1
   1120   1122     1
   1120   1123     1
   1120   1124     1
   1121   1128     1
   1121   1129     1
   1121   1130     1
   1123   1127     1
   1123   1125     1
   1123   1126     1
   1124   1127     1
   1124   1125     1
   1124   1126     1
   1125   1128     1
   1125   1129     1
   1125   1130     1
   1126   1128     1
   1126   1129     1
   1126   1130     1
   1131   1137     1
   1131   1138     1
   1132   1134     1
   1132   1135     1
   1132   1136     1
   1133   1140     1
   1133   1141     1
   1133   1142     1
   1135   1139     1
   1135   1137     1
   1135   1138     1
   1136   1139     1
   1136   1137     1
   1136   1138     1
   1137   1140     1
   1137   1141     1
   1137   1142     1
   1138   1140     1
   1138   1141     1
   1138   1142     1
   1143   1149     1
   1143   1150     1
   1144   1146     1
   1144   1147     1
   1144   1148     1
   1145   1152     1
   1145   1153     1
   1145   1154     1
   1147   1151     1
   1147   1149     1
   1147   1150     1
   1148   1151     1
   1148   1149     1
   1148   1150     1
   1149   1152     1
   1149   1153     1
   1149   1154     1
   1150   1152     1
   1150   1153     1
   1150   1154     1

[ angles ]
;    ai     aj     ak funct         c0         c1         c2         c3
      1      2      3     1   114.2100488 537.225600
      1      7     13     1   114.2100488 537.225600
      1      8     15     1   114.2100488 537.225600
      2      1      7     1   109.6600471 523.836800
      2      1      8     1   109.6600471 523.836800
      2      3      4     1   114.2100488 537.225600
      3      4      5     1   109.6600471 523.836800
      3      4      6     1   109.6600471 523.836800
      4      5     11     1   114.2100488 537.225600
      4      6      9     1   114.2100488 537.225600
      5      4      6     1   109.6600471 523.836800
      5     11     12     1   111.0400475 529.694400
      6      9     10     1   111.0400475 529.694400
      7      1      8     1   109.6600471 523.836800
      7     13     14     1   111.0400475 529.694400
      8     15     16     1   111.0400475 529.694400
      9     10     18     1   123.2000528 564.003200
      9     10     52     1   115.1800491 558.982400
     10     52     51     1   120.6900519 530.531200
     11     12     17     1   123.2000528 564.003200
     11     12     78     1   115.1800491 558.982400
     12     78     77     1   120.6900519 530.531200
     13     14     20     1   123.2000528 564.003200
     13     14    104     1   115.1800491 558.982400
     14    104    103     1   120.6900519 530.531200
     15     16     19     1   123.2000528 564.003200
     15     16    130     1   115.1800491 558.982400
     16    130    129     1   120.6900519 530.531200
     17     12     78     1   123.0500530 620.905600
     18     10     52     1   123.0500530 620.905600
     19     16    130     1   123.0500530 620.905600
     20     14    104     1   123.0500530 620.905600
     43     44     46     1   114.2100488 537.225600
     43     45     48     1   114.2100488 537.225600
     43     50     51     1   114.2100488 537.225600
     44     43     45     1   109.6600471 523.836800
     44     43     50     1   109.6600471 523.836800
     44     46     47     1   111.0400475 529.694400
     45     43     50     1   109.6600471 523.836800
     45     48     49     1   111.0400475 529.694400
     46     47     53     1   123.2000528 564.003200
     46     47    156     1   115.1800491 558.982400
     47    156    155     1   120.6900519 530.531200
     48     49     54     1   123.2000528 564.003200
     48     49    182     1   115.1800491 558.982400
     49    182    181     1   120.6900519 530.531200
     50     51     52     1   111.6100477 551.451200
     53     47    156     1   123.0500530 620.905600
     54     49    182     1   123.0500530 620.905600
     69     70     72     1   114.2100488 537.225600
     69     71     74     1   114.2100488 537.225600
     69     76     77     1   114.2100488 537.225600
     70     69     71     1   109.6600471 523.836800
     70     69     76     1   109.6600471 523.836800
     70     72     73     1   111.0400475 529.694400
     71     69     76     1   109.6600471 523.836800
     71     74     75     1   111.0400475 529.694400
     72     73     79     1   123.2000528 564.003200
     72     73    208     1   115.1800491 558.982400
     73    208    207     1   120.6900519 530.531200
     74     75     80     1   123.2000528 564.003200
     74     75    234     1   115.1800491 558.982400
     75    234    233     1   120.6900519 530.531200
     76     77     78     1   111.6100477 551.451200
     79     73    208     1   123.0500530 620.905600
     80     75    234     1   123.0500530 620.905600
     95     96     98     1   114.2100488 537.225600
     95     97    100     1   114.2100488 537.225600
     95    102    103     1   114.2100488 537.225600
     96     95     97     1   109.6600471 523.836800
     96     95    102     1   109.6600471 523.836800
     96     98     99     1   111.0400475 529.694400
     97     95    102     1   109.6600471 523.836800
     97    100    101     1   111.0400475 529.694400
     98     99    105     1   123.2000528 564.003200
     98     99    260     1   115.1800491 558.982400
     99    260    259     1   120.6900519 530.531200
    100    101    106     1   123.2000528 564.003200
    100    101    286     1   115.1800491 558.982400
    101    286    285     1   120.6900519 530.531200
    102    103    104     1   111.6100477 551.451200
    105     99    260     1   123.0500530 620.905600
    106    101    286     1   123.0500530 620.905600
    121    122    124     1   114.2100488 537.225600
    121    123    126     1   114.2100488 537.225600
    121    128    129     1   114.2100488 537.225600
    122    121    123     1   109.6600471 523.836800
    122    121    128     1   109.6600471 523.836800
    122    124    125     1   111.0400475 529.694400
    123    121    128     1   109.6600471 523.836800
    123    126    127     1   111.0400475 529.694400
    124    125    131     1   123.2000528 564.003200
    124    125    312     1   115.1800491 558.982400
    125    312    311     1   120.6900519 530.531200
    126    127    132     1   123.2000528 564.003200
    126    127    338     1   115.1800491 558.982400
    127    338    337     1   120.6900519 530.531200
    128    129    130     1   111.6100477 551.451200
    131    125    312     1   123.0500530 620.905600
    132    127    338     1   123.0500530 620.905600
    147    148    150     1   114.2100488 537.225600
    147    149    152     1   114.2100488 537.225600
    147    154    155     1   114.2100488 537.225600
    148    147    149     1   109.6600471 523.836800
    148    147    154     1   109.6600471 523.836800
    148    150    151     1   111.0400475 529.694400
    149    147    154     1   109.6600471 523.836800
    149    152    153     1   111.0400475 529.694400
    150    151    157     1   123.2000528 564.003200
    150    151    364     1   115.1800491 558.982400
    151    364    363     1   120.6900519 530.531200
    152    153    158     1   123.2000528 564.003200
    152    153    390     1   115.1800491 558.982400
    153    390    389     1   120.6900519 530.531200
    154    155    156     1   111.6100477 551.451200
    157    151    364     1   123.0500530 620.905600
    158    153    390     1   123.0500530 620.905600
    173    174    176     1   114.2100488 537.225600
    173    175    178     1   114.2100488 537.225600
    173    180    181     1   114.2100488 537.225600
    174    173    175     1   109.6600471 523.836800
    174    173    180     1   109.6600471 523.836800
    174    176    177     1   111.0400475 529.694400
    175    173    180     1   109.6600471 523.836800
    175    178    179     1   111.0400475 529.694400
    176    177    183     1   123.2000528 564.003200
    176    177    416     1   115.1800491 558.982400
    177    416    415     1   120.6900519 530.531200
    178    179    184     1   123.2000528 564.003200
    178    179    442     1   115.1800491 558.982400
    179    442    441     1   120.6900519 530.531200
    180    181    182     1   111.6100477 551.451200
    183    177    416     1   123.0500530 620.905600
    184    179    442     1   123.0500530 620.905600
    199    200    202     1   114.2100488 537.225600
    199    201    204     1   114.2100488 537.225600
    199    206    207     1   114.2100488 537.225600
    200    199    201     1   109.6600471 523.836800
    200    199    206     1   109.6600471 523.836800
    200    202    203     1   111.0400475 529.694400
    201    199    206     1   109.6600471 523.836800
    201    204    205     1   111.0400475 529.694400
    202    203    209     1   123.2000528 564.003200
    202    203    468     1   115.1800491 558.982400
    203    468    467     1   120.6900519 530.531200
    204    205    210     1   123.2000528 564.003200
    204    205    494     1   115.1800491 558.982400
    205    494    493     1   120.6900519 530.531200
    206    207    208     1   111.6100477 551.451200
    209    203    468     1   123.0500530 620.905600
    210    205    494     1   123.0500530 620.905600
    225    226    228     1   114.2100488 537.225600
    225    227    230     1   114.2100488 537.225600
    225    232    233     1   114.2100488 537.225600
    226    225    227     1   109.6600471 523.836800
    226    225    232     1   109.6600471 523.836800
    226    228    229     1   111.0400475 529.694400
    227    225    232     1   109.6600471 523.836800
    227    230    231     1   111.0400475 529.694400
    228    229    235     1   123.2000528 564.003200
    228    229    520     1   115.1800491 558.982400
    229    520    519     1   120.6900519 530.531200
    230    231    236     1   123.2000528 564.003200
    230    231    546     1   115.1800491 558.982400
    231    546    545     1   120.6900519 530.531200
    232    233    234     1   111.6100477 551.451200
    235    229    520     1   123.0500530 620.905600
    236    231    546     1   123.0500530 620.905600
    251    252    254     1   114.2100488 537.225600
    251    253    256     1   114.2100488 537.225600
    251    258    259     1   114.2100488 537.225600
    252    251    253     1   109.6600471 523.836800
    252    251    258     1   109.6600471 523.836800
    252    254    255     1   111.0400475 529.694400
    253    251    258     1   109.6600471 523.836800
    253    256    257     1   111.0400475 529.694400
    254    255    261     1   123.2000528 564.003200
    254    255    572     1   115.1800491 558.982400
    255    572    571     1   120.6900519 530.531200
    256    257    262     1   123.2000528 564.003200
    256    257    598     1   115.1800491 558.982400
    257    598    597     1   120.6900519 530.531200
    258    259    260     1   111.6100477 551.451200
    261    255    572     1   123.0500530 620.905600
    262    257    598     1   123.0500530 620.905600
    277    278    280     1   114.2100488 537.225600
    277    279    282     1   114.2100488 537.225600
    277    284    285     1   114.2100488 537.225600
    278    277    279     1   109.6600471 523.836800
    278    277    284     1   109.6600471 523.836800
    278    280    281     1   111.0400475 529.694400
    279    277    284     1   109.6600471 523.836800
    279    282    283     1   111.0400475 529.694400
    280    281    287     1   123.2000528 564.003200
    280    281    624     1   115.1800491 558.982400
    281    624    623     1   120.6900519 530.531200
    282    283    288     1   123.2000528 564.003200
    282    283    650     1   115.1800491 558.982400
    283    650    649     1   120.6900519 530.531200
    284    285    286     1   111.6100477 551.451200
    287    281    624     1   123.0500530 620.905600
    288    283    650     1   123.0500530 620.905600
    303    304    306     1   114.2100488 537.225600
    303    305    308     1   114.2100488 537.225600
    303    310    311     1   114.2100488 537.225600
    304    303    305     1   109.6600471 523.836800
    304    303    310     1   109.6600471 523.836800
    304    306    307     1   111.0400475 529.694400
    305    303    310     1   109.6600471 523.836800
    305    308    309     1   111.0400475 529.694400
    306    307    313     1   123.2000528 564.003200
    306    307    676     1   115.1800491 558.982400
    307    676    675     1   120.6900519 530.531200
    308    309    314     1   123.2000528 564.003200
    308    309    702     1   115.1800491 558.982400
    309    702    701     1   120.6900519 530.531200
    310    311    312     1   111.6100477 551.451200
    313    307    676     1   123.0500530 620.905600
    314    309    702     1   123.0500530 620.905600
    329    330    332     1   114.2100488 537.225600
    329    331    334     1   114.2100488 537.225600
    329    336    337     1   114.2100488 537.225600
    330    329    331     1   109.6600471 523.836800
    330    329    336     1   109.6600471 523.836800
    330    332    333     1   111.0400475 529.694400
    331    329    336     1   109.6600471 523.836800
    331    334    335     1   111.0400475 529.694400
    332    333    339     1   123.2000528 564.003200
    332    333    728     1   115.1800491 558.982400
    333    728    727     1   120.6900519 530.531200
    334    335    340     1   123.2000528 564.003200
    334    335    754     1   115.1800491 558.982400
    335    754    753     1   120.6900519 530.531200
    336    337    338     1   111.6100477 551.451200
    339    333    728     1   123.0500530 620.905600
    340    335    754     1   123.0500530 620.905600
    355    356    358     1   114.2100488 537.225600
    355    357    360     1   114.2100488 537.225600
    355    362    363     1   114.2100488 537.225600
    356    355    357     1   109.6600471 523.836800
    356    355    362     1   109.6600471 523.836800
    356    358    359     1   111.0400475 529.694400
    357    355    362     1   109.6600471 523.836800
    357    360    361     1   111.0400475 529.694400
    358    359    771     1   115.1800491 558.982400
    358    359    365     1   123.2000528 564.003200
    359    771    773     1   120.6900519 530.531200
    360    361    366     1   123.2000528 564.003200
    360    361    783     1   115.1800491 558.982400
    361    783    785     1   120.6900519 530.531200
    362    363    364     1   111.6100477 551.451200
    365    359    771     1   123.0500530 620.905600
    366    361    783     1   123.0500530 620.905600
    381    382    384     1   114.2100488 537.225600
    381    383    386     1   114.2100488 537.225600
    381    388    389     1   114.2100488 537.225600
    382    381    383     1   109.6600471 523.836800
    382    381    388     1   109.6600471 523.836800
    382    384    385     1   111.0400475 529.694400
    383    381    388     1   109.6600471 523.836800
    383    386    387     1   111.0400475 529.694400
    384    385    795     1   115.1800491 558.982400
    384    385    391     1   123.2000528 564.003200
    385    795    797     1   120.6900519 530.531200
    386    387    392     1   123.2000528 564.003200
    386    387    807     1   115.1800491 558.982400
    387    807    809     1   120.6900519 530.531200
    388    389    390     1   111.6100477 551.451200
    391    385    795     1   123.0500530 620.905600
    392    387    807     1   123.0500530 620.905600
    407    408    410     1   114.2100488 537.225600
    407    409    412     1   114.2100488 537.225600
    407    414    415     1   114.2100488 537.225600
    408    407    409     1   109.6600471 523.836800
    408    407    414     1   109.6600471 523.836800
    408    410    411     1   111.0400475 529.694400
    409    407    414     1   109.6600471 523.836800
    409    412    413     1   111.0400475 529.694400
    410    411    819     1   115.1800491 558.982400
    410    411    417     1   123.2000528 564.003200
    411    819    821     1   120.6900519 530.531200
    412    413    418     1   123.2000528 564.003200
    412    413    831     1   115.1800491 558.982400
    413    831    833     1   120.6900519 530.531200
    414    415    416     1   111.6100477 551.451200
    417    411    819     1   123.0500530 620.905600
    418    413    831     1   123.0500530 620.905600
    433    434    436     1   114.2100488 537.225600
    433    435    438     1   114.2100488 537.225600
    433    440    441     1   114.2100488 537.225600
    434    433    435     1   109.6600471 523.836800
    434    433    440     1   109.6600471 523.836800
    434    436    437     1   111.0400475 529.694400
    435    433    440     1   109.6600471 523.836800
    435    438    439     1   111.0400475 529.694400
    436    437    843     1   115.1800491 558.982400
    436    437    443     1   123.2000528 564.003200
    437    843    845     1   120.6900519 530.531200
    438    439    444     1   123.2000528 564.003200
    438    439    855     1   115.1800491 558.982400
    439    855    857     1   120.6900519 530.531200
    440    441    442     1   111.6100477 551.451200
    443    437    843     1   123.0500530 620.905600
    444    439    855     1   123.0500530 620.905600
    459    460    462     1   114.2100488 537.225600
    459    461    464     1   114.2100488 537.225600
    459    466    467     1   114.2100488 537.225600
    460    459    461     1   109.6600471 523.836800
    460    459    466     1   109.6600471 523.836800
    460    462    463     1   111.0400475 529.694400
    461    459    466     1   109.6600471 523.836800
    461    464    465     1   111.0400475 529.694400
    462    463    867     1   115.1800491 558.982400
    462    463    469     1   123.2000528 564.003200
    463    867    869     1   120.6900519 530.531200
    464    465    470     1   123.2000528 564.003200
    464    465    879     1   115.1800491 558.982400
    465    879    881     1   120.6900519 530.531200
    466    467    468     1   111.6100477 551.451200
    469    463    867     1   123.0500530 620.905600
    470    465    879     1   123.0500530 620.905600
    485    486    488     1   114.2100488 537.225600
    485    487    490     1   114.2100488 537.225600
    485    492    493     1   114.2100488 537.225600
    486    485    487     1   109.6600471 523.836800
    486    485    492     1   109.6600471 523.836800
    486    488    489     1   111.0400475 529.694400
    487    485    492     1   109.6600471 523.836800
    487    490    491     1   111.0400475 529.694400
    488    489    891     1   115.1800491 558.982400
    488    489    495     1   123.2000528 564.003200
    489    891    893     1   120.6900519 530.531200
    490    491    496     1   123.2000528 564.003200
    490    491    903     1   115.1800491 558.982400
    491    903    905     1   120.6900519 530.531200
    492    493    494     1   111.6100477 551.451200
    495    489    891     1   123.0500530 620.905600
    496    491    903     1   123.0500530 620.905600
    511    512    514     1   114.2100488 537.225600
    511    513    516     1   114.2100488 537.225600
    511    518    519     1   114.2100488 537.225600
    512    511    513     1   109.6600471 523.836800
    512    511    518     1   109.6600471 523.836800
    512    514    515     1   111.0400475 529.694400
    513    511    518     1   109.6600471 523.836800
    513    516    517     1   111.0400475 529.694400
    514    515    915     1   115.1800491 558.982400
    514    515    521     1   123.2000528 564.003200
    515    915    917     1   120.6900519 530.531200
    516    517    522     1   123.2000528 564.003200
    516    517    927     1   115.1800491 558.982400
    517    927    929     1   120.6900519 530.531200
    518    519    520     1   111.6100477 551.451200
    521    515    915     1   123.0500530 620.905600
    522    517    927     1   123.0500530 620.905600
    537    538    540     1   114.2100488 537.225600
    537    539    542     1   114.2100488 537.225600
    537    544    545     1   114.2100488 537.225600
    538    537    539     1   109.6600471 523.836800
    538    537    544     1   109.6600471 523.836800
    538    540    541     1   111.0400475 529.694400
    539    537    544     1   109.6600471 523.836800
    539    542    543     1   111.0400475 529.694400
    540    541    939     1   115.1800491 558.982400
    540    541    547     1   123.2000528 564.003200
    541    939    941     1   120.6900519 530.531200
    542    543    548     1   123.2000528 564.003200
    542    543    951     1   115.1800491 558.982400
    543    951    953     1   120.6900519 530.531200
    544    545    546     1   111.6100477 551.451200
    547    541    939     1   123.0500530 620.905600
    548    543    951     1   123.0500530 620.905600
    563    564    566     1   114.2100488 537.225600
    563    565    568     1   114.2100488 537.225600
    563    570    571     1   114.2100488 537.225600
    564    563    565     1   109.6600471 523.836800
    564    563    570     1   109.6600471 523.836800
    564    566    567     1   111.0400475 529.694400
    565    563    570     1   109.6600471 523.836800
    565    568    569     1   111.0400475 529.694400
    566    567    963     1   115.1800491 558.982400
    566    567    573     1   123.2000528 564.003200
    567    963    965     1   120.6900519 530.531200
    568    569    574     1   123.2000528 564.003200
    568    569    975     1   115.1800491 558.982400
    569    975    977     1   120.6900519 530.531200
    570    571    572     1   111.6100477 551.451200
    573    567    963     1   123.0500530 620.905600
    574    569    975     1   123.0500530 620.905600
    589    590    592     1   114.2100488 537.225600
    589    591    594     1   114.2100488 537.225600
    589    596    597     1   114.2100488 537.225600
    590    589    591     1   109.6600471 523.836800
    590    589    596     1   109.6600471 523.836800
    590    592    593     1   111.0400475 529.694400
    591    589    596     1   109.6600471 523.836800
    591    594    595     1   111.0400475 529.694400
    592    593    987     1   115.1800491 558.982400
    592    593    599     1   123.2000528 564.003200
    593    987    989     1   120.6900519 530.531200
    594    595    600     1   123.2000528 564.003200
    594    595    999     1   115.1800491 558.982400
    595    999   1001     1   120.6900519 530.531200
    596    597    598     1   111.6100477 551.451200
    599    593    987     1   123.0500530 620.905600
    600    595    999     1   123.0500530 620.905600
    615    616    618     1   114.2100488 537.225600
    615    617    620     1   114.2100488 537.225600
    615    622    623     1   114.2100488 537.225600
    616    615    617     1   109.6600471 523.836800
    616    615    622     1   109.6600471 523.836800
    616    618    619     1   111.0400475 529.694400
    617    615    622     1   109.6600471 523.836800
    617    620    621     1   111.0400475 529.694400
    618    619   1011     1   115.1800491 558.982400
    618    619    625     1   123.2000528 564.003200
    619   1011   1013     1   120.6900519 530.531200
    620    621    626     1   123.2000528 564.003200
    620    621   1023     1   115.1800491 558.982400
    621   1023   1025     1   120.6900519 530.531200
    622    623    624     1   111.6100477 551.451200
    625    619   1011     1   123.0500530 620.905600
    626    621   1023     1   123.0500530 620.905600
    641    642    644     1   114.2100488 537.225600
    641    643    646     1   114.2100488 537.225600
    641    648    649     1   114.2100488 537.225600
    642    641    643     1   109.6600471 523.836800
    642    641    648     1   109.6600471 523.836800
    642    644    645     1   111.0400475 529.694400
    643    641    648     1   109.6600471 523.836800
    643    646    647     1   111.0400475 529.694400
    644    645   1035     1   115.1800491 558.982400
    644    645    651     1   123.2000528 564.003200
    645   1035   1037     1   120.6900519 530.531200
    646    647    652     1   123.2000528 564.003200
    646    647   1047     1   115.1800491 558.982400
    647   1047   1049     1   120.6900519 530.531200
    648    649    650     1   111.6100477 551.451200
    651    645   1035     1   123.0500530 620.905600
    652    647   1047     1   123.0500530 620.905600
    667    668    670     1   114.2100488 537.225600
    667    669    672     1   114.2100488 537.225600
    667    674    675     1   114.2100488 537.225600
    668    667    669     1   109.6600471 523.836800
    668    667    674     1   109.6600471 523.836800
    668    670    671     1   111.0400475 529.694400
    669    667    674     1   109.6600471 523.836800
    669    672    673     1   111.0400475 529.694400
    670    671   1059     1   115.1800491 558.982400
    670    671    677     1   123.2000528 564.003200
    671   1059   1061     1   120.6900519 530.531200
    672    673    678     1   123.2000528 564.003200
    672    673   1071     1   115.1800491 558.982400
    673   1071   1073     1   120.6900519 530.531200
    674    675    676     1   111.6100477 551.451200
    677    671   1059     1   123.0500530 620.905600
    678    673   1071     1   123.0500530 620.905600
    693    694    696     1   114.2100488 537.225600
    693    695    698     1   114.2100488 537.225600
    693    700    701     1   114.2100488 537.225600
    694    693    695     1   109.6600471 523.836800
    694    693    700     1   109.6600471 523.836800
    694    696    697     1   111.0400475 529.694400
    695    693    700     1   109.6600471 523.836800
    695    698    699     1   111.0400475 529.694400
    696    697   1083     1   115.1800491 558.982400
    696    697    703     1   123.2000528 564.003200
    697   1083   1085     1   120.6900519 530.531200
    698    699    704     1   123.2000528 564.003200
    698    699   1095     1   115.1800491 558.982400
    699   1095   1097     1   120.6900519 530.531200
    700    701    702     1   111.6100477 551.451200
    703    697   1083     1   123.0500530 620.905600
    704    699   1095     1   123.0500530 620.905600
    719    720    722     1   114.2100488 537.225600
    719    721    724     1   114.2100488 537.225600
    719    726    727     1   114.2100488 537.225600
    720    719    721     1   109.6600471 523.836800
    720    719    726     1   109.6600471 523.836800
    720    722    723     1   111.0400475 529.694400
    721    719    726     1   109.6600471 523.836800
    721    724    725     1   111.0400475 529.694400
    722    723   1107     1   115.1800491 558.982400
    722    723    729     1   123.2000528 564.003200
    723   1107   1109     1   120.6900519 530.531200
    724    725    730     1   123.2000528 564.003200
    724    725   1119     1   115.1800491 558.982400
    725   1119   1121     1   120.6900519 530.531200
    726    727    728     1   111.6100477 551.451200
    729    723   1107     1   123.0500530 620.905600
    730    725   1119     1   123.0500530 620.905600
    745    746    748     1   114.2100488 537.225600
    745    747    750     1   114.2100488 537.225600
    745    752    753     1   114.2100488 537.225600
    746    745    747     1   109.6600471 523.836800
    746    745    752     1   109.6600471 523.836800
    746    748    749     1   111.0400475 529.694400
    747    745    752     1   109.6600471 523.836800
    747    750    751     1   111.0400475 529.694400
    748    749   1131     1   115.1800491 558.982400
    748    749    755     1   123.2000528 564.003200
    749   1131   1133     1   120.6900519 530.531200
    750    751   1143     1   115.1800491 558.982400
    750    751    756     1   123.2000528 564.003200
    751   1143   1145     1   120.6900519 530.531200
    752    753    754     1   111.6100477 551.451200
    755    749   1131     1   123.0500530 620.905600
    756    751   1143     1   123.0500530 620.905600
    771    773    774     1   111.6100477 551.451200
    773    774    779     1   114.2100488 537.225600
    783    785    786     1   111.6100477 551.451200
    785    786    791     1   114.2100488 537.225600
    795    797    798     1   111.6100477 551.451200
    797    798    803     1   114.2100488 537.225600
    807    809    810     1   111.6100477 551.451200
    809    810    815     1   114.2100488 537.225600
    819    821    822     1   111.6100477 551.451200
    821    822    827     1   114.2100488 537.225600
    831    833    834     1   111.6100477 551.451200
    833    834    839     1   114.2100488 537.225600
    843    845    846     1   111.6100477 551.451200
    845    846    851     1   114.2100488 537.225600
    855    857    858     1   111.6100477 551.451200
    857    858    863     1   114.2100488 537.225600
    867    869    870     1   111.6100477 551.451200
    869    870    875     1   114.2100488 537.225600
    879    881    882     1   111.6100477 551.451200
    881    882    887     1   114.2100488 537.225600
    891    893    894     1   111.6100477 551.451200
    893    894    899     1   114.2100488 537.225600
    903    905    906     1   111.6100477 551.451200
    905    906    911     1   114.2100488 537.225600
    915    917    918     1   111.6100477 551.451200
    917    918    923     1   114.2100488 537.225600
    927    929    930     1   111.6100477 551.451200
    929    930    935     1   114.2100488 537.225600
    939    941    942     1   111.6100477 551.451200
    941    942    947     1   114.2100488 537.225600
    951    953    954     1   111.6100477 551.451200
    953    954    959     1   114.2100488 537.225600
    963    965    966     1   111.6100477 551.451200
    965    966    971     1   114.2100488 537.225600
    975    977    978     1   111.6100477 551.451200
    977    978    983     1   114.2100488 537.225600
    987    989    990     1   111.6100477 551.451200
    989    990    995     1   114.2100488 537.225600
    999   1001   1002     1   111.6100477 551.451200
   1001   1002   1007     1   114.2100488 537.225600
   1011   1013   1014     1   111.6100477 551.451200
   1013   1014   1019     1   114.2100488 537.225600
   1023   1025   1026     1   111.6100477 551.451200
   1025   1026   1031     1   114.2100488 537.225600
   1035   1037   1038     1   111.6100477 551.451200
   1037   1038   1043     1   114.2100488 537.225600
   1047   1049   1050     1   111.6100477 551.451200
   1049   1050   1055     1   114.2100488 537.225600
   1059   1061   1062     1   111.6100477 551.451200
   1061   1062   1067     1   114.2100488 537.225600
   1071   1073   1074     1   111.6100477 551.451200
   1073   1074   1079     1   114.2100488 537.225600
   1083   1085   1086     1   111.6100477 551.451200
   1085   1086   1091     1   114.2100488 537.225600
   1095   1097   1098     1   111.6100477 551.451200
   1097   1098   1103     1   114.2100488 537.225600
   1107   1109   1110     1   111.6100477 551.451200
   1109   1110   1115     1   114.2100488 537.225600
   1119   1121   1122     1   111.6100477 551.451200
   1121   1122   1127     1   114.2100488 537.225600
   1131   1133   1134     1   111.6100477 551.451200
   1133   1134   1139     1   114.2100488 537.225600
   1143   1145   1146     1   111.6100477 551.451200
   1145   1146   1151     1   114.2100488 537.225600
      1      2     21     1   108.0100461 406.684800
      1      2     22     1   108.0100461 406.684800
      1      7     29     1   108.0100461 406.684800
      1      7     30     1   108.0100461 406.684800
      1      8     31     1   108.0100461 406.684800
      1      8     32     1   108.0100461 406.684800
      2      1     41     1   110.1100470 384.091200
      2      3     23     1   110.5600475 386.601600
      2      3     24     1   110.5600475 386.601600
      3      2     21     1   110.5600475 386.601600
      3      2     22     1   110.5600475 386.601600
      3      4     42     1   110.1100470 384.091200
      4      3     23     1   108.0100461 406.684800
      4      3     24     1   108.0100461 406.684800
      4      5     25     1   108.0100461 406.684800
      4      5     26     1   108.0100461 406.684800
      4      6     27     1   108.0100461 406.684800
      4      6     28     1   108.0100461 406.684800
      5      4     42     1   110.1100470 384.091200
      5     11     35     1   109.8000471 387.438400
      5     11     36     1   109.8000471 387.438400
      6      4     42     1   110.1100470 384.091200
      6      9     33     1   109.8000471 387.438400
      6      9     34     1   109.8000471 387.438400
      7      1     41     1   110.1100470 384.091200
      7     13     37     1   109.8000471 387.438400
      7     13     38     1   109.8000471 387.438400
      8      1     41     1   110.1100470 384.091200
      8     15     39     1   109.8000471 387.438400
      8     15     40     1   109.8000471 387.438400
      9      6     27     1   110.5600475 386.601600
      9      6     28     1   110.5600475 386.601600
     10      9     33     1   108.7700466 392.459200
     10      9     34     1   108.7700466 392.459200
     10     52     67     1   117.5500507 404.174400
     11      5     25     1   110.5600475 386.601600
     11      5     26     1   110.5600475 386.601600
     12     11     35     1   108.7700466 392.459200
     12     11     36     1   108.7700466 392.459200
     12     78     93     1   117.5500507 404.174400
     13      7     29     1   110.5600475 386.601600
     13      7     30     1   110.5600475 386.601600
     14     13     37     1   108.7700466 392.459200
     14     13     38     1   108.7700466 392.459200
     14    104    119     1   117.5500507 404.174400
     15      8     31     1   110.5600475 386.601600
     15      8     32     1   110.5600475 386.601600
     16     15     39     1   108.7700466 392.459200
     16     15     40     1   108.7700466 392.459200
     16    130    145     1   117.5500507 404.174400
     21      2     22     1   109.7500473 328.025600
     23      3     24     1   109.7500473 328.025600
     25      5     26     1   109.7500473 328.025600
     27      6     28     1   109.7500473 328.025600
     29      7     30     1   109.7500473 328.025600
     31      8     32     1   109.7500473 328.025600
     33      9     34     1   107.5800459 329.699200
     35     11     36     1   107.5800459 329.699200
     37     13     38     1   107.5800459 329.699200
     39     15     40     1   107.5800459 329.699200
     43     44     55     1   108.0100461 406.684800
     43     44     56     1   108.0100461 406.684800
     43     45     57     1   108.0100461 406.684800
     43     45     58     1   108.0100461 406.684800
     43     50     63     1   108.0100461 406.684800
     43     50     64     1   108.0100461 406.684800
     44     43     68     1   110.1100470 384.091200
     44     46     59     1   109.8000471 387.438400
     44     46     60     1   109.8000471 387.438400
     45     43     68     1   110.1100470 384.091200
     45     48     61     1   109.8000471 387.438400
     45     48     62     1   109.8000471 387.438400
     46     44     55     1   110.5600475 386.601600
     46     44     56     1   110.5600475 386.601600
     47     46     59     1   108.7700466 392.459200
     47     46     60     1   108.7700466 392.459200
     47    156    171     1   117.5500507 404.174400
     48     45     57     1   110.5600475 386.601600
     48     45     58     1   110.5600475 386.601600
     49     48     61     1   108.7700466 392.459200
     49     48     62     1   108.7700466 392.459200
     49    182    197     1   117.5500507 404.174400
     50     43     68     1   110.1100470 384.091200
     50     51     65     1   109.5600471 388.275200
     50     51     66     1   109.5600471 388.275200
     51     50     63     1   110.5600475 386.601600
     51     50     64     1   110.5600475 386.601600
     51     52     67     1   117.6800502 383.254400
     52     51     65     1   108.8800464 416.726400
     52     51     66     1   108.8800464 416.726400
     55     44     56     1   109.7500473 328.025600
     57     45     58     1   109.7500473 328.025600
     59     46     60     1   107.5800459 329.699200
     61     48     62     1   107.5800459 329.699200
     63     50     64     1   109.7500473 328.025600
     65     51     66     1   108.4600466 328.025600
     69     70     81     1   108.0100461 406.684800
     69     70     82     1   108.0100461 406.684800
     69     71     83     1   108.0100461 406.684800
     69     71     84     1   108.0100461 406.684800
     69     76     89     1   108.0100461 406.684800
     69     76     90     1   108.0100461 406.684800
     70     69     94     1   110.1100470 384.091200
     70     72     85     1   109.8000471 387.438400
     70     72     86     1   109.8000471 387.438400
     71     69     94     1   110.1100470 384.091200
     71     74     87     1   109.8000471 387.438400
     71     74     88     1   109.8000471 387.438400
     72     70     81     1   110.5600475 386.601600
     72     70     82     1   110.5600475 386.601600
     73     72     85     1   108.7700466 392.459200
     73     72     86     1   108.7700466 392.459200
     73    208    223     1   117.5500507 404.174400
     74     71     83     1   110.5600475 386.601600
     74     71     84     1   110.5600475 386.601600
     75     74     87     1   108.7700466 392.459200
     75     74     88     1   108.7700466 392.459200
     75    234    249     1   117.5500507 404.174400
     76     69     94     1   110.1100470 384.091200
     76     77     91     1   109.5600471 388.275200
     76     77     92     1   109.5600471 388.275200
     77     76     89     1   110.5600475 386.601600
     77     76     90     1   110.5600475 386.601600
     77     78     93     1   117.6800502 383.254400
     78     77     91     1   108.8800464 416.726400
     78     77     92     1   108.8800464 416.726400
     81     70     82     1   109.7500473 328.025600
     83     71     84     1   109.7500473 328.025600
     85     72     86     1   107.5800459 329.699200
     87     74     88     1   107.5800459 329.699200
     89     76     90     1   109.7500473 328.025600
     91     77     92     1   108.4600466 328.025600
     95     96    107     1   108.0100461 406.684800
     95     96    108     1   108.0100461 406.684800
     95     97    109     1   108.0100461 406.684800
     95     97    110     1   108.0100461 406.684800
     95    102    115     1   108.0100461 406.684800
     95    102    116     1   108.0100461 406.684800
     96     95    120     1   110.1100470 384.091200
     96     98    111     1   109.8000471 387.438400
     96     98    112     1   109.8000471 387.438400
     97     95    120     1   110.1100470 384.091200
     97    100    113     1   109.8000471 387.438400
     97    100    114     1   109.8000471 387.438400
     98     96    107     1   110.5600475 386.601600
     98     96    108     1   110.5600475 386.601600
     99     98    111     1   108.7700466 392.459200
     99     98    112     1   108.7700466 392.459200
     99    260    275     1   117.5500507 404.174400
    100     97    109     1   110.5600475 386.601600
    100     97    110     1   110.5600475 386.601600
    101    100    113     1   108.7700466 392.459200
    101    100    114     1   108.7700466 392.459200
    101    286    301     1   117.5500507 404.174400
    102     95    120     1   110.1100470 384.091200
    102    103    117     1   109.5600471 388.275200
    102    103    118     1   109.5600471 388.275200
    103    102    115     1   110.5600475 386.601600
    103    102    116     1   110.5600475 386.601600
    103    104    119     1   117.6800502 383.254400
    104    103    117     1   108.8800464 416.726400
    104    103    118     1   108.8800464 416.726400
    107     96    108     1   109.7500473 328.025600
    109     97    110     1   109.7500473 328.025600
    111     98    112     1   107.5800459 329.699200
    113    100    114     1   107.5800459 329.699200
    115    102    116     1   109.7500473 328.025600
    117    103    118     1   108.4600466 328.025600
    121    122    133     1   108.0100461 406.684800
    121    122    134     1   108.0100461 406.684800
    121    123    135     1   108.0100461 406.684800
    121    123    136     1   108.0100461 406.684800
    121    128    141     1   108.0100461 406.684800
    121    128    142     1   108.0100461 406.684800
    122    121    146     1   110.1100470 384.091200
    122    124    137     1   109.8000471 387.438400
    122    124    138     1   109.8000471 387.438400
    123    121    146     1   110.1100470 384.091200
    123    126    139     1   109.8000471 387.438400
    123    126    140     1   109.8000471 387.438400
    124    122    133     1   110.5600475 386.601600
    124    122    134     1   110.5600475 386.601600
    125    124    137     1   108.7700466 392.459200
    125    124    138     1   108.7700466 392.459200
    125    312    327     1   117.5500507 404.174400
    126    123    135     1   110.5600475 386.601600
    126    123    136     1   110.5600475 386.601600
    127    126    139     1   108.7700466 392.459200
    127    126    140     1   108.7700466 392.459200
    127    338    353     1   117.5500507 404.174400
    128    121    146     1   110.1100470 384.091200
    128    129    143     1   109.5600471 388.275200
    128    129    144     1   109.5600471 388.275200
    129    128    141     1   110.5600475 386.601600
    129    128    142     1   110.5600475 386.601600
    129    130    145     1   117.6800502 383.254400
    130    129    143     1   108.8800464 416.726400
    130    129    144     1   108.8800464 416.726400
    133    122    134     1   109.7500473 328.025600
    135    123    136     1   109.7500473 328.025600
    137    124    138     1   107.5800459 329.699200
    139    126    140     1   107.5800459 329.699200
    141    128    142     1   109.7500473 328.025600
    143    129    144     1   108.4600466 328.025600
    147    148    159     1   108.0100461 406.684800
    147    148    160     1   108.0100461 406.684800
    147    149    161     1   108.0100461 406.684800
    147    149    162     1   108.0100461 406.684800
    147    154    167     1   108.0100461 406.684800
    147    154    168     1   108.0100461 406.684800
    148    147    172     1   110.1100470 384.091200
    148    150    163     1   109.8000471 387.438400
    148    150    164     1   109.8000471 387.438400
    149    147    172     1   110.1100470 384.091200
    149    152    165     1   109.8000471 387.438400
    149    152    166     1   109.8000471 387.438400
    150    148    159     1   110.5600475 386.601600
    150    148    160     1   110.5600475 386.601600
    151    150    163     1   108.7700466 392.459200
    151    150    164     1   108.7700466 392.459200
    151    364    379     1   117.5500507 404.174400
    152    149    161     1   110.5600475 386.601600
    152    149    162     1   110.5600475 386.601600
    153    152    165     1   108.7700466 392.459200
    153    152    166     1   108.7700466 392.459200
    153    390    405     1   117.5500507 404.174400
    154    147    172     1   110.1100470 384.091200
    154    155    169     1   109.5600471 388.275200
    154    155    170     1   109.5600471 388.275200
    155    154    167     1   110.5600475 386.601600
    155    154    168     1   110.5600475 386.601600
    155    156    171     1   117.6800502 383.254400
    156    155    169     1   108.8800464 416.726400
    156    155    170     1   108.8800464 416.726400
    159    148    160     1   109.7500473 328.025600
    161    149    162     1   109.7500473 328.025600
    163    150    164     1   107.5800459 329.699200
    165    152    166     1   107.5800459 329.699200
    167    154    168     1   109.7500473 328.025600
    169    155    170     1   108.4600466 328.025600
    173    174    185     1   108.0100461 406.684800
    173    174    186     1   108.0100461 406.684800
    173    175    187     1   108.0100461 406.684800
    173    175    188     1   108.0100461 406.684800
    173    180    193     1   108.0100461 406.684800
    173    180    194     1   108.0100461 406.684800
    174    173    198     1   110.1100470 384.091200
    174    176    189     1   109.8000471 387.438400
    174    176    190     1   109.8000471 387.438400
    175    173    198     1   110.1100470 384.091200
    175    178    191     1   109.8000471 387.438400
    175    178    192     1   109.8000471 387.438400
    176    174    185     1   110.5600475 386.601600
    176    174    186     1   110.5600475 386.601600
    177    176    189     1   108.7700466 392.459200
    177    176    190     1   108.7700466 392.459200
    177    416    431     1   117.5500507 404.174400
    178    175    187     1   110.5600475 386.601600
    178    175    188     1   110.5600475 386.601600
    179    178    191     1   108.7700466 392.459200
    179    178    192     1   108.7700466 392.459200
    179    442    457     1   117.5500507 404.174400
    180    173    198     1   110.1100470 384.091200
    180    181    195     1   109.5600471 388.275200
    180    181    196     1   109.5600471 388.275200
    181    180    193     1   110.5600475 386.601600
    181    180    194     1   110.5600475 386.601600
    181    182    197     1   117.6800502 383.254400
    182    181    195     1   108.8800464 416.726400
    182    181    196     1   108.8800464 416.726400
    185    174    186     1   109.7500473 328.025600
    187    175    188     1   109.7500473 328.025600
    189    176    190     1   107.5800459 329.699200
    191    178    192     1   107.5800459 329.699200
    193    180    194     1   109.7500473 328.025600
    195    181    196     1   108.4600466 328.025600
    199    200    211     1   108.0100461 406.684800
    199    200    212     1   108.0100461 406.684800
    199    201    213     1   108.0100461 406.684800
    199    201    214     1   108.0100461 406.684800
    199    206    219     1   108.0100461 406.684800
    199    206    220     1   108.0100461 406.684800
    200    199    224     1   110.1100470 384.091200
    200    202    215     1   109.8000471 387.438400
    200    202    216     1   109.8000471 387.438400
    201    199    224     1   110.1100470 384.091200
    201    204    217     1   109.8000471 387.438400
    201    204    218     1   109.8000471 387.438400
    202    200    211     1   110.5600475 386.601600
    202    200    212     1   110.5600475 386.601600
    203    202    215     1   108.7700466 392.459200
    203    202    216     1   108.7700466 392.459200
    203    468    483     1   117.5500507 404.174400
    204    201    213     1   110.5600475 386.601600
    204    201    214     1   110.5600475 386.601600
    205    204    217     1   108.7700466 392.459200
    205    204    218     1   108.7700466 392.459200
    205    494    509     1   117.5500507 404.174400
    206    199    224     1   110.1100470 384.091200
    206    207    221     1   109.5600471 388.275200
    206    207    222     1   109.5600471 388.275200
    207    206    219     1   110.5600475 386.601600
    207    206    220     1   110.5600475 386.601600
    207    208    223     1   117.6800502 383.254400
    208    207    221     1   108.8800464 416.726400
    208    207    222     1   108.8800464 416.726400
    211    200    212     1   109.7500473 328.025600
    213    201    214     1   109.7500473 328.025600
    215    202    216     1   107.5800459 329.699200
    217    204    218     1   107.5800459 329.699200
    219    206    220     1   109.7500473 328.025600
    221    207    222     1   108.4600466 328.025600
    225    226    237     1   108.0100461 406.684800
    225    226    238     1   108.0100461 406.684800
    225    227    239     1   108.0100461 406.684800
    225    227    240     1   108.0100461 406.684800
    225    232    245     1   108.0100461 406.684800
    225    232    246     1   108.0100461 406.684800
    226    225    250     1   110.1100470 384.091200
    226    228    241     1   109.8000471 387.438400
    226    228    242     1   109.8000471 387.438400
    227    225    250     1   110.1100470 384.091200
    227    230    243     1   109.8000471 387.438400
    227    230    244     1   109.8000471 387.438400
    228    226    237     1   110.5600475 386.601600
    228    226    238     1   110.5600475 386.601600
    229    228    241     1   108.7700466 392.459200
    229    228    242     1   108.7700466 392.459200
    229    520    535     1   117.5500507 404.174400
    230    227    239     1   110.5600475 386.601600
    230    227    240     1   110.5600475 386.601600
    231    230    243     1   108.7700466 392.459200
    231    230    244     1   108.7700466 392.459200
    231    546    561     1   117.5500507 404.174400
    232    225    250     1   110.1100470 384.091200
    232    233    247     1   109.5600471 388.275200
    232    233    248     1   109.5600471 388.275200
    233    232    245     1   110.5600475 386.601600
    233    232    246     1   110.5600475 386.601600
    233    234    249     1   117.6800502 383.254400
    234    233    247     1   108.8800464 416.726400
    234    233    248     1   108.8800464 416.726400
    237    226    238     1   109.7500473 328.025600
    239    227    240     1   109.7500473 328.025600
    241    228    242     1   107.5800459 329.699200
    243    230    244     1   107.5800459 329.699200
    245    232    246     1   109.7500473 328.025600
    247    233    248     1   108.4600466 328.025600
    251    252    263     1   108.0100461 406.684800
    251    252    264     1   108.0100461 406.684800
    251    253    265     1   108.0100461 406.684800
    251    253    266     1   108.0100461 406.684800
    251    258    271     1   108.0100461 406.684800
    251    258    272     1   108.0100461 406.684800
    252    251    276     1   110.1100470 384.091200
    252    254    267     1   109.8000471 387.438400
    252    254    268     1   109.8000471 387.438400
    253    251    276     1   110.1100470 384.091200
    253    256    269     1   109.8000471 387.438400
    253    256    270     1   109.8000471 387.438400
    254    252    263     1   110.5600475 386.601600
    254    252    264     1   110.5600475 386.601600
    255    254    267     1   108.7700466 392.459200
    255    254    268     1   108.7700466 392.459200
    255    572    587     1   117.5500507 404.174400
    256    253    265     1   110.5600475 386.601600
    256    253    266     1   110.5600475 386.601600
    257    256    269     1   108.7700466 392.459200
    257    256    270     1   108.7700466 392.459200
    257    598    613     1   117.5500507 404.174400
    258    251    276     1   110.1100470 384.091200
    258    259    273     1   109.5600471 388.275200
    258    259    274     1   109.5600471 388.275200
    259    258    271     1   110.5600475 386.601600
    259    258    272     1   110.5600475 386.601600
    259    260    275     1   117.6800502 383.254400
    260    259    273     1   108.8800464 416.726400
    260    259    274     1   108.8800464 416.726400
    263    252    264     1   109.7500473 328.025600
    265    253    266     1   109.7500473 328.025600
    267    254    268     1   107.5800459 329.699200
    269    256    270     1   107.5800459 329.699200
    271    258    272     1   109.7500473 328.025600
    273    259    274     1   108.4600466 328.025600
    277    278    289     1   108.0100461 406.684800
    277    278    290     1   108.0100461 406.684800
    277    279    291     1   108.0100461 406.684800
    277    279    292     1   108.0100461 406.684800
    277    284    297     1   108.0100461 406.684800
    277    284    298     1   108.0100461 406.684800
    278    277    302     1   110.1100470 384.091200
    278    280    293     1   109.8000471 387.438400
    278    280    294     1   109.8000471 387.438400
    279    277    302     1   110.1100470 384.091200
    279    282    295     1   109.8000471 387.438400
    279    282    296     1   109.8000471 387.438400
    280    278    289     1   110.5600475 386.601600
    280    278    290     1   110.5600475 386.601600
    281    280    293     1   108.7700466 392.459200
    281    280    294     1   108.7700466 392.459200
    281    624    639     1   117.5500507 404.174400
    282    279    291     1   110.5600475 386.601600
    282    279    292     1   110.5600475 386.601600
    283    282    295     1   108.7700466 392.459200
    283    282    296     1   108.7700466 392.459200
    283    650    665     1   117.5500507 404.174400
    284    277    302     1   110.1100470 384.091200
    284    285    299     1   109.5600471 388.275200
    284    285    300     1   109.5600471 388.275200
    285    284    297     1   110.5600475 386.601600
    285    284    298     1   110.5600475 386.601600
    285    286    301     1   117.6800502 383.254400
    286    285    299     1   108.8800464 416.726400
    286    285    300     1   108.8800464 416.726400
    289    278    290     1   109.7500473 328.025600
    291    279    292     1   109.7500473 328.025600
    293    280    294     1   107.5800459 329.699200
    295    282    296     1   107.5800459 329.699200
    297    284    298     1   109.7500473 328.025600
    299    285    300     1   108.4600466 328.025600
    303    304    315     1   108.0100461 406.684800
    303    304    316     1   108.0100461 406.684800
    303    305    317     1   108.0100461 406.684800
    303    305    318     1   108.0100461 406.684800
    303    310    323     1   108.0100461 406.684800
    303    310    324     1   108.0100461 406.684800
    304    303    328     1   110.1100470 384.091200
    304    306    319     1   109.8000471 387.438400
    304    306    320     1   109.8000471 387.438400
    305    303    328     1   110.1100470 384.091200
    305    308    321     1   109.8000471 387.438400
    305    308    322     1   109.8000471 387.438400
    306    304    315     1   110.5600475 386.601600
    306    304    316     1   110.5600475 386.601600
    307    306    319     1   108.7700466 392.459200
    307    306    320     1   108.7700466 392.459200
    307    676    691     1   117.5500507 404.174400
    308    305    317     1   110.5600475 386.601600
    308    305    318     1   110.5600475 386.601600
    309    308    321     1   108.7700466 392.459200
    309    308    322     1   108.7700466 392.459200
    309    702    717     1   117.5500507 404.174400
    310    303    328     1   110.1100470 384.091200
    310    311    325     1   109.5600471 388.275200
    310    311    326     1   109.5600471 388.275200
    311    310    323     1   110.5600475 386.601600
    311    310    324     1   110.5600475 386.601600
    311    312    327     1   117.6800502 383.254400
    312    311    325     1   108.8800464 416.726400
    312    311    326     1   108.8800464 416.726400
    315    304    316     1   109.7500473 328.025600
    317    305    318     1   109.7500473 328.025600
    319    306    320     1   107.5800459 329.699200
    321    308    322     1   107.5800459 329.699200
    323    310    324     1   109.7500473 328.025600
    325    311    326     1   108.4600466 328.025600
    329    330    341     1   108.0100461 406.684800
    329    330    342     1   108.0100461 406.684800
    329    331    343     1   108.0100461 406.684800
    329    331    344     1   108.0100461 406.684800
    329    336    349     1   108.0100461 406.684800
    329    336    350     1   108.0100461 406.684800
    330    329    354     1   110.1100470 384.091200
    330    332    345     1   109.8000471 387.438400
    330    332    346     1   109.8000471 387.438400
    331    329    354     1   110.1100470 384.091200
    331    334    347     1   109.8000471 387.438400
    331    334    348     1   109.8000471 387.438400
    332    330    341     1   110.5600475 386.601600
    332    330    342     1   110.5600475 386.601600
    333    332    345     1   108.7700466 392.459200
    333    332    346     1   108.7700466 392.459200
    333    728    743     1   117.5500507 404.174400
    334    331    343     1   110.5600475 386.601600
    334    331    344     1   110.5600475 386.601600
    335    334    347     1   108.7700466 392.459200
    335    334    348     1   108.7700466 392.459200
    335    754    769     1   117.5500507 404.174400
    336    329    354     1   110.1100470 384.091200
    336    337    351     1   109.5600471 388.275200
    336    337    352     1   109.5600471 388.275200
    337    336    349     1   110.5600475 386.601600
    337    336    350     1   110.5600475 386.601600
    337    338    353     1   117.6800502 383.254400
    338    337    351     1   108.8800464 416.726400
    338    337    352     1   108.8800464 416.726400
    341    330    342     1   109.7500473 328.025600
    343    331    344     1   109.7500473 328.025600
    345    332    346     1   107.5800459 329.699200
    347    334    348     1   107.5800459 329.699200
    349    336    350     1   109.7500473 328.025600
    351    337    352     1   108.4600466 328.025600
    355    356    367     1   108.0100461 406.684800
    355    356    368     1   108.0100461 406.684800
    355    357    369     1   108.0100461 406.684800
    355    357    370     1   108.0100461 406.684800
    355    362    375     1   108.0100461 406.684800
    355    362    376     1   108.0100461 406.684800
    356    355    380     1   110.1100470 384.091200
    356    358    371     1   109.8000471 387.438400
    356    358    372     1   109.8000471 387.438400
    357    355    380     1   110.1100470 384.091200
    357    360    373     1   109.8000471 387.438400
    357    360    374     1   109.8000471 387.438400
    358    356    367     1   110.5600475 386.601600
    358    356    368     1   110.5600475 386.601600
    359    358    371     1   108.7700466 392.459200
    359    358    372     1   108.7700466 392.459200
    359    771    772     1   117.5500507 404.174400
    360    357    369     1   110.5600475 386.601600
    360    357    370     1   110.5600475 386.601600
    361    360    373     1   108.7700466 392.459200
    361    360    374     1   108.7700466 392.459200
    361    783    784     1   117.5500507 404.174400
    362    355    380     1   110.1100470 384.091200
    362    363    377     1   109.5600471 388.275200
    362    363    378     1   109.5600471 388.275200
    363    362    375     1   110.5600475 386.601600
    363    362    376     1   110.5600475 386.601600
    363    364    379     1   117.6800502 383.254400
    364    363    377     1   108.8800464 416.726400
    364    363    378     1   108.8800464 416.726400
    367    356    368     1   109.7500473 328.025600
    369    357    370     1   109.7500473 328.025600
    371    358    372     1   107.5800459 329.699200
    373    360    374     1   107.5800459 329.699200
    375    362    376     1   109.7500473 328.025600
    377    363    378     1   108.4600466 328.025600
    381    382    393     1   108.0100461 406.684800
    381    382    394     1   108.0100461 406.684800
    381    383    395     1   108.0100461 406.684800
    381    383    396     1   108.0100461 406.684800
    381    388    401     1   108.0100461 406.684800
    381    388    402     1   108.0100461 406.684800
    382    381    406     1   110.1100470 384.091200
    382    384    397     1   109.8000471 387.438400
    382    384    398     1   109.8000471 387.438400
    383    381    406     1   110.1100470 384.091200
    383    386    399     1   109.8000471 387.438400
    383    386    400     1   109.8000471 387.438400
    384    382    393     1   110.5600475 386.601600
    384    382    394     1   110.5600475 386.601600
    385    384    397     1   108.7700466 392.459200
    385    384    398     1   108.7700466 392.459200
    385    795    796     1   117.5500507 404.174400
    386    383    395     1   110.5600475 386.601600
    386    383    396     1   110.5600475 386.601600
    387    386    399     1   108.7700466 392.459200
    387    386    400     1   108.7700466 392.459200
    387    807    808     1   117.5500507 404.174400
    388    381    406     1   110.1100470 384.091200
    388    389    403     1   109.5600471 388.275200
    388    389    404     1   109.5600471 388.275200
    389    388    401     1   110.5600475 386.601600
    389    388    402     1   110.5600475 386.601600
    389    390    405     1   117.6800502 383.254400
    390    389    403     1   108.8800464 416.726400
    390    389    404     1   108.8800464 416.726400
    393    382    394     1   109.7500473 328.025600
    395    383    396     1   109.7500473 328.025600
    397    384    398     1   107.5800459 329.699200
    399    386    400     1   107.5800459 329.699200
    401    388    402     1   109.7500473 328.025600
    403    389    404     1   108.4600466 328.025600
    407    408    419     1   108.0100461 406.684800
    407    408    420     1   108.0100461 406.684800
    407    409    421     1   108.0100461 406.684800
    407    409    422     1   108.0100461 406.684800
    407    414    427     1   108.0100461 406.684800
    407    414    428     1   108.0100461 406.684800
    408    407    432     1   110.1100470 384.091200
    408    410    423     1   109.8000471 387.438400
    408    410    424     1   109.8000471 387.438400
    409    407    432     1   110.1100470 384.091200
    409    412    425     1   109.8000471 387.438400
    409    412    426     1   109.8000471 387.438400
    410    408    419     1   110.5600475 386.601600
    410    408    420     1   110.5600475 386.601600
    411    410    423     1   108.7700466 392.459200
    411    410    424     1   108.7700466 392.459200
    411    819    820     1   117.5500507 404.174400
    412    409    421     1   110.5600475 386.601600
    412    409    422     1   110.5600475 386.601600
    413    412    425     1   108.7700466 392.459200
    413    412    426     1   108.7700466 392.459200
    413    831    832     1   117.5500507 404.174400
    414    407    432     1   110.1100470 384.091200
    414    415    429     1   109.5600471 388.275200
    414    415    430     1   109.5600471 388.275200
    415    414    427     1   110.5600475 386.601600
    415    414    428     1   110.5600475 386.601600
    415    416    431     1   117.6800502 383.254400
    416    415    429     1   108.8800464 416.726400
    416    415    430     1   108.8800464 416.726400
    419    408    420     1   109.7500473 328.025600
    421    409    422     1   109.7500473 328.025600
    423    410    424     1   107.5800459 329.699200
    425    412    426     1   107.5800459 329.699200
    427    414    428     1   109.7500473 328.025600
    429    415    430     1   108.4600466 328.025600
    433    434    445     1   108.0100461 406.684800
    433    434    446     1   108.0100461 406.684800
    433    435    447     1   108.0100461 406.684800
    433    435    448     1   108.0100461 406.684800
    433    440    453     1   108.0100461 406.684800
    433    440    454     1   108.0100461 406.684800
    434    433    458     1   110.1100470 384.091200
    434    436    449     1   109.8000471 387.438400
    434    436    450     1   109.8000471 387.438400
    435    433    458     1   110.1100470 384.091200
    435    438    451     1   109.8000471 387.438400
    435    438    452     1   109.8000471 387.438400
    436    434    445     1   110.5600475 386.601600
    436    434    446     1   110.5600475 386.601600
    437    436    449     1   108.7700466 392.459200
    437    436    450     1   108.7700466 392.459200
    437    843    844     1   117.5500507 404.174400
    438    435    447     1   110.5600475 386.601600
    438    435    448     1   110.5600475 386.601600
    439    438    451     1   108.7700466 392.459200
    439    438    452     1   108.7700466 392.459200
    439    855    856     1   117.5500507 404.174400
    440    433    458     1   110.1100470 384.091200
    440    441    455     1   109.5600471 388.275200
    440    441    456     1   109.5600471 388.275200
    441    440    453     1   110.5600475 386.601600
    441    440    454     1   110.5600475 386.601600
    441    442    457     1   117.6800502 383.254400
    442    441    455     1   108.8800464 416.726400
    442    441    456     1   108.8800464 416.726400
    445    434    446     1   109.7500473 328.025600
    447    435    448     1   109.7500473 328.025600
    449    436    450     1   107.5800459 329.699200
    451    438    452     1   107.5800459 329.699200
    453    440    454     1   109.7500473 328.025600
    455    441    456     1   108.4600466 328.025600
    459    460    471     1   108.0100461 406.684800
    459    460    472     1   108.0100461 406.684800
    459    461    473     1   108.0100461 406.684800
    459    461    474     1   108.0100461 406.684800
    459    466    479     1   108.0100461 406.684800
    459    466    480     1   108.0100461 406.684800
    460    459    484     1   110.1100470 384.091200
    460    462    475     1   109.8000471 387.438400
    460    462    476     1   109.8000471 387.438400
    461    459    484     1   110.1100470 384.091200
    461    464    477     1   109.8000471 387.438400
    461    464    478     1   109.8000471 387.438400
    462    460    471     1   110.5600475 386.601600
    462    460    472     1   110.5600475 386.601600
    463    462    475     1   108.7700466 392.459200
    463    462    476     1   108.7700466 392.459200
    463    867    868     1   117.5500507 404.174400
    464    461    473     1   110.5600475 386.601600
    464    461    474     1   110.5600475 386.601600
    465    464    477     1   108.7700466 392.459200
    465    464    478     1   108.7700466 392.459200
    465    879    880     1   117.5500507 404.174400
    466    459    484     1   110.1100470 384.091200
    466    467    481     1   109.5600471 388.275200
    466    467    482     1   109.5600471 388.275200
    467    466    479     1   110.5600475 386.601600
    467    466    480     1   110.5600475 386.601600
    467    468    483     1   117.6800502 383.254400
    468    467    481     1   108.8800464 416.726400
    468    467    482     1   108.8800464 416.726400
    471    460    472     1   109.7500473 328.025600
    473    461    474     1   109.7500473 328.025600
    475    462    476     1   107.5800459 329.699200
    477    464    478     1   107.5800459 329.699200
    479    466    480     1   109.7500473 328.025600
    481    467    482     1   108.4600466 328.025600
    485    486    497     1   108.0100461 406.684800
    485    486    498     1   108.0100461 406.684800
    485    487    499     1   108.0100461 406.684800
    485    487    500     1   108.0100461 406.684800
    485    492    505     1   108.0100461 406.684800
    485    492    506     1   108.0100461 406.684800
    486    485    510     1   110.1100470 384.091200
    486    488    501     1   109.8000471 387.438400
    486    488    502     1   109.8000471 387.438400
    487    485    510     1   110.1100470 384.091200
    487    490    503     1   109.8000471 387.438400
    487    490    504     1   109.8000471 387.438400
    488    486    497     1   110.5600475 386.601600
    488    486    498     1   110.5600475 386.601600
    489    488    501     1   108.7700466 392.459200
    489    488    502     1   108.7700466 392.459200
    489    891    892     1   117.5500507 404.174400
    490    487    499     1   110.5600475 386.601600
    490    487    500     1   110.5600475 386.601600
    491    490    503     1   108.7700466 392.459200
    491    490    504     1   108.7700466 392.459200
    491    903    904     1   117.5500507 404.174400
    492    485    510     1   110.1100470 384.091200
    492    493    507     1   109.5600471 388.275200
    492    493    508     1   109.5600471 388.275200
    493    492    505     1   110.5600475 386.601600
    493    492    506     1   110.5600475 386.601600
    493    494    509     1   117.6800502 383.254400
    494    493    507     1   108.8800464 416.726400
    494    493    508     1   108.8800464 416.726400
    497    486    498     1   109.7500473 328.025600
    499    487    500     1   109.7500473 328.025600
    501    488    502     1   107.5800459 329.699200
    503    490    504     1   107.5800459 329.699200
    505    492    506     1   109.7500473 328.025600
    507    493    508     1   108.4600466 328.025600
    511    512    523     1   108.0100461 406.684800
    511    512    524     1   108.0100461 406.684800
    511    513    525     1   108.0100461 406.684800
    511    513    526     1   108.0100461 406.684800
    511    518    531     1   108.0100461 406.684800
    511    518    532     1   108.0100461 406.684800
    512    511    536     1   110.1100470 384.091200
    512    514    527     1   109.8000471 387.438400
    512    514    528     1   109.8000471 387.438400
    513    511    536     1   110.1100470 384.091200
    513    516    529     1   109.8000471 387.438400
    513    516    530     1   109.8000471 387.438400
    514    512    523     1   110.5600475 386.601600
    514    512    524     1   110.5600475 386.601600
    515    514    527     1   108.7700466 392.459200
    515    514    528     1   108.7700466 392.459200
    515    915    916     1   117.5500507 404.174400
    516    513    525     1   110.5600475 386.601600
    516    513    526     1   110.5600475 386.601600
    517    516    529     1   108.7700466 392.459200
    517    516    530     1   108.7700466 392.459200
    517    927    928     1   117.5500507 404.174400
    518    511    536     1   110.1100470 384.091200
    518    519    533     1   109.5600471 388.275200
    518    519    534     1   109.5600471 388.275200
    519    518    531     1   110.5600475 386.601600
    519    518    532     1   110.5600475 386.601600
    519    520    535     1   117.6800502 383.254400
    520    519    533     1   108.8800464 416.726400
    520    519    534     1   108.8800464 416.726400
    523    512    524     1   109.7500473 328.025600
    525    513    526     1   109.7500473 328.025600
    527    514    528     1   107.5800459 329.699200
    529    516    530     1   107.5800459 329.699200
    531    518    532     1   109.7500473 328.025600
    533    519    534     1   108.4600466 328.025600
    537    538    549     1   108.0100461 406.684800
    537    538    550     1   108.0100461 406.684800
    537    539    551     1   108.0100461 406.684800
    537    539    552     1   108.0100461 406.684800
    537    544    557     1   108.0100461 406.684800
    537    544    558     1   108.0100461 406.684800
    538    537    562     1   110.1100470 384.091200
    538    540    553     1   109.8000471 387.438400
    538    540    554     1   109.8000471 387.438400
    539    537    562     1   110.1100470 384.091200
    539    542    555     1   109.8000471 387.438400
    539    542    556     1   109.8000471 387.438400
    540    538    549     1   110.5600475 386.601600
    540    538    550     1   110.5600475 386.601600
    541    540    553     1   108.7700466 392.459200
    541    540    554     1   108.7700466 392.459200
    541    939    940     1   117.5500507 404.174400
    542    539    551     1   110.5600475 386.601600
    542    539    552     1   110.5600475 386.601600
    543    542    555     1   108.7700466 392.459200
    543    542    556     1   108.7700466 392.459200
    543    951    952     1   117.5500507 404.174400
    544    537    562     1   110.1100470 384.091200
    544    545    559     1   109.5600471 388.275200
    544    545    560     1   109.5600471 388.275200
    545    544    557     1   110.5600475 386.601600
    545    544    558     1   110.5600475 386.601600
    545    546    561     1   117.6800502 383.254400
    546    545    559     1   108.8800464 416.726400
    546    545    560     1   108.8800464 416.726400
    549    538    550     1   109.7500473 328.025600
    551    539    552     1   109.7500473 328.025600
    553    540    554     1   107.5800459 329.699200
    555    542    556     1   107.5800459 329.699200
    557    544    558     1   109.7500473 328.025600
    559    545    560     1   108.4600466 328.025600
    563    564    575     1   108.0100461 406.684800
    563    564    576     1   108.0100461 406.684800
    563    565    577     1   108.0100461 406.684800
    563    565    578     1   108.0100461 406.684800
    563    570    583     1   108.0100461 406.684800
    563    570    584     1   108.0100461 406.684800
    564    563    588     1   110.1100470 384.091200
    564    566    579     1   109.8000471 387.438400
    564    566    580     1   109.8000471 387.438400
    565    563    588     1   110.1100470 384.091200
    565    568    581     1   109.8000471 387.438400
    565    568    582     1   109.8000471 387.438400
    566    564    575     1   110.5600475 386.601600
    566    564    576     1   110.5600475 386.601600
    567    566    579     1   108.7700466 392.459200
    567    566    580     1   108.7700466 392.459200
    567    963    964     1   117.5500507 404.174400
    568    565    577     1   110.5600475 386.601600
    568    565    578     1   110.5600475 386.601600
    569    568    581     1   108.7700466 392.459200
    569    568    582     1   108.7700466 392.459200
    569    975    976     1   117.5500507 404.174400
    570    563    588     1   110.1100470 384.091200
    570    571    585     1   109.5600471 388.275200
    570    571    586     1   109.5600471 388.275200
    571    570    583     1   110.5600475 386.601600
    571    570    584     1   110.5600475 386.601600
    571    572    587     1   117.6800502 383.254400
    572    571    585     1   108.8800464 416.726400
    572    571    586     1   108.8800464 416.726400
    575    564    576     1   109.7500473 328.025600
    577    565    578     1   109.7500473 328.025600
    579    566    580     1   107.5800459 329.699200
    581    568    582     1   107.5800459 329.699200
    583    570    584     1   109.7500473 328.025600
    585    571    586     1   108.4600466 328.025600
    589    590    601     1   108.0100461 406.684800
    589    590    602     1   108.0100461 406.684800
    589    591    603     1   108.0100461 406.684800
    589    591    604     1   108.0100461 406.684800
    589    596    609     1   108.0100461 406.684800
    589    596    610     1   108.0100461 406.684800
    590    589    614     1   110.1100470 384.091200
    590    592    605     1   109.8000471 387.438400
    590    592    606     1   109.8000471 387.438400
    591    589    614     1   110.1100470 384.091200
    591    594    607     1   109.8000471 387.438400
    591    594    608     1   109.8000471 387.438400
    592    590    601     1   110.5600475 386.601600
    592    590    602     1   110.5600475 386.601600
    593    592    605     1   108.7700466 392.459200
    593    592    606     1   108.7700466 392.459200
    593    987    988     1   117.5500507 404.174400
    594    591    603     1   110.5600475 386.601600
    594    591    604     1   110.5600475 386.601600
    595    594    607     1   108.7700466 392.459200
    595    594    608     1   108.7700466 392.459200
    595    999   1000     1   117.5500507 404.174400
    596    589    614     1   110.1100470 384.091200
    596    597    611     1   109.5600471 388.275200
    596    597    612     1   109.5600471 388.275200
    597    596    609     1   110.5600475 386.601600
    597    596    610     1   110.5600475 386.601600
    597    598    613     1   117.6800502 383.254400
    598    597    611     1   108.8800464 416.726400
    598    597    612     1   108.8800464 416.726400
    601    590    602     1   109.7500473 328.025600
    603    591    604     1   109.7500473 328.025600
    605    592    606     1   107.5800459 329.699200
    607    594    608     1   107.5800459 329.699200
    609    596    610     1   109.7500473 328.025600
    611    597    612     1   108.4600466 328.025600
    615    616    627     1   108.0100461 406.684800
    615    616    628     1   108.0100461 406.684800
    615    617    629     1   108.0100461 406.684800
    615    617    630     1   108.0100461 406.684800
    615    622    635     1   108.0100461 406.684800
    615    622    636     1   108.0100461 406.684800
    616    615    640     1   110.1100470 384.091200
    616    618    631     1   109.8000471 387.438400
    616    618    632     1   109.8000471 387.438400
    617    615    640     1   110.1100470 384.091200
    617    620    633     1   109.8000471 387.438400
    617    620    634     1   109.8000471 387.438400
    618    616    627     1   110.5600475 386.601600
    618    616    628     1   110.5600475 386.601600
    619    618    631     1   108.7700466 392.459200
    619    618    632     1   108.7700466 392.459200
    619   1011   1012     1   117.5500507 404.174400
    620    617    629     1   110.5600475 386.601600
    620    617    630     1   110.5600475 386.601600
    621    620    633     1   108.7700466 392.459200
    621    620    634     1   108.7700466 392.459200
    621   1023   1024     1   117.5500507 404.174400
    622    615    640     1   110.1100470 384.091200
    622    623    637     1   109.5600471 388.275200
    622    623    638     1   109.5600471 388.275200
    623    622    635     1   110.5600475 386.601600
    623    622    636     1   110.5600475 386.601600
    623    624    639     1   117.6800502 383.254400
    624    623    637     1   108.8800464 416.726400
    624    623    638     1   108.8800464 416.726400
    627    616    628     1   109.7500473 328.025600
    629    617    630     1   109.7500473 328.025600
    631    618    632     1   107.5800459 329.699200
    633    620    634     1   107.5800459 329.699200
    635    622    636     1   109.7500473 328.025600
    637    623    638     1   108.4600466 328.025600
    641    642    653     1   108.0100461 406.684800
    641    642    654     1   108.0100461 406.684800
    641    643    655     1   108.0100461 406.684800
    641    643    656     1   108.0100461 406.684800
    641    648    661     1   108.0100461 406.684800
    641    648    662     1   108.0100461 406.684800
    642    641    666     1   110.1100470 384.091200
    642    644    657     1   109.8000471 387.438400
    642    644    658     1   109.8000471 387.438400
    643    641    666     1   110.1100470 384.091200
    643    646    659     1   109.8000471 387.438400
    643    646    660     1   109.8000471 387.438400
    644    642    653     1   110.5600475 386.601600
    644    642    654     1   110.5600475 386.601600
    645    644    657     1   108.7700466 392.459200
    645    644    658     1   108.7700466 392.459200
    645   1035   1036     1   117.5500507 404.174400
    646    643    655     1   110.5600475 386.601600
    646    643    656     1   110.5600475 386.601600
    647    646    659     1   108.7700466 392.459200
    647    646    660     1   108.7700466 392.459200
    647   1047   1048     1   117.5500507 404.174400
    648    641    666     1   110.1100470 384.091200
    648    649    663     1   109.5600471 388.275200
    648    649    664     1   109.5600471 388.275200
    649    648    661     1   110.5600475 386.601600
    649    648    662     1   110.5600475 386.601600
    649    650    665     1   117.6800502 383.254400
    650    649    663     1   108.8800464 416.726400
    650    649    664     1   108.8800464 416.726400
    653    642    654     1   109.7500473 328.025600
    655    643    656     1   109.7500473 328.025600
    657    644    658     1   107.5800459 329.699200
    659    646    660     1   107.5800459 329.699200
    661    648    662     1   109.7500473 328.025600
    663    649    664     1   108.4600466 328.025600
    667    668    679     1   108.0100461 406.684800
    667    668    680     1   108.0100461 406.684800
    667    669    681     1   108.0100461 406.684800
    667    669    682     1   108.0100461 406.684800
    667    674    687     1   108.0100461 406.684800
    667    674    688     1   108.0100461 406.684800
    668    667    692     1   110.1100470 384.091200
    668    670    683     1   109.8000471 387.438400
    668    670    684     1   109.8000471 387.438400
    669    667    692     1   110.1100470 384.091200
    669    672    685     1   109.8000471 387.438400
    669    672    686     1   109.8000471 387.438400
    670    668    679     1   110.5600475 386.601600
    670    668    680     1   110.5600475 386.601600
    671    670    683     1   108.7700466 392.459200
    671    670    684     1   108.7700466 392.459200
    671   1059   1060     1   117.5500507 404.174400
    672    669    681     1   110.5600475 386.601600
    672    669    682     1   110.5600475 386.601600
    673    672    685     1   108.7700466 392.459200
    673    672    686     1   108.7700466 392.459200
    673   1071   1072     1   117.5500507 404.174400
    674    667    692     1   110.1100470 384.091200
    674    675    689     1   109.5600471 388.275200
    674    675    690     1   109.5600471 388.275200
    675    674    687     1   110.5600475 386.601600
    675    674    688     1   110.5600475 386.601600
    675    676    691     1   117.6800502 383.254400
    676    675    689     1   108.8800464 416.726400
    676    675    690     1   108.8800464 416.726400
    679    668    680     1   109.7500473 328.025600
    681    669    682     1   109.7500473 328.025600
    683    670    684     1   107.5800459 329.699200
    685    672    686     1   107.5800459 329.699200
    687    674    688     1   109.7500473 328.025600
    689    675    690     1   108.4600466 328.025600
    693    694    705     1   108.0100461 406.684800
    693    694    706     1   108.0100461 406.684800
    693    695    707     1   108.0100461 406.684800
    693    695    708     1   108.0100461 406.684800
    693    700    713     1   108.0100461 406.684800
    693    700    714     1   108.0100461 406.684800
    694    693    718     1   110.1100470 384.091200
    694    696    709     1   109.8000471 387.438400
    694    696    710     1   109.8000471 387.438400
    695    693    718     1   110.1100470 384.091200
    695    698    711     1   109.8000471 387.438400
    695    698    712     1   109.8000471 387.438400
    696    694    705     1   110.5600475 386.601600
    696    694    706     1   110.5600475 386.601600
    697    696    709     1   108.7700466 392.459200
    697    696    710     1   108.7700466 392.459200
    697   1083   1084     1   117.5500507 404.174400
    698    695    707     1   110.5600475 386.601600
    698    695    708     1   110.5600475 386.601600
    699    698    711     1   108.7700466 392.459200
    699    698    712     1   108.7700466 392.459200
    699   1095   1096     1   117.5500507 404.174400
    700    693    718     1   110.1100470 384.091200
    700    701    715     1   109.5600471 388.275200
    700    701    716     1   109.5600471 388.275200
    701    700    713     1   110.5600475 386.601600
    701    700    714     1   110.5600475 386.601600
    701    702    717     1   117.6800502 383.254400
    702    701    715     1   108.8800464 416.726400
    702    701    716     1   108.8800464 416.726400
    705    694    706     1   109.7500473 328.025600
    707    695    708     1   109.7500473 328.025600
    709    696    710     1   107.5800459 329.699200
    711    698    712     1   107.5800459 329.699200
    713    700    714     1   109.7500473 328.025600
    715    701    716     1   108.4600466 328.025600
    719    720    731     1   108.0100461 406.684800
    719    720    732     1   108.0100461 406.684800
    719    721    733     1   108.0100461 406.684800
    719    721    734     1   108.0100461 406.684800
    719    726    739     1   108.0100461 406.684800
    719    726    740     1   108.0100461 406.684800
    720    719    744     1   110.1100470 384.091200
    720    722    735     1   109.8000471 387.438400
    720    722    736     1   109.8000471 387.438400
    721    719    744     1   110.1100470 384.091200
    721    724    737     1   109.8000471 387.438400
    721    724    738     1   109.8000471 387.438400
    722    720    731     1   110.5600475 386.601600
    722    720    732     1   110.5600475 386.601600
    723    722    735     1   108.7700466 392.459200
    723    722    736     1   108.7700466 392.459200
    723   1107   1108     1   117.5500507 404.174400
    724    721    733     1   110.5600475 386.601600
    724    721    734     1   110.5600475 386.601600
    725    724    737     1   108.7700466 392.459200
    725    724    738     1   108.7700466 392.459200
    725   1119   1120     1   117.5500507 404.174400
    726    719    744     1   110.1100470 384.091200
    726    727    741     1   109.5600471 388.275200
    726    727    742     1   109.5600471 388.275200
    727    726    739     1   110.5600475 386.601600
    727    726    740     1   110.5600475 386.601600
    727    728    743     1   117.6800502 383.254400
    728    727    741     1   108.8800464 416.726400
    728    727    742     1   108.8800464 416.726400
    731    720    732     1   109.7500473 328.025600
    733    721    734     1   109.7500473 328.025600
    735    722    736     1   107.5800459 329.699200
    737    724    738     1   107.5800459 329.699200
    739    726    740     1   109.7500473 328.025600
    741    727    742     1   108.4600466 328.025600
    745    746    757     1   108.0100461 406.684800
    745    746    758     1   108.0100461 406.684800
    745    747    759     1   108.0100461 406.684800
    745    747    760     1   108.0100461 406.684800
    745    752    765     1   108.0100461 406.684800
    745    752    766     1   108.0100461 406.684800
    746    745    770     1   110.1100470 384.091200
    746    748    761     1   109.8000471 387.438400
    746    748    762     1   109.8000471 387.438400
    747    745    770     1   110.1100470 384.091200
    747    750    763     1   109.8000471 387.438400
    747    750    764     1   109.8000471 387.438400
    748    746    757     1   110.5600475 386.601600
    748    746    758     1   110.5600475 386.601600
    749    748    761     1   108.7700466 392.459200
    749    748    762     1   108.7700466 392.459200
    749   1131   1132     1   117.5500507 404.174400
    750    747    759     1   110.5600475 386.601600
    750    747    760     1   110.5600475 386.601600
    751    750    763     1   108.7700466 392.459200
    751    750    764     1   108.7700466 392.459200
    751   1143   1144     1   117.5500507 404.174400
    752    745    770     1   110.1100470 384.091200
    752    753    767     1   109.5600471 388.275200
    752    753    768     1   109.5600471 388.275200
    753    752    765     1   110.5600475 386.601600
    753    752    766     1   110.5600475 386.601600
    753    754    769     1   117.6800502 383.254400
    754    753    767     1   108.8800464 416.726400
    754    753    768     1   108.8800464 416.726400
    757    746    758     1   109.7500473 328.025600
    759    747    760     1   109.7500473 328.025600
    761    748    762     1   107.5800459 329.699200
    763    750    764     1   107.5800459 329.699200
    765    752    766     1   109.7500473 328.025600
    767    753    768     1   108.4600466 328.025600
    771    773    775     1   108.8800464 416.726400
    771    773    776     1   108.8800464 416.726400
    772    771    773     1   117.6800502 383.254400
    773    774    777     1   110.5600475 386.601600
    773    774    778     1   110.5600475 386.601600
    774    773    775     1   109.5600471 388.275200
    774    773    776     1   109.5600471 388.275200
    774    779    780     1   110.1100470 384.091200
    774    779    781     1   110.1100470 384.091200
    774    779    782     1   110.1100470 384.091200
    775    773    776     1   108.4600466 328.025600
    777    774    779     1   108.0100461 406.684800
    777    774    778     1   109.7500473 328.025600
    778    774    779     1   108.0100461 406.684800
    780    779    781     1   108.3000464 339.740800
    780    779    782     1   108.3000464 339.740800
    781    779    782     1   108.3000464 339.740800
    783    785    787     1   108.8800464 416.726400
    783    785    788     1   108.8800464 416.726400
    784    783    785     1   117.6800502 383.254400
    785    786    789     1   110.5600475 386.601600
    785    786    790     1   110.5600475 386.601600
    786    791    792     1   110.1100470 384.091200
    786    791    793     1   110.1100470 384.091200
    786    791    794     1   110.1100470 384.091200
    786    785    787     1   109.5600471 388.275200
    786    785    788     1   109.5600471 388.275200
    787    785    788     1   108.4600466 328.025600
    789    786    791     1   108.0100461 406.684800
    789    786    790     1   109.7500473 328.025600
    790    786    791     1   108.0100461 406.684800
    792    791    793     1   108.3000464 339.740800
    792    791    794     1   108.3000464 339.740800
    793    791    794     1   108.3000464 339.740800
    795    797    799     1   108.8800464 416.726400
    795    797    800     1   108.8800464 416.726400
    796    795    797     1   117.6800502 383.254400
    797    798    801     1   110.5600475 386.601600
    797    798    802     1   110.5600475 386.601600
    798    797    799     1   109.5600471 388.275200
    798    797    800     1   109.5600471 388.275200
    798    803    804     1   110.1100470 384.091200
    798    803    805     1   110.1100470 384.091200
    798    803    806     1   110.1100470 384.091200
    799    797    800     1   108.4600466 328.025600
    801    798    803     1   108.0100461 406.684800
    801    798    802     1   109.7500473 328.025600
    802    798    803     1   108.0100461 406.684800
    804    803    805     1   108.3000464 339.740800
    804    803    806     1   108.3000464 339.740800
    805    803    806     1   108.3000464 339.740800
    807    809    811     1   108.8800464 416.726400
    807    809    812     1   108.8800464 416.726400
    808    807    809     1   117.6800502 383.254400
    809    810    813     1   110.5600475 386.601600
    809    810    814     1   110.5600475 386.601600
    810    815    816     1   110.1100470 384.091200
    810    815    817     1   110.1100470 384.091200
    810    815    818     1   110.1100470 384.091200
    810    809    811     1   109.5600471 388.275200
    810    809    812     1   109.5600471 388.275200
    811    809    812     1   108.4600466 328.025600
    813    810    815     1   108.0100461 406.684800
    813    810    814     1   109.7500473 328.025600
    814    810    815     1   108.0100461 406.684800
    816    815    817     1   108.3000464 339.740800
    816    815    818     1   108.3000464 339.740800
    817    815    818     1   108.3000464 339.740800
    819    821    823     1   108.8800464 416.726400
    819    821    824     1   108.8800464 416.726400
    820    819    821     1   117.6800502 383.254400
    821    822    825     1   110.5600475 386.601600
    821    822    826     1   110.5600475 386.601600
    822    821    823     1   109.5600471 388.275200
    822    821    824     1   109.5600471 388.275200
    822    827    828     1   110.1100470 384.091200
    822    827    829     1   110.1100470 384.091200
    822    827    830     1   110.1100470 384.091200
    823    821    824     1   108.4600466 328.025600
    825    822    827     1   108.0100461 406.684800
    825    822    826     1   109.7500473 328.025600
    826    822    827     1   108.0100461 406.684800
    828    827    829     1   108.3000464 339.740800
    828    827    830     1   108.3000464 339.740800
    829    827    830     1   108.3000464 339.740800
    831    833    835     1   108.8800464 416.726400
    831    833    836     1   108.8800464 416.726400
    832    831    833     1   117.6800502 383.254400
    833    834    837     1   110.5600475 386.601600
    833    834    838     1   110.5600475 386.601600
    834    839    840     1   110.1100470 384.091200
    834    839    841     1   110.1100470 384.091200
    834    839    842     1   110.1100470 384.091200
    834    833    835     1   109.5600471 388.275200
    834    833    836     1   109.5600471 388.275200
    835    833    836     1   108.4600466 328.025600
    837    834    839     1   108.0100461 406.684800
    837    834    838     1   109.7500473 328.025600
    838    834    839     1   108.0100461 406.684800
    840    839    841     1   108.3000464 339.740800
    840    839    842     1   108.3000464 339.740800
    841    839    842     1   108.3000464 339.740800
    843    845    847     1   108.8800464 416.726400
    843    845    848     1   108.8800464 416.726400
    844    843    845     1   117.6800502 383.254400
    845    846    849     1   110.5600475 386.601600
    845    846    850     1   110.5600475 386.601600
    846    845    847     1   109.5600471 388.275200
    846    845    848     1   109.5600471 388.275200
    846    851    852     1   110.1100470 384.091200
    846    851    853     1   110.1100470 384.091200
    846    851    854     1   110.1100470 384.091200
    847    845    848     1   108.4600466 328.025600
    849    846    851     1   108.0100461 406.684800
    849    846    850     1   109.7500473 328.025600
    850    846    851     1   108.0100461 406.684800
    852    851    853     1   108.3000464 339.740800
    852    851    854     1   108.3000464 339.740800
    853    851    854     1   108.3000464 339.740800
    855    857    859     1   108.8800464 416.726400
    855    857    860     1   108.8800464 416.726400
    856    855    857     1   117.6800502 383.254400
    857    858    861     1   110.5600475 386.601600
    857    858    862     1   110.5600475 386.601600
    858    863    864     1   110.1100470 384.091200
    858    863    865     1   110.1100470 384.091200
    858    863    866     1   110.1100470 384.091200
    858    857    859     1   109.5600471 388.275200
    858    857    860     1   109.5600471 388.275200
    859    857    860     1   108.4600466 328.025600
    861    858    863     1   108.0100461 406.684800
    861    858    862     1   109.7500473 328.025600
    862    858    863     1   108.0100461 406.684800
    864    863    865     1   108.3000464 339.740800
    864    863    866     1   108.3000464 339.740800
    865    863    866     1   108.3000464 339.740800
    867    869    871     1   108.8800464 416.726400
    867    869    872     1   108.8800464 416.726400
    868    867    869     1   117.6800502 383.254400
    869    870    873     1   110.5600475 386.601600
    869    870    874     1   110.5600475 386.601600
    870    869    871     1   109.5600471 388.275200
    870    869    872     1   109.5600471 388.275200
    870    875    876     1   110.1100470 384.091200
    870    875    877     1   110.1100470 384.091200
    870    875    878     1   110.1100470 384.091200
    871    869    872     1   108.4600466 328.025600
    873    870    875     1   108.0100461 406.684800
    873    870    874     1   109.7500473 328.025600
    874    870    875     1   108.0100461 406.684800
    876    875    877     1   108.3000464 339.740800
    876    875    878     1   108.3000464 339.740800
    877    875    878     1   108.3000464 339.740800
    879    881    883     1   108.8800464 416.726400
    879    881    884     1   108.8800464 416.726400
    880    879    881     1   117.6800502 383.254400
    881    882    885     1   110.5600475 386.601600
    881    882    886     1   110.5600475 386.601600
    882    887    888     1   110.1100470 384.091200
    882    887    889     1   110.1100470 384.091200
    882    887    890     1   110.1100470 384.091200
    882    881    883     1   109.5600471 388.275200
    882    881    884     1   109.5600471 388.275200
    883    881    884     1   108.4600466 328.025600
    885    882    887     1   108.0100461 406.684800
    885    882    886     1   109.7500473 328.025600
    886    882    887     1   108.0100461 406.684800
    888    887    889     1   108.3000464 339.740800
    888    887    890     1   108.3000464 339.740800
    889    887    890     1   108.3000464 339.740800
    891    893    895     1   108.8800464 416.726400
    891    893    896     1   108.8800464 416.726400
    892    891    893     1   117.6800502 383.254400
    893    894    897     1   110.5600475 386.601600
    893    894    898     1   110.5600475 386.601600
    894    893    895     1   109.5600471 388.275200
    894    893    896     1   109.5600471 388.275200
    894    899    900     1   110.1100470 384.091200
    894    899    901     1   110.1100470 384.091200
    894    899    902     1   110.1100470 384.091200
    895    893    896     1   108.4600466 328.025600
    897    894    899     1   108.0100461 406.684800
    897    894    898     1   109.7500473 328.025600
    898    894    899     1   108.0100461 406.684800
    900    899    901     1   108.3000464 339.740800
    900    899    902     1   108.3000464 339.740800
    901    899    902     1   108.3000464 339.740800
    903    905    907     1   108.8800464 416.726400
    903    905    908     1   108.8800464 416.726400
    904    903    905     1   117.6800502 383.254400
    905    906    909     1   110.5600475 386.601600
    905    906    910     1   110.5600475 386.601600
    906    911    912     1   110.1100470 384.091200
    906    911    913     1   110.1100470 384.091200
    906    911    914     1   110.1100470 384.091200
    906    905    907     1   109.5600471 388.275200
    906    905    908     1   109.5600471 388.275200
    907    905    908     1   108.4600466 328.025600
    909    906    911     1   108.0100461 406.684800
    909    906    910     1   109.7500473 328.025600
    910    906    911     1   108.0100461 406.684800
    912    911    913     1   108.3000464 339.740800
    912    911    914     1   108.3000464 339.740800
    913    911    914     1   108.3000464 339.740800
    915    917    919     1   108.8800464 416.726400
    915    917    920     1   108.8800464 416.726400
    916    915    917     1   117.6800502 383.254400
    917    918    921     1   110.5600475 386.601600
    917    918    922     1   110.5600475 386.601600
    918    917    919     1   109.5600471 388.275200
    918    917    920     1   109.5600471 388.275200
    918    923    924     1   110.1100470 384.091200
    918    923    925     1   110.1100470 384.091200
    918    923    926     1   110.1100470 384.091200
    919    917    920     1   108.4600466 328.025600
    921    918    923     1   108.0100461 406.684800
    921    918    922     1   109.7500473 328.025600
    922    918    923     1   108.0100461 406.684800
    924    923    925     1   108.3000464 339.740800
    924    923    926     1   108.3000464 339.740800
    925    923    926     1   108.3000464 339.740800
    927    929    931     1   108.8800464 416.726400
    927    929    932     1   108.8800464 416.726400
    928    927    929     1   117.6800502 383.254400
    929    930    933     1   110.5600475 386.601600
    929    930    934     1   110.5600475 386.601600
    930    935    936     1   110.1100470 384.091200
    930    935    937     1   110.1100470 384.091200
    930    935    938     1   110.1100470 384.091200
    930    929    931     1   109.5600471 388.275200
    930    929    932     1   109.5600471 388.275200
    931    929    932     1   108.4600466 328.025600
    933    930    935     1   108.0100461 406.684800
    933    930    934     1   109.7500473 328.025600
    934    930    935     1   108.0100461 406.684800
    936    935    937     1   108.3000464 339.740800
    936    935    938     1   108.3000464 339.740800
    937    935    938     1   108.3000464 339.740800
    939    941    943     1   108.8800464 416.726400
    939    941    944     1   108.8800464 416.726400
    940    939    941     1   117.6800502 383.254400
    941    942    945     1   110.5600475 386.601600
    941    942    946     1   110.5600475 386.601600
    942    941    943     1   109.5600471 388.275200
    942    941    944     1   109.5600471 388.275200
    942    947    948     1   110.1100470 384.091200
    942    947    949     1   110.1100470 384.091200
    942    947    950     1   110.1100470 384.091200
    943    941    944     1   108.4600466 328.025600
    945    942    947     1   108.0100461 406.684800
    945    942    946     1   109.7500473 328.025600
    946    942    947     1   108.0100461 406.684800
    948    947    949     1   108.3000464 339.740800
    948    947    950     1   108.3000464 339.740800
    949    947    950     1   108.3000464 339.740800
    951    953    955     1   108.8800464 416.726400
    951    953    956     1   108.8800464 416.726400
    952    951    953     1   117.6800502 383.254400
    953    954    957     1   110.5600475 386.601600
    953    954    958     1   110.5600475 386.601600
    954    959    960     1   110.1100470 384.091200
    954    959    961     1   110.1100470 384.091200
    954    959    962     1   110.1100470 384.091200
    954    953    955     1   109.5600471 388.275200
    954    953    956     1   109.5600471 388.275200
    955    953    956     1   108.4600466 328.025600
    957    954    959     1   108.0100461 406.684800
    957    954    958     1   109.7500473 328.025600
    958    954    959     1   108.0100461 406.684800
    960    959    961     1   108.3000464 339.740800
    960    959    962     1   108.3000464 339.740800
    961    959    962     1   108.3000464 339.740800
    963    965    967     1   108.8800464 416.726400
    963    965    968     1   108.8800464 416.726400
    964    963    965     1   117.6800502 383.254400
    965    966    969     1   110.5600475 386.601600
    965    966    970     1   110.5600475 386.601600
    966    965    967     1   109.5600471 388.275200
    966    965    968     1   109.5600471 388.275200
    966    971    972     1   110.1100470 384.091200
    966    971    973     1   110.1100470 384.091200
    966    971    974     1   110.1100470 384.091200
    967    965    968     1   108.4600466 328.025600
    969    966    971     1   108.0100461 406.684800
    969    966    970     1   109.7500473 328.025600
    970    966    971     1   108.0100461 406.684800
    972    971    973     1   108.3000464 339.740800
    972    971    974     1   108.3000464 339.740800
    973    971    974     1   108.3000464 339.740800
    975    977    979     1   108.8800464 416.726400
    975    977    980     1   108.8800464 416.726400
    976    975    977     1   117.6800502 383.254400
    977    978    981     1   110.5600475 386.601600
    977    978    982     1   110.5600475 386.601600
    978    983    984     1   110.1100470 384.091200
    978    983    985     1   110.1100470 384.091200
    978    983    986     1   110.1100470 384.091200
    978    977    979     1   109.5600471 388.275200
    978    977    980     1   109.5600471 388.275200
    979    977    980     1   108.4600466 328.025600
    981    978    983     1   108.0100461 406.684800
    981    978    982     1   109.7500473 328.025600
    982    978    983     1   108.0100461 406.684800
    984    983    985     1   108.3000464 339.740800
    984    983    986     1   108.3000464 339.740800
    985    983    986     1   108.3000464 339.740800
    987    989    991     1   108.8800464 416.726400
    987    989    992     1   108.8800464 416.726400
    988    987    989     1   117.6800502 383.254400
    989    990    993     1   110.5600475 386.601600
    989    990    994     1   110.5600475 386.601600
    990    989    991     1   109.5600471 388.275200
    990    989    992     1   109.5600471 388.275200
    990    995    996     1   110.1100470 384.091200
    990    995    997     1   110.1100470 384.091200
    990    995    998     1   110.1100470 384.091200
    991    989    992     1   108.4600466 328.025600
    993    990    995     1   108.0100461 406.684800
    993    990    994     1   109.7500473 328.025600
    994    990    995     1   108.0100461 406.684800
    996    995    997     1   108.3000464 339.740800
    996    995    998     1   108.3000464 339.740800
    997    995    998     1   108.3000464 339.740800
    999   1001   1003     1   108.8800464 416.726400
    999   1001   1004     1   108.8800464 416.726400
   1000    999   1001     1   117.6800502 383.254400
   1001   1002   1005     1   110.5600475 386.601600
   1001   1002   1006     1   110.5600475 386.601600
   1002   1007   1008     1   110.1100470 384.091200
   1002   1007   1009     1   110.1100470 384.091200
   1002   1007   1010     1   110.1100470 384.091200
   1002   1001   1003     1   109.5600471 388.275200
   1002   1001   1004     1   109.5600471 388.275200
   1003   1001   1004     1   108.4600466 328.025600
   1005   1002   1007     1   108.0100461 406.684800
   1005   1002   1006     1   109.7500473 328.025600
   1006   1002   1007     1   108.0100461 406.684800
   1008   1007   1009     1   108.3000464 339.740800
   1008   1007   1010     1   108.3000464 339.740800
   1009   1007   1010     1   108.3000464 339.740800
   1011   1013   1015     1   108.8800464 416.726400
   1011   1013   1016     1   108.8800464 416.726400
   1012   1011   1013     1   117.6800502 383.254400
   1013   1014   1017     1   110.5600475 386.601600
   1013   1014   1018     1   110.5600475 386.601600
   1014   1013   1015     1   109.5600471 388.275200
   1014   1013   1016     1   109.5600471 388.275200
   1014   1019   1020     1   110.1100470 384.091200
   1014   1019   1021     1   110.1100470 384.091200
   1014   1019   1022     1   110.1100470 384.091200
   1015   1013   1016     1   108.4600466 328.025600
   1017   1014   1019     1   108.0100461 406.684800
   1017   1014   1018     1   109.7500473 328.025600
   1018   1014   1019     1   108.0100461 406.684800
   1020   1019   1021     1   108.3000464 339.740800
   1020   1019   1022     1   108.3000464 339.740800
   1021   1019   1022     1   108.3000464 339.740800
   1023   1025   1027     1   108.8800464 416.726400
   1023   1025   1028     1   108.8800464 416.726400
   1024   1023   1025     1   117.6800502 383.254400
   1025   1026   1029     1   110.5600475 386.601600
   1025   1026   1030     1   110.5600475 386.601600
   1026   1031   1032     1   110.1100470 384.091200
   1026   1031   1033     1   110.1100470 384.091200
   1026   1031   1034     1   110.1100470 384.091200
   1026   1025   1027     1   109.5600471 388.275200
   1026   1025   1028     1   109.5600471 388.275200
   1027   1025   1028     1   108.4600466 328.025600
   1029   1026   1031     1   108.0100461 406.684800
   1029   1026   1030     1   109.7500473 328.025600
   1030   1026   1031     1   108.0100461 406.684800
   1032   1031   1033     1   108.3000464 339.740800
   1032   1031   1034     1   108.3000464 339.740800
   1033   1031   1034     1   108.3000464 339.740800
   1035   1037   1039     1   108.8800464 416.726400
   1035   1037   1040     1   108.8800464 416.726400
   1036   1035   1037     1   117.6800502 383.254400
   1037   1038   1041     1   110.5600475 386.601600
   1037   1038   1042     1   110.5600475 386.601600
   1038   1037   1039     1   109.5600471 388.275200
   1038   1037   1040     1   109.5600471 388.275200
   1038   1043   1044     1   110.1100470 384.091200
   1038   1043   1045     1   110.1100470 384.091200
   1038   1043   1046     1   110.1100470 384.091200
   1039   1037   1040     1   108.4600466 328.025600
   1041   1038   1043     1   108.0100461 406.684800
   1041   1038   1042     1   109.7500473 328.025600
   1042   1038   1043     1   108.0100461 406.684800
   1044   1043   1045     1   108.3000464 339.740800
   1044   1043   1046     1   108.3000464 339.740800
   1045   1043   1046     1   108.3000464 339.740800
   1047   1049   1051     1   108.8800464 416.726400
   1047   1049   1052     1   108.8800464 416.726400
   1048   1047   1049     1   117.6800502 383.254400
   1049   1050   1053     1   110.5600475 386.601600
   1049   1050   1054     1   110.5600475 386.601600
   1050   1055   1056     1   110.1100470 384.091200
   1050   1055   1057     1   110.1100470 384.091200
   1050   1055   1058     1   110.1100470 384.091200
   1050   1049   1051     1   109.5600471 388.275200
   1050   1049   1052     1   109.5600471 388.275200
   1051   1049   1052     1   108.4600466 328.025600
   1053   1050   1055     1   108.0100461 406.684800
   1053   1050   1054     1   109.7500473 328.025600
   1054   1050   1055     1   108.0100461 406.684800
   1056   1055   1057     1   108.3000464 339.740800
   1056   1055   1058     1   108.3000464 339.740800
   1057   1055   1058     1   108.3000464 339.740800
   1059   1061   1063     1   108.8800464 416.726400
   1059   1061   1064     1   108.8800464 416.726400
   1060   1059   1061     1   117.6800502 383.254400
   1061   1062   1065     1   110.5600475 386.601600
   1061   1062   1066     1   110.5600475 386.601600
   1062   1061   1063     1   109.5600471 388.275200
   1062   1061   1064     1   109.5600471 388.275200
   1062   1067   1068     1   110.1100470 384.091200
   1062   1067   1069     1   110.1100470 384.091200
   1062   1067   1070     1   110.1100470 384.091200
   1063   1061   1064     1   108.4600466 328.025600
   1065   1062   1067     1   108.0100461 406.684800
   1065   1062   1066     1   109.7500473 328.025600
   1066   1062   1067     1   108.0100461 406.684800
   1068   1067   1069     1   108.3000464 339.740800
   1068   1067   1070     1   108.3000464 339.740800
   1069   1067   1070     1   108.3000464 339.740800
   1071   1073   1075     1   108.8800464 416.726400
   1071   1073   1076     1   108.8800464 416.726400
   1072   1071   1073     1   117.6800502 383.254400
   1073   1074   1077     1   110.5600475 386.601600
   1073   1074   1078     1   110.5600475 386.601600
   1074   1079   1080     1   110.1100470 384.091200
   1074   1079   1081     1   110.1100470 384.091200
   1074   1079   1082     1   110.1100470 384.091200
   1074   1073   1075     1   109.5600471 388.275200
   1074   1073   1076     1   109.5600471 388.275200
   1075   1073   1076     1   108.4600466 328.025600
   1077   1074   1079     1   108.0100461 406.684800
   1077   1074   1078     1   109.7500473 328.025600
   1078   1074   1079     1   108.0100461 406.684800
   1080   1079   1081     1   108.3000464 339.740800
   1080   1079   1082     1   108.3000464 339.740800
   1081   1079   1082     1   108.3000464 339.740800
   1083   1085   1087     1   108.8800464 416.726400
   1083   1085   1088     1   108.8800464 416.726400
   1084   1083   1085     1   117.6800502 383.254400
   1085   1086   1089     1   110.5600475 386.601600
   1085   1086   1090     1   110.5600475 386.601600
   1086   1085   1087     1   109.5600471 388.275200
   1086   1085   1088     1   109.5600471 388.275200
   1086   1091   1092     1   110.1100470 384.091200
   1086   1091   1093     1   110.1100470 384.091200
   1086   1091   1094     1   110.1100470 384.091200
   1087   1085   1088     1   108.4600466 328.025600
   1089   1086   1091     1   108.0100461 406.684800
   1089   1086   1090     1   109.7500473 328.025600
   1090   1086   1091     1   108.0100461 406.684800
   1092   1091   1093     1   108.3000464 339.740800
   1092   1091   1094     1   108.3000464 339.740800
   1093   1091   1094     1   108.3000464 339.740800
   1095   1097   1099     1   108.8800464 416.726400
   1095   1097   1100     1   108.8800464 416.726400
   1096   1095   1097     1   117.6800502 383.254400
   1097   1098   1101     1   110.5600475 386.601600
   1097   1098   1102     1   110.5600475 386.601600
   1098   1103   1104     1   110.1100470 384.091200
   1098   1103   1105     1   110.1100470 384.091200
   1098   1103   1106     1   110.1100470 384.091200
   1098   1097   1099     1   109.5600471 388.275200
   1098   1097   1100     1   109.5600471 388.275200
   1099   1097   1100     1   108.4600466 328.025600
   1101   1098   1103     1   108.0100461 406.684800
   1101   1098   1102     1   109.7500473 328.025600
   1102   1098   1103     1   108.0100461 406.684800
   1104   1103   1105     1   108.3000464 339.740800
   1104   1103   1106     1   108.3000464 339.740800
   1105   1103   1106     1   108.3000464 339.740800
   1107   1109   1111     1   108.8800464 416.726400
   1107   1109   1112     1   108.8800464 416.726400
   1108   1107   1109     1   117.6800502 383.254400
   1109   1110   1113     1   110.5600475 386.601600
   1109   1110   1114     1   110.5600475 386.601600
   1110   1109   1111     1   109.5600471 388.275200
   1110   1109   1112     1   109.5600471 388.275200
   1110   1115   1116     1   110.1100470 384.091200
   1110   1115   1117     1   110.1100470 384.091200
   1110   1115   1118     1   110.1100470 384.091200
   1111   1109   1112     1   108.4600466 328.025600
   1113   1110   1115     1   108.0100461 406.684800
   1113   1110   1114     1   109.7500473 328.025600
   1114   1110   1115     1   108.0100461 406.684800
   1116   1115   1117     1   108.3000464 339.740800
   1116   1115   1118     1   108.3000464 339.740800
   1117   1115   1118     1   108.3000464 339.740800
   1119   1121   1123     1   108.8800464 416.726400
   1119   1121   1124     1   108.8800464 416.726400
   1120   1119   1121     1   117.6800502 383.254400
   1121   1122   1125     1   110.5600475 386.601600
   1121   1122   1126     1   110.5600475 386.601600
   1122   1127   1128     1   110.1100470 384.091200
   1122   1127   1129     1   110.1100470 384.091200
   1122   1127   1130     1   110.1100470 384.091200
   1122   1121   1123     1   109.5600471 388.275200
   1122   1121   1124     1   109.5600471 388.275200
   1123   1121   1124     1   108.4600466 328.025600
   1125   1122   1127     1   108.0100461 406.684800
   1125   1122   1126     1   109.7500473 328.025600
   1126   1122   1127     1   108.0100461 406.684800
   1128   1127   1129     1   108.3000464 339.740800
   1128   1127   1130     1   108.3000464 339.740800
   1129   1127   1130     1   108.3000464 339.740800
   1131   1133   1135     1   108.8800464 416.726400
   1131   1133   1136     1   108.8800464 416.726400
   1132   1131   1133     1   117.6800502 383.254400
   1133   1134   1137     1   110.5600475 386.601600
   1133   1134   1138     1   110.5600475 386.601600
   1134   1133   1135     1   109.5600471 388.275200
   1134   1133   1136     1   109.5600471 388.275200
   1134   1139   1140     1   110.1100470 384.091200
   1134   1139   1141     1   110.1100470 384.091200
   1134   1139   1142     1   110.1100470 384.091200
   1135   1133   1136     1   108.4600466 328.025600
   1137   1134   1139     1   108.0100461 406.684800
   1137   1134   1138     1   109.7500473 328.025600
   1138   1134   1139     1   108.0100461 406.684800
   1140   1139   1141     1   108.3000464 339.740800
   1140   1139   1142     1   108.3000464 339.740800
   1141   1139   1142     1   108.3000464 339.740800
   1143   1145   1147     1   108.8800464 416.726400
   1143   1145   1148     1   108.8800464 416.726400
   1144   1143   1145     1   117.6800502 383.254400
   1145   1146   1149     1   110.5600475 386.601600
   1145   1146   1150     1   110.5600475 386.601600
   1146   1151   1152     1   110.1100470 384.091200
   1146   1151   1153     1   110.1100470 384.091200
   1146   1151   1154     1   110.1100470 384.091200
   1146   1145   1147     1   109.5600471 388.275200
   1146   1145   1148     1   109.5600471 388.275200
   1147   1145   1148     1   108.4600466 328.025600
   1149   1146   1151     1   108.0100461 406.684800
   1149   1146   1150     1   109.7500473 328.025600
   1150   1146   1151     1   108.0100461 406.684800
   1152   1151   1153     1   108.3000464 339.740800
   1152   1151   1154     1   108.3000464 339.740800
   1153   1151   1154     1   108.3000464 339.740800

[ dihedrals ]
;    ai     aj     ak     al funct         c0         c1         c2         c3         c4         c5
      1      2      3      4     1  0.0000000  0.6508444  3
      1      7     13     14     1  0.0000000  0.6508444  3
      1      8     15     16     1  0.0000000  0.6508444  3
      2      1      7     13     1  0.0000000  0.6508444  3
      2      1      8     15     1  0.0000000  0.6508444  3
      2      3      4      5     1  0.0000000  0.6508444  3
      2      3      4      6     1  0.0000000  0.6508444  3
      7      1      2      3     1  0.0000000  0.6508444  3
      8      1      2      3     1  0.0000000  0.6508444  3
      3      4      5     11     1  0.0000000  0.6508444  3
      3      4      6      9     1  0.0000000  0.6508444  3
      4      5     11     12     1  0.0000000  0.6508444  3
      4      6      9     10     1  0.0000000  0.6508444  3
      5      4      6      9     1  0.0000000  0.6508444  3
      5     11     12     17     1  180.0000771  0.0000000  2
      5     11     12     78     1  0.0000000  0.2928800  2
      5     11     12     78     1  0.0000000  0.4184000  4
      6      4      5     11     1  0.0000000  0.6508444  3
      6      9     10     18     1  180.0000771  0.0000000  2
      6      9     10     52     1  0.0000000  0.2928800  2
      6      9     10     52     1  0.0000000  0.4184000  4
      7      1      8     15     1  0.0000000  0.6508444  3
      7     13     14     20     1  180.0000771  0.0000000  2
      7     13     14    104     1  0.0000000  0.2928800  2
      7     13     14    104     1  0.0000000  0.4184000  4
      8      1      7     13     1  0.0000000  0.6508444  3
      8     15     16     19     1  180.0000771  0.0000000  2
      8     15     16    130     1  0.0000000  0.2928800  2
      8     15     16    130     1  0.0000000  0.4184000  4
      9     10     52     51     1  180.0000771  6.2760000  1
      9     10     52     51     1  0.0000000  0.0000000  2
     10     52     51     50     1  0.0000000  2.2175200  1
     10     52     51     50     1  0.0000000  0.0000000  2
     10     52     51     50     1  180.0000771  0.6276000  3
     10     52     51     50     1  180.0000771  2.0920000  4
     11     12     78     77     1  180.0000771  6.2760000  1
     11     12     78     77     1  0.0000000  0.0000000  2
     12     78     77     76     1  0.0000000  2.2175200  1
     12     78     77     76     1  0.0000000  0.0000000  2
     12     78     77     76     1  180.0000771  0.6276000  3
     12     78     77     76     1  180.0000771  2.0920000  4
     13     14    104    103     1  180.0000771  6.2760000  1
     13     14    104    103     1  0.0000000  0.0000000  2
     14    104    103    102     1  0.0000000  2.2175200  1
     14    104    103    102     1  0.0000000  0.0000000  2
     14    104    103    102     1  180.0000771  0.6276000  3
     14    104    103    102     1  180.0000771  2.0920000  4
     15     16    130    129     1  180.0000771  6.2760000  1
     15     16    130    129     1  0.0000000  0.0000000  2
     16    130    129    128     1  0.0000000  2.2175200  1
     16    130    129    128     1  0.0000000  0.0000000  2
     16    130    129    128     1  180.0000771  0.6276000  3
     16    130    129    128     1  180.0000771  2.0920000  4
     17     12     78     77     1  180.0000771  10.4600000  2
     18     10     52     51     1  180.0000771  10.4600000  2
     19     16    130    129     1  180.0000771  10.4600000  2
     20     14    104    103     1  180.0000771  10.4600000  2
     43     44     46     47     1  0.0000000  0.6508444  3
     43     45     48     49     1  0.0000000  0.6508444  3
     43     50     51     52     1  0.0000000  0.6508444  3
     44     43     45     48     1  0.0000000  0.6508444  3
     44     43     50     51     1  0.0000000  0.6508444  3
     44     46     47     53     1  180.0000771  0.0000000  2
     44     46     47    156     1  0.0000000  0.2928800  2
     44     46     47    156     1  0.0000000  0.4184000  4
     45     43     44     46     1  0.0000000  0.6508444  3
     45     43     50     51     1  0.0000000  0.6508444  3
     45     48     49     54     1  180.0000771  0.0000000  2
     45     48     49    182     1  0.0000000  0.2928800  2
     45     48     49    182     1  0.0000000  0.4184000  4
     46     44     43     50     1  0.0000000  0.6508444  3
     46     47    156    155     1  180.0000771  6.2760000  1
     46     47    156    155     1  0.0000000  0.0000000  2
     47    156    155    154     1  0.0000000  2.2175200  1
     47    156    155    154     1  0.0000000  0.0000000  2
     47    156    155    154     1  180.0000771  0.6276000  3
     47    156    155    154     1  180.0000771  2.0920000  4
     48     45     43     50     1  0.0000000  0.6508444  3
     48     49    182    181     1  180.0000771  6.2760000  1
     48     49    182    181     1  0.0000000  0.0000000  2
     49    182    181    180     1  0.0000000  2.2175200  1
     49    182    181    180     1  0.0000000  0.0000000  2
     49    182    181    180     1  180.0000771  0.6276000  3
     49    182    181    180     1  180.0000771  2.0920000  4
     53     47    156    155     1  180.0000771  10.4600000  2
     54     49    182    181     1  180.0000771  10.4600000  2
     69     70     72     73     1  0.0000000  0.6508444  3
     69     71     74     75     1  0.0000000  0.6508444  3
     69     76     77     78     1  0.0000000  0.6508444  3
     70     69     71     74     1  0.0000000  0.6508444  3
     70     69     76     77     1  0.0000000  0.6508444  3
     70     72     73     79     1  180.0000771  0.0000000  2
     70     72     73    208     1  0.0000000  0.2928800  2
     70     72     73    208     1  0.0000000  0.4184000  4
     71     69     70     72     1  0.0000000  0.6508444  3
     71     69     76     77     1  0.0000000  0.6508444  3
     71     74     75     80     1  180.0000771  0.0000000  2
     71     74     75    234     1  0.0000000  0.2928800  2
     71     74     75    234     1  0.0000000  0.4184000  4
     72     70     69     76     1  0.0000000  0.6508444  3
     72     73    208    207     1  180.0000771  6.2760000  1
     72     73    208    207     1  0.0000000  0.0000000  2
     73    208    207    206     1  0.0000000  2.2175200  1
     73    208    207    206     1  0.0000000  0.0000000  2
     73    208    207    206     1  180.0000771  0.6276000  3
     73    208    207    206     1  180.0000771  2.0920000  4
     74     71     69     76     1  0.0000000  0.6508444  3
     74     75    234    233     1  180.0000771  6.2760000  1
     74     75    234    233     1  0.0000000  0.0000000  2
     75    234    233    232     1  0.0000000  2.2175200  1
     75    234    233    232     1  0.0000000  0.0000000  2
     75    234    233    232     1  180.0000771  0.6276000  3
     75    234    233    232     1  180.0000771  2.0920000  4
     79     73    208    207     1  180.0000771  10.4600000  2
     80     75    234    233     1  180.0000771  10.4600000  2
     95     96     98     99     1  0.0000000  0.6508444  3
     95     97    100    101     1  0.0000000  0.6508444  3
     95    102    103    104     1  0.0000000  0.6508444  3
     96     95     97    100     1  0.0000000  0.6508444  3
     96     95    102    103     1  0.0000000  0.6508444  3
     96     98     99    105     1  180.0000771  0.0000000  2
     96     98     99    260     1  0.0000000  0.2928800  2
     96     98     99    260     1  0.0000000  0.4184000  4
     97     95     96     98     1  0.0000000  0.6508444  3
     97     95    102    103     1  0.0000000  0.6508444  3
     97    100    101    106     1  180.0000771  0.0000000  2
     97    100    101    286     1  0.0000000  0.2928800  2
     97    100    101    286     1  0.0000000  0.4184000  4
     98     96     95    102     1  0.0000000  0.6508444  3
     98     99    260    259     1  180.0000771  6.2760000  1
     98     99    260    259     1  0.0000000  0.0000000  2
     99    260    259    258     1  0.0000000  2.2175200  1
     99    260    259    258     1  0.0000000  0.0000000  2
     99    260    259    258     1  180.0000771  0.6276000  3
     99    260    259    258     1  180.0000771  2.0920000  4
    100     97     95    102     1  0.0000000  0.6508444  3
    100    101    286    285     1  180.0000771  6.2760000  1
    100    101    286    285     1  0.0000000  0.0000000  2
    101    286    285    284     1  0.0000000  2.2175200  1
    101    286    285    284     1  0.0000000  0.0000000  2
    101    286    285    284     1  180.0000771  0.6276000  3
    101    286    285    284     1  180.0000771  2.0920000  4
    105     99    260    259     1  180.0000771  10.4600000  2
    106    101    286    285     1  180.0000771  10.4600000  2
    121    122    124    125     1  0.0000000  0.6508444  3
    121    123    126    127     1  0.0000000  0.6508444  3
    121    128    129    130     1  0.0000000  0.6508444  3
    122    121    123    126     1  0.0000000  0.6508444  3
    122    121    128    129     1  0.0000000  0.6508444  3
    122    124    125    131     1  180.0000771  0.0000000  2
    122    124    125    312     1  0.0000000  0.2928800  2
    122    124    125    312     1  0.0000000  0.4184000  4
    123    121    122    124     1  0.0000000  0.6508444  3
    123    121    128    129     1  0.0000000  0.6508444  3
    123    126    127    132     1  180.0000771  0.0000000  2
    123    126    127    338     1  0.0000000  0.2928800  2
    123    126    127    338     1  0.0000000  0.4184000  4
    124    122    121    128     1  0.0000000  0.6508444  3
    124    125    312    311     1  180.0000771  6.2760000  1
    124    125    312    311     1  0.0000000  0.0000000  2
    125    312    311    310     1  0.0000000  2.2175200  1
    125    312    311    310     1  0.0000000  0.0000000  2
    125    312    311    310     1  180.0000771  0.6276000  3
    125    312    311    310     1  180.0000771  2.0920000  4
    126    123    121    128     1  0.0000000  0.6508444  3
    126    127    338    337     1  180.0000771  6.2760000  1
    126    127    338    337     1  0.0000000  0.0000000  2
    127    338    337    336     1  0.0000000  2.2175200  1
    127    338    337    336     1  0.0000000  0.0000000  2
    127    338    337    336     1  180.0000771  0.6276000  3
    127    338    337    336     1  180.0000771  2.0920000  4
    131    125    312    311     1  180.0000771  10.4600000  2
    132    127    338    337     1  180.0000771  10.4600000  2
    147    148    150    151     1  0.0000000  0.6508444  3
    147    149    152    153     1  0.0000000  0.6508444  3
    147    154    155    156     1  0.0000000  0.6508444  3
    148    147    149    152     1  0.0000000  0.6508444  3
    148    147    154    155     1  0.0000000  0.6508444  3
    148    150    151    157     1  180.0000771  0.0000000  2
    148    150    151    364     1  0.0000000  0.2928800  2
    148    150    151    364     1  0.0000000  0.4184000  4
    149    147    148    150     1  0.0000000  0.6508444  3
    149    147    154    155     1  0.0000000  0.6508444  3
    149    152    153    158     1  180.0000771  0.0000000  2
    149    152    153    390     1  0.0000000  0.2928800  2
    149    152    153    390     1  0.0000000  0.4184000  4
    150    148    147    154     1  0.0000000  0.6508444  3
    150    151    364    363     1  180.0000771  6.2760000  1
    150    151    364    363     1  0.0000000  0.0000000  2
    151    364    363    362     1  0.0000000  2.2175200  1
    151    364    363    362     1  0.0000000  0.0000000  2
    151    364    363    362     1  180.0000771  0.6276000  3
    151    364    363    362     1  180.0000771  2.0920000  4
    152    149    147    154     1  0.0000000  0.6508444  3
    152    153    390    389     1  180.0000771  6.2760000  1
    152    153    390    389     1  0.0000000  0.0000000  2
    153    390    389    388     1  0.0000000  2.2175200  1
    153    390    389    388     1  0.0000000  0.0000000  2
    153    390    389    388     1  180.0000771  0.6276000  3
    153    390    389    388     1  180.0000771  2.0920000  4
    157    151    364    363     1  180.0000771  10.4600000  2
    158    153    390    389     1  180.0000771  10.4600000  2
    173    174    176    177     1  0.0000000  0.6508444  3
    173    175    178    179     1  0.0000000  0.6508444  3
    173    180    181    182     1  0.0000000  0.6508444  3
    174    173    175    178     1  0.0000000  0.6508444  3
    174    173    180    181     1  0.0000000  0.6508444  3
    174    176    177    183     1  180.0000771  0.0000000  2
    174    176    177    416     1  0.0000000  0.2928800  2
    174    176    177    416     1  0.0000000  0.4184000  4
    175    173    174    176     1  0.0000000  0.6508444  3
    175    173    180    181     1  0.0000000  0.6508444  3
    175    178    179    184     1  180.0000771  0.0000000  2
    175    178    179    442     1  0.0000000  0.2928800  2
    175    178    179    442     1  0.0000000  0.4184000  4
    176    174    173    180     1  0.0000000  0.6508444  3
    176    177    416    415     1  180.0000771  6.2760000  1
    176    177    416    415     1  0.0000000  0.0000000  2
    177    416    415    414     1  0.0000000  2.2175200  1
    177    416    415    414     1  0.0000000  0.0000000  2
    177    416    415    414     1  180.0000771  0.6276000  3
    177    416    415    414     1  180.0000771  2.0920000  4
    178    175    173    180     1  0.0000000  0.6508444  3
    178    179    442    441     1  180.0000771  6.2760000  1
    178    179    442    441     1  0.0000000  0.0000000  2
    179    442    441    440     1  0.0000000  2.2175200  1
    179    442    441    440     1  0.0000000  0.0000000  2
    179    442    441    440     1  180.0000771  0.6276000  3
    179    442    441    440     1  180.0000771  2.0920000  4
    183    177    416    415     1  180.0000771  10.4600000  2
    184    179    442    441     1  180.0000771  10.4600000  2
    199    200    202    203     1  0.0000000  0.6508444  3
    199    201    204    205     1  0.0000000  0.6508444  3
    199    206    207    208     1  0.0000000  0.6508444  3
    200    199    201    204     1  0.0000000  0.6508444  3
    200    199    206    207     1  0.0000000  0.6508444  3
    200    202    203    209     1  180.0000771  0.0000000  2
    200    202    203    468     1  0.0000000  0.2928800  2
    200    202    203    468     1  0.0000000  0.4184000  4
    201    199    200    202     1  0.0000000  0.6508444  3
    201    199    206    207     1  0.0000000  0.6508444  3
    201    204    205    210     1  180.0000771  0.0000000  2
    201    204    205    494     1  0.0000000  0.2928800  2
    201    204    205    494     1  0.0000000  0.4184000  4
    202    200    199    206     1  0.0000000  0.6508444  3
    202    203    468    467     1  180.0000771  6.2760000  1
    202    203    468    467     1  0.0000000  0.0000000  2
    203    468    467    466     1  0.0000000  2.2175200  1
    203    468    467    466     1  0.0000000  0.0000000  2
    203    468    467    466     1  180.0000771  0.6276000  3
    203    468    467    466     1  180.0000771  2.0920000  4
    204    201    199    206     1  0.0000000  0.6508444  3
    204    205    494    493     1  180.0000771  6.2760000  1
    204    205    494    493     1  0.0000000  0.0000000  2
    205    494    493    492     1  0.0000000  2.2175200  1
    205    494    493    492     1  0.0000000  0.0000000  2
    205    494    493    492     1  180.0000771  0.6276000  3
    205    494    493    492     1  180.0000771  2.0920000  4
    209    203    468    467     1  180.0000771  10.4600000  2
    210    205    494    493     1  180.0000771  10.4600000  2
    225    226    228    229     1  0.0000000  0.6508444  3
    225    227    230    231     1  0.0000000  0.6508444  3
    225    232    233    234     1  0.0000000  0.6508444  3
    226    225    227    230     1  0.0000000  0.6508444  3
    226    225    232    233     1  0.0000000  0.6508444  3
    226    228    229    235     1  180.0000771  0.0000000  2
    226    228    229    520     1  0.0000000  0.2928800  2
    226    228    229    520     1  0.0000000  0.4184000  4
    227    225    226    228     1  0.0000000  0.6508444  3
    227    225    232    233     1  0.0000000  0.6508444  3
    227    230    231    236     1  180.0000771  0.0000000  2
    227    230    231    546     1  0.0000000  0.2928800  2
    227    230    231    546     1  0.0000000  0.4184000  4
    228    226    225    232     1  0.0000000  0.6508444  3
    228    229    520    519     1  180.0000771  6.2760000  1
    228    229    520    519     1  0.0000000  0.0000000  2
    229    520    519    518     1  0.0000000  2.2175200  1
    229    520    519    518     1  0.0000000  0.0000000  2
    229    520    519    518     1  180.0000771  0.6276000  3
    229    520    519    518     1  180.0000771  2.0920000  4
    230    227    225    232     1  0.0000000  0.6508444  3
    230    231    546    545     1  180.0000771  6.2760000  1
    230    231    546    545     1  0.0000000  0.0000000  2
    231    546    545    544     1  0.0000000  2.2175200  1
    231    546    545    544     1  0.0000000  0.0000000  2
    231    546    545    544     1  180.0000771  0.6276000  3
    231    546    545    544     1  180.0000771  2.0920000  4
    235    229    520    519     1  180.0000771  10.4600000  2
    236    231    546    545     1  180.0000771  10.4600000  2
    251    252    254    255     1  0.0000000  0.6508444  3
    251    253    256    257     1  0.0000000  0.6508444  3
    251    258    259    260     1  0.0000000  0.6508444  3
    252    251    253    256     1  0.0000000  0.6508444  3
    252    251    258    259     1  0.0000000  0.6508444  3
    252    254    255    261     1  180.0000771  0.0000000  2
    252    254    255    572     1  0.0000000  0.2928800  2
    252    254    255    572     1  0.0000000  0.4184000  4
    253    251    252    254     1  0.0000000  0.6508444  3
    253    251    258    259     1  0.0000000  0.6508444  3
    253    256    257    262     1  180.0000771  0.0000000  2
    253    256    257    598     1  0.0000000  0.2928800  2
    253    256    257    598     1  0.0000000  0.4184000  4
    254    252    251    258     1  0.0000000  0.6508444  3
    254    255    572    571     1  180.0000771  6.2760000  1
    254    255    572    571     1  0.0000000  0.0000000  2
    255    572    571    570     1  0.0000000  2.2175200  1
    255    572    571    570     1  0.0000000  0.0000000  2
    255    572    571    570     1  180.0000771  0.6276000  3
    255    572    571    570     1  180.0000771  2.0920000  4
    256    253    251    258     1  0.0000000  0.6508444  3
    256    257    598    597     1  180.0000771  6.2760000  1
    256    257    598    597     1  0.0000000  0.0000000  2
    257    598    597    596     1  0.0000000  2.2175200  1
    257    598    597    596     1  0.0000000  0.0000000  2
    257    598    597    596     1  180.0000771  0.6276000  3
    257    598    597    596     1  180.0000771  2.0920000  4
    261    255    572    571     1  180.0000771  10.4600000  2
    262    257    598    597     1  180.0000771  10.4600000  2
    277    278    280    281     1  0.0000000  0.6508444  3
    277    279    282    283     1  0.0000000  0.6508444  3
    277    284    285    286     1  0.0000000  0.6508444  3
    278    277    279    282     1  0.0000000  0.6508444  3
    278    277    284    285     1  0.0000000  0.6508444  3
    278    280    281    287     1  180.0000771  0.0000000  2
    278    280    281    624     1  0.0000000  0.2928800  2
    278    280    281    624     1  0.0000000  0.4184000  4
    279    277    278    280     1  0.0000000  0.6508444  3
    279    277    284    285     1  0.0000000  0.6508444  3
    279    282    283    288     1  180.0000771  0.0000000  2
    279    282    283    650     1  0.0000000  0.2928800  2
    279    282    283    650     1  0.0000000  0.4184000  4
    280    278    277    284     1  0.0000000  0.6508444  3
    280    281    624    623     1  180.0000771  6.2760000  1
    280    281    624    623     1  0.0000000  0.0000000  2
    281    624    623    622     1  0.0000000  2.2175200  1
    281    624    623    622     1  0.0000000  0.0000000  2
    281    624    623    622     1  180.0000771  0.6276000  3
    281    624    623    622     1  180.0000771  2.0920000  4
    282    279    277    284     1  0.0000000  0.6508444  3
    282    283    650    649     1  180.0000771  6.2760000  1
    282    283    650    649     1  0.0000000  0.0000000  2
    283    650    649    648     1  0.0000000  2.2175200  1
    283    650    649    648     1  0.0000000  0.0000000  2
    283    650    649    648     1  180.0000771  0.6276000  3
    283    650    649    648     1  180.0000771  2.0920000  4
    287    281    624    623     1  180.0000771  10.4600000  2
    288    283    650    649     1  180.0000771  10.4600000  2
    303    304    306    307     1  0.0000000  0.6508444  3
    303    305    308    309     1  0.0000000  0.6508444  3
    303    310    311    312     1  0.0000000  0.6508444  3
    304    303    305    308     1  0.0000000  0.6508444  3
    304    303    310    311     1  0.0000000  0.6508444  3
    304    306    307    313     1  180.0000771  0.0000000  2
    304    306    307    676     1  0.0000000  0.2928800  2
    304    306    307    676     1  0.0000000  0.4184000  4
    305    303    304    306     1  0.0000000  0.6508444  3
    305    303    310    311     1  0.0000000  0.6508444  3
    305    308    309    314     1  180.0000771  0.0000000  2
    305    308    309    702     1  0.0000000  0.2928800  2
    305    308    309    702     1  0.0000000  0.4184000  4
    306    304    303    310     1  0.0000000  0.6508444  3
    306    307    676    675     1  180.0000771  6.2760000  1
    306    307    676    675     1  0.0000000  0.0000000  2
    307    676    675    674     1  0.0000000  2.2175200  1
    307    676    675    674     1  0.0000000  0.0000000  2
    307    676    675    674     1  180.0000771  0.6276000  3
    307    676    675    674     1  180.0000771  2.0920000  4
    308    305    303    310     1  0.0000000  0.6508444  3
    308    309    702    701     1  180.0000771  6.2760000  1
    308    309    702    701     1  0.0000000  0.0000000  2
    309    702    701    700     1  0.0000000  2.2175200  1
    309    702    701    700     1  0.0000000  0.0000000  2
    309    702    701    700     1  180.0000771  0.6276000  3
    309    702    701    700     1  180.0000771  2.0920000  4
    313    307    676    675     1  180.0000771  10.4600000  2
    314    309    702    701     1  180.0000771  10.4600000  2
    329    330    332    333     1  0.0000000  0.6508444  3
    329    331    334    335     1  0.0000000  0.6508444  3
    329    336    337    338     1  0.0000000  0.6508444  3
    330    329    331    334     1  0.0000000  0.6508444  3
    330    329    336    337     1  0.0000000  0.6508444  3
    330    332    333    339     1  180.0000771  0.0000000  2
    330    332    333    728     1  0.0000000  0.2928800  2
    330    332    333    728     1  0.0000000  0.4184000  4
    331    329    330    332     1  0.0000000  0.6508444  3
    331    329    336    337     1  0.0000000  0.6508444  3
    331    334    335    340     1  180.0000771  0.0000000  2
    331    334    335    754     1  0.0000000  0.2928800  2
    331    334    335    754     1  0.0000000  0.4184000  4
    332    330    329    336     1  0.0000000  0.6508444  3
    332    333    728    727     1  180.0000771  6.2760000  1
    332    333    728    727     1  0.0000000  0.0000000  2
    333    728    727    726     1  0.0000000  2.2175200  1
    333    728    727    726     1  0.0000000  0.0000000  2
    333    728    727    726     1  180.0000771  0.6276000  3
    333    728    727    726     1  180.0000771  2.0920000  4
    334    331    329    336     1  0.0000000  0.6508444  3
    334    335    754    753     1  180.0000771  6.2760000  1
    334    335    754    753     1  0.0000000  0.0000000  2
    335    754    753    752     1  0.0000000  2.2175200  1
    335    754    753    752     1  0.0000000  0.0000000  2
    335    754    753    752     1  180.0000771  0.6276000  3
    335    754    753    752     1  180.0000771  2.0920000  4
    339    333    728    727     1  180.0000771  10.4600000  2
    340    335    754    753     1  180.0000771  10.4600000  2
    355    356    358    359     1  0.0000000  0.6508444  3
    355    357    360    361     1  0.0000000  0.6508444  3
    355    362    363    364     1  0.0000000  0.6508444  3
    356    355    357    360     1  0.0000000  0.6508444  3
    356    355    362    363     1  0.0000000  0.6508444  3
    356    358    359    771     1  0.0000000  0.2928800  2
    356    358    359    771     1  0.0000000  0.4184000  4
    356    358    359    365     1  180.0000771  0.0000000  2
    357    355    356    358     1  0.0000000  0.6508444  3
    357    355    362    363     1  0.0000000  0.6508444  3
    357    360    361    366     1  180.0000771  0.0000000  2
    357    360    361    783     1  0.0000000  0.2928800  2
    357    360    361    783     1  0.0000000  0.4184000  4
    358    356    355    362     1  0.0000000  0.6508444  3
    358    359    771    773     1  180.0000771  6.2760000  1
    358    359    771    773     1  0.0000000  0.0000000  2
    359    771    773    774     1  0.0000000  2.2175200  1
    359    771    773    774     1  0.0000000  0.0000000  2
    359    771    773    774     1  180.0000771  0.6276000  3
    359    771    773    774     1  180.0000771  2.0920000  4
    360    357    355    362     1  0.0000000  0.6508444  3
    360    361    783    785     1  180.0000771  6.2760000  1
    360    361    783    785     1  0.0000000  0.0000000  2
    361    783    785    786     1  0.0000000  2.2175200  1
    361    783    785    786     1  0.0000000  0.0000000  2
    361    783    785    786     1  180.0000771  0.6276000  3
    361    783    785    786     1  180.0000771  2.0920000  4
    365    359    771    773     1  180.0000771  10.4600000  2
    366    361    783    785     1  180.0000771  10.4600000  2
    381    382    384    385     1  0.0000000  0.6508444  3
    381    383    386    387     1  0.0000000  0.6508444  3
    381    388    389    390     1  0.0000000  0.6508444  3
    382    381    383    386     1  0.0000000  0.6508444  3
    382    381    388    389     1  0.0000000  0.6508444  3
    382    384    385    795     1  0.0000000  0.2928800  2
    382    384    385    795     1  0.0000000  0.4184000  4
    382    384    385    391     1  180.0000771  0.0000000  2
    383    381    382    384     1  0.0000000  0.6508444  3
    383    381    388    389     1  0.0000000  0.6508444  3
    383    386    387    392     1  180.0000771  0.0000000  2
    383    386    387    807     1  0.0000000  0.2928800  2
    383    386    387    807     1  0.0000000  0.4184000  4
    384    382    381    388     1  0.0000000  0.6508444  3
    384    385    795    797     1  180.0000771  6.2760000  1
    384    385    795    797     1  0.0000000  0.0000000  2
    385    795    797    798     1  0.0000000  2.2175200  1
    385    795    797    798     1  0.0000000  0.0000000  2
    385    795    797    798     1  180.0000771  0.6276000  3
    385    795    797    798     1  180.0000771  2.0920000  4
    386    383    381    388     1  0.0000000  0.6508444  3
    386    387    807    809     1  180.0000771  6.2760000  1
    386    387    807    809     1  0.0000000  0.0000000  2
    387    807    809    810     1  0.0000000  2.2175200  1
    387    807    809    810     1  0.0000000  0.0000000  2
    387    807    809    810     1  180.0000771  0.6276000  3
    387    807    809    810     1  180.0000771  2.0920000  4
    391    385    795    797     1  180.0000771  10.4600000  2
    392    387    807    809     1  180.0000771  10.4600000  2
    407    408    410    411     1  0.0000000  0.6508444  3
    407    409    412    413     1  0.0000000  0.6508444  3
    407    414    415    416     1  0.0000000  0.6508444  3
    408    407    409    412     1  0.0000000  0.6508444  3
    408    407    414    415     1  0.0000000  0.6508444  3
    408    410    411    819     1  0.0000000  0.2928800  2
    408    410    411    819     1  0.0000000  0.4184000  4
    408    410    411    417     1  180.0000771  0.0000000  2
    409    407    408    410     1  0.0000000  0.6508444  3
    409    407    414    415     1  0.0000000  0.6508444  3
    409    412    413    418     1  180.0000771  0.0000000  2
    409    412    413    831     1  0.0000000  0.2928800  2
    409    412    413    831     1  0.0000000  0.4184000  4
    410    408    407    414     1  0.0000000  0.6508444  3
    410    411    819    821     1  180.0000771  6.2760000  1
    410    411    819    821     1  0.0000000  0.0000000  2
    411    819    821    822     1  0.0000000  2.2175200  1
    411    819    821    822     1  0.0000000  0.0000000  2
    411    819    821    822     1  180.0000771  0.6276000  3
    411    819    821    822     1  180.0000771  2.0920000  4
    412    409    407    414     1  0.0000000  0.6508444  3
    412    413    831    833     1  180.0000771  6.2760000  1
    412    413    831    833     1  0.0000000  0.0000000  2
    413    831    833    834     1  0.0000000  2.2175200  1
    413    831    833    834     1  0.0000000  0.0000000  2
    413    831    833    834     1  180.0000771  0.6276000  3
    413    831    833    834     1  180.0000771  2.0920000  4
    417    411    819    821     1  180.0000771  10.4600000  2
    418    413    831    833     1  180.0000771  10.4600000  2
    433    434    436    437     1  0.0000000  0.6508444  3
    433    435    438    439     1  0.0000000  0.6508444  3
    433    440    441    442     1  0.0000000  0.6508444  3
    434    433    435    438     1  0.0000000  0.6508444  3
    434    433    440    441     1  0.0000000  0.6508444  3
    434    436    437    843     1  0.0000000  0.2928800  2
    434    436    437    843     1  0.0000000  0.4184000  4
    434    436    437    443     1  180.0000771  0.0000000  2
    435    433    434    436     1  0.0000000  0.6508444  3
    435    433    440    441     1  0.0000000  0.6508444  3
    435    438    439    444     1  180.0000771  0.0000000  2
    435    438    439    855     1  0.0000000  0.2928800  2
    435    438    439    855     1  0.0000000  0.4184000  4
    436    434    433    440     1  0.0000000  0.6508444  3
    436    437    843    845     1  180.0000771  6.2760000  1
    436    437    843    845     1  0.0000000  0.0000000  2
    437    843    845    846     1  0.0000000  2.2175200  1
    437    843    845    846     1  0.0000000  0.0000000  2
    437    843    845    846     1  180.0000771  0.6276000  3
    437    843    845    846     1  180.0000771  2.0920000  4
    438    435    433    440     1  0.0000000  0.6508444  3
    438    439    855    857     1  180.0000771  6.2760000  1
    438    439    855    857     1  0.0000000  0.0000000  2
    439    855    857    858     1  0.0000000  2.2175200  1
    439    855    857    858     1  0.0000000  0.0000000  2
    439    855    857    858     1  180.0000771  0.6276000  3
    439    855    857    858     1  180.0000771  2.0920000  4
    443    437    843    845     1  180.0000771  10.4600000  2
    444    439    855    857     1  180.0000771  10.4600000  2
    459    460    462    463     1  0.0000000  0.6508444  3
    459    461    464    465     1  0.0000000  0.6508444  3
    459    466    467    468     1  0.0000000  0.6508444  3
    460    459    461    464     1  0.0000000  0.6508444  3
    460    459    466    467     1  0.0000000  0.6508444  3
    460    462    463    867     1  0.0000000  0.2928800  2
    460    462    463    867     1  0.0000000  0.4184000  4
    460    462    463    469     1  180.0000771  0.0000000  2
    461    459    460    462     1  0.0000000  0.6508444  3
    461    459    466    467     1  0.0000000  0.6508444  3
    461    464    465    470     1  180.0000771  0.0000000  2
    461    464    465    879     1  0.0000000  0.2928800  2
    461    464    465    879     1  0.0000000  0.4184000  4
    462    460    459    466     1  0.0000000  0.6508444  3
    462    463    867    869     1  180.0000771  6.2760000  1
    462    463    867    869     1  0.0000000  0.0000000  2
    463    867    869    870     1  0.0000000  2.2175200  1
    463    867    869    870     1  0.0000000  0.0000000  2
    463    867    869    870     1  180.0000771  0.6276000  3
    463    867    869    870     1  180.0000771  2.0920000  4
    464    461    459    466     1  0.0000000  0.6508444  3
    464    465    879    881     1  180.0000771  6.2760000  1
    464    465    879    881     1  0.0000000  0.0000000  2
    465    879    881    882     1  0.0000000  2.2175200  1
    465    879    881    882     1  0.0000000  0.0000000  2
    465    879    881    882     1  180.0000771  0.6276000  3
    465    879    881    882     1  180.0000771  2.0920000  4
    469    463    867    869     1  180.0000771  10.4600000  2
    470    465    879    881     1  180.0000771  10.4600000  2
    485    486    488    489     1  0.0000000  0.6508444  3
    485    487    490    491     1  0.0000000  0.6508444  3
    485    492    493    494     1  0.0000000  0.6508444  3
    486    485    487    490     1  0.0000000  0.6508444  3
    486    485    492    493     1  0.0000000  0.6508444  3
    486    488    489    891     1  0.0000000  0.2928800  2
    486    488    489    891     1  0.0000000  0.4184000  4
    486    488    489    495     1  180.0000771  0.0000000  2
    487    485    486    488     1  0.0000000  0.6508444  3
    487    485    492    493     1  0.0000000  0.6508444  3
    487    490    491    496     1  180.0000771  0.0000000  2
    487    490    491    903     1  0.0000000  0.2928800  2
    487    490    491    903     1  0.0000000  0.4184000  4
    488    486    485    492     1  0.0000000  0.6508444  3
    488    489    891    893     1  180.0000771  6.2760000  1
    488    489    891    893     1  0.0000000  0.0000000  2
    489    891    893    894     1  0.0000000  2.2175200  1
    489    891    893    894     1  0.0000000  0.0000000  2
    489    891    893    894     1  180.0000771  0.6276000  3
    489    891    893    894     1  180.0000771  2.0920000  4
    490    487    485    492     1  0.0000000  0.6508444  3
    490    491    903    905     1  180.0000771  6.2760000  1
    490    491    903    905     1  0.0000000  0.0000000  2
    491    903    905    906     1  0.0000000  2.2175200  1
    491    903    905    906     1  0.0000000  0.0000000  2
    491    903    905    906     1  180.0000771  0.6276000  3
    491    903    905    906     1  180.0000771  2.0920000  4
    495    489    891    893     1  180.0000771  10.4600000  2
    496    491    903    905     1  180.0000771  10.4600000  2
    511    512    514    515     1  0.0000000  0.6508444  3
    511    513    516    517     1  0.0000000  0.6508444  3
    511    518    519    520     1  0.0000000  0.6508444  3
    512    511    513    516     1  0.0000000  0.6508444  3
    512    511    518    519     1  0.0000000  0.6508444  3
    512    514    515    915     1  0.0000000  0.2928800  2
    512    514    515    915     1  0.0000000  0.4184000  4
    512    514    515    521     1  180.0000771  0.0000000  2
    513    511    512    514     1  0.0000000  0.6508444  3
    513    511    518    519     1  0.0000000  0.6508444  3
    513    516    517    522     1  180.0000771  0.0000000  2
    513    516    517    927     1  0.0000000  0.2928800  2
    513    516    517    927     1  0.0000000  0.4184000  4
    514    512    511    518     1  0.0000000  0.6508444  3
    514    515    915    917     1  180.0000771  6.2760000  1
    514    515    915    917     1  0.0000000  0.0000000  2
    515    915    917    918     1  0.0000000  2.2175200  1
    515    915    917    918     1  0.0000000  0.0000000  2
    515    915    917    918     1  180.0000771  0.6276000  3
    515    915    917    918     1  180.0000771  2.0920000  4
    516    513    511    518     1  0.0000000  0.6508444  3
    516    517    927    929     1  180.0000771  6.2760000  1
    516    517    927    929     1  0.0000000  0.0000000  2
    517    927    929    930     1  0.0000000  2.2175200  1
    517    927    929    930     1  0.0000000  0.0000000  2
    517    927    929    930     1  180.0000771  0.6276000  3
    517    927    929    930     1  180.0000771  2.0920000  4
    521    515    915    917     1  180.0000771  10.4600000  2
    522    517    927    929     1  180.0000771  10.4600000  2
    537    538    540    541     1  0.0000000  0.6508444  3
    537    539    542    543     1  0.0000000  0.6508444  3
    537    544    545    546     1  0.0000000  0.6508444  3
    538    537    539    542     1  0.0000000  0.6508444  3
    538    537    544    545     1  0.0000000  0.6508444  3
    538    540    541    939     1  0.0000000  0.2928800  2
    538    540    541    939     1  0.0000000  0.4184000  4
    538    540    541    547     1  180.0000771  0.0000000  2
    539    537    538    540     1  0.0000000  0.6508444  3
    539    537    544    545     1  0.0000000  0.6508444  3
    539    542    543    548     1  180.0000771  0.0000000  2
    539    542    543    951     1  0.0000000  0.2928800  2
    539    542    543    951     1  0.0000000  0.4184000  4
    540    538    537    544     1  0.0000000  0.6508444  3
    540    541    939    941     1  180.0000771  6.2760000  1
    540    541    939    941     1  0.0000000  0.0000000  2
    541    939    941    942     1  0.0000000  2.2175200  1
    541    939    941    942     1  0.0000000  0.0000000  2
    541    939    941    942     1  180.0000771  0.6276000  3
    541    939    941    942     1  180.0000771  2.0920000  4
    542    539    537    544     1  0.0000000  0.6508444  3
    542    543    951    953     1  180.0000771  6.2760000  1
    542    543    951    953     1  0.0000000  0.0000000  2
    543    951    953    954     1  0.0000000  2.2175200  1
    543    951    953    954     1  0.0000000  0.0000000  2
    543    951    953    954     1  180.0000771  0.6276000  3
    543    951    953    954     1  180.0000771  2.0920000  4
    547    541    939    941     1  180.0000771  10.4600000  2
    548    543    951    953     1  180.0000771  10.4600000  2
    563    564    566    567     1  0.0000000  0.6508444  3
    563    565    568    569     1  0.0000000  0.6508444  3
    563    570    571    572     1  0.0000000  0.6508444  3
    564    563    565    568     1  0.0000000  0.6508444  3
    564    563    570    571     1  0.0000000  0.6508444  3
    564    566    567    963     1  0.0000000  0.2928800  2
    564    566    567    963     1  0.0000000  0.4184000  4
    564    566    567    573     1  180.0000771  0.0000000  2
    565    563    564    566     1  0.0000000  0.6508444  3
    565    563    570    571     1  0.0000000  0.6508444  3
    565    568    569    574     1  180.0000771  0.0000000  2
    565    568    569    975     1  0.0000000  0.2928800  2
    565    568    569    975     1  0.0000000  0.4184000  4
    566    564    563    570     1  0.0000000  0.6508444  3
    566    567    963    965     1  180.0000771  6.2760000  1
    566    567    963    965     1  0.0000000  0.0000000  2
    567    963    965    966     1  0.0000000  2.2175200  1
    567    963    965    966     1  0.0000000  0.0000000  2
    567    963    965    966     1  180.0000771  0.6276000  3
    567    963    965    966     1  180.0000771  2.0920000  4
    568    565    563    570     1  0.0000000  0.6508444  3
    568    569    975    977     1  180.0000771  6.2760000  1
    568    569    975    977     1  0.0000000  0.0000000  2
    569    975    977    978     1  0.0000000  2.2175200  1
    569    975    977    978     1  0.0000000  0.0000000  2
    569    975    977    978     1  180.0000771  0.6276000  3
    569    975    977    978     1  180.0000771  2.0920000  4
    573    567    963    965     1  180.0000771  10.4600000  2
    574    569    975    977     1  180.0000771  10.4600000  2
    589    590    592    593     1  0.0000000  0.6508444  3
    589    591    594    595     1  0.0000000  0.6508444  3
    589    596    597    598     1  0.0000000  0.6508444  3
    590    589    591    594     1  0.0000000  0.6508444  3
    590    589    596    597     1  0.0000000  0.6508444  3
    590    592    593    987     1  0.0000000  0.2928800  2
    590    592    593    987     1  0.0000000  0.4184000  4
    590    592    593    599     1  180.0000771  0.0000000  2
    591    589    590    592     1  0.0000000  0.6508444  3
    591    589    596    597     1  0.0000000  0.6508444  3
    591    594    595    600     1  180.0000771  0.0000000  2
    591    594    595    999     1  0.0000000  0.2928800  2
    591    594    595    999     1  0.0000000  0.4184000  4
    592    590    589    596     1  0.0000000  0.6508444  3
    592    593    987    989     1  180.0000771  6.2760000  1
    592    593    987    989     1  0.0000000  0.0000000  2
    593    987    989    990     1  0.0000000  2.2175200  1
    593    987    989    990     1  0.0000000  0.0000000  2
    593    987    989    990     1  180.0000771  0.6276000  3
    593    987    989    990     1  180.0000771  2.0920000  4
    594    591    589    596     1  0.0000000  0.6508444  3
    594    595    999   1001     1  180.0000771  6.2760000  1
    594    595    999   1001     1  0.0000000  0.0000000  2
    595    999   1001   1002     1  0.0000000  2.2175200  1
    595    999   1001   1002     1  0.0000000  0.0000000  2
    595    999   1001   1002     1  180.0000771  0.6276000  3
    595    999   1001   1002     1  180.0000771  2.0920000  4
    599    593    987    989     1  180.0000771  10.4600000  2
    600    595    999   1001     1  180.0000771  10.4600000  2
    615    616    618    619     1  0.0000000  0.6508444  3
    615    617    620    621     1  0.0000000  0.6508444  3
    615    622    623    624     1  0.0000000  0.6508444  3
    616    615    617    620     1  0.0000000  0.6508444  3
    616    615    622    623     1  0.0000000  0.6508444  3
    616    618    619   1011     1  0.0000000  0.2928800  2
    616    618    619   1011     1  0.0000000  0.4184000  4
    616    618    619    625     1  180.0000771  0.0000000  2
    617    615    616    618     1  0.0000000  0.6508444  3
    617    615    622    623     1  0.0000000  0.6508444  3
    617    620    621    626     1  180.0000771  0.0000000  2
    617    620    621   1023     1  0.0000000  0.2928800  2
    617    620    621   1023     1  0.0000000  0.4184000  4
    618    616    615    622     1  0.0000000  0.6508444  3
    618    619   1011   1013     1  180.0000771  6.2760000  1
    618    619   1011   1013     1  0.0000000  0.0000000  2
    619   1011   1013   1014     1  0.0000000  2.2175200  1
    619   1011   1013   1014     1  0.0000000  0.0000000  2
    619   1011   1013   1014     1  180.0000771  0.6276000  3
    619   1011   1013   1014     1  180.0000771  2.0920000  4
    620    617    615    622     1  0.0000000  0.6508444  3
    620    621   1023   1025     1  180.0000771  6.2760000  1
    620    621   1023   1025     1  0.0000000  0.0000000  2
    621   1023   1025   1026     1  0.0000000  2.2175200  1
    621   1023   1025   1026     1  0.0000000  0.0000000  2
    621   1023   1025   1026     1  180.0000771  0.6276000  3
    621   1023   1025   1026     1  180.0000771  2.0920000  4
    625    619   1011   1013     1  180.0000771  10.4600000  2
    626    621   1023   1025     1  180.0000771  10.4600000  2
    641    642    644    645     1  0.0000000  0.6508444  3
    641    643    646    647     1  0.0000000  0.6508444  3
    641    648    649    650     1  0.0000000  0.6508444  3
    642    641    643    646     1  0.0000000  0.6508444  3
    642    641    648    649     1  0.0000000  0.6508444  3
    642    644    645   1035     1  0.0000000  0.2928800  2
    642    644    645   1035     1  0.0000000  0.4184000  4
    642    644    645    651     1  180.0000771  0.0000000  2
    643    641    642    644     1  0.0000000  0.6508444  3
    643    641    648    649     1  0.0000000  0.6508444  3
    643    646    647    652     1  180.0000771  0.0000000  2
    643    646    647   1047     1  0.0000000  0.2928800  2
    643    646    647   1047     1  0.0000000  0.4184000  4
    644    642    641    648     1  0.0000000  0.6508444  3
    644    645   1035   1037     1  180.0000771  6.2760000  1
    644    645   1035   1037     1  0.0000000  0.0000000  2
    645   1035   1037   1038     1  0.0000000  2.2175200  1
    645   1035   1037   1038     1  0.0000000  0.0000000  2
    645   1035   1037   1038     1  180.0000771  0.6276000  3
    645   1035   1037   1038     1  180.0000771  2.0920000  4
    646    643    641    648     1  0.0000000  0.6508444  3
    646    647   1047   1049     1  180.0000771  6.2760000  1
    646    647   1047   1049     1  0.0000000  0.0000000  2
    647   1047   1049   1050     1  0.0000000  2.2175200  1
    647   1047   1049   1050     1  0.0000000  0.0000000  2
    647   1047   1049   1050     1  180.0000771  0.6276000  3
    647   1047   1049   1050     1  180.0000771  2.0920000  4
    651    645   1035   1037     1  180.0000771  10.4600000  2
    652    647   1047   1049     1  180.0000771  10.4600000  2
    667    668    670    671     1  0.0000000  0.6508444  3
    667    669    672    673     1  0.0000000  0.6508444  3
    667    674    675    676     1  0.0000000  0.6508444  3
    668    667    669    672     1  0.0000000  0.6508444  3
    668    667    674    675     1  0.0000000  0.6508444  3
    668    670    671   1059     1  0.0000000  0.2928800  2
    668    670    671   1059     1  0.0000000  0.4184000  4
    668    670    671    677     1  180.0000771  0.0000000  2
    669    667    668    670     1  0.0000000  0.6508444  3
    669    667    674    675     1  0.0000000  0.6508444  3
    669    672    673    678     1  180.0000771  0.0000000  2
    669    672    673   1071     1  0.0000000  0.2928800  2
    669    672    673   1071     1  0.0000000  0.4184000  4
    670    668    667    674     1  0.0000000  0.6508444  3
    670    671   1059   1061     1  180.0000771  6.2760000  1
    670    671   1059   1061     1  0.0000000  0.0000000  2
    671   1059   1061   1062     1  0.0000000  2.2175200  1
    671   1059   1061   1062     1  0.0000000  0.0000000  2
    671   1059   1061   1062     1  180.0000771  0.6276000  3
    671   1059   1061   1062     1  180.0000771  2.0920000  4
    672    669    667    674     1  0.0000000  0.6508444  3
    672    673   1071   1073     1  180.0000771  6.2760000  1
    672    673   1071   1073     1  0.0000000  0.0000000  2
    673   1071   1073   1074     1  0.0000000  2.2175200  1
    673   1071   1073   1074     1  0.0000000  0.0000000  2
    673   1071   1073   1074     1  180.0000771  0.6276000  3
    673   1071   1073   1074     1  180.0000771  2.0920000  4
    677    671   1059   1061     1  180.0000771  10.4600000  2
    678    673   1071   1073     1  180.0000771  10.4600000  2
    693    694    696    697     1  0.0000000  0.6508444  3
    693    695    698    699     1  0.0000000  0.6508444  3
    693    700    701    702     1  0.0000000  0.6508444  3
    694    693    695    698     1  0.0000000  0.6508444  3
    694    693    700    701     1  0.0000000  0.6508444  3
    694    696    697   1083     1  0.0000000  0.2928800  2
    694    696    697   1083     1  0.0000000  0.4184000  4
    694    696    697    703     1  180.0000771  0.0000000  2
    695    693    694    696     1  0.0000000  0.6508444  3
    695    693    700    701     1  0.0000000  0.6508444  3
    695    698    699    704     1  180.0000771  0.0000000  2
    695    698    699   1095     1  0.0000000  0.2928800  2
    695    698    699   1095     1  0.0000000  0.4184000  4
    696    694    693    700     1  0.0000000  0.6508444  3
    696    697   1083   1085     1  180.0000771  6.2760000  1
    696    697   1083   1085     1  0.0000000  0.0000000  2
    697   1083   1085   1086     1  0.0000000  2.2175200  1
    697   1083   1085   1086     1  0.0000000  0.0000000  2
    697   1083   1085   1086     1  180.0000771  0.6276000  3
    697   1083   1085   1086     1  180.0000771  2.0920000  4
    698    695    693    700     1  0.0000000  0.6508444  3
    698    699   1095   1097     1  180.0000771  6.2760000  1
    698    699   1095   1097     1  0.0000000  0.0000000  2
    699   1095   1097   1098     1  0.0000000  2.2175200  1
    699   1095   1097   1098     1  0.0000000  0.0000000  2
    699   1095   1097   1098     1  180.0000771  0.6276000  3
    699   1095   1097   1098     1  180.0000771  2.0920000  4
    703    697   1083   1085     1  180.0000771  10.4600000  2
    704    699   1095   1097     1  180.0000771  10.4600000  2
    719    720    722    723     1  0.0000000  0.6508444  3
    719    721    724    725     1  0.0000000  0.6508444  3
    719    726    727    728     1  0.0000000  0.6508444  3
    720    719    721    724     1  0.0000000  0.6508444  3
    720    719    726    727     1  0.0000000  0.6508444  3
    720    722    723   1107     1  0.0000000  0.2928800  2
    720    722    723   1107     1  0.0000000  0.4184000  4
    720    722    723    729     1  180.0000771  0.0000000  2
    721    719    720    722     1  0.0000000  0.6508444  3
    721    719    726    727     1  0.0000000  0.6508444  3
    721    724    725    730     1  180.0000771  0.0000000  2
    721    724    725   1119     1  0.0000000  0.2928800  2
    721    724    725   1119     1  0.0000000  0.4184000  4
    722    720    719    726     1  0.0000000  0.6508444  3
    722    723   1107   1109     1  180.0000771  6.2760000  1
    722    723   1107   1109     1  0.0000000  0.0000000  2
    723   1107   1109   1110     1  0.0000000  2.2175200  1
    723   1107   1109   1110     1  0.0000000  0.0000000  2
    723   1107   1109   1110     1  180.0000771  0.6276000  3
    723   1107   1109   1110     1  180.0000771  2.0920000  4
    724    721    719    726     1  0.0000000  0.6508444  3
    724    725   1119   1121     1  180.0000771  6.2760000  1
    724    725   1119   1121     1  0.0000000  0.0000000  2
    725   1119   1121   1122     1  0.0000000  2.2175200  1
    725   1119   1121   1122     1  0.0000000  0.0000000  2
    725   1119   1121   1122     1  180.0000771  0.6276000  3
    725   1119   1121   1122     1  180.0000771  2.0920000  4
    729    723   1107   1109     1  180.0000771  10.4600000  2
    730    725   1119   1121     1  180.0000771  10.4600000  2
    745    746    748    749     1  0.0000000  0.6508444  3
    745    747    750    751     1  0.0000000  0.6508444  3
    745    752    753    754     1  0.0000000  0.6508444  3
    746    745    747    750     1  0.0000000  0.6508444  3
    746    745    752    753     1  0.0000000  0.6508444  3
    746    748    749   1131     1  0.0000000  0.2928800  2
    746    748    749   1131     1  0.0000000  0.4184000  4
    746    748    749    755     1  180.0000771  0.0000000  2
    747    745    746    748     1  0.0000000  0.6508444  3
    747    745    752    753     1  0.0000000  0.6508444  3
    747    750    751   1143     1  0.0000000  0.2928800  2
    747    750    751   1143     1  0.0000000  0.4184000  4
    747    750    751    756     1  180.0000771  0.0000000  2
    748    746    745    752     1  0.0000000  0.6508444  3
    748    749   1131   1133     1  180.0000771  6.2760000  1
    748    749   1131   1133     1  0.0000000  0.0000000  2
    749   1131   1133   1134     1  0.0000000  2.2175200  1
    749   1131   1133   1134     1  0.0000000  0.0000000  2
    749   1131   1133   1134     1  180.0000771  0.6276000  3
    749   1131   1133   1134     1  180.0000771  2.0920000  4
    750    747    745    752     1  0.0000000  0.6508444  3
    750    751   1143   1145     1  180.0000771  6.2760000  1
    750    751   1143   1145     1  0.0000000  0.0000000  2
    751   1143   1145   1146     1  0.0000000  2.2175200  1
    751   1143   1145   1146     1  0.0000000  0.0000000  2
    751   1143   1145   1146     1  180.0000771  0.6276000  3
    751   1143   1145   1146     1  180.0000771  2.0920000  4
    755    749   1131   1133     1  180.0000771  10.4600000  2
    756    751   1143   1145     1  180.0000771  10.4600000  2
    771    773    774    779     1  0.0000000  0.6508444  3
    783    785    786    791     1  0.0000000  0.6508444  3
    795    797    798    803     1  0.0000000  0.6508444  3
    807    809    810    815     1  0.0000000  0.6508444  3
    819    821    822    827     1  0.0000000  0.6508444  3
    831    833    834    839     1  0.0000000  0.6508444  3
    843    845    846    851     1  0.0000000  0.6508444  3
    855    857    858    863     1  0.0000000  0.6508444  3
    867    869    870    875     1  0.0000000  0.6508444  3
    879    881    882    887     1  0.0000000  0.6508444  3
    891    893    894    899     1  0.0000000  0.6508444  3
    903    905    906    911     1  0.0000000  0.6508444  3
    915    917    918    923     1  0.0000000  0.6508444  3
    927    929    930    935     1  0.0000000  0.6508444  3
    939    941    942    947     1  0.0000000  0.6508444  3
    951    953    954    959     1  0.0000000  0.6508444  3
    963    965    966    971     1  0.0000000  0.6508444  3
    975    977    978    983     1  0.0000000  0.6508444  3
    987    989    990    995     1  0.0000000  0.6508444  3
    999   1001   1002   1007     1  0.0000000  0.6508444  3
   1011   1013   1014   1019     1  0.0000000  0.6508444  3
   1023   1025   1026   1031     1  0.0000000  0.6508444  3
   1035   1037   1038   1043     1  0.0000000  0.6508444  3
   1047   1049   1050   1055     1  0.0000000  0.6508444  3
   1059   1061   1062   1067     1  0.0000000  0.6508444  3
   1071   1073   1074   1079     1  0.0000000  0.6508444  3
   1083   1085   1086   1091     1  0.0000000  0.6508444  3
   1095   1097   1098   1103     1  0.0000000  0.6508444  3
   1107   1109   1110   1115     1  0.0000000  0.6508444  3
   1119   1121   1122   1127     1  0.0000000  0.6508444  3
   1131   1133   1134   1139     1  0.0000000  0.6508444  3
   1143   1145   1146   1151     1  0.0000000  0.6508444  3
      9     52     10     18     4  180.0000771  43.9320000  2
     11     78     12     17     4  180.0000771  43.9320000  2
     13    104     14     20     4  180.0000771  43.9320000  2
     15    130     16     19     4  180.0000771  43.9320000  2
     46    156     47     53     4  180.0000771  43.9320000  2
     48    182     49     54     4  180.0000771  43.9320000  2
     72    208     73     79     4  180.0000771  43.9320000  2
     74    234     75     80     4  180.0000771  43.9320000  2
     98    260     99    105     4  180.0000771  43.9320000  2
    100    286    101    106     4  180.0000771  43.9320000  2
    124    312    125    131     4  180.0000771  43.9320000  2
    126    338    127    132     4  180.0000771  43.9320000  2
    150    364    151    157     4  180.0000771  43.9320000  2
    152    390    153    158     4  180.0000771  43.9320000  2
    176    416    177    183     4  180.0000771  43.9320000  2
    178    442    179    184     4  180.0000771  43.9320000  2
    202    468    203    209     4  180.0000771  43.9320000  2
    204    494    205    210     4  180.0000771  43.9320000  2
    228    520    229    235     4  180.0000771  43.9320000  2
    230    546    231    236     4  180.0000771  43.9320000  2
    254    572    255    261     4  180.0000771  43.9320000  2
    256    598    257    262     4  180.0000771  43.9320000  2
    280    624    281    287     4  180.0000771  43.9320000  2
    282    650    283    288     4  180.0000771  43.9320000  2
    306    676    307    313     4  180.0000771  43.9320000  2
    308    702    309    314     4  180.0000771  43.9320000  2
    332    728    333    339     4  180.0000771  43.9320000  2
    334    754    335    340     4  180.0000771  43.9320000  2
    358    771    359    365     4  180.0000771  43.9320000  2
    360    783    361    366     4  180.0000771  43.9320000  2
    384    795    385    391     4  180.0000771  43.9320000  2
    386    807    387    392     4  180.0000771  43.9320000  2
    410    819    411    417     4  180.0000771  43.9320000  2
    412    831    413    418     4  180.0000771  43.9320000  2
    436    843    437    443     4  180.0000771  43.9320000  2
    438    855    439    444     4  180.0000771  43.9320000  2
    462    867    463    469     4  180.0000771  43.9320000  2
    464    879    465    470     4  180.0000771  43.9320000  2
    488    891    489    495     4  180.0000771  43.9320000  2
    490    903    491    496     4  180.0000771  43.9320000  2
    514    915    515    521     4  180.0000771  43.9320000  2
    516    927    517    522     4  180.0000771  43.9320000  2
    540    939    541    547     4  180.0000771  43.9320000  2
    542    951    543    548     4  180.0000771  43.9320000  2
    566    963    567    573     4  180.0000771  43.9320000  2
    568    975    569    574     4  180.0000771  43.9320000  2
    592    987    593    599     4  180.0000771  43.9320000  2
    594    999    595    600     4  180.0000771  43.9320000  2
    618   1011    619    625     4  180.0000771  43.9320000  2
    620   1023    621    626     4  180.0000771  43.9320000  2
    644   1035    645    651     4  180.0000771  43.9320000  2
    646   1047    647    652     4  180.0000771  43.9320000  2
    670   1059    671    677     4  180.0000771  43.9320000  2
    672   1071    673    678     4  180.0000771  43.9320000  2
    696   1083    697    703     4  180.0000771  43.9320000  2
    698   1095    699    704     4  180.0000771  43.9320000  2
    722   1107    723    729     4  180.0000771  43.9320000  2
    724   1119    725    730     4  180.0000771  43.9320000  2
    748   1131    749    755     4  180.0000771  43.9320000  2
    750   1143    751    756     4  180.0000771  43.9320000  2
      1      2      3     23     1  0.0000000  0.6508444  3
      1      2      3     24     1  0.0000000  0.6508444  3
      1      7     13     37     1  0.0000000  0.6508444  3
      1      7     13     38     1  0.0000000  0.6508444  3
      1      8     15     39     1  0.0000000  0.6508444  3
      1      8     15     40     1  0.0000000  0.6508444  3
      2      1      7     29     1  0.0000000  0.6508444  3
      2      1      7     30     1  0.0000000  0.6508444  3
      2      1      8     31     1  0.0000000  0.6508444  3
      2      1      8     32     1  0.0000000  0.6508444  3
      2      3      4     42     1  0.0000000  0.6508444  3
     41      1      2      3     1  0.0000000  0.6508444  3
      3      4      5     25     1  0.0000000  0.6508444  3
      3      4      5     26     1  0.0000000  0.6508444  3
      3      4      6     27     1  0.0000000  0.6508444  3
      3      4      6     28     1  0.0000000  0.6508444  3
      4      3      2     21     1  0.0000000  0.6508444  3
      4      3      2     22     1  0.0000000  0.6508444  3
      4      5     11     35     1  0.0000000  0.6508444  3
      4      5     11     36     1  0.0000000  0.6508444  3
      4      6      9     33     1  0.0000000  0.6508444  3
      4      6      9     34     1  0.0000000  0.6508444  3
      5      4      3     23     1  0.0000000  0.6508444  3
      5      4      3     24     1  0.0000000  0.6508444  3
      5      4      6     27     1  0.0000000  0.6508444  3
      5      4      6     28     1  0.0000000  0.6508444  3
      6      4      3     23     1  0.0000000  0.6508444  3
      6      4      3     24     1  0.0000000  0.6508444  3
      6      4      5     25     1  0.0000000  0.6508444  3
      6      4      5     26     1  0.0000000  0.6508444  3
      7      1      2     21     1  0.0000000  0.6508444  3
      7      1      2     22     1  0.0000000  0.6508444  3
      7      1      8     31     1  0.0000000  0.6508444  3
      7      1      8     32     1  0.0000000  0.6508444  3
      8      1      2     21     1  0.0000000  0.6508444  3
      8      1      2     22     1  0.0000000  0.6508444  3
      8      1      7     29     1  0.0000000  0.6508444  3
      8      1      7     30     1  0.0000000  0.6508444  3
      9      6      4     42     1  0.0000000  0.6508444  3
      9     10     52     67     1  180.0000771  10.4600000  2
     10      9      6     27     1  0.0000000  0.6508444  3
     10      9      6     28     1  0.0000000  0.6508444  3
     10     52     51     65     1  0.0000000  0.0000000  2
     10     52     51     66     1  0.0000000  0.0000000  2
     11      5      4     42     1  0.0000000  0.6508444  3
     11     12     78     93     1  180.0000771  10.4600000  2
     12     11      5     25     1  0.0000000  0.6508444  3
     12     11      5     26     1  0.0000000  0.6508444  3
     12     78     77     91     1  0.0000000  0.0000000  2
     12     78     77     92     1  0.0000000  0.0000000  2
     41      1      7     13     1  0.0000000  0.6508444  3
     13     14    104    119     1  180.0000771  10.4600000  2
     14     13      7     29     1  0.0000000  0.6508444  3
     14     13      7     30     1  0.0000000  0.6508444  3
     14    104    103    117     1  0.0000000  0.0000000  2
     14    104    103    118     1  0.0000000  0.0000000  2
     41      1      8     15     1  0.0000000  0.6508444  3
     15     16    130    145     1  180.0000771  10.4600000  2
     16     15      8     31     1  0.0000000  0.6508444  3
     16     15      8     32     1  0.0000000  0.6508444  3
     16    130    129    143     1  0.0000000  0.0000000  2
     16    130    129    144     1  0.0000000  0.0000000  2
     17     12     11     35     1  0.0000000  3.3472000  1
     17     12     11     35     1  0.0000000  0.0000000  2
     17     12     11     35     1  180.0000771  0.3347200  3
     17     12     11     36     1  0.0000000  3.3472000  1
     17     12     11     36     1  0.0000000  0.0000000  2
     17     12     11     36     1  180.0000771  0.3347200  3
     17     12     78     93     1  0.0000000  8.3680000  1
     17     12     78     93     1  180.0000771  10.4600000  2
     18     10      9     33     1  0.0000000  3.3472000  1
     18     10      9     33     1  0.0000000  0.0000000  2
     18     10      9     33     1  180.0000771  0.3347200  3
     18     10      9     34     1  0.0000000  3.3472000  1
     18     10      9     34     1  0.0000000  0.0000000  2
     18     10      9     34     1  180.0000771  0.3347200  3
     18     10     52     67     1  0.0000000  8.3680000  1
     18     10     52     67     1  180.0000771  10.4600000  2
     19     16     15     39     1  0.0000000  3.3472000  1
     19     16     15     39     1  0.0000000  0.0000000  2
     19     16     15     39     1  180.0000771  0.3347200  3
     19     16     15     40     1  0.0000000  3.3472000  1
     19     16     15     40     1  0.0000000  0.0000000  2
     19     16     15     40     1  180.0000771  0.3347200  3
     19     16    130    145     1  0.0000000  8.3680000  1
     19     16    130    145     1  180.0000771  10.4600000  2
     20     14     13     37     1  0.0000000  3.3472000  1
     20     14     13     37     1  0.0000000  0.0000000  2
     20     14     13     37     1  180.0000771  0.3347200  3
     20     14     13     38     1  0.0000000  3.3472000  1
     20     14     13     38     1  0.0000000  0.0000000  2
     20     14     13     38     1  180.0000771  0.3347200  3
     20     14    104    119     1  0.0000000  8.3680000  1
     20     14    104    119     1  180.0000771  10.4600000  2
     41      1      2     21     1  0.0000000  0.6508444  3
     21      2      3     23     1  0.0000000  0.6508444  3
     21      2      3     24     1  0.0000000  0.6508444  3
     41      1      2     22     1  0.0000000  0.6508444  3
     22      2      3     23     1  0.0000000  0.6508444  3
     22      2      3     24     1  0.0000000  0.6508444  3
     23      3      4     42     1  0.0000000  0.6508444  3
     24      3      4     42     1  0.0000000  0.6508444  3
     25      5      4     42     1  0.0000000  0.6508444  3
     25      5     11     35     1  0.0000000  0.6508444  3
     25      5     11     36     1  0.0000000  0.6508444  3
     26      5      4     42     1  0.0000000  0.6508444  3
     26      5     11     35     1  0.0000000  0.6508444  3
     26      5     11     36     1  0.0000000  0.6508444  3
     27      6      4     42     1  0.0000000  0.6508444  3
     27      6      9     33     1  0.0000000  0.6508444  3
     27      6      9     34     1  0.0000000  0.6508444  3
     28      6      4     42     1  0.0000000  0.6508444  3
     28      6      9     33     1  0.0000000  0.6508444  3
     28      6      9     34     1  0.0000000  0.6508444  3
     41      1      7     29     1  0.0000000  0.6508444  3
     29      7     13     37     1  0.0000000  0.6508444  3
     29      7     13     38     1  0.0000000  0.6508444  3
     41      1      7     30     1  0.0000000  0.6508444  3
     30      7     13     37     1  0.0000000  0.6508444  3
     30      7     13     38     1  0.0000000  0.6508444  3
     41      1      8     31     1  0.0000000  0.6508444  3
     31      8     15     39     1  0.0000000  0.6508444  3
     31      8     15     40     1  0.0000000  0.6508444  3
     41      1      8     32     1  0.0000000  0.6508444  3
     32      8     15     39     1  0.0000000  0.6508444  3
     32      8     15     40     1  0.0000000  0.6508444  3
     33      9     10     52     1  180.0000771  0.0000000  2
     34      9     10     52     1  180.0000771  0.0000000  2
     35     11     12     78     1  180.0000771  0.0000000  2
     36     11     12     78     1  180.0000771  0.0000000  2
     37     13     14    104     1  180.0000771  0.0000000  2
     38     13     14    104     1  180.0000771  0.0000000  2
     39     15     16    130     1  180.0000771  0.0000000  2
     40     15     16    130     1  180.0000771  0.0000000  2
     43     44     46     59     1  0.0000000  0.6508444  3
     43     44     46     60     1  0.0000000  0.6508444  3
     43     45     48     61     1  0.0000000  0.6508444  3
     43     45     48     62     1  0.0000000  0.6508444  3
     43     50     51     65     1  0.0000000  0.6508444  3
     43     50     51     66     1  0.0000000  0.6508444  3
     44     43     45     57     1  0.0000000  0.6508444  3
     44     43     45     58     1  0.0000000  0.6508444  3
     44     43     50     63     1  0.0000000  0.6508444  3
     44     43     50     64     1  0.0000000  0.6508444  3
     45     43     44     55     1  0.0000000  0.6508444  3
     45     43     44     56     1  0.0000000  0.6508444  3
     45     43     50     63     1  0.0000000  0.6508444  3
     45     43     50     64     1  0.0000000  0.6508444  3
     46     44     43     68     1  0.0000000  0.6508444  3
     46     47    156    171     1  180.0000771  10.4600000  2
     47     46     44     55     1  0.0000000  0.6508444  3
     47     46     44     56     1  0.0000000  0.6508444  3
     47    156    155    169     1  0.0000000  0.0000000  2
     47    156    155    170     1  0.0000000  0.0000000  2
     48     45     43     68     1  0.0000000  0.6508444  3
     48     49    182    197     1  180.0000771  10.4600000  2
     49     48     45     57     1  0.0000000  0.6508444  3
     49     48     45     58     1  0.0000000  0.6508444  3
     49    182    181    195     1  0.0000000  0.0000000  2
     49    182    181    196     1  0.0000000  0.0000000  2
     50     43     44     55     1  0.0000000  0.6508444  3
     50     43     44     56     1  0.0000000  0.6508444  3
     50     43     45     57     1  0.0000000  0.6508444  3
     50     43     45     58     1  0.0000000  0.6508444  3
     50     51     52     67     1  0.0000000  0.0000000  2
     51     50     43     68     1  0.0000000  0.6508444  3
     52     51     50     63     1  0.0000000  0.6508444  3
     52     51     50     64     1  0.0000000  0.6508444  3
     53     47     46     59     1  0.0000000  3.3472000  1
     53     47     46     59     1  0.0000000  0.0000000  2
     53     47     46     59     1  180.0000771  0.3347200  3
     53     47     46     60     1  0.0000000  3.3472000  1
     53     47     46     60     1  0.0000000  0.0000000  2
     53     47     46     60     1  180.0000771  0.3347200  3
     53     47    156    171     1  0.0000000  8.3680000  1
     53     47    156    171     1  180.0000771  10.4600000  2
     54     49     48     61     1  0.0000000  3.3472000  1
     54     49     48     61     1  0.0000000  0.0000000  2
     54     49     48     61     1  180.0000771  0.3347200  3
     54     49     48     62     1  0.0000000  3.3472000  1
     54     49     48     62     1  0.0000000  0.0000000  2
     54     49     48     62     1  180.0000771  0.3347200  3
     54     49    182    197     1  0.0000000  8.3680000  1
     54     49    182    197     1  180.0000771  10.4600000  2
     55     44     43     68     1  0.0000000  0.6508444  3
     55     44     46     59     1  0.0000000  0.6508444  3
     55     44     46     60     1  0.0000000  0.6508444  3
     56     44     43     68     1  0.0000000  0.6508444  3
     56     44     46     59     1  0.0000000  0.6508444  3
     56     44     46     60     1  0.0000000  0.6508444  3
     57     45     43     68     1  0.0000000  0.6508444  3
     57     45     48     61     1  0.0000000  0.6508444  3
     57     45     48     62     1  0.0000000  0.6508444  3
     58     45     43     68     1  0.0000000  0.6508444  3
     58     45     48     61     1  0.0000000  0.6508444  3
     58     45     48     62     1  0.0000000  0.6508444  3
     59     46     47    156     1  180.0000771  0.0000000  2
     60     46     47    156     1  180.0000771  0.0000000  2
     61     48     49    182     1  180.0000771  0.0000000  2
     62     48     49    182     1  180.0000771  0.0000000  2
     63     50     43     68     1  0.0000000  0.6508444  3
     63     50     51     65     1  0.0000000  0.6508444  3
     63     50     51     66     1  0.0000000  0.6508444  3
     64     50     43     68     1  0.0000000  0.6508444  3
     64     50     51     65     1  0.0000000  0.6508444  3
     64     50     51     66     1  0.0000000  0.6508444  3
     65     51     52     67     1  0.0000000  0.0000000  2
     66     51     52     67     1  0.0000000  0.0000000  2
     69     70     72     85     1  0.0000000  0.6508444  3
     69     70     72     86     1  0.0000000  0.6508444  3
     69     71     74     87     1  0.0000000  0.6508444  3
     69     71     74     88     1  0.0000000  0.6508444  3
     69     76     77     91     1  0.0000000  0.6508444  3
     69     76     77     92     1  0.0000000  0.6508444  3
     70     69     71     83     1  0.0000000  0.6508444  3
     70     69     71     84     1  0.0000000  0.6508444  3
     70     69     76     89     1  0.0000000  0.6508444  3
     70     69     76     90     1  0.0000000  0.6508444  3
     71     69     70     81     1  0.0000000  0.6508444  3
     71     69     70     82     1  0.0000000  0.6508444  3
     71     69     76     89     1  0.0000000  0.6508444  3
     71     69     76     90     1  0.0000000  0.6508444  3
     72     70     69     94     1  0.0000000  0.6508444  3
     72     73    208    223     1  180.0000771  10.4600000  2
     73     72     70     81     1  0.0000000  0.6508444  3
     73     72     70     82     1  0.0000000  0.6508444  3
     73    208    207    221     1  0.0000000  0.0000000  2
     73    208    207    222     1  0.0000000  0.0000000  2
     74     71     69     94     1  0.0000000  0.6508444  3
     74     75    234    249     1  180.0000771  10.4600000  2
     75     74     71     83     1  0.0000000  0.6508444  3
     75     74     71     84     1  0.0000000  0.6508444  3
     75    234    233    247     1  0.0000000  0.0000000  2
     75    234    233    248     1  0.0000000  0.0000000  2
     76     69     70     81     1  0.0000000  0.6508444  3
     76     69     70     82     1  0.0000000  0.6508444  3
     76     69     71     83     1  0.0000000  0.6508444  3
     76     69     71     84     1  0.0000000  0.6508444  3
     76     77     78     93     1  0.0000000  0.0000000  2
     77     76     69     94     1  0.0000000  0.6508444  3
     78     77     76     89     1  0.0000000  0.6508444  3
     78     77     76     90     1  0.0000000  0.6508444  3
     79     73     72     85     1  0.0000000  3.3472000  1
     79     73     72     85     1  0.0000000  0.0000000  2
     79     73     72     85     1  180.0000771  0.3347200  3
     79     73     72     86     1  0.0000000  3.3472000  1
     79     73     72     86     1  0.0000000  0.0000000  2
     79     73     72     86     1  180.0000771  0.3347200  3
     79     73    208    223     1  0.0000000  8.3680000  1
     79     73    208    223     1  180.0000771  10.4600000  2
     80     75     74     87     1  0.0000000  3.3472000  1
     80     75     74     87     1  0.0000000  0.0000000  2
     80     75     74     87     1  180.0000771  0.3347200  3
     80     75     74     88     1  0.0000000  3.3472000  1
     80     75     74     88     1  0.0000000  0.0000000  2
     80     75     74     88     1  180.0000771  0.3347200  3
     80     75    234    249     1  0.0000000  8.3680000  1
     80     75    234    249     1  180.0000771  10.4600000  2
     81     70     69     94     1  0.0000000  0.6508444  3
     81     70     72     85     1  0.0000000  0.6508444  3
     81     70     72     86     1  0.0000000  0.6508444  3
     82     70     69     94     1  0.0000000  0.6508444  3
     82     70     72     85     1  0.0000000  0.6508444  3
     82     70     72     86     1  0.0000000  0.6508444  3
     83     71     69     94     1  0.0000000  0.6508444  3
     83     71     74     87     1  0.0000000  0.6508444  3
     83     71     74     88     1  0.0000000  0.6508444  3
     84     71     69     94     1  0.0000000  0.6508444  3
     84     71     74     87     1  0.0000000  0.6508444  3
     84     71     74     88     1  0.0000000  0.6508444  3
     85     72     73    208     1  180.0000771  0.0000000  2
     86     72     73    208     1  180.0000771  0.0000000  2
     87     74     75    234     1  180.0000771  0.0000000  2
     88     74     75    234     1  180.0000771  0.0000000  2
     89     76     69     94     1  0.0000000  0.6508444  3
     89     76     77     91     1  0.0000000  0.6508444  3
     89     76     77     92     1  0.0000000  0.6508444  3
     90     76     69     94     1  0.0000000  0.6508444  3
     90     76     77     91     1  0.0000000  0.6508444  3
     90     76     77     92     1  0.0000000  0.6508444  3
     91     77     78     93     1  0.0000000  0.0000000  2
     92     77     78     93     1  0.0000000  0.0000000  2
     95     96     98    111     1  0.0000000  0.6508444  3
     95     96     98    112     1  0.0000000  0.6508444  3
     95     97    100    113     1  0.0000000  0.6508444  3
     95     97    100    114     1  0.0000000  0.6508444  3
     95    102    103    117     1  0.0000000  0.6508444  3
     95    102    103    118     1  0.0000000  0.6508444  3
     96     95     97    109     1  0.0000000  0.6508444  3
     96     95     97    110     1  0.0000000  0.6508444  3
     96     95    102    115     1  0.0000000  0.6508444  3
     96     95    102    116     1  0.0000000  0.6508444  3
     97     95     96    107     1  0.0000000  0.6508444  3
     97     95     96    108     1  0.0000000  0.6508444  3
     97     95    102    115     1  0.0000000  0.6508444  3
     97     95    102    116     1  0.0000000  0.6508444  3
     98     96     95    120     1  0.0000000  0.6508444  3
     98     99    260    275     1  180.0000771  10.4600000  2
     99     98     96    107     1  0.0000000  0.6508444  3
     99     98     96    108     1  0.0000000  0.6508444  3
     99    260    259    273     1  0.0000000  0.0000000  2
     99    260    259    274     1  0.0000000  0.0000000  2
    100     97     95    120     1  0.0000000  0.6508444  3
    100    101    286    301     1  180.0000771  10.4600000  2
    101    100     97    109     1  0.0000000  0.6508444  3
    101    100     97    110     1  0.0000000  0.6508444  3
    101    286    285    299     1  0.0000000  0.0000000  2
    101    286    285    300     1  0.0000000  0.0000000  2
    102     95     96    107     1  0.0000000  0.6508444  3
    102     95     96    108     1  0.0000000  0.6508444  3
    102     95     97    109     1  0.0000000  0.6508444  3
    102     95     97    110     1  0.0000000  0.6508444  3
    102    103    104    119     1  0.0000000  0.0000000  2
    103    102     95    120     1  0.0000000  0.6508444  3
    104    103    102    115     1  0.0000000  0.6508444  3
    104    103    102    116     1  0.0000000  0.6508444  3
    105     99     98    111     1  0.0000000  3.3472000  1
    105     99     98    111     1  0.0000000  0.0000000  2
    105     99     98    111     1  180.0000771  0.3347200  3
    105     99     98    112     1  0.0000000  3.3472000  1
    105     99     98    112     1  0.0000000  0.0000000  2
    105     99     98    112     1  180.0000771  0.3347200  3
    105     99    260    275     1  0.0000000  8.3680000  1
    105     99    260    275     1  180.0000771  10.4600000  2
    106    101    100    113     1  0.0000000  3.3472000  1
    106    101    100    113     1  0.0000000  0.0000000  2
    106    101    100    113     1  180.0000771  0.3347200  3
    106    101    100    114     1  0.0000000  3.3472000  1
    106    101    100    114     1  0.0000000  0.0000000  2
    106    101    100    114     1  180.0000771  0.3347200  3
    106    101    286    301     1  0.0000000  8.3680000  1
    106    101    286    301     1  180.0000771  10.4600000  2
    107     96     95    120     1  0.0000000  0.6508444  3
    107     96     98    111     1  0.0000000  0.6508444  3
    107     96     98    112     1  0.0000000  0.6508444  3
    108     96     95    120     1  0.0000000  0.6508444  3
    108     96     98    111     1  0.0000000  0.6508444  3
    108     96     98    112     1  0.0000000  0.6508444  3
    109     97     95    120     1  0.0000000  0.6508444  3
    109     97    100    113     1  0.0000000  0.6508444  3
    109     97    100    114     1  0.0000000  0.6508444  3
    110     97     95    120     1  0.0000000  0.6508444  3
    110     97    100    113     1  0.0000000  0.6508444  3
    110     97    100    114     1  0.0000000  0.6508444  3
    111     98     99    260     1  180.0000771  0.0000000  2
    112     98     99    260     1  180.0000771  0.0000000  2
    113    100    101    286     1  180.0000771  0.0000000  2
    114    100    101    286     1  180.0000771  0.0000000  2
    115    102     95    120     1  0.0000000  0.6508444  3
    115    102    103    117     1  0.0000000  0.6508444  3
    115    102    103    118     1  0.0000000  0.6508444  3
    116    102     95    120     1  0.0000000  0.6508444  3
    116    102    103    117     1  0.0000000  0.6508444  3
    116    102    103    118     1  0.0000000  0.6508444  3
    117    103    104    119     1  0.0000000  0.0000000  2
    118    103    104    119     1  0.0000000  0.0000000  2
    121    122    124    137     1  0.0000000  0.6508444  3
    121    122    124    138     1  0.0000000  0.6508444  3
    121    123    126    139     1  0.0000000  0.6508444  3
    121    123    126    140     1  0.0000000  0.6508444  3
    121    128    129    143     1  0.0000000  0.6508444  3
    121    128    129    144     1  0.0000000  0.6508444  3
    122    121    123    135     1  0.0000000  0.6508444  3
    122    121    123    136     1  0.0000000  0.6508444  3
    122    121    128    141     1  0.0000000  0.6508444  3
    122    121    128    142     1  0.0000000  0.6508444  3
    123    121    122    133     1  0.0000000  0.6508444  3
    123    121    122    134     1  0.0000000  0.6508444  3
    123    121    128    141     1  0.0000000  0.6508444  3
    123    121    128    142     1  0.0000000  0.6508444  3
    124    122    121    146     1  0.0000000  0.6508444  3
    124    125    312    327     1  180.0000771  10.4600000  2
    125    124    122    133     1  0.0000000  0.6508444  3
    125    124    122    134     1  0.0000000  0.6508444  3
    125    312    311    325     1  0.0000000  0.0000000  2
    125    312    311    326     1  0.0000000  0.0000000  2
    126    123    121    146     1  0.0000000  0.6508444  3
    126    127    338    353     1  180.0000771  10.4600000  2
    127    126    123    135     1  0.0000000  0.6508444  3
    127    126    123    136     1  0.0000000  0.6508444  3
    127    338    337    351     1  0.0000000  0.0000000  2
    127    338    337    352     1  0.0000000  0.0000000  2
    128    121    122    133     1  0.0000000  0.6508444  3
    128    121    122    134     1  0.0000000  0.6508444  3
    128    121    123    135     1  0.0000000  0.6508444  3
    128    121    123    136     1  0.0000000  0.6508444  3
    128    129    130    145     1  0.0000000  0.0000000  2
    129    128    121    146     1  0.0000000  0.6508444  3
    130    129    128    141     1  0.0000000  0.6508444  3
    130    129    128    142     1  0.0000000  0.6508444  3
    131    125    124    137     1  0.0000000  3.3472000  1
    131    125    124    137     1  0.0000000  0.0000000  2
    131    125    124    137     1  180.0000771  0.3347200  3
    131    125    124    138     1  0.0000000  3.3472000  1
    131    125    124    138     1  0.0000000  0.0000000  2
    131    125    124    138     1  180.0000771  0.3347200  3
    131    125    312    327     1  0.0000000  8.3680000  1
    131    125    312    327     1  180.0000771  10.4600000  2
    132    127    126    139     1  0.0000000  3.3472000  1
    132    127    126    139     1  0.0000000  0.0000000  2
    132    127    126    139     1  180.0000771  0.3347200  3
    132    127    126    140     1  0.0000000  3.3472000  1
    132    127    126    140     1  0.0000000  0.0000000  2
    132    127    126    140     1  180.0000771  0.3347200  3
    132    127    338    353     1  0.0000000  8.3680000  1
    132    127    338    353     1  180.0000771  10.4600000  2
    133    122    121    146     1  0.0000000  0.6508444  3
    133    122    124    137     1  0.0000000  0.6508444  3
    133    122    124    138     1  0.0000000  0.6508444  3
    134    122    121    146     1  0.0000000  0.6508444  3
    134    122    124    137     1  0.0000000  0.6508444  3
    134    122    124    138     1  0.0000000  0.6508444  3
    135    123    121    146     1  0.0000000  0.6508444  3
    135    123    126    139     1  0.0000000  0.6508444  3
    135    123    126    140     1  0.0000000  0.6508444  3
    136    123    121    146     1  0.0000000  0.6508444  3
    136    123    126    139     1  0.0000000  0.6508444  3
    136    123    126    140     1  0.0000000  0.6508444  3
    137    124    125    312     1  180.0000771  0.0000000  2
    138    124    125    312     1  180.0000771  0.0000000  2
    139    126    127    338     1  180.0000771  0.0000000  2
    140    126    127    338     1  180.0000771  0.0000000  2
    141    128    121    146     1  0.0000000  0.6508444  3
    141    128    129    143     1  0.0000000  0.6508444  3
    141    128    129    144     1  0.0000000  0.6508444  3
    142    128    121    146     1  0.0000000  0.6508444  3
    142    128    129    143     1  0.0000000  0.6508444  3
    142    128    129    144     1  0.0000000  0.6508444  3
    143    129    130    145     1  0.0000000  0.0000000  2
    144    129    130    145     1  0.0000000  0.0000000  2
    147    148    150    163     1  0.0000000  0.6508444  3
    147    148    150    164     1  0.0000000  0.6508444  3
    147    149    152    165     1  0.0000000  0.6508444  3
    147    149    152    166     1  0.0000000  0.6508444  3
    147    154    155    169     1  0.0000000  0.6508444  3
    147    154    155    170     1  0.0000000  0.6508444  3
    148    147    149    161     1  0.0000000  0.6508444  3
    148    147    149    162     1  0.0000000  0.6508444  3
    148    147    154    167     1  0.0000000  0.6508444  3
    148    147    154    168     1  0.0000000  0.6508444  3
    149    147    148    159     1  0.0000000  0.6508444  3
    149    147    148    160     1  0.0000000  0.6508444  3
    149    147    154    167     1  0.0000000  0.6508444  3
    149    147    154    168     1  0.0000000  0.6508444  3
    150    148    147    172     1  0.0000000  0.6508444  3
    150    151    364    379     1  180.0000771  10.4600000  2
    151    150    148    159     1  0.0000000  0.6508444  3
    151    150    148    160     1  0.0000000  0.6508444  3
    151    364    363    377     1  0.0000000  0.0000000  2
    151    364    363    378     1  0.0000000  0.0000000  2
    152    149    147    172     1  0.0000000  0.6508444  3
    152    153    390    405     1  180.0000771  10.4600000  2
    153    152    149    161     1  0.0000000  0.6508444  3
    153    152    149    162     1  0.0000000  0.6508444  3
    153    390    389    403     1  0.0000000  0.0000000  2
    153    390    389    404     1  0.0000000  0.0000000  2
    154    147    148    159     1  0.0000000  0.6508444  3
    154    147    148    160     1  0.0000000  0.6508444  3
    154    147    149    161     1  0.0000000  0.6508444  3
    154    147    149    162     1  0.0000000  0.6508444  3
    154    155    156    171     1  0.0000000  0.0000000  2
    155    154    147    172     1  0.0000000  0.6508444  3
    156    155    154    167     1  0.0000000  0.6508444  3
    156    155    154    168     1  0.0000000  0.6508444  3
    157    151    150    163     1  0.0000000  3.3472000  1
    157    151    150    163     1  0.0000000  0.0000000  2
    157    151    150    163     1  180.0000771  0.3347200  3
    157    151    150    164     1  0.0000000  3.3472000  1
    157    151    150    164     1  0.0000000  0.0000000  2
    157    151    150    164     1  180.0000771  0.3347200  3
    157    151    364    379     1  0.0000000  8.3680000  1
    157    151    364    379     1  180.0000771  10.4600000  2
    158    153    152    165     1  0.0000000  3.3472000  1
    158    153    152    165     1  0.0000000  0.0000000  2
    158    153    152    165     1  180.0000771  0.3347200  3
    158    153    152    166     1  0.0000000  3.3472000  1
    158    153    152    166     1  0.0000000  0.0000000  2
    158    153    152    166     1  180.0000771  0.3347200  3
    158    153    390    405     1  0.0000000  8.3680000  1
    158    153    390    405     1  180.0000771  10.4600000  2
    159    148    147    172     1  0.0000000  0.6508444  3
    159    148    150    163     1  0.0000000  0.6508444  3
    159    148    150    164     1  0.0000000  0.6508444  3
    160    148    147    172     1  0.0000000  0.6508444  3
    160    148    150    163     1  0.0000000  0.6508444  3
    160    148    150    164     1  0.0000000  0.6508444  3
    161    149    147    172     1  0.0000000  0.6508444  3
    161    149    152    165     1  0.0000000  0.6508444  3
    161    149    152    166     1  0.0000000  0.6508444  3
    162    149    147    172     1  0.0000000  0.6508444  3
    162    149    152    165     1  0.0000000  0.6508444  3
    162    149    152    166     1  0.0000000  0.6508444  3
    163    150    151    364     1  180.0000771  0.0000000  2
    164    150    151    364     1  180.0000771  0.0000000  2
    165    152    153    390     1  180.0000771  0.0000000  2
    166    152    153    390     1  180.0000771  0.0000000  2
    167    154    147    172     1  0.0000000  0.6508444  3
    167    154    155    169     1  0.0000000  0.6508444  3
    167    154    155    170     1  0.0000000  0.6508444  3
    168    154    147    172     1  0.0000000  0.6508444  3
    168    154    155    169     1  0.0000000  0.6508444  3
    168    154    155    170     1  0.0000000  0.6508444  3
    169    155    156    171     1  0.0000000  0.0000000  2
    170    155    156    171     1  0.0000000  0.0000000  2
    173    174    176    189     1  0.0000000  0.6508444  3
    173    174    176    190     1  0.0000000  0.6508444  3
    173    175    178    191     1  0.0000000  0.6508444  3
    173    175    178    192     1  0.0000000  0.6508444  3
    173    180    181    195     1  0.0000000  0.6508444  3
    173    180    181    196     1  0.0000000  0.6508444  3
    174    173    175    187     1  0.0000000  0.6508444  3
    174    173    175    188     1  0.0000000  0.6508444  3
    174    173    180    193     1  0.0000000  0.6508444  3
    174    173    180    194     1  0.0000000  0.6508444  3
    175    173    174    185     1  0.0000000  0.6508444  3
    175    173    174    186     1  0.0000000  0.6508444  3
    175    173    180    193     1  0.0000000  0.6508444  3
    175    173    180    194     1  0.0000000  0.6508444  3
    176    174    173    198     1  0.0000000  0.6508444  3
    176    177    416    431     1  180.0000771  10.4600000  2
    177    176    174    185     1  0.0000000  0.6508444  3
    177    176    174    186     1  0.0000000  0.6508444  3
    177    416    415    429     1  0.0000000  0.0000000  2
    177    416    415    430     1  0.0000000  0.0000000  2
    178    175    173    198     1  0.0000000  0.6508444  3
    178    179    442    457     1  180.0000771  10.4600000  2
    179    178    175    187     1  0.0000000  0.6508444  3
    179    178    175    188     1  0.0000000  0.6508444  3
    179    442    441    455     1  0.0000000  0.0000000  2
    179    442    441    456     1  0.0000000  0.0000000  2
    180    173    174    185     1  0.0000000  0.6508444  3
    180    173    174    186     1  0.0000000  0.6508444  3
    180    173    175    187     1  0.0000000  0.6508444  3
    180    173    175    188     1  0.0000000  0.6508444  3
    180    181    182    197     1  0.0000000  0.0000000  2
    181    180    173    198     1  0.0000000  0.6508444  3
    182    181    180    193     1  0.0000000  0.6508444  3
    182    181    180    194     1  0.0000000  0.6508444  3
    183    177    176    189     1  0.0000000  3.3472000  1
    183    177    176    189     1  0.0000000  0.0000000  2
    183    177    176    189     1  180.0000771  0.3347200  3
    183    177    176    190     1  0.0000000  3.3472000  1
    183    177    176    190     1  0.0000000  0.0000000  2
    183    177    176    190     1  180.0000771  0.3347200  3
    183    177    416    431     1  0.0000000  8.3680000  1
    183    177    416    431     1  180.0000771  10.4600000  2
    184    179    178    191     1  0.0000000  3.3472000  1
    184    179    178    191     1  0.0000000  0.0000000  2
    184    179    178    191     1  180.0000771  0.3347200  3
    184    179    178    192     1  0.0000000  3.3472000  1
    184    179    178    192     1  0.0000000  0.0000000  2
    184    179    178    192     1  180.0000771  0.3347200  3
    184    179    442    457     1  0.0000000  8.3680000  1
    184    179    442    457     1  180.0000771  10.4600000  2
    185    174    173    198     1  0.0000000  0.6508444  3
    185    174    176    189     1  0.0000000  0.6508444  3
    185    174    176    190     1  0.0000000  0.6508444  3
    186    174    173    198     1  0.0000000  0.6508444  3
    186    174    176    189     1  0.0000000  0.6508444  3
    186    174    176    190     1  0.0000000  0.6508444  3
    187    175    173    198     1  0.0000000  0.6508444  3
    187    175    178    191     1  0.0000000  0.6508444  3
    187    175    178    192     1  0.0000000  0.6508444  3
    188    175    173    198     1  0.0000000  0.6508444  3
    188    175    178    191     1  0.0000000  0.6508444  3
    188    175    178    192     1  0.0000000  0.6508444  3
    189    176    177    416     1  180.0000771  0.0000000  2
    190    176    177    416     1  180.0000771  0.0000000  2
    191    178    179    442     1  180.0000771  0.0000000  2
    192    178    179    442     1  180.0000771  0.0000000  2
    193    180    173    198     1  0.0000000  0.6508444  3
    193    180    181    195     1  0.0000000  0.6508444  3
    193    180    181    196     1  0.0000000  0.6508444  3
    194    180    173    198     1  0.0000000  0.6508444  3
    194    180    181    195     1  0.0000000  0.6508444  3
    194    180    181    196     1  0.0000000  0.6508444  3
    195    181    182    197     1  0.0000000  0.0000000  2
    196    181    182    197     1  0.0000000  0.0000000  2
    199    200    202    215     1  0.0000000  0.6508444  3
    199    200    202    216     1  0.0000000  0.6508444  3
    199    201    204    217     1  0.0000000  0.6508444  3
    199    201    204    218     1  0.0000000  0.6508444  3
    199    206    207    221     1  0.0000000  0.6508444  3
    199    206    207    222     1  0.0000000  0.6508444  3
    200    199    201    213     1  0.0000000  0.6508444  3
    200    199    201    214     1  0.0000000  0.6508444  3
    200    199    206    219     1  0.0000000  0.6508444  3
    200    199    206    220     1  0.0000000  0.6508444  3
    201    199    200    211     1  0.0000000  0.6508444  3
    201    199    200    212     1  0.0000000  0.6508444  3
    201    199    206    219     1  0.0000000  0.6508444  3
    201    199    206    220     1  0.0000000  0.6508444  3
    202    200    199    224     1  0.0000000  0.6508444  3
    202    203    468    483     1  180.0000771  10.4600000  2
    203    202    200    211     1  0.0000000  0.6508444  3
    203    202    200    212     1  0.0000000  0.6508444  3
    203    468    467    481     1  0.0000000  0.0000000  2
    203    468    467    482     1  0.0000000  0.0000000  2
    204    201    199    224     1  0.0000000  0.6508444  3
    204    205    494    509     1  180.0000771  10.4600000  2
    205    204    201    213     1  0.0000000  0.6508444  3
    205    204    201    214     1  0.0000000  0.6508444  3
    205    494    493    507     1  0.0000000  0.0000000  2
    205    494    493    508     1  0.0000000  0.0000000  2
    206    199    200    211     1  0.0000000  0.6508444  3
    206    199    200    212     1  0.0000000  0.6508444  3
    206    199    201    213     1  0.0000000  0.6508444  3
    206    199    201    214     1  0.0000000  0.6508444  3
    206    207    208    223     1  0.0000000  0.0000000  2
    207    206    199    224     1  0.0000000  0.6508444  3
    208    207    206    219     1  0.0000000  0.6508444  3
    208    207    206    220     1  0.0000000  0.6508444  3
    209    203    202    215     1  0.0000000  3.3472000  1
    209    203    202    215     1  0.0000000  0.0000000  2
    209    203    202    215     1  180.0000771  0.3347200  3
    209    203    202    216     1  0.0000000  3.3472000  1
    209    203    202    216     1  0.0000000  0.0000000  2
    209    203    202    216     1  180.0000771  0.3347200  3
    209    203    468    483     1  0.0000000  8.3680000  1
    209    203    468    483     1  180.0000771  10.4600000  2
    210    205    204    217     1  0.0000000  3.3472000  1
    210    205    204    217     1  0.0000000  0.0000000  2
    210    205    204    217     1  180.0000771  0.3347200  3
    210    205    204    218     1  0.0000000  3.3472000  1
    210    205    204    218     1  0.0000000  0.0000000  2
    210    205    204    218     1  180.0000771  0.3347200  3
    210    205    494    509     1  0.0000000  8.3680000  1
    210    205    494    509     1  180.0000771  10.4600000  2
    211    200    199    224     1  0.0000000  0.6508444  3
    211    200    202    215     1  0.0000000  0.6508444  3
    211    200    202    216     1  0.0000000  0.6508444  3
    212    200    199    224     1  0.0000000  0.6508444  3
    212    200    202    215     1  0.0000000  0.6508444  3
    212    200    202    216     1  0.0000000  0.6508444  3
    213    201    199    224     1  0.0000000  0.6508444  3
    213    201    204    217     1  0.0000000  0.6508444  3
    213    201    204    218     1  0.0000000  0.6508444  3
    214    201    199    224     1  0.0000000  0.6508444  3
    214    201    204    217     1  0.0000000  0.6508444  3
    214    201    204    218     1  0.0000000  0.6508444  3
    215    202    203    468     1  180.0000771  0.0000000  2
    216    202    203    468     1  180.0000771  0.0000000  2
    217    204    205    494     1  180.0000771  0.0000000  2
    218    204    205    494     1  180.0000771  0.0000000  2
    219    206    199    224     1  0.0000000  0.6508444  3
    219    206    207    221     1  0.0000000  0.6508444  3
    219    206    207    222     1  0.0000000  0.6508444  3
    220    206    199    224     1  0.0000000  0.6508444  3
    220    206    207    221     1  0.0000000  0.6508444  3
    220    206    207    222     1  0.0000000  0.6508444  3
    221    207    208    223     1  0.0000000  0.0000000  2
    222    207    208    223     1  0.0000000  0.0000000  2
    225    226    228    241     1  0.0000000  0.6508444  3
    225    226    228    242     1  0.0000000  0.6508444  3
    225    227    230    243     1  0.0000000  0.6508444  3
    225    227    230    244     1  0.0000000  0.6508444  3
    225    232    233    247     1  0.0000000  0.6508444  3
    225    232    233    248     1  0.0000000  0.6508444  3
    226    225    227    239     1  0.0000000  0.6508444  3
    226    225    227    240     1  0.0000000  0.6508444  3
    226    225    232    245     1  0.0000000  0.6508444  3
    226    225    232    246     1  0.0000000  0.6508444  3
    227    225    226    237     1  0.0000000  0.6508444  3
    227    225    226    238     1  0.0000000  0.6508444  3
    227    225    232    245     1  0.0000000  0.6508444  3
    227    225    232    246     1  0.0000000  0.6508444  3
    228    226    225    250     1  0.0000000  0.6508444  3
    228    229    520    535     1  180.0000771  10.4600000  2
    229    228    226    237     1  0.0000000  0.6508444  3
    229    228    226    238     1  0.0000000  0.6508444  3
    229    520    519    533     1  0.0000000  0.0000000  2
    229    520    519    534     1  0.0000000  0.0000000  2
    230    227    225    250     1  0.0000000  0.6508444  3
    230    231    546    561     1  180.0000771  10.4600000  2
    231    230    227    239     1  0.0000000  0.6508444  3
    231    230    227    240     1  0.0000000  0.6508444  3
    231    546    545    559     1  0.0000000  0.0000000  2
    231    546    545    560     1  0.0000000  0.0000000  2
    232    225    226    237     1  0.0000000  0.6508444  3
    232    225    226    238     1  0.0000000  0.6508444  3
    232    225    227    239     1  0.0000000  0.6508444  3
    232    225    227    240     1  0.0000000  0.6508444  3
    232    233    234    249     1  0.0000000  0.0000000  2
    233    232    225    250     1  0.0000000  0.6508444  3
    234    233    232    245     1  0.0000000  0.6508444  3
    234    233    232    246     1  0.0000000  0.6508444  3
    235    229    228    241     1  0.0000000  3.3472000  1
    235    229    228    241     1  0.0000000  0.0000000  2
    235    229    228    241     1  180.0000771  0.3347200  3
    235    229    228    242     1  0.0000000  3.3472000  1
    235    229    228    242     1  0.0000000  0.0000000  2
    235    229    228    242     1  180.0000771  0.3347200  3
    235    229    520    535     1  0.0000000  8.3680000  1
    235    229    520    535     1  180.0000771  10.4600000  2
    236    231    230    243     1  0.0000000  3.3472000  1
    236    231    230    243     1  0.0000000  0.0000000  2
    236    231    230    243     1  180.0000771  0.3347200  3
    236    231    230    244     1  0.0000000  3.3472000  1
    236    231    230    244     1  0.0000000  0.0000000  2
    236    231    230    244     1  180.0000771  0.3347200  3
    236    231    546    561     1  0.0000000  8.3680000  1
    236    231    546    561     1  180.0000771  10.4600000  2
    237    226    225    250     1  0.0000000  0.6508444  3
    237    226    228    241     1  0.0000000  0.6508444  3
    237    226    228    242     1  0.0000000  0.6508444  3
    238    226    225    250     1  0.0000000  0.6508444  3
    238    226    228    241     1  0.0000000  0.6508444  3
    238    226    228    242     1  0.0000000  0.6508444  3
    239    227    225    250     1  0.0000000  0.6508444  3
    239    227    230    243     1  0.0000000  0.6508444  3
    239    227    230    244     1  0.0000000  0.6508444  3
    240    227    225    250     1  0.0000000  0.6508444  3
    240    227    230    243     1  0.0000000  0.6508444  3
    240    227    230    244     1  0.0000000  0.6508444  3
    241    228    229    520     1  180.0000771  0.0000000  2
    242    228    229    520     1  180.0000771  0.0000000  2
    243    230    231    546     1  180.0000771  0.0000000  2
    244    230    231    546     1  180.0000771  0.0000000  2
    245    232    225    250     1  0.0000000  0.6508444  3
    245    232    233    247     1  0.0000000  0.6508444  3
    245    232    233    248     1  0.0000000  0.6508444  3
    246    232    225    250     1  0.0000000  0.6508444  3
    246    232    233    247     1  0.0000000  0.6508444  3
    246    232    233    248     1  0.0000000  0.6508444  3
    247    233    234    249     1  0.0000000  0.0000000  2
    248    233    234    249     1  0.0000000  0.0000000  2
    251    252    254    267     1  0.0000000  0.6508444  3
    251    252    254    268     1  0.0000000  0.6508444  3
    251    253    256    269     1  0.0000000  0.6508444  3
    251    253    256    270     1  0.0000000  0.6508444  3
    251    258    259    273     1  0.0000000  0.6508444  3
    251    258    259    274     1  0.0000000  0.6508444  3
    252    251    253    265     1  0.0000000  0.6508444  3
    252    251    253    266     1  0.0000000  0.6508444  3
    252    251    258    271     1  0.0000000  0.6508444  3
    252    251    258    272     1  0.0000000  0.6508444  3
    253    251    252    263     1  0.0000000  0.6508444  3
    253    251    252    264     1  0.0000000  0.6508444  3
    253    251    258    271     1  0.0000000  0.6508444  3
    253    251    258    272     1  0.0000000  0.6508444  3
    254    252    251    276     1  0.0000000  0.6508444  3
    254    255    572    587     1  180.0000771  10.4600000  2
    255    254    252    263     1  0.0000000  0.6508444  3
    255    254    252    264     1  0.0000000  0.6508444  3
    255    572    571    585     1  0.0000000  0.0000000  2
    255    572    571    586     1  0.0000000  0.0000000  2
    256    253    251    276     1  0.0000000  0.6508444  3
    256    257    598    613     1  180.0000771  10.4600000  2
    257    256    253    265     1  0.0000000  0.6508444  3
    257    256    253    266     1  0.0000000  0.6508444  3
    257    598    597    611     1  0.0000000  0.0000000  2
    257    598    597    612     1  0.0000000  0.0000000  2
    258    251    252    263     1  0.0000000  0.6508444  3
    258    251    252    264     1  0.0000000  0.6508444  3
    258    251    253    265     1  0.0000000  0.6508444  3
    258    251    253    266     1  0.0000000  0.6508444  3
    258    259    260    275     1  0.0000000  0.0000000  2
    259    258    251    276     1  0.0000000  0.6508444  3
    260    259    258    271     1  0.0000000  0.6508444  3
    260    259    258    272     1  0.0000000  0.6508444  3
    261    255    254    267     1  0.0000000  3.3472000  1
    261    255    254    267     1  0.0000000  0.0000000  2
    261    255    254    267     1  180.0000771  0.3347200  3
    261    255    254    268     1  0.0000000  3.3472000  1
    261    255    254    268     1  0.0000000  0.0000000  2
    261    255    254    268     1  180.0000771  0.3347200  3
    261    255    572    587     1  0.0000000  8.3680000  1
    261    255    572    587     1  180.0000771  10.4600000  2
    262    257    256    269     1  0.0000000  3.3472000  1
    262    257    256    269     1  0.0000000  0.0000000  2
    262    257    256    269     1  180.0000771  0.3347200  3
    262    257    256    270     1  0.0000000  3.3472000  1
    262    257    256    270     1  0.0000000  0.0000000  2
    262    257    256    270     1  180.0000771  0.3347200  3
    262    257    598    613     1  0.0000000  8.3680000  1
    262    257    598    613     1  180.0000771  10.4600000  2
    263    252    251    276     1  0.0000000  0.6508444  3
    263    252    254    267     1  0.0000000  0.6508444  3
    263    252    254    268     1  0.0000000  0.6508444  3
    264    252    251    276     1  0.0000000  0.6508444  3
    264    252    254    267     1  0.0000000  0.6508444  3
    264    252    254    268     1  0.0000000  0.6508444  3
    265    253    251    276     1  0.0000000  0.6508444  3
    265    253    256    269     1  0.0000000  0.6508444  3
    265    253    256    270     1  0.0000000  0.6508444  3
    266    253    251    276     1  0.0000000  0.6508444  3
    266    253    256    269     1  0.0000000  0.6508444  3
    266    253    256    270     1  0.0000000  0.6508444  3
    267    254    255    572     1  180.0000771  0.0000000  2
    268    254    255    572     1  180.0000771  0.0000000  2
    269    256    257    598     1  180.0000771  0.0000000  2
    270    256    257    598     1  180.0000771  0.0000000  2
    271    258    251    276     1  0.0000000  0.6508444  3
    271    258    259    273     1  0.0000000  0.6508444  3
    271    258    259    274     1  0.0000000  0.6508444  3
    272    258    251    276     1  0.0000000  0.6508444  3
    272    258    259    273     1  0.0000000  0.6508444  3
    272    258    259    274     1  0.0000000  0.6508444  3
    273    259    260    275     1  0.0000000  0.0000000  2
    274    259    260    275     1  0.0000000  0.0000000  2
    277    278    280    293     1  0.0000000  0.6508444  3
    277    278    280    294     1  0.0000000  0.6508444  3
    277    279    282    295     1  0.0000000  0.6508444  3
    277    279    282    296     1  0.0000000  0.6508444  3
    277    284    285    299     1  0.0000000  0.6508444  3
    277    284    285    300     1  0.0000000  0.6508444  3
    278    277    279    291     1  0.0000000  0.6508444  3
    278    277    279    292     1  0.0000000  0.6508444  3
    278    277    284    297     1  0.0000000  0.6508444  3
    278    277    284    298     1  0.0000000  0.6508444  3
    279    277    278    289     1  0.0000000  0.6508444  3
    279    277    278    290     1  0.0000000  0.6508444  3
    279    277    284    297     1  0.0000000  0.6508444  3
    279    277    284    298     1  0.0000000  0.6508444  3
    280    278    277    302     1  0.0000000  0.6508444  3
    280    281    624    639     1  180.0000771  10.4600000  2
    281    280    278    289     1  0.0000000  0.6508444  3
    281    280    278    290     1  0.0000000  0.6508444  3
    281    624    623    637     1  0.0000000  0.0000000  2
    281    624    623    638     1  0.0000000  0.0000000  2
    282    279    277    302     1  0.0000000  0.6508444  3
    282    283    650    665     1  180.0000771  10.4600000  2
    283    282    279    291     1  0.0000000  0.6508444  3
    283    282    279    292     1  0.0000000  0.6508444  3
    283    650    649    663     1  0.0000000  0.0000000  2
    283    650    649    664     1  0.0000000  0.0000000  2
    284    277    278    289     1  0.0000000  0.6508444  3
    284    277    278    290     1  0.0000000  0.6508444  3
    284    277    279    291     1  0.0000000  0.6508444  3
    284    277    279    292     1  0.0000000  0.6508444  3
    284    285    286    301     1  0.0000000  0.0000000  2
    285    284    277    302     1  0.0000000  0.6508444  3
    286    285    284    297     1  0.0000000  0.6508444  3
    286    285    284    298     1  0.0000000  0.6508444  3
    287    281    280    293     1  0.0000000  3.3472000  1
    287    281    280    293     1  0.0000000  0.0000000  2
    287    281    280    293     1  180.0000771  0.3347200  3
    287    281    280    294     1  0.0000000  3.3472000  1
    287    281    280    294     1  0.0000000  0.0000000  2
    287    281    280    294     1  180.0000771  0.3347200  3
    287    281    624    639     1  0.0000000  8.3680000  1
    287    281    624    639     1  180.0000771  10.4600000  2
    288    283    282    295     1  0.0000000  3.3472000  1
    288    283    282    295     1  0.0000000  0.0000000  2
    288    283    282    295     1  180.0000771  0.3347200  3
    288    283    282    296     1  0.0000000  3.3472000  1
    288    283    282    296     1  0.0000000  0.0000000  2
    288    283    282    296     1  180.0000771  0.3347200  3
    288    283    650    665     1  0.0000000  8.3680000  1
    288    283    650    665     1  180.0000771  10.4600000  2
    289    278    277    302     1  0.0000000  0.6508444  3
    289    278    280    293     1  0.0000000  0.6508444  3
    289    278    280    294     1  0.0000000  0.6508444  3
    290    278    277    302     1  0.0000000  0.6508444  3
    290    278    280    293     1  0.0000000  0.6508444  3
    290    278    280    294     1  0.0000000  0.6508444  3
    291    279    277    302     1  0.0000000  0.6508444  3
    291    279    282    295     1  0.0000000  0.6508444  3
    291    279    282    296     1  0.0000000  0.6508444  3
    292    279    277    302     1  0.0000000  0.6508444  3
    292    279    282    295     1  0.0000000  0.6508444  3
    292    279    282    296     1  0.0000000  0.6508444  3
    293    280    281    624     1  180.0000771  0.0000000  2
    294    280    281    624     1  180.0000771  0.0000000  2
    295    282    283    650     1  180.0000771  0.0000000  2
    296    282    283    650     1  180.0000771  0.0000000  2
    297    284    277    302     1  0.0000000  0.6508444  3
    297    284    285    299     1  0.0000000  0.6508444  3
    297    284    285    300     1  0.0000000  0.6508444  3
    298    284    277    302     1  0.0000000  0.6508444  3
    298    284    285    299     1  0.0000000  0.6508444  3
    298    284    285    300     1  0.0000000  0.6508444  3
    299    285    286    301     1  0.0000000  0.0000000  2
    300    285    286    301     1  0.0000000  0.0000000  2
    303    304    306    319     1  0.0000000  0.6508444  3
    303    304    306    320     1  0.0000000  0.6508444  3
    303    305    308    321     1  0.0000000  0.6508444  3
    303    305    308    322     1  0.0000000  0.6508444  3
    303    310    311    325     1  0.0000000  0.6508444  3
    303    310    311    326     1  0.0000000  0.6508444  3
    304    303    305    317     1  0.0000000  0.6508444  3
    304    303    305    318     1  0.0000000  0.6508444  3
    304    303    310    323     1  0.0000000  0.6508444  3
    304    303    310    324     1  0.0000000  0.6508444  3
    305    303    304    315     1  0.0000000  0.6508444  3
    305    303    304    316     1  0.0000000  0.6508444  3
    305    303    310    323     1  0.0000000  0.6508444  3
    305    303    310    324     1  0.0000000  0.6508444  3
    306    304    303    328     1  0.0000000  0.6508444  3
    306    307    676    691     1  180.0000771  10.4600000  2
    307    306    304    315     1  0.0000000  0.6508444  3
    307    306    304    316     1  0.0000000  0.6508444  3
    307    676    675    689     1  0.0000000  0.0000000  2
    307    676    675    690     1  0.0000000  0.0000000  2
    308    305    303    328     1  0.0000000  0.6508444  3
    308    309    702    717     1  180.0000771  10.4600000  2
    309    308    305    317     1  0.0000000  0.6508444  3
    309    308    305    318     1  0.0000000  0.6508444  3
    309    702    701    715     1  0.0000000  0.0000000  2
    309    702    701    716     1  0.0000000  0.0000000  2
    310    303    304    315     1  0.0000000  0.6508444  3
    310    303    304    316     1  0.0000000  0.6508444  3
    310    303    305    317     1  0.0000000  0.6508444  3
    310    303    305    318     1  0.0000000  0.6508444  3
    310    311    312    327     1  0.0000000  0.0000000  2
    311    310    303    328     1  0.0000000  0.6508444  3
    312    311    310    323     1  0.0000000  0.6508444  3
    312    311    310    324     1  0.0000000  0.6508444  3
    313    307    306    319     1  0.0000000  3.3472000  1
    313    307    306    319     1  0.0000000  0.0000000  2
    313    307    306    319     1  180.0000771  0.3347200  3
    313    307    306    320     1  0.0000000  3.3472000  1
    313    307    306    320     1  0.0000000  0.0000000  2
    313    307    306    320     1  180.0000771  0.3347200  3
    313    307    676    691     1  0.0000000  8.3680000  1
    313    307    676    691     1  180.0000771  10.4600000  2
    314    309    308    321     1  0.0000000  3.3472000  1
    314    309    308    321     1  0.0000000  0.0000000  2
    314    309    308    321     1  180.0000771  0.3347200  3
    314    309    308    322     1  0.0000000  3.3472000  1
    314    309    308    322     1  0.0000000  0.0000000  2
    314    309    308    322     1  180.0000771  0.3347200  3
    314    309    702    717     1  0.0000000  8.3680000  1
    314    309    702    717     1  180.0000771  10.4600000  2
    315    304    303    328     1  0.0000000  0.6508444  3
    315    304    306    319     1  0.0000000  0.6508444  3
    315    304    306    320     1  0.0000000  0.6508444  3
    316    304    303    328     1  0.0000000  0.6508444  3
    316    304    306    319     1  0.0000000  0.6508444  3
    316    304    306    320     1  0.0000000  0.6508444  3
    317    305    303    328     1  0.0000000  0.6508444  3
    317    305    308    321     1  0.0000000  0.6508444  3
    317    305    308    322     1  0.0000000  0.6508444  3
    318    305    303    328     1  0.0000000  0.6508444  3
    318    305    308    321     1  0.0000000  0.6508444  3
    318    305    308    322     1  0.0000000  0.6508444  3
    319    306    307    676     1  180.0000771  0.0000000  2
    320    306    307    676     1  180.0000771  0.0000000  2
    321    308    309    702     1  180.0000771  0.0000000  2
    322    308    309    702     1  180.0000771  0.0000000  2
    323    310    303    328     1  0.0000000  0.6508444  3
    323    310    311    325     1  0.0000000  0.6508444  3
    323    310    311    326     1  0.0000000  0.6508444  3
    324    310    303    328     1  0.0000000  0.6508444  3
    324    310    311    325     1  0.0000000  0.6508444  3
    324    310    311    326     1  0.0000000  0.6508444  3
    325    311    312    327     1  0.0000000  0.0000000  2
    326    311    312    327     1  0.0000000  0.0000000  2
    329    330    332    345     1  0.0000000  0.6508444  3
    329    330    332    346     1  0.0000000  0.6508444  3
    329    331    334    347     1  0.0000000  0.6508444  3
    329    331    334    348     1  0.0000000  0.6508444  3
    329    336    337    351     1  0.0000000  0.6508444  3
    329    336    337    352     1  0.0000000  0.6508444  3
    330    329    331    343     1  0.0000000  0.6508444  3
    330    329    331    344     1  0.0000000  0.6508444  3
    330    329    336    349     1  0.0000000  0.6508444  3
    330    329    336    350     1  0.0000000  0.6508444  3
    331    329    330    341     1  0.0000000  0.6508444  3
    331    329    330    342     1  0.0000000  0.6508444  3
    331    329    336    349     1  0.0000000  0.6508444  3
    331    329    336    350     1  0.0000000  0.6508444  3
    332    330    329    354     1  0.0000000  0.6508444  3
    332    333    728    743     1  180.0000771  10.4600000  2
    333    332    330    341     1  0.0000000  0.6508444  3
    333    332    330    342     1  0.0000000  0.6508444  3
    333    728    727    741     1  0.0000000  0.0000000  2
    333    728    727    742     1  0.0000000  0.0000000  2
    334    331    329    354     1  0.0000000  0.6508444  3
    334    335    754    769     1  180.0000771  10.4600000  2
    335    334    331    343     1  0.0000000  0.6508444  3
    335    334    331    344     1  0.0000000  0.6508444  3
    335    754    753    767     1  0.0000000  0.0000000  2
    335    754    753    768     1  0.0000000  0.0000000  2
    336    329    330    341     1  0.0000000  0.6508444  3
    336    329    330    342     1  0.0000000  0.6508444  3
    336    329    331    343     1  0.0000000  0.6508444  3
    336    329    331    344     1  0.0000000  0.6508444  3
    336    337    338    353     1  0.0000000  0.0000000  2
    337    336    329    354     1  0.0000000  0.6508444  3
    338    337    336    349     1  0.0000000  0.6508444  3
    338    337    336    350     1  0.0000000  0.6508444  3
    339    333    332    345     1  0.0000000  3.3472000  1
    339    333    332    345     1  0.0000000  0.0000000  2
    339    333    332    345     1  180.0000771  0.3347200  3
    339    333    332    346     1  0.0000000  3.3472000  1
    339    333    332    346     1  0.0000000  0.0000000  2
    339    333    332    346     1  180.0000771  0.3347200  3
    339    333    728    743     1  0.0000000  8.3680000  1
    339    333    728    743     1  180.0000771  10.4600000  2
    340    335    334    347     1  0.0000000  3.3472000  1
    340    335    334    347     1  0.0000000  0.0000000  2
    340    335    334    347     1  180.0000771  0.3347200  3
    340    335    334    348     1  0.0000000  3.3472000  1
    340    335    334    348     1  0.0000000  0.0000000  2
    340    335    334    348     1  180.0000771  0.3347200  3
    340    335    754    769     1  0.0000000  8.3680000  1
    340    335    754    769     1  180.0000771  10.4600000  2
    341    330    329    354     1  0.0000000  0.6508444  3
    341    330    332    345     1  0.0000000  0.6508444  3
    341    330    332    346     1  0.0000000  0.6508444  3
    342    330    329    354     1  0.0000000  0.6508444  3
    342    330    332    345     1  0.0000000  0.6508444  3
    342    330    332    346     1  0.0000000  0.6508444  3
    343    331    329    354     1  0.0000000  0.6508444  3
    343    331    334    347     1  0.0000000  0.6508444  3
    343    331    334    348     1  0.0000000  0.6508444  3
    344    331    329    354     1  0.0000000  0.6508444  3
    344    331    334    347     1  0.0000000  0.6508444  3
    344    331    334    348     1  0.0000000  0.6508444  3
    345    332    333    728     1  180.0000771  0.0000000  2
    346    332    333    728     1  180.0000771  0.0000000  2
    347    334    335    754     1  180.0000771  0.0000000  2
    348    334    335    754     1  180.0000771  0.0000000  2
    349    336    329    354     1  0.0000000  0.6508444  3
    349    336    337    351     1  0.0000000  0.6508444  3
    349    336    337    352     1  0.0000000  0.6508444  3
    350    336    329    354     1  0.0000000  0.6508444  3
    350    336    337    351     1  0.0000000  0.6508444  3
    350    336    337    352     1  0.0000000  0.6508444  3
    351    337    338    353     1  0.0000000  0.0000000  2
    352    337    338    353     1  0.0000000  0.0000000  2
    355    356    358    371     1  0.0000000  0.6508444  3
    355    356    358    372     1  0.0000000  0.6508444  3
    355    357    360    373     1  0.0000000  0.6508444  3
    355    357    360    374     1  0.0000000  0.6508444  3
    355    362    363    377     1  0.0000000  0.6508444  3
    355    362    363    378     1  0.0000000  0.6508444  3
    356    355    357    369     1  0.0000000  0.6508444  3
    356    355    357    370     1  0.0000000  0.6508444  3
    356    355    362    375     1  0.0000000  0.6508444  3
    356    355    362    376     1  0.0000000  0.6508444  3
    357    355    356    367     1  0.0000000  0.6508444  3
    357    355    356    368     1  0.0000000  0.6508444  3
    357    355    362    375     1  0.0000000  0.6508444  3
    357    355    362    376     1  0.0000000  0.6508444  3
    358    356    355    380     1  0.0000000  0.6508444  3
    358    359    771    772     1  180.0000771  10.4600000  2
    359    358    356    367     1  0.0000000  0.6508444  3
    359    358    356    368     1  0.0000000  0.6508444  3
    359    771    773    775     1  0.0000000  0.0000000  2
    359    771    773    776     1  0.0000000  0.0000000  2
    360    357    355    380     1  0.0000000  0.6508444  3
    360    361    783    784     1  180.0000771  10.4600000  2
    361    360    357    369     1  0.0000000  0.6508444  3
    361    360    357    370     1  0.0000000  0.6508444  3
    361    783    785    787     1  0.0000000  0.0000000  2
    361    783    785    788     1  0.0000000  0.0000000  2
    362    355    356    367     1  0.0000000  0.6508444  3
    362    355    356    368     1  0.0000000  0.6508444  3
    362    355    357    369     1  0.0000000  0.6508444  3
    362    355    357    370     1  0.0000000  0.6508444  3
    362    363    364    379     1  0.0000000  0.0000000  2
    363    362    355    380     1  0.0000000  0.6508444  3
    364    363    362    375     1  0.0000000  0.6508444  3
    364    363    362    376     1  0.0000000  0.6508444  3
    365    359    358    371     1  0.0000000  3.3472000  1
    365    359    358    371     1  0.0000000  0.0000000  2
    365    359    358    371     1  180.0000771  0.3347200  3
    365    359    358    372     1  0.0000000  3.3472000  1
    365    359    358    372     1  0.0000000  0.0000000  2
    365    359    358    372     1  180.0000771  0.3347200  3
    365    359    771    772     1  0.0000000  8.3680000  1
    365    359    771    772     1  180.0000771  10.4600000  2
    366    361    360    373     1  0.0000000  3.3472000  1
    366    361    360    373     1  0.0000000  0.0000000  2
    366    361    360    373     1  180.0000771  0.3347200  3
    366    361    360    374     1  0.0000000  3.3472000  1
    366    361    360    374     1  0.0000000  0.0000000  2
    366    361    360    374     1  180.0000771  0.3347200  3
    366    361    783    784     1  0.0000000  8.3680000  1
    366    361    783    784     1  180.0000771  10.4600000  2
    367    356    355    380     1  0.0000000  0.6508444  3
    367    356    358    371     1  0.0000000  0.6508444  3
    367    356    358    372     1  0.0000000  0.6508444  3
    368    356    355    380     1  0.0000000  0.6508444  3
    368    356    358    371     1  0.0000000  0.6508444  3
    368    356    358    372     1  0.0000000  0.6508444  3
    369    357    355    380     1  0.0000000  0.6508444  3
    369    357    360    373     1  0.0000000  0.6508444  3
    369    357    360    374     1  0.0000000  0.6508444  3
    370    357    355    380     1  0.0000000  0.6508444  3
    370    357    360    373     1  0.0000000  0.6508444  3
    370    357    360    374     1  0.0000000  0.6508444  3
    371    358    359    771     1  180.0000771  0.0000000  2
    372    358    359    771     1  180.0000771  0.0000000  2
    373    360    361    783     1  180.0000771  0.0000000  2
    374    360    361    783     1  180.0000771  0.0000000  2
    375    362    355    380     1  0.0000000  0.6508444  3
    375    362    363    377     1  0.0000000  0.6508444  3
    375    362    363    378     1  0.0000000  0.6508444  3
    376    362    355    380     1  0.0000000  0.6508444  3
    376    362    363    377     1  0.0000000  0.6508444  3
    376    362    363    378     1  0.0000000  0.6508444  3
    377    363    364    379     1  0.0000000  0.0000000  2
    378    363    364    379     1  0.0000000  0.0000000  2
    381    382    384    397     1  0.0000000  0.6508444  3
    381    382    384    398     1  0.0000000  0.6508444  3
    381    383    386    399     1  0.0000000  0.6508444  3
    381    383    386    400     1  0.0000000  0.6508444  3
    381    388    389    403     1  0.0000000  0.6508444  3
    381    388    389    404     1  0.0000000  0.6508444  3
    382    381    383    395     1  0.0000000  0.6508444  3
    382    381    383    396     1  0.0000000  0.6508444  3
    382    381    388    401     1  0.0000000  0.6508444  3
    382    381    388    402     1  0.0000000  0.6508444  3
    383    381    382    393     1  0.0000000  0.6508444  3
    383    381    382    394     1  0.0000000  0.6508444  3
    383    381    388    401     1  0.0000000  0.6508444  3
    383    381    388    402     1  0.0000000  0.6508444  3
    384    382    381    406     1  0.0000000  0.6508444  3
    384    385    795    796     1  180.0000771  10.4600000  2
    385    384    382    393     1  0.0000000  0.6508444  3
    385    384    382    394     1  0.0000000  0.6508444  3
    385    795    797    799     1  0.0000000  0.0000000  2
    385    795    797    800     1  0.0000000  0.0000000  2
    386    383    381    406     1  0.0000000  0.6508444  3
    386    387    807    808     1  180.0000771  10.4600000  2
    387    386    383    395     1  0.0000000  0.6508444  3
    387    386    383    396     1  0.0000000  0.6508444  3
    387    807    809    811     1  0.0000000  0.0000000  2
    387    807    809    812     1  0.0000000  0.0000000  2
    388    381    382    393     1  0.0000000  0.6508444  3
    388    381    382    394     1  0.0000000  0.6508444  3
    388    381    383    395     1  0.0000000  0.6508444  3
    388    381    383    396     1  0.0000000  0.6508444  3
    388    389    390    405     1  0.0000000  0.0000000  2
    389    388    381    406     1  0.0000000  0.6508444  3
    390    389    388    401     1  0.0000000  0.6508444  3
    390    389    388    402     1  0.0000000  0.6508444  3
    391    385    384    397     1  0.0000000  3.3472000  1
    391    385    384    397     1  0.0000000  0.0000000  2
    391    385    384    397     1  180.0000771  0.3347200  3
    391    385    384    398     1  0.0000000  3.3472000  1
    391    385    384    398     1  0.0000000  0.0000000  2
    391    385    384    398     1  180.0000771  0.3347200  3
    391    385    795    796     1  0.0000000  8.3680000  1
    391    385    795    796     1  180.0000771  10.4600000  2
    392    387    386    399     1  0.0000000  3.3472000  1
    392    387    386    399     1  0.0000000  0.0000000  2
    392    387    386    399     1  180.0000771  0.3347200  3
    392    387    386    400     1  0.0000000  3.3472000  1
    392    387    386    400     1  0.0000000  0.0000000  2
    392    387    386    400     1  180.0000771  0.3347200  3
    392    387    807    808     1  0.0000000  8.3680000  1
    392    387    807    808     1  180.0000771  10.4600000  2
    393    382    381    406     1  0.0000000  0.6508444  3
    393    382    384    397     1  0.0000000  0.6508444  3
    393    382    384    398     1  0.0000000  0.6508444  3
    394    382    381    406     1  0.0000000  0.6508444  3
    394    382    384    397     1  0.0000000  0.6508444  3
    394    382    384    398     1  0.0000000  0.6508444  3
    395    383    381    406     1  0.0000000  0.6508444  3
    395    383    386    399     1  0.0000000  0.6508444  3
    395    383    386    400     1  0.0000000  0.6508444  3
    396    383    381    406     1  0.0000000  0.6508444  3
    396    383    386    399     1  0.0000000  0.6508444  3
    396    383    386    400     1  0.0000000  0.6508444  3
    397    384    385    795     1  180.0000771  0.0000000  2
    398    384    385    795     1  180.0000771  0.0000000  2
    399    386    387    807     1  180.0000771  0.0000000  2
    400    386    387    807     1  180.0000771  0.0000000  2
    401    388    381    406     1  0.0000000  0.6508444  3
    401    388    389    403     1  0.0000000  0.6508444  3
    401    388    389    404     1  0.0000000  0.6508444  3
    402    388    381    406     1  0.0000000  0.6508444  3
    402    388    389    403     1  0.0000000  0.6508444  3
    402    388    389    404     1  0.0000000  0.6508444  3
    403    389    390    405     1  0.0000000  0.0000000  2
    404    389    390    405     1  0.0000000  0.0000000  2
    407    408    410    423     1  0.0000000  0.6508444  3
    407    408    410    424     1  0.0000000  0.6508444  3
    407    409    412    425     1  0.0000000  0.6508444  3
    407    409    412    426     1  0.0000000  0.6508444  3
    407    414    415    429     1  0.0000000  0.6508444  3
    407    414    415    430     1  0.0000000  0.6508444  3
    408    407    409    421     1  0.0000000  0.6508444  3
    408    407    409    422     1  0.0000000  0.6508444  3
    408    407    414    427     1  0.0000000  0.6508444  3
    408    407    414    428     1  0.0000000  0.6508444  3
    409    407    408    419     1  0.0000000  0.6508444  3
    409    407    408    420     1  0.0000000  0.6508444  3
    409    407    414    427     1  0.0000000  0.6508444  3
    409    407    414    428     1  0.0000000  0.6508444  3
    410    408    407    432     1  0.0000000  0.6508444  3
    410    411    819    820     1  180.0000771  10.4600000  2
    411    410    408    419     1  0.0000000  0.6508444  3
    411    410    408    420     1  0.0000000  0.6508444  3
    411    819    821    823     1  0.0000000  0.0000000  2
    411    819    821    824     1  0.0000000  0.0000000  2
    412    409    407    432     1  0.0000000  0.6508444  3
    412    413    831    832     1  180.0000771  10.4600000  2
    413    412    409    421     1  0.0000000  0.6508444  3
    413    412    409    422     1  0.0000000  0.6508444  3
    413    831    833    835     1  0.0000000  0.0000000  2
    413    831    833    836     1  0.0000000  0.0000000  2
    414    407    408    419     1  0.0000000  0.6508444  3
    414    407    408    420     1  0.0000000  0.6508444  3
    414    407    409    421     1  0.0000000  0.6508444  3
    414    407    409    422     1  0.0000000  0.6508444  3
    414    415    416    431     1  0.0000000  0.0000000  2
    415    414    407    432     1  0.0000000  0.6508444  3
    416    415    414    427     1  0.0000000  0.6508444  3
    416    415    414    428     1  0.0000000  0.6508444  3
    417    411    410    423     1  0.0000000  3.3472000  1
    417    411    410    423     1  0.0000000  0.0000000  2
    417    411    410    423     1  180.0000771  0.3347200  3
    417    411    410    424     1  0.0000000  3.3472000  1
    417    411    410    424     1  0.0000000  0.0000000  2
    417    411    410    424     1  180.0000771  0.3347200  3
    417    411    819    820     1  0.0000000  8.3680000  1
    417    411    819    820     1  180.0000771  10.4600000  2
    418    413    412    425     1  0.0000000  3.3472000  1
    418    413    412    425     1  0.0000000  0.0000000  2
    418    413    412    425     1  180.0000771  0.3347200  3
    418    413    412    426     1  0.0000000  3.3472000  1
    418    413    412    426     1  0.0000000  0.0000000  2
    418    413    412    426     1  180.0000771  0.3347200  3
    418    413    831    832     1  0.0000000  8.3680000  1
    418    413    831    832     1  180.0000771  10.4600000  2
    419    408    407    432     1  0.0000000  0.6508444  3
    419    408    410    423     1  0.0000000  0.6508444  3
    419    408    410    424     1  0.0000000  0.6508444  3
    420    408    407    432     1  0.0000000  0.6508444  3
    420    408    410    423     1  0.0000000  0.6508444  3
    420    408    410    424     1  0.0000000  0.6508444  3
    421    409    407    432     1  0.0000000  0.6508444  3
    421    409    412    425     1  0.0000000  0.6508444  3
    421    409    412    426     1  0.0000000  0.6508444  3
    422    409    407    432     1  0.0000000  0.6508444  3
    422    409    412    425     1  0.0000000  0.6508444  3
    422    409    412    426     1  0.0000000  0.6508444  3
    423    410    411    819     1  180.0000771  0.0000000  2
    424    410    411    819     1  180.0000771  0.0000000  2
    425    412    413    831     1  180.0000771  0.0000000  2
    426    412    413    831     1  180.0000771  0.0000000  2
    427    414    407    432     1  0.0000000  0.6508444  3
    427    414    415    429     1  0.0000000  0.6508444  3
    427    414    415    430     1  0.0000000  0.6508444  3
    428    414    407    432     1  0.0000000  0.6508444  3
    428    414    415    429     1  0.0000000  0.6508444  3
    428    414    415    430     1  0.0000000  0.6508444  3
    429    415    416    431     1  0.0000000  0.0000000  2
    430    415    416    431     1  0.0000000  0.0000000  2
    433    434    436    449     1  0.0000000  0.6508444  3
    433    434    436    450     1  0.0000000  0.6508444  3
    433    435    438    451     1  0.0000000  0.6508444  3
    433    435    438    452     1  0.0000000  0.6508444  3
    433    440    441    455     1  0.0000000  0.6508444  3
    433    440    441    456     1  0.0000000  0.6508444  3
    434    433    435    447     1  0.0000000  0.6508444  3
    434    433    435    448     1  0.0000000  0.6508444  3
    434    433    440    453     1  0.0000000  0.6508444  3
    434    433    440    454     1  0.0000000  0.6508444  3
    435    433    434    445     1  0.0000000  0.6508444  3
    435    433    434    446     1  0.0000000  0.6508444  3
    435    433    440    453     1  0.0000000  0.6508444  3
    435    433    440    454     1  0.0000000  0.6508444  3
    436    434    433    458     1  0.0000000  0.6508444  3
    436    437    843    844     1  180.0000771  10.4600000  2
    437    436    434    445     1  0.0000000  0.6508444  3
    437    436    434    446     1  0.0000000  0.6508444  3
    437    843    845    847     1  0.0000000  0.0000000  2
    437    843    845    848     1  0.0000000  0.0000000  2
    438    435    433    458     1  0.0000000  0.6508444  3
    438    439    855    856     1  180.0000771  10.4600000  2
    439    438    435    447     1  0.0000000  0.6508444  3
    439    438    435    448     1  0.0000000  0.6508444  3
    439    855    857    859     1  0.0000000  0.0000000  2
    439    855    857    860     1  0.0000000  0.0000000  2
    440    433    434    445     1  0.0000000  0.6508444  3
    440    433    434    446     1  0.0000000  0.6508444  3
    440    433    435    447     1  0.0000000  0.6508444  3
    440    433    435    448     1  0.0000000  0.6508444  3
    440    441    442    457     1  0.0000000  0.0000000  2
    441    440    433    458     1  0.0000000  0.6508444  3
    442    441    440    453     1  0.0000000  0.6508444  3
    442    441    440    454     1  0.0000000  0.6508444  3
    443    437    436    449     1  0.0000000  3.3472000  1
    443    437    436    449     1  0.0000000  0.0000000  2
    443    437    436    449     1  180.0000771  0.3347200  3
    443    437    436    450     1  0.0000000  3.3472000  1
    443    437    436    450     1  0.0000000  0.0000000  2
    443    437    436    450     1  180.0000771  0.3347200  3
    443    437    843    844     1  0.0000000  8.3680000  1
    443    437    843    844     1  180.0000771  10.4600000  2
    444    439    438    451     1  0.0000000  3.3472000  1
    444    439    438    451     1  0.0000000  0.0000000  2
    444    439    438    451     1  180.0000771  0.3347200  3
    444    439    438    452     1  0.0000000  3.3472000  1
    444    439    438    452     1  0.0000000  0.0000000  2
    444    439    438    452     1  180.0000771  0.3347200  3
    444    439    855    856     1  0.0000000  8.3680000  1
    444    439    855    856     1  180.0000771  10.4600000  2
    445    434    433    458     1  0.0000000  0.6508444  3
    445    434    436    449     1  0.0000000  0.6508444  3
    445    434    436    450     1  0.0000000  0.6508444  3
    446    434    433    458     1  0.0000000  0.6508444  3
    446    434    436    449     1  0.0000000  0.6508444  3
    446    434    436    450     1  0.0000000  0.6508444  3
    447    435    433    458     1  0.0000000  0.6508444  3
    447    435    438    451     1  0.0000000  0.6508444  3
    447    435    438    452     1  0.0000000  0.6508444  3
    448    435    433    458     1  0.0000000  0.6508444  3
    448    435    438    451     1  0.0000000  0.6508444  3
    448    435    438    452     1  0.0000000  0.6508444  3
    449    436    437    843     1  180.0000771  0.0000000  2
    450    436    437    843     1  180.0000771  0.0000000  2
    451    438    439    855     1  180.0000771  0.0000000  2
    452    438    439    855     1  180.0000771  0.0000000  2
    453    440    433    458     1  0.0000000  0.6508444  3
    453    440    441    455     1  0.0000000  0.6508444  3
    453    440    441    456     1  0.0000000  0.6508444  3
    454    440    433    458     1  0.0000000  0.6508444  3
    454    440    441    455     1  0.0000000  0.6508444  3
    454    440    441    456     1  0.0000000  0.6508444  3
    455    441    442    457     1  0.0000000  0.0000000  2
    456    441    442    457     1  0.0000000  0.0000000  2
    459    460    462    475     1  0.0000000  0.6508444  3
    459    460    462    476     1  0.0000000  0.6508444  3
    459    461    464    477     1  0.0000000  0.6508444  3
    459    461    464    478     1  0.0000000  0.6508444  3
    459    466    467    481     1  0.0000000  0.6508444  3
    459    466    467    482     1  0.0000000  0.6508444  3
    460    459    461    473     1  0.0000000  0.6508444  3
    460    459    461    474     1  0.0000000  0.6508444  3
    460    459    466    479     1  0.0000000  0.6508444  3
    460    459    466    480     1  0.0000000  0.6508444  3
    461    459    460    471     1  0.0000000  0.6508444  3
    461    459    460    472     1  0.0000000  0.6508444  3
    461    459    466    479     1  0.0000000  0.6508444  3
    461    459    466    480     1  0.0000000  0.6508444  3
    462    460    459    484     1  0.0000000  0.6508444  3
    462    463    867    868     1  180.0000771  10.4600000  2
    463    462    460    471     1  0.0000000  0.6508444  3
    463    462    460    472     1  0.0000000  0.6508444  3
    463    867    869    871     1  0.0000000  0.0000000  2
    463    867    869    872     1  0.0000000  0.0000000  2
    464    461    459    484     1  0.0000000  0.6508444  3
    464    465    879    880     1  180.0000771  10.4600000  2
    465    464    461    473     1  0.0000000  0.6508444  3
    465    464    461    474     1  0.0000000  0.6508444  3
    465    879    881    883     1  0.0000000  0.0000000  2
    465    879    881    884     1  0.0000000  0.0000000  2
    466    459    460    471     1  0.0000000  0.6508444  3
    466    459    460    472     1  0.0000000  0.6508444  3
    466    459    461    473     1  0.0000000  0.6508444  3
    466    459    461    474     1  0.0000000  0.6508444  3
    466    467    468    483     1  0.0000000  0.0000000  2
    467    466    459    484     1  0.0000000  0.6508444  3
    468    467    466    479     1  0.0000000  0.6508444  3
    468    467    466    480     1  0.0000000  0.6508444  3
    469    463    462    475     1  0.0000000  3.3472000  1
    469    463    462    475     1  0.0000000  0.0000000  2
    469    463    462    475     1  180.0000771  0.3347200  3
    469    463    462    476     1  0.0000000  3.3472000  1
    469    463    462    476     1  0.0000000  0.0000000  2
    469    463    462    476     1  180.0000771  0.3347200  3
    469    463    867    868     1  0.0000000  8.3680000  1
    469    463    867    868     1  180.0000771  10.4600000  2
    470    465    464    477     1  0.0000000  3.3472000  1
    470    465    464    477     1  0.0000000  0.0000000  2
    470    465    464    477     1  180.0000771  0.3347200  3
    470    465    464    478     1  0.0000000  3.3472000  1
    470    465    464    478     1  0.0000000  0.0000000  2
    470    465    464    478     1  180.0000771  0.3347200  3
    470    465    879    880     1  0.0000000  8.3680000  1
    470    465    879    880     1  180.0000771  10.4600000  2
    471    460    459    484     1  0.0000000  0.6508444  3
    471    460    462    475     1  0.0000000  0.6508444  3
    471    460    462    476     1  0.0000000  0.6508444  3
    472    460    459    484     1  0.0000000  0.6508444  3
    472    460    462    475     1  0.0000000  0.6508444  3
    472    460    462    476     1  0.0000000  0.6508444  3
    473    461    459    484     1  0.0000000  0.6508444  3
    473    461    464    477     1  0.0000000  0.6508444  3
    473    461    464    478     1  0.0000000  0.6508444  3
    474    461    459    484     1  0.0000000  0.6508444  3
    474    461    464    477     1  0.0000000  0.6508444  3
    474    461    464    478     1  0.0000000  0.6508444  3
    475    462    463    867     1  180.0000771  0.0000000  2
    476    462    463    867     1  180.0000771  0.0000000  2
    477    464    465    879     1  180.0000771  0.0000000  2
    478    464    465    879     1  180.0000771  0.0000000  2
    479    466    459    484     1  0.0000000  0.6508444  3
    479    466    467    481     1  0.0000000  0.6508444  3
    479    466    467    482     1  0.0000000  0.6508444  3
    480    466    459    484     1  0.0000000  0.6508444  3
    480    466    467    481     1  0.0000000  0.6508444  3
    480    466    467    482     1  0.0000000  0.6508444  3
    481    467    468    483     1  0.0000000  0.0000000  2
    482    467    468    483     1  0.0000000  0.0000000  2
    485    486    488    501     1  0.0000000  0.6508444  3
    485    486    488    502     1  0.0000000  0.6508444  3
    485    487    490    503     1  0.0000000  0.6508444  3
    485    487    490    504     1  0.0000000  0.6508444  3
    485    492    493    507     1  0.0000000  0.6508444  3
    485    492    493    508     1  0.0000000  0.6508444  3
    486    485    487    499     1  0.0000000  0.6508444  3
    486    485    487    500     1  0.0000000  0.6508444  3
    486    485    492    505     1  0.0000000  0.6508444  3
    486    485    492    506     1  0.0000000  0.6508444  3
    487    485    486    497     1  0.0000000  0.6508444  3
    487    485    486    498     1  0.0000000  0.6508444  3
    487    485    492    505     1  0.0000000  0.6508444  3
    487    485    492    506     1  0.0000000  0.6508444  3
    488    486    485    510     1  0.0000000  0.6508444  3
    488    489    891    892     1  180.0000771  10.4600000  2
    489    488    486    497     1  0.0000000  0.6508444  3
    489    488    486    498     1  0.0000000  0.6508444  3
    489    891    893    895     1  0.0000000  0.0000000  2
    489    891    893    896     1  0.0000000  0.0000000  2
    490    487    485    510     1  0.0000000  0.6508444  3
    490    491    903    904     1  180.0000771  10.4600000  2
    491    490    487    499     1  0.0000000  0.6508444  3
    491    490    487    500     1  0.0000000  0.6508444  3
    491    903    905    907     1  0.0000000  0.0000000  2
    491    903    905    908     1  0.0000000  0.0000000  2
    492    485    486    497     1  0.0000000  0.6508444  3
    492    485    486    498     1  0.0000000  0.6508444  3
    492    485    487    499     1  0.0000000  0.6508444  3
    492    485    487    500     1  0.0000000  0.6508444  3
    492    493    494    509     1  0.0000000  0.0000000  2
    493    492    485    510     1  0.0000000  0.6508444  3
    494    493    492    505     1  0.0000000  0.6508444  3
    494    493    492    506     1  0.0000000  0.6508444  3
    495    489    488    501     1  0.0000000  3.3472000  1
    495    489    488    501     1  0.0000000  0.0000000  2
    495    489    488    501     1  180.0000771  0.3347200  3
    495    489    488    502     1  0.0000000  3.3472000  1
    495    489    488    502     1  0.0000000  0.0000000  2
    495    489    488    502     1  180.0000771  0.3347200  3
    495    489    891    892     1  0.0000000  8.3680000  1
    495    489    891    892     1  180.0000771  10.4600000  2
    496    491    490    503     1  0.0000000  3.3472000  1
    496    491    490    503     1  0.0000000  0.0000000  2
    496    491    490    503     1  180.0000771  0.3347200  3
    496    491    490    504     1  0.0000000  3.3472000  1
    496    491    490    504     1  0.0000000  0.0000000  2
    496    491    490    504     1  180.0000771  0.3347200  3
    496    491    903    904     1  0.0000000  8.3680000  1
    496    491    903    904     1  180.0000771  10.4600000  2
    497    486    485    510     1  0.0000000  0.6508444  3
    497    486    488    501     1  0.0000000  0.6508444  3
    497    486    488    502     1  0.0000000  0.6508444  3
    498    486    485    510     1  0.0000000  0.6508444  3
    498    486    488    501     1  0.0000000  0.6508444  3
    498    486    488    502     1  0.0000000  0.6508444  3
    499    487    485    510     1  0.0000000  0.6508444  3
    499    487    490    503     1  0.0000000  0.6508444  3
    499    487    490    504     1  0.0000000  0.6508444  3
    500    487    485    510     1  0.0000000  0.6508444  3
    500    487    490    503     1  0.0000000  0.6508444  3
    500    487    490    504     1  0.0000000  0.6508444  3
    501    488    489    891     1  180.0000771  0.0000000  2
    502    488    489    891     1  180.0000771  0.0000000  2
    503    490    491    903     1  180.0000771  0.0000000  2
    504    490    491    903     1  180.0000771  0.0000000  2
    505    492    485    510     1  0.0000000  0.6508444  3
    505    492    493    507     1  0.0000000  0.6508444  3
    505    492    493    508     1  0.0000000  0.6508444  3
    506    492    485    510     1  0.0000000  0.6508444  3
    506    492    493    507     1  0.0000000  0.6508444  3
    506    492    493    508     1  0.0000000  0.6508444  3
    507    493    494    509     1  0.0000000  0.0000000  2
    508    493    494    509     1  0.0000000  0.0000000  2
    511    512    514    527     1  0.0000000  0.6508444  3
    511    512    514    528     1  0.0000000  0.6508444  3
    511    513    516    529     1  0.0000000  0.6508444  3
    511    513    516    530     1  0.0000000  0.6508444  3
    511    518    519    533     1  0.0000000  0.6508444  3
    511    518    519    534     1  0.0000000  0.6508444  3
    512    511    513    525     1  0.0000000  0.6508444  3
    512    511    513    526     1  0.0000000  0.6508444  3
    512    511    518    531     1  0.0000000  0.6508444  3
    512    511    518    532     1  0.0000000  0.6508444  3
    513    511    512    523     1  0.0000000  0.6508444  3
    513    511    512    524     1  0.0000000  0.6508444  3
    513    511    518    531     1  0.0000000  0.6508444  3
    513    511    518    532     1  0.0000000  0.6508444  3
    514    512    511    536     1  0.0000000  0.6508444  3
    514    515    915    916     1  180.0000771  10.4600000  2
    515    514    512    523     1  0.0000000  0.6508444  3
    515    514    512    524     1  0.0000000  0.6508444  3
    515    915    917    919     1  0.0000000  0.0000000  2
    515    915    917    920     1  0.0000000  0.0000000  2
    516    513    511    536     1  0.0000000  0.6508444  3
    516    517    927    928     1  180.0000771  10.4600000  2
    517    516    513    525     1  0.0000000  0.6508444  3
    517    516    513    526     1  0.0000000  0.6508444  3
    517    927    929    931     1  0.0000000  0.0000000  2
    517    927    929    932     1  0.0000000  0.0000000  2
    518    511    512    523     1  0.0000000  0.6508444  3
    518    511    512    524     1  0.0000000  0.6508444  3
    518    511    513    525     1  0.0000000  0.6508444  3
    518    511    513    526     1  0.0000000  0.6508444  3
    518    519    520    535     1  0.0000000  0.0000000  2
    519    518    511    536     1  0.0000000  0.6508444  3
    520    519    518    531     1  0.0000000  0.6508444  3
    520    519    518    532     1  0.0000000  0.6508444  3
    521    515    514    527     1  0.0000000  3.3472000  1
    521    515    514    527     1  0.0000000  0.0000000  2
    521    515    514    527     1  180.0000771  0.3347200  3
    521    515    514    528     1  0.0000000  3.3472000  1
    521    515    514    528     1  0.0000000  0.0000000  2
    521    515    514    528     1  180.0000771  0.3347200  3
    521    515    915    916     1  0.0000000  8.3680000  1
    521    515    915    916     1  180.0000771  10.4600000  2
    522    517    516    529     1  0.0000000  3.3472000  1
    522    517    516    529     1  0.0000000  0.0000000  2
    522    517    516    529     1  180.0000771  0.3347200  3
    522    517    516    530     1  0.0000000  3.3472000  1
    522    517    516    530     1  0.0000000  0.0000000  2
    522    517    516    530     1  180.0000771  0.3347200  3
    522    517    927    928     1  0.0000000  8.3680000  1
    522    517    927    928     1  180.0000771  10.4600000  2
    523    512    511    536     1  0.0000000  0.6508444  3
    523    512    514    527     1  0.0000000  0.6508444  3
    523    512    514    528     1  0.0000000  0.6508444  3
    524    512    511    536     1  0.0000000  0.6508444  3
    524    512    514    527     1  0.0000000  0.6508444  3
    524    512    514    528     1  0.0000000  0.6508444  3
    525    513    511    536     1  0.0000000  0.6508444  3
    525    513    516    529     1  0.0000000  0.6508444  3
    525    513    516    530     1  0.0000000  0.6508444  3
    526    513    511    536     1  0.0000000  0.6508444  3
    526    513    516    529     1  0.0000000  0.6508444  3
    526    513    516    530     1  0.0000000  0.6508444  3
    527    514    515    915     1  180.0000771  0.0000000  2
    528    514    515    915     1  180.0000771  0.0000000  2
    529    516    517    927     1  180.0000771  0.0000000  2
    530    516    517    927     1  180.0000771  0.0000000  2
    531    518    511    536     1  0.0000000  0.6508444  3
    531    518    519    533     1  0.0000000  0.6508444  3
    531    518    519    534     1  0.0000000  0.6508444  3
    532    518    511    536     1  0.0000000  0.6508444  3
    532    518    519    533     1  0.0000000  0.6508444  3
    532    518    519    534     1  0.0000000  0.6508444  3
    533    519    520    535     1  0.0000000  0.0000000  2
    534    519    520    535     1  0.0000000  0.0000000  2
    537    538    540    553     1  0.0000000  0.6508444  3
    537    538    540    554     1  0.0000000  0.6508444  3
    537    539    542    555     1  0.0000000  0.6508444  3
    537    539    542    556     1  0.0000000  0.6508444  3
    537    544    545    559     1  0.0000000  0.6508444  3
    537    544    545    560     1  0.0000000  0.6508444  3
    538    537    539    551     1  0.0000000  0.6508444  3
    538    537    539    552     1  0.0000000  0.6508444  3
    538    537    544    557     1  0.0000000  0.6508444  3
    538    537    544    558     1  0.0000000  0.6508444  3
    539    537    538    549     1  0.0000000  0.6508444  3
    539    537    538    550     1  0.0000000  0.6508444  3
    539    537    544    557     1  0.0000000  0.6508444  3
    539    537    544    558     1  0.0000000  0.6508444  3
    540    538    537    562     1  0.0000000  0.6508444  3
    540    541    939    940     1  180.0000771  10.4600000  2
    541    540    538    549     1  0.0000000  0.6508444  3
    541    540    538    550     1  0.0000000  0.6508444  3
    541    939    941    943     1  0.0000000  0.0000000  2
    541    939    941    944     1  0.0000000  0.0000000  2
    542    539    537    562     1  0.0000000  0.6508444  3
    542    543    951    952     1  180.0000771  10.4600000  2
    543    542    539    551     1  0.0000000  0.6508444  3
    543    542    539    552     1  0.0000000  0.6508444  3
    543    951    953    955     1  0.0000000  0.0000000  2
    543    951    953    956     1  0.0000000  0.0000000  2
    544    537    538    549     1  0.0000000  0.6508444  3
    544    537    538    550     1  0.0000000  0.6508444  3
    544    537    539    551     1  0.0000000  0.6508444  3
    544    537    539    552     1  0.0000000  0.6508444  3
    544    545    546    561     1  0.0000000  0.0000000  2
    545    544    537    562     1  0.0000000  0.6508444  3
    546    545    544    557     1  0.0000000  0.6508444  3
    546    545    544    558     1  0.0000000  0.6508444  3
    547    541    540    553     1  0.0000000  3.3472000  1
    547    541    540    553     1  0.0000000  0.0000000  2
    547    541    540    553     1  180.0000771  0.3347200  3
    547    541    540    554     1  0.0000000  3.3472000  1
    547    541    540    554     1  0.0000000  0.0000000  2
    547    541    540    554     1  180.0000771  0.3347200  3
    547    541    939    940     1  0.0000000  8.3680000  1
    547    541    939    940     1  180.0000771  10.4600000  2
    548    543    542    555     1  0.0000000  3.3472000  1
    548    543    542    555     1  0.0000000  0.0000000  2
    548    543    542    555     1  180.0000771  0.3347200  3
    548    543    542    556     1  0.0000000  3.3472000  1
    548    543    542    556     1  0.0000000  0.0000000  2
    548    543    542    556     1  180.0000771  0.3347200  3
    548    543    951    952     1  0.0000000  8.3680000  1
    548    543    951    952     1  180.0000771  10.4600000  2
    549    538    537    562     1  0.0000000  0.6508444  3
    549    538    540    553     1  0.0000000  0.6508444  3
    549    538    540    554     1  0.0000000  0.6508444  3
    550    538    537    562     1  0.0000000  0.6508444  3
    550    538    540    553     1  0.0000000  0.6508444  3
    550    538    540    554     1  0.0000000  0.6508444  3
    551    539    537    562     1  0.0000000  0.6508444  3
    551    539    542    555     1  0.0000000  0.6508444  3
    551    539    542    556     1  0.0000000  0.6508444  3
    552    539    537    562     1  0.0000000  0.6508444  3
    552    539    542    555     1  0.0000000  0.6508444  3
    552    539    542    556     1  0.0000000  0.6508444  3
    553    540    541    939     1  180.0000771  0.0000000  2
    554    540    541    939     1  180.0000771  0.0000000  2
    555    542    543    951     1  180.0000771  0.0000000  2
    556    542    543    951     1  180.0000771  0.0000000  2
    557    544    537    562     1  0.0000000  0.6508444  3
    557    544    545    559     1  0.0000000  0.6508444  3
    557    544    545    560     1  0.0000000  0.6508444  3
    558    544    537    562     1  0.0000000  0.6508444  3
    558    544    545    559     1  0.0000000  0.6508444  3
    558    544    545    560     1  0.0000000  0.6508444  3
    559    545    546    561     1  0.0000000  0.0000000  2
    560    545    546    561     1  0.0000000  0.0000000  2
    563    564    566    579     1  0.0000000  0.6508444  3
    563    564    566    580     1  0.0000000  0.6508444  3
    563    565    568    581     1  0.0000000  0.6508444  3
    563    565    568    582     1  0.0000000  0.6508444  3
    563    570    571    585     1  0.0000000  0.6508444  3
    563    570    571    586     1  0.0000000  0.6508444  3
    564    563    565    577     1  0.0000000  0.6508444  3
    564    563    565    578     1  0.0000000  0.6508444  3
    564    563    570    583     1  0.0000000  0.6508444  3
    564    563    570    584     1  0.0000000  0.6508444  3
    565    563    564    575     1  0.0000000  0.6508444  3
    565    563    564    576     1  0.0000000  0.6508444  3
    565    563    570    583     1  0.0000000  0.6508444  3
    565    563    570    584     1  0.0000000  0.6508444  3
    566    564    563    588     1  0.0000000  0.6508444  3
    566    567    963    964     1  180.0000771  10.4600000  2
    567    566    564    575     1  0.0000000  0.6508444  3
    567    566    564    576     1  0.0000000  0.6508444  3
    567    963    965    967     1  0.0000000  0.0000000  2
    567    963    965    968     1  0.0000000  0.0000000  2
    568    565    563    588     1  0.0000000  0.6508444  3
    568    569    975    976     1  180.0000771  10.4600000  2
    569    568    565    577     1  0.0000000  0.6508444  3
    569    568    565    578     1  0.0000000  0.6508444  3
    569    975    977    979     1  0.0000000  0.0000000  2
    569    975    977    980     1  0.0000000  0.0000000  2
    570    563    564    575     1  0.0000000  0.6508444  3
    570    563    564    576     1  0.0000000  0.6508444  3
    570    563    565    577     1  0.0000000  0.6508444  3
    570    563    565    578     1  0.0000000  0.6508444  3
    570    571    572    587     1  0.0000000  0.0000000  2
    571    570    563    588     1  0.0000000  0.6508444  3
    572    571    570    583     1  0.0000000  0.6508444  3
    572    571    570    584     1  0.0000000  0.6508444  3
    573    567    566    579     1  0.0000000  3.3472000  1
    573    567    566    579     1  0.0000000  0.0000000  2
    573    567    566    579     1  180.0000771  0.3347200  3
    573    567    566    580     1  0.0000000  3.3472000  1
    573    567    566    580     1  0.0000000  0.0000000  2
    573    567    566    580     1  180.0000771  0.3347200  3
    573    567    963    964     1  0.0000000  8.3680000  1
    573    567    963    964     1  180.0000771  10.4600000  2
    574    569    568    581     1  0.0000000  3.3472000  1
    574    569    568    581     1  0.0000000  0.0000000  2
    574    569    568    581     1  180.0000771  0.3347200  3
    574    569    568    582     1  0.0000000  3.3472000  1
    574    569    568    582     1  0.0000000  0.0000000  2
    574    569    568    582     1  180.0000771  0.3347200  3
    574    569    975    976     1  0.0000000  8.3680000  1
    574    569    975    976     1  180.0000771  10.4600000  2
    575    564    563    588     1  0.0000000  0.6508444  3
    575    564    566    579     1  0.0000000  0.6508444  3
    575    564    566    580     1  0.0000000  0.6508444  3
    576    564    563    588     1  0.0000000  0.6508444  3
    576    564    566    579     1  0.0000000  0.6508444  3
    576    564    566    580     1  0.0000000  0.6508444  3
    577    565    563    588     1  0.0000000  0.6508444  3
    577    565    568    581     1  0.0000000  0.6508444  3
    577    565    568    582     1  0.0000000  0.6508444  3
    578    565    563    588     1  0.0000000  0.6508444  3
    578    565    568    581     1  0.0000000  0.6508444  3
    578    565    568    582     1  0.0000000  0.6508444  3
    579    566    567    963     1  180.0000771  0.0000000  2
    580    566    567    963     1  180.0000771  0.0000000  2
    581    568    569    975     1  180.0000771  0.0000000  2
    582    568    569    975     1  180.0000771  0.0000000  2
    583    570    563    588     1  0.0000000  0.6508444  3
    583    570    571    585     1  0.0000000  0.6508444  3
    583    570    571    586     1  0.0000000  0.6508444  3
    584    570    563    588     1  0.0000000  0.6508444  3
    584    570    571    585     1  0.0000000  0.6508444  3
    584    570    571    586     1  0.0000000  0.6508444  3
    585    571    572    587     1  0.0000000  0.0000000  2
    586    571    572    587     1  0.0000000  0.0000000  2
    589    590    592    605     1  0.0000000  0.6508444  3
    589    590    592    606     1  0.0000000  0.6508444  3
    589    591    594    607     1  0.0000000  0.6508444  3
    589    591    594    608     1  0.0000000  0.6508444  3
    589    596    597    611     1  0.0000000  0.6508444  3
    589    596    597    612     1  0.0000000  0.6508444  3
    590    589    591    603     1  0.0000000  0.6508444  3
    590    589    591    604     1  0.0000000  0.6508444  3
    590    589    596    609     1  0.0000000  0.6508444  3
    590    589    596    610     1  0.0000000  0.6508444  3
    591    589    590    601     1  0.0000000  0.6508444  3
    591    589    590    602     1  0.0000000  0.6508444  3
    591    589    596    609     1  0.0000000  0.6508444  3
    591    589    596    610     1  0.0000000  0.6508444  3
    592    590    589    614     1  0.0000000  0.6508444  3
    592    593    987    988     1  180.0000771  10.4600000  2
    593    592    590    601     1  0.0000000  0.6508444  3
    593    592    590    602     1  0.0000000  0.6508444  3
    593    987    989    991     1  0.0000000  0.0000000  2
    593    987    989    992     1  0.0000000  0.0000000  2
    594    591    589    614     1  0.0000000  0.6508444  3
    594    595    999   1000     1  180.0000771  10.4600000  2
    595    594    591    603     1  0.0000000  0.6508444  3
    595    594    591    604     1  0.0000000  0.6508444  3
    595    999   1001   1003     1  0.0000000  0.0000000  2
    595    999   1001   1004     1  0.0000000  0.0000000  2
    596    589    590    601     1  0.0000000  0.6508444  3
    596    589    590    602     1  0.0000000  0.6508444  3
    596    589    591    603     1  0.0000000  0.6508444  3
    596    589    591    604     1  0.0000000  0.6508444  3
    596    597    598    613     1  0.0000000  0.0000000  2
    597    596    589    614     1  0.0000000  0.6508444  3
    598    597    596    609     1  0.0000000  0.6508444  3
    598    597    596    610     1  0.0000000  0.6508444  3
    599    593    592    605     1  0.0000000  3.3472000  1
    599    593    592    605     1  0.0000000  0.0000000  2
    599    593    592    605     1  180.0000771  0.3347200  3
    599    593    592    606     1  0.0000000  3.3472000  1
    599    593    592    606     1  0.0000000  0.0000000  2
    599    593    592    606     1  180.0000771  0.3347200  3
    599    593    987    988     1  0.0000000  8.3680000  1
    599    593    987    988     1  180.0000771  10.4600000  2
    600    595    594    607     1  0.0000000  3.3472000  1
    600    595    594    607     1  0.0000000  0.0000000  2
    600    595    594    607     1  180.0000771  0.3347200  3
    600    595    594    608     1  0.0000000  3.3472000  1
    600    595    594    608     1  0.0000000  0.0000000  2
    600    595    594    608     1  180.0000771  0.3347200  3
    600    595    999   1000     1  0.0000000  8.3680000  1
    600    595    999   1000     1  180.0000771  10.4600000  2
    601    590    589    614     1  0.0000000  0.6508444  3
    601    590    592    605     1  0.0000000  0.6508444  3
    601    590    592    606     1  0.0000000  0.6508444  3
    602    590    589    614     1  0.0000000  0.6508444  3
    602    590    592    605     1  0.0000000  0.6508444  3
    602    590    592    606     1  0.0000000  0.6508444  3
    603    591    589    614     1  0.0000000  0.6508444  3
    603    591    594    607     1  0.0000000  0.6508444  3
    603    591    594    608     1  0.0000000  0.6508444  3
    604    591    589    614     1  0.0000000  0.6508444  3
    604    591    594    607     1  0.0000000  0.6508444  3
    604    591    594    608     1  0.0000000  0.6508444  3
    605    592    593    987     1  180.0000771  0.0000000  2
    606    592    593    987     1  180.0000771  0.0000000  2
    607    594    595    999     1  180.0000771  0.0000000  2
    608    594    595    999     1  180.0000771  0.0000000  2
    609    596    589    614     1  0.0000000  0.6508444  3
    609    596    597    611     1  0.0000000  0.6508444  3
    609    596    597    612     1  0.0000000  0.6508444  3
    610    596    589    614     1  0.0000000  0.6508444  3
    610    596    597    611     1  0.0000000  0.6508444  3
    610    596    597    612     1  0.0000000  0.6508444  3
    611    597    598    613     1  0.0000000  0.0000000  2
    612    597    598    613     1  0.0000000  0.0000000  2
    615    616    618    631     1  0.0000000  0.6508444  3
    615    616    618    632     1  0.0000000  0.6508444  3
    615    617    620    633     1  0.0000000  0.6508444  3
    615    617    620    634     1  0.0000000  0.6508444  3
    615    622    623    637     1  0.0000000  0.6508444  3
    615    622    623    638     1  0.0000000  0.6508444  3
    616    615    617    629     1  0.0000000  0.6508444  3
    616    615    617    630     1  0.0000000  0.6508444  3
    616    615    622    635     1  0.0000000  0.6508444  3
    616    615    622    636     1  0.0000000  0.6508444  3
    617    615    616    627     1  0.0000000  0.6508444  3
    617    615    616    628     1  0.0000000  0.6508444  3
    617    615    622    635     1  0.0000000  0.6508444  3
    617    615    622    636     1  0.0000000  0.6508444  3
    618    616    615    640     1  0.0000000  0.6508444  3
    618    619   1011   1012     1  180.0000771  10.4600000  2
    619    618    616    627     1  0.0000000  0.6508444  3
    619    618    616    628     1  0.0000000  0.6508444  3
    619   1011   1013   1015     1  0.0000000  0.0000000  2
    619   1011   1013   1016     1  0.0000000  0.0000000  2
    620    617    615    640     1  0.0000000  0.6508444  3
    620    621   1023   1024     1  180.0000771  10.4600000  2
    621    620    617    629     1  0.0000000  0.6508444  3
    621    620    617    630     1  0.0000000  0.6508444  3
    621   1023   1025   1027     1  0.0000000  0.0000000  2
    621   1023   1025   1028     1  0.0000000  0.0000000  2
    622    615    616    627     1  0.0000000  0.6508444  3
    622    615    616    628     1  0.0000000  0.6508444  3
    622    615    617    629     1  0.0000000  0.6508444  3
    622    615    617    630     1  0.0000000  0.6508444  3
    622    623    624    639     1  0.0000000  0.0000000  2
    623    622    615    640     1  0.0000000  0.6508444  3
    624    623    622    635     1  0.0000000  0.6508444  3
    624    623    622    636     1  0.0000000  0.6508444  3
    625    619    618    631     1  0.0000000  3.3472000  1
    625    619    618    631     1  0.0000000  0.0000000  2
    625    619    618    631     1  180.0000771  0.3347200  3
    625    619    618    632     1  0.0000000  3.3472000  1
    625    619    618    632     1  0.0000000  0.0000000  2
    625    619    618    632     1  180.0000771  0.3347200  3
    625    619   1011   1012     1  0.0000000  8.3680000  1
    625    619   1011   1012     1  180.0000771  10.4600000  2
    626    621    620    633     1  0.0000000  3.3472000  1
    626    621    620    633     1  0.0000000  0.0000000  2
    626    621    620    633     1  180.0000771  0.3347200  3
    626    621    620    634     1  0.0000000  3.3472000  1
    626    621    620    634     1  0.0000000  0.0000000  2
    626    621    620    634     1  180.0000771  0.3347200  3
    626    621   1023   1024     1  0.0000000  8.3680000  1
    626    621   1023   1024     1  180.0000771  10.4600000  2
    627    616    615    640     1  0.0000000  0.6508444  3
    627    616    618    631     1  0.0000000  0.6508444  3
    627    616    618    632     1  0.0000000  0.6508444  3
    628    616    615    640     1  0.0000000  0.6508444  3
    628    616    618    631     1  0.0000000  0.6508444  3
    628    616    618    632     1  0.0000000  0.6508444  3
    629    617    615    640     1  0.0000000  0.6508444  3
    629    617    620    633     1  0.0000000  0.6508444  3
    629    617    620    634     1  0.0000000  0.6508444  3
    630    617    615    640     1  0.0000000  0.6508444  3
    630    617    620    633     1  0.0000000  0.6508444  3
    630    617    620    634     1  0.0000000  0.6508444  3
    631    618    619   1011     1  180.0000771  0.0000000  2
    632    618    619   1011     1  180.0000771  0.0000000  2
    633    620    621   1023     1  180.0000771  0.0000000  2
    634    620    621   1023     1  180.0000771  0.0000000  2
    635    622    615    640     1  0.0000000  0.6508444  3
    635    622    623    637     1  0.0000000  0.6508444  3
    635    622    623    638     1  0.0000000  0.6508444  3
    636    622    615    640     1  0.0000000  0.6508444  3
    636    622    623    637     1  0.0000000  0.6508444  3
    636    622    623    638     1  0.0000000  0.6508444  3
    637    623    624    639     1  0.0000000  0.0000000  2
    638    623    624    639     1  0.0000000  0.0000000  2
    641    642    644    657     1  0.0000000  0.6508444  3
    641    642    644    658     1  0.0000000  0.6508444  3
    641    643    646    659     1  0.0000000  0.6508444  3
    641    643    646    660     1  0.0000000  0.6508444  3
    641    648    649    663     1  0.0000000  0.6508444  3
    641    648    649    664     1  0.0000000  0.6508444  3
    642    641    643    655     1  0.0000000  0.6508444  3
    642    641    643    656     1  0.0000000  0.6508444  3
    642    641    648    661     1  0.0000000  0.6508444  3
    642    641    648    662     1  0.0000000  0.6508444  3
    643    641    642    653     1  0.0000000  0.6508444  3
    643    641    642    654     1  0.0000000  0.6508444  3
    643    641    648    661     1  0.0000000  0.6508444  3
    643    641    648    662     1  0.0000000  0.6508444  3
    644    642    641    666     1  0.0000000  0.6508444  3
    644    645   1035   1036     1  180.0000771  10.4600000  2
    645    644    642    653     1  0.0000000  0.6508444  3
    645    644    642    654     1  0.0000000  0.6508444  3
    645   1035   1037   1039     1  0.0000000  0.0000000  2
    645   1035   1037   1040     1  0.0000000  0.0000000  2
    646    643    641    666     1  0.0000000  0.6508444  3
    646    647   1047   1048     1  180.0000771  10.4600000  2
    647    646    643    655     1  0.0000000  0.6508444  3
    647    646    643    656     1  0.0000000  0.6508444  3
    647   1047   1049   1051     1  0.0000000  0.0000000  2
    647   1047   1049   1052     1  0.0000000  0.0000000  2
    648    641    642    653     1  0.0000000  0.6508444  3
    648    641    642    654     1  0.0000000  0.6508444  3
    648    641    643    655     1  0.0000000  0.6508444  3
    648    641    643    656     1  0.0000000  0.6508444  3
    648    649    650    665     1  0.0000000  0.0000000  2
    649    648    641    666     1  0.0000000  0.6508444  3
    650    649    648    661     1  0.0000000  0.6508444  3
    650    649    648    662     1  0.0000000  0.6508444  3
    651    645    644    657     1  0.0000000  3.3472000  1
    651    645    644    657     1  0.0000000  0.0000000  2
    651    645    644    657     1  180.0000771  0.3347200  3
    651    645    644    658     1  0.0000000  3.3472000  1
    651    645    644    658     1  0.0000000  0.0000000  2
    651    645    644    658     1  180.0000771  0.3347200  3
    651    645   1035   1036     1  0.0000000  8.3680000  1
    651    645   1035   1036     1  180.0000771  10.4600000  2
    652    647    646    659     1  0.0000000  3.3472000  1
    652    647    646    659     1  0.0000000  0.0000000  2
    652    647    646    659     1  180.0000771  0.3347200  3
    652    647    646    660     1  0.0000000  3.3472000  1
    652    647    646    660     1  0.0000000  0.0000000  2
    652    647    646    660     1  180.0000771  0.3347200  3
    652    647   1047   1048     1  0.0000000  8.3680000  1
    652    647   1047   1048     1  180.0000771  10.4600000  2
    653    642    641    666     1  0.0000000  0.6508444  3
    653    642    644    657     1  0.0000000  0.6508444  3
    653    642    644    658     1  0.0000000  0.6508444  3
    654    642    641    666     1  0.0000000  0.6508444  3
    654    642    644    657     1  0.0000000  0.6508444  3
    654    642    644    658     1  0.0000000  0.6508444  3
    655    643    641    666     1  0.0000000  0.6508444  3
    655    643    646    659     1  0.0000000  0.6508444  3
    655    643    646    660     1  0.0000000  0.6508444  3
    656    643    641    666     1  0.0000000  0.6508444  3
    656    643    646    659     1  0.0000000  0.6508444  3
    656    643    646    660     1  0.0000000  0.6508444  3
    657    644    645   1035     1  180.0000771  0.0000000  2
    658    644    645   1035     1  180.0000771  0.0000000  2
    659    646    647   1047     1  180.0000771  0.0000000  2
    660    646    647   1047     1  180.0000771  0.0000000  2
    661    648    641    666     1  0.0000000  0.6508444  3
    661    648    649    663     1  0.0000000  0.6508444  3
    661    648    649    664     1  0.0000000  0.6508444  3
    662    648    641    666     1  0.0000000  0.6508444  3
    662    648    649    663     1  0.0000000  0.6508444  3
    662    648    649    664     1  0.0000000  0.6508444  3
    663    649    650    665     1  0.0000000  0.0000000  2
    664    649    650    665     1  0.0000000  0.0000000  2
    667    668    670    683     1  0.0000000  0.6508444  3
    667    668    670    684     1  0.0000000  0.6508444  3
    667    669    672    685     1  0.0000000  0.6508444  3
    667    669    672    686     1  0.0000000  0.6508444  3
    667    674    675    689     1  0.0000000  0.6508444  3
    667    674    675    690     1  0.0000000  0.6508444  3
    668    667    669    681     1  0.0000000  0.6508444  3
    668    667    669    682     1  0.0000000  0.6508444  3
    668    667    674    687     1  0.0000000  0.6508444  3
    668    667    674    688     1  0.0000000  0.6508444  3
    669    667    668    679     1  0.0000000  0.6508444  3
    669    667    668    680     1  0.0000000  0.6508444  3
    669    667    674    687     1  0.0000000  0.6508444  3
    669    667    674    688     1  0.0000000  0.6508444  3
    670    668    667    692     1  0.0000000  0.6508444  3
    670    671   1059   1060     1  180.0000771  10.4600000  2
    671    670    668    679     1  0.0000000  0.6508444  3
    671    670    668    680     1  0.0000000  0.6508444  3
    671   1059   1061   1063     1  0.0000000  0.0000000  2
    671   1059   1061   1064     1  0.0000000  0.0000000  2
    672    669    667    692     1  0.0000000  0.6508444  3
    672    673   1071   1072     1  180.0000771  10.4600000  2
    673    672    669    681     1  0.0000000  0.6508444  3
    673    672    669    682     1  0.0000000  0.6508444  3
    673   1071   1073   1075     1  0.0000000  0.0000000  2
    673   1071   1073   1076     1  0.0000000  0.0000000  2
    674    667    668    679     1  0.0000000  0.6508444  3
    674    667    668    680     1  0.0000000  0.6508444  3
    674    667    669    681     1  0.0000000  0.6508444  3
    674    667    669    682     1  0.0000000  0.6508444  3
    674    675    676    691     1  0.0000000  0.0000000  2
    675    674    667    692     1  0.0000000  0.6508444  3
    676    675    674    687     1  0.0000000  0.6508444  3
    676    675    674    688     1  0.0000000  0.6508444  3
    677    671    670    683     1  0.0000000  3.3472000  1
    677    671    670    683     1  0.0000000  0.0000000  2
    677    671    670    683     1  180.0000771  0.3347200  3
    677    671    670    684     1  0.0000000  3.3472000  1
    677    671    670    684     1  0.0000000  0.0000000  2
    677    671    670    684     1  180.0000771  0.3347200  3
    677    671   1059   1060     1  0.0000000  8.3680000  1
    677    671   1059   1060     1  180.0000771  10.4600000  2
    678    673    672    685     1  0.0000000  3.3472000  1
    678    673    672    685     1  0.0000000  0.0000000  2
    678    673    672    685     1  180.0000771  0.3347200  3
    678    673    672    686     1  0.0000000  3.3472000  1
    678    673    672    686     1  0.0000000  0.0000000  2
    678    673    672    686     1  180.0000771  0.3347200  3
    678    673   1071   1072     1  0.0000000  8.3680000  1
    678    673   1071   1072     1  180.0000771  10.4600000  2
    679    668    667    692     1  0.0000000  0.6508444  3
    679    668    670    683     1  0.0000000  0.6508444  3
    679    668    670    684     1  0.0000000  0.6508444  3
    680    668    667    692     1  0.0000000  0.6508444  3
    680    668    670    683     1  0.0000000  0.6508444  3
    680    668    670    684     1  0.0000000  0.6508444  3
    681    669    667    692     1  0.0000000  0.6508444  3
    681    669    672    685     1  0.0000000  0.6508444  3
    681    669    672    686     1  0.0000000  0.6508444  3
    682    669    667    692     1  0.0000000  0.6508444  3
    682    669    672    685     1  0.0000000  0.6508444  3
    682    669    672    686     1  0.0000000  0.6508444  3
    683    670    671   1059     1  180.0000771  0.0000000  2
    684    670    671   1059     1  180.0000771  0.0000000  2
    685    672    673   1071     1  180.0000771  0.0000000  2
    686    672    673   1071     1  180.0000771  0.0000000  2
    687    674    667    692     1  0.0000000  0.6508444  3
    687    674    675    689     1  0.0000000  0.6508444  3
    687    674    675    690     1  0.0000000  0.6508444  3
    688    674    667    692     1  0.0000000  0.6508444  3
    688    674    675    689     1  0.0000000  0.6508444  3
    688    674    675    690     1  0.0000000  0.6508444  3
    689    675    676    691     1  0.0000000  0.0000000  2
    690    675    676    691     1  0.0000000  0.0000000  2
    693    694    696    709     1  0.0000000  0.6508444  3
    693    694    696    710     1  0.0000000  0.6508444  3
    693    695    698    711     1  0.0000000  0.6508444  3
    693    695    698    712     1  0.0000000  0.6508444  3
    693    700    701    715     1  0.0000000  0.6508444  3
    693    700    701    716     1  0.0000000  0.6508444  3
    694    693    695    707     1  0.0000000  0.6508444  3
    694    693    695    708     1  0.0000000  0.6508444  3
    694    693    700    713     1  0.0000000  0.6508444  3
    694    693    700    714     1  0.0000000  0.6508444  3
    695    693    694    705     1  0.0000000  0.6508444  3
    695    693    694    706     1  0.0000000  0.6508444  3
    695    693    700    713     1  0.0000000  0.6508444  3
    695    693    700    714     1  0.0000000  0.6508444  3
    696    694    693    718     1  0.0000000  0.6508444  3
    696    697   1083   1084     1  180.0000771  10.4600000  2
    697    696    694    705     1  0.0000000  0.6508444  3
    697    696    694    706     1  0.0000000  0.6508444  3
    697   1083   1085   1087     1  0.0000000  0.0000000  2
    697   1083   1085   1088     1  0.0000000  0.0000000  2
    698    695    693    718     1  0.0000000  0.6508444  3
    698    699   1095   1096     1  180.0000771  10.4600000  2
    699    698    695    707     1  0.0000000  0.6508444  3
    699    698    695    708     1  0.0000000  0.6508444  3
    699   1095   1097   1099     1  0.0000000  0.0000000  2
    699   1095   1097   1100     1  0.0000000  0.0000000  2
    700    693    694    705     1  0.0000000  0.6508444  3
    700    693    694    706     1  0.0000000  0.6508444  3
    700    693    695    707     1  0.0000000  0.6508444  3
    700    693    695    708     1  0.0000000  0.6508444  3
    700    701    702    717     1  0.0000000  0.0000000  2
    701    700    693    718     1  0.0000000  0.6508444  3
    702    701    700    713     1  0.0000000  0.6508444  3
    702    701    700    714     1  0.0000000  0.6508444  3
    703    697    696    709     1  0.0000000  3.3472000  1
    703    697    696    709     1  0.0000000  0.0000000  2
    703    697    696    709     1  180.0000771  0.3347200  3
    703    697    696    710     1  0.0000000  3.3472000  1
    703    697    696    710     1  0.0000000  0.0000000  2
    703    697    696    710     1  180.0000771  0.3347200  3
    703    697   1083   1084     1  0.0000000  8.3680000  1
    703    697   1083   1084     1  180.0000771  10.4600000  2
    704    699    698    711     1  0.0000000  3.3472000  1
    704    699    698    711     1  0.0000000  0.0000000  2
    704    699    698    711     1  180.0000771  0.3347200  3
    704    699    698    712     1  0.0000000  3.3472000  1
    704    699    698    712     1  0.0000000  0.0000000  2
    704    699    698    712     1  180.0000771  0.3347200  3
    704    699   1095   1096     1  0.0000000  8.3680000  1
    704    699   1095   1096     1  180.0000771  10.4600000  2
    705    694    693    718     1  0.0000000  0.6508444  3
    705    694    696    709     1  0.0000000  0.6508444  3
    705    694    696    710     1  0.0000000  0.6508444  3
    706    694    693    718     1  0.0000000  0.6508444  3
    706    694    696    709     1  0.0000000  0.6508444  3
    706    694    696    710     1  0.0000000  0.6508444  3
    707    695    693    718     1  0.0000000  0.6508444  3
    707    695    698    711     1  0.0000000  0.6508444  3
    707    695    698    712     1  0.0000000  0.6508444  3
    708    695    693    718     1  0.0000000  0.6508444  3
    708    695    698    711     1  0.0000000  0.6508444  3
    708    695    698    712     1  0.0000000  0.6508444  3
    709    696    697   1083     1  180.0000771  0.0000000  2
    710    696    697   1083     1  180.0000771  0.0000000  2
    711    698    699   1095     1  180.0000771  0.0000000  2
    712    698    699   1095     1  180.0000771  0.0000000  2
    713    700    693    718     1  0.0000000  0.6508444  3
    713    700    701    715     1  0.0000000  0.6508444  3
    713    700    701    716     1  0.0000000  0.6508444  3
    714    700    693    718     1  0.0000000  0.6508444  3
    714    700    701    715     1  0.0000000  0.6508444  3
    714    700    701    716     1  0.0000000  0.6508444  3
    715    701    702    717     1  0.0000000  0.0000000  2
    716    701    702    717     1  0.0000000  0.0000000  2
    719    720    722    735     1  0.0000000  0.6508444  3
    719    720    722    736     1  0.0000000  0.6508444  3
    719    721    724    737     1  0.0000000  0.6508444  3
    719    721    724    738     1  0.0000000  0.6508444  3
    719    726    727    741     1  0.0000000  0.6508444  3
    719    726    727    742     1  0.0000000  0.6508444  3
    720    719    721    733     1  0.0000000  0.6508444  3
    720    719    721    734     1  0.0000000  0.6508444  3
    720    719    726    739     1  0.0000000  0.6508444  3
    720    719    726    740     1  0.0000000  0.6508444  3
    721    719    720    731     1  0.0000000  0.6508444  3
    721    719    720    732     1  0.0000000  0.6508444  3
    721    719    726    739     1  0.0000000  0.6508444  3
    721    719    726    740     1  0.0000000  0.6508444  3
    722    720    719    744     1  0.0000000  0.6508444  3
    722    723   1107   1108     1  180.0000771  10.4600000  2
    723    722    720    731     1  0.0000000  0.6508444  3
    723    722    720    732     1  0.0000000  0.6508444  3
    723   1107   1109   1111     1  0.0000000  0.0000000  2
    723   1107   1109   1112     1  0.0000000  0.0000000  2
    724    721    719    744     1  0.0000000  0.6508444  3
    724    725   1119   1120     1  180.0000771  10.4600000  2
    725    724    721    733     1  0.0000000  0.6508444  3
    725    724    721    734     1  0.0000000  0.6508444  3
    725   1119   1121   1123     1  0.0000000  0.0000000  2
    725   1119   1121   1124     1  0.0000000  0.0000000  2
    726    719    720    731     1  0.0000000  0.6508444  3
    726    719    720    732     1  0.0000000  0.6508444  3
    726    719    721    733     1  0.0000000  0.6508444  3
    726    719    721    734     1  0.0000000  0.6508444  3
    726    727    728    743     1  0.0000000  0.0000000  2
    727    726    719    744     1  0.0000000  0.6508444  3
    728    727    726    739     1  0.0000000  0.6508444  3
    728    727    726    740     1  0.0000000  0.6508444  3
    729    723    722    735     1  0.0000000  3.3472000  1
    729    723    722    735     1  0.0000000  0.0000000  2
    729    723    722    735     1  180.0000771  0.3347200  3
    729    723    722    736     1  0.0000000  3.3472000  1
    729    723    722    736     1  0.0000000  0.0000000  2
    729    723    722    736     1  180.0000771  0.3347200  3
    729    723   1107   1108     1  0.0000000  8.3680000  1
    729    723   1107   1108     1  180.0000771  10.4600000  2
    730    725    724    737     1  0.0000000  3.3472000  1
    730    725    724    737     1  0.0000000  0.0000000  2
    730    725    724    737     1  180.0000771  0.3347200  3
    730    725    724    738     1  0.0000000  3.3472000  1
    730    725    724    738     1  0.0000000  0.0000000  2
    730    725    724    738     1  180.0000771  0.3347200  3
    730    725   1119   1120     1  0.0000000  8.3680000  1
    730    725   1119   1120     1  180.0000771  10.4600000  2
    731    720    719    744     1  0.0000000  0.6508444  3
    731    720    722    735     1  0.0000000  0.6508444  3
    731    720    722    736     1  0.0000000  0.6508444  3
    732    720    719    744     1  0.0000000  0.6508444  3
    732    720    722    735     1  0.0000000  0.6508444  3
    732    720    722    736     1  0.0000000  0.6508444  3
    733    721    719    744     1  0.0000000  0.6508444  3
    733    721    724    737     1  0.0000000  0.6508444  3
    733    721    724    738     1  0.0000000  0.6508444  3
    734    721    719    744     1  0.0000000  0.6508444  3
    734    721    724    737     1  0.0000000  0.6508444  3
    734    721    724    738     1  0.0000000  0.6508444  3
    735    722    723   1107     1  180.0000771  0.0000000  2
    736    722    723   1107     1  180.0000771  0.0000000  2
    737    724    725   1119     1  180.0000771  0.0000000  2
    738    724    725   1119     1  180.0000771  0.0000000  2
    739    726    719    744     1  0.0000000  0.6508444  3
    739    726    727    741     1  0.0000000  0.6508444  3
    739    726    727    742     1  0.0000000  0.6508444  3
    740    726    719    744     1  0.0000000  0.6508444  3
    740    726    727    741     1  0.0000000  0.6508444  3
    740    726    727    742     1  0.0000000  0.6508444  3
    741    727    728    743     1  0.0000000  0.0000000  2
    742    727    728    743     1  0.0000000  0.0000000  2
    745    746    748    761     1  0.0000000  0.6508444  3
    745    746    748    762     1  0.0000000  0.6508444  3
    745    747    750    763     1  0.0000000  0.6508444  3
    745    747    750    764     1  0.0000000  0.6508444  3
    745    752    753    767     1  0.0000000  0.6508444  3
    745    752    753    768     1  0.0000000  0.6508444  3
    746    745    747    759     1  0.0000000  0.6508444  3
    746    745    747    760     1  0.0000000  0.6508444  3
    746    745    752    765     1  0.0000000  0.6508444  3
    746    745    752    766     1  0.0000000  0.6508444  3
    747    745    746    757     1  0.0000000  0.6508444  3
    747    745    746    758     1  0.0000000  0.6508444  3
    747    745    752    765     1  0.0000000  0.6508444  3
    747    745    752    766     1  0.0000000  0.6508444  3
    748    746    745    770     1  0.0000000  0.6508444  3
    748    749   1131   1132     1  180.0000771  10.4600000  2
    749    748    746    757     1  0.0000000  0.6508444  3
    749    748    746    758     1  0.0000000  0.6508444  3
    749   1131   1133   1135     1  0.0000000  0.0000000  2
    749   1131   1133   1136     1  0.0000000  0.0000000  2
    750    747    745    770     1  0.0000000  0.6508444  3
    750    751   1143   1144     1  180.0000771  10.4600000  2
    751    750    747    759     1  0.0000000  0.6508444  3
    751    750    747    760     1  0.0000000  0.6508444  3
    751   1143   1145   1147     1  0.0000000  0.0000000  2
    751   1143   1145   1148     1  0.0000000  0.0000000  2
    752    745    746    757     1  0.0000000  0.6508444  3
    752    745    746    758     1  0.0000000  0.6508444  3
    752    745    747    759     1  0.0000000  0.6508444  3
    752    745    747    760     1  0.0000000  0.6508444  3
    752    753    754    769     1  0.0000000  0.0000000  2
    753    752    745    770     1  0.0000000  0.6508444  3
    754    753    752    765     1  0.0000000  0.6508444  3
    754    753    752    766     1  0.0000000  0.6508444  3
    755    749    748    761     1  0.0000000  3.3472000  1
    755    749    748    761     1  0.0000000  0.0000000  2
    755    749    748    761     1  180.0000771  0.3347200  3
    755    749    748    762     1  0.0000000  3.3472000  1
    755    749    748    762     1  0.0000000  0.0000000  2
    755    749    748    762     1  180.0000771  0.3347200  3
    755    749   1131   1132     1  0.0000000  8.3680000  1
    755    749   1131   1132     1  180.0000771  10.4600000  2
    756    751    750    763     1  0.0000000  3.3472000  1
    756    751    750    763     1  0.0000000  0.0000000  2
    756    751    750    763     1  180.0000771  0.3347200  3
    756    751    750    764     1  0.0000000  3.3472000  1
    756    751    750    764     1  0.0000000  0.0000000  2
    756    751    750    764     1  180.0000771  0.3347200  3
    756    751   1143   1144     1  0.0000000  8.3680000  1
    756    751   1143   1144     1  180.0000771  10.4600000  2
    757    746    745    770     1  0.0000000  0.6508444  3
    757    746    748    761     1  0.0000000  0.6508444  3
    757    746    748    762     1  0.0000000  0.6508444  3
    758    746    745    770     1  0.0000000  0.6508444  3
    758    746    748    761     1  0.0000000  0.6508444  3
    758    746    748    762     1  0.0000000  0.6508444  3
    759    747    745    770     1  0.0000000  0.6508444  3
    759    747    750    763     1  0.0000000  0.6508444  3
    759    747    750    764     1  0.0000000  0.6508444  3
    760    747    745    770     1  0.0000000  0.6508444  3
    760    747    750    763     1  0.0000000  0.6508444  3
    760    747    750    764     1  0.0000000  0.6508444  3
    761    748    749   1131     1  180.0000771  0.0000000  2
    762    748    749   1131     1  180.0000771  0.0000000  2
    763    750    751   1143     1  180.0000771  0.0000000  2
    764    750    751   1143     1  180.0000771  0.0000000  2
    765    752    745    770     1  0.0000000  0.6508444  3
    765    752    753    767     1  0.0000000  0.6508444  3
    765    752    753    768     1  0.0000000  0.6508444  3
    766    752    745    770     1  0.0000000  0.6508444  3
    766    752    753    767     1  0.0000000  0.6508444  3
    766    752    753    768     1  0.0000000  0.6508444  3
    767    753    754    769     1  0.0000000  0.0000000  2
    768    753    754    769     1  0.0000000  0.0000000  2
    771    773    774    777     1  0.0000000  0.6508444  3
    771    773    774    778     1  0.0000000  0.6508444  3
    772    771    773    774     1  0.0000000  0.0000000  2
    772    771    773    775     1  0.0000000  0.0000000  2
    772    771    773    776     1  0.0000000  0.0000000  2
    773    774    779    780     1  0.0000000  0.6508444  3
    773    774    779    781     1  0.0000000  0.6508444  3
    773    774    779    782     1  0.0000000  0.6508444  3
    775    773    774    779     1  0.0000000  0.6508444  3
    775    773    774    777     1  0.0000000  0.6508444  3
    775    773    774    778     1  0.0000000  0.6508444  3
    776    773    774    779     1  0.0000000  0.6508444  3
    776    773    774    777     1  0.0000000  0.6508444  3
    776    773    774    778     1  0.0000000  0.6508444  3
    777    774    779    780     1  0.0000000  0.6508444  3
    777    774    779    781     1  0.0000000  0.6508444  3
    777    774    779    782     1  0.0000000  0.6508444  3
    778    774    779    780     1  0.0000000  0.6508444  3
    778    774    779    781     1  0.0000000  0.6508444  3
    778    774    779    782     1  0.0000000  0.6508444  3
    783    785    786    789     1  0.0000000  0.6508444  3
    783    785    786    790     1  0.0000000  0.6508444  3
    784    783    785    786     1  0.0000000  0.0000000  2
    784    783    785    787     1  0.0000000  0.0000000  2
    784    783    785    788     1  0.0000000  0.0000000  2
    785    786    791    792     1  0.0000000  0.6508444  3
    785    786    791    793     1  0.0000000  0.6508444  3
    785    786    791    794     1  0.0000000  0.6508444  3
    787    785    786    791     1  0.0000000  0.6508444  3
    787    785    786    789     1  0.0000000  0.6508444  3
    787    785    786    790     1  0.0000000  0.6508444  3
    788    785    786    791     1  0.0000000  0.6508444  3
    788    785    786    789     1  0.0000000  0.6508444  3
    788    785    786    790     1  0.0000000  0.6508444  3
    789    786    791    792     1  0.0000000  0.6508444  3
    789    786    791    793     1  0.0000000  0.6508444  3
    789    786    791    794     1  0.0000000  0.6508444  3
    790    786    791    792     1  0.0000000  0.6508444  3
    790    786    791    793     1  0.0000000  0.6508444  3
    790    786    791    794     1  0.0000000  0.6508444  3
    795    797    798    801     1  0.0000000  0.6508444  3
    795    797    798    802     1  0.0000000  0.6508444  3
    796    795    797    798     1  0.0000000  0.0000000  2
    796    795    797    799     1  0.0000000  0.0000000  2
    796    795    797    800     1  0.0000000  0.0000000  2
    797    798    803    804     1  0.0000000  0.6508444  3
    797    798    803    805     1  0.0000000  0.6508444  3
    797    798    803    806     1  0.0000000  0.6508444  3
    799    797    798    803     1  0.0000000  0.6508444  3
    799    797    798    801     1  0.0000000  0.6508444  3
    799    797    798    802     1  0.0000000  0.6508444  3
    800    797    798    803     1  0.0000000  0.6508444  3
    800    797    798    801     1  0.0000000  0.6508444  3
    800    797    798    802     1  0.0000000  0.6508444  3
    801    798    803    804     1  0.0000000  0.6508444  3
    801    798    803    805     1  0.0000000  0.6508444  3
    801    798    803    806     1  0.0000000  0.6508444  3
    802    798    803    804     1  0.0000000  0.6508444  3
    802    798    803    805     1  0.0000000  0.6508444  3
    802    798    803    806     1  0.0000000  0.6508444  3
    807    809    810    813     1  0.0000000  0.6508444  3
    807    809    810    814     1  0.0000000  0.6508444  3
    808    807    809    810     1  0.0000000  0.0000000  2
    808    807    809    811     1  0.0000000  0.0000000  2
    808    807    809    812     1  0.0000000  0.0000000  2
    809    810    815    816     1  0.0000000  0.6508444  3
    809    810    815    817     1  0.0000000  0.6508444  3
    809    810    815    818     1  0.0000000  0.6508444  3
    811    809    810    815     1  0.0000000  0.6508444  3
    811    809    810    813     1  0.0000000  0.6508444  3
    811    809    810    814     1  0.0000000  0.6508444  3
    812    809    810    815     1  0.0000000  0.6508444  3
    812    809    810    813     1  0.0000000  0.6508444  3
    812    809    810    814     1  0.0000000  0.6508444  3
    813    810    815    816     1  0.0000000  0.6508444  3
    813    810    815    817     1  0.0000000  0.6508444  3
    813    810    815    818     1  0.0000000  0.6508444  3
    814    810    815    816     1  0.0000000  0.6508444  3
    814    810    815    817     1  0.0000000  0.6508444  3
    814    810    815    818     1  0.0000000  0.6508444  3
    819    821    822    825     1  0.0000000  0.6508444  3
    819    821    822    826     1  0.0000000  0.6508444  3
    820    819    821    822     1  0.0000000  0.0000000  2
    820    819    821    823     1  0.0000000  0.0000000  2
    820    819    821    824     1  0.0000000  0.0000000  2
    821    822    827    828     1  0.0000000  0.6508444  3
    821    822    827    829     1  0.0000000  0.6508444  3
    821    822    827    830     1  0.0000000  0.6508444  3
    823    821    822    827     1  0.0000000  0.6508444  3
    823    821    822    825     1  0.0000000  0.6508444  3
    823    821    822    826     1  0.0000000  0.6508444  3
    824    821    822    827     1  0.0000000  0.6508444  3
    824    821    822    825     1  0.0000000  0.6508444  3
    824    821    822    826     1  0.0000000  0.6508444  3
    825    822    827    828     1  0.0000000  0.6508444  3
    825    822    827    829     1  0.0000000  0.6508444  3
    825    822    827    830     1  0.0000000  0.6508444  3
    826    822    827    828     1  0.0000000  0.6508444  3
    826    822    827    829     1  0.0000000  0.6508444  3
    826    822    827    830     1  0.0000000  0.6508444  3
    831    833    834    837     1  0.0000000  0.6508444  3
    831    833    834    838     1  0.0000000  0.6508444  3
    832    831    833    834     1  0.0000000  0.0000000  2
    832    831    833    835     1  0.0000000  0.0000000  2
    832    831    833    836     1  0.0000000  0.0000000  2
    833    834    839    840     1  0.0000000  0.6508444  3
    833    834    839    841     1  0.0000000  0.6508444  3
    833    834    839    842     1  0.0000000  0.6508444  3
    835    833    834    839     1  0.0000000  0.6508444  3
    835    833    834    837     1  0.0000000  0.6508444  3
    835    833    834    838     1  0.0000000  0.6508444  3
    836    833    834    839     1  0.0000000  0.6508444  3
    836    833    834    837     1  0.0000000  0.6508444  3
    836    833    834    838     1  0.0000000  0.6508444  3
    837    834    839    840     1  0.0000000  0.6508444  3
    837    834    839    841     1  0.0000000  0.6508444  3
    837    834    839    842     1  0.0000000  0.6508444  3
    838    834    839    840     1  0.0000000  0.6508444  3
    838    834    839    841     1  0.0000000  0.6508444  3
    838    834    839    842     1  0.0000000  0.6508444  3
    843    845    846    849     1  0.0000000  0.6508444  3
    843    845    846    850     1  0.0000000  0.6508444  3
    844    843    845    846     1  0.0000000  0.0000000  2
    844    843    845    847     1  0.0000000  0.0000000  2
    844    843    845    848     1  0.0000000  0.0000000  2
    845    846    851    852     1  0.0000000  0.6508444  3
    845    846    851    853     1  0.0000000  0.6508444  3
    845    846    851    854     1  0.0000000  0.6508444  3
    847    845    846    851     1  0.0000000  0.6508444  3
    847    845    846    849     1  0.0000000  0.6508444  3
    847    845    846    850     1  0.0000000  0.6508444  3
    848    845    846    851     1  0.0000000  0.6508444  3
    848    845    846    849     1  0.0000000  0.6508444  3
    848    845    846    850     1  0.0000000  0.6508444  3
    849    846    851    852     1  0.0000000  0.6508444  3
    849    846    851    853     1  0.0000000  0.6508444  3
    849    846    851    854     1  0.0000000  0.6508444  3
    850    846    851    852     1  0.0000000  0.6508444  3
    850    846    851    853     1  0.0000000  0.6508444  3
    850    846    851    854     1  0.0000000  0.6508444  3
    855    857    858    861     1  0.0000000  0.6508444  3
    855    857    858    862     1  0.0000000  0.6508444  3
    856    855    857    858     1  0.0000000  0.0000000  2
    856    855    857    859     1  0.0000000  0.0000000  2
    856    855    857    860     1  0.0000000  0.0000000  2
    857    858    863    864     1  0.0000000  0.6508444  3
    857    858    863    865     1  0.0000000  0.6508444  3
    857    858    863    866     1  0.0000000  0.6508444  3
    859    857    858    863     1  0.0000000  0.6508444  3
    859    857    858    861     1  0.0000000  0.6508444  3
    859    857    858    862     1  0.0000000  0.6508444  3
    860    857    858    863     1  0.0000000  0.6508444  3
    860    857    858    861     1  0.0000000  0.6508444  3
    860    857    858    862     1  0.0000000  0.6508444  3
    861    858    863    864     1  0.0000000  0.6508444  3
    861    858    863    865     1  0.0000000  0.6508444  3
    861    858    863    866     1  0.0000000  0.6508444  3
    862    858    863    864     1  0.0000000  0.6508444  3
    862    858    863    865     1  0.0000000  0.6508444  3
    862    858    863    866     1  0.0000000  0.6508444  3
    867    869    870    873     1  0.0000000  0.6508444  3
    867    869    870    874     1  0.0000000  0.6508444  3
    868    867    869    870     1  0.0000000  0.0000000  2
    868    867    869    871     1  0.0000000  0.0000000  2
    868    867    869    872     1  0.0000000  0.0000000  2
    869    870    875    876     1  0.0000000  0.6508444  3
    869    870    875    877     1  0.0000000  0.6508444  3
    869    870    875    878     1  0.0000000  0.6508444  3
    871    869    870    875     1  0.0000000  0.6508444  3
    871    869    870    873     1  0.0000000  0.6508444  3
    871    869    870    874     1  0.0000000  0.6508444  3
    872    869    870    875     1  0.0000000  0.6508444  3
    872    869    870    873     1  0.0000000  0.6508444  3
    872    869    870    874     1  0.0000000  0.6508444  3
    873    870    875    876     1  0.0000000  0.6508444  3
    873    870    875    877     1  0.0000000  0.6508444  3
    873    870    875    878     1  0.0000000  0.6508444  3
    874    870    875    876     1  0.0000000  0.6508444  3
    874    870    875    877     1  0.0000000  0.6508444  3
    874    870    875    878     1  0.0000000  0.6508444  3
    879    881    882    885     1  0.0000000  0.6508444  3
    879    881    882    886     1  0.0000000  0.6508444  3
    880    879    881    882     1  0.0000000  0.0000000  2
    880    879    881    883     1  0.0000000  0.0000000  2
    880    879    881    884     1  0.0000000  0.0000000  2
    881    882    887    888     1  0.0000000  0.6508444  3
    881    882    887    889     1  0.0000000  0.6508444  3
    881    882    887    890     1  0.0000000  0.6508444  3
    883    881    882    887     1  0.0000000  0.6508444  3
    883    881    882    885     1  0.0000000  0.6508444  3
    883    881    882    886     1  0.0000000  0.6508444  3
    884    881    882    887     1  0.0000000  0.6508444  3
    884    881    882    885     1  0.0000000  0.6508444  3
    884    881    882    886     1  0.0000000  0.6508444  3
    885    882    887    888     1  0.0000000  0.6508444  3
    885    882    887    889     1  0.0000000  0.6508444  3
    885    882    887    890     1  0.0000000  0.6508444  3
    886    882    887    888     1  0.0000000  0.6508444  3
    886    882    887    889     1  0.0000000  0.6508444  3
    886    882    887    890     1  0.0000000  0.6508444  3
    891    893    894    897     1  0.0000000  0.6508444  3
    891    893    894    898     1  0.0000000  0.6508444  3
    892    891    893    894     1  0.0000000  0.0000000  2
    892    891    893    895     1  0.0000000  0.0000000  2
    892    891    893    896     1  0.0000000  0.0000000  2
    893    894    899    900     1  0.0000000  0.6508444  3
    893    894    899    901     1  0.0000000  0.6508444  3
    893    894    899    902     1  0.0000000  0.6508444  3
    895    893    894    899     1  0.0000000  0.6508444  3
    895    893    894    897     1  0.0000000  0.6508444  3
    895    893    894    898     1  0.0000000  0.6508444  3
    896    893    894    899     1  0.0000000  0.6508444  3
    896    893    894    897     1  0.0000000  0.6508444  3
    896    893    894    898     1  0.0000000  0.6508444  3
    897    894    899    900     1  0.0000000  0.6508444  3
    897    894    899    901     1  0.0000000  0.6508444  3
    897    894    899    902     1  0.0000000  0.6508444  3
    898    894    899    900     1  0.0000000  0.6508444  3
    898    894    899    901     1  0.0000000  0.6508444  3
    898    894    899    902     1  0.0000000  0.6508444  3
    903    905    906    909     1  0.0000000  0.6508444  3
    903    905    906    910     1  0.0000000  0.6508444  3
    904    903    905    906     1  0.0000000  0.0000000  2
    904    903    905    907     1  0.0000000  0.0000000  2
    904    903    905    908     1  0.0000000  0.0000000  2
    905    906    911    912     1  0.0000000  0.6508444  3
    905    906    911    913     1  0.0000000  0.6508444  3
    905    906    911    914     1  0.0000000  0.6508444  3
    907    905    906    911     1  0.0000000  0.6508444  3
    907    905    906    909     1  0.0000000  0.6508444  3
    907    905    906    910     1  0.0000000  0.6508444  3
    908    905    906    911     1  0.0000000  0.6508444  3
    908    905    906    909     1  0.0000000  0.6508444  3
    908    905    906    910     1  0.0000000  0.6508444  3
    909    906    911    912     1  0.0000000  0.6508444  3
    909    906    911    913     1  0.0000000  0.6508444  3
    909    906    911    914     1  0.0000000  0.6508444  3
    910    906    911    912     1  0.0000000  0.6508444  3
    910    906    911    913     1  0.0000000  0.6508444  3
    910    906    911    914     1  0.0000000  0.6508444  3
    915    917    918    921     1  0.0000000  0.6508444  3
    915    917    918    922     1  0.0000000  0.6508444  3
    916    915    917    918     1  0.0000000  0.0000000  2
    916    915    917    919     1  0.0000000  0.0000000  2
    916    915    917    920     1  0.0000000  0.0000000  2
    917    918    923    924     1  0.0000000  0.6508444  3
    917    918    923    925     1  0.0000000  0.6508444  3
    917    918    923    926     1  0.0000000  0.6508444  3
    919    917    918    923     1  0.0000000  0.6508444  3
    919    917    918    921     1  0.0000000  0.6508444  3
    919    917    918    922     1  0.0000000  0.6508444  3
    920    917    918    923     1  0.0000000  0.6508444  3
    920    917    918    921     1  0.0000000  0.6508444  3
    920    917    918    922     1  0.0000000  0.6508444  3
    921    918    923    924     1  0.0000000  0.6508444  3
    921    918    923    925     1  0.0000000  0.6508444  3
    921    918    923    926     1  0.0000000  0.6508444  3
    922    918    923    924     1  0.0000000  0.6508444  3
    922    918    923    925     1  0.0000000  0.6508444  3
    922    918    923    926     1  0.0000000  0.6508444  3
    927    929    930    933     1  0.0000000  0.6508444  3
    927    929    930    934     1  0.0000000  0.6508444  3
    928    927    929    930     1  0.0000000  0.0000000  2
    928    927    929    931     1  0.0000000  0.0000000  2
    928    927    929    932     1  0.0000000  0.0000000  2
    929    930    935    936     1  0.0000000  0.6508444  3
    929    930    935    937     1  0.0000000  0.6508444  3
    929    930    935    938     1  0.0000000  0.6508444  3
    931    929    930    935     1  0.0000000  0.6508444  3
    931    929    930    933     1  0.0000000  0.6508444  3
    931    929    930    934     1  0.0000000  0.6508444  3
    932    929    930    935     1  0.0000000  0.6508444  3
    932    929    930    933     1  0.0000000  0.6508444  3
    932    929    930    934     1  0.0000000  0.6508444  3
    933    930    935    936     1  0.0000000  0.6508444  3
    933    930    935    937     1  0.0000000  0.6508444  3
    933    930    935    938     1  0.0000000  0.6508444  3
    934    930    935    936     1  0.0000000  0.6508444  3
    934    930    935    937     1  0.0000000  0.6508444  3
    934    930    935    938     1  0.0000000  0.6508444  3
    939    941    942    945     1  0.0000000  0.6508444  3
    939    941    942    946     1  0.0000000  0.6508444  3
    940    939    941    942     1  0.0000000  0.0000000  2
    940    939    941    943     1  0.0000000  0.0000000  2
    940    939    941    944     1  0.0000000  0.0000000  2
    941    942    947    948     1  0.0000000  0.6508444  3
    941    942    947    949     1  0.0000000  0.6508444  3
    941    942    947    950     1  0.0000000  0.6508444  3
    943    941    942    947     1  0.0000000  0.6508444  3
    943    941    942    945     1  0.0000000  0.6508444  3
    943    941    942    946     1  0.0000000  0.6508444  3
    944    941    942    947     1  0.0000000  0.6508444  3
    944    941    942    945     1  0.0000000  0.6508444  3
    944    941    942    946     1  0.0000000  0.6508444  3
    945    942    947    948     1  0.0000000  0.6508444  3
    945    942    947    949     1  0.0000000  0.6508444  3
    945    942    947    950     1  0.0000000  0.6508444  3
    946    942    947    948     1  0.0000000  0.6508444  3
    946    942    947    949     1  0.0000000  0.6508444  3
    946    942    947    950     1  0.0000000  0.6508444  3
    951    953    954    957     1  0.0000000  0.6508444  3
    951    953    954    958     1  0.0000000  0.6508444  3
    952    951    953    954     1  0.0000000  0.0000000  2
    952    951    953    955     1  0.0000000  0.0000000  2
    952    951    953    956     1  0.0000000  0.0000000  2
    953    954    959    960     1  0.0000000  0.6508444  3
    953    954    959    961     1  0.0000000  0.6508444  3
    953    954    959    962     1  0.0000000  0.6508444  3
    955    953    954    959     1  0.0000000  0.6508444  3
    955    953    954    957     1  0.0000000  0.6508444  3
    955    953    954    958     1  0.0000000  0.6508444  3
    956    953    954    959     1  0.0000000  0.6508444  3
    956    953    954    957     1  0.0000000  0.6508444  3
    956    953    954    958     1  0.0000000  0.6508444  3
    957    954    959    960     1  0.0000000  0.6508444  3
    957    954    959    961     1  0.0000000  0.6508444  3
    957    954    959    962     1  0.0000000  0.6508444  3
    958    954    959    960     1  0.0000000  0.6508444  3
    958    954    959    961     1  0.0000000  0.6508444  3
    958    954    959    962     1  0.0000000  0.6508444  3
    963    965    966    969     1  0.0000000  0.6508444  3
    963    965    966    970     1  0.0000000  0.6508444  3
    964    963    965    966     1  0.0000000  0.0000000  2
    964    963    965    967     1  0.0000000  0.0000000  2
    964    963    965    968     1  0.0000000  0.0000000  2
    965    966    971    972     1  0.0000000  0.6508444  3
    965    966    971    973     1  0.0000000  0.6508444  3
    965    966    971    974     1  0.0000000  0.6508444  3
    967    965    966    971     1  0.0000000  0.6508444  3
    967    965    966    969     1  0.0000000  0.6508444  3
    967    965    966    970     1  0.0000000  0.6508444  3
    968    965    966    971     1  0.0000000  0.6508444  3
    968    965    966    969     1  0.0000000  0.6508444  3
    968    965    966    970     1  0.0000000  0.6508444  3
    969    966    971    972     1  0.0000000  0.6508444  3
    969    966    971    973     1  0.0000000  0.6508444  3
    969    966    971    974     1  0.0000000  0.6508444  3
    970    966    971    972     1  0.0000000  0.6508444  3
    970    966    971    973     1  0.0000000  0.6508444  3
    970    966    971    974     1  0.0000000  0.6508444  3
    975    977    978    981     1  0.0000000  0.6508444  3
    975    977    978    982     1  0.0000000  0.6508444  3
    976    975    977    978     1  0.0000000  0.0000000  2
    976    975    977    979     1  0.0000000  0.0000000  2
    976    975    977    980     1  0.0000000  0.0000000  2
    977    978    983    984     1  0.0000000  0.6508444  3
    977    978    983    985     1  0.0000000  0.6508444  3
    977    978    983    986     1  0.0000000  0.6508444  3
    979    977    978    983     1  0.0000000  0.6508444  3
    979    977    978    981     1  0.0000000  0.6508444  3
    979    977    978    982     1  0.0000000  0.6508444  3
    980    977    978    983     1  0.0000000  0.6508444  3
    980    977    978    981     1  0.0000000  0.6508444  3
    980    977    978    982     1  0.0000000  0.6508444  3
    981    978    983    984     1  0.0000000  0.6508444  3
    981    978    983    985     1  0.0000000  0.6508444  3
    981    978    983    986     1  0.0000000  0.6508444  3
    982    978    983    984     1  0.0000000  0.6508444  3
    982    978    983    985     1  0.0000000  0.6508444  3
    982    978    983    986     1  0.0000000  0.6508444  3
    987    989    990    993     1  0.0000000  0.6508444  3
    987    989    990    994     1  0.0000000  0.6508444  3
    988    987    989    990     1  0.0000000  0.0000000  2
    988    987    989    991     1  0.0000000  0.0000000  2
    988    987    989    992     1  0.0000000  0.0000000  2
    989    990    995    996     1  0.0000000  0.6508444  3
    989    990    995    997     1  0.0000000  0.6508444  3
    989    990    995    998     1  0.0000000  0.6508444  3
    991    989    990    995     1  0.0000000  0.6508444  3
    991    989    990    993     1  0.0000000  0.6508444  3
    991    989    990    994     1  0.0000000  0.6508444  3
    992    989    990    995     1  0.0000000  0.6508444  3
    992    989    990    993     1  0.0000000  0.6508444  3
    992    989    990    994     1  0.0000000  0.6508444  3
    993    990    995    996     1  0.0000000  0.6508444  3
    993    990    995    997     1  0.0000000  0.6508444  3
    993    990    995    998     1  0.0000000  0.6508444  3
    994    990    995    996     1  0.0000000  0.6508444  3
    994    990    995    997     1  0.0000000  0.6508444  3
    994    990    995    998     1  0.0000000  0.6508444  3
    999   1001   1002   1005     1  0.0000000  0.6508444  3
    999   1001   1002   1006     1  0.0000000  0.6508444  3
   1000    999   1001   1002     1  0.0000000  0.0000000  2
   1000    999   1001   1003     1  0.0000000  0.0000000  2
   1000    999   1001   1004     1  0.0000000  0.0000000  2
   1001   1002   1007   1008     1  0.0000000  0.6508444  3
   1001   1002   1007   1009     1  0.0000000  0.6508444  3
   1001   1002   1007   1010     1  0.0000000  0.6508444  3
   1003   1001   1002   1007     1  0.0000000  0.6508444  3
   1003   1001   1002   1005     1  0.0000000  0.6508444  3
   1003   1001   1002   1006     1  0.0000000  0.6508444  3
   1004   1001   1002   1007     1  0.0000000  0.6508444  3
   1004   1001   1002   1005     1  0.0000000  0.6508444  3
   1004   1001   1002   1006     1  0.0000000  0.6508444  3
   1005   1002   1007   1008     1  0.0000000  0.6508444  3
   1005   1002   1007   1009     1  0.0000000  0.6508444  3
   1005   1002   1007   1010     1  0.0000000  0.6508444  3
   1006   1002   1007   1008     1  0.0000000  0.6508444  3
   1006   1002   1007   1009     1  0.0000000  0.6508444  3
   1006   1002   1007   1010     1  0.0000000  0.6508444  3
   1011   1013   1014   1017     1  0.0000000  0.6508444  3
   1011   1013   1014   1018     1  0.0000000  0.6508444  3
   1012   1011   1013   1014     1  0.0000000  0.0000000  2
   1012   1011   1013   1015     1  0.0000000  0.0000000  2
   1012   1011   1013   1016     1  0.0000000  0.0000000  2
   1013   1014   1019   1020     1  0.0000000  0.6508444  3
   1013   1014   1019   1021     1  0.0000000  0.6508444  3
   1013   1014   1019   1022     1  0.0000000  0.6508444  3
   1015   1013   1014   1019     1  0.0000000  0.6508444  3
   1015   1013   1014   1017     1  0.0000000  0.6508444  3
   1015   1013   1014   1018     1  0.0000000  0.6508444  3
   1016   1013   1014   1019     1  0.0000000  0.6508444  3
   1016   1013   1014   1017     1  0.0000000  0.6508444  3
   1016   1013   1014   1018     1  0.0000000  0.6508444  3
   1017   1014   1019   1020     1  0.0000000  0.6508444  3
   1017   1014   1019   1021     1  0.0000000  0.6508444  3
   1017   1014   1019   1022     1  0.0000000  0.6508444  3
   1018   1014   1019   1020     1  0.0000000  0.6508444  3
   1018   1014   1019   1021     1  0.0000000  0.6508444  3
   1018   1014   1019   1022     1  0.0000000  0.6508444  3
   1023   1025   1026   1029     1  0.0000000  0.6508444  3
   1023   1025   1026   1030     1  0.0000000  0.6508444  3
   1024   1023   1025   1026     1  0.0000000  0.0000000  2
   1024   1023   1025   1027     1  0.0000000  0.0000000  2
   1024   1023   1025   1028     1  0.0000000  0.0000000  2
   1025   1026   1031   1032     1  0.0000000  0.6508444  3
   1025   1026   1031   1033     1  0.0000000  0.6508444  3
   1025   1026   1031   1034     1  0.0000000  0.6508444  3
   1027   1025   1026   1031     1  0.0000000  0.6508444  3
   1027   1025   1026   1029     1  0.0000000  0.6508444  3
   1027   1025   1026   1030     1  0.0000000  0.6508444  3
   1028   1025   1026   1031     1  0.0000000  0.6508444  3
   1028   1025   1026   1029     1  0.0000000  0.6508444  3
   1028   1025   1026   1030     1  0.0000000  0.6508444  3
   1029   1026   1031   1032     1  0.0000000  0.6508444  3
   1029   1026   1031   1033     1  0.0000000  0.6508444  3
   1029   1026   1031   1034     1  0.0000000  0.6508444  3
   1030   1026   1031   1032     1  0.0000000  0.6508444  3
   1030   1026   1031   1033     1  0.0000000  0.6508444  3
   1030   1026   1031   1034     1  0.0000000  0.6508444  3
   1035   1037   1038   1041     1  0.0000000  0.6508444  3
   1035   1037   1038   1042     1  0.0000000  0.6508444  3
   1036   1035   1037   1038     1  0.0000000  0.0000000  2
   1036   1035   1037   1039     1  0.0000000  0.0000000  2
   1036   1035   1037   1040     1  0.0000000  0.0000000  2
   1037   1038   1043   1044     1  0.0000000  0.6508444  3
   1037   1038   1043   1045     1  0.0000000  0.6508444  3
   1037   1038   1043   1046     1  0.0000000  0.6508444  3
   1039   1037   1038   1043     1  0.0000000  0.6508444  3
   1039   1037   1038   1041     1  0.0000000  0.6508444  3
   1039   1037   1038   1042     1  0.0000000  0.6508444  3
   1040   1037   1038   1043     1  0.0000000  0.6508444  3
   1040   1037   1038   1041     1  0.0000000  0.6508444  3
   1040   1037   1038   1042     1  0.0000000  0.6508444  3
   1041   1038   1043   1044     1  0.0000000  0.6508444  3
   1041   1038   1043   1045     1  0.0000000  0.6508444  3
   1041   1038   1043   1046     1  0.0000000  0.6508444  3
   1042   1038   1043   1044     1  0.0000000  0.6508444  3
   1042   1038   1043   1045     1  0.0000000  0.6508444  3
   1042   1038   1043   1046     1  0.0000000  0.6508444  3
   1047   1049   1050   1053     1  0.0000000  0.6508444  3
   1047   1049   1050   1054     1  0.0000000  0.6508444  3
   1048   1047   1049   1050     1  0.0000000  0.0000000  2
   1048   1047   1049   1051     1  0.0000000  0.0000000  2
   1048   1047   1049   1052     1  0.0000000  0.0000000  2
   1049   1050   1055   1056     1  0.0000000  0.6508444  3
   1049   1050   1055   1057     1  0.0000000  0.6508444  3
   1049   1050   1055   1058     1  0.0000000  0.6508444  3
   1051   1049   1050   1055     1  0.0000000  0.6508444  3
   1051   1049   1050   1053     1  0.0000000  0.6508444  3
   1051   1049   1050   1054     1  0.0000000  0.6508444  3
   1052   1049   1050   1055     1  0.0000000  0.6508444  3
   1052   1049   1050   1053     1  0.0000000  0.6508444  3
   1052   1049   1050   1054     1  0.0000000  0.6508444  3
   1053   1050   1055   1056     1  0.0000000  0.6508444  3
   1053   1050   1055   1057     1  0.0000000  0.6508444  3
   1053   1050   1055   1058     1  0.0000000  0.6508444  3
   1054   1050   1055   1056     1  0.0000000  0.6508444  3
   1054   1050   1055   1057     1  0.0000000  0.6508444  3
   1054   1050   1055   1058     1  0.0000000  0.6508444  3
   1059   1061   1062   1065     1  0.0000000  0.6508444  3
   1059   1061   1062   1066     1  0.0000000  0.6508444  3
   1060   1059   1061   1062     1  0.0000000  0.0000000  2
   1060   1059   1061   1063     1  0.0000000  0.0000000  2
   1060   1059   1061   1064     1  0.0000000  0.0000000  2
   1061   1062   1067   1068     1  0.0000000  0.6508444  3
   1061   1062   1067   1069     1  0.0000000  0.6508444  3
   1061   1062   1067   1070     1  0.0000000  0.6508444  3
   1063   1061   1062   1067     1  0.0000000  0.6508444  3
   1063   1061   1062   1065     1  0.0000000  0.6508444  3
   1063   1061   1062   1066     1  0.0000000  0.6508444  3
   1064   1061   1062   1067     1  0.0000000  0.6508444  3
   1064   1061   1062   1065     1  0.0000000  0.6508444  3
   1064   1061   1062   1066     1  0.0000000  0.6508444  3
   1065   1062   1067   1068     1  0.0000000  0.6508444  3
   1065   1062   1067   1069     1  0.0000000  0.6508444  3
   1065   1062   1067   1070     1  0.0000000  0.6508444  3
   1066   1062   1067   1068     1  0.0000000  0.6508444  3
   1066   1062   1067   1069     1  0.0000000  0.6508444  3
   1066   1062   1067   1070     1  0.0000000  0.6508444  3
   1071   1073   1074   1077     1  0.0000000  0.6508444  3
   1071   1073   1074   1078     1  0.0000000  0.6508444  3
   1072   1071   1073   1074     1  0.0000000  0.0000000  2
   1072   1071   1073   1075     1  0.0000000  0.0000000  2
   1072   1071   1073   1076     1  0.0000000  0.0000000  2
   1073   1074   1079   1080     1  0.0000000  0.6508444  3
   1073   1074   1079   1081     1  0.0000000  0.6508444  3
   1073   1074   1079   1082     1  0.0000000  0.6508444  3
   1075   1073   1074   1079     1  0.0000000  0.6508444  3
   1075   1073   1074   1077     1  0.0000000  0.6508444  3
   1075   1073   1074   1078     1  0.0000000  0.6508444  3
   1076   1073   1074   1079     1  0.0000000  0.6508444  3
   1076   1073   1074   1077     1  0.0000000  0.6508444  3
   1076   1073   1074   1078     1  0.0000000  0.6508444  3
   1077   1074   1079   1080     1  0.0000000  0.6508444  3
   1077   1074   1079   1081     1  0.0000000  0.6508444  3
   1077   1074   1079   1082     1  0.0000000  0.6508444  3
   1078   1074   1079   1080     1  0.0000000  0.6508444  3
   1078   1074   1079   1081     1  0.0000000  0.6508444  3
   1078   1074   1079   1082     1  0.0000000  0.6508444  3
   1083   1085   1086   1089     1  0.0000000  0.6508444  3
   1083   1085   1086   1090     1  0.0000000  0.6508444  3
   1084   1083   1085   1086     1  0.0000000  0.0000000  2
   1084   1083   1085   1087     1  0.0000000  0.0000000  2
   1084   1083   1085   1088     1  0.0000000  0.0000000  2
   1085   1086   1091   1092     1  0.0000000  0.6508444  3
   1085   1086   1091   1093     1  0.0000000  0.6508444  3
   1085   1086   1091   1094     1  0.0000000  0.6508444  3
   1087   1085   1086   1091     1  0.0000000  0.6508444  3
   1087   1085   1086   1089     1  0.0000000  0.6508444  3
   1087   1085   1086   1090     1  0.0000000  0.6508444  3
   1088   1085   1086   1091     1  0.0000000  0.6508444  3
   1088   1085   1086   1089     1  0.0000000  0.6508444  3
   1088   1085   1086   1090     1  0.0000000  0.6508444  3
   1089   1086   1091   1092     1  0.0000000  0.6508444  3
   1089   1086   1091   1093     1  0.0000000  0.6508444  3
   1089   1086   1091   1094     1  0.0000000  0.6508444  3
   1090   1086   1091   1092     1  0.0000000  0.6508444  3
   1090   1086   1091   1093     1  0.0000000  0.6508444  3
   1090   1086   1091   1094     1  0.0000000  0.6508444  3
   1095   1097   1098   1101     1  0.0000000  0.6508444  3
   1095   1097   1098   1102     1  0.0000000  0.6508444  3
   1096   1095   1097   1098     1  0.0000000  0.0000000  2
   1096   1095   1097   1099     1  0.0000000  0.0000000  2
   1096   1095   1097   1100     1  0.0000000  0.0000000  2
   1097   1098   1103   1104     1  0.0000000  0.6508444  3
   1097   1098   1103   1105     1  0.0000000  0.6508444  3
   1097   1098   1103   1106     1  0.0000000  0.6508444  3
   1099   1097   1098   1103     1  0.0000000  0.6508444  3
   1099   1097   1098   1101     1  0.0000000  0.6508444  3
   1099   1097   1098   1102     1  0.0000000  0.6508444  3
   1100   1097   1098   1103     1  0.0000000  0.6508444  3
   1100   1097   1098   1101     1  0.0000000  0.6508444  3
   1100   1097   1098   1102     1  0.0000000  0.6508444  3
   1101   1098   1103   1104     1  0.0000000  0.6508444  3
   1101   1098   1103   1105     1  0.0000000  0.6508444  3
   1101   1098   1103   1106     1  0.0000000  0.6508444  3
   1102   1098   1103   1104     1  0.0000000  0.6508444  3
   1102   1098   1103   1105     1  0.0000000  0.6508444  3
   1102   1098   1103   1106     1  0.0000000  0.6508444  3
   1107   1109   1110   1113     1  0.0000000  0.6508444  3
   1107   1109   1110   1114     1  0.0000000  0.6508444  3
   1108   1107   1109   1110     1  0.0000000  0.0000000  2
   1108   1107   1109   1111     1  0.0000000  0.0000000  2
   1108   1107   1109   1112     1  0.0000000  0.0000000  2
   1109   1110   1115   1116     1  0.0000000  0.6508444  3
   1109   1110   1115   1117     1  0.0000000  0.6508444  3
   1109   1110   1115   1118     1  0.0000000  0.6508444  3
   1111   1109   1110   1115     1  0.0000000  0.6508444  3
   1111   1109   1110   1113     1  0.0000000  0.6508444  3
   1111   1109   1110   1114     1  0.0000000  0.6508444  3
   1112   1109   1110   1115     1  0.0000000  0.6508444  3
   1112   1109   1110   1113     1  0.0000000  0.6508444  3
   1112   1109   1110   1114     1  0.0000000  0.6508444  3
   1113   1110   1115   1116     1  0.0000000  0.6508444  3
   1113   1110   1115   1117     1  0.0000000  0.6508444  3
   1113   1110   1115   1118     1  0.0000000  0.6508444  3
   1114   1110   1115   1116     1  0.0000000  0.6508444  3
   1114   1110   1115   1117     1  0.0000000  0.6508444  3
   1114   1110   1115   1118     1  0.0000000  0.6508444  3
   1119   1121   1122   1125     1  0.0000000  0.6508444  3
   1119   1121   1122   1126     1  0.0000000  0.6508444  3
   1120   1119   1121   1122     1  0.0000000  0.0000000  2
   1120   1119   1121   1123     1  0.0000000  0.0000000  2
   1120   1119   1121   1124     1  0.0000000  0.0000000  2
   1121   1122   1127   1128     1  0.0000000  0.6508444  3
   1121   1122   1127   1129     1  0.0000000  0.6508444  3
   1121   1122   1127   1130     1  0.0000000  0.6508444  3
   1123   1121   1122   1127     1  0.0000000  0.6508444  3
   1123   1121   1122   1125     1  0.0000000  0.6508444  3
   1123   1121   1122   1126     1  0.0000000  0.6508444  3
   1124   1121   1122   1127     1  0.0000000  0.6508444  3
   1124   1121   1122   1125     1  0.0000000  0.6508444  3
   1124   1121   1122   1126     1  0.0000000  0.6508444  3
   1125   1122   1127   1128     1  0.0000000  0.6508444  3
   1125   1122   1127   1129     1  0.0000000  0.6508444  3
   1125   1122   1127   1130     1  0.0000000  0.6508444  3
   1126   1122   1127   1128     1  0.0000000  0.6508444  3
   1126   1122   1127   1129     1  0.0000000  0.6508444  3
   1126   1122   1127   1130     1  0.0000000  0.6508444  3
   1131   1133   1134   1137     1  0.0000000  0.6508444  3
   1131   1133   1134   1138     1  0.0000000  0.6508444  3
   1132   1131   1133   1134     1  0.0000000  0.0000000  2
   1132   1131   1133   1135     1  0.0000000  0.0000000  2
   1132   1131   1133   1136     1  0.0000000  0.0000000  2
   1133   1134   1139   1140     1  0.0000000  0.6508444  3
   1133   1134   1139   1141     1  0.0000000  0.6508444  3
   1133   1134   1139   1142     1  0.0000000  0.6508444  3
   1135   1133   1134   1139     1  0.0000000  0.6508444  3
   1135   1133   1134   1137     1  0.0000000  0.6508444  3
   1135   1133   1134   1138     1  0.0000000  0.6508444  3
   1136   1133   1134   1139     1  0.0000000  0.6508444  3
   1136   1133   1134   1137     1  0.0000000  0.6508444  3
   1136   1133   1134   1138     1  0.0000000  0.6508444  3
   1137   1134   1139   1140     1  0.0000000  0.6508444  3
   1137   1134   1139   1141     1  0.0000000  0.6508444  3
   1137   1134   1139   1142     1  0.0000000  0.6508444  3
   1138   1134   1139   1140     1  0.0000000  0.6508444  3
   1138   1134   1139   1141     1  0.0000000  0.6508444  3
   1138   1134   1139   1142     1  0.0000000  0.6508444  3
   1143   1145   1146   1149     1  0.0000000  0.6508444  3
   1143   1145   1146   1150     1  0.0000000  0.6508444  3
   1144   1143   1145   1146     1  0.0000000  0.0000000  2
   1144   1143   1145   1147     1  0.0000000  0.0000000  2
   1144   1143   1145   1148     1  0.0000000  0.0000000  2
   1145   1146   1151   1152     1  0.0000000  0.6508444  3
   1145   1146   1151   1153     1  0.0000000  0.6508444  3
   1145   1146   1151   1154     1  0.0000000  0.6508444  3
   1147   1145   1146   1151     1  0.0000000  0.6508444  3
   1147   1145   1146   1149     1  0.0000000  0.6508444  3
   1147   1145   1146   1150     1  0.0000000  0.6508444  3
   1148   1145   1146   1151     1  0.0000000  0.6508444  3
   1148   1145   1146   1149     1  0.0000000  0.6508444  3
   1148   1145   1146   1150     1  0.0000000  0.6508444  3
   1149   1146   1151   1152     1  0.0000000  0.6508444  3
   1149   1146   1151   1153     1  0.0000000  0.6508444  3
   1149   1146   1151   1154     1  0.0000000  0.6508444  3
   1150   1146   1151   1152     1  0.0000000  0.6508444  3
   1150   1146   1151   1153     1  0.0000000  0.6508444  3
   1150   1146   1151   1154     1  0.0000000  0.6508444  3
     10     51     52     67     4  180.0000771  4.6024000  2
     12     77     78     93     4  180.0000771  4.6024000  2
     14    103    104    119     4  180.0000771  4.6024000  2
     16    129    130    145     4  180.0000771  4.6024000  2
     47    155    156    171     4  180.0000771  4.6024000  2
     49    181    182    197     4  180.0000771  4.6024000  2
     73    207    208    223     4  180.0000771  4.6024000  2
     75    233    234    249     4  180.0000771  4.6024000  2
     99    259    260    275     4  180.0000771  4.6024000  2
    101    285    286    301     4  180.0000771  4.6024000  2
    125    311    312    327     4  180.0000771  4.6024000  2
    127    337    338    353     4  180.0000771  4.6024000  2
    151    363    364    379     4  180.0000771  4.6024000  2
    153    389    390    405     4  180.0000771  4.6024000  2
    177    415    416    431     4  180.0000771  4.6024000  2
    179    441    442    457     4  180.0000771  4.6024000  2
    203    467    468    483     4  180.0000771  4.6024000  2
    205    493    494    509     4  180.0000771  4.6024000  2
    229    519    520    535     4  180.0000771  4.6024000  2
    231    545    546    561     4  180.0000771  4.6024000  2
    255    571    572    587     4  180.0000771  4.6024000  2
    257    597    598    613     4  180.0000771  4.6024000  2
    281    623    624    639     4  180.0000771  4.6024000  2
    283    649    650    665     4  180.0000771  4.6024000  2
    307    675    676    691     4  180.0000771  4.6024000  2
    309    701    702    717     4  180.0000771  4.6024000  2
    333    727    728    743     4  180.0000771  4.6024000  2
    335    753    754    769     4  180.0000771  4.6024000  2
    359    773    771    772     4  180.0000771  4.6024000  2
    361    785    783    784     4  180.0000771  4.6024000  2
    385    797    795    796     4  180.0000771  4.6024000  2
    387    809    807    808     4  180.0000771  4.6024000  2
    411    821    819    820     4  180.0000771  4.6024000  2
    413    833    831    832     4  180.0000771  4.6024000  2
    437    845    843    844     4  180.0000771  4.6024000  2
    439    857    855    856     4  180.0000771  4.6024000  2
    463    869    867    868     4  180.0000771  4.6024000  2
    465    881    879    880     4  180.0000771  4.6024000  2
    489    893    891    892     4  180.0000771  4.6024000  2
    491    905    903    904     4  180.0000771  4.6024000  2
    515    917    915    916     4  180.0000771  4.6024000  2
    517    929    927    928     4  180.0000771  4.6024000  2
    541    941    939    940     4  180.0000771  4.6024000  2
    543    953    951    952     4  180.0000771  4.6024000  2
    567    965    963    964     4  180.0000771  4.6024000  2
    569    977    975    976     4  180.0000771  4.6024000  2
    593    989    987    988     4  180.0000771  4.6024000  2
    595   1001    999   1000     4  180.0000771  4.6024000  2
    619   1013   1011   1012     4  180.0000771  4.6024000  2
    621   1025   1023   1024     4  180.0000771  4.6024000  2
    645   1037   1035   1036     4  180.0000771  4.6024000  2
    647   1049   1047   1048     4  180.0000771  4.6024000  2
    671   1061   1059   1060     4  180.0000771  4.6024000  2
    673   1073   1071   1072     4  180.0000771  4.6024000  2
    697   1085   1083   1084     4  180.0000771  4.6024000  2
    699   1097   1095   1096     4  180.0000771  4.6024000  2
    723   1109   1107   1108     4  180.0000771  4.6024000  2
    725   1121   1119   1120     4  180.0000771  4.6024000  2
    749   1133   1131   1132     4  180.0000771  4.6024000  2
    751   1145   1143   1144     4  180.0000771  4.6024000  2

;[ system ]
;; Name
;Generic title
;
;[ molecules ]
;; Compound       #mols
;system1              1
