G3DP-PAMAM in water
39999
    1aaa     N1    1   6.424   5.425   4.435  0.2079  0.9011 -0.5103
    1aaa     C1    2   6.453   5.570   4.426 -0.0477  0.2681  0.6346
    1aaa     C2    3   6.584   5.621   4.496 -0.3315  0.2396 -0.5534
    1aaa     N2    4   6.631   5.757   4.459 -0.0701 -0.1442 -0.4659
    1aaa     C3    5   6.784   5.773   4.475  0.1897 -0.4374  0.3730
    1aaa     C4    6   6.557   5.865   4.540  0.2122  0.0796  0.0820
    1aaa     C5    7   6.393   5.364   4.304  0.3944 -0.0391  0.0727
    1aaa     C6    8   6.306   5.407   4.536 -0.3895  0.3674 -0.0205
    1aaa     C7    9   6.575   6.010   4.491 -0.8498  0.5225 -0.2368
    1aaa     C8   10   6.502   6.098   4.589  0.1105  0.0897 -0.1097
    1aaa     C9   11   6.859   5.723   4.601 -0.3622  0.0847  0.1786
    1aaa    C10   12   7.011   5.746   4.600  0.0192 -0.0129  0.1927
    1aaa    C11   13   6.509   5.376   4.198  0.1859 -0.2142 -0.5175
    1aaa    C12   14   6.516   5.263   4.106 -0.0825  0.6186  0.1007
    1aaa    C13   15   6.277   5.258   4.570  0.4052 -0.4847 -0.1470
    1aaa    C14   16   6.181   5.242   4.692  0.1964  0.1805  0.0074
    1aaa     O1   17   7.065   5.849   4.574 -0.4218  0.0189 -0.0334
    1aaa     O2   18   6.396   6.070   4.637 -0.0650  0.1339 -0.6635
    1aaa     O3   19   6.198   5.315   4.792  0.6779  0.6735 -0.1961
    1aaa     O4   20   6.413   5.222   4.053 -0.8940  0.2155  0.2182
    1aaa     H1   21   6.370   5.628   4.467 -0.5227  1.0952 -1.3616
    1aaa     H2   22   6.451   5.595   4.320  1.0549  0.2723  0.6007
    1aaa     H3   23   6.654   5.541   4.472 -0.2414 -0.3253  1.3929
    1aaa     H4   24   6.562   5.615   4.603 -1.0060 -2.0654 -0.7701
    1aaa     H5   25   6.791   5.879   4.452 -1.8960 -0.3544 -0.1453
    1aaa     H6   26   6.806   5.724   4.380 -1.1924  0.6343 -0.5397
    1aaa     H7   27   6.453   5.832   4.543  0.0041  0.7710  1.3942
    1aaa     H8   28   6.595   5.859   4.643 -1.1987  0.0220  0.6169
    1aaa     H9   29   6.369   5.260   4.324 -1.0360  0.8225  3.5004
    1aaa    H10   30   6.303   5.402   4.256 -0.1722 -1.6067 -0.1614
    1aaa    H11   31   6.343   5.454   4.627  1.2766  0.6342 -0.8088
    1aaa    H12   32   6.218   5.451   4.489  0.0244  2.0755  0.7488
    1aaa    H13   33   6.679   6.030   4.464 -0.7424 -0.2029 -0.3814
    1aaa    H14   34   6.514   6.011   4.400  0.9309  1.5242 -1.4811
    1aaa    H15   35   6.845   5.615   4.612 -0.5332 -0.0489 -1.1283
    1aaa    H16   36   6.805   5.758   4.690 -2.3408 -0.6451 -0.6652
    1aaa    H17   37   6.501   5.472   4.146 -0.1720  0.6054  0.9660
    1aaa    H18   38   6.601   5.378   4.258 -0.0926  1.2419 -0.0855
    1aaa    H19   39   6.238   5.210   4.480  0.4093  1.4647 -1.2597
    1aaa    H20   40   6.370   5.204   4.589 -0.3293 -1.5530  0.4864
    1aaa    H37   41   6.497   5.368   4.479 -2.6488 -0.3821  3.1224
    1aaa    H38   42   6.604   5.775   4.361 -0.9547  0.0565 -0.1971
    2bbb     N1   43   6.550   6.535   4.843  0.2537 -0.7068 -0.0477
    2bbb     C1   44   6.413   6.599   4.843 -0.6936 -0.3986  0.1912
    2bbb     C2   45   6.656   6.650   4.847  0.0025 -0.8258 -0.2247
    2bbb     C3   46   6.385   6.702   4.950 -0.3768 -0.1231  0.3248
    2bbb     C4   47   6.244   6.754   4.933  0.3612  0.5079  0.8135
    2bbb     C5   48   6.675   6.737   4.714  0.6507 -1.2532 -0.0263
    2bbb     C6   49   6.776   6.854   4.727  0.3609 -0.7286 -0.3804
    2bbb     C7   50   6.575   6.441   4.727  0.6433 -0.1890  0.3001
    2bbb     C8   51   6.528   6.297   4.743 -0.4113 -0.7642  0.3107
    2bbb     N2   52   6.565   6.211   4.624 -0.2890 -0.7260  0.1044
    2bbb     O1   53   6.168   6.731   4.835 -0.4451 -0.5083 -0.2643
    2bbb     O2   54   6.876   6.847   4.800 -0.3527 -0.1619  0.3793
    2bbb     H1   55   6.406   6.635   4.740 -0.4179  0.0869  0.3428
    2bbb     H2   56   6.337   6.520   4.845 -1.2373  0.1335  1.0535
    2bbb     H3   57   6.754   6.605   4.861 -0.3107 -1.4396  0.0046
    2bbb     H4   58   6.636   6.715   4.932  1.0063 -1.2324  0.3414
    2bbb     H5   59   6.402   6.653   5.046  1.1209 -0.9422 -0.3153
    2bbb     H6   60   6.456   6.786   4.951 -0.2602 -0.1921 -0.8045
    2bbb     H7   61   6.576   6.781   4.695  1.6002  0.5289 -1.1166
    2bbb     H8   62   6.702   6.671   4.631 -0.6263 -0.3580 -1.2101
    2bbb     H9   63   6.682   6.435   4.704  0.5557 -1.3794  0.1221
    2bbb    H10   64   6.518   6.487   4.646  0.8915  1.3519  0.9692
    2bbb    H11   65   6.418   6.291   4.748 -0.5698 -2.1985 -2.7129
    2bbb    H12   66   6.561   6.265   4.842 -0.4440 -2.5368 -0.2125
    2bbb    H13   67   6.654   6.229   4.578 -0.2266  1.8940  1.0491
    2bbb    H25   68   6.560   6.484   4.931 -0.5954 -0.3242  0.2757
    3bbb     N1   69   7.381   5.557   4.877 -0.3789 -0.0410 -0.3905
    3bbb     C1   70   7.466   5.432   4.919  0.3815  0.0472  0.1084
    3bbb     C2   71   7.323   5.615   5.008  0.5222  0.6734 -0.1865
    3bbb     C3   72   7.569   5.378   4.810 -0.0356 -0.3203  0.8501
    3bbb     C4   73   7.652   5.493   4.736  0.3850  0.0531 -0.4873
    3bbb     C5   74   7.265   5.515   5.113 -0.2418 -0.2486 -0.2252
    3bbb     C6   75   7.209   5.571   5.243  0.1275 -0.7139 -0.7418
    3bbb     C7   76   7.277   5.533   4.766  0.8018  0.6755  0.0298
    3bbb     C8   77   7.225   5.658   4.711  0.2987  0.0155  0.0755
    3bbb     N2   78   7.092   5.645   4.647  0.8613  0.1789 -0.4204
    3bbb     O1   79   7.663   5.598   4.796 -0.4251  0.0601  0.2368
    3bbb     O2   80   7.137   5.671   5.242 -0.1500 -0.3477  0.1197
    3bbb     H1   81   7.515   5.472   5.007  0.5074  0.7611 -0.2780
    3bbb     H2   82   7.400   5.348   4.943 -0.0332 -0.2373 -1.8622
    3bbb     H3   83   7.254   5.698   4.991  0.4599  0.3701 -1.5303
    3bbb     H4   84   7.408   5.661   5.058  1.2923 -1.1955  0.3043
    3bbb     H5   85   7.650   5.316   4.851  0.6691 -1.0653 -1.5161
    3bbb     H6   86   7.527   5.314   4.731 -0.6186  1.0863 -0.0019
    3bbb     H7   87   7.337   5.434   5.133  1.1370  1.0453  0.2406
    3bbb     H8   88   7.176   5.465   5.073 -0.7037  0.7559 -0.4721
    3bbb     H9   89   7.201   5.468   4.811 -0.0631 -0.0839 -2.3732
    3bbb    H10   90   7.317   5.476   4.683  0.8939  0.7750  0.0062
    3bbb    H11   91   7.294   5.691   4.633  1.7938  0.2924  1.4598
    3bbb    H12   92   7.225   5.736   4.789  2.3757  0.1363  0.0033
    3bbb    H13   93   7.042   5.557   4.648  1.8620 -0.4057 -0.8110
    3bbb    H25   94   7.449   5.628   4.847 -0.7822  1.5436  2.1195
    4bbb     N1   95   6.853   4.930   3.918 -0.3602  0.1466  0.2740
    4bbb     C1   96   6.986   4.888   3.978  0.2141  0.6656  0.4358
    4bbb     C2   97   6.854   4.955   3.765 -0.0983  0.0691  0.3372
    4bbb     C3   98   7.046   4.758   3.921  1.3255  0.1965  0.2441
    4bbb     C4   99   6.968   4.639   3.959  0.0339 -0.0192  0.3799
    4bbb     C5  100   6.917   5.088   3.708  0.1690 -1.3168  0.1965
    4bbb     C6  101   7.070   5.085   3.711  0.2714  0.0422  0.1710
    4bbb     C7  102   6.819   5.055   3.995  0.2121 -0.1520  0.3416
    4bbb     C8  103   6.673   5.113   3.971  0.5668  0.1492  0.3503
    4bbb     N2  104   6.643   5.215   4.074 -0.3228 -0.9114 -0.6002
    4bbb     O1  105   6.882   4.645   4.048 -0.2037  0.2886 -0.0849
    4bbb     O2  106   7.141   5.129   3.804  0.0986 -0.4096  0.3706
    4bbb     H1  107   7.052   4.974   3.966 -1.1003  1.9964  2.1676
    4bbb     H2  108   6.964   4.879   4.084 -1.6332  1.2470  0.1251
    4bbb     H3  109   6.752   4.956   3.726  0.0631  0.3302 -0.0889
    4bbb     H4  110   6.903   4.870   3.718 -0.9163 -0.2954  0.1226
    4bbb     H5  111   7.051   4.762   3.811 -3.4007 -1.0052 -0.2003
    4bbb     H6  112   7.151   4.752   3.954  1.7375 -2.1961 -1.2109
    4bbb     H7  113   6.892   5.182   3.759 -1.1214 -2.1430  1.1671
    4bbb     H8  114   6.880   5.109   3.608 -1.2640  0.3141  1.0275
    4bbb     H9  115   6.890   5.136   3.981 -1.3370  1.2022  0.0371
    4bbb    H10  116   6.823   5.011   4.095  2.3188  1.0038  0.8223
    4bbb    H11  117   6.600   5.032   3.977 -0.1685  0.8380  0.8119
    4bbb    H12  118   6.657   5.165   3.876  1.3445 -2.5451 -1.3529
    4bbb    H13  119   6.727   5.258   4.112 -0.9952  0.0430 -0.1428
    4bbb    H25  120   6.790   4.852   3.942 -0.7484  0.4594  0.2982
    5bbb     N1  121   5.748   5.013   4.823  0.1561 -0.2053 -0.1753
    5bbb     C1  122   5.785   4.862   4.851 -0.1961  0.3694 -0.2549
    5bbb     C2  123   5.610   5.011   4.758 -0.1613 -0.2371 -0.0992
    5bbb     C3  124   5.698   4.805   4.967  1.2854 -0.5123  0.0257
    5bbb     C4  125   5.730   4.873   5.099 -0.1409  0.9655  0.2609
    5bbb     C5  126   5.536   5.139   4.797 -0.2853 -0.1601 -0.2180
    5bbb     C6  127   5.403   5.144   4.723  0.1306 -0.0844 -0.6687
    5bbb     C7  128   5.842   5.075   4.727  0.8550 -0.3673 -0.1041
    5bbb     C8  129   5.978   5.121   4.781 -0.3047 -0.2756 -0.3967
    5bbb     N2  130   6.083   5.146   4.684  0.1560  0.0857 -0.1843
    5bbb     O1  131   5.832   4.936   5.126 -0.1173 -0.5012  0.1932
    5bbb     O2  132   5.309   5.065   4.753  0.2565 -0.6311 -0.4158
    5bbb     H1  133   5.771   4.801   4.762 -0.9717  1.1606 -0.6865
    5bbb     H2  134   5.891   4.864   4.876 -0.2077 -0.3431 -0.0950
    5bbb     H3  135   5.556   4.922   4.790 -1.2827  0.2497 -0.6028
    5bbb     H4  136   5.625   5.004   4.650 -2.0518  0.0514 -0.4150
    5bbb     H5  137   5.591   4.805   4.942  1.0362  2.3141  0.7023
    5bbb     H6  138   5.726   4.703   4.995  0.1055 -0.1371  2.9827
    5bbb     H7  139   5.606   5.221   4.774  0.7329 -0.4403  1.7025
    5bbb     H8  140   5.519   5.157   4.904  0.5877  1.9288 -0.3720
    5bbb     H9  141   5.792   5.165   4.691 -1.2333 -1.3062  0.3102
    5bbb    H10  142   5.857   5.002   4.647  0.6622  1.5558 -1.9962
    5bbb    H11  143   6.023   5.047   4.849  1.2065  1.7082  0.8882
    5bbb    H12  144   5.965   5.214   4.839 -2.9646 -0.7934 -0.0091
    5bbb    H13  145   6.072   5.101   4.594 -0.6657 -2.5553  1.1292
    5bbb    H25  146   5.742   5.066   4.911 -0.1079 -0.2181 -0.1829
    6bbb     N1  147   6.068   6.765   5.325  0.0620  0.5865  0.1909
    6bbb     C1  148   6.022   6.654   5.426  1.0533  0.2992 -0.0880
    6bbb     C2  149   6.025   6.898   5.390 -0.6573  0.1557 -0.5002
    6bbb     C3  150   6.097   6.651   5.563  0.0382  0.5466 -0.1583
    6bbb     C4  151   6.080   6.521   5.649 -0.2252  0.6776 -0.0948
    6bbb     C5  152   5.878   6.906   5.437  0.2723 -0.1453 -0.0570
    6bbb     C6  153   5.838   7.048   5.475  0.2813  0.7722 -0.1223
    6bbb     C7  154   6.005   6.758   5.186  0.4503 -0.0482  0.2216
    6bbb     C8  155   6.051   6.848   5.062 -0.2556  0.4631 -0.2777
    6bbb     N2  156   6.200   6.828   5.039  0.4795  0.6776 -0.3205
    6bbb     O1  157   6.045   6.415   5.595  0.7571 -0.5125 -0.0544
    6bbb     O2  158   5.913   7.128   5.524  0.3659  0.1343 -0.4663
    6bbb     H1  159   5.916   6.657   5.454  1.4928 -3.6056  2.8490
    6bbb     H2  160   6.035   6.560   5.371 -0.9091  1.0489 -1.9852
    6bbb     H3  161   6.046   6.980   5.322 -0.8555 -0.0557 -0.8142
    6bbb     H4  162   6.081   6.910   5.483 -0.5076 -0.1020 -0.5559
    6bbb     H5  163   6.204   6.665   5.544  0.4154  0.2356  1.5561
    6bbb     H6  164   6.054   6.730   5.626  0.3727 -0.4554  1.3930
    6bbb     H7  165   5.861   6.845   5.527  3.3824  0.4625  1.0637
    6bbb     H8  166   5.815   6.876   5.352 -0.6781 -0.9504  0.8974
    6bbb     H9  167   5.897   6.768   5.197  0.3356 -0.6727 -0.2468
    6bbb    H10  168   6.008   6.655   5.150 -0.0816  0.5488 -1.6464
    6bbb    H11  169   6.028   6.954   5.075 -0.8552  0.0872  2.3249
    6bbb    H12  170   5.998   6.816   4.971  0.9329 -1.9153 -0.2267
    6bbb    H13  171   6.266   6.859   5.109 -0.6897  1.6003  0.4135
    6bbb    H25  172   6.170   6.756   5.313 -0.1401 -0.3311 -0.9402
    7bbb     N1  173   6.822   7.332   4.576 -0.4897  0.6456  0.1510
    7bbb     C1  174   6.897   7.375   4.707 -0.6535  0.4516  0.1958
    7bbb     C2  175   6.724   7.448   4.543  0.2581 -0.6505  0.0161
    7bbb     C3  176   7.049   7.376   4.690 -0.1570  0.1098 -0.0714
    7bbb     C4  177   7.133   7.434   4.802 -0.3918  0.2000  0.4302
    7bbb     C5  178   6.803   7.560   4.471  0.1941  0.6528  0.9470
    7bbb     C6  179   6.700   7.659   4.407  0.5178  0.3229  0.2890
    7bbb     C7  180   6.746   7.198   4.601  0.0430  0.4689  0.1190
    7bbb     C8  181   6.834   7.084   4.657  0.0883  0.7596 -0.6719
    7bbb     N2  182   6.744   6.966   4.657  0.0601 -0.0820  0.0494
    7bbb     O1  183   7.099   7.532   4.864  0.0027 -1.1010 -0.2064
    7bbb     O2  184   6.575   7.645   4.420  0.3344 -0.2768 -0.1760
    7bbb     H1  185   6.862   7.473   4.741 -1.4280  0.4091 -0.4453
    7bbb     H2  186   6.863   7.300   4.779  1.0376  1.0866  1.7181
    7bbb     H3  187   6.683   7.484   4.637  0.4442  0.1441 -0.1984
    7bbb     H4  188   6.637   7.415   4.486 -0.6285  0.3259  0.7494
    7bbb     H5  189   7.086   7.274   4.672 -2.4699 -1.2634  2.3148
    7bbb     H6  190   7.083   7.426   4.598 -2.9904 -0.5124 -1.5640
    7bbb     H7  191   6.867   7.527   4.389  0.5604  1.8147  0.7449
    7bbb     H8  192   6.861   7.605   4.553 -0.8000  0.7632  1.6130
    7bbb     H9  193   6.700   7.161   4.509  0.1024 -0.8348  0.5908
    7bbb    H10  194   6.660   7.217   4.666  0.4973 -0.2062  0.9433
    7bbb    H11  195   6.879   7.111   4.753  1.6207  1.7103 -1.6271
    7bbb    H12  196   6.914   7.054   4.588 -0.5285 -3.4191  0.1468
    7bbb    H13  197   6.671   6.963   4.586  0.5370 -2.1965 -0.4469
    7bbb    H25  198   6.884   7.326   4.495 -1.2376  2.8341 -0.6454
    8bbb     N1  199   7.915   5.569   4.312  0.8569  0.0728 -1.0381
    8bbb     C1  200   7.853   5.594   4.172  0.4420 -0.9412  0.0570
    8bbb     C2  201   8.034   5.476   4.305 -0.2500 -0.1327 -0.2483
    8bbb     C3  202   7.726   5.684   4.178 -0.1701 -0.1170 -0.1752
    8bbb     C4  203   7.702   5.773   4.054  0.2189  0.6944 -0.3203
    8bbb     C5  204   8.164   5.547   4.290  0.3409 -0.8669  0.7278
    8bbb     C6  205   8.273   5.458   4.225  0.5544 -0.5250  0.0839
    8bbb     C7  206   7.814   5.499   4.402 -0.1804  0.2957 -0.0386
    8bbb     C8  207   7.783   5.561   4.539  0.6711  0.3565 -0.0111
    8bbb     N2  208   7.703   5.470   4.611 -0.5948  0.0646 -0.2949
    8bbb     O1  209   7.640   5.717   3.966  0.0834 -0.3677  0.2643
    8bbb     O2  210   8.247   5.344   4.185 -0.6342  0.0912 -0.2825
    8bbb     H1  211   7.929   5.644   4.112  1.1414 -0.3544  1.3872
    8bbb     H2  212   7.832   5.504   4.114 -3.2086  0.2619 -0.7321
    8bbb     H3  213   8.011   5.416   4.217  0.1040 -1.5750  0.6062
    8bbb     H4  214   8.038   5.417   4.397 -1.3267 -0.6536 -0.5178
    8bbb     H5  215   7.639   5.621   4.201 -0.6341  1.2181  2.0167
    8bbb     H6  216   7.730   5.750   4.265  1.2235 -1.6446  0.9711
    8bbb     H7  217   8.190   5.579   4.391 -0.7064  1.6273  0.3003
    8bbb     H8  218   8.149   5.641   4.234  1.4958 -0.5455  0.9387
    8bbb     H9  219   7.867   5.405   4.418  1.9684  1.2821 -0.9744
    8bbb    H10  220   7.723   5.471   4.349  0.3055  0.0798 -0.7749
    8bbb    H11  221   7.724   5.652   4.526  2.4100  1.4886 -0.3260
    8bbb    H12  222   7.870   5.582   4.602  0.8760  0.9196 -0.4801
    8bbb    H13  223   7.688   5.376   4.576  1.4623  0.1570 -1.5606
    8bbb    H25  224   7.940   5.659   4.355 -0.9379 -0.6507  1.8055
    9bbb     N1  225   7.454   5.666   5.540  0.0888 -0.2154  0.4418
    9bbb     C1  226   7.505   5.554   5.623 -0.4622 -0.4493 -0.6488
    9bbb     C2  227   7.535   5.795   5.561  0.1151  0.3128  0.3813
    9bbb     C3  228   7.651   5.521   5.603 -0.4728  0.7244  0.2412
    9bbb     C4  229   7.684   5.371   5.618 -0.6025  0.9176 -0.2180
    9bbb     C5  230   7.513   5.857   5.697  0.8139 -0.3426 -0.7149
    9bbb     C6  231   7.572   5.995   5.717  0.2574 -0.3749  0.7072
    9bbb     C7  232   7.303   5.681   5.555  0.0971 -0.4980  0.3525
    9bbb     C8  233   7.219   5.566   5.502  0.9571  0.1264 -0.0960
    9bbb     N2  234   7.253   5.520   5.366  0.3003 -0.0114 -0.1913
    9bbb     O1  235   7.613   5.292   5.674  0.2418 -0.6468 -0.0575
    9bbb     O2  236   7.627   6.052   5.626  0.2199 -0.3636 -0.7065
    9bbb     H1  237   7.487   5.581   5.728  0.8113 -1.2479 -0.1982
    9bbb     H2  238   7.445   5.465   5.598 -1.9632  0.6823 -1.2405
    9bbb     H3  239   7.506   5.865   5.483 -0.8123  1.7613  1.9645
    9bbb     H4  240   7.640   5.768   5.552 -0.0096  0.1574 -0.7570
    9bbb     H5  241   7.684   5.557   5.504  0.6360  2.7573  1.2949
    9bbb     H6  242   7.719   5.582   5.663 -0.3920  1.3031 -0.4255
    9bbb     H7  243   7.560   5.791   5.770  2.3702 -1.0554 -2.2925
    9bbb     H8  244   7.404   5.862   5.714  0.7322 -1.4349 -0.8604
    9bbb     H9  245   7.271   5.779   5.518 -2.8182 -2.1209 -1.8993
    9bbb    H10  246   7.287   5.681   5.663 -0.4982  0.7527  0.2865
    9bbb    H11  247   7.112   5.589   5.510  1.0269  0.7195 -0.8203
    9bbb    H12  248   7.251   5.482   5.566 -3.3951 -1.5388  0.1986
    9bbb    H13  249   7.312   5.437   5.359  0.1288 -0.4016  2.2910
    9bbb    H25  250   7.467   5.644   5.440  0.2422 -1.3572  0.6961
   10bbb     N1  251   6.962   4.137   3.880  0.0968  0.2107 -0.1281
   10bbb     C1  252   7.066   4.082   3.984 -0.3882  0.0291 -0.0593
   10bbb     C2  253   6.960   4.056   3.756  0.3925 -0.7671 -0.2409
   10bbb     C3  254   7.219   4.079   3.956  0.6581  0.7153  0.3117
   10bbb     C4  255   7.300   3.999   4.059 -0.4844  0.2741 -0.0441
   10bbb     C5  256   6.915   3.912   3.780 -0.2972 -0.4816  0.0565
   10bbb     C6  257   6.911   3.831   3.649  0.5005  0.0337 -0.2516
   10bbb     C7  258   7.001   4.282   3.839 -0.5721  0.2327  0.8152
   10bbb     C8  259   6.966   4.386   3.950  0.1932  0.0612 -0.7889
   10bbb     N2  260   7.010   4.518   3.903  0.8636 -0.0038 -0.3972
   10bbb     O1  261   7.256   3.944   4.157 -0.3337  0.4631  0.1227
   10bbb     O2  262   6.940   3.875   3.542 -0.5294  0.3904  0.3169
   10bbb     H1  263   7.048   4.126   4.082  0.5339 -0.7134  0.4665
   10bbb     H2  264   7.034   3.978   3.998  2.5686 -1.0703 -0.7518
   10bbb     H3  265   7.056   4.053   3.703  0.5955  1.4913 -0.0608
   10bbb     H4  266   6.888   4.101   3.688  2.4404  0.6007 -1.6460
   10bbb     H5  267   7.253   4.052   3.855  4.4314  2.0586  1.0743
   10bbb     H6  268   7.250   4.183   3.971 -3.0333  2.2027 -0.9562
   10bbb     H7  269   6.824   3.910   3.841 -2.1658  2.3486 -2.3577
   10bbb     H8  270   6.992   3.853   3.832 -1.1447 -2.4534 -0.8335
   10bbb     H9  271   6.946   4.299   3.746 -0.4970 -0.4888  0.6330
   10bbb    H10  272   7.108   4.286   3.815 -0.8842  1.8885 -0.5530
   10bbb    H11  273   7.006   4.357   4.048 -1.3899 -0.5572 -0.2967
   10bbb    H12  274   6.857   4.389   3.961  0.3655 -0.5157  1.8692
   10bbb    H13  275   7.062   4.527   3.816 -0.0160  0.0473 -0.9332
   10bbb    H25  276   6.867   4.124   3.917  1.0908 -2.4811  1.8886
   11bbb     N1  277   7.470   4.872   3.516 -0.7049 -0.5267  0.3389
   11bbb     C1  278   7.517   4.947   3.393 -0.0818 -0.0781  0.1967
   11bbb     C2  279   7.500   4.728   3.501  0.5884  0.1685  0.2661
   11bbb     C3  280   7.665   4.962   3.374 -0.6770  0.1596  0.0189
   11bbb     C4  281   7.726   5.079   3.457  0.6434 -0.1702 -0.1654
   11bbb     C5  282   7.456   4.661   3.362 -0.4974  0.8421  0.2573
   11bbb     C6  283   7.472   4.510   3.359  0.1388  0.2377 -0.2414
   11bbb     C7  284   7.318   4.888   3.536  0.4092 -0.7496 -0.0141
   11bbb     C8  285   7.271   5.034   3.567 -0.2639 -0.3794 -0.1619
   11bbb     N2  286   7.128   5.044   3.591  0.5613 -0.1743  0.5341
   11bbb     O1  287   7.674   5.126   3.560 -0.1070  0.3190  0.1191
   11bbb     O2  288   7.523   4.453   3.457 -0.0746  0.9993 -0.3893
   11bbb     H1  289   7.481   4.889   3.308  3.0125 -1.0033 -0.6016
   11bbb     H2  290   7.472   5.045   3.382 -1.3959 -0.6996 -0.2307
   11bbb     H3  291   7.440   4.684   3.581 -1.1411  2.6622  0.4490
   11bbb     H4  292   7.608   4.727   3.517  0.8725  0.3869 -1.4399
   11bbb     H5  293   7.718   4.872   3.409  0.0691  0.5454 -0.0978
   11bbb     H6  294   7.701   4.965   3.271 -1.9701 -0.4020 -0.4631
   11bbb     H7  295   7.528   4.682   3.282 -0.1771 -1.4826 -0.1370
   11bbb     H8  296   7.358   4.702   3.334  0.1183  2.5953  0.5718
   11bbb     H9  297   7.288   4.831   3.624  0.3903  1.5257  1.5379
   11bbb    H10  298   7.260   4.859   3.448 -0.7191  0.0212  0.4433
   11bbb    H11  299   7.297   5.104   3.487  2.1468  0.5454  1.3334
   11bbb    H12  300   7.327   5.054   3.659 -1.3243 -2.7668  1.0993
   11bbb    H13  301   7.062   5.033   3.516 -1.0077 -2.4047  2.1177
   11bbb    H25  302   7.524   4.915   3.592 -1.8353  1.4516  0.0947
   12bbb     N1  303   5.654   4.780   5.525  0.5842 -0.3944 -0.2737
   12bbb     C1  304   5.745   4.761   5.641  0.3025  0.5014 -0.1354
   12bbb     C2  305   5.627   4.651   5.444 -0.0360  0.3114  0.8625
   12bbb     C3  306   5.736   4.872   5.746 -0.0733  0.5829 -0.2688
   12bbb     C4  307   5.819   4.849   5.874  0.3336  0.2126 -0.0756
   12bbb     C5  308   5.589   4.530   5.531  0.5326 -0.0563 -0.1944
   12bbb     C6  309   5.545   4.411   5.447  0.3432  0.2520 -0.6226
   12bbb     C7  310   5.721   4.892   5.430  0.1097  0.6586  0.2424
   12bbb     C8  311   5.631   4.934   5.320 -0.3442 -0.3230  0.2975
   12bbb     N2  312   5.635   4.854   5.195  0.0786 -0.0029 -0.3463
   12bbb     O1  313   5.880   4.748   5.886  0.4968 -0.1204 -0.3289
   12bbb     O2  314   5.550   4.418   5.326  0.4505  0.7647  0.4414
   12bbb     H1  315   5.729   4.664   5.689  1.7187  1.3605  2.2573
   12bbb     H2  316   5.840   4.762   5.588  0.1484 -2.9830 -0.7424
   12bbb     H3  317   5.721   4.631   5.392  0.5086  0.2936  1.8436
   12bbb     H4  318   5.547   4.674   5.374 -0.0135 -0.1760  0.6679
   12bbb     H5  319   5.759   4.971   5.704  1.8881  0.1642 -0.2969
   12bbb     H6  320   5.633   4.873   5.783  0.4950 -1.3722  1.5202
   12bbb     H7  321   5.500   4.559   5.588  1.5043  0.6945  0.9924
   12bbb     H8  322   5.665   4.497   5.602  1.1500 -1.7268 -1.5583
   12bbb     H9  323   5.815   4.849   5.396 -0.2014  0.5883 -0.5417
   12bbb    H10  324   5.739   4.979   5.495 -2.1839  0.7577  0.8345
   12bbb    H11  325   5.659   5.037   5.294 -1.0397 -0.2115 -0.0431
   12bbb    H12  326   5.529   4.936   5.359 -0.1928  0.8159  0.6830
   12bbb    H13  327   5.559   4.792   5.171 -1.3141  1.3768  0.3251
   12bbb    H25  328   5.560   4.812   5.554 -0.5610 -2.3238 -1.6229
   13bbb     N1  329   5.168   5.427   4.377  0.0315 -0.2222  0.1296
   13bbb     C1  330   5.205   5.451   4.230 -0.4644 -0.0047  0.1233
   13bbb     C2  331   5.109   5.555   4.431  0.0281  0.0424 -0.2590
   13bbb     C3  332   5.101   5.420   4.122  0.3689 -0.2891  0.6815
   13bbb     C4  333   5.081   5.271   4.103 -0.3681  0.7149  0.0123
   13bbb     C5  334   5.046   5.544   4.569 -0.3216 -0.2941  0.3126
   13bbb     C6  335   5.000   5.680   4.617 -0.3941  1.3103  0.1696
   13bbb     C7  336   5.301   5.396   4.452 -0.3605 -0.0337 -0.1528
   13bbb     C8  337   5.285   5.270   4.538  0.5400 -0.1327  0.0495
   13bbb     N2  338   5.396   5.241   4.626  0.5943  0.2466 -0.0577
   13bbb     O1  339   5.149   5.176   4.155  0.0762  0.2739  0.3287
   13bbb     O2  340   5.009   5.785   4.552 -0.7287  0.5743  0.4692
   13bbb     H1  341   5.248   5.551   4.226  0.9486 -0.5586  0.9768
   13bbb     H2  342   5.292   5.391   4.204  2.3754  2.7643  2.3754
   13bbb     H3  343   5.032   5.584   4.360  1.8666  1.4394 -1.7927
   13bbb     H4  344   5.193   5.625   4.430  0.1875 -0.1492 -0.4693
   13bbb     H5  345   5.004   5.455   4.159  0.8484  0.7976  0.9281
   13bbb     H6  346   5.115   5.478   4.030  0.0256  0.1938  0.9277
   13bbb     H7  347   5.127   5.512   4.636 -0.4357  0.4453  0.8222
   13bbb     H8  348   4.958   5.480   4.565 -0.8194  0.0248  3.5109
   13bbb     H9  349   5.317   5.475   4.526  0.4995  0.1811 -0.5527
   13bbb    H10  350   5.383   5.389   4.380  1.3902 -2.1578  1.8731
   13bbb    H11  351   5.268   5.181   4.476  0.5707  1.0446 -1.7352
   13bbb    H12  352   5.194   5.273   4.599  0.9333 -0.7999  0.6743
   13bbb    H13  353   5.479   5.299   4.620 -0.9209  2.5370 -0.4757
   13bbb    H25  354   5.104   5.346   4.379 -1.1061  0.6348 -0.0982
   14bbb     N1  355   6.043   6.469   6.070  0.8063  0.0053 -0.4452
   14bbb     C1  356   6.059   6.520   6.211  0.0103 -0.0980  0.4016
   14bbb     C2  357   5.975   6.334   6.068 -0.1678 -0.3661 -0.2078
   14bbb     C3  358   6.169   6.448   6.299 -0.9618  0.3130 -0.3385
   14bbb     C4  359   6.176   6.510   6.438  0.3794 -0.7677  0.1530
   14bbb     C5  360   5.844   6.303   6.148  0.0435  0.7225 -0.5356
   14bbb     C6  361   5.856   6.264   6.295 -0.5407  0.6956  0.0973
   14bbb     C7  362   6.179   6.450   6.005 -0.3365 -0.3480 -0.1755
   14bbb     C8  363   6.173   6.410   5.857  0.2259 -0.5062  0.2724
   14bbb     N2  364   6.123   6.523   5.781  0.5875 -0.0485  0.4545
   14bbb     O1  365   6.074   6.560   6.492 -0.3333  0.7262  0.4345
   14bbb     O2  366   5.947   6.191   6.326  0.0295 -0.0028 -0.3253
   14bbb     H1  367   6.084   6.626   6.214 -1.2476  0.2181  0.3830
   14bbb     H2  368   5.963   6.520   6.262 -0.3023  1.1112 -0.1367
   14bbb     H3  369   6.049   6.261   6.100 -0.9856 -0.2610  2.0984
   14bbb     H4  370   5.945   6.318   5.964  0.1843 -0.8159 -0.2400
   14bbb     H5  371   6.164   6.339   6.303  1.4114  0.1948  1.3265
   14bbb     H6  372   6.264   6.465   6.246 -0.7134 -1.4641 -0.5281
   14bbb     H7  373   5.808   6.210   6.102  0.9024  0.3549 -0.4972
   14bbb     H8  374   5.768   6.381   6.139  0.5238  1.0370 -2.0738
   14bbb     H9  375   6.235   6.379   6.066  0.4989 -0.0272 -0.5659
   14bbb    H10  376   6.235   6.543   6.013 -0.1599 -0.3965 -0.7911
   14bbb    H11  377   6.116   6.317   5.847  2.5634 -1.7964 -2.7284
   14bbb    H12  378   6.272   6.388   5.815 -0.3546 -4.6183  0.6604
   14bbb    H13  379   6.148   6.617   5.808 -1.3022  0.7742 -0.4706
   14bbb    H25  380   5.989   6.540   6.020  0.9902  1.1950  0.9778
   15bbb     N1  381   5.485   7.375   5.561 -0.5900  0.3280 -0.5576
   15bbb     C1  382   5.403   7.384   5.687 -0.1699  0.0230 -0.1327
   15bbb     C2  383   5.413   7.423   5.434  0.1947 -0.8012  0.2544
   15bbb     C3  384   5.380   7.529   5.732  0.5777  1.1048 -1.1605
   15bbb     C4  385   5.262   7.529   5.832 -0.4610  0.1698  0.3547
   15bbb     C5  386   5.272   7.359   5.412  0.7284  0.4690 -0.4239
   15bbb     C6  387   5.208   7.407   5.284  0.2869 -0.1414 -0.3465
   15bbb     C7  388   5.535   7.234   5.548 -0.7156  0.0030  0.1397
   15bbb     C8  389   5.652   7.217   5.444  0.2354 -0.5518  0.8527
   15bbb     N2  390   5.707   7.081   5.446  0.1025  0.1863 -0.0931
   15bbb     O1  391   5.240   7.435   5.906  0.0544  0.7353 -0.6163
   15bbb     O2  392   5.216   7.523   5.245  0.3537 -0.0967 -0.1717
   15bbb     H1  393   5.323   7.310   5.677 -1.1512  1.0685 -0.2759
   15bbb     H2  394   5.461   7.338   5.767 -1.8213  1.3964  1.9837
   15bbb     H3  395   5.487   7.416   5.355  1.5717  1.2288  1.2797
   15bbb     H4  396   5.400   7.530   5.446 -1.8199 -1.2683  3.8081
   15bbb     H5  397   5.472   7.571   5.774 -0.6848  1.7677  1.1268
   15bbb     H6  398   5.365   7.599   5.648 -0.4196  1.1977 -0.9172
   15bbb     H7  399   5.207   7.377   5.499 -0.5776 -0.6579 -1.1194
   15bbb     H8  400   5.291   7.251   5.406  1.3874  0.6136 -1.0951
   15bbb     H9  401   5.451   7.169   5.520 -1.3798  1.2251 -0.7944
   15bbb    H10  402   5.562   7.205   5.650 -2.0586  0.0627  0.5263
   15bbb    H11  403   5.735   7.285   5.463  0.7562 -1.3612  1.5586
   15bbb    H12  404   5.621   7.252   5.345 -2.6225 -2.9217  0.7632
   15bbb    H13  405   5.644   7.006   5.420  0.1681 -0.8002  2.3280
   15bbb    H25  406   5.559   7.446   5.571 -1.1089  0.6327  1.5167
   16bbb     N1  407   7.480   7.531   4.809 -0.2605  0.4265 -0.7087
   16bbb     C1  408   7.605   7.538   4.725 -0.3560 -0.4356  0.4706
   16bbb     C2  409   7.449   7.664   4.877  0.0389  0.3405 -0.1056
   16bbb     C3  410   7.729   7.575   4.803 -0.0746 -0.8239  0.0717
   16bbb     C4  411   7.846   7.609   4.714  0.0608 -0.6353  0.3660
   16bbb     C5  412   7.440   7.786   4.779  0.4421  0.7410 -0.0195
   16bbb     C6  413   7.403   7.915   4.852  0.0157  0.6739 -0.5840
   16bbb     C7  414   7.477   7.415   4.909  0.3747 -0.0536  0.1090
   16bbb     C8  415   7.331   7.392   4.956  0.1610  0.5701  0.2850
   16bbb     N2  416   7.246   7.368   4.842  0.0165  0.1729  0.4905
   16bbb     O1  417   7.841   7.709   4.646  0.9682  0.4145 -0.2359
   16bbb     O2  418   7.288   7.949   4.877 -0.4535 -0.8089 -0.9299
   16bbb     H1  419   7.614   7.446   4.666 -2.0804  0.0299 -0.5987
   16bbb     H2  420   7.577   7.613   4.650  0.3681 -1.5201 -0.9423
   16bbb     H3  421   7.517   7.680   4.962  1.1681  0.7959 -1.0737
   16bbb     H4  422   7.350   7.654   4.924 -0.0311  1.0468 -0.0938
   16bbb     H5  423   7.709   7.667   4.861 -2.4234 -1.4125  0.2891
   16bbb     H6  424   7.750   7.494   4.874  0.6764 -2.3564 -1.8132
   16bbb     H7  425   7.363   7.769   4.702 -0.0194  1.2948  0.3073
   16bbb     H8  426   7.538   7.803   4.733 -0.5279  1.2227 -2.0697
   16bbb     H9  427   7.548   7.432   4.991 -0.9689  1.1713  1.0739
   16bbb    H10  428   7.510   7.319   4.870  1.6084 -0.1144  1.2384
   16bbb    H11  429   7.293   7.473   5.019 -0.3615  1.1878 -0.8142
   16bbb    H12  430   7.321   7.309   5.027  0.5910 -0.2229 -0.5690
   16bbb    H13  431   7.271   7.300   4.772 -1.1417  1.2555 -1.0453
   16bbb    H25  432   7.407   7.506   4.740  0.2025  0.5588 -1.2558
   17bbb     N1  433   6.548   7.786   4.086 -0.2433 -0.2150 -0.1362
   17bbb     C1  434   6.565   7.792   3.932 -0.0241 -0.2342 -0.3508
   17bbb     C2  435   6.404   7.827   4.126  0.2046  0.5359 -0.2335
   17bbb     C3  436   6.527   7.927   3.868  0.4710 -0.6008  0.8942
   17bbb     C4  437   6.567   7.930   3.718 -0.4893 -0.7679  0.9365
   17bbb     C5  438   6.300   7.715   4.100  0.7509  0.0999 -1.1072
   17bbb     C6  439   6.162   7.765   4.108  0.7791  0.1945 -0.0879
   17bbb     C7  440   6.642   7.891   4.144 -0.1769 -0.3407 -0.3853
   17bbb     C8  441   6.675   7.884   4.297  0.3455 -1.1343 -0.0855
   17bbb     N2  442   6.748   7.768   4.347  0.3332 -0.5468 -0.3664
   17bbb     O1  443   6.587   7.828   3.651  0.3379  0.2787 -0.0044
   17bbb     O2  444   6.127   7.882   4.120 -0.6171 -0.0456  0.0926
   17bbb     H1  445   6.664   7.758   3.902  0.5326 -2.1134  3.0767
   17bbb     H2  446   6.487   7.727   3.892 -0.7260  0.2463  0.2084
   17bbb     H3  447   6.365   7.912   4.070 -1.3979 -0.6306 -0.9496
   17bbb     H4  448   6.405   7.846   4.233 -2.0300 -0.6417  0.0455
   17bbb     H5  449   6.421   7.952   3.876  0.2822 -0.8891 -0.4264
   17bbb     H6  450   6.574   8.014   3.915  0.3469 -1.2141  2.2070
   17bbb     H7  451   6.308   7.640   4.179  0.4587  0.2858 -0.8991
   17bbb     H8  452   6.312   7.667   4.002 -0.1855 -1.5993 -0.4324
   17bbb     H9  453   6.591   7.987   4.128 -0.9212 -1.0592 -2.6983
   17bbb    H10  454   6.735   7.884   4.087 -0.4416 -1.5878 -0.6954
   17bbb    H11  455   6.585   7.894   4.358  0.2329 -1.7158 -0.1506
   17bbb    H12  456   6.740   7.968   4.323  0.9995 -1.4614 -0.6209
   17bbb    H13  457   6.848   7.783   4.340  0.2725 -0.1172 -0.2922
   17bbb    H25  458   6.580   7.696   4.124  0.2947 -0.4803 -1.1754
   18bbb     N1  459   7.668   6.108   3.750 -0.6599  0.2354  0.1467
   18bbb     C1  460   7.625   6.022   3.627 -0.8160  0.7474 -0.1816
   18bbb     C2  461   7.768   6.216   3.720 -0.7783  0.8455  0.2595
   18bbb     C3  462   7.551   6.095   3.512 -0.1006 -0.3065  1.1305
   18bbb     C4  463   7.568   6.021   3.375 -0.1923  0.2341 -0.1780
   18bbb     C5  464   7.775   6.341   3.810  0.4307  0.2038 -0.2932
   18bbb     C6  465   7.863   6.444   3.738  0.4054 -0.5977 -0.0889
   18bbb     C7  466   7.734   6.006   3.844  0.1736 -0.0011  0.5979
   18bbb     C8  467   7.684   6.008   3.982  0.2077 -0.6350  0.2431
   18bbb     N2  468   7.742   5.903   4.062  0.8199 -0.1962 -0.2926
   18bbb     O1  469   7.556   5.900   3.358 -0.6132 -0.3947  0.1970
   18bbb     O2  470   7.935   6.421   3.639  0.5174 -0.2871 -0.3233
   18bbb     H1  471   7.718   5.977   3.590 -0.1298 -0.2423  2.5385
   18bbb     H2  472   7.554   5.947   3.662  0.0397 -0.3344 -0.6919
   18bbb     H3  473   7.753   6.233   3.613 -0.9391 -2.3898 -0.3355
   18bbb     H4  474   7.865   6.166   3.721 -1.1956 -0.0228 -0.6291
   18bbb     H5  475   7.442   6.101   3.529 -0.4764 -3.3223  0.5053
   18bbb     H6  476   7.590   6.197   3.505  0.3216 -0.5764 -3.1351
   18bbb     H7  477   7.812   6.320   3.911  0.3701 -0.7430 -0.4608
   18bbb     H8  478   7.673   6.381   3.825  0.1591  0.8470 -3.2287
   18bbb     H9  479   7.842   6.015   3.836  0.0402 -0.2191 -2.3194
   18bbb    H10  480   7.717   5.907   3.802 -1.6379  0.6452 -0.2940
   18bbb    H11  481   7.578   5.987   3.963  0.4046 -0.5856 -0.9671
   18bbb    H12  482   7.707   6.104   4.029 -1.4442 -1.0756  2.0463
   18bbb    H13  483   7.806   5.923   4.138 -0.9241 -1.1107  1.5019
   18bbb    H25  484   7.584   6.148   3.796  0.1572  0.1727  1.7511
   19bbb     N1  485   8.730   5.456   3.999  0.0494 -0.2017 -0.8592
   19bbb     C1  486   8.875   5.493   4.046 -1.2285 -0.4023  0.1323
   19bbb     C2  487   8.706   5.504   3.856 -0.3217 -0.0889 -1.0248
   19bbb     C3  488   8.901   5.434   4.185 -0.4983  0.4078 -0.0992
   19bbb     C4  489   9.056   5.415   4.218  0.3900  0.3706 -0.6981
   19bbb     C5  490   8.806   5.441   3.752 -0.0414  0.3565  0.2509
   19bbb     C6  491   8.766   5.478   3.609  0.3297  0.0672  0.2106
   19bbb     C7  492   8.624   5.525   4.097  0.1895 -0.1297  0.1960
   19bbb     C8  493   8.478   5.468   4.085 -0.3625 -0.1629 -0.0829
   19bbb     N2  494   8.391   5.520   4.192  0.3961  0.5495 -0.1703
   19bbb     O1  495   9.115   5.310   4.195  0.3196  0.5034 -0.3443
   19bbb     O2  496   8.692   5.567   3.575  0.3935 -0.3865 -0.8109
   19bbb     H1  497   8.949   5.456   3.975  0.7389  0.6228  1.5409
   19bbb     H2  498   8.877   5.602   4.053 -1.2266 -0.4564  1.1935
   19bbb     H3  499   8.723   5.612   3.860 -0.2029 -0.1330  1.0167
   19bbb     H4  500   8.608   5.479   3.814 -0.7295  2.7374 -2.0282
   19bbb     H5  501   8.859   5.494   4.267 -0.2358  0.5732 -0.0828
   19bbb     H6  502   8.856   5.334   4.181  0.7011 -0.1544  0.0970
   19bbb     H7  503   8.800   5.332   3.757  0.0415  0.2428 -1.4356
   19bbb     H8  504   8.911   5.462   3.778 -0.3545 -1.3733  3.3537
   19bbb     H9  505   8.631   5.631   4.073 -0.8109 -0.0578  0.1762
   19bbb    H10  506   8.651   5.518   4.203 -1.5982  0.7923  0.7694
   19bbb    H11  507   8.469   5.359   4.081 -2.5442  0.0215 -1.0505
   19bbb    H12  508   8.427   5.499   3.993 -0.8941 -0.1998  0.1973
   19bbb    H13  509   8.387   5.620   4.206 -1.5223  0.6219 -0.9761
   19bbb    H25  510   8.720   5.354   4.006  0.0284 -0.1737 -0.4684
   20bbb     N1  511   8.038   5.044   5.658  0.6642  0.4673 -0.1996
   20bbb     C1  512   7.939   4.926   5.658 -0.6774 -0.2929 -0.4518
   20bbb     C2  513   8.134   5.035   5.776 -0.0945 -0.4480 -0.4339
   20bbb     C3  514   7.989   4.784   5.664 -0.7188  0.2352 -1.1909
   20bbb     C4  515   7.974   4.721   5.803 -0.1301 -0.4447  0.4148
   20bbb     C5  516   8.086   5.068   5.924  0.1606 -0.1751 -0.3099
   20bbb     C6  517   8.197   5.015   6.011 -1.1666 -0.1912 -0.3620
   20bbb     C7  518   7.962   5.175   5.657  0.6685  0.5901  0.2828
   20bbb     C8  519   7.859   5.204   5.546 -0.0201 -0.2277 -0.2844
   20bbb     N2  520   7.806   5.342   5.564  0.1368  0.1366  0.1282
   20bbb     O1  521   8.034   4.767   5.897 -0.1462 -0.0697  0.1402
   20bbb     O2  522   8.271   4.921   5.980 -0.0229 -0.2276  0.5573
   20bbb     H1  523   7.863   4.954   5.731  1.6509  0.7777  1.6875
   20bbb     H2  524   7.897   4.947   5.559  1.3896  1.1793 -1.0662
   20bbb     H3  525   8.230   5.084   5.758  1.0793 -2.4398  0.0494
   20bbb     H4  526   8.164   4.930   5.770  1.5245  0.0596 -2.3363
   20bbb     H5  527   7.939   4.720   5.591  0.9590 -1.8493 -0.6261
   20bbb     H6  528   8.098   4.784   5.646 -0.3630  1.4810  0.6671
   20bbb     H7  529   7.996   5.006   5.936  0.4070 -0.6618 -0.8720
   20bbb     H8  530   8.075   5.176   5.934  2.2984  0.3100 -2.2606
   20bbb     H9  531   8.034   5.256   5.645  2.6841 -1.4735 -3.3429
   20bbb    H10  532   7.907   5.181   5.751  0.7301 -2.1309  0.5910
   20bbb    H11  533   7.772   5.139   5.557 -0.3658  0.3614  0.5319
   20bbb    H12  534   7.897   5.198   5.443 -0.2759 -3.6823 -0.2951
   20bbb    H13  535   7.856   5.415   5.515  0.0178  0.3898  0.3828
   20bbb    H25  536   8.087   5.037   5.568  0.4916 -0.2265 -0.2448
   21bbb     N1  537   7.435   6.236   6.083  0.3461  0.1880 -0.0972
   21bbb     C1  538   7.349   6.352   6.031 -0.1061  0.1549  0.0489
   21bbb     C2  539   7.451   6.228   6.228 -0.6538  0.5192 -0.0968
   21bbb     C3  540   7.418   6.490   6.026 -0.7026  0.2196  0.2752
   21bbb     C4  541   7.330   6.600   5.971  0.0096  0.3111 -0.0023
   21bbb     C5  542   7.332   6.183   6.316 -0.3288 -0.4462  0.9133
   21bbb     C6  543   7.297   6.037   6.292  0.2106  0.5181 -0.4234
   21bbb     C7  544   7.575   6.226   6.021 -0.1813  0.3644  0.0860
   21bbb     C8  545   7.566   6.189   5.874  0.0038 -0.4039 -0.5810
   21bbb     N2  546   7.547   6.047   5.841  0.3366 -0.2858 -0.3037
   21bbb     O1  547   7.205   6.590   5.970  0.1227 -0.2138  0.5211
   21bbb     O2  548   7.337   5.966   6.203  0.2476  0.1012  0.2443
   21bbb     H1  549   7.321   6.312   5.933 -0.4402 -1.1543  0.6493
   21bbb     H2  550   7.263   6.358   6.098 -0.4566  1.7784 -0.4982
   21bbb     H3  551   7.477   6.331   6.255 -0.6022  0.1772  1.2342
   21bbb     H4  552   7.540   6.167   6.245 -1.0059 -0.9641 -2.9129
   21bbb     H5  553   7.447   6.525   6.126 -0.9430 -1.5224  0.9861
   21bbb     H6  554   7.507   6.483   5.963 -0.8843  1.1103 -0.0929
   21bbb     H7  555   7.248   6.244   6.281  2.0156  1.6870 -1.4916
   21bbb     H8  556   7.357   6.201   6.421  0.9913  1.7576  0.2944
   21bbb     H9  557   7.630   6.148   6.073  0.8181  0.7954 -0.2792
   21bbb    H10  558   7.623   6.323   6.040  1.2245  0.5457 -3.6523
   21bbb    H11  559   7.666   6.218   5.840 -0.2625  0.8229 -0.3526
   21bbb    H12  560   7.493   6.250   5.819 -0.6186  0.9120  1.6132
   21bbb    H13  561   7.513   5.979   5.908  1.0064  1.0388  1.4779
   21bbb    H25  562   7.389   6.151   6.047  0.5881 -0.1550  0.3874
   22bbb     N1  563   7.591   3.995   4.299 -1.0423 -0.4969  0.3931
   22bbb     C1  564   7.714   4.059   4.366  0.3981 -0.4859  0.0119
   22bbb     C2  565   7.513   3.909   4.398 -0.4385  0.0188  0.2411
   22bbb     C3  566   7.796   4.159   4.270  0.1479 -0.1737 -0.3490
   22bbb     C4  567   7.914   4.222   4.340 -0.1213 -0.0454  0.7099
   22bbb     C5  568   7.562   3.767   4.421 -0.2398  0.1433  0.6604
   22bbb     C6  569   7.463   3.698   4.515  0.4331 -0.0517 -0.0551
   22bbb     C7  570   7.636   3.924   4.175 -0.8356  0.2600  0.7688
   22bbb     C8  571   7.527   3.894   4.071  0.0490 -0.5839  0.0231
   22bbb     N2  572   7.437   4.007   4.038  0.5024  0.0603  0.2895
   22bbb     O1  573   7.915   4.238   4.461 -0.3981 -0.3023  0.0967
   22bbb     O2  574   7.355   3.752   4.547  0.2440 -0.4878  0.2937
   22bbb     H1  575   7.686   4.108   4.460  0.1436 -0.3207 -0.1471
   22bbb     H2  576   7.787   3.982   4.391  2.0664 -0.1639 -3.2467
   22bbb     H3  577   7.413   3.905   4.355  0.5267 -1.9875 -1.9716
   22bbb     H4  578   7.515   3.963   4.493  0.6462 -0.1450  0.3180
   22bbb     H5  579   7.836   4.097   4.189  0.7018  2.1440 -1.9371
   22bbb     H6  580   7.727   4.229   4.222  1.8966  1.5375 -0.4740
   22bbb     H7  581   7.662   3.780   4.464  0.3408  1.3101 -0.9288
   22bbb     H8  582   7.575   3.701   4.334  2.2953 -0.8867  1.7310
   22bbb     H9  583   7.694   3.834   4.195  0.1964  0.6147 -0.4299
   22bbb    H10  584   7.702   3.992   4.120  0.3096 -2.1321 -0.9741
   22bbb    H11  585   7.470   3.808   4.109 -1.0886  0.0464 -0.2089
   22bbb    H12  586   7.575   3.855   3.981  2.8611 -1.2794  1.7313
   22bbb    H13  587   7.464   4.055   3.953 -1.1618 -0.3652 -0.5238
   22bbb    H25  588   7.526   4.068   4.267 -0.6447 -1.3688 -2.8656
   23bbb     N1  589   6.631   3.457   3.481  0.1214  0.0579  0.7923
   23bbb     C1  590   6.558   3.340   3.544  0.0510  0.4875 -0.0132
   23bbb     C2  591   6.697   3.423   3.346 -0.5958 -0.2698 -0.0116
   23bbb     C3  592   6.440   3.285   3.462 -0.5407  0.1370  0.3218
   23bbb     C4  593   6.391   3.147   3.497 -0.3917  0.2550  0.1138
   23bbb     C5  594   6.792   3.296   3.343  0.1957 -0.0152  0.1231
   23bbb     C6  595   6.880   3.287   3.215 -0.2989 -0.5431 -0.0922
   23bbb     C7  596   6.718   3.515   3.596  0.5072 -0.6542  0.7652
   23bbb     C8  597   6.798   3.640   3.546  0.0347  0.1153 -0.4622
   23bbb     N2  598   6.846   3.715   3.663 -0.1975  0.0204 -0.2990
   23bbb     O1  599   6.407   3.108   3.616  0.1371 -0.5459  0.3590
   23bbb     O2  600   6.861   3.366   3.125  0.2178 -0.2833  0.3303
   23bbb     H1  601   6.633   3.267   3.575 -2.6872 -0.9359  4.1576
   23bbb     H2  602   6.519   3.383   3.637 -2.6039 -0.4602 -0.5913
   23bbb     H3  603   6.748   3.513   3.310 -1.4117 -0.0440 -0.6210
   23bbb     H4  604   6.619   3.400   3.274  0.1316  0.6583 -1.1185
   23bbb     H5  605   6.351   3.348   3.453 -0.6499  0.1021  1.1016
   23bbb     H6  606   6.475   3.269   3.360  0.7925  1.9318  0.4589
   23bbb     H7  607   6.729   3.207   3.350  2.1561 -1.3209  2.6949
   23bbb     H8  608   6.860   3.283   3.428  1.2131  1.2347 -0.4468
   23bbb     H9  609   6.795   3.443   3.625  0.3896 -0.0960  2.5813
   23bbb    H10  610   6.656   3.541   3.682  1.8475  1.8835  1.0439
   23bbb    H11  611   6.740   3.714   3.490 -2.3938 -1.3649 -0.0515
   23bbb    H12  612   6.879   3.616   3.476 -0.7125  2.3364 -2.1839
   23bbb    H13  613   6.812   3.684   3.753 -0.5453  0.9390 -0.0982
   23bbb    H25  614   6.564   3.532   3.458  0.6679  0.5925  0.9119
   24bbb     N1  615   7.928   5.064   3.734 -0.5982 -0.2474  0.4873
   24bbb     C1  616   7.843   5.175   3.796  0.7005  0.1418 -0.4889
   24bbb     C2  617   8.026   5.002   3.832  0.7304 -0.0183  0.6464
   24bbb     C3  618   7.724   5.131   3.893 -0.3390 -0.7761  0.0375
   24bbb     C4  619   7.664   5.259   3.959  0.6227  0.4411 -0.4092
   24bbb     C5  620   8.108   5.091   3.922  0.4175  0.0688 -0.4971
   24bbb     C6  621   8.197   5.002   4.012 -0.3263  0.1200 -0.1336
   24bbb     C7  622   8.010   5.125   3.612 -0.2797  0.4584  0.2493
   24bbb     C8  623   7.941   5.195   3.496 -0.0250 -0.5549  1.0219
   24bbb     N2  624   7.855   5.116   3.420 -0.7008  0.3852  0.4697
   24bbb     O1  625   7.725   5.324   4.037 -0.6516  0.1382  0.0268
   24bbb     O2  626   8.241   4.895   3.977 -0.0520 -0.2874  0.4818
   24bbb     H1  627   7.906   5.242   3.855  0.0282  0.8343 -0.5429
   24bbb     H2  628   7.804   5.239   3.717 -2.0007 -0.1776  0.5059
   24bbb     H3  629   8.096   4.940   3.775  2.7431  2.7034 -0.0407
   24bbb     H4  630   7.972   4.929   3.892 -1.5297  0.5018 -0.6703
   24bbb     H5  631   7.644   5.088   3.831 -1.8621 -0.1468  1.4610
   24bbb     H6  632   7.757   5.056   3.965 -0.9227 -1.4958 -0.4241
   24bbb     H7  633   8.032   5.147   3.977  0.8849  0.4563 -0.2407
   24bbb     H8  634   8.169   5.168   3.874 -1.1057  1.8325  0.2779
   24bbb     H9  635   8.083   5.053   3.574 -0.7542  0.1273 -0.0362
   24bbb    H10  636   8.076   5.200   3.656  0.3046  0.2915 -0.3261
   24bbb    H11  637   8.025   5.209   3.427 -0.4857  1.4526  0.8094
   24bbb    H12  638   7.902   5.296   3.512  1.5030  0.3599 -0.6921
   24bbb    H13  639   7.894   5.077   3.335 -0.4287 -0.0621  0.7971
   24bbb    H25  640   7.865   4.991   3.698  3.4666 -4.1174  0.3699
   25bbb     N1  641   7.412   4.071   3.118 -0.0923 -0.6985  0.2749
   25bbb     C1  642   7.326   4.038   3.005 -0.4254 -0.3892  0.2450
   25bbb     C2  643   7.377   3.994   3.249 -0.3468  0.0865 -0.2539
   25bbb     C3  644   7.350   3.891   2.949  0.6923 -0.1937  0.3461
   25bbb     C4  645   7.263   3.868   2.821  0.0579  0.5134  0.0617
   25bbb     C5  646   7.229   3.943   3.283 -0.5920  0.3909  0.2334
   25bbb     C6  647   7.136   4.056   3.309 -0.2216 -0.3837 -0.3264
   25bbb     C7  648   7.396   4.225   3.123  0.2575  0.6524 -0.2937
   25bbb     C8  649   7.478   4.296   3.234  0.0562  0.7157 -0.2979
   25bbb     N2  650   7.441   4.439   3.242  0.7135  0.9397 -0.0954
   25bbb     O1  651   7.142   3.847   2.829 -0.2715 -0.0355 -0.0516
   25bbb     O2  652   7.172   4.164   3.341 -0.2959 -0.0662  0.5706
   25bbb     H1  653   7.224   4.047   3.040  0.4506 -0.9879  3.2346
   25bbb     H2  654   7.353   4.110   2.927  0.3978 -2.0142 -1.0489
   25bbb     H3  655   7.420   4.036   3.340 -3.1862 -1.4579  1.9863
   25bbb     H4  656   7.439   3.905   3.236 -0.3132  0.1741 -0.7181
   25bbb     H5  657   7.454   3.867   2.923 -0.1546 -0.8381 -2.9258
   25bbb     H6  658   7.310   3.820   3.022  0.2139  0.0736  0.3510
   25bbb     H7  659   7.230   3.881   3.373 -1.6882 -0.3165 -0.2245
   25bbb     H8  660   7.193   3.868   3.212 -1.3627  0.6947  0.2912
   25bbb     H9  661   7.291   4.241   3.147  0.0913 -1.9731  1.1789
   25bbb    H10  662   7.422   4.261   3.023  0.4842 -0.1898 -0.5498
   25bbb    H11  663   7.586   4.288   3.220  0.2416  0.7008  0.9977
   25bbb    H12  664   7.460   4.252   3.333  0.9390 -2.3867 -1.4097
   25bbb    H13  665   7.416   4.485   3.155 -1.9442 -0.2188 -0.0626
   25bbb    H25  666   7.513   4.053   3.106 -0.2218 -0.3085 -1.8703
   26bbb     N1  667   6.034   5.178   6.187 -0.0816 -0.5590 -0.4120
   26bbb     C1  668   6.024   5.109   6.325  0.1137  0.5470  0.1995
   26bbb     C2  669   6.017   5.333   6.202 -0.2945  0.7885  0.2474
   26bbb     C3  670   6.146   5.134   6.422 -0.5889  0.5443  0.4556
   26bbb     C4  671   6.133   5.054   6.552  0.2905  0.5108 -0.3570
   26bbb     C5  672   6.081   5.400   6.082  0.8096 -0.0765  0.2995
   26bbb     C6  673   6.051   5.551   6.069 -0.2653 -0.1270  0.1959
   26bbb     C7  674   5.915   5.129   6.113 -0.0033 -0.1602  0.3213
   26bbb     C8  675   5.926   4.986   6.053 -0.0616 -0.1922  0.2165
   26bbb     N2  676   5.821   4.958   5.956  0.2028 -0.2870  0.4089
   26bbb     O1  677   6.025   5.002   6.579 -0.4782 -0.2981  0.2181
   26bbb     O2  678   5.961   5.612   6.124 -0.6184  0.0304  0.4424
   26bbb     H1  679   5.936   5.140   6.382 -0.7830 -0.8608 -0.3490
   26bbb     H2  680   6.008   5.002   6.315  0.7438  0.5049 -0.4427
   26bbb     H3  681   6.058   5.376   6.294 -1.4379 -0.3492  1.3334
   26bbb     H4  682   5.911   5.359   6.210 -0.5126 -0.6269  3.8327
   26bbb     H5  683   6.241   5.101   6.379 -0.2538  0.6530  1.1010
   26bbb     H6  684   6.149   5.240   6.452  1.2743  0.4592  0.6643
   26bbb     H7  685   6.026   5.363   5.995  2.3461  1.6385 -1.4890
   26bbb     H8  686   6.187   5.371   6.078  0.4969 -1.1744 -0.7190
   26bbb     H9  687   5.905   5.194   6.026 -1.4074 -0.1654  0.4627
   26bbb    H10  688   5.828   5.126   6.178  0.7049  2.8550  1.5635
   26bbb    H11  689   5.907   4.912   6.132 -2.0157  1.4739  1.3815
   26bbb    H12  690   6.020   4.969   5.999 -0.0183 -1.1338  0.5665
   26bbb    H13  691   5.748   5.026   5.938 -1.5244 -1.7590  1.4659
   26bbb    H25  692   6.130   5.168   6.152 -0.0783 -1.8202 -0.0740
   27bbb     N1  693   5.400   4.079   5.696 -0.1645  0.4436 -0.0878
   27bbb     C1  694   5.443   3.978   5.801  0.2585 -0.2265  0.2295
   27bbb     C2  695   5.255   4.046   5.657 -0.0608 -0.3554  1.0108
   27bbb     C3  696   5.592   3.987   5.849 -0.4805  0.4239 -0.9794
   27bbb     C4  697   5.604   3.881   5.961 -0.4579 -0.4313 -0.0663
   27bbb     C5  698   5.140   4.107   5.742  0.0983 -1.1943 -0.2822
   27bbb     C6  699   5.008   4.075   5.683 -0.2690  0.6445 -0.9252
   27bbb     C7  700   5.485   4.060   5.570 -0.4520  0.5052 -0.3791
   27bbb     C8  701   5.467   4.170   5.459  0.1926  0.5801 -0.2065
   27bbb     N2  702   5.491   4.306   5.520 -0.0174  1.0537  0.2117
   27bbb     O1  703   5.604   3.761   5.947  0.1015  0.6841 -0.3203
   27bbb     O2  704   4.970   3.960   5.663  0.0386  0.3561 -0.3057
   27bbb     H1  705   5.400   4.003   5.898  0.0066 -0.5210  0.1933
   27bbb     H2  706   5.422   3.877   5.767  1.1973  0.1425 -1.6090
   27bbb     H3  707   5.241   3.938   5.644 -2.8620  0.1211 -1.0793
   27bbb     H4  708   5.236   4.095   5.561 -1.0343  0.8972  1.8006
   27bbb     H5  709   5.656   3.956   5.765  5.6426 -1.2974  3.6218
   27bbb     H6  710   5.606   4.089   5.886 -2.7218  0.1700  0.8390
   27bbb     H7  711   5.160   4.215   5.740  2.6632 -1.5814  0.1310
   27bbb     H8  712   5.149   4.070   5.844 -1.6531 -0.4426  0.1758
   27bbb     H9  713   5.476   3.962   5.524  1.6880  1.1900 -2.4893
   27bbb    H10  714   5.589   4.063   5.603 -0.4028  1.0961 -0.5661
   27bbb    H11  715   5.369   4.158   5.412  0.2190  0.7690 -0.3093
   27bbb    H12  716   5.531   4.148   5.373 -0.9897  0.6880 -1.1221
   27bbb    H13  717   5.492   4.322   5.620  0.1108  3.0386 -0.0661
   27bbb    H25  718   5.421   4.169   5.741  1.1082 -1.4308  3.5129
   28bbb     N1  719   4.737   4.950   4.028  0.3029  0.2981 -0.0858
   28bbb     C1  720   4.607   4.935   4.111  0.0685 -0.7088  0.5893
   28bbb     C2  721   4.813   4.816   4.038 -0.7375  0.4409  0.2230
   28bbb     C3  722   4.497   4.835   4.063 -0.0456 -0.1909  0.1642
   28bbb     C4  723   4.372   4.835   4.162  0.1190  0.3508  0.0533
   28bbb     C5  724   4.857   4.761   4.181 -0.3928  0.1333  0.2395
   28bbb     C6  725   4.928   4.620   4.180 -0.8333 -0.4385  0.4879
   28bbb     C7  726   4.824   5.059   4.084  0.3080  0.1875  0.3331
   28bbb     C8  727   4.926   5.116   3.979  0.5878 -0.4225  0.0524
   28bbb     N2  728   4.971   5.245   4.023  0.0284 -0.5750 -0.0450
   28bbb     O1  729   4.344   4.927   4.236 -0.5122 -0.1946  0.5511
   28bbb     O2  730   4.972   4.575   4.078 -0.6115  0.3232 -0.0051
   28bbb     H1  731   4.637   4.901   4.211 -0.8113  1.2642  1.5911
   28bbb     H2  732   4.556   5.032   4.120  1.4528  0.1831 -0.7368
   28bbb     H3  733   4.900   4.825   3.973 -1.5264  2.0075 -0.6520
   28bbb     H4  734   4.749   4.742   3.989 -0.1934 -0.5743  1.0027
   28bbb     H5  735   4.450   4.858   3.966 -1.0281  1.0920  0.9052
   28bbb     H6  736   4.530   4.731   4.054  2.2106  0.4027  0.9054
   28bbb     H7  737   4.769   4.757   4.247 -3.1340  0.0740 -3.1411
   28bbb     H8  738   4.928   4.831   4.225 -1.1793  1.4444 -0.5135
   28bbb     H9  739   4.870   5.022   4.176  0.5524  0.5095  0.3447
   28bbb    H10  740   4.755   5.138   4.116  0.0611 -0.8923  2.7124
   28bbb    H11  741   4.872   5.115   3.883  0.0483 -2.1579  0.3410
   28bbb    H12  742   5.008   5.048   3.953 -0.7382 -1.3585 -2.0397
   28bbb    H13  743   4.914   5.327   4.003  0.2718 -0.3528  0.1582
   28bbb    H25  744   4.714   4.982   3.933  0.5098  1.3832  0.2191
   29bbb     N1  745   4.709   5.872   4.689  0.1485 -0.1501 -0.3925
   29bbb     C1  746   4.772   5.997   4.629  0.4972 -0.1019  0.6235
   29bbb     C2  747   4.560   5.894   4.721  0.0926  0.1047  1.3255
   29bbb     C3  748   4.737   6.016   4.484 -0.4824 -0.0958 -0.1722
   29bbb     C4  749   4.814   6.128   4.414  0.0068 -0.0245  0.1005
   29bbb     C5  750   4.481   5.782   4.795 -0.3667 -0.7302 -0.4450
   29bbb     C6  751   4.329   5.801   4.800 -0.5943 -0.1107 -0.5465
   29bbb     C7  752   4.771   5.831   4.821 -0.1344 -0.3193  0.1032
   29bbb     C8  753   4.925   5.812   4.817 -1.0325 -0.0258 -0.1661
   29bbb     N2  754   4.955   5.686   4.749  0.1513 -0.0654  0.0599
   29bbb     O1  755   4.910   6.182   4.465 -0.2262 -0.1390  0.4870
   29bbb     O2  756   4.275   5.907   4.829 -0.0667  0.2135 -0.3609
   29bbb     H1  757   4.751   6.083   4.693 -0.4559 -0.1718  0.4100
   29bbb     H2  758   4.880   5.987   4.641  0.8287  1.9062 -0.4639
   29bbb     H3  759   4.515   5.917   4.625  2.2865  1.0642  0.4526
   29bbb     H4  760   4.557   5.989   4.775 -0.2406  1.6286 -1.2074
   29bbb     H5  761   4.758   5.918   4.439  3.0890 -0.1144  1.2132
   29bbb     H6  762   4.630   6.032   4.471 -0.6969 -1.8130 -0.7420
   29bbb     H7  763   4.513   5.774   4.899 -0.6600  2.0277 -0.0664
   29bbb     H8  764   4.508   5.689   4.742 -0.1114  0.5352 -2.6805
   29bbb     H9  765   4.724   5.739   4.856 -0.6409 -0.0210  0.1987
   29bbb    H10  766   4.751   5.913   4.890 -1.1508 -1.5529  1.3287
   29bbb    H11  767   4.970   5.804   4.916 -2.4817 -0.6276  0.4692
   29bbb    H12  768   4.979   5.890   4.761  1.5791 -2.1834 -0.8991
   29bbb    H13  769   4.965   5.604   4.808  0.8380 -0.1176 -0.1248
   29bbb    H25  770   4.716   5.795   4.620  0.0330 -0.5780  0.0715
   30ccc     N1  771   6.296   6.492   6.507  0.0952  0.5717  0.3010
   30ccc     H4  772   6.374   6.447   6.460 -1.6753 -0.8789 -1.4268
   30ccc     C3  773   6.298   6.518   6.651 -0.1464 -0.4935  0.7389
   30ccc     C4  774   6.420   6.599   6.688  0.7963 -0.0678  0.0778
   30ccc     H5  775   6.286   6.422   6.702 -2.4895  0.1469  1.5070
   30ccc     H6  776   6.210   6.577   6.680 -0.3304  0.0046 -0.7270
   30ccc     H7  777   6.507   6.560   6.635 -0.8095 -0.1562 -2.6597
   30ccc     H8  778   6.412   6.698   6.643 -1.8323 -0.3818 -0.3173
   30ccc     N2  779   6.440   6.612   6.846  0.4109 -0.7011 -0.6946
   30ccc     H9  780   6.439   6.522   6.896 -0.6580 -0.6427 -0.5809
   30ccc    H10  781   6.536   6.646   6.860  0.1014  0.9752 -2.2895
   30ccc    H11  782   6.372   6.671   6.896  1.1601  0.1772 -0.7017
   31ccc     N1  783   5.774   6.339   6.377 -0.0108 -0.2275  0.0968
   31ccc     H4  784   5.727   6.415   6.330  1.1854  0.8280  0.5605
   31ccc     C3  785   5.747   6.324   6.520  0.4876 -0.5946  0.3910
   31ccc     C4  786   5.630   6.417   6.569 -0.3175 -0.6010  0.0569
   31ccc     H5  787   5.840   6.339   6.576  1.0784 -0.7158 -0.5337
   31ccc     H6  788   5.721   6.221   6.546 -1.1683 -0.4879 -0.6664
   31ccc     H7  789   5.604   6.384   6.670  0.2171 -1.3688 -0.0505
   31ccc     H8  790   5.663   6.520   6.583  1.7445 -1.3827  1.3843
   31ccc     N2  791   5.507   6.433   6.472 -0.8121  0.3572 -0.1245
   31ccc     H9  792   5.472   6.341   6.440  0.1093  0.6822 -2.2501
   31ccc    H10  793   5.429   6.487   6.510 -2.2445 -1.4402 -0.3716
   31ccc    H11  794   5.533   6.475   6.382 -0.9883 -1.6254 -1.1600
   32ccc     N1  795   5.192   7.651   5.827 -0.4152 -0.4842  0.2337
   32ccc     H4  796   5.224   7.714   5.754  0.9403  0.5380  1.6622
   32ccc     C3  797   5.104   7.701   5.936  0.4932  0.0835 -0.3558
   32ccc     C4  798   5.172   7.800   6.034 -0.0936 -0.0221 -0.3774
   32ccc     H5  799   5.069   7.618   5.999  1.9869 -0.0470  0.3337
   32ccc     H6  800   5.020   7.753   5.888  1.6333 -0.1452 -2.7030
   32ccc     H7  801   5.271   7.774   6.073  0.1972  1.6849  0.1194
   32ccc     H8  802   5.176   7.900   5.992  1.9058  0.1951  0.1887
   32ccc     N2  803   5.093   7.807   6.164  0.4255  0.1764  0.0846
   32ccc     H9  804   5.147   7.869   6.226 -0.6636 -0.3187  1.5889
   32ccc    H10  805   4.997   7.842   6.148  0.3793  0.4172  0.8622
   32ccc    H11  806   5.088   7.716   6.212  0.6739 -0.0556 -0.3233
   33ccc     N1  807   5.155   7.306   5.200  0.2980 -0.3181  0.1207
   33ccc     H4  808   5.140   7.218   5.248 -1.8729  0.4743  1.0485
   33ccc     C3  809   5.147   7.315   5.053  0.2985 -0.3533 -0.2830
   33ccc     C4  810   5.118   7.180   4.983  0.8405 -0.0963 -0.1006
   33ccc     H5  811   5.245   7.350   5.019  1.5931 -1.4337  2.0931
   33ccc     H6  812   5.072   7.391   5.027  0.8395  0.1382 -0.4288
   33ccc     H7  813   5.030   7.141   5.035  2.4928 -2.4811  1.0586
   33ccc     H8  814   5.093   7.193   4.878 -0.2717 -2.4919 -0.2059
   33ccc     N2  815   5.222   7.066   4.980  0.2480  0.1392 -0.2407
   33ccc     H9  816   5.179   6.979   4.944 -0.8050 -0.9783  3.2902
   33ccc    H10  817   5.303   7.092   4.922  0.8477  0.3736  0.6815
   33ccc    H11  818   5.244   7.042   5.078 -2.0099  1.6040  0.7000
   34ccc     N1  819   7.952   7.522   4.723  0.7396  0.1659 -0.1073
   34ccc     H4  820   7.941   7.443   4.785  1.8947  0.4454  0.4955
   34ccc     C3  821   8.067   7.520   4.634 -0.7414  0.4473  0.1820
   34ccc     C4  822   8.179   7.606   4.702 -0.4182  0.1090  0.8495
   34ccc     H5  823   8.035   7.550   4.534 -0.8135 -1.6264 -0.4667
   34ccc     H6  824   8.102   7.419   4.612 -0.1532  0.8950 -1.0264
   34ccc     H7  825   8.194   7.570   4.803 -0.8571 -0.1422  0.8277
   34ccc     H8  826   8.272   7.587   4.648 -0.4091 -1.4507  1.3669
   34ccc     N2  827   8.158   7.755   4.699 -0.3459  0.1964 -0.4486
   34ccc     H9  828   8.078   7.792   4.753 -0.4662 -0.3758 -0.2237
   34ccc    H10  829   8.239   7.808   4.732  0.4598 -2.1519  1.6835
   34ccc    H11  830   8.148   7.782   4.600  2.7104  0.6474 -0.7245
   35ccc     N1  831   7.507   7.993   4.887 -0.7181 -0.4596  0.7438
   35ccc     H4  832   7.587   7.971   4.830 -0.7211  1.7341 -0.2191
   35ccc     C3  833   7.502   8.137   4.940  0.0349  0.0020 -0.1959
   35ccc     C4  834   7.619   8.159   5.040 -0.1495 -0.3028  0.3379
   35ccc     H5  835   7.406   8.144   4.992  0.4582  1.2709  0.4436
   35ccc     H6  836   7.500   8.205   4.855 -3.5721 -2.1066 -2.0521
   35ccc     H7  837   7.712   8.153   4.984 -0.1396  1.1364  0.1668
   35ccc     H8  838   7.610   8.255   5.091 -1.7284 -0.9575  1.3576
   35ccc     N2  839   7.629   8.052   5.144 -0.1122 -0.4357  0.5405
   35ccc     H9  840   7.543   8.034   5.197  0.8659  0.8474  2.6947
   35ccc    H10  841   7.652   7.963   5.097 -3.3993 -2.1563  1.8369
   35ccc    H11  842   7.691   8.085   5.219 -0.5634  1.2107  0.2411
   36ccc     N1  843   6.565   8.055   3.658 -0.0450 -0.5292 -0.8783
   36ccc     H4  844   6.547   8.129   3.725 -3.5971  1.1808 -3.4345
   36ccc     C3  845   6.562   8.095   3.515 -0.3814  0.0112  0.8034
   36ccc     C4  846   6.614   8.227   3.471  0.8146 -0.4854  0.5079
   36ccc     H5  847   6.459   8.106   3.478  0.2105  0.2916 -0.8091
   36ccc     H6  848   6.606   8.008   3.464  0.9191  0.6213  0.8743
   36ccc     H7  849   6.599   8.244   3.365  0.3132  1.3656  0.8362
   36ccc     H8  850   6.560   8.310   3.517  2.7398  1.5601 -0.6838
   36ccc     N2  851   6.754   8.245   3.503 -0.1220  0.2391  0.1254
   36ccc     H9  852   6.791   8.339   3.483 -0.1976  0.2215 -0.0985
   36ccc    H10  853   6.780   8.216   3.598  1.1796 -0.6774 -0.4708
   36ccc    H11  854   6.816   8.188   3.443 -1.5388 -1.6116  0.3166
   37ccc     N1  855   6.066   7.667   4.089  0.5012  0.0696  0.3651
   37ccc     H4  856   6.102   7.572   4.081 -2.7475 -1.3577  0.7578
   37ccc     C3  857   5.919   7.680   4.087 -0.0722 -0.9875 -0.4725
   37ccc     C4  858   5.850   7.640   4.219  0.2403 -0.4761 -0.0898
   37ccc     H5  859   5.883   7.622   4.001 -1.9516  1.5168 -1.5128
   37ccc     H6  860   5.895   7.783   4.060  0.3052 -0.7980 -0.0994
   37ccc     H7  861   5.742   7.654   4.215  0.2750 -0.2976 -0.4086
   37ccc     H8  862   5.871   7.535   4.241 -0.1914 -0.4652  0.4038
   37ccc     N2  863   5.905   7.717   4.345 -0.2147  0.5094  0.3659
   37ccc     H9  864   6.002   7.691   4.365 -0.4558 -2.2621 -1.4485
   37ccc    H10  865   5.910   7.819   4.332  0.1954  0.4282 -0.1523
   37ccc    H11  866   5.850   7.696   4.430 -0.2472 -0.2633  0.1683
   38ccc     N1  867   7.604   6.102   3.269 -0.0507 -0.7967  0.0594
   38ccc     H4  868   7.598   6.203   3.273  1.0480 -0.6882 -0.5106
   38ccc     C3  869   7.676   6.064   3.151 -0.6383  0.5788 -0.2855
   38ccc     C4  870   7.580   6.029   3.040  0.0165  0.2530 -0.4088
   38ccc     H5  871   7.738   5.977   3.175  0.1443  1.7016  2.1058
   38ccc     H6  872   7.752   6.142   3.138 -1.7575  1.9128  0.8523
   38ccc     H7  873   7.552   5.923   3.041 -0.6490  0.4071 -1.2123
   38ccc     H8  874   7.487   6.081   3.060  0.7343  1.8266 -0.9928
   38ccc     N2  875   7.625   6.072   2.900  0.6006 -0.3038  0.4387
   38ccc     H9  876   7.718   6.028   2.890  0.0631 -1.1734 -0.9667
   38ccc    H10  877   7.563   6.032   2.829  0.1636 -0.9551  1.1660
   38ccc    H11  878   7.646   6.172   2.887  0.5714 -0.5541 -1.7895
   39ccc     N1  879   7.875   6.566   3.804 -0.2160  0.0529  0.5041
   39ccc     H4  880   7.818   6.587   3.886  0.5990 -2.5627  1.8283
   39ccc     C3  881   7.977   6.673   3.775  0.0393  0.4281  0.8441
   39ccc     C4  882   7.933   6.816   3.815 -0.4605  0.2154 -0.3079
   39ccc     H5  883   8.003   6.682   3.669  2.5592  0.5851  1.3885
   39ccc     H6  884   8.068   6.632   3.821  0.6445 -0.4028 -1.0189
   39ccc     H7  885   7.835   6.833   3.771 -0.6238  2.4838  0.7959
   39ccc     H8  886   7.921   6.823   3.923 -2.6721  2.0006 -0.5963
   39ccc     N2  887   8.019   6.929   3.763 -0.1370 -0.4783  0.1171
   39ccc     H9  888   8.113   6.900   3.793 -0.0653 -0.3706 -0.0026
   39ccc    H10  889   8.012   6.931   3.660  0.7854  1.2470  0.0411
   39ccc    H11  890   7.981   7.015   3.806 -0.2771 -0.4147 -0.1340
   40ccc     N1  891   9.128   5.521   4.270  0.0467 -0.5633 -0.1184
   40ccc     H4  892   9.082   5.608   4.294 -2.7736 -1.8639 -0.3905
   40ccc     C3  893   9.270   5.500   4.320  0.2705 -0.1737 -0.6324
   40ccc     C4  894   9.375   5.518   4.217  0.8794  0.9315 -0.4071
   40ccc     H5  895   9.279   5.400   4.362  1.9160 -0.5585 -1.8083
   40ccc     H6  896   9.291   5.566   4.405 -1.3568 -0.5158  0.0740
   40ccc     H7  897   9.400   5.420   4.178 -0.1064  1.0982 -1.5173
   40ccc     H8  898   9.336   5.581   4.136  1.5903  0.8456 -0.8213
   40ccc     N2  899   9.496   5.594   4.264 -0.0112  0.4076  0.5065
   40ccc     H9  900   9.473   5.672   4.327  1.3819  0.0589  1.4873
   40ccc    H10  901   9.552   5.532   4.324  1.4250  0.4752 -0.6977
   40ccc    H11  902   9.568   5.620   4.196  0.7425 -1.5266  0.5144
   41ccc     N1  903   8.827   5.399   3.512  0.1317  0.1990 -0.2440
   41ccc     H4  904   8.893   5.328   3.542 -0.2850 -0.3808 -0.6646
   41ccc     C3  905   8.799   5.413   3.369  0.2702 -0.1458 -0.0152
   41ccc     C4  906   8.838   5.291   3.284 -0.1125  0.0760  0.5421
   41ccc     H5  907   8.853   5.504   3.340 -1.7634  1.5719  1.2595
   41ccc     H6  908   8.695   5.440   3.347  0.3354 -0.5846 -0.9043
   41ccc     H7  909   8.785   5.202   3.318 -0.8176  0.2412 -0.0787
   41ccc     H8  910   8.815   5.310   3.179 -0.7533 -0.8750  0.4933
   41ccc     N2  911   8.988   5.278   3.270 -0.1600  0.1049 -0.2460
   41ccc     H9  912   9.032   5.254   3.360 -1.0950 -2.4116 -0.3793
   41ccc    H10  913   9.011   5.193   3.217  1.8793  0.1426  0.4939
   41ccc    H11  914   9.033   5.362   3.231  0.6778 -1.4461 -2.8340
   42ccc     N1  915   7.909   4.595   5.805 -0.3498 -0.9015  0.5043
   42ccc     H4  916   7.865   4.578   5.715 -0.7597 -0.5495  0.6349
   42ccc     C3  917   7.867   4.524   5.917 -0.3160  0.4290 -0.4125
   42ccc     C4  918   7.802   4.388   5.883 -0.1883 -0.6043  0.0555
   42ccc     H5  919   7.794   4.585   5.972 -0.1562  2.6606 -2.5077
   42ccc     H6  920   7.954   4.506   5.981 -0.9970  2.4978  1.2096
   42ccc     H7  921   7.871   4.340   5.813 -0.4268 -0.7458 -0.0835
   42ccc     H8  922   7.797   4.330   5.976  0.3181 -0.1800  0.3517
   42ccc     N2  923   7.664   4.392   5.818  0.1836  0.1762  0.0696
   42ccc     H9  924   7.634   4.309   5.765  0.0111  0.9094 -1.0120
   42ccc    H10  925   7.587   4.394   5.886 -0.4575 -0.2403 -0.6214
   42ccc    H11  926   7.656   4.465   5.746 -0.4371 -0.0216 -0.0646
   43ccc     N1  927   8.191   5.065   6.139 -0.7003  0.2659  0.0124
   43ccc     H4  928   8.105   5.112   6.162  0.1188  1.7956  0.1024
   43ccc     C3  929   8.283   5.041   6.248  0.0404 -0.7198 -0.2884
   43ccc     C4  930   8.364   5.166   6.276  0.0440  0.2387  0.4613
   43ccc     H5  931   8.353   4.960   6.227 -0.5295 -0.7408 -2.2820
   43ccc     H6  932   8.227   5.008   6.336  0.9224 -0.0494  0.5515
   43ccc     H7  933   8.417   5.168   6.372  0.5464  2.2281  0.1712
   43ccc     H8  934   8.439   5.171   6.196 -0.2025  0.1216  0.2220
   43ccc     N2  935   8.291   5.296   6.276 -0.0896 -0.2041 -0.1050
   43ccc     H9  936   8.359   5.372   6.258 -1.2446  1.2491  1.3436
   43ccc    H10  937   8.220   5.302   6.201  0.7418 -1.8426 -1.0569
   43ccc    H11  938   8.250   5.311   6.369  0.9513  1.5484  0.1166
   44ccc     N1  939   7.400   6.705   5.931  0.1038 -0.1633  0.6145
   44ccc     H4  940   7.500   6.699   5.914 -0.4480 -0.2292 -3.8766
   44ccc     C3  941   7.343   6.836   5.879  0.0426 -0.2126 -1.0046
   44ccc     C4  942   7.415   6.882   5.758  0.3269 -0.0290 -0.3019
   44ccc     H5  943   7.343   6.905   5.964 -2.0763  1.2428 -2.0902
   44ccc     H6  944   7.236   6.822   5.859 -0.6577  0.8781  1.6257
   44ccc     H7  945   7.511   6.923   5.789  1.9584 -1.3222 -3.2299
   44ccc     H8  946   7.450   6.807   5.687 -1.9645 -0.3033 -1.2375
   44ccc     N2  947   7.344   6.998   5.691  0.1575  0.3396 -0.0429
   44ccc     H9  948   7.259   6.959   5.648  0.8786  0.0688 -1.2531
   44ccc    H10  949   7.325   7.071   5.761 -0.6064 -0.2963  0.4323
   44ccc    H11  950   7.399   7.038   5.614 -0.7588  0.0508 -0.8557
   45ccc     N1  951   7.229   5.983   6.402  1.1109  0.4693  0.0932
   45ccc     H4  952   7.206   6.052   6.472  0.1538  1.2365 -0.9477
   45ccc     C3  953   7.224   5.838   6.443  1.5790  0.2738  0.1678
   45ccc     C4  954   7.106   5.767   6.374 -0.4905  0.3794 -0.0427
   45ccc     H5  955   7.207   5.834   6.551 -2.8558 -1.3143 -0.4052
   45ccc     H6  956   7.316   5.788   6.410  0.0576 -0.0560 -4.1501
   45ccc     H7  957   7.095   5.666   6.414 -1.6447  1.8182  3.6691
   45ccc     H8  958   7.017   5.827   6.392  1.2938  3.5235 -1.0246
   45ccc     N2  959   7.112   5.743   6.221 -0.2201  0.3212 -0.0434
   45ccc     H9  960   7.186   5.678   6.190 -0.1503 -0.3413  1.4298
   45ccc    H10  961   7.026   5.698   6.188  0.4686  0.7783 -2.7401
   45ccc    H11  962   7.123   5.832   6.169  1.6502 -0.7555 -1.6367
   46ccc     N1  963   8.016   4.270   4.254  0.0568  0.3891 -0.7900
   46ccc     H4  964   7.993   4.260   4.156  0.3577  2.4631 -1.1091
   46ccc     C3  965   8.111   4.368   4.296  0.7834 -0.2852 -0.0344
   46ccc     C4  966   8.195   4.427   4.177  0.7015  0.0032 -0.4015
   46ccc     H5  967   8.181   4.320   4.365  1.6688  1.3843  0.2839
   46ccc     H6  968   8.070   4.461   4.338 -0.3821  0.5418 -2.8069
   46ccc     H7  969   8.238   4.352   4.110 -0.8555 -0.3270 -1.0849
   46ccc     H8  970   8.118   4.472   4.113 -0.2714 -0.5484  0.3543
   46ccc     N2  971   8.301   4.529   4.204 -0.9404  0.4473 -0.1139
   46ccc     H9  972   8.345   4.566   4.118 -1.9341 -0.0344 -0.8419
   46ccc    H10  973   8.256   4.606   4.256  0.3192 -0.2333  2.1368
   46ccc    H11  974   8.370   4.495   4.273 -0.2265  1.5670 -0.2411
   47ccc     N1  975   7.493   3.573   4.565  0.5372  0.0559 -0.2178
   47ccc     H4  976   7.588   3.542   4.545  0.9315  0.3370  1.1219
   47ccc     C3  977   7.420   3.493   4.669  0.7681 -0.6528 -0.0651
   47ccc     C4  978   7.454   3.344   4.655  0.3872  0.3404 -0.4056
   47ccc     H5  979   7.311   3.491   4.655  0.7966 -1.3502 -0.2078
   47ccc     H6  980   7.451   3.530   4.767  1.3441 -0.6100 -0.2635
   47ccc     H7  981   7.421   3.303   4.559  2.6305  1.0200 -1.5449
   47ccc     H8  982   7.562   3.326   4.662  0.3821  0.5459  0.3028
   47ccc     N2  983   7.397   3.257   4.762 -0.5794  0.6149  0.5226
   47ccc     H9  984   7.328   3.190   4.724  0.3380  0.7968 -1.6095
   47ccc    H10  985   7.477   3.200   4.792  0.1687  0.0227 -2.3599
   47ccc    H11  986   7.360   3.308   4.844 -1.6159 -2.0427  1.8241
   48ccc     N1  987   6.327   3.074   3.398 -0.0713 -0.3902  0.0446
   48ccc     H4  988   6.302   3.131   3.318 -0.8306 -0.6573  0.0854
   48ccc     C3  989   6.279   2.936   3.419  0.0897 -0.5093  0.6105
   48ccc     C4  990   6.136   2.927   3.476 -0.0363 -0.0129  0.0728
   48ccc     H5  991   6.351   2.882   3.481 -1.5251  0.1056  3.1354
   48ccc     H6  992   6.266   2.881   3.325 -0.0779 -1.4373  1.1614
   48ccc     H7  993   6.153   2.967   3.576 -1.5553  2.2931 -0.4954
   48ccc     H8  994   6.078   2.977   3.398  0.4614 -0.9285 -0.9127
   48ccc     N2  995   6.090   2.783   3.484 -0.2173 -0.3663  0.3395
   48ccc     H9  996   5.991   2.789   3.512 -0.0550  0.2703  0.8039
   48ccc    H10  997   6.095   2.735   3.393 -1.9408 -0.9668  0.5174
   48ccc    H11  998   6.146   2.724   3.547  1.8957  0.8435 -0.3108
   49ccc     N1  999   6.983   3.203   3.209  0.2270  0.1879  0.1206
   49ccc     H4 1000   6.997   3.152   3.296 -1.9628  0.3978  0.6532
   49ccc     C3 1001   7.074   3.170   3.099 -0.5573  0.3126 -0.2370
   49ccc     C4 1002   7.179   3.067   3.142 -0.1959  0.3285 -0.1209
   49ccc     H5 1003   7.140   3.252   3.067  2.5096 -0.9450  2.2670
   49ccc     H6 1004   7.012   3.133   3.017  0.5116 -0.1549 -0.8580
   49ccc     H7 1005   7.237   3.102   3.228  0.3274  0.4250 -0.5116
   49ccc     H8 1006   7.128   2.974   3.167  1.3022 -0.1759  1.2788
   49ccc     N2 1007   7.281   3.039   3.035 -0.5059  1.1256  0.1148
   49ccc     H9 1008   7.230   3.004   2.953 -2.2402  0.9711  1.2087
   49ccc    H10 1009   7.343   3.118   3.009  1.3143 -0.3143 -0.0723
   49ccc    H11 1010   7.346   2.968   3.071 -0.3340  0.6872 -1.0387
   50ccc     N1 1011   7.535   5.285   3.908  0.2487  0.2620  0.5227
   50ccc     H4 1012   7.507   5.232   3.826 -0.8315 -0.7381  1.5194
   50ccc     C3 1013   7.450   5.400   3.955 -0.7259 -0.0063 -0.6953
   50ccc     C4 1014   7.300   5.394   3.914  0.0221 -0.8342  0.4341
   50ccc     H5 1015   7.490   5.490   3.906  0.6464 -0.9026 -1.3027
   50ccc     H6 1016   7.457   5.412   4.063  2.3636  1.8644 -0.9803
   50ccc     H7 1017   7.263   5.494   3.891 -1.8618 -1.3244  1.1448
   50ccc     H8 1018   7.287   5.336   3.823  1.4189 -0.2583 -0.1761
   50ccc     N2 1019   7.218   5.317   4.015 -0.4548  0.2744  0.3382
   50ccc     H9 1020   7.118   5.336   3.997 -0.2602  0.4387 -0.5969
   50ccc    H10 1021   7.231   5.215   4.005  0.9879  0.5371 -0.6962
   50ccc    H11 1022   7.235   5.341   4.114  2.7889 -0.4319  0.0648
   51ccc     N1 1023   8.215   5.050   4.146  0.6226 -0.4292  0.1308
   51ccc     H4 1024   8.167   5.138   4.161 -0.3804 -0.7954 -0.7685
   51ccc     C3 1025   8.290   4.996   4.259  0.5173  0.0689 -0.1100
   51ccc     C4 1026   8.275   5.079   4.388 -0.9333 -0.4047 -0.5217
   51ccc     H5 1027   8.396   4.994   4.229  0.3175 -1.3890 -0.8217
   51ccc     H6 1028   8.261   4.892   4.280 -0.8998  0.1679 -1.3568
   51ccc     H7 1029   8.304   5.182   4.364 -1.1117  0.3561  2.1813
   51ccc     H8 1030   8.169   5.075   4.413 -1.1189 -0.1966 -1.2396
   51ccc     N2 1031   8.359   5.034   4.508  0.4751  0.1498 -0.0536
   51ccc     H9 1032   8.455   5.006   4.481  0.0804 -0.2440 -1.1240
   51ccc    H10 1033   8.374   5.105   4.581  0.5531  1.0155 -0.8923
   51ccc    H11 1034   8.316   4.953   4.554 -0.6407  1.7426  1.8796
   52ccc     N1 1035   7.334   3.859   2.702 -1.1453 -0.1432  0.7033
   52ccc     H4 1036   7.433   3.860   2.721 -0.9380 -2.4152  0.0443
   52ccc     C3 1037   7.267   3.828   2.567  0.6493 -0.5785 -0.7588
   52ccc     C4 1038   7.370   3.835   2.456  0.3192  0.0051 -1.0344
   52ccc     H5 1039   7.184   3.896   2.544 -0.6583 -2.0384 -0.5960
   52ccc     H6 1040   7.211   3.734   2.579 -1.7136  1.0369  2.5114
   52ccc     H7 1041   7.392   3.942   2.463  1.9836 -0.3572 -0.2651
   52ccc     H8 1042   7.455   3.784   2.502 -0.8180  0.9387  2.4803
   52ccc     N2 1043   7.342   3.778   2.321  0.2556  0.0136  0.4193
   52ccc     H9 1044   7.429   3.778   2.266  2.3631  1.1931  3.5434
   52ccc    H10 1045   7.307   3.681   2.325  1.1073 -0.2625  1.5949
   52ccc    H11 1046   7.274   3.839   2.272  0.9821  1.1347  0.7706
   53ccc     N1 1047   6.997   4.025   3.295  0.3383 -0.3091 -0.2935
   53ccc     H4 1048   6.971   3.930   3.272  0.0856 -0.4557  0.5794
   53ccc     C3 1049   6.892   4.121   3.337  0.3680  0.2657  0.3871
   53ccc     C4 1050   6.758   4.070   3.281  0.2775  0.1237  0.2099
   53ccc     H5 1051   6.908   4.217   3.287 -2.1355 -0.0483 -1.1719
   53ccc     H6 1052   6.889   4.131   3.446  1.4903 -2.3572  0.7425
   53ccc     H7 1053   6.761   4.064   3.172 -2.7765  0.8653  0.0009
   53ccc     H8 1054   6.739   3.974   3.331  0.4119 -0.8517 -1.5266
   53ccc     N2 1055   6.635   4.160   3.308 -0.1260 -0.1856 -0.6210
   53ccc     H9 1056   6.648   4.260   3.286  0.8598 -0.1662  0.0062
   53ccc    H10 1057   6.553   4.123   3.257 -0.1024  0.2228 -0.9645
   53ccc    H11 1058   6.604   4.153   3.406  0.6633  0.7788 -0.2945
   54ccc     N1 1059   6.239   5.057   6.645  0.0095  0.2917  0.0628
   54ccc     H4 1060   6.314   5.123   6.629 -0.6647  1.1016  0.1277
   54ccc     C3 1061   6.247   4.989   6.775 -0.2542 -0.2817 -0.3896
   54ccc     C4 1062   6.396   4.971   6.818 -0.3388 -0.5792  0.3559
   54ccc     H5 1063   6.212   4.885   6.765 -1.3937  0.1066 -0.6451
   54ccc     H6 1064   6.184   5.049   6.842  0.6272 -1.5675  1.7094
   54ccc     H7 1065   6.400   4.919   6.913 -0.5876 -0.7354  0.2821
   54ccc     H8 1066   6.446   4.908   6.744  1.5430  0.1530  0.9494
   54ccc     N2 1067   6.474   5.099   6.838  0.1888  0.0564  0.3559
   54ccc     H9 1068   6.569   5.071   6.868 -0.5593 -2.3581  0.7105
   54ccc    H10 1069   6.484   5.163   6.758  1.0752  1.2004  1.3328
   54ccc    H11 1070   6.434   5.152   6.917  0.1475  0.2022  0.2366
   55ccc     N1 1071   6.137   5.612   5.981 -0.5743 -0.1158  0.4213
   55ccc     H4 1072   6.211   5.552   5.945 -1.3393 -1.1781  0.5704
   55ccc     C3 1073   6.123   5.747   5.918  0.4752  0.0012 -0.3301
   55ccc     C4 1074   6.081   5.733   5.772 -0.9729 -0.2629  0.2856
   55ccc     H5 1075   6.215   5.805   5.936 -0.3909  1.0537  0.8945
   55ccc     H6 1076   6.041   5.794   5.974 -0.4662  0.5895 -2.1214
   55ccc     H7 1077   6.041   5.637   5.741  1.3850 -1.0057 -0.7152
   55ccc     H8 1078   6.013   5.812   5.740 -0.1454  1.8225  3.1891
   55ccc     N2 1079   6.203   5.749   5.674  0.0373 -0.1264 -0.2872
   55ccc     H9 1080   6.218   5.848   5.648 -0.7663  0.2585  0.6528
   55ccc    H10 1081   6.288   5.700   5.704 -0.2699  0.2497  1.2808
   55ccc    H11 1082   6.176   5.707   5.583  1.1776  1.8668 -1.6177
   56ccc     N1 1083   5.637   3.938   6.083 -0.0410  0.3247  0.0642
   56ccc     H4 1084   5.654   4.038   6.089  1.9235  0.0021  0.5209
   56ccc     C3 1085   5.640   3.863   6.207 -0.6555 -0.5630 -0.6234
   56ccc     C4 1086   5.698   3.950   6.325  0.5473 -0.5722 -0.0242
   56ccc     H5 1087   5.716   3.784   6.198 -0.9268 -1.2394  2.2399
   56ccc     H6 1088   5.539   3.827   6.229 -0.8401 -0.0541 -0.6102
   56ccc     H7 1089   5.789   4.006   6.302  1.2812 -1.4818  0.6079
   56ccc     H8 1090   5.627   4.026   6.358  1.0014 -0.5622  0.9610
   56ccc     N2 1091   5.735   3.879   6.455  0.4130  0.2553  0.2274
   56ccc     H9 1092   5.652   3.854   6.510  0.9331 -0.0822  0.8768
   56ccc    H10 1093   5.785   3.793   6.430 -1.2017 -0.7101  0.2300
   56ccc    H11 1094   5.799   3.931   6.518  0.5985  0.7016 -0.3196
   57ccc     N1 1095   4.931   4.184   5.651  0.2940 -0.5495  0.0798
   57ccc     H4 1096   4.972   4.276   5.660 -0.6198 -0.0068 -0.9876
   57ccc     C3 1097   4.791   4.166   5.610 -0.3726  0.0039  0.3484
   57ccc     C4 1098   4.708   4.288   5.625  0.1596 -0.1043  0.0276
   57ccc     H5 1099   4.762   4.082   5.674  1.3107 -1.2079 -0.4073
   57ccc     H6 1100   4.797   4.139   5.504  0.7348 -0.6653  0.5694
   57ccc     H7 1101   4.693   4.313   5.730 -0.6105  0.4508 -0.1999
   57ccc     H8 1102   4.758   4.375   5.582  1.0178 -0.7044 -0.2079
   57ccc     N2 1103   4.577   4.271   5.561  0.1049 -0.1169  0.5426
   57ccc     H9 1104   4.587   4.273   5.458 -2.3848 -0.4306  0.2264
   57ccc    H10 1105   4.539   4.178   5.584  1.3329 -0.8847 -0.4248
   57ccc    H11 1106   4.507   4.341   5.589 -0.2581  0.3175 -1.2936
   58ccc     N1 1107   4.296   4.726   4.149 -0.6795  0.0646  0.0264
   58ccc     H4 1108   4.329   4.666   4.074 -0.4723  0.4890 -0.2261
   58ccc     C3 1109   4.179   4.688   4.225  0.1391  0.0566  1.0160
   58ccc     C4 1110   4.217   4.685   4.379  0.8272 -0.0172  0.0402
   58ccc     H5 1111   4.158   4.583   4.198  3.1212  0.4785 -4.0950
   58ccc     H6 1112   4.095   4.756   4.206  1.1263  0.7236 -1.2419
   58ccc     H7 1113   4.294   4.610   4.396  0.6264 -0.4920 -1.0837
   58ccc     H8 1114   4.260   4.778   4.417  0.9987 -0.2950  0.5288
   58ccc     N2 1115   4.107   4.639   4.477  0.2763 -0.4243 -0.1427
   58ccc     H9 1116   4.072   4.544   4.457 -2.0840  0.5220 -0.8019
   58ccc    H10 1117   4.133   4.652   4.576 -0.2198  1.3389 -0.2035
   58ccc    H11 1118   4.020   4.690   4.457  0.5386  0.8182  1.5764
   59ccc     N1 1119   4.935   4.552   4.303 -0.1836 -0.1088  0.5927
   59ccc     H4 1120   4.893   4.610   4.375  0.9729  1.9876 -0.3417
   59ccc     C3 1121   4.976   4.409   4.337  0.1005 -0.2461 -0.0241
   59ccc     C4 1122   4.909   4.360   4.467 -0.2885 -0.1955  0.2617
   59ccc     H5 1123   5.084   4.395   4.344 -0.0548 -0.9399  1.4145
   59ccc     H6 1124   4.944   4.350   4.250  1.1810 -0.2693 -0.4203
   59ccc     H7 1125   4.964   4.273   4.504 -1.8069 -0.1202  2.9920
   59ccc     H8 1126   4.919   4.440   4.542 -0.8001  1.0368 -0.9446
   59ccc     N2 1127   4.766   4.322   4.469 -0.7456  0.4681  0.2770
   59ccc     H9 1128   4.712   4.409   4.459  0.3923  1.3644  1.5428
   59ccc    H10 1129   4.758   4.270   4.381  0.3126  0.5254  0.1307
   59ccc    H11 1130   4.738   4.261   4.547 -0.7723 -0.1029 -0.1794
   60ccc     N1 1131   4.764   6.154   4.289  0.0636  0.2886  0.2111
   60ccc     H4 1132   4.703   6.085   4.247  2.2542 -0.7983 -1.3941
   60ccc     C3 1133   4.794   6.271   4.220 -0.2953 -0.5429  0.3932
   60ccc     C4 1134   4.683   6.288   4.112 -0.4021  0.0632  0.2753
   60ccc     H5 1135   4.895   6.264   4.179 -0.5738 -0.3873 -0.3419
   60ccc     H6 1136   4.779   6.357   4.286 -2.0943  0.4762 -1.2384
   60ccc     H7 1137   4.668   6.199   4.051 -2.2287  1.7185 -1.8642
   60ccc     H8 1138   4.595   6.323   4.166  1.7716  1.9133  2.9062
   60ccc     N2 1139   4.720   6.395   4.015 -0.2739 -0.6977  0.8006
   60ccc     H9 1140   4.815   6.385   3.976 -0.9093  1.3668 -1.5049
   60ccc    H10 1141   4.670   6.393   3.925  0.3156 -0.7709  0.4679
   60ccc    H11 1142   4.715   6.486   4.063 -0.6324  0.2624 -0.9577
   61ccc     N1 1143   4.260   5.704   4.731 -0.1628  0.5155  0.2076
   61ccc     H4 1144   4.320   5.632   4.694  2.0690  2.9084 -1.2517
   61ccc     C3 1145   4.114   5.702   4.710 -0.2406  0.8983  0.3692
   61ccc     C4 1146   4.080   5.582   4.625 -0.2875 -0.3090  0.2919
   61ccc     H5 1147   4.094   5.792   4.650  0.9198  0.0762 -1.3360
   61ccc     H6 1148   4.059   5.710   4.805 -1.2233  1.7480 -0.2527
   61ccc     H7 1149   4.145   5.601   4.539  1.2543  1.5400  1.7724
   61ccc     H8 1150   4.091   5.486   4.676 -4.6804 -1.2934 -0.2182
   61ccc     N2 1151   3.938   5.585   4.579 -0.0580  0.0048  0.2592
   61ccc     H9 1152   3.925   5.663   4.513  0.0405 -0.4672 -0.3335
   61ccc    H10 1153   3.910   5.501   4.527  1.3533 -2.6522  3.4257
   61ccc    H11 1154   3.872   5.586   4.659  0.9828  0.8570  1.1355
   62SOL     OW 1155   4.142   3.907   6.683  0.2774  0.4195  0.0575
   62SOL    HW1 1156   4.180   3.990   6.713  3.0221 -0.5181 -0.4691
   62SOL    HW2 1157   4.139   3.853   6.762 -2.3132  1.1996  0.5783
   63SOL     OW 1158   3.137   3.961   0.653 -0.4392 -0.0894  0.4011
   63SOL    HW1 1159   3.046   3.968   0.683 -0.8671 -0.1002 -0.8522
   63SOL    HW2 1160   3.149   3.868   0.635 -0.0907 -0.1257  0.8071
   64SOL     OW 1161   0.757   4.035   2.681  0.1122 -0.4181  0.4761
   64SOL    HW1 1162   0.722   3.947   2.695  0.8692 -0.4381  2.6090
   64SOL    HW2 1163   0.834   4.022   2.625  0.7108 -1.2454  1.4605
   65SOL     OW 1164   1.341   4.096   7.052  0.0200 -0.1317  0.6473
   65SOL    HW1 1165   1.349   4.009   7.091  2.0317  0.2545  1.1871
   65SOL    HW2 1166   1.378   4.087   6.964  2.0780  0.5777  1.3948
   66SOL     OW 1167   1.699   7.292   1.125 -0.5135 -0.0707  0.1177
   66SOL    HW1 1168   1.711   7.206   1.084 -1.1549 -0.1588  0.1118
   66SOL    HW2 1169   1.617   7.325   1.088  0.2426  0.9885 -0.6627
   67SOL     OW 1170   6.400   0.453   4.568  0.4016 -0.4492  0.1365
   67SOL    HW1 1171   6.381   0.547   4.560 -2.5293 -1.0186 -1.1156
   67SOL    HW2 1172   6.435   0.428   4.482  1.0242 -0.5506  0.4156
   68SOL     OW 1173   2.235   1.957   5.138 -0.2567  0.0490  0.1131
   68SOL    HW1 1174   2.188   2.015   5.198 -0.3084  2.0667 -1.7514
   68SOL    HW2 1175   2.302   1.916   5.192 -0.4128  1.6400  1.6049
   69SOL     OW 1176   0.088   5.014   6.634  0.5905  0.0378  0.7061
   69SOL    HW1 1177   0.098   5.084   6.698  0.4042  0.7499 -0.0206
   69SOL    HW2 1178   0.162   5.027   6.574 -0.6730  1.0482 -0.7317
   70SOL     OW 1179   1.261   0.109   3.058 -0.1317 -0.1310 -0.1299
   70SOL    HW1 1180   1.339   0.060   3.032 -0.8651 -1.9170  0.8783
   70SOL    HW2 1181   1.188   0.053   3.034 -0.9983  0.2714  1.4087
   71SOL     OW 1182   0.898   0.741   0.453  0.2174  0.7846 -0.8305
   71SOL    HW1 1183   0.879   0.809   0.518  1.6432 -0.1165  0.6069
   71SOL    HW2 1184   0.823   0.742   0.395  0.1199  3.4702 -0.7722
   72SOL     OW 1185   3.631   4.829   2.076 -0.1547 -0.2032  0.3474
   72SOL    HW1 1186   3.633   4.909   2.128  1.2864 -0.3412  0.5590
   72SOL    HW2 1187   3.660   4.760   2.137  1.2297 -0.4213 -0.5020
   73SOL     OW 1188   6.333   3.523   5.470 -0.7801 -0.0426  0.4780
   73SOL    HW1 1189   6.276   3.494   5.541  1.8856 -1.0950  2.3176
   73SOL    HW2 1190   6.421   3.497   5.497  0.3195 -1.4046 -3.6257
   74SOL     OW 1191   3.182   4.159   7.260  0.5141  0.1111  0.2894
   74SOL    HW1 1192   3.216   4.078   7.299 -1.2897 -0.4988  0.6971
   74SOL    HW2 1193   3.117   4.190   7.323 -1.3493 -0.0500 -1.4460
   75SOL     OW 1194   0.389   5.138   1.679  0.3605  0.3649 -0.1014
   75SOL    HW1 1195   0.384   5.182   1.594 -0.7892  2.3814  0.9451
   75SOL    HW2 1196   0.361   5.204   1.742  1.6484 -0.9257  1.9266
   76SOL     OW 1197   2.238   4.553   3.630 -0.2094 -0.2764 -0.5404
   76SOL    HW1 1198   2.182   4.502   3.689 -0.4601 -1.1749 -1.5211
   76SOL    HW2 1199   2.257   4.633   3.678 -0.5189 -0.9205  0.7081
   77SOL     OW 1200   3.047   7.117   0.926 -0.9427  0.2471  0.2918
   77SOL    HW1 1201   3.053   7.055   0.853 -0.9470 -0.7646  1.1225
   77SOL    HW2 1202   2.968   7.167   0.909 -0.8218  0.1682 -0.5111
   78SOL     OW 1203   6.260   4.092   4.759 -0.0021  0.1448  0.1511
   78SOL    HW1 1204   6.266   3.998   4.742  1.9559  0.7229 -3.2778
   78SOL    HW2 1205   6.173   4.116   4.726 -0.8615 -0.5367  1.8359
   79SOL     OW 1206   2.672   6.588   5.343  0.3637  0.2020 -0.2001
   79SOL    HW1 1207   2.758   6.592   5.300  0.7665  1.8859  0.6493
   79SOL    HW2 1208   2.664   6.498   5.373  2.0108  0.1017  0.0217
   80SOL     OW 1209   4.610   2.943   6.613 -0.1374 -0.5653  0.0271
   80SOL    HW1 1210   4.521   2.962   6.581 -0.6604  1.3984  2.3419
   80SOL    HW2 1211   4.666   2.956   6.536 -1.6296  0.5131 -0.9505
   81SOL     OW 1212   2.756   4.957   5.354 -0.2996  0.1256 -0.3750
   81SOL    HW1 1213   2.767   4.951   5.449  2.6119  0.4270 -0.5902
   81SOL    HW2 1214   2.817   5.027   5.328 -1.7038  0.6783 -2.3846
   82SOL     OW 1215   7.339   4.888   6.419  0.1771  0.0564  0.3560
   82SOL    HW1 1216   7.389   4.918   6.495  0.6314 -0.0321  0.0925
   82SOL    HW2 1217   7.332   4.793   6.431 -2.0527  0.3223  1.6714
   83SOL     OW 1218   1.874   2.602   6.504 -0.4911  0.2290 -0.2368
   83SOL    HW1 1219   1.910   2.653   6.432 -0.5563 -0.0394 -0.4621
   83SOL    HW2 1220   1.786   2.579   6.475  0.0078 -1.1656 -0.7340
   84SOL     OW 1221   3.291   6.142   5.168 -0.1437 -0.1432  0.3200
   84SOL    HW1 1222   3.217   6.099   5.211 -0.2830  1.3208  1.6065
   84SOL    HW2 1223   3.251   6.209   5.113  0.2178  0.6339  0.9967
   85SOL     OW 1224   0.149   0.713   3.564 -0.0570 -0.3539 -0.1124
   85SOL    HW1 1225   0.202   0.735   3.641 -1.4604  0.6639  0.6135
   85SOL    HW2 1226   0.062   0.697   3.599 -0.3129 -1.7778 -1.3061
   86SOL     OW 1227   4.912   6.748   6.330 -0.1947  0.7221 -0.4371
   86SOL    HW1 1228   4.902   6.808   6.404 -0.6369 -0.5206  0.5467
   86SOL    HW2 1229   4.825   6.746   6.289  0.3857  2.4817 -1.9023
   87SOL     OW 1230   0.820   0.117   1.759 -0.1144  0.1643  0.1258
   87SOL    HW1 1231   0.854   0.096   1.672  1.9731 -1.3599  1.2289
   87SOL    HW2 1232   0.737   0.069   1.764  0.1008 -0.3187 -0.7596
   88SOL     OW 1233   5.031   3.445   2.150 -0.3126 -0.2867  0.0842
   88SOL    HW1 1234   5.099   3.446   2.082 -0.2865 -0.2520  0.1112
   88SOL    HW2 1235   4.968   3.510   2.122 -1.7979 -2.2476 -1.4490
   89SOL     OW 1236   1.653   5.440   1.953 -0.1264  0.8643 -0.2807
   89SOL    HW1 1237   1.733   5.489   1.935 -0.1328  1.2218  0.6252
   89SOL    HW2 1238   1.613   5.427   1.867  2.0746 -1.4037 -1.1207
   90SOL     OW 1239   5.661   1.545   0.743 -0.1685 -0.3165  0.0295
   90SOL    HW1 1240   5.662   1.450   0.748  1.6045 -0.3470 -0.2244
   90SOL    HW2 1241   5.644   1.574   0.833  2.8621 -0.9094  0.9061
   91SOL     OW 1242   0.104   4.033   0.769 -0.0507 -0.1700  0.0588
   91SOL    HW1 1243   0.031   3.981   0.736  1.3659 -2.2266  0.0100
   91SOL    HW2 1244   0.134   3.986   0.847  0.6309  1.1777  0.6511
   92SOL     OW 1245   3.109   7.370   0.714  0.6481 -0.7060  0.1107
   92SOL    HW1 1246   3.033   7.399   0.664  3.0791  2.4975 -2.1444
   92SOL    HW2 1247   3.084   7.381   0.805 -1.6014  0.1037 -0.5512
   93SOL     OW 1248   6.094   2.650   4.596 -0.0324  0.1647  0.4055
   93SOL    HW1 1249   6.145   2.605   4.529  0.4356  0.1509  0.7605
   93SOL    HW2 1250   6.092   2.589   4.670 -0.3059  0.2908  0.5059
   94SOL     OW 1251   4.181   2.045   4.801 -0.2008 -0.1814  0.1854
   94SOL    HW1 1252   4.130   2.042   4.720 -1.8898  0.7059  1.1736
   94SOL    HW2 1253   4.163   1.961   4.844  0.2259 -0.4095 -0.0787
   95SOL     OW 1254   2.773   1.055   4.888 -0.5313  0.7091  0.2452
   95SOL    HW1 1255   2.732   0.973   4.859 -0.7411  0.3580  1.4685
   95SOL    HW2 1256   2.859   1.028   4.920 -0.1839  1.1284 -0.3280
   96SOL     OW 1257   1.854   7.262   6.107  0.1255 -0.0035  0.1235
   96SOL    HW1 1258   1.911   7.200   6.152  0.2989 -0.3737 -0.5832
   96SOL    HW2 1259   1.902   7.344   6.105  0.5148 -0.2375 -0.2129
   97SOL     OW 1260   5.370   2.295   6.666 -0.0456  0.2450  0.0864
   97SOL    HW1 1261   5.323   2.282   6.584 -0.8391  2.2886  0.1751
   97SOL    HW2 1262   5.459   2.266   6.647 -1.1404 -3.6493 -0.1188
   98SOL     OW 1263   1.300   6.234   4.406  0.1090  0.2905 -0.2122
   98SOL    HW1 1264   1.333   6.298   4.469  0.6385 -1.0366  0.9292
   98SOL    HW2 1265   1.371   6.225   4.342 -1.4477  3.5813 -2.6430
   99SOL     OW 1266   0.690   0.827   6.639  0.2651  0.2125  0.4332
   99SOL    HW1 1267   0.693   0.854   6.731 -0.8569  3.2064 -0.2967
   99SOL    HW2 1268   0.614   0.873   6.603  0.1763 -1.5572 -1.8196
  100SOL     OW 1269   4.338   4.918   4.952 -0.5185  0.1676  0.3462
  100SOL    HW1 1270   4.250   4.881   4.961 -0.3964 -0.2135  0.0255
  100SOL    HW2 1271   4.395   4.841   4.950 -0.2791  0.3580 -0.5604
  101SOL     OW 1272   0.923   2.448   5.098 -0.3140 -0.8337  0.4337
  101SOL    HW1 1273   0.840   2.458   5.051 -0.3835 -3.5845 -0.1983
  101SOL    HW2 1274   0.986   2.497   5.045 -1.3372  0.5402  0.4267
  102SOL     OW 1275   3.773   5.801   4.721  0.2461  0.0370  0.1684
  102SOL    HW1 1276   3.704   5.829   4.660  0.6820  1.3584  0.2724
  102SOL    HW2 1277   3.741   5.716   4.754  0.7521 -1.5983 -3.1066
  103SOL     OW 1278   4.539   0.388   0.030 -0.3292  0.6908 -0.8163
  103SOL    HW1 1279   4.519   0.298   0.058  0.5416  0.7436  0.0604
  103SOL    HW2 1280   4.618   0.410   0.080 -0.3050  1.7997 -1.3362
  104SOL     OW 1281   2.272   5.865   2.070 -0.1610 -0.6991  0.0164
  104SOL    HW1 1282   2.360   5.853   2.033 -0.3301 -1.5770 -0.1175
  104SOL    HW2 1283   2.287   5.912   2.152  0.3466 -0.0145 -0.4478
  105SOL     OW 1284   3.312   5.045   3.874 -0.0400 -0.4047 -0.1731
  105SOL    HW1 1285   3.222   5.071   3.855  0.0975  0.5619  0.4146
  105SOL    HW2 1286   3.360   5.066   3.794 -0.0634  0.5298  0.0520
  106SOL     OW 1287   4.713   6.591   1.279 -0.2931  0.3829  0.2928
  106SOL    HW1 1288   4.778   6.520   1.281 -1.2416 -0.4931  0.9206
  106SOL    HW2 1289   4.645   6.558   1.220 -1.0063  0.5216  1.0257
  107SOL     OW 1290   5.609   5.188   0.684 -0.5438 -0.0183  0.3414
  107SOL    HW1 1291   5.536   5.131   0.707 -0.1646 -0.0275  1.6298
  107SOL    HW2 1292   5.657   5.140   0.616 -2.0428  0.2598 -0.9691
  108SOL     OW 1293   2.125   2.471   7.234 -0.0060  0.3510  0.0655
  108SOL    HW1 1294   2.077   2.418   7.170  0.7618 -0.3491  0.0561
  108SOL    HW2 1295   2.174   2.407   7.286  1.8105  1.0897 -0.6584
  109SOL     OW 1296   4.317   3.309   0.644  0.2604  0.4492 -0.5684
  109SOL    HW1 1297   4.390   3.308   0.706 -1.7897 -0.7006  2.0020
  109SOL    HW2 1298   4.239   3.304   0.698 -1.7111 -0.6921 -3.2621
  110SOL     OW 1299   5.205   2.540   6.295  0.1618 -0.3802  0.3699
  110SOL    HW1 1300   5.145   2.547   6.370 -1.9429  2.1519 -1.3838
  110SOL    HW2 1301   5.155   2.572   6.221  2.6967 -1.2691 -1.8855
  111SOL     OW 1302   6.989   4.956   5.588 -0.2094 -0.3382 -0.0602
  111SOL    HW1 1303   7.001   4.995   5.675  1.4947 -0.3479 -0.2553
  111SOL    HW2 1304   7.007   5.028   5.527  1.0091 -0.9123 -0.4053
  112SOL     OW 1305   5.888   2.964   4.117 -0.5187  0.4310  0.3474
  112SOL    HW1 1306   5.965   3.005   4.154 -0.4437  1.7712 -1.1750
  112SOL    HW2 1307   5.906   2.959   4.023 -0.4244 -3.3721  0.4103
  113SOL     OW 1308   3.801   3.256   6.485  0.2981  0.4258  0.3508
  113SOL    HW1 1309   3.745   3.233   6.559  0.9610  0.4213  0.8625
  113SOL    HW2 1310   3.795   3.351   6.480  1.0388  0.5264  1.0672
  114SOL     OW 1311   2.537   0.122   0.913 -0.6132 -0.0099  0.1883
  114SOL    HW1 1312   2.525   0.028   0.912 -1.6649  0.1099  0.3932
  114SOL    HW2 1313   2.486   0.154   0.838  2.3009  0.1494 -1.8774
  115SOL     OW 1314   5.174   5.059   3.728 -0.7414 -0.5660 -0.0406
  115SOL    HW1 1315   5.240   5.111   3.684  0.1879 -0.0257  1.8729
  115SOL    HW2 1316   5.181   4.972   3.689  2.6842 -1.1541  1.5064
  116SOL     OW 1317   1.239   3.992   1.241  0.6364  0.0597  0.0376
  116SOL    HW1 1318   1.216   4.075   1.199  2.3140  0.1402 -0.7677
  116SOL    HW2 1319   1.206   3.925   1.182 -2.8326 -0.0111  1.7701
  117SOL     OW 1320   3.927   2.813   6.422 -0.0261  0.5519  0.1645
  117SOL    HW1 1321   3.846   2.859   6.404  0.0710  0.6546 -0.0126
  117SOL    HW2 1322   3.900   2.734   6.469 -0.2704  0.3771 -0.2550
  118SOL     OW 1323   4.651   4.483   2.602  0.5326 -0.0002 -0.2843
  118SOL    HW1 1324   4.718   4.531   2.555  0.0068  1.2556  0.2109
  118SOL    HW2 1325   4.592   4.450   2.534 -0.3460  1.9793 -0.5402
  119SOL     OW 1326   5.087   1.075   4.012 -0.6977 -0.1133 -0.3373
  119SOL    HW1 1327   5.141   1.134   3.959 -1.3365 -2.1153 -3.4560
  119SOL    HW2 1328   5.149   1.029   4.068  0.4827 -0.3443 -1.7979
  120SOL     OW 1329   0.529   4.657   6.402 -0.2272 -0.1531 -0.0868
  120SOL    HW1 1330   0.591   4.587   6.425 -0.0531 -0.3509 -1.0882
  120SOL    HW2 1331   0.550   4.678   6.311 -2.4272 -1.1038 -0.9032
  121SOL     OW 1332   6.505   6.294   3.808  0.8742  0.4036 -0.4425
  121SOL    HW1 1333   6.562   6.259   3.740 -0.1000  0.1259 -1.1392
  121SOL    HW2 1334   6.424   6.316   3.762 -0.6860 -1.9578  0.9553
  122SOL     OW 1335   5.580   5.851   7.265 -0.3826  0.0155  0.5643
  122SOL    HW1 1336   5.604   5.838   7.173  0.2236 -1.8087  0.9265
  122SOL    HW2 1337   5.528   5.931   7.265 -2.7323 -1.3473 -1.7949
  123SOL     OW 1338   1.285   3.754   4.221 -0.4621 -0.5175  0.6616
  123SOL    HW1 1339   1.359   3.700   4.192  0.1527  0.9614 -0.6723
  123SOL    HW2 1340   1.208   3.698   4.209  0.3139 -1.7096  1.0619
  124SOL     OW 1341   4.715   0.100   2.820 -0.0915 -0.1419 -0.1808
  124SOL    HW1 1342   4.622   0.122   2.822 -0.2586 -0.6586 -1.2919
  124SOL    HW2 1343   4.752   0.156   2.752  0.6401  0.8193  0.9777
  125SOL     OW 1344   2.186   1.002   3.456 -0.8132 -0.3620 -0.2893
  125SOL    HW1 1345   2.205   0.995   3.362 -0.4219 -1.0256 -0.1734
  125SOL    HW2 1346   2.219   0.919   3.492  0.9988  0.7417  0.7509
  126SOL     OW 1347   2.694   6.984   6.336  0.2363  0.8812 -0.0324
  126SOL    HW1 1348   2.632   6.918   6.365  0.5877  1.0899  1.2612
  126SOL    HW2 1349   2.769   6.975   6.395  1.7382  0.2311 -1.9245
  127SOL     OW 1350   2.053   2.407   4.828  0.3207 -0.0811  0.7340
  127SOL    HW1 1351   2.008   2.389   4.746 -1.1782  1.4726  1.1582
  127SOL    HW2 1352   2.144   2.423   4.803  0.2818 -1.4192 -0.3694
  128SOL     OW 1353   1.252   4.662   6.398  0.6889 -0.4565  0.0800
  128SOL    HW1 1354   1.167   4.702   6.416  1.0143  0.3623 -0.1658
  128SOL    HW2 1355   1.275   4.617   6.480  0.1801 -0.3936  0.2610
  129SOL     OW 1356   0.042   3.163   0.533  0.0353  0.2639 -0.1879
  129SOL    HW1 1357   0.117   3.103   0.531 -0.7365 -0.7150 -1.5080
  129SOL    HW2 1358   0.064   3.231   0.468  0.4675  0.8846  0.5890
  130SOL     OW 1359   4.870   2.455   0.508  0.2378  0.0497 -0.6781
  130SOL    HW1 1360   4.874   2.402   0.428  0.9698 -0.9698  0.0142
  130SOL    HW2 1361   4.812   2.528   0.485 -0.1271 -0.5977 -1.9116
  131SOL     OW 1362   0.607   4.383   6.214  0.2818 -0.2595 -0.2019
  131SOL    HW1 1363   0.520   4.419   6.229  0.0654  0.0896 -2.1162
  131SOL    HW2 1364   0.662   4.426   6.280 -0.8542 -0.0397  0.6428
  132SOL     OW 1365   7.317   3.246   5.898 -0.3914 -0.2828  0.0910
  132SOL    HW1 1366   7.322   3.340   5.883 -0.8670 -0.3319 -0.3996
  132SOL    HW2 1367   7.357   3.207   5.820 -2.4069 -0.5252 -0.9062
  133SOL     OW 1368   4.737   3.991   6.936 -0.4664  0.6004 -0.4042
  133SOL    HW1 1369   4.729   4.008   7.030 -1.8585  0.7241 -0.5308
  133SOL    HW2 1370   4.669   3.927   6.918  0.5294 -0.2911 -1.1383
  134SOL     OW 1371   5.099   1.497   3.243 -0.0952  0.9115 -0.4561
  134SOL    HW1 1372   5.075   1.419   3.195  0.4430  0.6037 -0.2339
  134SOL    HW2 1373   5.059   1.569   3.194 -1.5145  0.4281 -0.0612
  135SOL     OW 1374   0.368   4.779   7.067 -0.1146  0.0600 -0.3089
  135SOL    HW1 1375   0.378   4.814   7.156  1.8478 -0.7087 -0.1763
  135SOL    HW2 1376   0.394   4.851   7.010  2.0075 -0.4544 -0.0954
  136SOL     OW 1377   5.363   6.235   1.372 -0.4794 -0.0886 -0.5225
  136SOL    HW1 1378   5.456   6.256   1.380 -0.6893  0.7046 -0.0549
  136SOL    HW2 1379   5.338   6.205   1.460 -0.7750  0.1778 -0.5139
  137SOL     OW 1380   2.487   6.770   0.032  0.0956  0.3534 -0.7796
  137SOL    HW1 1381   2.421   6.787   0.099 -0.7880 -0.3472 -1.4416
  137SOL    HW2 1382   2.533   6.853   0.022 -1.7642  1.3648 -1.4414
  138SOL     OW 1383   0.360   7.339   3.261 -0.2018 -0.2678  0.8408
  138SOL    HW1 1384   0.402   7.327   3.346 -1.2551 -0.9081  1.2923
  138SOL    HW2 1385   0.366   7.253   3.219 -0.6626 -0.2562  0.7389
  139SOL     OW 1386   5.587   3.910   3.003 -0.5476  0.8636  0.3394
  139SOL    HW1 1387   5.663   3.891   2.947 -1.0449 -1.5753  0.3891
  139SOL    HW2 1388   5.526   3.957   2.945 -0.1233  0.3937 -0.5082
  140SOL     OW 1389   1.904   2.211   1.556  0.6493 -0.6118  0.2810
  140SOL    HW1 1390   1.858   2.232   1.637 -1.4680  2.7355 -1.5503
  140SOL    HW2 1391   1.978   2.272   1.553  0.3381 -0.2486 -0.5428
  141SOL     OW 1392   0.603   5.168   4.891 -0.5368 -0.7722 -0.0238
  141SOL    HW1 1393   0.567   5.203   4.973 -2.2283  0.2508 -1.1449
  141SOL    HW2 1394   0.532   5.114   4.856  0.2746 -1.4181 -0.6785
  142SOL     OW 1395   2.369   6.445   6.582 -0.4995 -0.5778 -0.0263
  142SOL    HW1 1396   2.341   6.478   6.497  1.5788 -1.2370 -1.0509
  142SOL    HW2 1397   2.315   6.492   6.646 -3.1297 -1.1127 -1.7168
  143SOL     OW 1398   4.539   6.995   2.342  0.5108 -0.2939  0.3620
  143SOL    HW1 1399   4.526   6.903   2.319  2.4321 -0.4574 -0.2875
  143SOL    HW2 1400   4.472   7.041   2.293 -0.3966 -1.3323  0.5909
  144SOL     OW 1401   4.832   5.430   4.339 -0.1000  0.1375 -0.3863
  144SOL    HW1 1402   4.771   5.427   4.266  0.4109  0.3577 -0.8216
  144SOL    HW2 1403   4.795   5.495   4.399 -0.5558 -0.0981 -0.4021
  145SOL     OW 1404   0.223   2.055   0.220 -0.0858 -0.5408 -0.0773
  145SOL    HW1 1405   0.136   2.094   0.231  0.0180 -0.6840  1.5909
  145SOL    HW2 1406   0.205   1.968   0.184 -0.7041 -0.8129  0.8418
  146SOL     OW 1407   1.782   0.444   7.227 -0.5554  0.7817 -0.0579
  146SOL    HW1 1408   1.845   0.392   7.277  1.2678  1.7890 -1.1713
  146SOL    HW2 1409   1.719   0.475   7.292 -1.1585 -1.9402  0.7821
  147SOL     OW 1410   4.370   4.228   0.168 -0.2935 -0.1787  0.0803
  147SOL    HW1 1411   4.322   4.162   0.217  2.4982 -1.9948  0.5844
  147SOL    HW2 1412   4.393   4.185   0.086  1.8229 -0.0043  0.5369
  148SOL     OW 1413   5.798   5.052   2.929  0.7257  0.2405  0.4417
  148SOL    HW1 1414   5.814   4.958   2.914 -0.5434  0.0019  0.5391
  148SOL    HW2 1415   5.809   5.091   2.842  2.4850  0.2183  0.6047
  149SOL     OW 1416   1.832   5.073   3.936 -0.3597  0.3035 -0.5506
  149SOL    HW1 1417   1.851   5.088   4.028  1.6902  1.0622 -1.0455
  149SOL    HW2 1418   1.748   5.026   3.936 -0.7500  0.8966  1.6358
  150SOL     OW 1419   6.189   2.478   5.691  0.1258  0.4943  0.6232
  150SOL    HW1 1420   6.259   2.441   5.745  0.0498  0.5046  0.7287
  150SOL    HW2 1421   6.229   2.488   5.605 -0.0663 -0.5262  0.4012
  151SOL     OW 1422   4.943   4.846   3.435 -0.1927 -0.0241 -0.1587
  151SOL    HW1 1423   4.945   4.918   3.372  0.7020 -0.6845 -0.9104
  151SOL    HW2 1424   4.863   4.798   3.414 -0.6226  0.5482  0.1339
  152SOL     OW 1425   4.979   2.067   1.712 -0.0323  0.9462 -0.2823
  152SOL    HW1 1426   5.034   2.045   1.787 -1.1474  0.9604  0.5562
  152SOL    HW2 1427   5.041   2.085   1.642  1.0235 -2.3403 -0.3437
  153SOL     OW 1428   2.251   6.068   2.360 -0.0893  0.2590  0.2496
  153SOL    HW1 1429   2.180   6.124   2.391  1.9324  0.6598  4.8869
  153SOL    HW2 1430   2.327   6.126   2.355  1.3347 -1.3146  2.0999
  154SOL     OW 1431   5.434   3.703   0.298  0.2263 -0.4058  0.3745
  154SOL    HW1 1432   5.442   3.762   0.373  0.6159  0.3009 -0.2010
  154SOL    HW2 1433   5.516   3.653   0.298  0.5090  0.0458  0.0601
  155SOL     OW 1434   3.100   2.761   2.611 -0.4549 -0.8020 -0.3155
  155SOL    HW1 1435   3.116   2.839   2.558 -0.3859 -0.3729  0.3386
  155SOL    HW2 1436   3.091   2.691   2.546  0.3453 -0.4127 -0.8737
  156SOL     OW 1437   2.686   4.589   0.297 -0.0482 -0.4901  0.4692
  156SOL    HW1 1438   2.651   4.541   0.222 -3.4194  1.5257  0.5506
  156SOL    HW2 1439   2.740   4.658   0.258 -0.1300 -0.6879 -0.0021
  157SOL     OW 1440   3.320   2.494   4.286 -0.0727  0.3693  0.3516
  157SOL    HW1 1441   3.273   2.464   4.363  1.1422  0.5170  1.1761
  157SOL    HW2 1442   3.406   2.450   4.292 -0.4257 -0.7143 -1.6499
  158SOL     OW 1443   0.614   3.220   7.305 -0.2616 -0.4242  0.2696
  158SOL    HW1 1444   0.704   3.189   7.311  0.2265  0.7306 -0.6364
  158SOL    HW2 1445   0.591   3.243   7.395  1.0967  1.1682  0.2735
  159SOL     OW 1446   7.327   5.566   6.149  0.2450  0.2892  0.0713
  159SOL    HW1 1447   7.305   5.473   6.154 -0.2219  0.4316  1.0002
  159SOL    HW2 1448   7.417   5.572   6.180  0.3848  0.1014 -0.3098
  160SOL     OW 1449   4.786   4.670   3.136 -0.5451 -0.2928 -0.5657
  160SOL    HW1 1450   4.876   4.637   3.132 -0.2495  0.5327 -1.1230
  160SOL    HW2 1451   4.783   4.740   3.070 -1.1879  0.6665  0.4316
  161SOL     OW 1452   2.568   5.904   5.068 -0.9215 -0.2740 -0.2588
  161SOL    HW1 1453   2.549   5.901   5.162  0.7591  0.6093  0.1512
  161SOL    HW2 1454   2.543   5.817   5.036  0.9680 -1.5937  1.5601
  162SOL     OW 1455   1.865   5.871   6.714  0.3968 -0.1413  0.2863
  162SOL    HW1 1456   1.807   5.902   6.645 -0.6984 -0.0679  1.2082
  162SOL    HW2 1457   1.950   5.911   6.694  0.4432 -1.1391 -1.7033
  163SOL     OW 1458   0.153   0.526   6.673  0.4805 -0.3291 -0.0874
  163SOL    HW1 1459   0.108   0.556   6.752  1.9503 -2.7153  1.8195
  163SOL    HW2 1460   0.111   0.442   6.652 -0.0714  0.3905 -2.0708
  164SOL     OW 1461   5.781   6.240   4.380  0.2193 -0.2772  0.0982
  164SOL    HW1 1462   5.728   6.263   4.304  0.3652  1.9604  0.6117
  164SOL    HW2 1463   5.771   6.314   4.440  1.5413 -1.1646  1.5018
  165SOL     OW 1464   3.678   3.011   0.152  0.8174 -0.6631  1.2205
  165SOL    HW1 1465   3.592   3.022   0.192  1.1574 -1.3961  2.1967
  165SOL    HW2 1466   3.670   2.932   0.099 -0.2029  1.3101 -1.8634
  166SOL     OW 1467   6.613   3.706   7.246  0.4611  0.3307  0.3751
  166SOL    HW1 1468   6.652   3.627   7.284  0.5768  1.1430  2.0204
  166SOL    HW2 1469   6.645   3.707   7.155  1.1790 -1.0247  0.5878
  167SOL     OW 1470   3.931   2.226   5.761 -0.0910 -0.4976 -0.1052
  167SOL    HW1 1471   3.952   2.133   5.770  0.4344 -0.3151  0.6609
  167SOL    HW2 1472   3.873   2.230   5.685 -0.4221 -1.4921  0.0737
  168SOL     OW 1473   0.123   4.127   4.666  0.6319 -0.1716  0.6967
  168SOL    HW1 1474   0.125   4.212   4.711  0.4021  0.8426 -1.1144
  168SOL    HW2 1475   0.212   4.093   4.675  1.4477  1.4494 -0.6333
  169SOL     OW 1476   7.309   5.758   3.887 -0.4938  0.0264 -0.3832
  169SOL    HW1 1477   7.380   5.707   3.849  0.0780  0.2628  0.3500
  169SOL    HW2 1478   7.316   5.845   3.846 -0.5842 -0.0545 -0.5718
  170SOL     OW 1479   4.908   6.005   2.339  0.3260 -0.3831 -0.5276
  170SOL    HW1 1480   4.894   5.911   2.351 -2.8906  0.0232 -0.2634
  170SOL    HW2 1481   4.873   6.024   2.252 -3.3547  1.1412  1.0644
  171SOL     OW 1482   3.395   7.011   6.661  0.2868  0.0462 -0.7895
  171SOL    HW1 1483   3.428   6.940   6.606  2.7454  0.4274  0.0512
  171SOL    HW2 1484   3.393   6.974   6.749  0.9721  0.7768 -0.4463
  172SOL     OW 1485   6.499   3.406   2.216 -0.0399 -0.4347  0.6705
  172SOL    HW1 1486   6.517   3.326   2.168  0.8225  0.5093 -0.6604
  172SOL    HW2 1487   6.573   3.417   2.276  0.2388 -0.2319  0.2906
  173SOL     OW 1488   4.296   2.440   6.412  0.4369 -0.0269  0.0518
  173SOL    HW1 1489   4.250   2.479   6.487  2.0062  1.7495  0.1392
  173SOL    HW2 1490   4.269   2.348   6.414 -0.2136  0.1416  2.3117
  174SOL     OW 1491   1.880   4.831   0.748  0.5134 -0.0152 -0.4083
  174SOL    HW1 1492   1.964   4.790   0.765  0.3776 -0.1576 -0.0551
  174SOL    HW2 1493   1.822   4.759   0.723 -0.2326 -0.3851  2.0854
  175SOL     OW 1494   0.978   0.674   3.990  0.7534 -0.5010 -0.1763
  175SOL    HW1 1495   1.031   0.651   4.065  1.4191  0.0051 -0.4827
  175SOL    HW2 1496   1.026   0.641   3.914  1.4450  1.3189 -0.5802
  176SOL     OW 1497   0.902   7.154   3.655  0.0372 -0.0572 -0.2358
  176SOL    HW1 1498   0.823   7.205   3.670  0.2771  0.1745  0.2491
  176SOL    HW2 1499   0.974   7.215   3.668  0.3100  0.4863 -3.3820
  177SOL     OW 1500   1.920   0.551   5.127 -0.0005 -0.2223  0.5076
  177SOL    HW1 1501   1.921   0.536   5.221 -0.2973  1.1732  0.7538
  177SOL    HW2 1502   1.995   0.608   5.111 -1.0710  1.1745  0.2269
  178SOL     OW 1503   2.916   4.146   5.163  1.1428  0.2571 -0.3648
  178SOL    HW1 1504   2.868   4.069   5.194 -1.6188  1.2874 -1.7906
  178SOL    HW2 1505   3.002   4.111   5.137 -0.1990 -2.4984 -1.5568
  179SOL     OW 1506   3.202   3.823   2.974  0.3623  0.1668  0.4980
  179SOL    HW1 1507   3.264   3.821   2.900  2.8031  0.3205  2.4224
  179SOL    HW2 1508   3.147   3.746   2.960  1.2550 -0.2470 -1.0608
  180SOL     OW 1509   5.452   1.854   7.133 -0.0729  0.2330  0.4753
  180SOL    HW1 1510   5.454   1.767   7.172  0.8781  0.2707  0.5130
  180SOL    HW2 1511   5.373   1.895   7.170 -0.1443 -0.3613  0.9896
  181SOL     OW 1512   1.176   4.769   1.757  0.3606 -0.1927  0.5926
  181SOL    HW1 1513   1.165   4.753   1.663 -0.5051 -1.6339  0.8968
  181SOL    HW2 1514   1.142   4.858   1.770 -1.3520 -0.6759 -0.1967
  182SOL     OW 1515   6.884   0.487   5.341 -0.1753  0.1478  1.0525
  182SOL    HW1 1516   6.864   0.426   5.412  2.5728 -0.6055  1.2781
  182SOL    HW2 1517   6.976   0.509   5.353 -0.7172  3.3659  0.1719
  183SOL     OW 1518   2.592   0.486   6.428 -0.4147  0.4622  0.5773
  183SOL    HW1 1519   2.648   0.410   6.444 -1.4299 -0.9841 -2.1605
  183SOL    HW2 1520   2.503   0.452   6.427 -0.8130  1.2732 -2.1919
  184SOL     OW 1521   2.540   5.095   2.764 -0.0520 -0.3836  0.2843
  184SOL    HW1 1522   2.544   5.176   2.814  0.5135  0.7786 -1.5341
  184SOL    HW2 1523   2.628   5.087   2.725 -0.2217 -1.6625  0.1337
  185SOL     OW 1524   3.086   2.270   6.198 -0.1551  0.8747  0.0203
  185SOL    HW1 1525   3.105   2.355   6.239 -0.4232  0.9160  0.0596
  185SOL    HW2 1526   3.124   2.206   6.257  1.4506  1.0283 -0.7973
  186SOL     OW 1527   2.803   7.100   2.835 -0.0908 -0.5168  0.4048
  186SOL    HW1 1528   2.892   7.126   2.859  0.3414 -0.7810 -0.8408
  186SOL    HW2 1529   2.807   7.085   2.740 -0.9634 -2.4699  0.6209
  187SOL     OW 1530   6.964   0.327   2.631  0.3751  0.5319 -0.6165
  187SOL    HW1 1531   6.954   0.309   2.537  0.3983 -0.0754 -0.5118
  187SOL    HW2 1532   7.058   0.334   2.645  0.6611 -2.7689 -0.0911
  188SOL     OW 1533   4.825   1.454   2.243 -0.2468  0.1403  0.2863
  188SOL    HW1 1534   4.865   1.387   2.299  0.4194  0.4962  0.2448
  188SOL    HW2 1535   4.802   1.407   2.162  1.7999  0.2937 -0.4384
  189SOL     OW 1536   4.087   5.728   3.406  0.4561 -0.4974 -0.2348
  189SOL    HW1 1537   4.077   5.739   3.501  3.6230 -2.6052  0.5056
  189SOL    HW2 1538   4.079   5.633   3.393  3.4101 -0.6652 -1.4684
  190SOL     OW 1539   4.559   6.236   4.800  0.2563 -0.1975 -0.3907
  190SOL    HW1 1540   4.580   6.276   4.885  0.1211 -0.9446 -0.0028
  190SOL    HW2 1541   4.488   6.174   4.820 -0.0547 -0.0836 -1.1202
  191SOL     OW 1542   1.976   2.159   4.952 -0.4124 -0.2586 -0.4903
  191SOL    HW1 1543   1.922   2.148   4.874  0.0601  1.1046 -1.0560
  191SOL    HW2 1544   2.020   2.243   4.937  0.5982 -0.5642  0.7015
  192SOL     OW 1545   3.770   3.671   2.579 -0.0287  0.3160 -0.0511
  192SOL    HW1 1546   3.696   3.627   2.537 -0.7031  1.7058 -0.4119
  192SOL    HW2 1547   3.732   3.714   2.656  0.7130 -0.1686  0.5966
  193SOL     OW 1548   6.766   4.468   2.682  0.6118  0.2310 -0.1625
  193SOL    HW1 1549   6.751   4.388   2.632 -1.3650  1.1226 -1.1320
  193SOL    HW2 1550   6.856   4.493   2.660  0.7447 -0.9088 -1.0446
  194SOL     OW 1551   3.981   6.625   3.831  0.0176  0.7630  0.7276
  194SOL    HW1 1552   3.935   6.703   3.801  0.4613  0.8067  0.1440
  194SOL    HW2 1553   4.061   6.622   3.779  0.0040 -0.0906  0.7320
  195SOL     OW 1554   0.090   4.251   5.250  0.1620 -0.0587 -0.2190
  195SOL    HW1 1555   0.110   4.170   5.203  0.0081 -0.4904  0.4438
  195SOL    HW2 1556   0.056   4.222   5.334  0.8031  0.7003  0.3225
  196SOL     OW 1557   7.319   6.922   3.401 -0.9158 -0.0490  0.1649
  196SOL    HW1 1558   7.285   6.914   3.312 -1.4061 -1.2682  0.4381
  196SOL    HW2 1559   7.330   7.016   3.414 -1.1363  0.1691 -1.0662
  197SOL     OW 1560   2.885   2.993   1.612 -0.0817  0.6365  0.4028
  197SOL    HW1 1561   2.925   2.906   1.610  0.6767  0.9761  0.9204
  197SOL    HW2 1562   2.898   3.027   1.523  2.1392  1.3461  0.9456
  198SOL     OW 1563   4.732   6.071   0.266 -0.5002  0.1308  0.5020
  198SOL    HW1 1564   4.651   6.112   0.295 -0.6966 -0.6612  1.0955
  198SOL    HW2 1565   4.799   6.103   0.326 -0.0477  1.9860 -0.8949
  199SOL     OW 1566   1.168   4.561   0.891 -0.5891  0.0607 -0.1618
  199SOL    HW1 1567   1.086   4.546   0.939  0.0633  0.3184  1.0812
  199SOL    HW2 1568   1.183   4.655   0.899 -0.2476  0.0390 -0.5276
  200SOL     OW 1569   4.471   6.475   1.187 -0.0579  0.3687  0.0867
  200SOL    HW1 1570   4.490   6.408   1.253  1.9521  1.2696  0.4897
  200SOL    HW2 1571   4.391   6.444   1.145 -0.0200 -1.5168  1.2540
  201SOL     OW 1572   5.588   6.814   1.843  0.0913 -0.7780 -0.4653
  201SOL    HW1 1573   5.598   6.858   1.759  0.2596 -0.2078 -0.1527
  201SOL    HW2 1574   5.567   6.884   1.904  3.4077 -0.5968  0.6642
  202SOL     OW 1575   5.821   1.007   5.669 -0.1420  0.2396 -0.3688
  202SOL    HW1 1576   5.732   1.035   5.693  0.1191  0.5405  0.2907
  202SOL    HW2 1577   5.826   1.023   5.575 -0.4844  1.1053 -0.2568
  203SOL     OW 1578   3.395   6.986   4.397  0.7641 -0.4818  0.0768
  203SOL    HW1 1579   3.461   6.950   4.456 -0.2965  0.0586  1.6628
  203SOL    HW2 1580   3.312   6.950   4.429 -0.0605  1.3998  0.1893
  204SOL     OW 1581   4.240   5.611   5.567 -0.4042  0.4685 -0.0580
  204SOL    HW1 1582   4.330   5.634   5.590 -0.4047  1.2539 -0.7990
  204SOL    HW2 1583   4.191   5.622   5.648  0.4096 -1.4257  0.7390
  205SOL     OW 1584   0.334   4.552   3.868  0.8117  0.1738  0.4925
  205SOL    HW1 1585   0.402   4.512   3.813  2.0166  2.1320  0.4459
  205SOL    HW2 1586   0.252   4.533   3.824  1.1860 -2.8939  0.9196
  206SOL     OW 1587   4.364   5.154   5.495 -0.4581  0.2712 -0.4585
  206SOL    HW1 1588   4.377   5.144   5.589 -0.0753  1.9475 -0.2875
  206SOL    HW2 1589   4.322   5.073   5.467  0.5814 -0.7988  0.9191
  207SOL     OW 1590   1.986   4.742   3.194  0.1067  0.4271  0.2765
  207SOL    HW1 1591   2.048   4.700   3.253  0.9313 -0.7106 -1.3219
  207SOL    HW2 1592   1.907   4.754   3.246  1.3937  1.2357  2.1384
  208SOL     OW 1593   3.205   2.340   2.308 -0.1892 -0.3426 -0.2009
  208SOL    HW1 1594   3.253   2.259   2.324 -1.2148 -0.9427 -0.0535
  208SOL    HW2 1595   3.268   2.409   2.328  0.7356 -1.0935 -0.4167
  209SOL     OW 1596   2.617   6.499   0.633  0.1539  0.5912 -0.5459
  209SOL    HW1 1597   2.665   6.555   0.572 -0.5989  0.6926 -1.0620
  209SOL    HW2 1598   2.626   6.411   0.598 -0.9025  0.7427 -1.2409
  210SOL     OW 1599   0.749   1.785   3.244 -0.4322 -0.2277 -0.6294
  210SOL    HW1 1600   0.679   1.848   3.232 -0.2469  0.2570  0.6275
  210SOL    HW2 1601   0.830   1.835   3.232 -0.2857 -0.2039  0.3322
  211SOL     OW 1602   0.205   4.002   1.569  0.2119 -0.2192  0.2873
  211SOL    HW1 1603   0.113   4.012   1.592  0.4233  0.0889  1.0507
  211SOL    HW2 1604   0.251   4.013   1.653  0.8262 -2.2884  0.2509
  212SOL     OW 1605   2.325   6.970   1.622 -0.1967 -0.1952  0.3252
  212SOL    HW1 1606   2.385   6.914   1.573  0.0619 -0.6066  1.0913
  212SOL    HW2 1607   2.290   6.913   1.691 -0.5746  0.3585  0.5989
  213SOL     OW 1608   5.896   0.745   6.410 -0.3534  0.0605 -0.4944
  213SOL    HW1 1609   5.880   0.823   6.463  0.7810  0.2409 -0.3845
  213SOL    HW2 1610   5.959   0.773   6.344  0.1009 -0.7646 -0.4326
  214SOL     OW 1611   5.136   4.708   6.018 -0.2649 -0.0318 -0.3023
  214SOL    HW1 1612   5.183   4.682   6.097  0.8433  1.7853 -0.3083
  214SOL    HW2 1613   5.191   4.775   5.978 -1.3257 -0.1416 -2.0630
  215SOL     OW 1614   4.978   2.718   3.524 -0.4001 -0.7331  0.2778
  215SOL    HW1 1615   4.952   2.806   3.552  1.6807 -0.6971  2.4523
  215SOL    HW2 1616   4.896   2.675   3.501 -1.7928  0.9185  1.7842
  216SOL     OW 1617   6.385   3.545   4.009 -0.0654  0.2420 -0.5834
  216SOL    HW1 1618   6.355   3.498   3.931  0.7742  0.1110 -0.8322
  216SOL    HW2 1619   6.358   3.636   3.994 -0.3950  0.1152 -0.7703
  217SOL     OW 1620   7.085   4.695   5.592  0.1756 -0.6510 -0.4115
  217SOL    HW1 1621   7.025   4.621   5.585  0.2304 -0.7170 -0.1912
  217SOL    HW2 1622   7.032   4.767   5.626  0.5603 -1.1507  1.3861
  218SOL     OW 1623   3.627   3.511   5.356 -0.7259  0.4038 -0.1840
  218SOL    HW1 1624   3.636   3.440   5.420 -0.2539  1.0963  0.5343
  218SOL    HW2 1625   3.573   3.577   5.400 -1.7632  0.2021 -1.1131
  219SOL     OW 1626   4.466   5.074   2.012 -0.2244 -0.2796  0.1222
  219SOL    HW1 1627   4.405   5.000   2.010 -0.6695 -0.1540  3.4165
  219SOL    HW2 1628   4.419   5.142   2.060  0.9811  1.3957 -0.9611
  220SOL     OW 1629   4.791   2.046   2.604  0.1963  0.1351  0.4993
  220SOL    HW1 1630   4.729   1.982   2.568  0.7708 -0.4083  0.4597
  220SOL    HW2 1631   4.760   2.061   2.693 -0.7163  0.8153  0.0811
  221SOL     OW 1632   7.064   7.097   0.673  0.1715 -0.2005 -1.2488
  221SOL    HW1 1633   7.134   7.161   0.688 -0.2783 -0.0457  0.4003
  221SOL    HW2 1634   7.105   7.012   0.689 -0.1561 -0.0692  0.5744
  222SOL     OW 1635   0.366   4.905   0.459  0.4288  0.1373  0.4533
  222SOL    HW1 1636   0.324   4.852   0.527  1.1368 -1.0187  0.0245
  222SOL    HW2 1637   0.318   4.884   0.379 -0.5951  1.7162  0.5962
  223SOL     OW 1638   7.279   6.310   2.625 -0.1148  0.9703  0.2220
  223SOL    HW1 1639   7.287   6.366   2.548 -1.3818  0.8390 -0.0345
  223SOL    HW2 1640   7.291   6.370   2.699  4.9517  0.5132  0.0653
  224SOL     OW 1641   0.593   5.446   7.104  0.0393 -0.0102  0.0930
  224SOL    HW1 1642   0.602   5.538   7.080 -1.5129  0.1997  0.1808
  224SOL    HW2 1643   0.523   5.414   7.047 -0.5935 -0.6866  1.2238
  225SOL     OW 1644   6.362   3.119   0.770 -0.5306  0.4200  0.3330
  225SOL    HW1 1645   6.446   3.073   0.774 -1.1786 -0.7135  1.4522
  225SOL    HW2 1646   6.296   3.050   0.774 -1.5682  1.1354 -2.3547
  226SOL     OW 1647   3.155   3.169   6.363 -0.2769 -0.3689  0.5798
  226SOL    HW1 1648   3.116   3.082   6.369  1.3069 -1.0130  2.1878
  226SOL    HW2 1649   3.144   3.207   6.450  0.7088  0.2920  0.4292
  227SOL     OW 1650   6.514   1.555   2.633 -0.0164 -0.2055 -0.6799
  227SOL    HW1 1651   6.438   1.609   2.654 -0.3775 -1.8799  2.9132
  227SOL    HW2 1652   6.577   1.617   2.595 -1.3324  2.2621  0.8979
  228SOL     OW 1653   5.963   1.035   2.293  0.3361  0.3189 -0.0509
  228SOL    HW1 1654   6.044   0.988   2.313  0.0619 -0.4320 -0.6576
  228SOL    HW2 1655   5.965   1.045   2.198 -2.3328 -3.6506 -0.7399
  229SOL     OW 1656   1.071   4.334   6.517  0.1285  0.7161  0.4908
  229SOL    HW1 1657   1.138   4.292   6.464 -0.0565  2.0480 -0.8586
  229SOL    HW2 1658   1.024   4.261   6.559  1.4433 -0.2783  0.2735
  230SOL     OW 1659   0.745   1.558   0.587  0.3541 -0.1598 -0.2489
  230SOL    HW1 1660   0.728   1.603   0.505 -1.0255 -0.1245  0.0315
  230SOL    HW2 1661   0.788   1.476   0.561 -1.6934 -1.0142 -1.2016
  231SOL     OW 1662   6.123   6.934   0.320 -0.4808  0.8445 -0.0533
  231SOL    HW1 1663   6.108   6.936   0.414  0.7984  1.7408  0.1614
  231SOL    HW2 1664   6.075   6.857   0.289 -0.8958  0.5309  1.3239
  232SOL     OW 1665   0.187   7.197   6.571  0.2499 -0.4659 -0.4547
  232SOL    HW1 1666   0.198   7.223   6.662  0.6080 -1.2404 -0.2645
  232SOL    HW2 1667   0.225   7.109   6.566 -1.8783 -1.4390 -0.8165
  233SOL     OW 1668   5.880   4.460   3.358 -0.1415  0.3969 -0.0279
  233SOL    HW1 1669   5.821   4.386   3.375  1.6969 -1.1220  0.1224
  233SOL    HW2 1670   5.947   4.453   3.426  1.4741  0.6402 -1.5349
  234SOL     OW 1671   3.885   3.772   4.986  0.1372  0.0476  0.0483
  234SOL    HW1 1672   3.827   3.848   4.983 -0.6622 -0.5619 -0.6039
  234SOL    HW2 1673   3.857   3.724   5.065 -1.9507 -1.4993 -1.5272
  235SOL     OW 1674   2.868   0.228   5.771 -0.4987  0.2992 -0.2294
  235SOL    HW1 1675   2.881   0.148   5.720 -1.2444 -1.3637  2.0105
  235SOL    HW2 1676   2.779   0.220   5.806 -0.5922  2.1276  0.0625
  236SOL     OW 1677   4.919   3.908   3.711 -0.3764  0.7664 -0.2337
  236SOL    HW1 1678   5.005   3.872   3.687  0.0291  1.7173 -0.2256
  236SOL    HW2 1679   4.857   3.839   3.686  0.2928  0.5062 -1.2647
  237SOL     OW 1680   3.212   2.295   0.662  0.3927  0.6923  0.1408
  237SOL    HW1 1681   3.211   2.390   0.678  1.9597  0.8708 -0.6812
  237SOL    HW2 1682   3.161   2.284   0.582  0.5733  0.8962 -0.0037
  238SOL     OW 1683   1.219   6.066   6.813  0.4003  0.4208 -0.1321
  238SOL    HW1 1684   1.182   6.074   6.901 -0.5064 -1.8951 -0.2374
  238SOL    HW2 1685   1.199   6.149   6.771 -2.4958  0.2275  0.6677
  239SOL     OW 1686   1.134   0.815   3.413  0.6467  0.0939 -0.1517
  239SOL    HW1 1687   1.220   0.811   3.372  0.4879  0.9517 -0.5941
  239SOL    HW2 1688   1.103   0.724   3.414  1.8668 -0.3403  0.7108
  240SOL     OW 1689   5.224   6.869   3.730 -0.6568  0.0868 -0.0487
  240SOL    HW1 1690   5.283   6.824   3.791  0.7971  0.5583 -1.0484
  240SOL    HW2 1691   5.181   6.937   3.784 -1.0468 -0.8887  0.9129
  241SOL     OW 1692   4.309   0.485   6.749 -0.0749 -0.1640  0.1215
  241SOL    HW1 1693   4.313   0.445   6.662  1.1595  0.9387 -0.3571
  241SOL    HW2 1694   4.281   0.575   6.733 -1.2735 -0.3494  1.0278
  242SOL     OW 1695   0.418   1.764   6.905  0.5677  0.6097  0.2341
  242SOL    HW1 1696   0.442   1.783   6.996  0.3111 -0.1499  0.4611
  242SOL    HW2 1697   0.453   1.839   6.856 -0.0011  1.4308  1.0472
  243SOL     OW 1698   5.753   0.686   1.666 -0.2799  0.1249 -0.8133
  243SOL    HW1 1699   5.705   0.735   1.733 -0.6484  2.1502 -2.4545
  243SOL    HW2 1700   5.814   0.632   1.716 -2.2382 -0.3783  1.2367
  244SOL     OW 1701   5.823   3.740   1.745  0.5619  0.3347 -0.2656
  244SOL    HW1 1702   5.832   3.771   1.655 -0.4432  0.6220 -0.2722
  244SOL    HW2 1703   5.788   3.815   1.793 -0.3788 -0.2841  0.0430
  245SOL     OW 1704   2.189   1.529   3.952 -0.0833  0.4388 -0.1492
  245SOL    HW1 1705   2.272   1.527   3.905 -0.7246  0.7503 -1.3457
  245SOL    HW2 1706   2.180   1.442   3.990  0.5252  0.2257 -0.4863
  246SOL     OW 1707   3.833   3.126   5.544 -0.2514  0.2698 -0.2190
  246SOL    HW1 1708   3.759   3.188   5.543 -0.3552  0.1469 -0.1413
  246SOL    HW2 1709   3.802   3.052   5.596  0.1152  0.4429  0.2454
  247SOL     OW 1710   1.033   4.929   2.476  0.1146  0.0913  0.3578
  247SOL    HW1 1711   1.104   4.976   2.519  1.1444 -1.1369  0.0259
  247SOL    HW2 1712   1.066   4.910   2.388  0.2211 -2.3078  0.8593
  248SOL     OW 1713   4.968   3.113   0.580  0.1170  0.2968 -0.0483
  248SOL    HW1 1714   5.017   3.125   0.499  0.7260  0.5352  0.3485
  248SOL    HW2 1715   4.881   3.150   0.562  0.0951 -0.0825 -0.7390
  249SOL     OW 1716   5.224   0.027   2.516  0.2657  0.0395  0.0182
  249SOL    HW1 1717   5.282   0.083   2.464  0.2059 -0.4887 -0.6157
  249SOL    HW2 1718   5.163   0.088   2.558 -0.9587  0.3403 -2.0841
  250SOL     OW 1719   0.459   3.747   3.875 -0.0237 -0.5026 -0.2407
  250SOL    HW1 1720   0.507   3.681   3.825 -1.4590 -2.1143  0.4033
  250SOL    HW2 1721   0.381   3.765   3.823 -0.7261 -0.9877  0.6111
  251SOL     OW 1722   0.703   2.478   4.953  0.3142 -0.5648  0.0334
  251SOL    HW1 1723   0.724   2.484   4.860 -0.6626  1.2771 -0.1025
  251SOL    HW2 1724   0.635   2.410   4.958 -1.4683  1.0619 -0.9740
  252SOL     OW 1725   3.555   2.556   3.243 -0.2707 -0.1917  0.1039
  252SOL    HW1 1726   3.626   2.558   3.307  0.1908  1.0901 -0.4210
  252SOL    HW2 1727   3.595   2.522   3.163 -0.3051  0.2631 -0.1108
  253SOL     OW 1728   6.221   0.229   6.979 -0.0516 -0.1097 -0.0013
  253SOL    HW1 1729   6.274   0.281   6.919 -0.8562 -0.3687 -0.9704
  253SOL    HW2 1730   6.265   0.237   7.064  1.0596  0.3367 -0.6024
  254SOL     OW 1731   3.472   4.075   4.953  0.1908  0.0776  0.4531
  254SOL    HW1 1732   3.396   4.093   5.009  0.0776 -2.0192  1.0590
  254SOL    HW2 1733   3.435   4.063   4.866 -0.2131 -1.1016  0.7778
  255SOL     OW 1734   6.694   2.260   2.226 -0.8859 -0.1221  0.2499
  255SOL    HW1 1735   6.629   2.298   2.285  0.0252  0.1500  1.1197
  255SOL    HW2 1736   6.763   2.228   2.284 -0.2408 -0.4021 -0.6458
  256SOL     OW 1737   3.515   4.684   0.718 -0.4837  0.0144 -0.1296
  256SOL    HW1 1738   3.516   4.752   0.786  0.0026 -0.8403  0.7337
  256SOL    HW2 1739   3.458   4.720   0.650 -2.5654  0.1107  1.5429
  257SOL     OW 1740   1.527   1.373   1.336 -0.4363  0.5116  0.1496
  257SOL    HW1 1741   1.566   1.297   1.294  0.2601  1.8936 -1.8793
  257SOL    HW2 1742   1.594   1.406   1.396 -0.0159  0.5950 -0.3642
  258SOL     OW 1743   1.434   1.610   4.729 -0.8919 -0.8340 -0.2073
  258SOL    HW1 1744   1.476   1.689   4.696  0.0288 -1.2496 -0.0564
  258SOL    HW2 1745   1.344   1.637   4.748 -0.5673  0.1951 -0.0755
  259SOL     OW 1746   0.905   5.324   7.336 -0.4169 -0.3541  0.4886
  259SOL    HW1 1747   0.990   5.284   7.316 -1.0903 -1.7272  0.2253
  259SOL    HW2 1748   0.924   5.416   7.350  1.3879 -0.9008  2.0539
  260SOL     OW 1749   5.823   4.512   7.247  0.1396 -0.3308  0.5369
  260SOL    HW1 1750   5.807   4.606   7.251 -0.7276 -0.3884 -0.9196
  260SOL    HW2 1751   5.909   4.504   7.206  0.1000 -0.1687  0.4232
  261SOL     OW 1752   5.928   2.207   4.750  0.1319  0.1708 -0.0517
  261SOL    HW1 1753   5.863   2.277   4.749  0.3593  0.3903  0.4103
  261SOL    HW2 1754   5.936   2.182   4.842 -0.2407 -0.7391 -0.2582
  262SOL     OW 1755   5.855   2.925   0.366  0.0855 -0.2655  0.0983
  262SOL    HW1 1756   5.934   2.960   0.407 -0.3594 -0.1570  0.8687
  262SOL    HW2 1757   5.879   2.915   0.274  1.6346 -1.9999  0.6232
  263SOL     OW 1758   0.588   2.098   6.346 -0.4839 -0.3868 -0.7603
  263SOL    HW1 1759   0.620   2.159   6.279 -0.5478  1.2653  0.6479
  263SOL    HW2 1760   0.664   2.042   6.365 -0.4103 -0.7576 -2.0471
  264SOL     OW 1761   3.218   5.881   3.291  0.0318 -0.0929  0.3083
  264SOL    HW1 1762   3.139   5.896   3.344  1.1492  5.0990  1.1404
  264SOL    HW2 1763   3.187   5.882   3.201 -0.9578  4.6119  0.4372
  265SOL     OW 1764   0.252   0.032   0.803 -0.2237  0.1823  0.5964
  265SOL    HW1 1765   0.342   0.015   0.830 -0.0673  0.7670  0.4590
  265SOL    HW2 1766   0.215  -0.054   0.786  0.6777 -0.0031 -0.5237
  266SOL     OW 1767   3.780   3.965   6.883  0.1774 -0.3930  0.3509
  266SOL    HW1 1768   3.691   3.976   6.918  0.3608  0.3459  0.6090
  266SOL    HW2 1769   3.819   3.896   6.937 -0.6629 -1.6693 -0.6100
  267SOL     OW 1770   0.975   0.279   3.463 -0.0484  0.2011  0.2880
  267SOL    HW1 1771   0.899   0.301   3.410 -0.3483  0.4711  0.8254
  267SOL    HW2 1772   1.031   0.227   3.405 -0.9118 -0.4996  0.0755
  268SOL     OW 1773   4.483   3.441   4.949 -0.2613  0.0759 -0.4253
  268SOL    HW1 1774   4.399   3.471   4.914  0.1263  0.8082 -0.7496
  268SOL    HW2 1775   4.473   3.346   4.957 -1.7696  0.3071  1.2564
  269SOL     OW 1776   3.037   5.685   2.497  0.5801 -0.5396 -0.0238
  269SOL    HW1 1777   2.948   5.689   2.464  0.9404 -0.1950 -0.9880
  269SOL    HW2 1778   3.043   5.758   2.559 -0.0646 -1.1121  0.7213
  270SOL     OW 1779   5.665   2.834   6.301  0.0352 -0.2662  0.8330
  270SOL    HW1 1780   5.589   2.811   6.355 -0.2872  1.1075  0.9882
  270SOL    HW2 1781   5.632   2.900   6.240  0.8264 -0.5361  0.1035
  271SOL     OW 1782   5.207   4.668   2.436 -0.4397  0.0130  0.2425
  271SOL    HW1 1783   5.288   4.695   2.479 -0.7050 -0.6420  1.1690
  271SOL    HW2 1784   5.234   4.640   2.349  0.6111 -1.9558  1.1551
  272SOL     OW 1785   6.686   1.370   5.818 -0.0742  0.0052  0.1325
  272SOL    HW1 1786   6.592   1.353   5.821 -0.0053 -0.4175 -0.0517
  272SOL    HW2 1787   6.697   1.453   5.864 -0.5718  0.1983 -0.0905
  273SOL     OW 1788   1.053   4.032   1.640  0.1238  0.6414  0.1011
  273SOL    HW1 1789   1.014   4.017   1.726 -0.2552  1.1654  0.0292
  273SOL    HW2 1790   1.135   3.983   1.642 -0.2973 -0.0687  0.4374
  274SOL     OW 1791   5.159   2.077   1.950  0.3962  0.3481  0.3916
  274SOL    HW1 1792   5.168   2.087   2.045  1.3763 -0.3420  0.3785
  274SOL    HW2 1793   5.244   2.047   1.920 -0.1051 -0.1188 -0.6235
  275SOL     OW 1794   6.174   6.658   3.291 -0.0663 -0.8071 -0.2012
  275SOL    HW1 1795   6.199   6.582   3.344  0.3115 -1.4741 -1.2984
  275SOL    HW2 1796   6.212   6.641   3.205  0.5556  0.9424 -0.3030
  276SOL     OW 1797   2.567   7.295   5.632 -0.1198 -0.5602  0.5764
  276SOL    HW1 1798   2.569   7.389   5.650 -3.3851 -0.2486  0.0008
  276SOL    HW2 1799   2.645   7.279   5.580  0.8427  1.6903  1.1965
  277SOL     OW 1800   3.655   3.690   2.297 -0.0400  0.3858  0.6177
  277SOL    HW1 1801   3.647   3.617   2.358 -0.0884 -0.3510 -0.2475
  277SOL    HW2 1802   3.573   3.738   2.306 -1.0432 -1.0422 -0.5164
  278SOL     OW 1803   0.533   3.083   0.780  0.2046  0.0201 -0.7270
  278SOL    HW1 1804   0.492   3.123   0.856 -0.0339  0.1140 -0.9018
  278SOL    HW2 1805   0.588   3.152   0.743  0.5339 -0.1103 -0.4843
  279SOL     OW 1806   3.469   7.320   0.268  0.9668 -0.2730 -0.1839
  279SOL    HW1 1807   3.475   7.269   0.187 -0.3411  0.5986 -0.8608
  279SOL    HW2 1808   3.390   7.289   0.311  0.8268  0.3199  0.0041
  280SOL     OW 1809   2.821   6.657   0.915  0.0165  0.0712  0.0087
  280SOL    HW1 1810   2.810   6.679   1.008 -0.0372 -0.1164  0.0487
  280SOL    HW2 1811   2.822   6.561   0.914  2.5057  0.0208  0.1219
  281SOL     OW 1812   4.916   3.087   5.740 -0.0981  0.4165  0.0043
  281SOL    HW1 1813   4.984   3.066   5.803 -0.2975 -0.6336 -0.1091
  281SOL    HW2 1814   4.923   3.182   5.727  0.4944  0.5113  0.9499
  282SOL     OW 1815   1.171   7.105   0.743 -0.1043 -0.2198 -0.1768
  282SOL    HW1 1816   1.107   7.150   0.688 -0.6683  0.8826  1.3238
  282SOL    HW2 1817   1.249   7.100   0.689 -1.2743 -1.1496 -1.8745
  283SOL     OW 1818   4.505   2.091   0.243 -0.0590  0.0363  0.0405
  283SOL    HW1 1819   4.420   2.048   0.235 -0.4752  0.8157  0.1582
  283SOL    HW2 1820   4.486   2.174   0.287  0.5890  0.7314 -0.9425
  284SOL     OW 1821   5.797   6.724   6.843  0.2837  0.2764  0.6046
  284SOL    HW1 1822   5.838   6.660   6.901 -0.3833 -0.1000  0.6654
  284SOL    HW2 1823   5.703   6.712   6.855  0.1200  0.1113 -0.6269
  285SOL     OW 1824   6.393   1.515   1.522  0.4624 -0.6103  0.0510
  285SOL    HW1 1825   6.327   1.472   1.467  0.1390  1.0436 -0.9385
  285SOL    HW2 1826   6.465   1.534   1.462  1.0182 -0.6591  0.6948
  286SOL     OW 1827   6.505   5.020   6.236 -0.0809  0.2543  0.7279
  286SOL    HW1 1828   6.459   4.957   6.292  0.1280 -0.0955  0.5075
  286SOL    HW2 1829   6.548   4.967   6.170  0.3668  0.6035  0.7294
  287SOL     OW 1830   2.142   6.854   6.723  0.1693  0.2017  0.3473
  287SOL    HW1 1831   2.081   6.893   6.660  0.0206 -1.6007 -0.7139
  287SOL    HW2 1832   2.227   6.889   6.700 -0.2680  1.8169  1.0680
  288SOL     OW 1833   6.853   6.189   4.031 -0.0335 -0.4889 -0.2805
  288SOL    HW1 1834   6.808   6.199   3.947  0.5448  0.8947 -0.4514
  288SOL    HW2 1835   6.886   6.276   4.050  0.9348 -1.0741  0.7728
  289SOL     OW 1836   6.997   1.151   0.770 -0.0194  0.6003 -0.4166
  289SOL    HW1 1837   6.955   1.112   0.847 -1.0960  1.7589 -0.3878
  289SOL    HW2 1838   7.039   1.077   0.726  1.2670 -0.0033  1.6449
  290SOL     OW 1839   3.602   2.363   1.029 -0.5094  0.1172  0.0895
  290SOL    HW1 1840   3.633   2.333   0.943  1.7269 -1.7147  1.4278
  290SOL    HW2 1841   3.556   2.287   1.066 -1.5426  0.9203  0.5201
  291SOL     OW 1842   4.202   0.634   1.020  0.5188  0.0698 -0.3591
  291SOL    HW1 1843   4.119   0.615   1.063  1.7267 -0.7742  1.7514
  291SOL    HW2 1844   4.200   0.583   0.940 -0.5413 -0.8181  0.2100
  292SOL     OW 1845   6.154   1.990   3.078  0.0213 -0.3793  0.0999
  292SOL    HW1 1846   6.136   2.082   3.055 -0.2699 -0.8371 -1.7012
  292SOL    HW2 1847   6.083   1.941   3.035  0.0526 -1.4513  1.2085
  293SOL     OW 1848   3.063   2.977   3.847  0.2494 -0.0153 -0.1323
  293SOL    HW1 1849   3.091   3.010   3.762 -2.4321  0.1287 -1.0675
  293SOL    HW2 1850   3.034   2.888   3.829 -0.7716  0.1725  0.5232
  294SOL     OW 1851   3.463   1.165   3.396  0.0393 -0.2855  0.0660
  294SOL    HW1 1852   3.432   1.158   3.486 -0.8378 -1.1916 -0.2868
  294SOL    HW2 1853   3.460   1.075   3.363  1.1038 -0.0881 -0.6260
  295SOL     OW 1854   5.392   3.640   2.956  0.1710 -0.0392  0.0101
  295SOL    HW1 1855   5.319   3.699   2.973 -0.3771 -0.5736 -0.4402
  295SOL    HW2 1856   5.470   3.693   2.971 -0.2952  1.1268 -1.4785
  296SOL     OW 1857   6.741   3.611   3.021  0.3711  0.2297  0.1697
  296SOL    HW1 1858   6.748   3.684   2.959 -0.1834 -0.7207 -1.0296
  296SOL    HW2 1859   6.790   3.540   2.981  1.1713  0.0032  1.4781
  297SOL     OW 1860   0.756   6.373   0.150 -0.4268 -0.1667 -0.7498
  297SOL    HW1 1861   0.779   6.306   0.214 -1.4003 -1.1278 -1.3768
  297SOL    HW2 1862   0.694   6.330   0.091 -2.1783  1.6880 -0.3783
  298SOL     OW 1863   1.751   2.114   0.881 -0.0563  0.5856  0.2381
  298SOL    HW1 1864   1.676   2.174   0.882 -0.6453 -0.1387  0.6606
  298SOL    HW2 1865   1.754   2.078   0.970  1.0676  0.9272  0.3588
  299SOL     OW 1866   5.484   5.216   4.013 -0.1363  0.1085 -1.2017
  299SOL    HW1 1867   5.539   5.167   3.951  1.1036  0.8039 -0.6832
  299SOL    HW2 1868   5.508   5.180   4.099  0.1312  1.0026 -0.8985
  300SOL     OW 1869   7.299   6.406   5.617  0.0444 -0.0588 -0.2742
  300SOL    HW1 1870   7.391   6.428   5.602 -0.0159 -0.0006 -0.5719
  300SOL    HW2 1871   7.289   6.320   5.577  0.3371 -0.7511  1.0880
  301SOL     OW 1872   3.146   3.015   2.507  0.3968 -0.6434 -0.4016
  301SOL    HW1 1873   3.236   3.034   2.483 -0.0507  0.4342 -1.3081
  301SOL    HW2 1874   3.142   3.031   2.601  0.5527  1.8787 -0.7554
  302SOL     OW 1875   6.085   1.652   4.171  0.2254  0.4170  0.4740
  302SOL    HW1 1876   6.061   1.673   4.080 -0.5033 -0.1313  0.5255
  302SOL    HW2 1877   6.073   1.734   4.219 -0.3149  0.4727  0.2483
  303SOL     OW 1878   1.967   3.040   4.208  0.0839 -0.2562 -0.2206
  303SOL    HW1 1879   1.900   2.972   4.197  0.6168 -0.7313 -0.6351
  303SOL    HW2 1880   2.046   3.001   4.171  0.4531  0.5153 -0.2653
  304SOL     OW 1881   1.949   2.786   5.479 -0.7269  0.2169 -0.1716
  304SOL    HW1 1882   1.997   2.783   5.397  0.7271 -0.1938  0.6603
  304SOL    HW2 1883   1.925   2.878   5.490  0.7365  0.6176 -0.1480
  305SOL     OW 1884   6.322   0.042   2.037 -0.4229 -0.2802  0.7669
  305SOL    HW1 1885   6.315   0.061   2.130 -1.3087 -1.1123  0.8855
  305SOL    HW2 1886   6.409   0.002   2.027  0.1796  0.8994  1.0090
  306SOL     OW 1887   2.126   6.729   0.745 -0.2533 -0.2826  0.2248
  306SOL    HW1 1888   2.043   6.745   0.790 -1.1146 -2.2624 -0.5103
  306SOL    HW2 1889   2.100   6.710   0.654  1.0446 -0.5018 -0.1185
  307SOL     OW 1890   0.631   0.690   1.049 -0.0612  0.3417  0.6805
  307SOL    HW1 1891   0.602   0.654   0.965  1.9186 -0.6012  0.3524
  307SOL    HW2 1892   0.580   0.770   1.059 -2.7290 -1.1513  0.1676
  308SOL     OW 1893   4.021   2.837   1.428 -0.1523 -0.2935  0.3512
  308SOL    HW1 1894   4.054   2.754   1.391 -0.6239 -0.4619  0.3031
  308SOL    HW2 1895   4.088   2.901   1.404 -0.9841 -0.1480 -1.8883
  309SOL     OW 1896   4.291   6.143   5.585  0.7663 -0.3321 -0.1177
  309SOL    HW1 1897   4.265   6.082   5.653 -0.6537  0.2487 -0.1080
  309SOL    HW2 1898   4.209   6.173   5.546  1.3242  2.1456  0.4041
  310SOL     OW 1899   2.721   3.156   1.791 -0.3689 -0.3345  0.5348
  310SOL    HW1 1900   2.676   3.173   1.709 -0.3296 -2.4894  0.0084
  310SOL    HW2 1901   2.794   3.099   1.768  0.4523  0.1170  1.8820
  311SOL     OW 1902   1.027   4.756   5.419  0.6064  0.0277  0.1486
  311SOL    HW1 1903   1.019   4.849   5.443  0.8757  0.3046 -0.7915
  311SOL    HW2 1904   1.055   4.758   5.328  3.3013 -0.9649  0.8801
  312SOL     OW 1905   3.968   2.043   2.198  0.3207 -0.1642 -0.6499
  312SOL    HW1 1906   3.947   2.013   2.286  0.7601  1.1468 -0.0851
  312SOL    HW2 1907   3.890   2.092   2.170  1.1710  1.6554  0.0551
  313SOL     OW 1908   5.617   0.101   1.772  0.5839 -0.0743  0.1226
  313SOL    HW1 1909   5.652   0.190   1.773  0.0878  0.1404 -0.8688
  313SOL    HW2 1910   5.571   0.092   1.856 -0.1282  0.9179 -0.1487
  314SOL     OW 1911   6.337   1.476   3.161 -0.1797 -0.5895 -0.3198
  314SOL    HW1 1912   6.270   1.421   3.201 -0.5741 -1.1291 -1.6962
  314SOL    HW2 1913   6.359   1.433   3.079  0.5049  0.5754 -0.7751
  315SOL     OW 1914   4.904   4.496   6.603  0.3091  0.3005  0.6189
  315SOL    HW1 1915   4.884   4.558   6.673 -0.2896  2.0704 -1.0320
  315SOL    HW2 1916   4.819   4.465   6.574  0.2286  2.3939 -1.6842
  316SOL     OW 1917   5.881   5.353   0.901 -0.3971 -0.2176 -0.6854
  316SOL    HW1 1918   5.844   5.427   0.853  0.5493  0.0080 -1.0958
  316SOL    HW2 1919   5.927   5.302   0.834  2.2615  0.9121  0.1400
  317SOL     OW 1920   3.360   2.255   2.596  0.2566  0.4982 -0.1213
  317SOL    HW1 1921   3.356   2.163   2.625  1.6621 -0.3523 -2.3670
  317SOL    HW2 1922   3.312   2.303   2.663 -2.8446 -2.1910 -0.1524
  318SOL     OW 1923   1.263   2.785   7.359 -0.1139 -0.6859  0.5546
  318SOL    HW1 1924   1.202   2.795   7.286 -1.2755  0.3611  1.6166
  318SOL    HW2 1925   1.333   2.848   7.340 -0.4903 -0.3058  0.4204
  319SOL     OW 1926   3.914   2.954   5.022 -0.2595 -0.3517 -0.3647
  319SOL    HW1 1927   3.894   3.048   5.027  0.2898 -0.2058 -0.7910
  319SOL    HW2 1928   3.992   2.949   4.967 -0.9648 -1.1614 -1.3246
  320SOL     OW 1929   6.750   1.745   5.026 -0.1175  0.1704 -0.2385
  320SOL    HW1 1930   6.671   1.762   5.078  0.2197 -2.5677  1.3235
  320SOL    HW2 1931   6.814   1.808   5.060 -1.0617  1.1345 -0.1821
  321SOL     OW 1932   2.782   0.074   1.677 -0.0878  0.1884  0.1192
  321SOL    HW1 1933   2.829   0.112   1.603  0.3237 -0.0135  0.2730
  321SOL    HW2 1934   2.840   0.005   1.710 -1.5394 -1.8128 -1.2499
  322SOL     OW 1935   2.720   6.681   6.037 -0.0523  1.1851 -0.6768
  322SOL    HW1 1936   2.714   6.669   6.132  0.2565 -0.1945 -0.8144
  322SOL    HW2 1937   2.671   6.762   6.020 -0.0860  1.4699  0.6496
  323SOL     OW 1938   1.834   1.102   0.404 -0.5871  0.0153  0.0181
  323SOL    HW1 1939   1.829   1.191   0.367 -2.2089 -0.4306 -0.9395
  323SOL    HW2 1940   1.886   1.053   0.342  1.0497  0.4430  0.9758
  324SOL     OW 1941   3.817   0.585   0.540 -0.1219  0.5548  0.2340
  324SOL    HW1 1942   3.787   0.640   0.468 -0.7078 -0.0176  0.0305
  324SOL    HW2 1943   3.823   0.644   0.615 -0.3456  0.9779 -0.0808
  325SOL     OW 1944   5.703   6.968   5.125  0.7101 -0.5353 -0.0325
  325SOL    HW1 1945   5.659   6.909   5.064  1.6049 -1.0999 -0.1388
  325SOL    HW2 1946   5.778   7.001   5.076  0.0128  1.0122 -0.1169
  326SOL     OW 1947   3.778   3.817   1.130  0.2483 -0.2306  0.3913
  326SOL    HW1 1948   3.717   3.753   1.167  0.4432  0.0158  1.1593
  326SOL    HW2 1949   3.733   3.901   1.139  0.1025 -0.2128 -0.3734
  327SOL     OW 1950   5.734   4.027   0.577  0.1517 -0.0736  0.1731
  327SOL    HW1 1951   5.775   3.971   0.511 -1.0191 -0.9754  0.1618
  327SOL    HW2 1952   5.648   3.987   0.591 -0.6759  1.6748  0.2705
  328SOL     OW 1953   3.266   7.035   2.182 -0.3326 -0.6011  0.2479
  328SOL    HW1 1954   3.271   7.130   2.188 -0.5085 -0.1652 -3.9326
  328SOL    HW2 1955   3.195   7.011   2.242 -0.8169  1.9482  0.8067
  329SOL     OW 1956   4.179   7.090   1.993 -0.1768  0.2223 -0.0533
  329SOL    HW1 1957   4.160   7.183   1.994 -0.5248  0.1777 -1.0737
  329SOL    HW2 1958   4.254   7.081   1.935  1.7776  0.1614  2.3385
  330SOL     OW 1959   4.290   2.981   1.907  0.6761  0.2148  0.2781
  330SOL    HW1 1960   4.354   2.944   1.968  0.9615  0.8443  0.3658
  330SOL    HW2 1961   4.217   2.920   1.910  1.3691 -0.6571 -0.0188
  331SOL     OW 1962   4.060   5.254   5.772  0.0223  0.7470  0.7745
  331SOL    HW1 1963   4.145   5.280   5.807  0.5364  0.8876 -0.5044
  331SOL    HW2 1964   4.040   5.171   5.815  1.0316  0.4843  0.7682
  332SOL     OW 1965   6.552   2.740   3.881  0.4041 -0.4409  0.0601
  332SOL    HW1 1966   6.577   2.764   3.792  3.6380  0.0064  0.9708
  332SOL    HW2 1967   6.466   2.698   3.871  0.3406  0.1967 -3.1425
  333SOL     OW 1968   5.909   7.335   7.069 -0.1263 -0.3139 -0.3584
  333SOL    HW1 1969   5.954   7.335   6.984  0.2515  0.3916 -0.1630
  333SOL    HW2 1970   5.947   7.261   7.116 -1.1047 -1.3946 -1.1916
  334SOL     OW 1971   6.910   3.947   0.605 -0.4186  0.2524  0.3826
  334SOL    HW1 1972   6.942   3.938   0.695 -3.0580  0.3304  1.4145
  334SOL    HW2 1973   6.976   3.903   0.552  1.0221 -0.1527  2.3830
  335SOL     OW 1974   1.110   4.125   4.489  0.2022  0.1437 -0.4157
  335SOL    HW1 1975   1.189   4.149   4.538  0.4805 -1.4110 -0.0351
  335SOL    HW2 1976   1.041   4.123   4.554  0.0165  0.6745 -0.5932
  336SOL     OW 1977   3.078   5.091   6.144  0.7142 -0.4226 -0.5080
  336SOL    HW1 1978   3.173   5.104   6.138  0.6462  0.5841  0.4511
  336SOL    HW2 1979   3.067   4.997   6.153  1.7138 -0.4411  0.7431
  337SOL     OW 1980   4.443   1.176   5.939  0.0904  0.3237  0.2345
  337SOL    HW1 1981   4.446   1.080   5.931  0.7356  0.3763 -0.1607
  337SOL    HW2 1982   4.362   1.201   5.894 -2.9948 -0.4498  4.6620
  338SOL     OW 1983   5.508   0.578   7.138 -0.2098 -0.0425 -0.2519
  338SOL    HW1 1984   5.427   0.593   7.090 -0.7179 -0.3002  0.5005
  338SOL    HW2 1985   5.519   0.483   7.138  0.0942 -0.0065 -0.3626
  339SOL     OW 1986   3.516   4.145   3.069 -0.2149 -0.0618 -0.3782
  339SOL    HW1 1987   3.527   4.227   3.020  1.5134 -1.5516 -2.7449
  339SOL    HW2 1988   3.444   4.101   3.025 -0.6702 -0.1408  0.4311
  340SOL     OW 1989   6.102   4.029   0.378 -0.3599  0.1740  0.4725
  340SOL    HW1 1990   6.073   4.107   0.331 -1.6473  0.7948  2.1739
  340SOL    HW2 1991   6.027   3.971   0.377  0.1500 -0.4899  0.3468
  341SOL     OW 1992   7.056   4.077   7.311  0.4837  0.1647  0.2356
  341SOL    HW1 1993   7.109   4.012   7.265 -0.7180 -0.7027  0.0256
  341SOL    HW2 1994   7.035   4.036   7.395 -0.9748 -0.0984 -0.2323
  342SOL     OW 1995   1.993   4.235   2.093  0.2757  0.6732 -0.0517
  342SOL    HW1 1996   1.920   4.207   2.037  1.0994 -1.1130 -0.3273
  342SOL    HW2 1997   1.965   4.212   2.181  0.8688 -1.0260 -0.2581
  343SOL     OW 1998   1.434   3.888   5.894 -0.2158 -0.1633  0.1891
  343SOL    HW1 1999   1.468   3.938   5.968 -0.9933  1.4009 -0.4771
  343SOL    HW2 2000   1.511   3.842   5.860  0.4725  0.3866  0.9527
  344SOL     OW 2001   2.702   5.684   1.328  0.2626  0.0009 -0.2226
  344SOL    HW1 2002   2.766   5.755   1.335  1.2106 -0.9131  0.7193
  344SOL    HW2 2003   2.644   5.712   1.257  0.9551  1.4353 -0.2745
  345SOL     OW 2004   5.116   6.823   6.101 -0.3738  0.5804  0.2003
  345SOL    HW1 2005   5.139   6.742   6.146  0.3029 -0.7005 -2.2401
  345SOL    HW2 2006   5.030   6.805   6.062 -0.2822  1.0661 -0.2485
  346SOL     OW 2007   3.009   5.358   6.099  0.0356 -0.2720 -0.1880
  346SOL    HW1 2008   3.042   5.269   6.109  0.1383 -0.1476  0.6297
  346SOL    HW2 2009   3.001   5.391   6.188 -0.5027  0.3575 -0.4571
  347SOL     OW 2010   5.961   4.916   2.481  0.0322  0.5968  0.2043
  347SOL    HW1 2011   5.998   4.991   2.435 -0.2245  0.9961  0.6363
  347SOL    HW2 2012   6.017   4.906   2.559  0.4410 -0.0456 -0.1643
  348SOL     OW 2013   0.391   3.156   3.472  0.0747  0.2688  0.0238
  348SOL    HW1 2014   0.438   3.166   3.554  2.1127  1.3840 -1.1823
  348SOL    HW2 2015   0.455   3.116   3.412 -1.5313 -1.0675 -0.8762
  349SOL     OW 2016   3.731   2.200   5.592 -0.9334  0.0430 -0.3601
  349SOL    HW1 2017   3.678   2.256   5.649 -0.4778  0.7061 -0.5742
  349SOL    HW2 2018   3.677   2.186   5.515 -1.4644 -0.6728  0.1325
  350SOL     OW 2019   2.474   5.068   3.697 -0.0950  0.4957 -0.0100
  350SOL    HW1 2020   2.569   5.071   3.697 -0.0597 -0.3257 -0.0671
  350SOL    HW2 2021   2.452   5.007   3.626 -0.5849 -0.8078  1.2099
  351SOL     OW 2022   4.103   3.134   3.101  0.2554  0.4950  0.2000
  351SOL    HW1 2023   4.169   3.087   3.050 -0.2819 -0.0060 -0.0473
  351SOL    HW2 2024   4.148   3.159   3.182  0.7089  0.0576  0.0866
  352SOL     OW 2025   6.907   0.427   4.684 -0.0090 -0.2496  1.1004
  352SOL    HW1 2026   6.901   0.457   4.775  1.2969 -0.1336  1.1682
  352SOL    HW2 2027   6.913   0.508   4.632  0.5769 -0.3310  1.0331
  353SOL     OW 2028   0.749   3.554   4.935  0.0731 -0.2173 -0.1236
  353SOL    HW1 2029   0.826   3.598   4.898 -0.5615 -0.5936 -2.0419
  353SOL    HW2 2030   0.725   3.489   4.868  0.4201 -2.8955  2.1746
  354SOL     OW 2031   3.744   5.421   7.259  0.2021 -0.1084  0.1638
  354SOL    HW1 2032   3.688   5.499   7.255 -0.8241 -0.8450 -0.1502
  354SOL    HW2 2033   3.818   5.442   7.202 -0.1571  0.5727 -0.0630
  355SOL     OW 2034   0.886   2.123   3.104 -0.4952  0.2307 -0.0900
  355SOL    HW1 2035   0.957   2.186   3.094  0.7672 -1.2243 -0.7056
  355SOL    HW2 2036   0.852   2.111   3.015 -0.3312 -0.3616 -0.0817
  356SOL     OW 2037   4.453   1.791   1.654  0.3583  0.5166 -0.0815
  356SOL    HW1 2038   4.424   1.868   1.605 -0.4173  0.2567 -0.0345
  356SOL    HW2 2039   4.430   1.716   1.598  0.9079  0.3046 -0.0290
  357SOL     OW 2040   0.848   4.795   6.427  0.5418  0.0634 -0.3232
  357SOL    HW1 2041   0.789   4.770   6.499 -0.0617 -0.7015 -1.0656
  357SOL    HW2 2042   0.932   4.755   6.450  0.8349  1.2617  0.8055
  358SOL     OW 2043   5.812   3.310   3.706 -0.6497  0.2041  0.1389
  358SOL    HW1 2044   5.834   3.233   3.655 -3.2619 -0.6853  0.2235
  358SOL    HW2 2045   5.810   3.280   3.797 -1.2899  0.4663  0.2168
  359SOL     OW 2046   5.486   1.111   2.810 -0.2235 -0.2759  0.1660
  359SOL    HW1 2047   5.533   1.186   2.772  1.4104 -1.6597 -0.6560
  359SOL    HW2 2048   5.397   1.120   2.777  0.4253  0.2312 -1.5705
  360SOL     OW 2049   3.093   6.001   6.969 -0.0894  0.0907 -0.1050
  360SOL    HW1 2050   3.156   6.034   7.033 -0.6691  1.2304 -0.0857
  360SOL    HW2 2051   3.078   6.075   6.910 -0.4156 -0.5855 -0.8850
  361SOL     OW 2052   3.574   2.364   5.743  0.6393 -0.3380 -0.2864
  361SOL    HW1 2053   3.497   2.386   5.795  0.6829 -0.0283 -0.3525
  361SOL    HW2 2054   3.622   2.447   5.734  1.2324 -0.6234  0.1706
  362SOL     OW 2055   7.245   1.168   5.346  0.1357 -0.0669 -0.2093
  362SOL    HW1 2056   7.269   1.179   5.254 -0.8277 -0.8160 -0.5671
  362SOL    HW2 2057   7.302   1.097   5.377  2.7412  2.2469  0.7057
  363SOL     OW 2058   4.816   1.404   3.636 -0.0922 -0.6288  0.4652
  363SOL    HW1 2059   4.795   1.367   3.550  0.1034  0.0143  0.1324
  363SOL    HW2 2060   4.755   1.361   3.696 -3.3416  1.9823 -0.6071
  364SOL     OW 2061   2.134   2.556   2.729 -0.2130 -0.2038  0.3462
  364SOL    HW1 2062   2.073   2.551   2.656  1.0483 -0.5127 -0.7223
  364SOL    HW2 2063   2.142   2.465   2.760  1.1778 -0.5027 -0.8001
  365SOL     OW 2064   5.774   3.956   3.499 -0.1989  0.3803 -0.2060
  365SOL    HW1 2065   5.857   3.998   3.476 -0.3204  0.8912  0.2697
  365SOL    HW2 2066   5.739   3.925   3.415  1.6378 -2.0846 -0.1820
  366SOL     OW 2067   0.674   5.079   6.639  0.1648 -0.2912  0.0710
  366SOL    HW1 2068   0.597   5.095   6.584 -0.4039 -2.7649  0.0063
  366SOL    HW2 2069   0.638   5.055   6.724  0.9619  0.4627  0.6360
  367SOL     OW 2070   5.203   5.896   0.123 -0.1446 -0.4906 -0.0600
  367SOL    HW1 2071   5.282   5.929   0.166 -0.7233  0.0967  0.5795
  367SOL    HW2 2072   5.146   5.972   0.117 -1.8587 -1.4878  2.1852
  368SOL     OW 2073   5.078   0.463   1.623 -0.4153  0.5033  0.3319
  368SOL    HW1 2074   5.015   0.526   1.588 -1.3869  0.3831  1.7837
  368SOL    HW2 2075   5.072   0.389   1.563 -1.7509  0.4533  0.4898
  369SOL     OW 2076   2.488   3.871   1.427 -0.4880 -0.0984 -0.4823
  369SOL    HW1 2077   2.411   3.882   1.482 -0.3912  2.9481 -0.8097
  369SOL    HW2 2078   2.458   3.819   1.353 -0.6372 -4.3123  2.1948
  370SOL     OW 2079   6.248   1.338   0.567  0.2287  0.5293 -0.3532
  370SOL    HW1 2080   6.163   1.357   0.528  0.7492  0.1540 -1.7233
  370SOL    HW2 2081   6.230   1.326   0.660 -1.4731 -0.9932 -0.8198
  371SOL     OW 2082   3.584   4.137   0.127  0.0512  0.1468  0.3881
  371SOL    HW1 2083   3.552   4.215   0.082 -0.5043 -0.3656 -0.1126
  371SOL    HW2 2084   3.510   4.107   0.179 -0.6317 -1.5472 -1.4470
  372SOL     OW 2085   0.712   2.821   3.471  0.1372 -0.1989  0.1932
  372SOL    HW1 2086   0.749   2.909   3.473  1.4721 -0.7442  1.7448
  372SOL    HW2 2087   0.735   2.787   3.384 -0.4310  0.9515 -0.4380
  373SOL     OW 2088   1.194   7.006   1.587 -0.1116  0.5632 -0.2605
  373SOL    HW1 2089   1.234   6.976   1.506 -0.1045  1.6027 -0.6622
  373SOL    HW2 2090   1.260   6.989   1.655  0.3018  0.6390 -0.6395
  374SOL     OW 2091   5.048   7.233   2.860  0.4469 -0.1141  0.3112
  374SOL    HW1 2092   5.115   7.166   2.849  3.0431  2.1414  1.1950
  374SOL    HW2 2093   5.006   7.240   2.775 -0.5332 -3.3168  0.3913
  375SOL     OW 2094   5.676   5.836   0.333  0.0179 -0.3159  0.0773
  375SOL    HW1 2095   5.628   5.764   0.374 -2.7458  0.3227 -1.7311
  375SOL    HW2 2096   5.737   5.794   0.273 -1.1907 -1.2131 -0.5642
  376SOL     OW 2097   6.493   0.302   2.594 -0.1184  0.1965  0.1394
  376SOL    HW1 2098   6.405   0.312   2.555  0.0944 -1.0173 -0.7121
  376SOL    HW2 2099   6.482   0.236   2.662  0.2968 -0.6308 -0.5789
  377SOL     OW 2100   0.048   6.276   3.786 -0.1448 -0.2986 -0.4175
  377SOL    HW1 2101   0.009   6.351   3.741  2.1633  1.6527  0.5417
  377SOL    HW2 2102   0.060   6.307   3.876  0.3968 -2.0441  0.1495
  378SOL     OW 2103   7.152   2.888   0.107 -0.0502  0.2502 -0.2992
  378SOL    HW1 2104   7.143   2.933   0.023 -1.2223  0.2792 -0.1748
  378SOL    HW2 2105   7.145   2.958   0.172  0.3493  0.1629 -0.1593
  379SOL     OW 2106   3.509   6.980   2.403 -0.2813  0.4646 -0.8293
  379SOL    HW1 2107   3.463   6.957   2.322  0.9843  0.2688 -1.5174
  379SOL    HW2 2108   3.456   6.941   2.472 -0.0689 -1.5700 -1.7451
  380SOL     OW 2109   3.485   2.207   0.064 -0.2102 -0.4660  0.3700
  380SOL    HW1 2110   3.441   2.183   0.145 -1.8567 -1.2277 -0.6892
  380SOL    HW2 2111   3.416   2.247   0.011 -0.0150 -2.8135 -1.8522
  381SOL     OW 2112   6.602   7.365   2.016 -0.4659 -0.5635 -0.1280
  381SOL    HW1 2113   6.679   7.414   1.987  0.8151 -0.0014  3.7319
  381SOL    HW2 2114   6.630   7.274   2.013 -0.9413 -0.7037 -1.9686
  382SOL     OW 2115   3.549   0.940   6.938 -0.2708  0.1917  0.0115
  382SOL    HW1 2116   3.524   1.023   6.898  0.3562 -0.0183 -0.8659
  382SOL    HW2 2117   3.499   0.936   7.020 -1.4770  0.7164 -0.6700
  383SOL     OW 2118   2.694   4.896   4.054 -0.3775 -0.7617 -0.3900
  383SOL    HW1 2119   2.691   4.988   4.079  0.8420 -0.4105 -1.4120
  383SOL    HW2 2120   2.603   4.866   4.060 -0.5900  0.1174  1.3031
  384SOL     OW 2121   6.013   0.534   6.252 -0.1170 -0.1791  0.0214
  384SOL    HW1 2122   5.964   0.453   6.267 -0.8792  0.1652 -0.5300
  384SOL    HW2 2123   5.960   0.602   6.293  0.8748 -0.0370  1.1086
  385SOL     OW 2124   3.634   3.508   5.742  0.2424 -0.1537  0.0996
  385SOL    HW1 2125   3.715   3.484   5.788  0.5200 -0.1957 -0.3971
  385SOL    HW2 2126   3.578   3.431   5.750  0.5587 -0.4242 -0.2205
  386SOL     OW 2127   0.526   4.794   0.944  0.1250 -0.2048 -0.2917
  386SOL    HW1 2128   0.549   4.848   0.868 -0.8583 -1.4111 -1.4903
  386SOL    HW2 2129   0.471   4.725   0.909 -1.5610 -0.0033  1.7419
  387SOL     OW 2130   6.687   0.822   1.413  0.0169  0.3630  0.1023
  387SOL    HW1 2131   6.723   0.749   1.363 -0.8773 -0.2829  0.3755
  387SOL    HW2 2132   6.679   0.789   1.502  0.8539  1.2474  0.5222
  388SOL     OW 2133   4.853   1.600   0.409  0.6063  0.0998 -0.2778
  388SOL    HW1 2134   4.847   1.621   0.502 -1.8317  0.8167 -0.5417
  388SOL    HW2 2135   4.946   1.579   0.395  1.4583  2.1191  1.8346
  389SOL     OW 2136   7.327   7.206   0.208  0.2075 -0.1027 -0.1521
  389SOL    HW1 2137   7.359   7.280   0.259  0.3593  0.9533 -1.7042
  389SOL    HW2 2138   7.406   7.166   0.170 -0.0139  0.3200 -1.1003
  390SOL     OW 2139   6.928   0.674   1.701  0.1626 -0.3693  0.4002
  390SOL    HW1 2140   6.844   0.644   1.735  0.0986 -0.6831 -0.0133
  390SOL    HW2 2141   6.906   0.751   1.648  0.0939 -0.6125  0.0694
  391SOL     OW 2142   7.213   7.315   4.426  0.1324 -0.2864  0.1741
  391SOL    HW1 2143   7.182   7.267   4.350  0.1060  0.8558 -0.5632
  391SOL    HW2 2144   7.243   7.248   4.487 -1.4526 -1.2977 -0.1144
  392SOL     OW 2145   1.780   6.030   6.929  0.2979 -0.2770  0.2987
  392SOL    HW1 2146   1.869   6.019   6.896  0.6182 -1.2031  1.4316
  392SOL    HW2 2147   1.726   5.979   6.869  0.6438 -0.5106  0.1868
  393SOL     OW 2148   2.494   5.394   5.383 -0.1670 -0.7026  0.0537
  393SOL    HW1 2149   2.536   5.322   5.431 -0.0621 -1.1788 -0.7381
  393SOL    HW2 2150   2.481   5.359   5.295  1.4330  0.8111 -0.8461
  394SOL     OW 2151   4.361   1.574   5.282  0.2815  0.0885  0.3832
  394SOL    HW1 2152   4.420   1.546   5.352  1.5201 -1.1016 -1.0559
  394SOL    HW2 2153   4.415   1.631   5.227 -0.4004  0.3126 -0.0677
  395SOL     OW 2154   0.418   6.423   5.311 -0.4175  0.0432  0.2319
  395SOL    HW1 2155   0.467   6.443   5.232  0.7975  0.8749  1.1505
  395SOL    HW2 2156   0.349   6.363   5.283  0.8414 -0.7933 -1.1996
  396SOL     OW 2157   2.672   6.730   2.124 -0.0123  0.0299 -0.2531
  396SOL    HW1 2158   2.664   6.797   2.192  0.0220 -0.9185  0.7250
  396SOL    HW2 2159   2.740   6.764   2.065 -0.2402  1.0011  0.0221
  397SOL     OW 2160   6.418   6.105   0.067 -0.4558 -0.7213 -0.4730
  397SOL    HW1 2161   6.496   6.161   0.063 -1.3409  0.7531  1.2477
  397SOL    HW2 2162   6.345   6.164   0.049 -1.4010 -1.3853  0.9858
  398SOL     OW 2163   3.618   6.390   4.034 -0.1524  0.1262  0.0815
  398SOL    HW1 2164   3.626   6.327   3.962 -1.2937  2.5933 -2.4382
  398SOL    HW2 2165   3.533   6.372   4.073 -0.6714  0.3203 -0.9161
  399SOL     OW 2166   6.154   0.409   5.009  0.4037 -0.5144  0.1382
  399SOL    HW1 2167   6.225   0.417   5.073  0.1797 -1.0431  0.4588
  399SOL    HW2 2168   6.197   0.408   4.924  0.9139 -2.4509  0.3893
  400SOL     OW 2169   6.709   5.976   4.192 -0.0642 -0.5030  0.2642
  400SOL    HW1 2170   6.788   5.925   4.211 -0.1093  0.3577  3.1793
  400SOL    HW2 2171   6.740   6.049   4.138  1.1466 -0.2044  1.3207
  401SOL     OW 2172   4.778   3.912   5.213 -0.3357 -0.0238 -0.2703
  401SOL    HW1 2173   4.747   3.836   5.163  0.0725  0.2431 -0.9382
  401SOL    HW2 2174   4.813   3.875   5.293  0.3546 -0.6019 -0.8232
  402SOL     OW 2175   0.754   4.314   5.156 -0.1628 -0.2622 -0.0931
  402SOL    HW1 2176   0.791   4.402   5.160  0.6835 -0.5288 -1.3791
  402SOL    HW2 2177   0.830   4.257   5.143 -0.6926 -1.1906  0.7863
  403SOL     OW 2178   2.124   2.657   0.826  0.5018  0.5961 -0.2221
  403SOL    HW1 2179   2.113   2.563   0.809 -0.6517  0.9576 -1.6694
  403SOL    HW2 2180   2.104   2.668   0.919  1.7334 -0.7295  0.2421
  404SOL     OW 2181   1.836   4.724   7.002  0.3000  0.1872 -0.1050
  404SOL    HW1 2182   1.853   4.650   6.943 -0.3073  0.4483 -0.6150
  404SOL    HW2 2183   1.757   4.698   7.050 -0.6938  1.0454 -1.2168
  405SOL     OW 2184   6.718   4.493   0.781 -0.7232  0.3123 -0.2974
  405SOL    HW1 2185   6.710   4.408   0.738  1.1813  0.4005 -0.8893
  405SOL    HW2 2186   6.735   4.471   0.873  1.6063 -0.0225 -0.7694
  406SOL     OW 2187   6.907   4.161   2.586 -0.3357  0.0084 -0.5753
  406SOL    HW1 2188   6.935   4.097   2.521  0.8627 -0.1971  0.1234
  406SOL    HW2 2189   6.981   4.222   2.594 -0.9721  0.7741 -0.3293
  407SOL     OW 2190   1.899   2.953   4.932  0.0574  0.5597  0.3445
  407SOL    HW1 2191   1.980   3.004   4.925 -0.1788  0.8613 -0.2052
  407SOL    HW2 2192   1.928   2.862   4.925  0.5287  0.5816  1.7366
  408SOL     OW 2193   5.958   3.120   2.830 -0.5314 -0.0704 -0.0894
  408SOL    HW1 2194   5.971   3.137   2.736 -0.7453 -0.9298 -0.2774
  408SOL    HW2 2195   5.974   3.205   2.871 -2.0553  0.7440 -1.0610
  409SOL     OW 2196   0.954   1.140   2.462 -0.0775 -0.0194 -0.2969
  409SOL    HW1 2197   0.956   1.057   2.415  1.0784  0.4212 -1.0683
  409SOL    HW2 2198   1.031   1.138   2.518 -1.4902 -0.5859  1.7620
  410SOL     OW 2199   3.029   5.251   3.223  0.3020  0.1778 -0.0509
  410SOL    HW1 2200   3.007   5.159   3.209 -0.4655  0.1440  1.1696
  410SOL    HW2 2201   3.120   5.258   3.197  0.0494 -0.6597 -1.2608
  411SOL     OW 2202   5.553   4.287   2.723 -0.6559  0.0849 -0.1285
  411SOL    HW1 2203   5.609   4.365   2.721  0.6764 -0.7800  1.1276
  411SOL    HW2 2204   5.505   4.294   2.806 -1.3439  0.1017 -0.5223
  412SOL     OW 2205   5.712   0.762   7.064  0.4029 -0.3923 -0.2628
  412SOL    HW1 2206   5.650   0.706   7.110 -0.3291 -0.1673 -0.9516
  412SOL    HW2 2207   5.735   0.713   6.985  0.5148 -0.1450 -0.3866
  413SOL     OW 2208   5.244   1.171   2.697  0.2771 -0.3069  0.2833
  413SOL    HW1 2209   5.195   1.210   2.625  0.9106  0.5941  0.3167
  413SOL    HW2 2210   5.180   1.158   2.767 -0.7946 -3.0308 -1.0562
  414SOL     OW 2211   2.330   0.374   6.482  0.2354  0.6004 -0.2011
  414SOL    HW1 2212   2.323   0.281   6.500  1.5622  0.3460 -0.9042
  414SOL    HW2 2213   2.260   0.414   6.535 -0.3929 -0.7768  0.0519
  415SOL     OW 2214   4.690   5.645   6.857  0.5906  0.7736  0.0568
  415SOL    HW1 2215   4.671   5.553   6.842  0.8207  0.7336  0.0053
  415SOL    HW2 2216   4.784   5.654   6.839  0.9441  0.6784  1.6796
  416SOL     OW 2217   6.850   4.540   4.723 -0.4356  0.4586 -0.0963
  416SOL    HW1 2218   6.834   4.633   4.708 -2.3717  0.0470 -0.9209
  416SOL    HW2 2219   6.831   4.498   4.638 -0.2361 -0.7458  0.4275
  417SOL     OW 2220   4.875   1.400   7.084 -0.9382  0.5257  0.1876
  417SOL    HW1 2221   4.971   1.403   7.079 -0.9203 -0.7379 -4.3300
  417SOL    HW2 2222   4.857   1.344   7.159  1.8440  0.5180  0.9880
  418SOL     OW 2223   1.348   4.528   4.557  0.4629  0.2895 -0.1497
  418SOL    HW1 2224   1.419   4.566   4.506  1.0208  0.9166  1.0584
  418SOL    HW2 2225   1.380   4.442   4.584  0.6401  0.4452  0.1358
  419SOL     OW 2226   4.268   4.181   2.627 -0.5474  0.7480  0.3434
  419SOL    HW1 2227   4.235   4.254   2.679  0.4385  1.8309 -0.4795
  419SOL    HW2 2228   4.347   4.153   2.673  0.4439  1.8443 -0.6103
  420SOL     OW 2229   1.810   6.812   7.173 -0.8576 -0.2295 -0.0539
  420SOL    HW1 2230   1.739   6.755   7.142 -0.2865 -1.2194  0.4219
  420SOL    HW2 2231   1.876   6.807   7.104 -0.8675 -0.0264 -0.0777
  421SOL     OW 2232   6.729   2.025   4.852 -0.2460  0.8239 -0.2360
  421SOL    HW1 2233   6.795   1.959   4.830  0.3074  1.4544 -0.4752
  421SOL    HW2 2234   6.774   2.086   4.910 -1.1995  0.1465  1.2511
  422SOL     OW 2235   5.150   4.760   1.841  1.1174 -0.4134  0.7119
  422SOL    HW1 2236   5.110   4.674   1.825  0.2578 -0.1660  1.4178
  422SOL    HW2 2237   5.086   4.823   1.807  0.7687 -0.0024  2.0474
  423SOL     OW 2238   2.289   4.085   6.149 -0.7099 -0.1707  0.8082
  423SOL    HW1 2239   2.244   4.169   6.161 -0.0987  0.3139 -0.1692
  423SOL    HW2 2240   2.343   4.098   6.072  0.9699 -0.7875  1.8218
  424SOL     OW 2241   0.430   4.064   2.890 -0.3087 -0.2165  0.8118
  424SOL    HW1 2242   0.466   4.020   2.967  0.2234 -1.0500  0.1076
  424SOL    HW2 2243   0.504   4.115   2.855 -0.7109  0.6361  1.1851
  425SOL     OW 2244   6.762   3.242   5.530  0.3314 -0.0939  0.0240
  425SOL    HW1 2245   6.775   3.148   5.516 -2.3738 -0.3445 -1.5375
  425SOL    HW2 2246   6.759   3.279   5.442 -1.6047  0.9134  0.4558
  426SOL     OW 2247   2.232   3.146   3.227  0.2755 -0.0123 -0.1051
  426SOL    HW1 2248   2.326   3.127   3.232  0.4583  0.7857 -0.4170
  426SOL    HW2 2249   2.227   3.239   3.205 -0.5696 -0.3691 -1.5997
  427SOL     OW 2250   7.022   5.149   5.150  0.7296  0.4631 -0.1954
  427SOL    HW1 2251   6.985   5.219   5.096 -0.3915  0.1674  0.1676
  427SOL    HW2 2252   6.984   5.069   5.114  1.3105  0.1162 -0.0449
  428SOL     OW 2253   2.213   4.694   5.186  0.1725  0.5202 -0.0198
  428SOL    HW1 2254   2.304   4.698   5.216 -0.2287 -0.7447  1.5278
  428SOL    HW2 2255   2.178   4.615   5.228 -2.2434  2.1210  1.1973
  429SOL     OW 2256   4.604   1.551   2.470  0.0859  0.0685 -0.1721
  429SOL    HW1 2257   4.621   1.605   2.392  0.9468 -0.2023 -0.1869
  429SOL    HW2 2258   4.671   1.483   2.466 -1.8889 -1.9559 -0.9780
  430SOL     OW 2259   1.888   4.824   2.306  0.9925  0.3431 -0.1191
  430SOL    HW1 2260   1.910   4.791   2.393 -0.5054 -2.1726 -0.6062
  430SOL    HW2 2261   1.794   4.808   2.297  1.0003  1.0693 -1.9953
  431SOL     OW 2262   0.646   6.797   4.742 -0.1524  0.0274  0.4143
  431SOL    HW1 2263   0.668   6.854   4.816 -2.4376 -0.1161  1.2979
  431SOL    HW2 2264   0.729   6.757   4.717  1.2121  2.3252  0.9447
  432SOL     OW 2265   7.110   3.541   6.775 -0.3304  0.1498  0.3500
  432SOL    HW1 2266   7.189   3.594   6.767  0.0235 -0.2709  1.0606
  432SOL    HW2 2267   7.066   3.552   6.690  0.2506  0.7520  0.1159
  433SOL     OW 2268   2.941   6.749   6.588 -0.4866 -0.2503  0.4260
  433SOL    HW1 2269   2.891   6.678   6.547 -2.1366  1.0088  0.1425
  433SOL    HW2 2270   2.919   6.744   6.681  0.3668 -0.8594  0.5976
  434SOL     OW 2271   1.109   5.995   2.959 -0.1360  0.1272 -0.6953
  434SOL    HW1 2272   1.160   6.037   3.028 -0.3278  0.2420 -0.6213
  434SOL    HW2 2273   1.120   6.054   2.884 -1.5399  1.0731 -0.1969
  435SOL     OW 2274   1.223   3.211   0.126  0.7399 -0.3478  0.0492
  435SOL    HW1 2275   1.128   3.203   0.132  0.5686  1.5583  0.5003
  435SOL    HW2 2276   1.256   3.156   0.197 -0.1034  0.0687  0.7916
  436SOL     OW 2277   6.000   5.303   3.931 -0.0070 -0.0387  0.3431
  436SOL    HW1 2278   6.003   5.348   3.847  2.7728 -0.9222 -0.1547
  436SOL    HW2 2279   5.931   5.347   3.980 -0.6296  1.5350 -1.8093
  437SOL     OW 2280   5.188   5.339   4.882  0.1802 -1.3613 -0.1500
  437SOL    HW1 2281   5.196   5.273   4.951 -0.0145 -1.8681 -0.6019
  437SOL    HW2 2282   5.109   5.312   4.833 -0.9177  0.1796  0.7021
  438SOL     OW 2283   0.411   0.404   7.096 -0.1216 -0.2542 -0.4374
  438SOL    HW1 2284   0.442   0.493   7.077  0.5464 -0.3887 -0.0091
  438SOL    HW2 2285   0.447   0.384   7.182 -0.0665 -1.0399 -0.6385
  439SOL     OW 2286   7.027   6.027   3.753  0.4266 -0.0384  0.3584
  439SOL    HW1 2287   7.017   6.122   3.758 -1.4381 -0.2061  0.4226
  439SOL    HW2 2288   6.984   6.003   3.671 -0.6410 -0.9828  1.1648
  440SOL     OW 2289   4.799   1.831   6.896 -0.0705  0.2499  0.2162
  440SOL    HW1 2290   4.733   1.875   6.949  0.6209  1.3605  0.1968
  440SOL    HW2 2291   4.761   1.746   6.875 -1.2147  0.6152  0.7401
  441SOL     OW 2292   2.542   5.248   6.539  0.2178  0.7418  0.1939
  441SOL    HW1 2293   2.486   5.232   6.615  1.3178  1.9600  1.3158
  441SOL    HW2 2294   2.592   5.326   6.562  1.9834  0.0301 -0.9824
  442SOL     OW 2295   4.836   2.792   5.225  0.0602  0.7055 -0.0878
  442SOL    HW1 2296   4.798   2.841   5.152 -1.5066 -1.9642 -1.2301
  442SOL    HW2 2297   4.762   2.748   5.266  1.1818  0.4633  1.8314
  443SOL     OW 2298   6.123   6.036   1.997  0.0793  0.8225  0.3562
  443SOL    HW1 2299   6.042   6.072   2.035  0.3892  2.0247 -0.0633
  443SOL    HW2 2300   6.122   6.067   1.906  0.0268 -0.8543 -0.2498
  444SOL     OW 2301   2.924   7.023   3.548 -0.0012  0.0258  0.0980
  444SOL    HW1 2302   2.906   6.935   3.582 -0.1311 -0.7537 -1.8310
  444SOL    HW2 2303   2.850   7.076   3.576  0.1649 -0.4276  1.4433
  445SOL     OW 2304   2.644   3.640   4.483  1.0096 -0.4818 -0.6004
  445SOL    HW1 2305   2.690   3.703   4.428 -0.0323  0.8683 -0.0006
  445SOL    HW2 2306   2.553   3.669   4.481  0.5550 -1.7874 -0.0303
  446SOL     OW 2307   4.132   7.284   4.900 -0.0503 -0.1995  0.0531
  446SOL    HW1 2308   4.077   7.221   4.946  0.3014 -0.2873  0.3576
  446SOL    HW2 2309   4.219   7.245   4.902 -0.0824 -0.3480 -0.9518
  447SOL     OW 2310   6.498   5.735   2.668  0.3342 -0.6187  0.4938
  447SOL    HW1 2311   6.480   5.824   2.699 -1.6842 -0.8377  0.0337
  447SOL    HW2 2312   6.499   5.682   2.748 -0.2110 -0.4518  0.6166
  448SOL     OW 2313   5.647   0.439   4.033  0.2906  0.2721  0.3051
  448SOL    HW1 2314   5.661   0.510   3.971 -0.3015 -1.0019 -1.3433
  448SOL    HW2 2315   5.583   0.383   3.992 -0.1099 -0.6545  2.0785
  449SOL     OW 2316   6.731   5.641   5.546  0.4812  0.2781 -0.2506
  449SOL    HW1 2317   6.762   5.630   5.635 -0.8785  0.5043  0.2788
  449SOL    HW2 2318   6.754   5.732   5.524 -1.0145  0.9116  0.6598
  450SOL     OW 2319   1.779   0.429   2.585 -0.4045  0.3928 -0.1519
  450SOL    HW1 2320   1.725   0.352   2.605  1.6369 -0.8565  0.8999
  450SOL    HW2 2321   1.772   0.440   2.490  0.1720 -1.8428 -0.5053
  451SOL     OW 2322   4.329   5.933   0.086 -0.0164  0.0828  0.1836
  451SOL    HW1 2323   4.407   5.905   0.038  0.3056 -0.0523  0.7752
  451SOL    HW2 2324   4.321   5.870   0.158 -0.8377 -0.0721 -0.0393
  452SOL     OW 2325   6.269   2.017   3.871 -0.1399 -0.2712  0.0920
  452SOL    HW1 2326   6.314   2.099   3.852 -1.6394  0.8022  1.0072
  452SOL    HW2 2327   6.245   1.982   3.785  0.4298  0.2784 -0.2979
  453SOL     OW 2328   7.153   1.343   5.577 -0.5594 -0.2992  0.3509
  453SOL    HW1 2329   7.078   1.302   5.620  1.4782 -2.8947  1.7115
  453SOL    HW2 2330   7.164   1.293   5.496 -1.8362  1.8656 -1.2767
  454SOL     OW 2331   7.017   0.066   6.006 -0.1631  0.4886  0.4062
  454SOL    HW1 2332   7.101   0.046   5.965 -0.8323  0.0113 -0.8006
  454SOL    HW2 2333   7.019   0.161   6.022  0.5524  0.4933  0.2915
  455SOL     OW 2334   2.239   3.674   4.184  0.4537 -0.1063 -0.0729
  455SOL    HW1 2335   2.212   3.666   4.275 -3.0163 -2.1969 -1.0782
  455SOL    HW2 2336   2.275   3.588   4.163  1.1700  0.3364 -0.6943
  456SOL     OW 2337   6.707   1.076   0.699  0.1328 -0.4298  0.1125
  456SOL    HW1 2338   6.726   1.048   0.789 -0.3525 -1.3205 -0.0509
  456SOL    HW2 2339   6.793   1.076   0.656  0.1934 -1.3921  0.2095
  457SOL     OW 2340   2.468   1.855   3.807  0.3764 -0.0793  0.5233
  457SOL    HW1 2341   2.498   1.883   3.894 -0.6900  1.8914  0.3346
  457SOL    HW2 2342   2.375   1.836   3.819  0.1486  0.5039 -0.2284
  458SOL     OW 2343   3.466   5.748   3.321 -0.2907  0.1746 -0.7521
  458SOL    HW1 2344   3.511   5.811   3.378 -0.5120 -0.5255  0.2175
  458SOL    HW2 2345   3.379   5.785   3.309 -0.1274  0.5038 -0.9353
  459SOL     OW 2346   4.903   4.238   7.202 -0.0275  0.3224  0.6454
  459SOL    HW1 2347   4.984   4.187   7.198 -0.0412  0.3726 -0.4447
  459SOL    HW2 2348   4.833   4.172   7.203 -0.0098  0.2960  0.3061
  460SOL     OW 2349   5.538   3.490   5.788 -0.1641  0.0928  0.2893
  460SOL    HW1 2350   5.455   3.524   5.753 -0.1158  0.5246  0.5858
  460SOL    HW2 2351   5.512   3.422   5.850 -0.2234 -2.0343 -1.8925
  461SOL     OW 2352   2.537   0.561   0.985  0.4150 -0.3274 -0.4072
  461SOL    HW1 2353   2.606   0.589   1.045  0.2562 -0.2623 -0.2524
  461SOL    HW2 2354   2.466   0.531   1.042 -0.0304  0.4366 -0.5420
  462SOL     OW 2355   0.661   6.563   6.769  0.3714 -0.6168  0.3218
  462SOL    HW1 2356   0.697   6.582   6.856 -1.0454 -0.1937  0.8431
  462SOL    HW2 2357   0.571   6.594   6.773 -0.3587 -2.4852 -0.6213
  463SOL     OW 2358   3.209   0.679   2.204 -0.3327 -0.6245  0.1041
  463SOL    HW1 2359   3.137   0.621   2.231 -0.4696 -0.0369  1.0435
  463SOL    HW2 2360   3.240   0.718   2.285  0.2533  0.0577 -0.4382
  464SOL     OW 2361   2.775   0.825   3.711  0.3810 -0.0469 -0.1599
  464SOL    HW1 2362   2.803   0.826   3.803  0.2742  1.9952 -0.1035
  464SOL    HW2 2363   2.684   0.853   3.713  0.0369 -1.0939 -0.8132
  465SOL     OW 2364   2.035   0.917   0.557 -0.0687  0.0812 -0.1062
  465SOL    HW1 2365   2.122   0.887   0.584 -0.0475 -0.8650 -1.1708
  465SOL    HW2 2366   2.034   0.905   0.462 -1.3909  0.0133 -0.0915
  466SOL     OW 2367   6.631   5.458   0.386 -0.4543  0.1269  0.4199
  466SOL    HW1 2368   6.661   5.370   0.364 -0.5687  0.3298 -0.6083
  466SOL    HW2 2369   6.701   5.516   0.357  0.5036  0.3148  2.8150
  467SOL     OW 2370   0.540   3.893   6.231  0.0729  0.5867  0.2322
  467SOL    HW1 2371   0.596   3.824   6.197 -0.8977  0.1817 -0.5823
  467SOL    HW2 2372   0.564   3.971   6.180  0.0920  0.4853  0.0872
  468SOL     OW 2373   7.040   2.795   2.076  0.0433 -0.0988  0.0817
  468SOL    HW1 2374   7.032   2.711   2.030 -2.4457 -0.5375  1.1599
  468SOL    HW2 2375   7.070   2.771   2.163  0.8444  0.3306 -0.0644
  469SOL     OW 2376   0.531   5.393   5.958  0.6302 -0.3168 -0.4656
  469SOL    HW1 2377   0.600   5.400   5.892 -0.6116 -0.0369 -1.7593
  469SOL    HW2 2378   0.512   5.484   5.982  2.1113 -0.4375  1.4477
  470SOL     OW 2379   0.469   3.491   4.692  0.2167 -0.5214  0.0133
  470SOL    HW1 2380   0.534   3.425   4.716  0.0069 -0.8305 -0.2626
  470SOL    HW2 2381   0.435   3.462   4.607 -1.2481 -1.0821  0.7638
  471SOL     OW 2382   3.481   2.199   2.109  0.5277  0.3471  0.5947
  471SOL    HW1 2383   3.468   2.114   2.151  1.8046  1.2874  3.0830
  471SOL    HW2 2384   3.474   2.262   2.180  0.2064  2.3226 -1.0894
  472SOL     OW 2385   5.759   1.893   4.597 -0.2656 -0.6046  0.1433
  472SOL    HW1 2386   5.851   1.894   4.623 -0.8299  0.1941  2.3673
  472SOL    HW2 2387   5.733   1.802   4.608 -0.0248 -0.6112  0.7441
  473SOL     OW 2388   1.240   2.793   5.031 -0.1807  0.3066  0.2727
  473SOL    HW1 2389   1.271   2.702   5.028  1.7895  0.9404 -0.3273
  473SOL    HW2 2390   1.264   2.828   4.945 -0.9472  1.4108  0.4928
  474SOL     OW 2391   4.157   3.925   2.583 -0.2283 -0.4539  0.0701
  474SOL    HW1 2392   4.137   3.881   2.666 -0.8426  0.1220  0.2351
  474SOL    HW2 2393   4.193   4.010   2.609  0.1506 -0.5095 -0.2561
  475SOL     OW 2394   2.090   4.497   2.360  0.1927 -0.4753 -0.2880
  475SOL    HW1 2395   2.004   4.474   2.326 -0.2939  1.6298 -0.6208
  475SOL    HW2 2396   2.149   4.488   2.285  0.1542 -1.1941 -0.2436
  476SOL     OW 2397   3.726   1.282   5.532  0.0885  0.9410 -0.1569
  476SOL    HW1 2398   3.724   1.343   5.458 -0.4280  1.3528  0.1837
  476SOL    HW2 2399   3.670   1.209   5.505  1.1192  0.3674 -0.7694
  477SOL     OW 2400   3.894   0.994   3.968 -0.7988  0.0328  0.5195
  477SOL    HW1 2401   3.825   0.981   3.903 -1.0818 -1.3327  1.0492
  477SOL    HW2 2402   3.848   1.030   4.044 -0.2758  2.8210 -0.3825
  478SOL     OW 2403   5.786   6.050   0.805 -0.2226 -0.4927  0.5253
  478SOL    HW1 2404   5.840   6.106   0.749 -0.5141  0.0771  0.8085
  478SOL    HW2 2405   5.705   6.038   0.755 -0.6005  0.2631  0.9544
  479SOL     OW 2406   2.413   4.766   4.850  0.0675 -0.3759  0.1327
  479SOL    HW1 2407   2.472   4.788   4.779 -0.5937 -1.7169 -0.8797
  479SOL    HW2 2408   2.409   4.670   4.850  0.7823 -0.4882  2.6083
  480SOL     OW 2409   7.285   3.670   4.018  0.4336  0.6459  0.1096
  480SOL    HW1 2410   7.197   3.635   4.030 -0.1177 -0.0592 -4.1767
  480SOL    HW2 2411   7.342   3.609   4.065 -1.1703 -0.9327  0.1244
  481SOL     OW 2412   3.147   6.762   2.553  0.1718 -0.1869  0.2075
  481SOL    HW1 2413   3.074   6.790   2.608  1.0709 -0.3910  1.5665
  481SOL    HW2 2414   3.225   6.794   2.598  1.0094 -1.4130 -0.2962
  482SOL     OW 2415   1.008   6.392   6.531 -0.1736 -0.4181 -0.0724
  482SOL    HW1 2416   0.998   6.486   6.546 -0.2942 -0.2174 -1.3311
  482SOL    HW2 2417   1.051   6.386   6.446  1.5841 -1.4746  0.8237
  483SOL     OW 2418   2.114   4.365   1.779  0.2359  0.3068  0.5717
  483SOL    HW1 2419   2.059   4.408   1.713  2.2814  2.1465 -0.0819
  483SOL    HW2 2420   2.083   4.401   1.862 -1.1315 -0.5810  0.4661
  484SOL     OW 2421   0.688   7.313   2.104  0.3900  0.0033 -0.4364
  484SOL    HW1 2422   0.676   7.268   2.188 -0.3933 -1.4374 -1.2694
  484SOL    HW2 2423   0.781   7.303   2.084  0.6404  0.6293  0.4033
  485SOL     OW 2424   1.840   6.396   2.294 -0.2238  0.2973 -0.6361
  485SOL    HW1 2425   1.796   6.335   2.353  0.9826  0.7091  0.7727
  485SOL    HW2 2426   1.843   6.478   2.344  1.6731  0.4011 -0.8582
  486SOL     OW 2427   7.233   5.864   7.295 -0.1997 -0.3926 -0.8748
  486SOL    HW1 2428   7.176   5.941   7.300  2.9245  2.0897  0.2924
  486SOL    HW2 2429   7.253   5.854   7.202  0.2353  1.0011 -0.9545
  487SOL     OW 2430   2.999   2.468   6.963 -0.6303  0.4213 -0.5376
  487SOL    HW1 2431   2.980   2.389   6.911 -2.0717  0.8457 -0.6846
  487SOL    HW2 2432   2.934   2.532   6.934  0.6503  1.7450 -0.5559
  488SOL     OW 2433   2.714   3.653   5.191 -0.0475  0.0304 -0.4962
  488SOL    HW1 2434   2.725   3.585   5.258 -0.6551  0.0839 -0.3397
  488SOL    HW2 2435   2.777   3.630   5.123  2.3603  1.2896  1.1286
  489SOL     OW 2436   1.689   4.433   0.944  0.6549  0.3171 -0.1662
  489SOL    HW1 2437   1.608   4.451   0.991 -0.7380 -1.5477 -1.6774
  489SOL    HW2 2438   1.718   4.519   0.913  0.7681  1.3804  2.5812
  490SOL     OW 2439   4.759   3.599   2.057  0.0453 -0.0436 -0.3853
  490SOL    HW1 2440   4.694   3.652   2.104  0.0699 -1.1590  0.9851
  490SOL    HW2 2441   4.754   3.629   1.967 -2.8069 -0.4577 -0.4751
  491SOL     OW 2442   6.006   3.431   3.334 -0.0479 -0.1769  0.0800
  491SOL    HW1 2443   5.948   3.507   3.329 -0.2777 -0.4026 -1.0052
  491SOL    HW2 2444   5.948   3.357   3.317  0.6733 -0.3421 -1.8819
  492SOL     OW 2445   7.149   2.789   0.510  0.4109  0.4856 -0.6233
  492SOL    HW1 2446   7.240   2.763   0.492  0.4206  1.0045 -1.3551
  492SOL    HW2 2447   7.155   2.881   0.535  0.2850  0.0275  1.2060
  493SOL     OW 2448   3.767   6.354   3.114 -0.3654  0.2208  0.0332
  493SOL    HW1 2449   3.832   6.424   3.111 -0.3136  0.1658 -0.0978
  493SOL    HW2 2450   3.809   6.279   3.073 -0.3721  0.0716  0.2974
  494SOL     OW 2451   1.152   0.161   3.848  0.2278 -0.5629 -0.0796
  494SOL    HW1 2452   1.067   0.198   3.871  0.5674 -0.1007  0.4570
  494SOL    HW2 2453   1.139   0.120   3.762 -0.0473  1.1552 -0.8951
  495SOL     OW 2454   3.052   2.097   1.314 -0.0711 -0.5374 -0.0648
  495SOL    HW1 2455   3.135   2.143   1.300 -0.5562 -0.1127 -1.9077
  495SOL    HW2 2456   3.034   2.055   1.230 -0.7852 -2.2442  0.8843
  496SOL     OW 2457   4.915   2.466   3.139 -0.2355  0.0005  0.7234
  496SOL    HW1 2458   4.848   2.465   3.071 -1.2531  0.6876  1.6865
  496SOL    HW2 2459   4.867   2.464   3.221  0.9629 -0.6015  1.4482
  497SOL     OW 2460   3.000   3.406   0.641  0.1312 -0.0920  0.0353
  497SOL    HW1 2461   3.056   3.409   0.718  0.9657  0.0462 -0.5625
  497SOL    HW2 2462   2.988   3.498   0.617 -1.0367 -0.0693  0.6287
  498SOL     OW 2463   4.473   4.532   6.119  0.0292 -0.4134  0.0513
  498SOL    HW1 2464   4.448   4.559   6.207 -0.7152  0.4765 -0.4143
  498SOL    HW2 2465   4.557   4.487   6.130  1.0544  1.6083  0.9210
  499SOL     OW 2466   5.202   0.043   1.938 -0.4001 -0.3852  0.1455
  499SOL    HW1 2467   5.169   0.040   1.849 -2.7239 -0.5010  0.9381
  499SOL    HW2 2468   5.143  -0.014   1.988  0.3454  0.2809  1.8909
  500SOL     OW 2469   7.157   5.373   1.159  0.4676  0.1996 -0.7561
  500SOL    HW1 2470   7.193   5.347   1.244 -0.7619 -0.8685 -0.5464
  500SOL    HW2 2471   7.162   5.295   1.105 -0.8680  0.2177 -0.9395
  501SOL     OW 2472   6.034   0.445   1.659 -0.3110 -0.1787  0.1022
  501SOL    HW1 2473   6.114   0.413   1.702 -0.2983  0.7996  0.8252
  501SOL    HW2 2474   5.996   0.506   1.722  0.5551  2.5926 -1.9073
  502SOL     OW 2475   2.388   6.231   4.191  0.9332  0.5938 -0.6546
  502SOL    HW1 2476   2.331   6.253   4.264  0.5965 -1.1256 -0.3450
  502SOL    HW2 2477   2.417   6.315   4.156 -2.2501  1.5836 -1.2002
  503SOL     OW 2478   2.372   4.042   4.028  0.2325 -0.2700 -0.1865
  503SOL    HW1 2479   2.388   4.010   4.117 -0.9402 -0.6270 -0.0806
  503SOL    HW2 2480   2.361   4.136   4.038  0.4286 -0.2648 -0.0033
  504SOL     OW 2481   4.685   3.221   4.103  0.5254 -0.5857 -0.1483
  504SOL    HW1 2482   4.663   3.283   4.033  1.3546 -1.1752 -0.9576
  504SOL    HW2 2483   4.611   3.225   4.163  0.0312  0.3179 -0.7938
  505SOL     OW 2484   6.010   4.486   3.976 -0.3377  0.4821  0.0427
  505SOL    HW1 2485   5.927   4.471   3.930 -0.0204 -2.3714  0.1766
  505SOL    HW2 2486   5.993   4.454   4.065  0.5793  0.9162  0.3770
  506SOL     OW 2487   3.883   5.468   2.465  0.6420  0.2254  0.2892
  506SOL    HW1 2488   3.925   5.506   2.542  1.2581  2.2461 -0.9888
  506SOL    HW2 2489   3.953   5.463   2.399 -0.3489  0.5628 -0.8292
  507SOL     OW 2490   5.868   3.530   6.591 -0.1052 -0.0204 -0.4733
  507SOL    HW1 2491   5.860   3.510   6.684  1.7511  0.0129 -0.2529
  507SOL    HW2 2492   5.955   3.497   6.567 -1.0520 -1.1962 -2.5223
  508SOL     OW 2493   0.236   3.052   5.757 -0.1337 -0.6382  0.0542
  508SOL    HW1 2494   0.307   3.117   5.758  1.6995 -2.4623 -1.9180
  508SOL    HW2 2495   0.161   3.099   5.721  0.6829  0.7935  0.1443
  509SOL     OW 2496   2.654   6.957   3.444 -0.2514 -0.3590  0.4027
  509SOL    HW1 2497   2.728   6.983   3.390 -1.3447 -0.0435 -0.9996
  509SOL    HW2 2498   2.668   7.002   3.527  1.1663 -0.3856  0.2029
  510SOL     OW 2499   5.877   0.547   1.441  0.4215 -0.0334 -0.0322
  510SOL    HW1 2500   5.863   0.610   1.512 -0.3394 -0.8214  0.5392
  510SOL    HW2 2501   5.901   0.466   1.485  2.3706  0.0865 -0.8037
  511SOL     OW 2502   6.530   1.574   1.322 -0.4057 -0.1286 -0.8406
  511SOL    HW1 2503   6.494   1.662   1.336  1.8208  0.4682  2.0263
  511SOL    HW2 2504   6.605   1.588   1.264  0.6100  0.0744  0.4950
  512SOL     OW 2505   0.296   0.299   0.771 -0.3620 -0.5188  0.0136
  512SOL    HW1 2506   0.269   0.212   0.801  1.8565 -0.0769  4.1033
  512SOL    HW2 2507   0.242   0.360   0.822  1.2102  0.3496  0.7635
  513SOL     OW 2508   4.351   5.786   4.456  0.0650 -0.0187  0.1615
  513SOL    HW1 2509   4.389   5.707   4.418 -1.9870 -0.0310 -2.0739
  513SOL    HW2 2510   4.384   5.858   4.402 -0.3266  0.3485  0.4042
  514SOL     OW 2511   7.076   1.509   3.415  0.0942  0.0850 -0.5113
  514SOL    HW1 2512   7.052   1.576   3.351  0.0614  0.3165 -0.2556
  514SOL    HW2 2513   7.112   1.557   3.489 -1.9371  0.0119  0.6048
  515SOL     OW 2514   2.634   3.610   7.013 -0.3881 -0.4572 -0.2194
  515SOL    HW1 2515   2.564   3.626   6.950 -0.1085 -1.3449 -0.7748
  515SOL    HW2 2516   2.589   3.575   7.090 -0.7388  0.6926  0.1243
  516SOL     OW 2517   1.795   6.928   4.052  0.0064  0.4183  0.1109
  516SOL    HW1 2518   1.790   6.920   3.956 -1.0422  0.1878  0.1726
  516SOL    HW2 2519   1.870   6.986   4.067 -0.4152  1.2735 -0.8934
  517SOL     OW 2520   3.365   0.513   0.013 -0.0423  0.3728 -0.2068
  517SOL    HW1 2521   3.431   0.470   0.067 -0.5478  1.9147  1.7973
  517SOL    HW2 2522   3.404   0.520  -0.073  2.1999  0.6967  0.7728
  518SOL     OW 2523   6.763   3.330   4.027  0.0250 -0.0966 -0.3721
  518SOL    HW1 2524   6.760   3.381   4.108 -2.0150 -0.7567  0.0341
  518SOL    HW2 2525   6.803   3.247   4.053  0.7933  0.2568 -0.4050
  519SOL     OW 2526   4.002   7.146   2.395  0.2443  0.3483 -0.1217
  519SOL    HW1 2527   3.988   7.172   2.304 -0.0528 -0.5620 -0.3550
  519SOL    HW2 2528   3.915   7.118   2.425 -0.2918  3.1729  1.3348
  520SOL     OW 2529   2.316   0.900   1.480  0.1501  0.3939  0.0988
  520SOL    HW1 2530   2.249   0.842   1.515 -0.7262  1.8559  0.9346
  520SOL    HW2 2531   2.270   0.981   1.461  1.5750  1.2420  0.1262
  521SOL     OW 2532   2.008   0.961   1.669 -0.0062  0.1220  0.0395
  521SOL    HW1 2533   1.933   0.916   1.631  0.3043  0.0711 -0.5234
  521SOL    HW2 2534   2.055   0.997   1.594  1.4423 -1.2501  0.2491
  522SOL     OW 2535   1.508   1.658   4.980  0.0001  0.1221  0.2195
  522SOL    HW1 2536   1.455   1.737   4.972  0.4711  0.2841 -2.1089
  522SOL    HW2 2537   1.494   1.611   4.898  1.1169 -1.3286  0.8079
  523SOL     OW 2538   2.857   7.305   0.893 -0.5515  0.3117 -0.1441
  523SOL    HW1 2539   2.804   7.339   0.820  0.5397  2.7213  0.0754
  523SOL    HW2 2540   2.829   7.356   0.968  1.8308  1.4770  0.0273
  524SOL     OW 2541   6.997   5.609   6.639  0.0681  0.3657 -0.4522
  524SOL    HW1 2542   6.936   5.661   6.585 -0.7702 -0.5175 -0.3831
  524SOL    HW2 2543   6.947   5.531   6.663  0.9733 -0.0037  0.2851
  525SOL     OW 2544   1.656   5.572   5.071 -0.2132  0.6954 -0.0914
  525SOL    HW1 2545   1.698   5.614   5.146 -1.1897  2.5519 -0.4943
  525SOL    HW2 2546   1.647   5.480   5.096 -0.4373  1.2435  2.0335
  526SOL     OW 2547   7.265   0.359   7.008 -0.1675  0.1459  0.4462
  526SOL    HW1 2548   7.350   0.404   7.008 -0.4917  0.7855  1.4639
  526SOL    HW2 2549   7.201   0.429   7.019 -0.7752 -0.4393  0.6962
  527SOL     OW 2550   2.736   0.520   3.719  0.1639  0.6827 -0.0886
  527SOL    HW1 2551   2.746   0.615   3.723  0.1275  0.7610 -1.3051
  527SOL    HW2 2552   2.754   0.498   3.627 -1.0426 -0.3331 -0.1149
  528SOL     OW 2553   0.874   3.878   5.077 -0.1875  0.4424  0.2739
  528SOL    HW1 2554   0.786   3.917   5.072 -0.5557 -0.4941 -1.3165
  528SOL    HW2 2555   0.909   3.889   4.989  0.1663 -1.6892  0.1028
  529SOL     OW 2556   5.713   4.649   1.278  0.2106  0.0851  0.0875
  529SOL    HW1 2557   5.675   4.733   1.305  1.5660  0.5306  0.6927
  529SOL    HW2 2558   5.791   4.673   1.228  0.6053 -0.8014  0.2562
  530SOL     OW 2559   4.941   4.431   6.998 -0.4362  0.0708  0.0096
  530SOL    HW1 2560   4.851   4.428   6.967  0.0328 -3.9802 -1.7281
  530SOL    HW2 2561   4.939   4.385   7.082  0.0462 -0.4848 -0.2764
  531SOL     OW 2562   6.535   3.823   3.784 -0.3285 -0.1317 -0.4531
  531SOL    HW1 2563   6.494   3.760   3.724 -1.3422 -0.3358  0.4218
  531SOL    HW2 2564   6.487   3.813   3.866  1.7770 -0.7020  0.7915
  532SOL     OW 2565   2.790   6.937   1.947  0.1128  0.1195  0.2711
  532SOL    HW1 2566   2.839   6.870   1.899 -0.7330 -0.1056 -0.2897
  532SOL    HW2 2567   2.702   6.935   1.909 -0.5357  0.0536  1.7143
  533SOL     OW 2568   4.525   5.027   3.787 -0.1170 -0.2032 -0.0265
  533SOL    HW1 2569   4.575   4.966   3.732 -1.0656 -0.6290 -0.4352
  533SOL    HW2 2570   4.475   5.080   3.725  0.9590  1.2672  0.2985
  534SOL     OW 2571   0.106   4.057   5.056  0.5998 -0.2196 -0.2235
  534SOL    HW1 2572   0.133   4.096   4.973  0.4202  0.3208 -0.0329
  534SOL    HW2 2573   0.144   3.970   5.055  1.0363 -0.0297 -0.6468
  535SOL     OW 2574   5.396   2.521   4.500 -0.3326  0.0136 -0.4107
  535SOL    HW1 2575   5.402   2.427   4.484  0.5274 -0.1096  0.4959
  535SOL    HW2 2576   5.396   2.528   4.596 -0.0044  0.9515 -0.4717
  536SOL     OW 2577   2.181   6.444   0.134 -0.3796  0.0443  0.2662
  536SOL    HW1 2578   2.144   6.356   0.139 -1.2871  0.2822 -1.2766
  536SOL    HW2 2579   2.275   6.431   0.129 -0.5451 -0.9379 -0.9446
  537SOL     OW 2580   7.156   4.230   6.084  0.0448  0.1808 -0.3338
  537SOL    HW1 2581   7.163   4.135   6.079 -0.7677  0.1750 -1.7377
  537SOL    HW2 2582   7.064   4.249   6.069 -0.0827  1.1342  1.4071
  538SOL     OW 2583   2.783   3.970   4.896 -0.2139  0.4338 -0.2484
  538SOL    HW1 2584   2.871   3.983   4.931 -1.0309  0.3940  1.9874
  538SOL    HW2 2585   2.752   4.058   4.876 -0.0478  0.5440 -0.0303
  539SOL     OW 2586   0.214   2.381   2.153  0.3791 -0.0177 -0.0064
  539SOL    HW1 2587   0.128   2.420   2.138  0.0775 -0.7918 -0.3216
  539SOL    HW2 2588   0.252   2.373   2.065  1.6364  2.2141  0.2727
  540SOL     OW 2589   7.120   4.801   2.032 -0.0995 -0.1485  0.1815
  540SOL    HW1 2590   7.197   4.758   2.070  0.2994  0.3126 -0.1042
  540SOL    HW2 2591   7.111   4.763   1.945 -0.8764 -1.0343  0.6342
  541SOL     OW 2592   2.228   3.336   6.844 -0.4019 -0.1571 -0.2631
  541SOL    HW1 2593   2.193   3.251   6.817 -1.8979  0.1256  0.6976
  541SOL    HW2 2594   2.220   3.391   6.765  0.0094 -0.7134 -0.7046
  542SOL     OW 2595   1.571   0.909   1.011 -0.1347  0.4060 -0.0335
  542SOL    HW1 2596   1.522   0.937   0.934  0.2025  0.8713 -0.0784
  542SOL    HW2 2597   1.656   0.882   0.976 -0.3373 -0.3687  0.0473
  543SOL     OW 2598   0.124   5.090   0.577  0.5031  0.7500 -0.3629
  543SOL    HW1 2599   0.209   5.063   0.541  0.5788  0.0656  0.2980
  543SOL    HW2 2600   0.084   5.143   0.508  0.9437  0.0560 -1.1669
  544SOL     OW 2601   3.491   5.916   3.541  0.0556 -0.1802  0.3769
  544SOL    HW1 2602   3.538   6.000   3.534  1.4510 -0.7695  1.8522
  544SOL    HW2 2603   3.425   5.932   3.609 -0.5135  0.0573 -0.2225
  545SOL     OW 2604   4.274   3.485   4.782  0.1101 -0.6328 -0.1508
  545SOL    HW1 2605   4.275   3.505   4.688  1.2388  2.6983  0.4331
  545SOL    HW2 2606   4.185   3.454   4.799 -0.2655 -0.8512 -2.2310
  546SOL     OW 2607   4.607   2.553   7.342  0.1619 -0.2762 -0.0956
  546SOL    HW1 2608   4.695   2.568   7.306 -0.7097  0.8900 -1.9333
  546SOL    HW2 2609   4.554   2.623   7.304 -1.2575  0.0193  2.2350
  547SOL     OW 2610   0.195   4.575   7.030 -0.2910  0.0739  0.2227
  547SOL    HW1 2611   0.119   4.614   7.073  0.5788  1.6053  0.4243
  547SOL    HW2 2612   0.269   4.627   7.060  1.1341 -2.4561  1.4404
  548SOL     OW 2613   2.940   0.714   4.725 -0.4251  0.2835 -0.1129
  548SOL    HW1 2614   2.917   0.713   4.818 -0.0913 -0.2185 -0.0301
  548SOL    HW2 2615   3.028   0.675   4.722  0.2739  1.8323 -0.4620
  549SOL     OW 2616   7.314   0.244   0.968 -0.1515  0.3442 -0.4382
  549SOL    HW1 2617   7.317   0.203   0.881 -0.6214 -0.1237 -0.2390
  549SOL    HW2 2618   7.386   0.306   0.967  0.3146 -0.1889 -0.9006
  550SOL     OW 2619   1.576   6.408   7.154  0.4557 -0.3284  0.0385
  550SOL    HW1 2620   1.630   6.366   7.088 -1.1097 -0.7092 -1.0735
  550SOL    HW2 2621   1.489   6.368   7.143 -0.5206  1.5373  0.4918
  551SOL     OW 2622   3.250   4.627   6.073  0.3061 -0.3454 -0.1200
  551SOL    HW1 2623   3.315   4.671   6.128  1.7850  0.5334 -2.4425
  551SOL    HW2 2624   3.184   4.694   6.056 -0.7168 -0.9268  1.3621
  552SOL     OW 2625   0.895   3.069   1.288  0.0981  0.0099  0.2182
  552SOL    HW1 2626   0.928   2.979   1.283 -0.9124 -0.3698  0.0820
  552SOL    HW2 2627   0.906   3.094   1.380 -0.0314 -0.4273  0.3554
  553SOL     OW 2628   1.850   2.644   2.992  0.1211  0.4519  0.2269
  553SOL    HW1 2629   1.767   2.642   3.039 -0.6234  2.3659 -0.8817
  553SOL    HW2 2630   1.826   2.664   2.902  1.7190 -0.2383 -0.3901
  554SOL     OW 2631   3.351   0.386   3.432 -0.1623 -0.5279  0.4190
  554SOL    HW1 2632   3.417   0.426   3.488 -0.8736  1.2481  0.0358
  554SOL    HW2 2633   3.359   0.292   3.449  2.5685 -0.4052  0.2479
  555SOL     OW 2634   6.234   1.945   1.963  0.5551  0.0718  0.4011
  555SOL    HW1 2635   6.330   1.954   1.966  0.6333 -0.8763  1.1317
  555SOL    HW2 2636   6.218   1.896   1.882  0.5184  1.9167 -0.7584
  556SOL     OW 2637   7.281   3.873   7.178  0.0279  0.0267  0.4772
  556SOL    HW1 2638   7.251   3.851   7.090 -2.2526 -0.2907  1.2624
  556SOL    HW2 2639   7.371   3.842   7.181 -0.3388 -1.3697 -1.2256
  557SOL     OW 2640   2.103   5.856   0.984 -0.1433  0.8209  0.0463
  557SOL    HW1 2641   2.161   5.830   1.055 -0.0841  0.5653 -0.0941
  557SOL    HW2 2642   2.082   5.774   0.939  0.5685  1.0817 -0.7959
  558SOL     OW 2643   3.801   0.752   3.521  0.0685  0.0483 -0.0367
  558SOL    HW1 2644   3.833   0.667   3.552 -0.8924 -0.4157 -0.2624
  558SOL    HW2 2645   3.711   0.734   3.494  0.1667  0.9309 -0.9853
  559SOL     OW 2646   0.686   3.447   2.760  0.5675 -0.0451  0.2294
  559SOL    HW1 2647   0.715   3.459   2.851 -1.5664  0.3734  0.9125
  559SOL    HW2 2648   0.708   3.356   2.740 -1.3822 -1.0410  2.1857
  560SOL     OW 2649   6.170   2.271   7.216  0.4269  0.0397  0.0557
  560SOL    HW1 2650   6.094   2.237   7.262  0.4540  1.4104  1.2026
  560SOL    HW2 2651   6.169   2.365   7.234  3.3911 -0.0985  1.7144
  561SOL     OW 2652   1.275   2.563   2.870 -0.0620 -0.4249  0.0562
  561SOL    HW1 2653   1.247   2.482   2.914  0.7950 -0.4217  0.6251
  561SOL    HW2 2654   1.206   2.626   2.890  1.0258  0.0191  2.7211
  562SOL     OW 2655   6.604   6.470   1.207 -0.7361 -0.1902  0.2629
  562SOL    HW1 2656   6.656   6.545   1.178 -0.2906  0.0957  1.7083
  562SOL    HW2 2657   6.667   6.398   1.215 -0.7427 -0.1229  0.9953
  563SOL     OW 2658   2.545   0.549   3.922 -0.3501  0.0326  0.1074
  563SOL    HW1 2659   2.589   0.542   3.837  0.0069  1.9517  0.0860
  563SOL    HW2 2660   2.455   0.520   3.904 -0.2423  0.2650 -0.9048
  564SOL     OW 2661   2.521   1.520   5.515 -0.4535 -0.0118 -0.4702
  564SOL    HW1 2662   2.494   1.603   5.476 -1.0473 -0.7787 -1.7810
  564SOL    HW2 2663   2.444   1.490   5.564 -0.0105  0.5155  0.5802
  565SOL     OW 2664   0.073   4.563   6.228 -0.2769 -0.5359 -0.4355
  565SOL    HW1 2665  -0.012   4.552   6.186 -0.9886 -1.8982  1.2352
  565SOL    HW2 2666   0.055   4.612   6.308  0.3099 -1.6261  0.4072
  566SOL     OW 2667   5.965   0.613   4.743 -0.4454  0.1787  0.2666
  566SOL    HW1 2668   6.021   0.613   4.821  1.6500 -2.6103 -1.0625
  566SOL    HW2 2669   5.884   0.570   4.771 -0.7797  1.5253  1.4752
  567SOL     OW 2670   1.376   7.249   7.256 -0.3405  0.0059  0.2815
  567SOL    HW1 2671   1.424   7.313   7.203 -0.6155 -0.9372 -1.1612
  567SOL    HW2 2672   1.319   7.204   7.193 -1.3792 -0.5105  1.5572
  568SOL     OW 2673   0.741   6.932   1.905  0.6549  0.2877  0.0729
  568SOL    HW1 2674   0.683   6.964   1.974 -0.5730  0.5611 -1.0459
  568SOL    HW2 2675   0.758   6.841   1.929  0.5529  0.4796  0.9205
  569SOL     OW 2676   1.801   5.747   4.878  0.5402  0.0879  0.4154
  569SOL    HW1 2677   1.889   5.776   4.904  0.3901 -0.3225  1.4689
  569SOL    HW2 2678   1.770   5.698   4.955  0.3092 -1.7845 -0.8122
  570SOL     OW 2679   2.861   0.689   5.189  0.2877 -0.0848  0.1338
  570SOL    HW1 2680   2.856   0.596   5.210  2.0404 -0.3275 -0.3768
  570SOL    HW2 2681   2.903   0.729   5.265 -0.4089  0.2903  0.3267
  571SOL     OW 2682   5.321   5.522   5.746 -0.1365  0.5518 -0.7147
  571SOL    HW1 2683   5.254   5.464   5.782  0.0967  1.0078  0.4835
  571SOL    HW2 2684   5.339   5.584   5.816  2.0960 -0.0184 -0.7042
  572SOL     OW 2685   4.469   4.456   5.781 -0.4262 -0.0003 -0.1407
  572SOL    HW1 2686   4.477   4.403   5.859  0.9192 -0.6707 -0.6986
  572SOL    HW2 2687   4.415   4.531   5.808  2.0596  1.1116  2.1362
  573SOL     OW 2688   3.586   5.360   5.380  0.0813  0.2720 -0.2565
  573SOL    HW1 2689   3.604   5.281   5.430  0.0494  1.2843  1.4018
  573SOL    HW2 2690   3.653   5.361   5.311  0.2415 -1.0342 -0.1388
  574SOL     OW 2691   0.565   4.061   3.284  0.4131  0.4334 -0.1455
  574SOL    HW1 2692   0.657   4.089   3.289  0.1761  1.1203  0.6733
  574SOL    HW2 2693   0.515   4.139   3.309 -0.3245 -0.3579  0.9271
  575SOL     OW 2694   3.873   5.584   1.158  0.2456 -0.6097  0.0109
  575SOL    HW1 2695   3.865   5.667   1.205  1.7139 -0.1515 -0.5057
  575SOL    HW2 2696   3.795   5.535   1.184  0.2662  0.2003  1.7663
  576SOL     OW 2697   4.334   6.933   0.323  0.0503 -0.0976  0.8434
  576SOL    HW1 2698   4.309   7.025   0.314 -0.6176 -0.2932  0.5550
  576SOL    HW2 2699   4.251   6.885   0.311  0.6927 -0.8354 -1.1915
  577SOL     OW 2700   0.919   3.983   1.908  0.3032  0.1868 -0.5358
  577SOL    HW1 2701   0.883   4.057   1.957 -0.5748 -0.3384 -0.3772
  577SOL    HW2 2702   0.916   3.910   1.969  1.1563  0.0057 -0.6985
  578SOL     OW 2703   7.031   2.809   4.799  0.5157  0.3447 -0.4353
  578SOL    HW1 2704   7.109   2.822   4.746 -0.8354  0.3893 -2.5552
  578SOL    HW2 2705   6.967   2.870   4.762 -0.8071 -0.3626  0.6016
  579SOL     OW 2706   5.720   1.631   4.693  0.1144 -0.2608 -0.3032
  579SOL    HW1 2707   5.658   1.587   4.634 -1.3877 -0.6289  1.4697
  579SOL    HW2 2708   5.804   1.591   4.672 -0.6513 -1.5774 -1.0652
  580SOL     OW 2709   1.131   0.531   3.492  0.1987  0.4801  0.1550
  580SOL    HW1 2710   1.089   0.453   3.456  1.7646 -0.8510  1.0292
  580SOL    HW2 2711   1.223   0.521   3.467  0.6722  1.3076  1.4982
  581SOL     OW 2712   2.882   5.219   1.995 -0.7468  0.3646  0.0624
  581SOL    HW1 2713   2.812   5.262   2.044  0.5172  0.6552  1.7397
  581SOL    HW2 2714   2.876   5.127   2.021  1.0079  0.7910  2.3060
  582SOL     OW 2715   2.894   0.898   5.604  0.0588  0.2883  0.6792
  582SOL    HW1 2716   2.962   0.874   5.668  1.6878  0.3910 -0.9452
  582SOL    HW2 2717   2.821   0.840   5.625  0.6995  0.0299  2.3700
  583SOL     OW 2718   3.852   0.579   1.895 -0.2860  0.6992  0.3498
  583SOL    HW1 2719   3.943   0.547   1.894 -0.0800  1.0932  2.1462
  583SOL    HW2 2720   3.807   0.526   1.829  0.7858 -0.9674  0.8757
  584SOL     OW 2721   4.530   1.408   6.781  0.1182  0.4756  0.1299
  584SOL    HW1 2722   4.612   1.418   6.732  1.5008 -3.3251  1.2696
  584SOL    HW2 2723   4.554   1.423   6.872  1.0904 -5.0698  1.1871
  585SOL     OW 2724   5.360   3.486   2.628 -0.3797  0.4919 -0.2203
  585SOL    HW1 2725   5.281   3.540   2.626 -0.6834  0.0846  0.6284
  585SOL    HW2 2726   5.327   3.396   2.620 -0.1253  0.2218  1.4567
  586SOL     OW 2727   1.368   4.426   3.729 -0.4449  0.0815 -0.0372
  586SOL    HW1 2728   1.330   4.502   3.686 -1.1273  0.5339  1.3266
  586SOL    HW2 2729   1.328   4.351   3.685 -1.1801  0.5313 -0.1474
  587SOL     OW 2730   4.260   1.481   5.858 -0.0091 -0.2523  0.0962
  587SOL    HW1 2731   4.303   1.497   5.942  2.2385 -0.1050 -1.0064
  587SOL    HW2 2732   4.309   1.534   5.795 -0.5827 -1.6125 -1.5821
  588SOL     OW 2733   3.153   3.592   5.147 -0.1831 -0.0327 -0.0271
  588SOL    HW1 2734   3.120   3.574   5.235 -2.0754 -0.4823 -0.7932
  588SOL    HW2 2735   3.083   3.565   5.089  1.3393 -0.4679 -1.7418
  589SOL     OW 2736   6.445   0.245   1.583 -0.3078  0.1027  0.4755
  589SOL    HW1 2737   6.524   0.283   1.545 -0.7431  1.2629  0.6875
  589SOL    HW2 2738   6.462   0.242   1.677 -0.8697  1.2650  0.6289
  590SOL     OW 2739   1.575   1.027   0.070  0.0795  0.4516 -0.2620
  590SOL    HW1 2740   1.660   1.019   0.115 -0.6788  1.4668  1.4939
  590SOL    HW2 2741   1.553   0.938   0.043  0.4415 -0.3141  1.7695
  591SOL     OW 2742   3.297   6.143   1.481 -0.1623 -0.1743 -0.0621
  591SOL    HW1 2743   3.250   6.206   1.536 -2.6371 -0.3683 -1.8189
  591SOL    HW2 2744   3.373   6.192   1.449 -1.1148  1.3885 -0.0493
  592SOL     OW 2745   2.350   3.860   5.730 -0.4836 -0.1474  0.1322
  592SOL    HW1 2746   2.439   3.839   5.702 -0.1411 -0.8733  1.6565
  592SOL    HW2 2747   2.334   3.948   5.695 -0.4839 -1.2728 -3.0493
  593SOL     OW 2748   4.029   3.504   6.832 -0.2253 -0.1976  0.3690
  593SOL    HW1 2749   4.030   3.567   6.760 -0.6306  0.1360  0.6502
  593SOL    HW2 2750   3.942   3.512   6.870 -0.1053 -0.5594  0.7313
  594SOL     OW 2751   2.876   6.086   5.335  0.2549 -0.2871  0.1049
  594SOL    HW1 2752   2.893   6.040   5.253  0.9301 -0.7323  0.4830
  594SOL    HW2 2753   2.863   6.017   5.400  1.3613  0.0357  0.6956
  595SOL     OW 2754   0.606   6.956   7.087 -0.8827  0.2065  0.6583
  595SOL    HW1 2755   0.633   6.912   7.006  0.1754 -2.2049  2.1771
  595SOL    HW2 2756   0.516   6.927   7.102 -0.6712 -0.3349  0.9235
  596SOL     OW 2757   0.966   7.210   4.885 -0.2784 -0.2434 -0.7455
  596SOL    HW1 2758   0.992   7.186   4.796  0.7517  0.3479 -0.6130
  596SOL    HW2 2759   1.040   7.185   4.939 -0.0874  1.1732 -0.3122
  597SOL     OW 2760   1.969   2.279   3.715  0.2377 -0.5693  0.1008
  597SOL    HW1 2761   1.944   2.347   3.652  1.1637 -0.0247  0.2997
  597SOL    HW2 2762   1.970   2.324   3.800 -1.8511 -1.4993  0.6840
  598SOL     OW 2763   5.351   3.903   0.508  0.6620  0.0716 -0.4156
  598SOL    HW1 2764   5.296   3.911   0.586 -0.9854 -0.2555 -1.4860
  598SOL    HW2 2765   5.307   3.956   0.442  2.9598  1.7773 -0.7007
  599SOL     OW 2766   3.377   2.626   0.927 -0.3381 -0.6486 -0.0508
  599SOL    HW1 2767   3.378   2.547   0.872 -0.8680 -1.1601  0.6485
  599SOL    HW2 2768   3.465   2.663   0.918 -0.1776 -1.1534 -0.6259
  600SOL     OW 2769   5.967   1.208   6.461 -0.9522  0.1286  0.6930
  600SOL    HW1 2770   5.898   1.270   6.485 -0.4974  1.7317 -1.8290
  600SOL    HW2 2771   6.046   1.261   6.456 -0.2018 -1.0015  0.1849
  601SOL     OW 2772   2.224   6.180   2.070 -0.3530 -0.2328  0.2256
  601SOL    HW1 2773   2.300   6.196   2.126 -1.1342  0.9757  0.9755
  601SOL    HW2 2774   2.261   6.175   1.981  0.7018 -0.6032  0.6643
  602SOL     OW 2775   2.005   4.464   6.104  0.1232 -0.0779 -0.6788
  602SOL    HW1 2776   1.995   4.521   6.027  3.2096 -0.4707 -1.4958
  602SOL    HW2 2777   1.977   4.378   6.074  0.0557  0.0375 -0.9490
  603SOL     OW 2778   2.443   5.295   5.159 -0.0213 -0.6542 -0.0984
  603SOL    HW1 2779   2.429   5.201   5.151  0.9225 -0.7971 -0.2060
  603SOL    HW2 2780   2.387   5.334   5.092  1.1893 -1.2879 -1.5407
  604SOL     OW 2781   7.351   0.455   2.013  0.8492  0.5998  0.0962
  604SOL    HW1 2782   7.363   0.361   2.029 -2.0490  0.3506  1.5052
  604SOL    HW2 2783   7.423   0.479   1.955  2.0572 -2.3423  0.2037
  605SOL     OW 2784   6.036   1.536   5.864  0.9428 -0.1416  0.0031
  605SOL    HW1 2785   6.017   1.628   5.884  1.5433 -0.0533  0.1704
  605SOL    HW2 2786   6.126   1.523   5.894  0.3229 -1.2319  1.4981
  606SOL     OW 2787   6.720   3.797   2.770 -0.4005 -0.0063 -0.2756
  606SOL    HW1 2788   6.630   3.786   2.799 -0.1720  0.6359  0.6974
  606SOL    HW2 2789   6.761   3.853   2.836  0.5673  0.1589 -0.9858
  607SOL     OW 2790   6.953   3.200   0.774 -0.0908  0.2077  0.3191
  607SOL    HW1 2791   7.011   3.125   0.762  0.1659  0.5118 -0.4015
  607SOL    HW2 2792   6.999   3.272   0.731 -1.3904  0.2691 -1.0325
  608SOL     OW 2793   6.491   1.690   6.364  0.3169  0.2287  0.3036
  608SOL    HW1 2794   6.408   1.703   6.317 -0.7766 -0.7025  1.8961
  608SOL    HW2 2795   6.547   1.644   6.302 -0.6053  0.2158 -0.5449
  609SOL     OW 2796   0.541   0.628   5.668  0.3437 -1.0339  0.8076
  609SOL    HW1 2797   0.503   0.549   5.707 -1.7462  0.2645  1.5633
  609SOL    HW2 2798   0.569   0.680   5.743 -0.9098  0.1554  0.4787
  610SOL     OW 2799   5.629   5.901   3.546 -0.1615  1.0862  0.2378
  610SOL    HW1 2800   5.551   5.850   3.566 -0.1174  0.2141 -1.6042
  610SOL    HW2 2801   5.596   5.986   3.516 -0.3661  1.0068  0.2415
  611SOL     OW 2802   4.239   5.910   5.794 -0.2094 -0.0798 -0.6154
  611SOL    HW1 2803   4.191   5.961   5.859  1.0522  3.5423 -2.3092
  611SOL    HW2 2804   4.180   5.837   5.773 -2.2633  0.7703  1.7415
  612SOL     OW 2805   1.748   6.288   5.919 -0.1223 -0.0474 -0.1331
  612SOL    HW1 2806   1.835   6.260   5.889  0.2662  0.5132  0.4412
  612SOL    HW2 2807   1.731   6.369   5.870  0.4626  0.8075  1.0345
  613SOL     OW 2808   6.987   1.193   4.107 -0.4549 -0.2007  0.3397
  613SOL    HW1 2809   6.993   1.193   4.011  0.3045 -0.8512  0.3726
  613SOL    HW2 2810   6.911   1.248   4.126 -2.4012 -2.2986 -0.7678
  614SOL     OW 2811   1.258   6.122   3.136  0.0267 -0.3058  0.1271
  614SOL    HW1 2812   1.312   6.199   3.116  0.7117 -0.4524  1.3725
  614SOL    HW2 2813   1.223   6.139   3.223 -1.3739 -0.5476 -0.3714
  615SOL     OW 2814   4.484   3.633   0.706  0.1087 -0.6590  0.5378
  615SOL    HW1 2815   4.401   3.642   0.752  1.0099 -0.0885  2.1170
  615SOL    HW2 2816   4.512   3.723   0.690 -0.3181 -0.8257 -1.4643
  616SOL     OW 2817   1.726   5.530   7.104  0.3707 -0.2342  0.6303
  616SOL    HW1 2818   1.745   5.610   7.152 -1.7389  0.1999  0.8020
  616SOL    HW2 2819   1.782   5.535   7.026  1.8603  0.3174  1.6881
  617SOL     OW 2820   3.452   2.461   0.703 -0.2815  0.1115 -0.5066
  617SOL    HW1 2821   3.523   2.511   0.662 -1.6624  1.7227 -1.0553
  617SOL    HW2 2822   3.435   2.389   0.642  0.9329 -0.3793 -0.2976
  618SOL     OW 2823   2.773   5.668   0.811  0.7259 -0.2953 -0.4333
  618SOL    HW1 2824   2.833   5.604   0.772 -0.3637 -2.9782  1.9040
  618SOL    HW2 2825   2.825   5.746   0.824  2.1913 -0.6603 -3.3420
  619SOL     OW 2826   0.073   6.672   4.101  0.4032  0.5089 -0.2925
  619SOL    HW1 2827   0.044   6.650   4.189 -0.1552  0.1243 -0.5629
  619SOL    HW2 2828   0.166   6.693   4.110  0.5246 -0.2508  0.2700
  620SOL     OW 2829   1.011   1.721   3.646 -0.3238  0.6160  0.1704
  620SOL    HW1 2830   1.031   1.795   3.589  1.1859  0.3639  0.3256
  620SOL    HW2 2831   1.088   1.664   3.640 -1.6316 -1.2166 -0.3429
  621SOL     OW 2832   1.208   2.362   0.696 -0.0921  0.0892 -0.7654
  621SOL    HW1 2833   1.299   2.341   0.676  0.4077  1.6175 -0.2626
  621SOL    HW2 2834   1.213   2.435   0.759 -1.6552  0.0204 -0.5135
  622SOL     OW 2835   1.916   4.629   5.916  0.4789  0.1078 -0.2123
  622SOL    HW1 2836   1.883   4.718   5.926 -1.1307 -0.5908  1.1484
  622SOL    HW2 2837   1.881   4.599   5.832  0.8564  0.6725 -0.5743
  623SOL     OW 2838   6.662   4.678   3.211  0.3104  0.1304  0.1492
  623SOL    HW1 2839   6.621   4.752   3.166 -2.5999 -2.2345 -1.5144
  623SOL    HW2 2840   6.717   4.637   3.144  1.2502  0.2843  0.8076
  624SOL     OW 2841   5.201   6.355   4.049  0.0539 -0.0021  0.4427
  624SOL    HW1 2842   5.203   6.437   4.099  0.7786  0.7092 -0.7030
  624SOL    HW2 2843   5.112   6.352   4.012  0.8069  1.6808 -1.6981
  625SOL     OW 2844   1.646   1.675   4.336 -0.3558 -0.0579  0.1652
  625SOL    HW1 2845   1.569   1.618   4.330 -0.3677 -0.1296  0.9337
  625SOL    HW2 2846   1.719   1.615   4.350 -0.2552  0.0612  0.1553
  626SOL     OW 2847   6.015   0.088   0.695  0.2864  0.3936  0.1706
  626SOL    HW1 2848   5.964   0.056   0.770 -0.0170 -0.4267 -0.3803
  626SOL    HW2 2849   6.015   0.183   0.706  0.7656  0.2631  1.5552
  627SOL     OW 2850   0.640   4.377   1.186 -0.0937 -0.0095  0.4006
  627SOL    HW1 2851   0.600   4.447   1.238 -0.2164 -1.9156  3.0863
  627SOL    HW2 2852   0.566   4.337   1.139 -0.5764 -0.3412  1.4130
  628SOL     OW 2853   2.942   4.614   0.949 -0.0480 -0.3771 -0.3454
  628SOL    HW1 2854   2.985   4.687   0.905  1.7170 -0.6686  0.7788
  628SOL    HW2 2855   3.014   4.566   0.991 -1.4214 -1.3129  1.0468
  629SOL     OW 2856   5.362   7.035   0.026  0.1211  0.5392  0.0935
  629SOL    HW1 2857   5.422   7.109   0.020  0.3419  0.3037 -0.6989
  629SOL    HW2 2858   5.419   6.958   0.032 -0.1053  0.4221  0.8527
  630SOL     OW 2859   4.673   0.085   4.107  0.2185  0.1770  0.7049
  630SOL    HW1 2860   4.672  -0.009   4.125  0.5008 -0.0603 -0.4804
  630SOL    HW2 2861   4.665   0.092   4.012  1.3824  1.3076  0.6546
  631SOL     OW 2862   3.747   6.635   6.486 -0.2069  0.2485 -0.2995
  631SOL    HW1 2863   3.698   6.660   6.407 -0.1708 -0.7126 -0.6326
  631SOL    HW2 2864   3.765   6.542   6.475  0.8769  0.3785  0.2684
  632SOL     OW 2865   0.279   3.628   0.098 -0.0389 -0.0031 -0.0374
  632SOL    HW1 2866   0.184   3.627   0.115  0.0831 -0.7042  0.6292
  632SOL    HW2 2867   0.288   3.587   0.012 -0.2633 -0.8602  0.3376
  633SOL     OW 2868   4.558   1.554   1.873 -0.6478  0.2705 -0.4172
  633SOL    HW1 2869   4.504   1.625   1.908 -0.3986  0.2005  0.1204
  633SOL    HW2 2870   4.515   1.474   1.906 -0.1496  0.2184  0.1119
  634SOL     OW 2871   6.188   1.796   3.281  0.3024  0.9184  0.1492
  634SOL    HW1 2872   6.145   1.868   3.327 -2.9343 -0.4233 -0.4309
  634SOL    HW2 2873   6.200   1.828   3.192 -1.1371  0.8238 -0.1086
  635SOL     OW 2874   0.933   2.563   7.286  0.1064  0.2652 -0.0390
  635SOL    HW1 2875   0.883   2.536   7.363  0.4527 -0.0306  0.0926
  635SOL    HW2 2876   1.010   2.504   7.287  1.0228  1.4322  0.3980
  636SOL     OW 2877   6.257   3.865   3.122 -0.2071  0.5194 -0.3714
  636SOL    HW1 2878   6.219   3.784   3.158  1.0104  0.1336  0.0886
  636SOL    HW2 2879   6.229   3.865   3.030 -1.6866  0.4890  0.0559
  637SOL     OW 2880   1.018   5.222   5.185  0.0565  0.7531  0.2159
  637SOL    HW1 2881   0.983   5.227   5.097  1.2830 -1.5042 -0.5046
  637SOL    HW2 2882   0.965   5.155   5.228  0.2523  0.9609  0.7919
  638SOL     OW 2883   3.976   3.092   7.112  0.2308 -0.5710  0.8453
  638SOL    HW1 2884   3.895   3.058   7.150 -0.6812  0.4057 -0.1578
  638SOL    HW2 2885   3.975   3.185   7.132  1.0633 -0.5298  0.7260
  639SOL     OW 2886   0.676   1.692   5.650  0.4615 -0.3963  0.1422
  639SOL    HW1 2887   0.629   1.774   5.634 -0.2112 -0.5036  1.4122
  639SOL    HW2 2888   0.768   1.714   5.634  0.1193  0.1361 -1.1952
  640SOL     OW 2889   7.331   6.458   0.503  0.3178 -0.1545  0.0622
  640SOL    HW1 2890   7.350   6.389   0.439  2.0482 -1.0250  1.4091
  640SOL    HW2 2891   7.405   6.518   0.497  0.0236  0.2689  0.5668
  641SOL     OW 2892   4.724   6.137   5.861 -0.0123 -0.0376  0.1567
  641SOL    HW1 2893   4.631   6.132   5.883 -1.0990  1.4010 -3.4877
  641SOL    HW2 2894   4.760   6.203   5.920 -1.5032  0.0730  0.9729
  642SOL     OW 2895   3.946   1.536   5.110 -0.4495 -0.8930 -0.1024
  642SOL    HW1 2896   4.035   1.513   5.082 -0.7871  0.5174 -2.6068
  642SOL    HW2 2897   3.951   1.541   5.205  1.8384 -2.0168 -0.1011
  643SOL     OW 2898   1.764   3.032   5.426 -0.6946  0.0601 -0.0143
  643SOL    HW1 2899   1.685   3.084   5.440  0.2215  1.4691  0.1466
  643SOL    HW2 2900   1.742   2.972   5.354 -2.0561  0.0595  0.3851
  644SOL     OW 2901   3.800   0.962   5.836 -0.0332  0.6614 -0.6077
  644SOL    HW1 2902   3.827   1.010   5.757  1.1544 -1.0775 -1.3283
  644SOL    HW2 2903   3.779   0.874   5.804 -0.4612  0.1842  0.9012
  645SOL     OW 2904   2.188   2.052   7.374  0.2780  0.3688 -0.1475
  645SOL    HW1 2905   2.236   2.111   7.316  1.5679 -0.0100  0.5062
  645SOL    HW2 2906   2.238   1.971   7.375 -1.0181 -0.4726 -0.3652
  646SOL     OW 2907   1.351   0.883   5.678 -0.4746 -0.2124 -0.3800
  646SOL    HW1 2908   1.336   0.978   5.678  1.1556  0.0695 -0.2476
  646SOL    HW2 2909   1.416   0.870   5.609  0.4049 -1.0529  0.5948
  647SOL     OW 2910   2.864   6.683   0.092 -0.1786 -0.1042  0.2663
  647SOL    HW1 2911   2.938   6.622   0.093  0.0308  0.1263 -0.6391
  647SOL    HW2 2912   2.829   6.677   0.003 -1.4832 -0.4825  0.7765
  648SOL     OW 2913   1.529   1.925   6.942 -0.3039  0.3939 -0.4379
  648SOL    HW1 2914   1.477   1.995   6.982 -0.1141  0.2238  0.1193
  648SOL    HW2 2915   1.618   1.959   6.942  0.0102 -0.3448  1.0467
  649SOL     OW 2916   2.519   6.862   1.197  0.5097 -0.1264 -0.3384
  649SOL    HW1 2917   2.470   6.941   1.176  0.1792 -0.3082 -0.2798
  649SOL    HW2 2918   2.467   6.821   1.267  0.5423 -0.5186 -0.5410
  650SOL     OW 2919   0.245   2.552   0.338  0.4466  0.0884  0.7161
  650SOL    HW1 2920   0.340   2.537   0.333  0.7928  1.8438  1.4048
  650SOL    HW2 2921   0.211   2.479   0.389  1.1064 -1.6987 -1.2812
  651SOL     OW 2922   6.263   2.910   3.827  0.1377 -0.1797 -0.2531
  651SOL    HW1 2923   6.172   2.936   3.816  0.0502 -1.0000 -1.7660
  651SOL    HW2 2924   6.268   2.823   3.786  1.8113  0.2873 -1.1198
  652SOL     OW 2925   1.281   0.745   2.512  0.2840  0.5116 -0.1954
  652SOL    HW1 2926   1.252   0.775   2.598 -2.3951  2.2504 -1.5668
  652SOL    HW2 2927   1.346   0.809   2.484  0.4377  0.4955  0.1232
  653SOL     OW 2928   1.565   0.335   6.133 -0.0898 -0.0897 -0.1486
  653SOL    HW1 2929   1.490   0.312   6.188  1.2908 -1.2279  1.3570
  653SOL    HW2 2930   1.548   0.292   6.050 -1.6882  0.7296 -0.2791
  654SOL     OW 2931   6.397   0.461   0.643  0.0386  0.4568  0.4838
  654SOL    HW1 2932   6.320   0.518   0.644 -0.5872 -0.3775  0.6504
  654SOL    HW2 2933   6.368   0.380   0.686  0.9433  0.0449  0.3484
  655SOL     OW 2934   7.345   6.378   1.808 -0.3693  0.4866  0.2969
  655SOL    HW1 2935   7.319   6.395   1.717  0.4468 -0.4359 -0.1305
  655SOL    HW2 2936   7.418   6.437   1.824 -1.0388  1.2456  0.6503
  656SOL     OW 2937   7.282   6.129   5.612  0.2241 -0.0997  0.2497
  656SOL    HW1 2938   7.289   6.098   5.702  0.1666 -0.1009  0.2537
  656SOL    HW2 2939   7.189   6.124   5.592  0.2688 -0.3520  0.0991
  657SOL     OW 2940   3.840   0.634   4.710 -0.4157 -0.6321  0.3749
  657SOL    HW1 2941   3.819   0.545   4.681 -0.3877 -0.1884 -1.0714
  657SOL    HW2 2942   3.759   0.667   4.748 -1.6808  0.0742 -2.6259
  658SOL     OW 2943   5.952   2.927   0.094 -0.3798 -0.4821 -0.6069
  658SOL    HW1 2944   5.997   2.986   0.033  0.8084 -0.4837  0.2187
  658SOL    HW2 2945   5.993   2.842   0.079  0.2300 -0.3908  0.4745
  659SOL     OW 2946   2.727   6.286   3.970 -0.4243 -0.0285 -0.2416
  659SOL    HW1 2947   2.708   6.379   3.980 -0.0131  0.1390 -0.9702
  659SOL    HW2 2948   2.709   6.249   4.056  0.5629  0.9225  0.3972
  660SOL     OW 2949   2.603   1.962   3.149  0.0970  0.1107  0.6342
  660SOL    HW1 2950   2.583   1.871   3.171 -1.4036  0.4513  0.7579
  660SOL    HW2 2951   2.661   1.992   3.219  1.2848 -0.9613  0.1680
  661SOL     OW 2952   2.748   6.052   0.183 -0.5362 -0.3284 -0.3505
  661SOL    HW1 2953   2.679   6.118   0.193  0.0733  0.2492  0.1287
  661SOL    HW2 2954   2.829   6.103   0.178 -0.0958 -1.0259 -0.3944
  662SOL     OW 2955   0.986   6.507   1.556 -0.1982 -0.4247  0.4295
  662SOL    HW1 2956   1.045   6.456   1.502  0.9737  0.8669  0.4283
  662SOL    HW2 2957   0.930   6.554   1.494 -1.3253 -1.6950  0.4314
  663SOL     OW 2958   1.617   6.590   5.538 -0.1900 -0.1103 -0.1111
  663SOL    HW1 2959   1.645   6.533   5.468 -0.3214  0.2979 -0.5010
  663SOL    HW2 2960   1.669   6.564   5.614 -0.0632 -0.5610 -0.3563
  664SOL     OW 2961   6.171   1.024   5.134 -0.1219  0.0902  0.7151
  664SOL    HW1 2962   6.180   0.979   5.050  1.7406 -0.0179  0.9296
  664SOL    HW2 2963   6.115   1.099   5.115 -0.9730 -0.7597 -0.2679
  665SOL     OW 2964   5.611   1.254   2.353 -0.4574 -0.3362  0.5137
  665SOL    HW1 2965   5.697   1.246   2.393  0.2510  2.4407 -0.2000
  665SOL    HW2 2966   5.623   1.223   2.264 -0.1189  0.2180  0.3596
  666SOL     OW 2967   6.633   4.773   4.075  0.8813  0.1963 -0.2503
  666SOL    HW1 2968   6.642   4.800   4.166  2.1849  2.7570 -1.0386
  666SOL    HW2 2969   6.672   4.686   4.071  0.2134 -0.2373  1.7086
  667SOL     OW 2970   7.135   4.819   4.973 -0.2564  0.1897  0.3076
  667SOL    HW1 2971   7.142   4.841   4.880 -2.3168  1.1342  0.3271
  667SOL    HW2 2972   7.054   4.769   4.980  1.2108 -2.2444  1.2390
  668SOL     OW 2973   4.520   7.044   1.530 -0.4086  0.2508  0.8985
  668SOL    HW1 2974   4.579   7.116   1.506 -0.9213  0.4136  0.0861
  668SOL    HW2 2975   4.457   7.039   1.458  0.5984 -2.0982  0.0588
  669SOL     OW 2976   0.152   0.376   2.531 -0.2626 -0.2825 -0.2932
  669SOL    HW1 2977   0.165   0.455   2.479 -0.2186  1.0147  1.5593
  669SOL    HW2 2978   0.163   0.304   2.470  1.6480  1.0873 -1.6728
  670SOL     OW 2979   6.268   1.703   3.863  0.2927  0.0507 -0.1090
  670SOL    HW1 2980   6.316   1.771   3.912  1.1996 -0.4048 -0.3380
  670SOL    HW2 2981   6.322   1.625   3.872  0.5726 -0.0132 -1.9434
  671SOL     OW 2982   2.773   5.042   2.993  0.9021 -0.3209  0.2610
  671SOL    HW1 2983   2.695   4.989   2.977 -0.9450  2.1207  0.6308
  671SOL    HW2 2984   2.827   5.030   2.915 -0.6096 -0.7892 -0.7553
  672SOL     OW 2985   4.709   5.412   1.840 -0.5637  0.2848 -0.2211
  672SOL    HW1 2986   4.702   5.500   1.801  1.7923  0.6866  0.1281
  672SOL    HW2 2987   4.752   5.360   1.773 -0.6284 -0.2236  0.1323
  673SOL     OW 2988   4.141   6.731   2.379  0.1069  0.3398 -0.2303
  673SOL    HW1 2989   4.143   6.818   2.338 -3.6599  1.5049  1.5231
  673SOL    HW2 2990   4.117   6.749   2.470  1.3727 -2.4907  0.7550
  674SOL     OW 2991   2.787   1.134   7.071 -0.1096 -0.0098  0.9808
  674SOL    HW1 2992   2.775   1.228   7.052 -1.1623 -0.4474 -0.7534
  674SOL    HW2 2993   2.805   1.131   7.165 -0.8009  1.8751  1.2238
  675SOL     OW 2994   0.786   6.384   1.789  0.3365  0.5981 -0.0797
  675SOL    HW1 2995   0.753   6.366   1.701  2.5239  0.0301 -0.8423
  675SOL    HW2 2996   0.775   6.302   1.836  0.7039  0.3890 -0.3533
  676SOL     OW 2997   1.645   4.416   2.744 -0.0661 -0.4665 -0.8200
  676SOL    HW1 2998   1.601   4.336   2.773 -1.3749  0.3285 -0.5142
  676SOL    HW2 2999   1.658   4.466   2.824  0.7649 -0.3785 -1.0097
  677SOL     OW 3000   3.281   2.521   3.558 -0.2642  0.0223  0.2419
  677SOL    HW1 3001   3.190   2.493   3.570  0.0426 -0.9863  0.2829
  677SOL    HW2 3002   3.332   2.440   3.563  0.6262  0.5612  0.0747
  678SOL     OW 3003   7.014   2.292   6.171 -0.0549 -0.1432  0.0311
  678SOL    HW1 3004   7.055   2.213   6.206 -1.3533 -0.4466  0.9247
  678SOL    HW2 3005   7.088   2.352   6.157  0.9032 -1.3281 -0.2499
  679SOL     OW 3006   2.398   4.303   4.157  0.1173 -0.6072  0.3283
  679SOL    HW1 3007   2.403   4.392   4.191 -1.9752 -0.7636  1.2215
  679SOL    HW2 3008   2.484   4.265   4.174  0.2601  0.4573  2.1832
  680SOL     OW 3009   1.119   5.065   0.716  0.1335 -0.0035 -0.2707
  680SOL    HW1 3010   1.110   5.135   0.781  0.4981 -0.7612  0.6164
  680SOL    HW2 3011   1.075   5.099   0.638  0.6476  1.3714  0.0081
  681SOL     OW 3012   5.741   4.435   3.881  0.2263  0.0075  0.1353
  681SOL    HW1 3013   5.661   4.407   3.925  0.5671 -0.6531  0.3541
  681SOL    HW2 3014   5.715   4.512   3.830 -0.5299 -0.1653  0.2478
  682SOL     OW 3015   4.386   4.546   3.781 -0.1082  0.1345  0.1169
  682SOL    HW1 3016   4.471   4.530   3.822 -0.2965  0.3703  0.6136
  682SOL    HW2 3017   4.408   4.569   3.691  0.2890 -0.7525 -0.0256
  683SOL     OW 3018   6.889   4.927   7.350 -0.0093 -0.1994 -0.4004
  683SOL    HW1 3019   6.925   4.917   7.439  0.7594 -0.7054 -0.7600
  683SOL    HW2 3020   6.873   4.837   7.321 -0.0886 -0.0386 -0.8512
  684SOL     OW 3021   3.130   0.928   3.804  0.4998 -0.3825  0.0370
  684SOL    HW1 3022   3.038   0.904   3.813  0.6606 -1.3293 -0.7642
  684SOL    HW2 3023   3.141   1.000   3.866 -0.8687  0.0010 -0.1235
  685SOL     OW 3024   0.727   3.393   1.003  0.0380 -0.6141  0.6738
  685SOL    HW1 3025   0.744   3.486   0.987 -5.0537  0.7786  1.6234
  685SOL    HW2 3026   0.730   3.353   0.916  0.1535  0.9143 -0.0529
  686SOL     OW 3027   6.847   1.746   0.825 -0.3887  0.3142 -0.5135
  686SOL    HW1 3028   6.764   1.732   0.781 -0.0498  1.2906 -1.5048
  686SOL    HW2 3029   6.890   1.814   0.774  0.4751  0.7317  0.7225
  687SOL     OW 3030   7.294   2.763   6.242 -0.0065 -0.4918  0.4036
  687SOL    HW1 3031   7.267   2.696   6.305  1.1483 -0.4996  0.9082
  687SOL    HW2 3032   7.287   2.846   6.289 -0.2216 -0.3787  0.1763
  688SOL     OW 3033   3.369   0.921   3.094 -0.3922  0.6885 -0.1279
  688SOL    HW1 3034   3.360   0.829   3.071 -1.0891  0.7001  0.0657
  688SOL    HW2 3035   3.446   0.925   3.150 -1.2597 -0.0212  1.1571
  689SOL     OW 3036   2.165   3.625   5.392 -0.5901 -0.3136  0.0490
  689SOL    HW1 3037   2.208   3.703   5.426 -2.4439  0.9941 -0.4731
  689SOL    HW2 3038   2.215   3.602   5.314 -1.4266  1.8340 -1.1794
  690SOL     OW 3039   5.408   1.007   6.704  0.6963 -0.2688  0.2794
  690SOL    HW1 3040   5.316   0.981   6.712  0.7395 -1.4722 -2.3325
  690SOL    HW2 3041   5.404   1.097   6.671  0.4736 -0.2636  0.3143
  691SOL     OW 3042   7.238   1.578   5.052 -0.2466 -0.1799 -0.2550
  691SOL    HW1 3043   7.240   1.498   5.000  0.2115 -0.2496 -0.1328
  691SOL    HW2 3044   7.192   1.641   4.997 -2.9701 -1.2201  0.6348
  692SOL     OW 3045   5.624   1.544   2.117  0.2148  0.4474  0.5129
  692SOL    HW1 3046   5.611   1.635   2.089  1.6040  0.3239 -0.6558
  692SOL    HW2 3047   5.543   1.521   2.163 -1.2657  1.4548 -1.4145
  693SOL     OW 3048   5.412   3.152   5.649  0.3158 -0.0916 -0.4587
  693SOL    HW1 3049   5.392   3.089   5.579 -0.0794  0.6864 -1.0689
  693SOL    HW2 3050   5.440   3.231   5.602 -0.8866  0.7699  0.2222
  694SOL     OW 3051   0.615   4.711   0.366 -0.4149 -0.1108  0.0639
  694SOL    HW1 3052   0.528   4.680   0.339 -1.1348  1.6280  0.2168
  694SOL    HW2 3053   0.621   4.688   0.459 -0.8920  0.1203  0.1558
  695SOL     OW 3054   2.730   0.583   1.165 -0.1681  0.5562  0.2045
  695SOL    HW1 3055   2.762   0.629   1.243  3.2360 -1.4076  0.1741
  695SOL    HW2 3056   2.727   0.491   1.192  0.2144 -0.0477 -1.6951
  696SOL     OW 3057   1.317   6.312   7.166 -0.1719 -0.0130  0.2184
  696SOL    HW1 3058   1.247   6.372   7.193 -0.8461 -0.2730 -0.8704
  696SOL    HW2 3059   1.302   6.233   7.218 -0.7681 -0.1071 -0.0911
  697SOL     OW 3060   4.589   3.215   7.074 -0.5930  0.4638 -0.0034
  697SOL    HW1 3061   4.553   3.297   7.040  0.9356  0.3325 -2.1834
  697SOL    HW2 3062   4.619   3.237   7.162  0.9909  2.6829 -0.9881
  698SOL     OW 3063   1.377   3.739   0.388  0.7656 -0.6610 -0.4802
  698SOL    HW1 3064   1.407   3.660   0.344 -0.1446 -1.2290 -0.1010
  698SOL    HW2 3065   1.448   3.802   0.375  1.4084 -1.4673 -0.9643
  699SOL     OW 3066   5.393   6.550   1.809 -0.0309 -0.7330  0.2768
  699SOL    HW1 3067   5.455   6.602   1.859 -0.1784  0.7017 -0.9506
  699SOL    HW2 3068   5.360   6.485   1.871 -2.0592  2.4402  2.8867
  700SOL     OW 3069   5.477   7.123   1.212 -0.1124 -0.2783  0.0945
  700SOL    HW1 3070   5.390   7.128   1.174  0.1426 -0.4577 -0.5421
  700SOL    HW2 3071   5.512   7.212   1.205  0.5299 -0.6187 -1.6039
  701SOL     OW 3072   4.945   2.508   2.469 -0.1366 -0.3969 -0.3737
  701SOL    HW1 3073   5.038   2.521   2.449 -0.3460  0.0797 -1.0950
  701SOL    HW2 3074   4.923   2.424   2.427  0.0507 -0.6868  0.1042
  702SOL     OW 3075   2.577   4.796   6.932  0.4261  0.3619 -0.4120
  702SOL    HW1 3076   2.508   4.744   6.974  0.9194 -0.5395 -0.6867
  702SOL    HW2 3077   2.657   4.770   6.978  0.6171  1.2564 -0.2291
  703SOL     OW 3078   4.364   6.111   1.831 -0.0231  0.5615 -0.5329
  703SOL    HW1 3079   4.402   6.198   1.831 -2.2575  1.6178  0.5263
  703SOL    HW2 3080   4.280   6.121   1.785 -1.1554 -0.5661  1.1631
  704SOL     OW 3081   3.623   7.303   1.114 -0.8253 -0.2404 -0.8434
  704SOL    HW1 3082   3.559   7.342   1.174 -0.0882  0.5785 -0.5786
  704SOL    HW2 3083   3.591   7.327   1.027 -0.4006  0.9677 -0.6884
  705SOL     OW 3084   1.521   2.477   6.235  0.1362 -0.2892 -0.0696
  705SOL    HW1 3085   1.479   2.397   6.267  1.9722 -1.2028  0.1916
  705SOL    HW2 3086   1.515   2.470   6.140  0.0531 -0.6063 -0.0436
  706SOL     OW 3087   3.099   0.998   0.930 -0.2116 -0.2134  0.0080
  706SOL    HW1 3088   3.041   1.054   0.981  0.0042 -0.5673  0.6396
  706SOL    HW2 3089   3.134   0.936   0.992  0.2031 -0.5306 -0.5346
  707SOL     OW 3090   3.801   4.166   2.906  0.0329  0.2670 -0.5850
  707SOL    HW1 3091   3.717   4.212   2.903  0.8584  1.9317  0.1126
  707SOL    HW2 3092   3.861   4.221   2.855  1.1485  0.2166  0.5935
  708SOL     OW 3093   5.378   0.971   5.269 -0.0305 -0.0431 -0.3390
  708SOL    HW1 3094   5.302   0.984   5.326 -0.1413  2.4923 -0.9295
  708SOL    HW2 3095   5.346   0.913   5.199 -0.9211 -0.3525  0.3047
  709SOL     OW 3096   1.646   4.471   3.727 -0.2279 -0.2746 -0.2903
  709SOL    HW1 3097   1.552   4.453   3.731 -0.5764  1.4868  0.3865
  709SOL    HW2 3098   1.682   4.399   3.675 -2.0592 -0.5727 -1.2296
  710SOL     OW 3099   6.066   0.560   3.145 -0.0658 -0.0526  0.3449
  710SOL    HW1 3100   6.029   0.482   3.105  0.3450 -0.2269  0.3014
  710SOL    HW2 3101   6.148   0.575   3.098 -1.4394  2.0112 -1.5916
  711SOL     OW 3102   6.385   0.651   5.887  0.4338 -0.4663 -0.4346
  711SOL    HW1 3103   6.421   0.663   5.799  0.2367  0.5877 -0.3793
  711SOL    HW2 3104   6.308   0.596   5.874 -1.0919  1.7389 -1.2905
  712SOL     OW 3105   1.211   0.001   5.232  0.3370 -0.0396 -0.5734
  712SOL    HW1 3106   1.220  -0.063   5.161 -1.1902 -0.5742 -0.3063
  712SOL    HW2 3107   1.302   0.020   5.257  0.8559 -1.4417 -1.2440
  713SOL     OW 3108   1.577   7.132   3.217 -0.4542  0.0188  0.1525
  713SOL    HW1 3109   1.491   7.137   3.260  0.1721 -0.5898  1.5212
  713SOL    HW2 3110   1.567   7.063   3.151 -1.4798  1.0915 -0.8760
  714SOL     OW 3111   5.928   0.542   5.373  0.4146 -0.5330  0.6747
  714SOL    HW1 3112   5.850   0.516   5.422  0.2045 -1.1058  0.0711
  714SOL    HW2 3113   5.923   0.637   5.367  0.8354 -0.3680  2.3700
  715SOL     OW 3114   0.858   5.293   1.675  0.3883  0.7365 -0.3288
  715SOL    HW1 3115   0.794   5.364   1.673  0.0435  0.4150 -1.1064
  715SOL    HW2 3116   0.809   5.215   1.647  0.8710  0.2748  0.0687
  716SOL     OW 3117   3.570   2.113   0.804  0.3498 -0.0738 -0.9317
  716SOL    HW1 3118   3.634   2.181   0.785  0.5163  0.1272  0.2675
  716SOL    HW2 3119   3.569   2.107   0.899 -1.2302 -0.2589 -0.9316
  717SOL     OW 3120   4.541   1.839   6.292 -0.3498 -0.7165  0.1656
  717SOL    HW1 3121   4.603   1.912   6.290 -0.6113 -0.4890  0.3064
  717SOL    HW2 3122   4.509   1.833   6.202 -1.6231  0.4719  0.4884
  718SOL     OW 3123   5.012   7.108   6.701  0.4293  0.0521 -0.7364
  718SOL    HW1 3124   5.091   7.085   6.652  0.3823 -1.1655 -0.2779
  718SOL    HW2 3125   5.031   7.082   6.791 -0.3333  0.1491 -0.5418
  719SOL     OW 3126   7.308   4.717   4.208  0.5935 -0.2177 -0.4861
  719SOL    HW1 3127   7.336   4.806   4.191  0.3182  0.1557  0.8825
  719SOL    HW2 3128   7.252   4.723   4.285  0.9737 -1.6261 -0.0532
  720SOL     OW 3129   6.462   6.141   6.722 -0.0432 -0.5598  0.0569
  720SOL    HW1 3130   6.550   6.134   6.684 -0.3620 -2.7622 -0.3759
  720SOL    HW2 3131   6.448   6.059   6.769 -1.2273  0.4639  1.6380
  721SOL     OW 3132   5.492   6.357   6.211  0.0316  0.2974  0.0219
  721SOL    HW1 3133   5.485   6.375   6.118 -0.6772  1.0251  0.2087
  721SOL    HW2 3134   5.414   6.306   6.232  0.6572 -0.6943  0.0454
  722SOL     OW 3135   5.787   1.402   5.591 -0.0851 -0.6064 -0.2798
  722SOL    HW1 3136   5.822   1.341   5.655 -1.6246 -2.0738 -0.7692
  722SOL    HW2 3137   5.829   1.378   5.509  2.1653  1.5080  0.1287
  723SOL     OW 3138   1.342   4.218   2.227  0.3647 -0.1055  0.2077
  723SOL    HW1 3139   1.287   4.295   2.241 -0.0433 -0.2602 -0.4980
  723SOL    HW2 3140   1.377   4.198   2.313 -1.9606 -0.9710  1.0175
  724SOL     OW 3141   1.617   1.687   5.585  0.1803 -0.0390 -0.1644
  724SOL    HW1 3142   1.604   1.754   5.652 -1.3952  1.5487 -1.9511
  724SOL    HW2 3143   1.701   1.710   5.545 -0.1953  0.7054 -0.5496
  725SOL     OW 3144   6.154   4.838   2.680 -0.2191  0.0405  0.2792
  725SOL    HW1 3145   6.221   4.775   2.654  1.8057  1.7830  0.9389
  725SOL    HW2 3146   6.121   4.806   2.764 -0.4173 -0.9818 -0.1794
  726SOL     OW 3147   1.611   5.166   6.955 -0.8503  0.2225  0.1566
  726SOL    HW1 3148   1.617   5.252   6.913  1.1765  0.5473  0.9784
  726SOL    HW2 3149   1.647   5.179   7.042  0.9756 -1.7542 -0.2069
  727SOL     OW 3150   0.210   0.460   1.606 -0.0208 -0.0667  0.2051
  727SOL    HW1 3151   0.276   0.408   1.650 -0.9772 -2.8435 -1.3639
  727SOL    HW2 3152   0.249   0.482   1.521 -0.4820 -0.3754 -0.0990
  728SOL     OW 3153   7.087   3.326   5.132 -0.4202  0.1381  0.0186
  728SOL    HW1 3154   7.113   3.312   5.223  0.5590 -1.3024 -0.4448
  728SOL    HW2 3155   7.045   3.243   5.106  0.2674  0.1291 -1.1428
  729SOL     OW 3156   7.336   6.333   5.116  0.3940 -0.4858 -0.1773
  729SOL    HW1 3157   7.338   6.402   5.183  0.6098 -1.4061  0.7866
  729SOL    HW2 3158   7.405   6.273   5.141  0.7390 -0.6491 -1.4737
  730SOL     OW 3159   3.948   3.606   6.584 -0.3311 -0.3718 -0.6106
  730SOL    HW1 3160   3.935   3.700   6.597 -0.3979 -0.5390  0.6955
  730SOL    HW2 3161   3.861   3.571   6.569 -0.2847 -0.2067 -1.2971
  731SOL     OW 3162   5.007   6.481   0.358  0.4189  0.1701 -0.2910
  731SOL    HW1 3163   4.992   6.527   0.440  0.5427  0.3209 -0.3527
  731SOL    HW2 3164   5.097   6.448   0.365  0.0330 -0.8338  0.1299
  732SOL     OW 3165   6.749   2.041   1.858  0.5843  0.2260  0.2798
  732SOL    HW1 3166   6.681   2.021   1.922 -1.9205 -0.4139 -2.3290
  732SOL    HW2 3167   6.728   2.130   1.828  0.8431  0.0060 -0.5962
  733SOL     OW 3168   7.162   6.647   3.279  0.1598 -0.1773 -0.4043
  733SOL    HW1 3169   7.255   6.652   3.302 -0.0787  0.6277  0.4552
  733SOL    HW2 3170   7.161   6.637   3.184  1.1415 -1.3277 -0.3139
  734SOL     OW 3171   6.522   3.274   1.258 -0.4132 -0.5348 -0.8222
  734SOL    HW1 3172   6.598   3.254   1.312 -1.4803 -2.1720  0.1604
  734SOL    HW2 3173   6.490   3.358   1.291  1.9113  1.1015 -2.4215
  735SOL     OW 3174   4.035   5.210   7.263 -0.0343 -0.2884 -0.1447
  735SOL    HW1 3175   3.971   5.143   7.237 -0.1926 -0.7160  1.2723
  735SOL    HW2 3176   4.034   5.273   7.191 -1.6333 -0.5815 -0.4226
  736SOL     OW 3177   7.200   4.513   3.686  0.1432  0.4279  0.7641
  736SOL    HW1 3178   7.148   4.575   3.635  0.7151  0.8852  0.7278
  736SOL    HW2 3179   7.198   4.432   3.634  4.1942  1.9607 -2.3477
  737SOL     OW 3180   5.802   6.514   3.120 -0.2932  0.1429 -0.5140
  737SOL    HW1 3181   5.852   6.548   3.046  1.1414 -0.5017  0.1129
  737SOL    HW2 3182   5.868   6.491   3.185 -1.5582  1.2557  1.2323
  738SOL     OW 3183   4.071   6.382   0.208  0.4843  0.3433  0.0109
  738SOL    HW1 3184   4.134   6.311   0.220  0.1861  0.4184  2.4961
  738SOL    HW2 3185   4.014   6.376   0.284 -2.4644  0.4014 -2.0460
  739SOL     OW 3186   4.284   4.564   2.561 -0.0849 -0.0696  0.4339
  739SOL    HW1 3187   4.298   4.536   2.471 -1.2115  0.6685  0.0090
  739SOL    HW2 3188   4.190   4.577   2.568  0.1870  1.9981  1.0591
  740SOL     OW 3189   1.683   2.584   4.719  0.2359  0.7522  0.4150
  740SOL    HW1 3190   1.696   2.517   4.787  1.4277 -0.6875 -1.1382
  740SOL    HW2 3191   1.604   2.556   4.673  1.1669 -0.1126 -0.7348
  741SOL     OW 3192   3.491   2.578   5.461 -0.0060  0.9612 -1.1592
  741SOL    HW1 3193   3.538   2.553   5.540 -0.2058 -0.7727 -1.5528
  741SOL    HW2 3194   3.400   2.555   5.479 -0.0015  0.2346 -1.9998
  742SOL     OW 3195   2.315   4.928   2.777  0.2364  0.0354  0.4210
  742SOL    HW1 3196   2.364   5.010   2.779 -0.3155  0.3869 -0.0171
  742SOL    HW2 3197   2.297   4.909   2.869  0.0780  0.5876  0.5084
  743SOL     OW 3198   1.783   6.409   1.282  0.5410 -0.9035  0.0665
  743SOL    HW1 3199   1.837   6.434   1.357 -0.6869 -1.1621  1.0707
  743SOL    HW2 3200   1.841   6.417   1.206  0.9964  2.3425  0.6169
  744SOL     OW 3201   4.644   2.980   0.055 -0.1941 -0.4662  0.2014
  744SOL    HW1 3202   4.682   3.051   0.002  0.0917 -0.2377  0.7073
  744SOL    HW2 3203   4.563   3.017   0.089  0.2063 -0.2067  0.8760
  745SOL     OW 3204   4.869   5.284   0.157 -0.0994  0.2705  0.5212
  745SOL    HW1 3205   4.939   5.340   0.193  1.2626 -1.4594  0.6859
  745SOL    HW2 3206   4.916   5.216   0.109 -1.5980 -1.7452  1.7659
  746SOL     OW 3207   5.616   2.540   0.053  0.7627  0.0052 -0.4832
  746SOL    HW1 3208   5.544   2.502   0.002  0.8548 -0.1440 -0.5018
  746SOL    HW2 3209   5.587   2.630   0.071  1.2505  0.4406 -1.7976
  747SOL     OW 3210   0.363   1.004   1.269  0.1548  0.1962  0.2588
  747SOL    HW1 3211   0.442   1.012   1.216  1.5509  0.8816  2.3138
  747SOL    HW2 3212   0.361   0.912   1.295  0.0234  0.0764 -0.1778
  748SOL     OW 3213   5.499   2.908   5.766 -0.0832 -0.1896  0.3298
  748SOL    HW1 3214   5.536   2.937   5.849  0.3410 -1.7311  0.7207
  748SOL    HW2 3215   5.478   2.989   5.719 -0.1436  0.7116  1.8368
  749SOL     OW 3216   1.971   0.893   5.163 -0.1023 -0.4883  0.5139
  749SOL    HW1 3217   1.933   0.914   5.248 -3.5104 -2.4577 -0.3003
  749SOL    HW2 3218   2.026   0.816   5.179  0.1501 -0.1888  1.0932
  750SOL     OW 3219   5.573   0.823   5.459 -0.6853  0.2926 -0.5382
  750SOL    HW1 3220   5.517   0.873   5.400 -0.4190  1.2032 -0.0366
  750SOL    HW2 3221   5.603   0.749   5.406  0.7622  1.8752 -2.0681
  751SOL     OW 3222   6.153   6.849   4.480 -0.3415 -0.1110 -1.2421
  751SOL    HW1 3223   6.115   6.823   4.397 -1.5101 -0.0032 -0.7678
  751SOL    HW2 3224   6.081   6.894   4.526 -1.1651 -3.8552  1.5953
  752SOL     OW 3225   0.838   7.301   6.319  0.1077  0.3418  0.2891
  752SOL    HW1 3226   0.820   7.253   6.238  1.4861  1.3005 -0.6233
  752SOL    HW2 3227   0.934   7.311   6.320 -0.0006  1.4376  1.4022
  753SOL     OW 3228   1.120   6.545   2.340  0.0314  0.3317 -0.2042
  753SOL    HW1 3229   1.167   6.550   2.257 -0.1407  0.7751 -0.2794
  753SOL    HW2 3230   1.082   6.457   2.342  1.5451 -0.3352  0.2351
  754SOL     OW 3231   1.803   4.907   6.809 -0.1135 -0.3534 -0.3361
  754SOL    HW1 3232   1.717   4.945   6.828 -0.1595 -1.1047  1.1490
  754SOL    HW2 3233   1.828   4.864   6.891  2.9815  2.2404  0.2448
  755SOL     OW 3234   0.606   4.134   6.106 -0.2779  0.4991 -0.1429
  755SOL    HW1 3235   0.670   4.142   6.036 -2.1201 -0.1427 -1.9932
  755SOL    HW2 3236   0.608   4.219   6.150  2.5568  0.1482  0.5897
  756SOL     OW 3237   5.769   3.241   7.082  0.2960  0.0766 -0.0382
  756SOL    HW1 3238   5.696   3.251   7.142 -1.6225  0.1446 -2.2420
  756SOL    HW2 3239   5.833   3.307   7.111 -0.3441 -0.1949  2.1189
  757SOL     OW 3240   1.867   6.033   6.214  0.2024  0.0553  0.1980
  757SOL    HW1 3241   1.918   6.021   6.294 -0.1256 -0.6362  0.3079
  757SOL    HW2 3242   1.835   5.946   6.192 -0.3188  0.3597 -0.2840
  758SOL     OW 3243   5.587   2.342   3.237  0.3938 -0.2962  0.4053
  758SOL    HW1 3244   5.518   2.405   3.258  0.6798  0.1595 -0.0142
  758SOL    HW2 3245   5.557   2.297   3.159  1.3881  1.1938 -0.8867
  759SOL     OW 3246   2.004   7.212   7.381  0.0795 -0.2757  0.0601
  759SOL    HW1 3247   2.037   7.137   7.331 -1.1763 -1.9671  1.6138
  759SOL    HW2 3248   1.920   7.182   7.415 -0.4211  1.8397  0.8569
  760SOL     OW 3249   6.749   4.252   4.801 -0.2270  0.1645  0.4452
  760SOL    HW1 3250   6.672   4.287   4.757  1.9839  3.2551 -1.2970
  760SOL    HW2 3251   6.794   4.201   4.734  0.1550 -0.2023  0.9646
  761SOL     OW 3252   1.369   2.920   6.873  0.3205  0.1411 -0.0188
  761SOL    HW1 3253   1.419   2.997   6.845 -0.5952  1.5200  1.8886
  761SOL    HW2 3254   1.432   2.848   6.872  1.0090  0.6875 -2.6446
  762SOL     OW 3255   2.885   2.129   0.469  0.6068  0.3502 -0.2634
  762SOL    HW1 3256   2.914   2.048   0.510  2.4469  1.0793 -0.0183
  762SOL    HW2 3257   2.803   2.106   0.426  0.8862 -1.5346  0.1159
  763SOL     OW 3258   3.240   2.374   7.366 -0.0340  0.6560 -0.0113
  763SOL    HW1 3259   3.181   2.298   7.373 -0.3091  0.9005  0.3655
  763SOL    HW2 3260   3.203   2.426   7.295 -0.8947  1.3416  0.9192
  764SOL     OW 3261   5.704   2.111   5.416  0.2298  0.2083  0.2359
  764SOL    HW1 3262   5.623   2.083   5.374  0.9535  0.1052 -1.1544
  764SOL    HW2 3263   5.689   2.202   5.440 -0.4146  0.0815  0.3533
  765SOL     OW 3264   4.668   1.031   5.452 -0.2218  0.0893 -0.1370
  765SOL    HW1 3265   4.717   1.058   5.375 -0.5036  1.0605  0.0110
  765SOL    HW2 3266   4.576   1.030   5.423 -0.4649  1.6838  0.4922
  766SOL     OW 3267   5.109   3.209   6.666  0.2877  0.4850 -0.0853
  766SOL    HW1 3268   5.020   3.233   6.640 -0.1854 -0.1123  0.9669
  766SOL    HW2 3269   5.153   3.191   6.583 -1.5676 -2.6829 -0.5119
  767SOL     OW 3270   1.776   6.061   4.150 -0.4291 -0.7629  0.1520
  767SOL    HW1 3271   1.697   6.083   4.100 -0.6353  0.6544  1.0622
  767SOL    HW2 3272   1.793   6.138   4.204  1.6334 -1.0172 -0.0677
  768SOL     OW 3273   5.143   5.784   5.234 -0.1873 -0.0629  0.5780
  768SOL    HW1 3274   5.176   5.753   5.149  1.3446  1.7821  0.4345
  768SOL    HW2 3275   5.067   5.728   5.251  0.0919 -1.2055 -1.4855
  769SOL     OW 3276   6.304   3.167   3.889  0.2019  0.3698  0.1069
  769SOL    HW1 3277   6.297   3.081   3.849  0.2902  1.5464 -2.6561
  769SOL    HW2 3278   6.386   3.203   3.856 -0.3969  1.9632  0.2230
  770SOL     OW 3279   5.252   1.031   7.191 -0.4926  0.2034 -0.1007
  770SOL    HW1 3280   5.228   0.939   7.184 -2.0806  0.3454  2.1323
  770SOL    HW2 3281   5.318   1.034   7.261 -1.3677  0.8438  0.7287
  771SOL     OW 3282   2.113   3.348   7.071 -0.3114 -0.2992  0.3572
  771SOL    HW1 3283   2.020   3.371   7.058  0.1815  1.3121 -0.6362
  771SOL    HW2 3284   2.148   3.340   6.982  0.2528 -2.1665  0.7017
  772SOL     OW 3285   1.546   7.056   2.440  0.3025 -0.3035 -0.0395
  772SOL    HW1 3286   1.510   7.123   2.498 -1.1150 -0.5007 -0.6325
  772SOL    HW2 3287   1.554   7.099   2.355 -2.7598 -1.3505 -1.0241
  773SOL     OW 3288   1.287   4.666   3.288  0.8926  0.0652  0.7749
  773SOL    HW1 3289   1.322   4.580   3.263  2.3498  1.0843 -0.9832
  773SOL    HW2 3290   1.273   4.710   3.204  2.2444  2.3022  1.6407
  774SOL     OW 3291   7.180   6.726   3.003 -0.0394  0.1265  0.6508
  774SOL    HW1 3292   7.094   6.760   2.978  0.7248  0.7186 -1.4173
  774SOL    HW2 3293   7.223   6.799   3.046 -0.0857  0.2979  0.4118
  775SOL     OW 3294   7.032   6.097   7.284 -0.3754 -0.2039  0.0400
  775SOL    HW1 3295   6.971   6.121   7.353 -0.1764 -1.0653  0.5304
  775SOL    HW2 3296   6.980   6.046   7.222 -0.1033 -1.2226  0.6252
  776SOL     OW 3297   0.988   5.885   5.808  0.4819  0.4992  0.4856
  776SOL    HW1 3298   1.002   5.895   5.902  0.3325 -1.1280  0.7093
  776SOL    HW2 3299   1.014   5.795   5.789  0.5055  0.7994 -1.0404
  777SOL     OW 3300   5.353   1.346   1.080 -0.1442  0.0387  0.2008
  777SOL    HW1 3301   5.440   1.348   1.118 -0.2808  0.6268  0.4909
  777SOL    HW2 3302   5.304   1.414   1.127 -1.2146 -1.3363  1.1353
  778SOL     OW 3303   7.377   7.323   2.355  0.1347  0.1655  0.0848
  778SOL    HW1 3304   7.338   7.244   2.318  0.1995  1.2494 -2.4495
  778SOL    HW2 3305   7.321   7.394   2.324  1.4302  1.3294  0.3373
  779SOL     OW 3306   6.583   2.324   4.503 -0.1624  0.0212  0.7334
  779SOL    HW1 3307   6.571   2.325   4.408 -0.6171 -1.1061  0.7544
  779SOL    HW2 3308   6.591   2.231   4.524  0.0690  0.2724  1.7842
  780SOL     OW 3309   7.321   4.472   4.069  0.3840 -0.0089  0.0318
  780SOL    HW1 3310   7.348   4.419   4.145  1.2052 -0.9787 -0.9043
  780SOL    HW2 3311   7.332   4.562   4.098 -0.5709 -0.3262  1.5035
  781SOL     OW 3312   4.930   6.728   0.245 -0.3174 -0.4879  0.5271
  781SOL    HW1 3313   4.951   6.635   0.247  0.0505 -0.5620 -2.4302
  781SOL    HW2 3314   4.873   6.742   0.321  1.2158 -2.6631  2.1850
  782SOL     OW 3315   2.721   4.305   1.774 -0.3498  0.3123 -0.0770
  782SOL    HW1 3316   2.695   4.347   1.856 -1.6576  0.2807 -0.4501
  782SOL    HW2 3317   2.707   4.211   1.790 -0.6127  0.3062 -0.3321
  783SOL     OW 3318   0.889   0.768   1.090  0.2382 -0.0118  0.3364
  783SOL    HW1 3319   0.902   0.830   1.019  0.0754 -0.5775 -0.1905
  783SOL    HW2 3320   0.801   0.733   1.075  1.1528 -2.0435 -0.6977
  784SOL     OW 3321   1.660   5.773   7.312  0.2456  0.2245 -0.5383
  784SOL    HW1 3322   1.587   5.812   7.265  1.2537  3.0027 -0.0058
  784SOL    HW2 3323   1.620   5.726   7.386 -1.0253  0.8763 -0.8017
  785SOL     OW 3324   6.488   4.151   2.282 -0.0770  0.0934  0.3685
  785SOL    HW1 3325   6.393   4.151   2.294 -0.4513  1.0778 -1.9505
  785SOL    HW2 3326   6.503   4.083   2.217  0.5169  1.2383 -0.7420
  786SOL     OW 3327   0.683   0.336   4.094  0.0735  0.1723  0.1106
  786SOL    HW1 3328   0.614   0.403   4.097 -0.0777  0.0960 -1.0570
  786SOL    HW2 3329   0.724   0.349   4.008  0.6539 -0.6252  0.2648
  787SOL     OW 3330   0.782   0.671   5.527 -0.4325 -0.1566  1.0364
  787SOL    HW1 3331   0.792   0.764   5.545 -0.2072 -0.2067  1.1689
  787SOL    HW2 3332   0.690   0.652   5.545 -0.8123  0.3224 -0.2404
  788SOL     OW 3333   0.800   6.299   4.374  0.0609 -0.5113  0.1869
  788SOL    HW1 3334   0.776   6.363   4.441 -2.6082 -2.1083  0.8700
  788SOL    HW2 3335   0.832   6.353   4.301  1.1485  1.3662  1.9425
  789SOL     OW 3336   0.427   6.500   2.969 -0.5975  0.1497  0.5190
  789SOL    HW1 3337   0.469   6.416   2.985 -1.2103 -0.3593 -0.4261
  789SOL    HW2 3338   0.343   6.494   3.013 -0.3937  0.4995  0.9571
  790SOL     OW 3339   0.649   2.837   5.671  0.0031  0.2186 -0.0170
  790SOL    HW1 3340   0.668   2.796   5.755  1.0742 -1.8292 -1.1787
  790SOL    HW2 3341   0.554   2.853   5.673 -0.0111  0.0673  1.5088
  791SOL     OW 3342   1.660   7.280   0.528  0.4131 -0.0735 -0.4545
  791SOL    HW1 3343   1.639   7.299   0.437 -1.6964 -2.0409 -0.4634
  791SOL    HW2 3344   1.692   7.190   0.527  0.2781 -0.1575  0.7566
  792SOL     OW 3345   6.808   1.314   5.188 -0.0849 -0.7334 -0.7148
  792SOL    HW1 3346   6.863   1.358   5.122  0.9396 -0.4821  0.2776
  792SOL    HW2 3347   6.819   1.221   5.169  1.8307 -0.7625  0.3025
  793SOL     OW 3348   1.185   6.740   5.570  0.0623  0.0618  0.3088
  793SOL    HW1 3349   1.259   6.735   5.630 -1.3110 -2.9511  1.9552
  793SOL    HW2 3350   1.202   6.672   5.505  0.1084  1.3492 -1.0844
  794SOL     OW 3351   3.634   1.947   3.364 -0.3956  0.3268  0.0904
  794SOL    HW1 3352   3.593   1.935   3.450  1.8317  2.2852  1.5321
  794SOL    HW2 3353   3.623   2.040   3.345  0.6648  0.2698 -0.9060
  795SOL     OW 3354   4.153   2.509   3.263 -0.3299  0.6111  0.2416
  795SOL    HW1 3355   4.221   2.497   3.329 -0.1731  0.1982  0.0015
  795SOL    HW2 3356   4.185   2.581   3.209 -0.1507  0.5132  0.2162
  796SOL     OW 3357   2.569   1.936   6.673 -0.5384 -0.8541  0.9983
  796SOL    HW1 3358   2.521   1.923   6.592  0.2349  0.7573  0.2303
  796SOL    HW2 3359   2.550   2.026   6.698  0.3461 -0.8833  1.8514
  797SOL     OW 3360   4.165   0.197   0.468 -0.3314 -0.3803  0.0342
  797SOL    HW1 3361   4.084   0.226   0.509 -1.1190 -0.0627 -1.6466
  797SOL    HW2 3362   4.171   0.104   0.488 -0.2799 -0.0993  1.4539
  798SOL     OW 3363   6.203   3.417   4.442  0.0512 -0.0473 -0.5784
  798SOL    HW1 3364   6.147   3.389   4.514 -1.3973  0.6015 -1.4023
  798SOL    HW2 3365   6.259   3.485   4.480 -0.6623  0.2539 -0.0398
  799SOL     OW 3366   6.504   0.945   2.542  0.2294  0.2917  0.4139
  799SOL    HW1 3367   6.523   1.038   2.525  0.6416  0.4237  1.4976
  799SOL    HW2 3368   6.453   0.946   2.623 -0.3125 -0.3935  0.0897
  800SOL     OW 3369   2.496   1.366   7.048  0.3168 -0.7104 -0.1417
  800SOL    HW1 3370   2.535   1.450   7.025  1.4047 -1.4131 -0.9669
  800SOL    HW2 3371   2.462   1.332   6.965 -2.0643 -0.1507  0.5370
  801SOL     OW 3372   3.370   0.774   6.240  0.3478 -0.3939 -0.0344
  801SOL    HW1 3373   3.404   0.861   6.257  1.6242 -0.4331 -2.0576
  801SOL    HW2 3374   3.308   0.758   6.312 -0.5483  2.4581 -0.0409
  802SOL     OW 3375   1.260   1.272   1.299  0.3925  0.3132 -0.1821
  802SOL    HW1 3376   1.277   1.187   1.339  1.1488 -0.0712 -1.2835
  802SOL    HW2 3377   1.344   1.317   1.303  0.5252  0.2045 -1.4508
  803SOL     OW 3378   0.043   3.294   1.507 -0.2400 -0.0694  0.3097
  803SOL    HW1 3379  -0.007   3.345   1.444 -1.4307  0.1790  1.3959
  803SOL    HW2 3380  -0.024   3.257   1.566  0.5985 -2.5888 -0.2060
  804SOL     OW 3381   6.648   0.779   7.152  0.4213  0.2151  0.5375
  804SOL    HW1 3382   6.656   0.873   7.163  0.5717  0.2530  0.1236
  804SOL    HW2 3383   6.557   0.765   7.126  0.3257  0.2190  0.8697
  805SOL     OW 3384   2.992   7.323   4.911 -0.1378 -0.1768  0.0831
  805SOL    HW1 3385   3.024   7.410   4.889  0.2935 -0.3706 -0.0805
  805SOL    HW2 3386   3.045   7.264   4.857 -0.5733 -0.5248  0.0347
  806SOL     OW 3387   4.329   3.053   6.207 -0.0763  0.3860 -0.6259
  806SOL    HW1 3388   4.392   2.994   6.166  1.1843 -0.2050  1.9922
  806SOL    HW2 3389   4.248   3.001   6.212  0.3704 -0.3009 -0.3823
  807SOL     OW 3390   5.052   1.441   5.909  0.2028  0.6988 -0.4817
  807SOL    HW1 3391   5.029   1.358   5.950 -0.5804  0.6244 -1.0521
  807SOL    HW2 3392   5.148   1.443   5.911  0.1945  0.3837  0.6937
  808SOL     OW 3393   0.445   4.852   4.571 -1.0605 -0.2272  0.7547
  808SOL    HW1 3394   0.470   4.810   4.653 -0.0516  0.1474  0.6620
  808SOL    HW2 3395   0.431   4.780   4.510 -2.3093 -0.5308  1.3734
  809SOL     OW 3396   3.337   6.583   2.745  0.4841 -0.3487  0.9841
  809SOL    HW1 3397   3.324   6.653   2.809 -3.0836 -0.9655  1.1691
  809SOL    HW2 3398   3.402   6.525   2.784 -0.0847  0.3790  3.1162
  810SOL     OW 3399   4.217   0.394   3.346  0.2559  0.1969  0.3798
  810SOL    HW1 3400   4.229   0.356   3.432  0.9952 -0.5790 -0.0489
  810SOL    HW2 3401   4.223   0.489   3.360 -1.0891  0.1508  1.3757
  811SOL     OW 3402   5.122   3.325   3.488  0.1250  0.0695 -0.0694
  811SOL    HW1 3403   5.158   3.241   3.461 -0.8838 -0.2722 -0.4122
  811SOL    HW2 3404   5.071   3.306   3.566  0.7509  0.5568  0.4614
  812SOL     OW 3405   3.408   4.133   2.686  0.5238 -0.0621 -0.6305
  812SOL    HW1 3406   3.425   4.060   2.627  1.4342  1.1625 -1.9354
  812SOL    HW2 3407   3.494   4.157   2.721  0.1915  0.1749  0.0461
  813SOL     OW 3408   3.721   1.326   6.848  0.5950 -0.4233  0.2724
  813SOL    HW1 3409   3.814   1.340   6.832  0.4188 -1.6205 -2.2858
  813SOL    HW2 3410   3.701   1.243   6.805 -1.8839  0.4056 -0.3340
  814SOL     OW 3411   0.989   3.090   3.885  0.2166  0.2388  0.1071
  814SOL    HW1 3412   1.052   3.160   3.864  0.8958 -0.7410 -1.3271
  814SOL    HW2 3413   1.021   3.052   3.967 -0.6029  2.0566  1.3325
  815SOL     OW 3414   3.246   1.828   0.021  0.3233 -0.5465 -0.3580
  815SOL    HW1 3415   3.220   1.864  -0.064  1.0528 -1.3702 -0.9548
  815SOL    HW2 3416   3.177   1.855   0.081  0.7691  1.7293 -0.7749
  816SOL     OW 3417   5.033   0.707   7.331 -0.1878  0.5026 -0.1018
  816SOL    HW1 3418   5.065   0.665   7.411 -1.3862  1.8064  1.1186
  816SOL    HW2 3419   4.941   0.725   7.349  0.3545  4.1625 -0.2638
  817SOL     OW 3420   0.325   0.680   0.394  0.1569  0.2003 -0.5394
  817SOL    HW1 3421   0.332   0.679   0.490 -1.7536  0.5673 -0.3637
  817SOL    HW2 3422   0.231   0.679   0.377  0.2962  3.4675 -2.3236
  818SOL     OW 3423   3.541   2.246   2.365 -0.3607  0.4183 -0.1227
  818SOL    HW1 3424   3.543   2.155   2.393  2.1698 -0.3645 -2.3575
  818SOL    HW2 3425   3.481   2.289   2.425 -1.7500 -2.7278  0.9268
  819SOL     OW 3426   5.060   6.219   1.824  0.2229  0.4034  0.1231
  819SOL    HW1 3427   4.977   6.243   1.865  1.4060  2.8354  1.3246
  819SOL    HW2 3428   5.095   6.149   1.880 -0.2065  0.6064  0.6540
  820SOL     OW 3429   4.121   5.357   4.923  0.3239  0.5498 -0.1457
  820SOL    HW1 3430   4.030   5.332   4.939  0.0119  1.0913 -0.9810
  820SOL    HW2 3431   4.135   5.433   4.978 -0.0656  1.0912 -0.7714
  821SOL     OW 3432   4.185   4.412   2.769  0.0758  0.0020 -0.3119
  821SOL    HW1 3433   4.181   4.450   2.857  2.0758 -0.5294  0.0515
  821SOL    HW2 3434   4.261   4.453   2.728 -0.8928  0.3263 -1.8586
  822SOL     OW 3435   0.305   0.129   6.450 -0.4809  0.6954 -0.2889
  822SOL    HW1 3436   0.327   0.202   6.507 -0.4718  1.7290 -1.5757
  822SOL    HW2 3437   0.220   0.098   6.482 -0.0019  0.5804  0.9102
  823SOL     OW 3438   6.671   4.758   2.107  0.0161 -0.0818 -0.3617
  823SOL    HW1 3439   6.597   4.742   2.048 -0.0077 -2.9552  0.3245
  823SOL    HW2 3440   6.744   4.779   2.048 -0.4507 -1.0493 -1.3120
  824SOL     OW 3441   2.342   6.378   3.186  0.4818 -0.1552 -0.6625
  824SOL    HW1 3442   2.356   6.469   3.162  0.3562  0.2071  0.5325
  824SOL    HW2 3443   2.354   6.329   3.105  3.0146  0.6697 -0.8692
  825SOL     OW 3444   2.190   4.099   4.580 -0.1796  0.1529  0.6196
  825SOL    HW1 3445   2.219   4.012   4.606  0.0186  0.4116  1.2787
  825SOL    HW2 3446   2.204   4.101   4.485 -0.0852 -0.4908  0.6131
  826SOL     OW 3447   2.487   3.232   4.733 -0.7573 -0.0208  0.4089
  826SOL    HW1 3448   2.437   3.153   4.711 -0.9002  0.3125 -0.5230
  826SOL    HW2 3449   2.555   3.237   4.666 -0.7354  0.6403  0.4737
  827SOL     OW 3450   6.042   4.262   0.274 -0.1484  0.1223  0.4939
  827SOL    HW1 3451   6.062   4.324   0.204 -0.7082  0.2330  0.4210
  827SOL    HW2 3452   5.946   4.259   0.275 -0.1572  0.4190  1.5133
  828SOL     OW 3453   3.425   4.461   5.887  0.3334  0.0134  0.4142
  828SOL    HW1 3454   3.345   4.469   5.939 -0.2003 -3.8764  0.4674
  828SOL    HW2 3455   3.496   4.481   5.947 -0.4618  0.0496  1.3565
  829SOL     OW 3456   4.159   3.121   5.911  0.2348 -0.1824 -0.0802
  829SOL    HW1 3457   4.176   3.117   6.005  0.5674  0.0247 -0.1261
  829SOL    HW2 3458   4.069   3.151   5.904  1.0958  2.9056  0.1876
  830SOL     OW 3459   4.754   3.915   2.848 -0.4156  0.2434 -0.5352
  830SOL    HW1 3460   4.785   3.994   2.893 -0.1949 -0.2742  0.2389
  830SOL    HW2 3461   4.660   3.912   2.865 -0.1024 -0.7614  1.2187
  831SOL     OW 3462   0.353   5.784   1.989 -0.2026  0.1097 -0.7310
  831SOL    HW1 3463   0.268   5.813   1.958  0.5294  0.6785 -2.2927
  831SOL    HW2 3464   0.355   5.690   1.972 -1.1000 -0.2280  0.8094
  832SOL     OW 3465   4.392   0.721   0.640  0.4830 -0.2909 -0.4120
  832SOL    HW1 3466   4.411   0.764   0.723  1.1627  0.6054 -1.0142
  832SOL    HW2 3467   4.477   0.708   0.599  0.1351 -0.4268 -1.1167
  833SOL     OW 3468   6.281   6.035   3.756 -0.4495  0.8143 -0.2654
  833SOL    HW1 3469   6.298   6.124   3.785 -1.0269  0.9241 -0.2586
  833SOL    HW2 3470   6.355   6.013   3.699  0.7982  0.5335  1.4092
  834SOL     OW 3471   2.895   1.932   3.198  0.1110  0.0589  0.2067
  834SOL    HW1 3472   2.908   1.856   3.142  1.3055 -1.4385  2.3745
  834SOL    HW2 3473   2.926   2.006   3.146  2.5388 -1.4268 -0.6258
  835SOL     OW 3474   3.651   7.162   3.645  0.3057 -0.4165  0.0633
  835SOL    HW1 3475   3.684   7.210   3.722  2.8712 -1.7207 -0.1047
  835SOL    HW2 3476   3.596   7.093   3.682  0.7052 -0.4167  0.6785
  836SOL     OW 3477   0.877   2.857   4.359  0.4443 -0.1764  0.0627
  836SOL    HW1 3478   0.916   2.904   4.433  1.0708 -0.2481 -0.2092
  836SOL    HW2 3479   0.838   2.779   4.398  0.6019 -0.1144  0.3485
  837SOL     OW 3480   6.462   5.134   5.382  0.6580 -0.3755  0.2993
  837SOL    HW1 3481   6.440   5.219   5.344 -0.8667 -0.8180  0.1134
  837SOL    HW2 3482   6.512   5.090   5.314  1.0907  0.2044  0.2326
  838SOL     OW 3483   4.594   3.453   4.000 -0.7915 -0.6504  0.2707
  838SOL    HW1 3484   4.653   3.522   4.029  0.0859 -1.3594  0.2150
  838SOL    HW2 3485   4.527   3.448   4.069 -2.1729  1.7340 -0.7752
  839SOL     OW 3486   7.367   4.195   6.924 -0.3798 -0.2676  0.4147
  839SOL    HW1 3487   7.451   4.224   6.959  0.1958 -1.2028 -0.1613
  839SOL    HW2 3488   7.302   4.241   6.977  0.4455 -1.4862  2.6520
  840SOL     OW 3489   0.335   4.199   1.436  0.0668  0.1532  0.3294
  840SOL    HW1 3490   0.287   4.122   1.468 -0.4831  0.4808  0.3101
  840SOL    HW2 3491   0.427   4.177   1.450 -0.1277  0.0475  1.5912
  841SOL     OW 3492   2.069   3.883   6.964  0.3191  0.5569  0.1604
  841SOL    HW1 3493   2.107   3.884   7.051  0.5696  3.2289  0.1161
  841SOL    HW2 3494   2.044   3.792   6.949  1.2839 -0.1703  2.5437
  842SOL     OW 3495   5.008   2.271   3.433  0.2351 -0.4592  0.2489
  842SOL    HW1 3496   5.083   2.324   3.460  0.8482 -1.1636 -0.0193
  842SOL    HW2 3497   4.933   2.313   3.473  0.6003  1.0827 -0.6061
  843SOL     OW 3498   5.226   4.943   1.100  0.5123  0.3495  0.2090
  843SOL    HW1 3499   5.243   4.982   1.185 -0.1502 -0.9507  0.9720
  843SOL    HW2 3500   5.253   5.010   1.037  1.8324  1.0092  1.4075
  844SOL     OW 3501   3.989   5.860   6.650  0.6780 -0.4102 -0.2694
  844SOL    HW1 3502   3.937   5.806   6.590  0.7015 -0.2527 -0.4328
  844SOL    HW2 3503   3.943   5.944   6.652  2.0602  0.4638 -2.0633
  845SOL     OW 3504   7.298   7.197   2.856 -0.4109  0.5574  0.4193
  845SOL    HW1 3505   7.331   7.256   2.788  0.8655  0.2014  0.6873
  845SOL    HW2 3506   7.208   7.179   2.831 -0.2934  1.2775 -0.5935
  846SOL     OW 3507   0.925   1.766   5.597  0.4210  0.5022  0.4227
  846SOL    HW1 3508   0.938   1.828   5.525  1.4602  0.8563  0.8875
  846SOL    HW2 3509   1.010   1.721   5.605  0.1726  0.1461  1.1256
  847SOL     OW 3510   3.766   3.577   4.672 -0.6799 -0.3052  0.0071
  847SOL    HW1 3511   3.705   3.508   4.700 -1.2070  0.3061  0.3991
  847SOL    HW2 3512   3.743   3.652   4.726 -0.4686  0.3485 -0.7988
  848SOL     OW 3513   4.627   3.265   0.219  0.2539 -0.5798  0.5062
  848SOL    HW1 3514   4.560   3.330   0.199  1.2835  0.7268  1.1435
  848SOL    HW2 3515   4.703   3.290   0.166  0.4688 -1.6684  0.2614
  849SOL     OW 3516   3.042   6.442   3.637  0.5091 -0.1035  0.0517
  849SOL    HW1 3517   3.124   6.454   3.591  1.3799 -1.2378  1.2218
  849SOL    HW2 3518   3.041   6.510   3.704  1.0404 -0.7546  0.7394
  850SOL     OW 3519   1.836   2.369   0.482  0.3493 -0.0372  0.5029
  850SOL    HW1 3520   1.864   2.354   0.572  0.8374 -0.7375  0.2493
  850SOL    HW2 3521   1.826   2.281   0.445  0.2076  0.2398 -0.1355
  851SOL     OW 3522   1.903   6.733   5.750 -0.3879  0.1816 -0.1901
  851SOL    HW1 3523   1.997   6.727   5.767  0.1230  1.1863 -2.3432
  851SOL    HW2 3524   1.886   6.827   5.739 -1.1041 -0.1507 -2.3891
  852SOL     OW 3525   4.091   0.969   0.019  0.0936  0.5844  0.1723
  852SOL    HW1 3526   4.068   0.890  -0.028  0.3387  0.7976 -0.3119
  852SOL    HW2 3527   4.009   0.999   0.059  0.4222 -1.2183  2.3832
  853SOL     OW 3528   4.712   5.934   5.655  0.1348 -0.2164 -0.6970
  853SOL    HW1 3529   4.744   5.997   5.719  0.3287 -0.2855 -0.7238
  853SOL    HW2 3530   4.774   5.940   5.582 -0.8211  0.7866 -1.4366
  854SOL     OW 3531   3.003   2.960   5.860  0.1009  0.0530  0.9620
  854SOL    HW1 3532   2.925   2.932   5.812  0.5523  0.8061 -0.2626
  854SOL    HW2 3533   2.970   3.023   5.925 -0.4527 -0.5576  1.2790
  855SOL     OW 3534   5.935   6.018   7.039  0.3631  0.4124 -0.1719
  855SOL    HW1 3535   5.918   5.993   7.130 -2.7053  1.3925 -0.3400
  855SOL    HW2 3536   5.900   5.945   6.988  2.3763 -0.2861 -0.6182
  856SOL     OW 3537   1.498   2.817   3.007 -0.0116 -0.4541 -0.2350
  856SOL    HW1 3538   1.508   2.725   2.981 -0.9978 -0.7643  0.4123
  856SOL    HW2 3539   1.408   2.839   2.982 -0.6198 -0.4235  1.7558
  857SOL     OW 3540   5.542   5.432   2.852 -0.1665 -0.6678 -0.0819
  857SOL    HW1 3541   5.477   5.471   2.794 -0.9076 -1.9469 -0.1370
  857SOL    HW2 3542   5.491   5.379   2.913  0.8395 -2.2528 -0.5509
  858SOL     OW 3543   2.383   4.144   2.939 -0.1392 -0.6281 -0.1850
  858SOL    HW1 3544   2.423   4.058   2.928 -1.5056 -1.2799 -0.2868
  858SOL    HW2 3545   2.445   4.204   2.898  0.9605 -1.5198  0.1137
  859SOL     OW 3546   1.872   3.602   1.702 -0.0436 -0.0723  0.4588
  859SOL    HW1 3547   1.952   3.559   1.731  0.0109  1.1126  2.2668
  859SOL    HW2 3548   1.818   3.532   1.664  0.6764 -1.4165  1.8289
  860SOL     OW 3549   2.557   3.315   6.546  0.4957  0.1507  0.2956
  860SOL    HW1 3550   2.626   3.252   6.527  1.3423  0.3582  2.4951
  860SOL    HW2 3551   2.480   3.261   6.565  0.4145 -0.1042 -0.6553
  861SOL     OW 3552   2.445   1.388   0.199 -0.5678 -0.1328  0.1190
  861SOL    HW1 3553   2.536   1.390   0.229 -0.4592  0.1767 -0.2223
  861SOL    HW2 3554   2.451   1.408   0.105 -0.9950 -0.0069  0.1198
  862SOL     OW 3555   5.440   0.020   0.279 -0.4229  1.0609 -0.3127
  862SOL    HW1 3556   5.535   0.023   0.276 -0.2991 -1.3795 -1.7303
  862SOL    HW2 3557   5.420  -0.011   0.368  0.2362 -0.0601 -0.5355
  863SOL     OW 3558   0.770   1.132   5.201  0.3124  0.0682  0.6115
  863SOL    HW1 3559   0.862   1.144   5.225  0.5683 -0.9615  0.1842
  863SOL    HW2 3560   0.722   1.163   5.278  1.0239  0.0652  1.0713
  864SOL     OW 3561   4.052   4.658   5.345  0.1475  0.0543  0.4667
  864SOL    HW1 3562   4.060   4.632   5.253  0.6071  1.7554 -0.0244
  864SOL    HW2 3563   3.958   4.657   5.362  0.0129  0.2578 -0.2123
  865SOL     OW 3564   6.264   1.618   2.453 -0.4133 -0.8576  0.4446
  865SOL    HW1 3565   6.189   1.606   2.512 -0.4989 -1.1437  0.2813
  865SOL    HW2 3566   6.309   1.534   2.455 -0.9793 -1.2070 -0.6634
  866SOL     OW 3567   1.624   3.624   2.526  0.1495  0.6734 -0.6235
  866SOL    HW1 3568   1.670   3.561   2.471  1.2308 -0.5524  1.5605
  866SOL    HW2 3569   1.564   3.669   2.466  1.1826 -0.6221 -2.7445
  867SOL     OW 3570   1.016   4.361   2.850 -0.1839 -0.4753 -0.1017
  867SOL    HW1 3571   0.961   4.418   2.902 -0.8015  1.2271 -2.4317
  867SOL    HW2 3572   1.105   4.374   2.884 -0.6534 -0.0462  0.9866
  868SOL     OW 3573   0.803   6.030   2.097  0.3779  0.5308  0.7165
  868SOL    HW1 3574   0.818   6.119   2.065  1.8111 -0.2574 -0.9949
  868SOL    HW2 3575   0.785   5.979   2.018  2.6024 -1.2432  1.2489
  869SOL     OW 3576   4.811   0.314   6.430  0.3751 -0.4491  0.7143
  869SOL    HW1 3577   4.755   0.330   6.507  1.4210 -0.8478  1.5845
  869SOL    HW2 3578   4.862   0.394   6.421  0.3952 -0.4797  0.5645
  870SOL     OW 3579   6.754   6.871   1.618 -0.0695  0.2630  0.1660
  870SOL    HW1 3580   6.670   6.915   1.628  0.2570  1.0974 -0.6336
  870SOL    HW2 3581   6.736   6.796   1.562 -0.6039 -0.5680  1.4181
  871SOL     OW 3582   2.274   5.615   0.424 -0.4449 -0.4075 -0.2772
  871SOL    HW1 3583   2.180   5.625   0.406 -0.6455  0.2107  1.0514
  871SOL    HW2 3584   2.290   5.668   0.502  0.6916 -1.8371  0.4949
  872SOL     OW 3585   1.802   5.498   1.586  0.1104 -0.0191 -0.5046
  872SOL    HW1 3586   1.841   5.571   1.539 -2.5109  1.8297 -0.0273
  872SOL    HW2 3587   1.748   5.454   1.521  0.4617 -0.6044 -0.4094
  873SOL     OW 3588   3.424   7.273   4.728  0.2914 -0.5410 -0.0758
  873SOL    HW1 3589   3.446   7.334   4.658 -0.6483 -0.6398 -0.4775
  873SOL    HW2 3590   3.497   7.211   4.730  0.9825  0.2578 -0.0419
  874SOL     OW 3591   6.672   0.404   1.496  0.4646 -0.2897 -0.6198
  874SOL    HW1 3592   6.745   0.378   1.552  0.0796 -0.4477 -0.1873
  874SOL    HW2 3593   6.647   0.491   1.528  1.8500  0.7270 -2.1599
  875SOL     OW 3594   4.303   1.359   7.351 -0.4036 -0.3173 -0.0177
  875SOL    HW1 3595   4.284   1.404   7.434 -2.2221  0.4193 -0.7797
  875SOL    HW2 3596   4.225   1.307   7.333 -0.1471 -0.2717 -1.3816
  876SOL     OW 3597   5.268   4.199   1.045  0.6500 -0.0821 -0.4891
  876SOL    HW1 3598   5.304   4.150   1.118 -0.0661 -1.9696 -1.3222
  876SOL    HW2 3599   5.327   4.180   0.972  0.9426  1.1749 -0.6069
  877SOL     OW 3600   5.810   4.126   1.471  0.0622  0.0327  0.2841
  877SOL    HW1 3601   5.881   4.146   1.533 -0.4068  1.9243  0.2877
  877SOL    HW2 3602   5.787   4.211   1.433  0.0783 -1.0025 -2.2423
  878SOL     OW 3603   4.095   1.867   3.782 -0.2140  0.6978  0.2558
  878SOL    HW1 3604   4.031   1.799   3.803 -1.4467  0.7874 -2.7269
  878SOL    HW2 3605   4.169   1.820   3.745 -1.3391  0.8755 -2.4415
  879SOL     OW 3606   5.212   2.173   3.751  0.0732  0.3878  0.0825
  879SOL    HW1 3607   5.279   2.146   3.814  0.0903  1.1114  0.3804
  879SOL    HW2 3608   5.261   2.213   3.679  0.0529 -0.4188 -0.3988
  880SOL     OW 3609   6.697   3.433   7.338  0.2252 -0.3736  0.3367
  880SOL    HW1 3610   6.666   3.371   7.405  0.9745  1.5017  2.5432
  880SOL    HW2 3611   6.784   3.400   7.315 -0.1025 -1.1289  0.1248
  881SOL     OW 3612   5.416   7.234   2.272 -0.2740  0.1978 -0.7477
  881SOL    HW1 3613   5.349   7.190   2.219 -0.1297 -1.7246  0.5405
  881SOL    HW2 3614   5.454   7.163   2.325 -0.2312  1.9269  1.7101
  882SOL     OW 3615   4.085   3.203   5.488 -0.0324  0.0430 -0.0994
  882SOL    HW1 3616   4.061   3.229   5.399  0.8659 -1.8161 -0.9355
  882SOL    HW2 3617   4.006   3.161   5.522  0.1812 -0.8706 -0.7046
  883SOL     OW 3618   4.021   3.204   1.904 -0.2207 -0.6573 -0.1178
  883SOL    HW1 3619   3.983   3.292   1.902  0.1105 -0.5207 -1.6409
  883SOL    HW2 3620   4.115   3.218   1.904 -0.1370 -0.9665 -1.5810
  884SOL     OW 3621   1.667   1.446   3.435  0.1783  0.4923  0.5211
  884SOL    HW1 3622   1.604   1.411   3.372 -0.9387  1.3615  1.1079
  884SOL    HW2 3623   1.752   1.428   3.397 -0.3342 -2.2835  0.4975
  885SOL     OW 3624   3.471   1.513   6.015  0.3316 -0.1363 -0.1417
  885SOL    HW1 3625   3.391   1.566   6.011 -0.5844 -1.5176 -1.2451
  885SOL    HW2 3626   3.540   1.575   6.038 -1.0594  1.0865  0.9453
  886SOL     OW 3627   3.155   0.247   5.762 -0.2074 -0.3809 -0.0625
  886SOL    HW1 3628   3.173   0.160   5.726  0.5645  0.3038 -1.3958
  886SOL    HW2 3629   3.228   0.301   5.733 -3.3245  2.1837 -4.4714
  887SOL     OW 3630   2.511   1.742   1.477  0.2254  0.3535 -0.0550
  887SOL    HW1 3631   2.533   1.834   1.490  0.8196  0.1588  0.3610
  887SOL    HW2 3632   2.582   1.694   1.520 -1.3686 -0.2905  1.9941
  888SOL     OW 3633   5.463   2.949   4.604 -0.0696 -0.1361  0.7143
  888SOL    HW1 3634   5.491   2.903   4.525  1.3856 -1.2000  1.7900
  888SOL    HW2 3635   5.378   2.912   4.625  1.0328 -2.4048  1.5218
  889SOL     OW 3636   2.575   5.196   2.292  0.1942  0.2872  0.3402
  889SOL    HW1 3637   2.651   5.253   2.277 -0.3009  1.5083  2.1897
  889SOL    HW2 3638   2.613   5.115   2.328  0.7138  0.2755 -0.2034
  890SOL     OW 3639   4.511   4.449   3.064  0.3519  0.1108  0.7376
  890SOL    HW1 3640   4.467   4.365   3.053  0.2582  0.0416  1.5472
  890SOL    HW2 3641   4.571   4.434   3.137  2.5331 -0.1232 -0.9922
  891SOL     OW 3642   4.170   4.180   6.812 -0.1933 -0.1670  0.6353
  891SOL    HW1 3643   4.125   4.247   6.865 -2.0970  0.9496 -2.1374
  891SOL    HW2 3644   4.245   4.154   6.865 -0.7050  2.4329  2.8807
  892SOL     OW 3645   2.848   5.134   7.279 -0.0122  0.1373 -0.1509
  892SOL    HW1 3646   2.769   5.175   7.314 -0.1151  0.8728 -1.2224
  892SOL    HW2 3647   2.817   5.073   7.212  0.3864  1.9330 -2.0730
  893SOL     OW 3648   0.772   0.225   7.362 -0.5801  0.1041  0.3855
  893SOL    HW1 3649   0.747   0.135   7.341  0.5793  0.1581 -1.3976
  893SOL    HW2 3650   0.836   0.217   7.432  1.1870 -0.6656 -1.2436
  894SOL     OW 3651   7.055   5.728   6.921  0.1574  0.3435 -0.4804
  894SOL    HW1 3652   7.044   5.646   6.968  2.3703  0.1119 -0.2885
  894SOL    HW2 3653   7.048   5.704   6.829  0.0115  0.0794 -0.4021
  895SOL     OW 3654   5.119   1.006   1.671  0.7620  0.4636  0.2940
  895SOL    HW1 3655   5.151   0.919   1.649  1.4315  1.1217 -1.5202
  895SOL    HW2 3656   5.122   1.009   1.766  0.9505 -1.4035  0.3869
  896SOL     OW 3657   6.222   5.792   6.792 -0.4416 -0.1661  0.2949
  896SOL    HW1 3658   6.247   5.760   6.878 -1.4158 -0.2769  0.5487
  896SOL    HW2 3659   6.293   5.764   6.734 -0.2611 -0.9561  0.8850
  897SOL     OW 3660   4.865   5.519   3.905 -0.2691 -0.2996  0.4899
  897SOL    HW1 3661   4.935   5.545   3.846  0.7541  0.8271  2.1210
  897SOL    HW2 3662   4.811   5.458   3.854  2.4682 -2.0379 -0.5099
  898SOL     OW 3663   6.926   6.640   1.965  0.0583  0.3706  0.4200
  898SOL    HW1 3664   6.995   6.682   2.015 -0.0677 -1.2605  2.0779
  898SOL    HW2 3665   6.863   6.611   2.031 -1.4398  0.4265 -0.9171
  899SOL     OW 3666   4.964   6.929   0.537  0.0489 -0.2464 -0.7112
  899SOL    HW1 3667   4.955   6.834   0.546  0.9978 -0.4127 -1.3509
  899SOL    HW2 3668   5.042   6.940   0.482 -0.2165  0.8969 -0.8750
  900SOL     OW 3669   7.089   6.058   0.722  0.0775 -0.1035  0.0591
  900SOL    HW1 3670   7.122   6.005   0.650 -1.7991  0.7794 -1.5298
  900SOL    HW2 3671   7.083   6.147   0.686 -2.8164  0.0129  0.5682
  901SOL     OW 3672   1.971   2.635   6.153 -0.0025  0.3359 -0.1169
  901SOL    HW1 3673   1.875   2.636   6.158 -0.0596 -0.6130 -0.7667
  901SOL    HW2 3674   1.991   2.567   6.088  1.1134  0.5228  0.0122
  902SOL     OW 3675   4.106   0.562   1.377  0.3510 -0.5137  1.0010
  902SOL    HW1 3676   4.027   0.544   1.428  0.2987  0.1198  1.1497
  902SOL    HW2 3677   4.174   0.578   1.443  0.0454  1.3928  0.9308
  903SOL     OW 3678   2.481   7.099   2.984 -0.0949  0.4659  0.3814
  903SOL    HW1 3679   2.475   7.097   2.889  0.2470 -1.5923  0.3514
  903SOL    HW2 3680   2.427   7.173   3.010 -0.6251  0.7457 -1.3808
  904SOL     OW 3681   6.072   1.758   6.901  0.3944  0.0206  0.4640
  904SOL    HW1 3682   6.007   1.817   6.863 -0.8628 -1.3007  0.4724
  904SOL    HW2 3683   6.038   1.670   6.884  0.9202 -0.6741  2.6299
  905SOL     OW 3684   4.054   3.857   1.124  0.3708  0.1498  0.5204
  905SOL    HW1 3685   3.959   3.849   1.118  0.3560 -2.4076  2.2785
  905SOL    HW2 3686   4.083   3.871   1.034 -1.5605 -0.5904 -0.2782
  906SOL     OW 3687   1.597   7.338   5.106  0.0872  0.0406 -0.2126
  906SOL    HW1 3688   1.585   7.310   5.015 -0.1683  1.0019 -0.4931
  906SOL    HW2 3689   1.528   7.292   5.154 -1.6406  1.6340 -0.9900
  907SOL     OW 3690   4.844   5.816   3.232 -0.2070 -0.8862  0.0639
  907SOL    HW1 3691   4.867   5.865   3.311  0.8665 -2.9406  1.0918
  907SOL    HW2 3692   4.749   5.825   3.225 -0.4061 -1.1522  1.9583
  908SOL     OW 3693   0.537   6.867   2.390 -0.6417  0.4485 -0.2796
  908SOL    HW1 3694   0.524   6.901   2.479  0.0715 -2.1370  0.9270
  908SOL    HW2 3695   0.458   6.816   2.373 -0.1660 -0.2123 -0.5304
  909SOL     OW 3696   2.672   1.042   3.025  0.1382 -0.2917  0.3012
  909SOL    HW1 3697   2.695   1.134   3.039 -0.0080  0.3902 -3.0668
  909SOL    HW2 3698   2.632   1.041   2.939 -0.9697 -3.3872  0.7561
  910SOL     OW 3699   7.032   3.518   4.008  0.2963  0.1561  0.0886
  910SOL    HW1 3700   6.983   3.445   4.044 -0.5325  0.6951  0.0924
  910SOL    HW2 3701   7.071   3.484   3.927 -0.2807 -0.2183 -0.0330
  911SOL     OW 3702   6.547   2.389   3.502  0.3748 -0.5831  0.0541
  911SOL    HW1 3703   6.566   2.403   3.595 -2.2848 -0.3102  0.6321
  911SOL    HW2 3704   6.510   2.301   3.498  0.5451 -0.6293 -0.7826
  912SOL     OW 3705   4.709   2.231   4.969  0.1449  0.4333 -0.1820
  912SOL    HW1 3706   4.777   2.168   4.946  0.7382  1.4612 -1.3981
  912SOL    HW2 3707   4.757   2.304   5.009 -0.4876  0.2727  0.8870
  913SOL     OW 3708   6.381   4.803   0.308  0.3435  0.4688 -0.1604
  913SOL    HW1 3709   6.363   4.709   0.314 -0.1833  0.6429  1.7245
  913SOL    HW2 3710   6.387   4.832   0.399  1.7698  2.0394 -0.6948
  914SOL     OW 3711   2.115   5.937   6.541 -0.2637  0.0041 -0.8020
  914SOL    HW1 3712   2.205   5.931   6.573 -0.0819 -0.9431 -1.4227
  914SOL    HW2 3713   2.103   6.029   6.518 -0.1860  0.5979  1.2961
  915SOL     OW 3714   4.479   6.001   3.901 -0.1294  0.1162  0.1883
  915SOL    HW1 3715   4.556   6.048   3.869  1.0236 -1.5514  0.3629
  915SOL    HW2 3716   4.481   5.918   3.853 -1.7575 -0.0374  0.3151
  916SOL     OW 3717   5.198   3.267   6.417  0.4818 -0.1843  0.3164
  916SOL    HW1 3718   5.177   3.357   6.392 -0.6828 -0.5735 -0.2019
  916SOL    HW2 3719   5.143   3.213   6.360  0.9564 -1.2169  0.8084
  917SOL     OW 3720   0.893   1.466   6.206  0.1487  0.0635 -0.2063
  917SOL    HW1 3721   0.968   1.421   6.244  1.1297  1.6917 -0.1122
  917SOL    HW2 3722   0.820   1.445   6.264  1.0680  0.4222  1.1156
  918SOL     OW 3723   5.716   2.010   4.906  0.4366  0.0892 -0.6634
  918SOL    HW1 3724   5.660   2.082   4.878  1.6258  1.8318  1.1557
  918SOL    HW2 3725   5.776   1.997   4.832 -0.6210  0.0292 -1.5353
  919SOL     OW 3726   7.256   7.008   7.017  0.2620  0.2756 -0.2345
  919SOL    HW1 3727   7.177   7.062   7.017 -0.3561 -0.5876  0.1759
  919SOL    HW2 3728   7.268   6.982   6.926  0.4249  0.9008 -0.3930
  920SOL     OW 3729   1.785   3.926   2.669  0.5680 -0.1390 -0.2895
  920SOL    HW1 3730   1.729   3.916   2.592  0.5044  0.5288 -0.3343
  920SOL    HW2 3731   1.854   3.861   2.656  0.4019 -0.2254 -0.7736
  921SOL     OW 3732   2.335   1.162   1.793  0.5630  0.0041 -0.4831
  921SOL    HW1 3733   2.319   1.218   1.869  1.1212  0.0740 -0.4114
  921SOL    HW2 3734   2.342   1.223   1.719 -0.5757 -0.1064 -0.6981
  922SOL     OW 3735   2.226   0.540   5.756 -0.2462 -0.0438  0.3894
  922SOL    HW1 3736   2.236   0.599   5.831 -2.4349  2.8838 -1.3740
  922SOL    HW2 3737   2.166   0.472   5.787 -0.4583  0.6452  1.5448
  923SOL     OW 3738   6.032   6.331   5.345 -0.5144 -0.0381  0.5899
  923SOL    HW1 3739   6.019   6.236   5.335 -0.5829 -0.1091  1.3291
  923SOL    HW2 3740   6.032   6.345   5.439  0.5776  0.5594  0.5064
  924SOL     OW 3741   5.429   6.016   4.930  0.1770  0.5132  0.4190
  924SOL    HW1 3742   5.524   6.019   4.920 -0.0060 -0.2462 -2.1338
  924SOL    HW2 3743   5.416   6.002   5.024  2.6859 -2.5244  0.4652
  925SOL     OW 3744   4.242   4.792   2.961 -0.4838 -0.3393  0.6251
  925SOL    HW1 3745   4.318   4.844   2.987 -0.7002 -0.8631  2.4021
  925SOL    HW2 3746   4.246   4.792   2.865  1.2531  0.3643  0.6494
  926SOL     OW 3747   5.848   2.252   2.514 -0.3086  0.8545 -0.0662
  926SOL    HW1 3748   5.939   2.222   2.509 -0.4028  0.7714 -1.9501
  926SOL    HW2 3749   5.847   2.313   2.588  0.3541 -2.0271  2.5712
  927SOL     OW 3750   0.301   4.604   1.831  0.0580  0.2589 -0.4984
  927SOL    HW1 3751   0.363   4.659   1.783  0.3457  1.3069  0.9900
  927SOL    HW2 3752   0.274   4.538   1.768  1.1900  0.9538 -1.7772
  928SOL     OW 3753   5.347   4.360   7.006  0.3498 -0.1161 -0.0610
  928SOL    HW1 3754   5.424   4.401   7.045  0.1761 -0.6809  0.9099
  928SOL    HW2 3755   5.382   4.284   6.959  0.3154 -1.0085  1.2814
  929SOL     OW 3756   7.322   1.635   5.335  0.0178  0.6440  0.3807
  929SOL    HW1 3757   7.284   1.712   5.376  0.4056  0.7924  0.4741
  929SOL    HW2 3758   7.250   1.593   5.289 -0.5105  0.3037  1.4793
  930SOL     OW 3759   5.750   2.480   5.919 -0.2584 -0.2113 -0.0464
  930SOL    HW1 3760   5.693   2.545   5.877  0.3144 -0.3332 -1.0375
  930SOL    HW2 3761   5.743   2.499   6.012 -1.4957  0.1251 -0.1906
  931SOL     OW 3762   1.180   2.611   4.583 -0.0786  0.1916 -0.1857
  931SOL    HW1 3763   1.211   2.701   4.577  0.9168 -0.1816 -0.8370
  931SOL    HW2 3764   1.131   2.597   4.502 -0.4681  0.2271  0.0401
  932SOL     OW 3765   4.073   6.338   4.876  0.0724  0.2134 -0.0067
  932SOL    HW1 3766   4.088   6.315   4.784 -1.0940 -0.7986  0.0282
  932SOL    HW2 3767   3.996   6.287   4.901 -1.1976  2.3674  0.8068
  933SOL     OW 3768   4.492   6.897   7.100 -0.2931  0.4199  0.4521
  933SOL    HW1 3769   4.482   6.953   7.023 -0.0802 -0.3054 -0.1119
  933SOL    HW2 3770   4.410   6.848   7.104 -0.3165  0.4807  0.7040
  934SOL     OW 3771   3.873   5.430   4.354 -0.2106 -0.4149  0.2817
  934SOL    HW1 3772   3.796   5.463   4.306 -0.3832 -0.0790  0.7801
  934SOL    HW2 3773   3.891   5.345   4.314 -0.7859 -0.4543  0.0871
  935SOL     OW 3774   1.437   5.889   3.964 -0.2505  0.1600  0.1230
  935SOL    HW1 3775   1.479   5.886   3.878  0.2888  0.8414  0.3529
  935SOL    HW2 3776   1.364   5.827   3.957 -1.7306  1.9672 -1.6163
  936SOL     OW 3777   6.268   0.499   1.928 -0.2604  0.0417 -0.1028
  936SOL    HW1 3778   6.357   0.524   1.905 -0.4205  0.4154 -0.3288
  936SOL    HW2 3779   6.250   0.546   2.009  0.7114 -2.1559  1.4962
  937SOL     OW 3780   6.400   5.911   2.450  0.4938 -0.4247 -0.1517
  937SOL    HW1 3781   6.338   5.950   2.511  0.2770  0.6187 -1.0149
  937SOL    HW2 3782   6.431   5.832   2.494 -1.5430 -1.0594  0.2463
  938SOL     OW 3783   3.704   0.414   2.581 -0.4018  0.2132 -0.5776
  938SOL    HW1 3784   3.763   0.443   2.511 -0.4536  0.5509 -0.4849
  938SOL    HW2 3785   3.642   0.355   2.538 -1.8337  2.1496 -1.3023
  939SOL     OW 3786   6.626   4.972   5.235  0.0698  0.4854  0.4673
  939SOL    HW1 3787   6.691   4.943   5.298  0.2157  2.2511  1.1975
  939SOL    HW2 3788   6.676   5.022   5.170 -0.2586 -0.1732 -0.3149
  940SOL     OW 3789   4.371   6.001   2.375 -0.0553 -0.3393  0.1311
  940SOL    HW1 3790   4.331   5.998   2.462 -0.9445  0.4518 -0.2380
  940SOL    HW2 3791   4.457   6.042   2.390 -0.4633  0.3818  0.5525
  941SOL     OW 3792   5.182   5.725   0.347  0.0824  0.2893  0.3360
  941SOL    HW1 3793   5.201   5.786   0.419 -2.9552  0.4607  1.1352
  941SOL    HW2 3794   5.208   5.773   0.268  3.5107  0.0981  1.1652
  942SOL     OW 3795   1.118   3.470   4.646  0.0841  0.1605  0.3107
  942SOL    HW1 3796   1.204   3.487   4.609 -0.3964  0.5859 -0.6446
  942SOL    HW2 3797   1.128   3.388   4.695  1.1250  0.4256  0.5661
  943SOL     OW 3798   3.218   5.739   5.628 -0.6856 -0.4440  0.4700
  943SOL    HW1 3799   3.192   5.823   5.591 -0.0402 -0.8306 -0.9228
  943SOL    HW2 3800   3.151   5.678   5.597  0.3603 -0.9469 -0.9092
  944SOL     OW 3801   6.048   0.365   0.678  0.1762 -0.3401 -0.2439
  944SOL    HW1 3802   6.067   0.405   0.763  0.3803 -1.7811  0.4193
  944SOL    HW2 3803   6.116   0.398   0.620  1.3683 -1.0452  0.7066
  945SOL     OW 3804   2.079   2.475   0.372 -0.2225 -0.2390 -0.0200
  945SOL    HW1 3805   2.090   2.416   0.297 -3.1701  1.5384 -2.0650
  945SOL    HW2 3806   1.991   2.457   0.404  0.1633  0.6061  1.6562
  946SOL     OW 3807   5.927   6.286   2.397  0.1570 -0.2652 -0.3549
  946SOL    HW1 3808   5.935   6.202   2.442 -1.9353  0.7584  2.2418
  946SOL    HW2 3809   5.849   6.277   2.342  1.2260 -0.6817 -1.8519
  947SOL     OW 3810   6.608   1.262   5.500  0.4521 -0.5533 -0.1393
  947SOL    HW1 3811   6.670   1.190   5.511  1.7008  0.7823  2.6584
  947SOL    HW2 3812   6.664   1.339   5.490 -0.7294  0.5635  1.3867
  948SOL     OW 3813   0.147   4.498   5.070  0.0638 -0.1665 -0.6570
  948SOL    HW1 3814   0.122   4.434   5.136  1.2310  0.0838  0.0599
  948SOL    HW2 3815   0.071   4.555   5.062 -0.3095 -0.5503  0.0480
  949SOL     OW 3816   0.704   1.574   2.488 -0.0303  0.4875 -0.7366
  949SOL    HW1 3817   0.796   1.560   2.466 -0.2123 -0.0471 -1.1764
  949SOL    HW2 3818   0.673   1.489   2.518 -0.0030  1.0061  0.8838
  950SOL     OW 3819   3.614   6.734   2.678 -0.6495 -0.0997  0.3498
  950SOL    HW1 3820   3.630   6.640   2.676 -0.4674 -0.0730 -1.6989
  950SOL    HW2 3821   3.697   6.772   2.709 -0.1324 -0.5351 -0.4597
  951SOL     OW 3822   1.923   2.021   0.014 -0.0736 -0.9150 -0.1379
  951SOL    HW1 3823   1.910   2.056  -0.074  1.3192 -2.1991 -0.8918
  951SOL    HW2 3824   2.018   2.009   0.022 -0.2626 -1.8528  1.1262
  952SOL     OW 3825   3.879   2.672   0.664 -0.0622 -0.3758  0.9207
  952SOL    HW1 3826   3.821   2.632   0.599  1.4549  0.1318 -0.8269
  952SOL    HW2 3827   3.951   2.609   0.673  0.6521  0.4016  0.7158
  953SOL     OW 3828   3.998   1.460   5.655  0.8337 -0.1788  0.1692
  953SOL    HW1 3829   4.074   1.473   5.712  0.7002  0.8567  0.1307
  953SOL    HW2 3830   3.927   1.438   5.716  0.9201 -0.0753  0.3100
  954SOL     OW 3831   3.040   2.568   2.420 -0.3531  0.3809 -0.2937
  954SOL    HW1 3832   3.001   2.615   2.347  1.1893 -0.2299 -1.5867
  954SOL    HW2 3833   3.085   2.493   2.380 -1.6269 -1.5084  1.5451
  955SOL     OW 3834   4.535   4.184   0.498  0.5592  0.0028 -0.5691
  955SOL    HW1 3835   4.462   4.223   0.546  0.9837 -0.2837  0.3189
  955SOL    HW2 3836   4.613   4.219   0.540  0.9588 -1.6829  0.1931
  956SOL     OW 3837   5.664   0.976   2.661  1.0473 -0.3051  0.0203
  956SOL    HW1 3838   5.594   1.023   2.706  1.3983 -0.3733  0.6497
  956SOL    HW2 3839   5.618   0.910   2.609  0.5896  0.3271 -0.3998
  957SOL     OW 3840   2.683   2.009   5.707 -0.1001  0.0468 -0.4057
  957SOL    HW1 3841   2.601   2.039   5.668  0.0747 -0.3827 -1.1239
  957SOL    HW2 3842   2.713   1.939   5.649  0.8420  0.2814 -0.2164
  958SOL     OW 3843   4.225   1.902   2.202  0.1905  0.0221  0.6976
  958SOL    HW1 3844   4.230   1.807   2.202 -0.2092 -0.1544 -2.8544
  958SOL    HW2 3845   4.137   1.922   2.234  0.3847 -0.7652  1.7447
  959SOL     OW 3846   5.389   1.050   0.379  0.1290 -0.2019 -0.8465
  959SOL    HW1 3847   5.445   1.098   0.440 -0.1757 -0.3514 -0.4501
  959SOL    HW2 3848   5.310   1.103   0.371 -1.0218 -1.5260  1.0572
  960SOL     OW 3849   3.588   5.530   6.417 -0.4075 -0.1300  0.1070
  960SOL    HW1 3850   3.575   5.463   6.349 -1.1342 -0.6108  0.6935
  960SOL    HW2 3851   3.582   5.481   6.499  0.0184  0.5150  0.5280
  961SOL     OW 3852   0.906   1.526   1.725 -0.6535 -0.1152 -0.0265
  961SOL    HW1 3853   0.816   1.508   1.695 -0.8839 -0.9207  1.0573
  961SOL    HW2 3854   0.933   1.603   1.676 -1.0751 -1.2123 -2.1136
  962SOL     OW 3855   7.293   4.632   3.085 -0.1970  0.1816  0.4098
  962SOL    HW1 3856   7.265   4.585   3.006  1.0082  1.0571 -0.5956
  962SOL    HW2 3857   7.227   4.700   3.096 -0.3872  0.0411  0.1499
  963SOL     OW 3858   1.256   4.897   0.479 -0.3449 -0.5406 -0.3702
  963SOL    HW1 3859   1.206   4.815   0.479  0.1247 -0.8273 -0.9747
  963SOL    HW2 3860   1.192   4.963   0.507 -0.6232 -1.1677  0.5489
  964SOL     OW 3861   7.247   2.352   5.354 -0.8673  0.3072 -0.3255
  964SOL    HW1 3862   7.152   2.353   5.355 -0.8852  0.2118 -1.0727
  964SOL    HW2 3863   7.271   2.260   5.357 -0.8389  0.2632 -1.4186
  965SOL     OW 3864   6.558   0.541   2.178  0.0540  0.0443  0.7915
  965SOL    HW1 3865   6.479   0.495   2.205 -0.7074  0.7277 -0.1884
  965SOL    HW2 3866   6.545   0.631   2.208 -0.3658  0.5817 -0.8803
  966SOL     OW 3867   1.636   4.602   7.170 -0.3081 -0.0733  0.3467
  966SOL    HW1 3868   1.607   4.682   7.214  0.0219  0.2545 -0.0176
  966SOL    HW2 3869   1.556   4.557   7.147 -0.4822 -0.3092  1.3893
  967SOL     OW 3870   3.694   5.786   6.096 -0.7880 -0.5656  0.0694
  967SOL    HW1 3871   3.634   5.832   6.155 -0.7942 -1.3156  0.6782
  967SOL    HW2 3872   3.636   5.733   6.040 -0.7229 -1.0340  0.4345
  968SOL     OW 3873   3.823   1.231   1.414  0.4812  0.0472  0.0082
  968SOL    HW1 3874   3.879   1.230   1.491  0.8163  1.9442 -0.1745
  968SOL    HW2 3875   3.742   1.273   1.443  0.1490 -0.3219 -0.3731
  969SOL     OW 3876   3.211   4.502   6.780  0.0317  0.1535 -0.0430
  969SOL    HW1 3877   3.193   4.559   6.706 -0.4450  0.7196  0.4915
  969SOL    HW2 3878   3.209   4.414   6.743  0.0971  0.4420 -0.7542
  970SOL     OW 3879   7.003   4.844   6.709  0.3147 -0.0268  0.3309
  970SOL    HW1 3880   7.076   4.901   6.687  0.0543  0.5153  0.8480
  970SOL    HW2 3881   7.034   4.793   6.784  0.4012 -0.2850  0.1227
  971SOL     OW 3882   6.872   6.485   6.560  0.0532  0.5405 -0.3607
  971SOL    HW1 3883   6.835   6.487   6.648  0.6113  2.8564 -0.1229
  971SOL    HW2 3884   6.802   6.520   6.505  0.5187  1.2804 -0.4862
  972SOL     OW 3885   3.140   5.914   5.234  0.5104  0.3041 -0.1127
  972SOL    HW1 3886   3.156   5.820   5.242  0.4519  0.4000  1.2678
  972SOL    HW2 3887   3.062   5.921   5.178 -0.6314 -0.5585  1.3227
  973SOL     OW 3888   6.114   0.866   0.308 -0.3163 -0.3564 -0.1609
  973SOL    HW1 3889   6.143   0.810   0.237  1.9049 -0.1167  0.5079
  973SOL    HW2 3890   6.171   0.844   0.382 -0.2701  1.8006  0.5124
  974SOL     OW 3891   6.390   7.274   6.937 -0.1463 -0.0344  0.1540
  974SOL    HW1 3892   6.458   7.265   6.871 -0.2560 -0.3674  0.0857
  974SOL    HW2 3893   6.422   7.344   6.994  0.5820 -0.6589  0.5291
  975SOL     OW 3894   0.799   2.133   2.844 -0.2701  0.1229  0.0251
  975SOL    HW1 3895   0.805   2.037   2.845  0.0578  0.1416 -0.2430
  975SOL    HW2 3896   0.850   2.160   2.768 -1.4980  0.4377 -0.7048
  976SOL     OW 3897   5.064   7.108   3.869 -0.0642  0.2173 -0.0975
  976SOL    HW1 3898   5.005   7.035   3.887  0.1731  0.0133 -0.1308
  976SOL    HW2 3899   5.016   7.163   3.807  0.2062 -0.5212 -0.9844
  977SOL     OW 3900   3.565   5.751   0.714  0.5689  0.2183 -0.2636
  977SOL    HW1 3901   3.510   5.778   0.641 -0.3285 -1.3510 -0.1990
  977SOL    HW2 3902   3.558   5.823   0.777  2.5090  2.2984 -2.2193
  978SOL     OW 3903   0.308   1.674   4.148 -0.0639  0.2567  0.0554
  978SOL    HW1 3904   0.236   1.696   4.206 -0.1466  2.0646 -0.6463
  978SOL    HW2 3905   0.266   1.651   4.065  0.1210  1.9029 -0.5384
  979SOL     OW 3906   6.429   4.623   4.821 -0.1508 -0.2536  0.4920
  979SOL    HW1 3907   6.343   4.582   4.823 -0.0598 -0.5136 -0.6300
  979SOL    HW2 3908   6.488   4.556   4.788 -0.1295  0.9464 -2.1232
  980SOL     OW 3909   5.608   3.575   2.317  0.1936 -0.2933 -0.0880
  980SOL    HW1 3910   5.543   3.520   2.274 -0.1969  1.2425 -1.5934
  980SOL    HW2 3911   5.692   3.544   2.283 -0.1045  0.9043 -2.1373
  981SOL     OW 3912   4.493   3.562   6.170  0.1621 -0.1320  0.2333
  981SOL    HW1 3913   4.424   3.500   6.147  1.2691 -0.9401 -1.0254
  981SOL    HW2 3914   4.449   3.648   6.169 -0.8265 -0.6219 -0.4896
  982SOL     OW 3915   3.568   3.257   5.497  0.0077  0.1781  0.0742
  982SOL    HW1 3916   3.547   3.172   5.458  1.3375  0.1148 -0.5298
  982SOL    HW2 3917   3.482   3.296   5.514 -0.6238 -0.9889 -0.2676
  983SOL     OW 3918   6.788   3.471   1.876  0.2221 -0.0889 -0.1701
  983SOL    HW1 3919   6.774   3.379   1.896 -0.5106  0.1801  0.6180
  983SOL    HW2 3920   6.732   3.488   1.801  0.2968 -0.2669 -0.2658
  984SOL     OW 3921   2.569   0.486   5.975  0.1985  0.2598 -0.7710
  984SOL    HW1 3922   2.497   0.467   6.036  0.6533  1.1504  0.0604
  984SOL    HW2 3923   2.586   0.579   5.987  0.7122  0.3055 -1.8217
  985SOL     OW 3924   2.366   1.164   1.001 -0.0935  0.0224  0.0774
  985SOL    HW1 3925   2.319   1.177   1.084 -2.3839 -0.1854 -1.1120
  985SOL    HW2 3926   2.300   1.129   0.942  2.2402 -3.0083 -0.9799
  986SOL     OW 3927   4.692   1.080   4.670  0.4472 -0.1699 -0.2156
  986SOL    HW1 3928   4.768   1.059   4.616 -0.1777 -2.6252 -0.2416
  986SOL    HW2 3929   4.617   1.061   4.614 -0.2015  0.0782  0.5501
  987SOL     OW 3930   2.034   6.271   0.939  0.2425 -0.0406 -0.4901
  987SOL    HW1 3931   2.075   6.358   0.939 -0.3760  0.2531 -0.6679
  987SOL    HW2 3932   2.099   6.214   0.897  0.6283  0.3465 -0.4213
  988SOL     OW 3933   0.035   5.039   5.455  0.3804 -0.0447  0.2545
  988SOL    HW1 3934  -0.028   4.972   5.427 -2.0901  2.7093 -1.2733
  988SOL    HW2 3935   0.060   5.013   5.544 -0.1930 -3.0965 -0.3790
  989SOL     OW 3936   4.357   0.001   3.976  0.2106  0.4437 -0.4109
  989SOL    HW1 3937   4.364   0.091   3.945 -1.5398  0.2717 -1.4185
  989SOL    HW2 3938   4.427  -0.046   3.931 -0.1501  0.9031 -1.4835
  990SOL     OW 3939   4.700   7.238   5.054 -0.0528  0.1191  0.0838
  990SOL    HW1 3940   4.705   7.145   5.030 -0.5503 -0.2867  1.4456
  990SOL    HW2 3941   4.682   7.283   4.972  0.3238 -0.9742 -0.6222
  991SOL     OW 3942   2.709   1.208   6.463  0.1788  0.8586 -0.1922
  991SOL    HW1 3943   2.659   1.171   6.535 -0.5015 -1.1392 -1.6137
  991SOL    HW2 3944   2.785   1.151   6.454  0.6303  1.5054 -0.6186
  992SOL     OW 3945   2.055   6.406   3.292  0.2847 -0.3040 -0.1704
  992SOL    HW1 3946   2.138   6.426   3.248 -0.0209 -0.2713 -0.7387
  992SOL    HW2 3947   2.069   6.435   3.382  1.1542 -0.9923 -0.0679
  993SOL     OW 3948   6.172   0.848   3.760  0.3440 -0.7312 -0.4761
  993SOL    HW1 3949   6.175   0.760   3.723 -1.4731 -2.0011  2.0710
  993SOL    HW2 3950   6.147   0.835   3.852  1.5803  2.3611  0.4641
  994SOL     OW 3951   3.951   6.322   3.739  0.0539 -0.7807 -0.5414
  994SOL    HW1 3952   4.016   6.385   3.709 -1.0095  0.9347  0.5857
  994SOL    HW2 3953   3.985   6.292   3.824 -2.7742  4.1714  2.9281
  995SOL     OW 3954   0.389   4.609   0.807  0.4336 -0.7346  0.4777
  995SOL    HW1 3955   0.354   4.639   0.723 -3.0619 -0.1660  1.9375
  995SOL    HW2 3956   0.438   4.530   0.786 -1.1743 -1.1706 -2.0203
  996SOL     OW 3957   5.958   0.363   1.029  0.0293 -0.5039  0.3765
  996SOL    HW1 3958   5.961   0.436   1.091  1.0774  0.3707 -0.6671
  996SOL    HW2 3959   6.023   0.301   1.062  0.9870  0.2086 -0.1126
  997SOL     OW 3960   4.596   1.248   1.617 -0.5257  0.0702  0.5472
  997SOL    HW1 3961   4.543   1.328   1.615 -2.2236 -1.0134  0.3511
  997SOL    HW2 3962   4.680   1.274   1.578 -1.6209  1.3756 -1.0667
  998SOL     OW 3963   1.364   3.611   1.724  0.6729 -0.5372  0.3806
  998SOL    HW1 3964   1.340   3.696   1.686  0.4224 -0.4449  0.7395
  998SOL    HW2 3965   1.295   3.551   1.694  1.4413 -0.8675 -0.7856
  999SOL     OW 3966   2.869   1.338   1.440  0.2553 -0.1064  0.2226
  999SOL    HW1 3967   2.875   1.247   1.467  0.3633  0.0038  0.5767
  999SOL    HW2 3968   2.941   1.382   1.485 -0.2179  0.2855  0.6241
 1000SOL     OW 3969   5.013   3.568   1.295 -0.4086 -0.5161 -0.5684
 1000SOL    HW1 3970   4.931   3.553   1.248 -1.3594 -1.5203  1.3127
 1000SOL    HW2 3971   4.988   3.573   1.387  1.5062  0.4350 -0.0466
 1001SOL     OW 3972   2.742   1.516   4.838  0.7026 -0.5659  0.3571
 1001SOL    HW1 3973   2.654   1.551   4.824  2.2121  3.6113 -0.1591
 1001SOL    HW2 3974   2.778   1.507   4.750  1.0283 -1.7247  0.5931
 1002SOL     OW 3975   6.047   3.656   0.245  0.1905  0.3589 -0.5870
 1002SOL    HW1 3976   5.982   3.719   0.274  0.8447  1.6834 -1.8549
 1002SOL    HW2 3977   6.130   3.703   0.251  0.8038 -0.6563 -0.8045
 1003SOL     OW 3978   3.757   5.031   5.082 -0.3716 -0.2707  0.0049
 1003SOL    HW1 3979   3.851   5.032   5.100  0.0049  0.2107 -1.7740
 1003SOL    HW2 3980   3.744   4.956   5.024 -0.9160  0.2521 -0.5612
 1004SOL     OW 3981   0.759   2.167   2.447 -0.0326 -0.1430 -0.8002
 1004SOL    HW1 3982   0.837   2.193   2.495  1.0279 -0.2187 -2.3863
 1004SOL    HW2 3983   0.728   2.247   2.405 -0.0260 -0.3518 -1.2168
 1005SOL     OW 3984   5.941   1.465   1.467  0.0645  0.1399 -0.2610
 1005SOL    HW1 3985   5.946   1.376   1.500 -1.7077  0.1497  0.1268
 1005SOL    HW2 3986   5.889   1.459   1.387  1.6573  0.5651 -1.3759
 1006SOL     OW 3987   1.074   7.168   3.377  0.0210 -0.4057  0.2209
 1006SOL    HW1 3988   0.986   7.186   3.411  0.4882 -0.3187  1.4244
 1006SOL    HW2 3989   1.086   7.074   3.390  0.3230 -0.3164  0.6250
 1007SOL     OW 3990   5.688   5.262   5.496  0.5011  0.1314 -0.2471
 1007SOL    HW1 3991   5.763   5.295   5.445  0.9773  1.8603  1.4603
 1007SOL    HW2 3992   5.652   5.340   5.538 -0.3945 -1.1113  1.3658
 1008SOL     OW 3993   3.965   2.303   0.430 -0.0254  0.2646  0.6549
 1008SOL    HW1 3994   3.988   2.293   0.337 -0.6021  0.4059  0.4918
 1008SOL    HW2 3995   3.875   2.336   0.429 -0.8779 -1.8193  1.2651
 1009SOL     OW 3996   4.529   0.060   1.096  0.4890 -0.2176  0.3475
 1009SOL    HW1 3997   4.603   0.019   1.053  1.0758 -0.0896  1.2114
 1009SOL    HW2 3998   4.489   0.114   1.028  0.3475 -1.3551 -0.4999
 1010SOL     OW 3999   1.187   6.715   4.388  0.0419  0.4884 -0.4388
 1010SOL    HW1 4000   1.149   6.797   4.417 -0.8732  0.3622 -1.2339
 1010SOL    HW2 4001   1.119   6.649   4.405  0.5464 -0.0153 -0.3331
 1011SOL     OW 4002   1.432   1.161   2.174  0.4579 -0.0866 -0.0779
 1011SOL    HW1 4003   1.392   1.169   2.260 -1.5376  0.0399 -0.9645
 1011SOL    HW2 4004   1.424   1.068   2.152 -0.1087  0.0702 -0.5809
 1012SOL     OW 4005   5.014   7.114   4.233  0.7415  0.1026  0.0292
 1012SOL    HW1 4006   5.031   7.183   4.170  1.2714  1.7435  1.8673
 1012SOL    HW2 4007   4.969   7.158   4.305  0.1779 -1.6859  0.8222
 1013SOL     OW 4008   2.548   4.015   0.559 -0.0841  0.1618 -0.3029
 1013SOL    HW1 4009   2.457   3.989   0.543  0.4039 -1.7210 -0.2236
 1013SOL    HW2 4010   2.545   4.067   0.639 -1.0118 -0.4195  0.0522
 1014SOL     OW 4011   4.836   6.569   5.881 -0.2199 -0.0018 -0.0216
 1014SOL    HW1 4012   4.895   6.540   5.811  0.3886 -0.1222  0.5368
 1014SOL    HW2 4013   4.749   6.570   5.840  0.2862  1.1624 -1.1491
 1015SOL     OW 4014   5.944   5.942   5.129  0.3631 -0.6587  0.6195
 1015SOL    HW1 4015   5.893   5.978   5.201 -0.4584 -0.7811  0.1095
 1015SOL    HW2 4016   6.004   6.013   5.104  0.6158 -0.6003  1.3766
 1016SOL     OW 4017   2.071   4.592   0.704 -0.1574 -0.0309 -0.5288
 1016SOL    HW1 4018   2.053   4.634   0.620  0.7309 -0.0684 -0.7495
 1016SOL    HW2 4019   2.127   4.654   0.750 -0.0109 -0.3466 -0.2807
 1017SOL     OW 4020   1.094   0.049   3.610 -0.8379 -0.1485  0.2214
 1017SOL    HW1 4021   1.159   0.049   3.540  1.8882 -1.0527  2.5684
 1017SOL    HW2 4022   1.032   0.117   3.585 -0.0422 -0.4555 -3.0413
 1018SOL     OW 4023   6.827   7.329   7.120  0.9055 -0.6743 -0.2394
 1018SOL    HW1 4024   6.783   7.276   7.186  0.6930 -0.4965 -0.2372
 1018SOL    HW2 4025   6.769   7.324   7.044 -0.8344  2.1637  0.7376
 1019SOL     OW 4026   6.638   3.881   6.497  0.2598  0.3605 -0.5913
 1019SOL    HW1 4027   6.641   3.787   6.484  0.6659  0.2622  0.1342
 1019SOL    HW2 4028   6.729   3.905   6.515 -0.0792  0.6218  0.9140
 1020SOL     OW 4029   2.309   5.145   0.772 -0.0484 -0.1654 -0.3686
 1020SOL    HW1 4030   2.402   5.152   0.795  0.1353  1.1368 -1.3911
 1020SOL    HW2 4031   2.263   5.184   0.846  0.1052 -1.8683  0.6862
 1021SOL     OW 4032   6.970   5.256   1.822  0.3148  0.2269 -0.2225
 1021SOL    HW1 4033   6.910   5.289   1.755 -2.1803 -1.5356  0.9763
 1021SOL    HW2 4034   6.949   5.163   1.830  1.9635 -0.0599  1.5681
 1022SOL     OW 4035   3.506   5.855   6.329 -0.1173  0.2291 -0.2415
 1022SOL    HW1 4036   3.416   5.847   6.296 -0.1195  2.0091 -0.8177
 1022SOL    HW2 4037   3.526   5.948   6.318  2.1525 -0.2952 -1.0763
 1023SOL     OW 4038   2.978   0.138   1.465  0.3126 -0.0054 -0.1857
 1023SOL    HW1 4039   3.064   0.180   1.457  1.0730 -0.8809  2.3905
 1023SOL    HW2 4040   2.996   0.045   1.452 -0.5330 -0.0569 -1.0889
 1024SOL     OW 4041   3.587   4.325   2.821 -0.1245 -0.1405 -0.3007
 1024SOL    HW1 4042   3.515   4.376   2.856  0.1440 -0.1186  0.2305
 1024SOL    HW2 4043   3.618   4.374   2.745 -0.9760 -0.3954 -0.8255
 1025SOL     OW 4044   4.760   1.921   3.439 -0.2308  0.1647 -0.3938
 1025SOL    HW1 4045   4.759   1.981   3.513 -1.7442  2.8359 -2.4247
 1025SOL    HW2 4046   4.825   1.957   3.379  1.0735 -2.0233 -0.4234
 1026SOL     OW 4047   1.580   0.008   5.663  0.1174 -0.0382  0.0489
 1026SOL    HW1 4048   1.627  -0.052   5.605 -0.8268  0.8016 -1.6501
 1026SOL    HW2 4049   1.503  -0.041   5.692  0.9909 -0.7383  1.3020
 1027SOL     OW 4050   2.863   3.616   0.283  0.0024  0.0261  0.0603
 1027SOL    HW1 4051   2.915   3.550   0.236  0.1746  0.2920 -0.1239
 1027SOL    HW2 4052   2.773   3.584   0.277 -0.1021  0.5117 -1.2253
 1028SOL     OW 4053   0.672   3.944   0.386 -0.4824 -0.0056 -0.1430
 1028SOL    HW1 4054   0.596   3.917   0.335 -1.8281 -0.4376  1.9378
 1028SOL    HW2 4055   0.747   3.910   0.337 -1.7703 -1.8304 -0.9819
 1029SOL     OW 4056   1.520   4.093   4.720 -0.0832  0.7198 -0.4245
 1029SOL    HW1 4057   1.539   4.158   4.652 -1.5597 -0.9493 -2.5576
 1029SOL    HW2 4058   1.606   4.071   4.756  0.8013  1.4399 -1.9776
 1030SOL     OW 4059   5.285   6.222   3.311 -0.3373 -0.5995 -0.1159
 1030SOL    HW1 4060   5.190   6.236   3.314 -0.2446 -0.0754  1.0607
 1030SOL    HW2 4061   5.321   6.310   3.297  0.0435 -0.4198  1.7581
 1031SOL     OW 4062   3.823   0.884   6.240  0.3757  0.1535  0.4120
 1031SOL    HW1 4063   3.794   0.973   6.221 -0.6508 -0.1760  0.4190
 1031SOL    HW2 4064   3.776   0.829   6.178  1.5337 -0.3317 -0.0733
 1032SOL     OW 4065   1.420   0.478   3.699  0.6146  0.1093  0.0937
 1032SOL    HW1 4066   1.408   0.486   3.604 -1.4112  0.0527  0.3060
 1032SOL    HW2 4067   1.421   0.568   3.731 -0.2087  0.1025  0.1600
 1033SOL     OW 4068   6.740   6.156   2.614  0.3297  0.1903 -0.6540
 1033SOL    HW1 4069   6.819   6.171   2.563  0.5911  0.3203 -0.2173
 1033SOL    HW2 4070   6.772   6.128   2.700 -0.0813  0.9796 -0.2382
 1034SOL     OW 4071   2.317   2.472   4.768 -0.3403  0.0810 -0.3263
 1034SOL    HW1 4072   2.327   2.469   4.864  0.6788 -0.2207 -0.4295
 1034SOL    HW2 4073   2.405   2.456   4.735 -0.7164  0.0508 -1.3261
 1035SOL     OW 4074   5.410   5.939   1.604  0.2721 -0.2458  0.3718
 1035SOL    HW1 4075   5.471   5.980   1.666  0.6557 -0.0114 -0.1495
 1035SOL    HW2 4076   5.340   6.003   1.594  1.5057  0.8964 -1.4278
 1036SOL     OW 4077   6.574   4.593   5.877  0.5708  0.0375  0.1022
 1036SOL    HW1 4078   6.509   4.571   5.810 -0.5777  0.3770  1.0838
 1036SOL    HW2 4079   6.644   4.529   5.863 -0.1906 -0.6651 -0.6502
 1037SOL     OW 4080   3.368   6.604   1.757 -0.4044  0.0892  0.3636
 1037SOL    HW1 4081   3.409   6.584   1.673 -1.3952 -0.5796  0.0259
 1037SOL    HW2 4082   3.352   6.518   1.797 -2.8017  0.2304 -0.1690
 1038SOL     OW 4083   5.132   4.164   6.351  0.0320 -0.2085 -0.1112
 1038SOL    HW1 4084   5.125   4.179   6.445 -0.0115  0.6587 -0.2469
 1038SOL    HW2 4085   5.043   4.145   6.322 -0.1114  0.4851 -0.1334
 1039SOL     OW 4086   6.937   5.828   4.204 -0.6832  0.6603 -0.3296
 1039SOL    HW1 4087   6.979   5.829   4.118  0.4073 -0.5490  0.1650
 1039SOL    HW2 4088   6.899   5.741   4.212 -1.1781  0.9197  0.2250
 1040SOL     OW 4089   0.665   6.264   6.783  0.3008  0.0769  0.1859
 1040SOL    HW1 4090   0.720   6.225   6.716  3.0352  0.0358  2.2944
 1040SOL    HW2 4091   0.670   6.359   6.767 -1.2065 -0.0202 -1.1408
 1041SOL     OW 4092   2.473   3.485   1.801 -0.1781 -0.3299  0.5769
 1041SOL    HW1 4093   2.491   3.571   1.763  1.6002 -0.5048  0.9684
 1041SOL    HW2 4094   2.490   3.495   1.894  1.1358 -1.3608  0.4800
 1042SOL     OW 4095   1.619   6.195   1.536  0.1625  0.3057 -0.4307
 1042SOL    HW1 4096   1.710   6.197   1.505  0.5235  0.5026  0.5858
 1042SOL    HW2 4097   1.625   6.156   1.623 -0.6978  0.5799 -0.2432
 1043SOL     OW 4098   4.136   2.389   5.847  0.0399  0.1281  0.0831
 1043SOL    HW1 4099   4.215   2.390   5.792  0.8627  0.2829  1.2387
 1043SOL    HW2 4100   4.076   2.332   5.799  1.1847 -0.7530 -0.3845
 1044SOL     OW 4101   6.479   6.337   6.343  0.3448 -0.1587 -1.1895
 1044SOL    HW1 4102   6.514   6.301   6.262  0.3967  0.4382 -1.4357
 1044SOL    HW2 4103   6.449   6.260   6.392 -1.2931 -0.4340 -2.5222
 1045SOL     OW 4104   5.424   2.921   0.873 -0.2943  0.4711 -0.7856
 1045SOL    HW1 4105   5.414   2.834   0.834  2.6345  0.2000 -1.1474
 1045SOL    HW2 4106   5.443   2.979   0.799  3.9752  0.1865 -0.1794
 1046SOL     OW 4107   0.612   0.403   4.935  0.2104  0.1251  0.0045
 1046SOL    HW1 4108   0.556   0.381   5.009  2.6324 -1.5132  1.4894
 1046SOL    HW2 4109   0.683   0.455   4.974  0.9854  0.1444 -1.3743
 1047SOL     OW 4110   7.151   0.120   1.381  0.3683 -0.1473 -0.6157
 1047SOL    HW1 4111   7.201   0.190   1.340  1.7478  0.2873  1.6047
 1047SOL    HW2 4112   7.060   0.142   1.364  0.8151 -0.3963 -3.9038
 1048SOL     OW 4113   6.418   4.526   2.240  0.3222 -0.5207 -0.5086
 1048SOL    HW1 4114   6.337   4.529   2.290  0.1776 -0.9760 -0.7116
 1048SOL    HW2 4115   6.478   4.584   2.288 -0.0040 -0.4722 -0.1531
 1049SOL     OW 4116   4.963   0.715   6.162  0.3185 -0.8085  0.0311
 1049SOL    HW1 4117   4.885   0.729   6.217  0.5977  0.3089  0.1789
 1049SOL    HW2 4118   5.026   0.781   6.193  1.0563 -1.2094 -0.5790
 1050SOL     OW 4119   1.860   7.126   1.759  0.2592 -0.8938 -0.3944
 1050SOL    HW1 4120   1.808   7.063   1.710  0.4964 -0.0044 -1.8278
 1050SOL    HW2 4121   1.796   7.171   1.815 -0.3959 -0.3961 -1.5184
 1051SOL     OW 4122   4.164   3.691   2.321  0.6032  0.0346 -0.3454
 1051SOL    HW1 4123   4.224   3.669   2.250 -0.7378 -0.2590 -1.4199
 1051SOL    HW2 4124   4.175   3.785   2.334  2.1855 -0.2208  0.3410
 1052SOL     OW 4125   1.355   4.801   2.648  0.0762 -0.1169 -0.2417
 1052SOL    HW1 4126   1.384   4.892   2.638 -0.5107  0.0808 -0.1598
 1052SOL    HW2 4127   1.329   4.774   2.559 -0.1333 -0.0729 -0.1940
 1053SOL     OW 4128   5.264   5.304   1.375  0.6380 -0.3627  0.4470
 1053SOL    HW1 4129   5.179   5.263   1.385 -0.4193  1.3692 -0.8461
 1053SOL    HW2 4130   5.282   5.342   1.461 -0.5845  0.4470  0.3669
 1054SOL     OW 4131   4.466   5.748   5.703  0.4012  0.3019 -0.0053
 1054SOL    HW1 4132   4.403   5.780   5.767  0.0030  1.7253 -1.0517
 1054SOL    HW2 4133   4.539   5.810   5.707  1.2396 -0.6778  0.3874
 1055SOL     OW 4134   6.034   5.234   1.209 -0.3012  0.2130 -0.4839
 1055SOL    HW1 4135   5.942   5.252   1.191 -0.4754 -0.1180  0.0386
 1055SOL    HW2 4136   6.062   5.305   1.267  0.1916  1.1422 -1.8111
 1056SOL     OW 4137   6.539   5.744   0.441 -0.1631 -0.1857  0.1601
 1056SOL    HW1 4138   6.555   5.835   0.463 -1.4830 -0.1425  1.0040
 1056SOL    HW2 4139   6.606   5.723   0.376  0.7899  1.0778  0.7006
 1057SOL     OW 4140   3.448   7.174   0.024  0.1352 -0.5914 -0.0394
 1057SOL    HW1 4141   3.365   7.129   0.042  0.7483 -0.7094  3.0037
 1057SOL    HW2 4142   3.510   7.103   0.009  0.5563 -0.7797  2.2060
 1058SOL     OW 4143   1.153   0.059   4.930  0.0535 -0.4601  0.0686
 1058SOL    HW1 4144   1.089   0.122   4.895  0.4846 -0.6818 -1.1355
 1058SOL    HW2 4145   1.125   0.045   5.020 -1.3025 -0.1627 -0.2875
 1059SOL     OW 4146   1.732   6.998   0.419 -0.8284 -0.2423 -0.7047
 1059SOL    HW1 4147   1.671   6.933   0.383  0.6305 -1.1533 -1.6479
 1059SOL    HW2 4148   1.817   6.956   0.415 -0.0382  1.2015  0.0546
 1060SOL     OW 4149   2.050   5.011   6.760 -0.1460  0.2342 -0.2413
 1060SOL    HW1 4150   2.056   5.094   6.713 -1.1245 -0.6070 -1.9511
 1060SOL    HW2 4151   1.956   4.996   6.768 -0.0005 -1.3483 -1.1740
 1061SOL     OW 4152   6.349   6.759   1.218  0.0249 -0.3496 -0.8898
 1061SOL    HW1 4153   6.294   6.745   1.141 -0.9415 -0.0698 -0.2684
 1061SOL    HW2 4154   6.291   6.803   1.281  0.4154 -1.7068  0.4771
 1062SOL     OW 4155   5.850   3.607   3.780  0.3037 -0.0416  0.7837
 1062SOL    HW1 4156   5.939   3.638   3.759  0.2299 -0.4498 -0.1609
 1062SOL    HW2 4157   5.854   3.512   3.768 -0.3373 -0.0285  0.4431
 1063SOL     OW 4158   5.134   5.573   5.020  0.1683  0.4982 -0.1672
 1063SOL    HW1 4159   5.048   5.578   5.059  0.6307 -2.3221  1.4511
 1063SOL    HW2 4160   5.133   5.492   4.970  1.4707  1.1248 -1.2861
 1064SOL     OW 4161   4.613   2.561   5.813 -0.0403  0.2024  0.3217
 1064SOL    HW1 4162   4.692   2.514   5.787  0.2889  0.7910  0.2369
 1064SOL    HW2 4163   4.606   2.633   5.751 -0.6307  0.1781  0.3479
 1065SOL     OW 4164   4.338   0.435   1.174 -0.3224  0.2519 -0.6093
 1065SOL    HW1 4165   4.284   0.497   1.126  2.4659  2.1879 -1.5088
 1065SOL    HW2 4166   4.419   0.430   1.123  1.2655 -0.6503  1.8436
 1066SOL     OW 4167   1.915   3.257   6.434  0.2181  0.9399  0.0045
 1066SOL    HW1 4168   1.884   3.347   6.434  0.7829  1.2063  2.3852
 1066SOL    HW2 4169   1.838   3.205   6.409 -0.5015  1.9773 -0.0105
 1067SOL     OW 4170   0.132   6.473   4.915  0.0278 -0.2325 -0.3685
 1067SOL    HW1 4171   0.227   6.466   4.917  0.0531 -0.0234  2.2326
 1067SOL    HW2 4172   0.101   6.396   4.964 -0.9497  1.4141  1.7374
 1068SOL     OW 4173   2.905   6.557   1.356  0.3920  0.0979  0.1012
 1068SOL    HW1 4174   2.996   6.561   1.385  0.7770  1.0824 -1.1410
 1068SOL    HW2 4175   2.905   6.494   1.284  0.5832  1.7381 -1.4009
 1069SOL     OW 4176   6.557   3.294   1.626 -0.5785 -0.0597 -0.8048
 1069SOL    HW1 4177   6.598   3.377   1.601 -1.2234 -0.2202 -2.5509
 1069SOL    HW2 4178   6.615   3.258   1.693  0.9115  0.7734 -1.5839
 1070SOL     OW 4179   3.689   3.551   2.962  0.8207  0.6048  0.1579
 1070SOL    HW1 4180   3.642   3.469   2.944  1.5191  0.4552 -1.1078
 1070SOL    HW2 4181   3.685   3.561   3.057  0.7707 -0.9238  0.3367
 1071SOL     OW 4182   2.781   0.252   6.779  0.1297 -0.0492 -0.0184
 1071SOL    HW1 4183   2.751   0.172   6.822  0.4085  0.1151  0.4927
 1071SOL    HW2 4184   2.734   0.322   6.823  0.1589  0.0978 -0.2173
 1072SOL     OW 4185   5.787   5.730   3.394  0.1752 -0.2036 -0.0759
 1072SOL    HW1 4186   5.741   5.811   3.414 -0.3003 -0.4997  0.0468
 1072SOL    HW2 4187   5.775   5.676   3.472  2.4801  0.4670  0.8385
 1073SOL     OW 4188   3.225   6.362   3.023  0.0610  0.1204  0.1494
 1073SOL    HW1 4189   3.228   6.276   3.066 -0.5612  0.9998  2.0440
 1073SOL    HW2 4190   3.133   6.388   3.027  0.2501  0.8909 -0.3729
 1074SOL     OW 4191   6.789   2.515   1.496  0.7341 -0.7609  0.0699
 1074SOL    HW1 4192   6.815   2.538   1.407 -1.4927 -1.7331 -0.9139
 1074SOL    HW2 4193   6.842   2.438   1.517  0.9907 -0.7723 -0.5932
 1075SOL     OW 4194   0.793   1.985   1.157 -0.0207 -0.2772  0.3480
 1075SOL    HW1 4195   0.753   1.968   1.072  1.5837 -1.0988 -0.2964
 1075SOL    HW2 4196   0.791   2.080   1.167 -0.9523 -0.2296 -0.2307
 1076SOL     OW 4197   4.889   1.663   1.023 -0.7411  0.1470 -1.0386
 1076SOL    HW1 4198   4.907   1.603   1.096  0.0950  1.1072 -0.4366
 1076SOL    HW2 4199   4.864   1.605   0.951  0.3565 -0.9608 -0.5667
 1077SOL     OW 4200   6.670   1.782   2.504  0.1491 -0.0202 -0.5754
 1077SOL    HW1 4201   6.731   1.855   2.508 -2.2790  2.1215  1.0397
 1077SOL    HW2 4202   6.615   1.801   2.428 -0.4012 -0.2210 -0.2355
 1078SOL     OW 4203   2.065   4.540   6.601  0.4915 -0.0360  0.4091
 1078SOL    HW1 4204   2.129   4.579   6.660  0.5686 -0.0843  0.3577
 1078SOL    HW2 4205   2.047   4.609   6.536 -0.3368  0.3699  1.0566
 1079SOL     OW 4206   2.960   2.296   5.159 -0.8634 -0.5142  0.2752
 1079SOL    HW1 4207   3.045   2.340   5.171  0.9067 -3.7746  0.9774
 1079SOL    HW2 4208   2.949   2.291   5.064 -1.0244  1.1979  0.1811
 1080SOL     OW 4209   0.184   0.132   2.396  0.3220 -0.0523 -0.1088
 1080SOL    HW1 4210   0.124   0.059   2.408  0.1596  0.3539  1.9954
 1080SOL    HW2 4211   0.210   0.128   2.304 -0.4408 -2.1475 -0.2715
 1081SOL     OW 4212   1.012   7.216   4.599 -0.1840  0.2214 -0.3705
 1081SOL    HW1 4213   1.041   7.307   4.591 -0.2448  0.2090 -0.7445
 1081SOL    HW2 4214   0.940   7.208   4.536 -1.4807  0.4424  1.0047
 1082SOL     OW 4215   7.251   1.404   0.257 -0.3419  0.6253  0.1228
 1082SOL    HW1 4216   7.298   1.448   0.327 -0.5714 -2.0410  2.1101
 1082SOL    HW2 4217   7.179   1.464   0.236  1.0119  2.4969  0.5295
 1083SOL     OW 4218   1.500   1.005   0.758  0.0139 -0.3007  0.5537
 1083SOL    HW1 4219   1.575   1.053   0.725 -0.9631  2.3115  1.8603
 1083SOL    HW2 4220   1.448   0.983   0.681 -0.3957  2.4099 -0.0211
 1084SOL     OW 4221   0.480   0.434   2.369 -0.1150  0.0923 -0.3444
 1084SOL    HW1 4222   0.446   0.390   2.291 -1.8224  0.2641  0.2657
 1084SOL    HW2 4223   0.413   0.499   2.391  0.4596  0.2254  1.1186
 1085SOL     OW 4224   0.606   3.593   0.736  0.0723  0.1655  0.0771
 1085SOL    HW1 4225   0.657   3.608   0.815  0.8465  1.2217 -0.5828
 1085SOL    HW2 4226   0.641   3.513   0.698 -0.9763 -0.9041  1.2878
 1086SOL     OW 4227   4.473   5.534   3.146  0.6370  0.2485 -0.0228
 1086SOL    HW1 4228   4.411   5.523   3.218 -0.9972  0.0275 -1.3930
 1086SOL    HW2 4229   4.559   5.514   3.184 -0.3469 -1.3554  1.4839
 1087SOL     OW 4230   2.378   6.170   5.087 -0.0184  0.6797  0.4763
 1087SOL    HW1 4231   2.385   6.156   5.182  1.7687  1.1683  0.4499
 1087SOL    HW2 4232   2.437   6.104   5.049 -0.8931  0.3435 -0.3243
 1088SOL     OW 4233   5.361   3.698   3.685  0.2216  0.0181  0.0626
 1088SOL    HW1 4234   5.454   3.715   3.668 -0.1391  1.4939 -0.6018
 1088SOL    HW2 4235   5.346   3.732   3.773  0.3333 -0.3307  0.2174
 1089SOL     OW 4236   2.722   7.088   3.126 -0.0509 -0.5174  0.2786
 1089SOL    HW1 4237   2.642   7.094   3.072 -0.2847 -2.1366  0.4011
 1089SOL    HW2 4238   2.793   7.091   3.062 -0.1470  1.3887  0.1972
 1090SOL     OW 4239   3.642   4.978   7.323 -0.1733 -0.2459  0.1859
 1090SOL    HW1 4240   3.574   5.026   7.275 -0.3718  0.3431  1.0360
 1090SOL    HW2 4241   3.595   4.910   7.370  0.0614 -1.0320 -0.6934
 1091SOL     OW 4242   5.537   0.956   3.065 -0.0012 -0.0286 -0.3405
 1091SOL    HW1 4243   5.459   0.902   3.058 -0.5006  0.5052  0.7873
 1091SOL    HW2 4244   5.542   1.003   2.982 -2.2866  1.7441  0.4114
 1092SOL     OW 4245   2.554   0.749   6.026 -0.2879  0.4874 -0.8506
 1092SOL    HW1 4246   2.602   0.770   6.106 -2.2291  1.7259  0.0729
 1092SOL    HW2 4247   2.560   0.827   5.972 -0.6282  0.3898 -1.0394
 1093SOL     OW 4248   3.972   4.472   5.919  0.1070  0.4200  0.2437
 1093SOL    HW1 4249   4.010   4.402   5.971 -0.2391  0.4386  0.5212
 1093SOL    HW2 4250   4.034   4.484   5.846 -0.9110 -1.6742 -1.0388
 1094SOL     OW 4251   4.945   3.916   4.458  0.7908 -1.0852 -0.7782
 1094SOL    HW1 4252   4.947   3.930   4.552  1.4242  0.1387 -0.9583
 1094SOL    HW2 4253   4.989   3.832   4.446  0.5471 -1.3391  0.0184
 1095SOL     OW 4254   1.825   4.912   7.278  0.1212 -0.2751  0.0208
 1095SOL    HW1 4255   1.792   4.968   7.349  1.8815 -0.4702  1.0513
 1095SOL    HW2 4256   1.747   4.889   7.228 -0.7504  2.9446 -0.3681
 1096SOL     OW 4257   0.368   4.161   7.371 -0.0023 -0.4938 -0.5516
 1096SOL    HW1 4258   0.400   4.077   7.339 -1.9884 -1.0650 -1.1340
 1096SOL    HW2 4259   0.351   4.147   7.464 -1.1055 -1.0010 -0.8192
 1097SOL     OW 4260   3.484   0.608   6.065  0.1463 -0.0450 -0.0239
 1097SOL    HW1 4261   3.426   0.677   6.098 -1.9666 -1.8412  0.2898
 1097SOL    HW2 4262   3.513   0.561   6.143 -1.8969 -2.0411 -0.3491
 1098SOL     OW 4263   3.578   3.544   1.827 -0.0697 -0.5503  0.3830
 1098SOL    HW1 4264   3.489   3.531   1.859  0.0364 -1.7769  0.2326
 1098SOL    HW2 4265   3.632   3.488   1.883  0.8258  1.2935  1.4259
 1099SOL     OW 4266   0.013   1.506   0.904  0.1652 -0.0959 -0.7262
 1099SOL    HW1 4267  -0.028   1.519   0.819  0.3746 -2.4906 -1.2720
 1099SOL    HW2 4268   0.054   1.420   0.898  0.7315 -0.0650  1.5959
 1100SOL     OW 4269   4.536   4.958   0.491 -0.0659  0.4874  0.3542
 1100SOL    HW1 4270   4.441   4.966   0.486 -0.0978 -0.3112 -0.4916
 1100SOL    HW2 4271   4.569   5.031   0.438 -0.2483 -0.2424 -0.8012
 1101SOL     OW 4272   2.094   2.634   3.966  0.0774  0.0833  0.6231
 1101SOL    HW1 4273   2.163   2.619   3.902 -1.0016  0.6413 -0.7352
 1101SOL    HW2 4274   2.045   2.552   3.970  0.6337 -0.2241  1.3839
 1102SOL     OW 4275   1.383   2.169   1.310 -0.3187  0.0284  0.2081
 1102SOL    HW1 4276   1.357   2.261   1.300 -0.2790  0.0843  0.5818
 1102SOL    HW2 4277   1.303   2.123   1.331 -0.1041  0.2431  1.6192
 1103SOL     OW 4278   4.482   0.151   0.135 -0.2324 -0.1761 -0.0667
 1103SOL    HW1 4279   4.500   0.070   0.183 -0.1155 -0.0506  0.1007
 1103SOL    HW2 4280   4.427   0.202   0.194  0.5620  0.3153  0.2564
 1104SOL     OW 4281   1.427   5.254   1.005 -0.0478  0.5540 -0.2327
 1104SOL    HW1 4282   1.455   5.188   0.941  1.3373  0.3134  0.5839
 1104SOL    HW2 4283   1.508   5.299   1.029 -0.7697  1.5843  0.3114
 1105SOL     OW 4284   2.599   3.138   3.957  0.0791 -0.6263 -0.0160
 1105SOL    HW1 4285   2.570   3.132   4.048  1.1979  0.4127  0.4315
 1105SOL    HW2 4286   2.536   3.085   3.909 -1.2104 -0.2798  1.2054
 1106SOL     OW 4287   6.565   5.939   4.876 -0.1850 -0.2128 -0.0284
 1106SOL    HW1 4288   6.601   5.944   4.965  1.4400 -0.8684 -0.6065
 1106SOL    HW2 4289   6.476   5.972   4.884  0.5952  1.7491  1.4688
 1107SOL     OW 4290   6.445   5.103   0.942 -0.1296  0.1931 -0.1947
 1107SOL    HW1 4291   6.506   5.129   0.874 -1.2146  1.4387 -0.7399
 1107SOL    HW2 4292   6.441   5.178   1.001  0.0423 -0.4836  0.7011
 1108SOL     OW 4293   1.926   3.920   0.748  0.8437 -0.0823 -0.5430
 1108SOL    HW1 4294   1.910   3.983   0.678  0.2937  0.2076 -0.1637
 1108SOL    HW2 4295   1.877   3.954   0.823 -0.9956 -1.8808 -0.8233
 1109SOL     OW 4296   5.496   4.364   3.952 -0.2447  0.0090  0.5249
 1109SOL    HW1 4297   5.420   4.403   3.996 -0.4943  0.6640 -0.4621
 1109SOL    HW2 4298   5.468   4.352   3.861  0.0070 -2.0063  0.6599
 1110SOL     OW 4299   2.728   7.166   0.513  0.5897  0.0070 -0.0224
 1110SOL    HW1 4300   2.740   7.087   0.461  0.2831  0.4358 -0.7603
 1110SOL    HW2 4301   2.725   7.135   0.604  0.2554 -0.8467 -0.3150
 1111SOL     OW 4302   5.373   6.888   2.985 -0.1379 -0.1127  0.0686
 1111SOL    HW1 4303   5.454   6.844   2.959  0.8133  0.2194  2.2882
 1111SOL    HW2 4304   5.402   6.963   3.036 -1.8275  1.2265 -0.8313
 1112SOL     OW 4305   6.544   6.660   1.833  0.2922  0.7698 -0.5542
 1112SOL    HW1 4306   6.610   6.725   1.859 -1.8577  2.9058 -0.1237
 1112SOL    HW2 4307   6.555   6.650   1.739  1.9099  0.2330 -0.3430
 1113SOL     OW 4308   2.839   0.171   5.457  0.1811 -0.1673 -0.0341
 1113SOL    HW1 4309   2.745   0.186   5.465 -0.1190  0.7071 -3.6871
 1113SOL    HW2 4310   2.856   0.097   5.516 -2.6168  0.0286  1.1945
 1114SOL     OW 4311   0.881   3.989   6.357 -0.1068  0.1681  0.2643
 1114SOL    HW1 4312   0.935   4.037   6.420  0.7011  1.0557 -1.0562
 1114SOL    HW2 4313   0.907   4.024   6.272 -1.0025 -1.1713 -0.5933
 1115SOL     OW 4314   1.542   5.469   5.374 -0.5690  0.7572 -0.3768
 1115SOL    HW1 4315   1.550   5.512   5.459 -0.5753 -0.3763  0.2089
 1115SOL    HW2 4316   1.502   5.535   5.318 -1.9620  1.0239  0.8890
 1116SOL     OW 4317   3.568   5.774   2.226 -0.2562 -0.5047 -0.0992
 1116SOL    HW1 4318   3.479   5.799   2.202 -0.5527  1.2054  2.3981
 1116SOL    HW2 4319   3.558   5.692   2.274 -0.6359  0.1359  0.9452
 1117SOL     OW 4320   5.050   0.061   1.715 -0.3424 -0.1254 -0.8846
 1117SOL    HW1 4321   4.963   0.055   1.755  0.1627 -1.5924  0.0896
 1117SOL    HW2 4322   5.044   0.006   1.636 -0.0310 -1.0812 -0.2586
 1118SOL     OW 4323   7.123   5.270   6.094  0.2648 -0.0158  0.4863
 1118SOL    HW1 4324   7.047   5.220   6.123 -1.4763  2.9413  1.3976
 1118SOL    HW2 4325   7.165   5.300   6.175  1.0476  0.3279 -0.0315
 1119SOL     OW 4326   3.404   0.891   0.033  0.4420 -0.3124 -0.2262
 1119SOL    HW1 4327   3.347   0.837   0.088 -0.3278 -1.6379 -2.2109
 1119SOL    HW2 4328   3.464   0.933   0.095 -0.5844 -1.4353  1.6353
 1120SOL     OW 4329   0.942   0.409   6.060  0.0317 -0.0770  0.0010
 1120SOL    HW1 4330   1.009   0.422   5.993 -2.2130  0.7092 -2.2589
 1120SOL    HW2 4331   0.935   0.314   6.069  0.1628 -0.1989 -1.1112
 1121SOL     OW 4332   0.967   0.576   0.803  0.5391  0.2300 -0.5575
 1121SOL    HW1 4333   0.888   0.627   0.785 -0.6617 -1.9370 -1.7502
 1121SOL    HW2 4334   1.001   0.553   0.717  0.3957 -1.8715 -0.0999
 1122SOL     OW 4335   6.753   1.233   6.956 -0.6084  0.1620 -0.3866
 1122SOL    HW1 4336   6.761   1.277   6.871 -1.5609  1.2793  0.0803
 1122SOL    HW2 4337   6.658   1.228   6.972 -0.4927 -1.2042  0.0355
 1123SOL     OW 4338   5.262   5.985   1.226 -0.0844  0.3997 -0.0445
 1123SOL    HW1 4339   5.350   5.948   1.235 -0.1578  0.4185  0.8240
 1123SOL    HW2 4340   5.269   6.072   1.264 -0.1347  0.9494 -1.2718
 1124SOL     OW 4341   4.285   2.665   2.298 -0.2562  0.0228 -0.2084
 1124SOL    HW1 4342   4.210   2.646   2.355  0.0196  1.7010  0.8019
 1124SOL    HW2 4343   4.343   2.590   2.308 -1.3692 -0.8667 -0.2676
 1125SOL     OW 4344   5.572   1.350   3.660  0.4004 -0.3686  0.4437
 1125SOL    HW1 4345   5.563   1.421   3.723  1.6945 -0.8782  1.2553
 1125SOL    HW2 4346   5.485   1.338   3.624 -0.2375  0.3530  1.6908
 1126SOL     OW 4347   1.434   0.341   3.167 -0.2647  0.3306  0.3104
 1126SOL    HW1 4348   1.434   0.426   3.122  0.3087 -1.0049 -2.4478
 1126SOL    HW2 4349   1.349   0.303   3.144  0.8752 -1.2548 -1.5915
 1127SOL     OW 4350   1.299   2.390   7.097  0.0381  0.0374 -0.0708
 1127SOL    HW1 4351   1.263   2.380   7.009 -0.4719 -0.5017  0.1977
 1127SOL    HW2 4352   1.379   2.441   7.084  0.8038 -1.3352 -1.0492
 1128SOL     OW 4353   6.679   0.224   6.660  0.3822 -0.1051 -0.2026
 1128SOL    HW1 4354   6.721   0.230   6.745 -0.3687 -1.6789  0.3116
 1128SOL    HW2 4355   6.743   0.178   6.605  0.9173  1.0183 -0.5609
 1129SOL     OW 4356   4.747   6.065   1.329  0.5746 -0.0470  0.4350
 1129SOL    HW1 4357   4.667   6.030   1.290 -0.6068  1.4554  1.3548
 1129SOL    HW2 4358   4.818   6.017   1.287 -0.7026  0.0399 -1.9748
 1130SOL     OW 4359   1.881   3.647   6.956 -0.1982 -0.1867  0.0124
 1130SOL    HW1 4360   1.855   3.570   7.008  0.3841 -0.8982 -0.7306
 1130SOL    HW2 4361   1.808   3.708   6.967 -1.3169 -1.3844 -0.4727
 1131SOL     OW 4362   1.376   1.339   1.619  0.2064 -0.6519  0.8196
 1131SOL    HW1 4363   1.282   1.339   1.601  0.3650 -2.0145 -0.2279
 1131SOL    HW2 4364   1.406   1.426   1.595 -0.8720 -0.0214  1.6955
 1132SOL     OW 4365   6.324   2.391   2.321 -0.3801 -0.0083 -0.4812
 1132SOL    HW1 4366   6.345   2.305   2.358  0.1118 -0.8123 -2.4819
 1132SOL    HW2 4367   6.293   2.443   2.395  0.8757 -1.3940  1.0829
 1133SOL     OW 4368   3.003   2.933   6.211  0.3407  0.2351  0.0004
 1133SOL    HW1 4369   2.916   2.894   6.222  1.4205 -2.3550  0.0642
 1133SOL    HW2 4370   2.986   3.022   6.179 -2.3112 -0.0188  0.4774
 1134SOL     OW 4371   3.741   4.858   6.118  0.0350  0.3015  0.4462
 1134SOL    HW1 4372   3.739   4.912   6.038  1.8003  1.3028  1.0102
 1134SOL    HW2 4373   3.769   4.771   6.087 -1.4348  0.0672 -0.2875
 1135SOL     OW 4374   1.129   3.542   4.124 -0.7364  0.5364 -0.0249
 1135SOL    HW1 4375   1.137   3.476   4.056  0.7426  0.3948  0.2474
 1135SOL    HW2 4376   1.071   3.502   4.190  1.7966 -1.4669  1.1624
 1136SOL     OW 4377   2.448   1.524   4.344 -0.4185  0.2713 -0.2467
 1136SOL    HW1 4378   2.443   1.519   4.249  1.2658  0.5951 -0.3874
 1136SOL    HW2 4379   2.517   1.461   4.368  1.2540  2.2497  0.4579
 1137SOL     OW 4380   6.037   3.270   3.950  0.4217 -0.0947  0.0463
 1137SOL    HW1 4381   6.022   3.198   3.888  0.7879  0.3451 -0.5551
 1137SOL    HW2 4382   6.128   3.260   3.978  0.0190 -0.7897  1.1679
 1138SOL     OW 4383   6.627   1.577   4.878  0.2323 -0.2086 -0.2747
 1138SOL    HW1 4384   6.670   1.662   4.889  0.6736 -0.3170 -1.0936
 1138SOL    HW2 4385   6.536   1.599   4.858 -0.0043  0.0293  0.9463
 1139SOL     OW 4386   7.261   4.573   4.996  0.1739  0.5608  0.4560
 1139SOL    HW1 4387   7.223   4.646   5.046 -1.5052  0.4596 -0.6019
 1139SOL    HW2 4388   7.202   4.562   4.922  1.1571 -1.0154 -0.1297
 1140SOL     OW 4389   6.614   5.870   5.956 -0.3078 -0.2505 -0.0680
 1140SOL    HW1 4390   6.606   5.937   6.025  2.3235 -1.0612  1.1846
 1140SOL    HW2 4391   6.610   5.920   5.874 -0.7248  1.1243  0.7466
 1141SOL     OW 4392   4.029   4.537   0.968 -0.4690  0.1293  0.0889
 1141SOL    HW1 4393   3.955   4.563   1.022  0.4490  0.0520  1.4384
 1141SOL    HW2 4394   4.088   4.493   1.029  1.3207  1.4113 -0.6293
 1142SOL     OW 4395   0.984   3.916   3.168  0.0766 -0.0464 -0.4469
 1142SOL    HW1 4396   0.907   3.885   3.122 -1.4741  0.8104  1.4307
 1142SOL    HW2 4397   1.035   3.837   3.187 -0.0277 -0.5605 -2.1844
 1143SOL     OW 4398   0.830   4.832   1.410 -0.1752 -0.1466  0.1669
 1143SOL    HW1 4399   0.802   4.772   1.479 -0.1311  0.9093  1.1282
 1143SOL    HW2 4400   0.748   4.864   1.371 -0.2283 -2.2540 -1.7044
 1144SOL     OW 4401   6.507   0.086   3.899 -0.7348  0.3892  0.2023
 1144SOL    HW1 4402   6.549   0.096   3.814  0.0447 -0.0313  0.5247
 1144SOL    HW2 4403   6.465   0.000   3.895 -0.6138  0.3263  0.2751
 1145SOL     OW 4404   1.704   0.596   0.426 -0.6077  0.6979  0.4767
 1145SOL    HW1 4405   1.630   0.538   0.443 -1.5964  1.5982 -0.5791
 1145SOL    HW2 4406   1.758   0.590   0.505 -1.1350 -0.9475  0.7537
 1146SOL     OW 4407   3.255   6.754   1.399 -0.0449 -0.3808 -0.1325
 1146SOL    HW1 4408   3.169   6.779   1.365  0.8772 -0.1598 -2.4909
 1146SOL    HW2 4409   3.250   6.659   1.409 -0.0342 -0.6068 -1.9973
 1147SOL     OW 4410   5.820   7.071   0.451 -0.0498  0.1569  0.4381
 1147SOL    HW1 4411   5.829   7.049   0.359  2.4608 -1.3958  0.9590
 1147SOL    HW2 4412   5.905   7.104   0.477 -0.7592  0.7446  2.1661
 1148SOL     OW 4413   7.087   0.548   0.935 -0.9499  0.0033 -0.3730
 1148SOL    HW1 4414   7.171   0.588   0.912 -1.0647  0.5765  0.1613
 1148SOL    HW2 4415   7.065   0.492   0.861  1.0429 -2.0021  0.4246
 1149SOL     OW 4416   2.852   2.683   7.202  0.4520  0.3886  0.3283
 1149SOL    HW1 4417   2.780   2.745   7.210 -0.1775 -0.4845  1.6220
 1149SOL    HW2 4418   2.825   2.625   7.130  0.0452  0.3244  0.5270
 1150SOL     OW 4419   2.095   0.487   0.415 -0.2783  0.0904 -0.3098
 1150SOL    HW1 4420   2.047   0.570   0.410 -0.5478 -0.1026 -1.0750
 1150SOL    HW2 4421   2.150   0.487   0.336 -1.4630 -1.1731 -1.1828
 1151SOL     OW 4422   7.222   7.271   1.272  0.4187  0.5976 -0.0336
 1151SOL    HW1 4423   7.137   7.227   1.267  0.8185 -0.2275  0.3068
 1151SOL    HW2 4424   7.205   7.350   1.323 -0.0547  0.2027  0.4320
 1152SOL     OW 4425   6.581   6.608   3.025  0.2519  0.2918  0.6831
 1152SOL    HW1 4426   6.575   6.512   3.024 -0.0776  0.3107 -0.2872
 1152SOL    HW2 4427   6.490   6.637   3.019  0.3485  0.6657  1.0275
 1153SOL     OW 4428   6.974   4.319   1.135  0.5613 -0.4314 -0.9659
 1153SOL    HW1 4429   6.949   4.240   1.184  2.4366 -0.9873 -0.8450
 1153SOL    HW2 4430   6.890   4.357   1.108 -0.5397 -0.5017  2.0037
 1154SOL     OW 4431   4.392   6.929   5.564 -0.0303 -0.0287 -0.2252
 1154SOL    HW1 4432   4.315   6.932   5.621  1.0607  1.1463  1.2543
 1154SOL    HW2 4433   4.377   7.000   5.500 -0.1914  0.1801  0.0422
 1155SOL     OW 4434   0.928   4.553   3.291  0.2293  0.0981  0.0648
 1155SOL    HW1 4435   0.989   4.488   3.325 -0.3513 -0.7063 -0.4082
 1155SOL    HW2 4436   0.850   4.544   3.345 -1.0525 -1.8139 -1.9164
 1156SOL     OW 4437   6.194   5.864   2.623 -0.2478 -0.4172 -0.3169
 1156SOL    HW1 4438   6.219   5.883   2.714  1.0484  1.3710 -0.9973
 1156SOL    HW2 4439   6.139   5.938   2.598  1.3601  0.3385 -1.7208
 1157SOL     OW 4440   3.980   0.651   0.298 -0.0683 -0.4263 -0.1318
 1157SOL    HW1 4441   4.033   0.617   0.371  0.9676 -0.8669 -1.0652
 1157SOL    HW2 4442   3.933   0.725   0.335  0.7577 -0.3849  0.8848
 1158SOL     OW 4443   4.884   5.476   0.950 -0.5698  0.3764  0.0554
 1158SOL    HW1 4444   4.812   5.538   0.965 -0.2767  0.5207  0.9299
 1158SOL    HW2 4445   4.962   5.523   0.978 -0.1951  0.0208 -0.3791
 1159SOL     OW 4446   4.414   3.844   6.189  0.3095  0.2003  0.7159
 1159SOL    HW1 4447   4.358   3.839   6.267 -0.3266  0.4014  0.2769
 1159SOL    HW2 4448   4.362   3.893   6.125  0.4966 -0.6545 -0.1145
 1160SOL     OW 4449   6.895   2.591   2.926  0.1920 -0.0079 -0.5082
 1160SOL    HW1 4450   6.849   2.515   2.890 -1.3928  1.3686 -1.5692
 1160SOL    HW2 4451   6.982   2.589   2.886  0.2809 -1.4094 -0.2765
 1161SOL     OW 4452   2.647   4.191   1.410  0.2351  0.1434 -0.0053
 1161SOL    HW1 4453   2.643   4.219   1.319  1.2323  2.4189  0.5539
 1161SOL    HW2 4454   2.737   4.212   1.437  1.5445 -4.7853  0.3180
 1162SOL     OW 4455   1.251   1.600   6.503  0.5563 -0.2292  0.3205
 1162SOL    HW1 4456   1.300   1.638   6.430 -0.4198 -1.2322 -0.8992
 1162SOL    HW2 4457   1.317   1.586   6.571  1.6489 -0.0104 -0.6586
 1163SOL     OW 4458   5.813   5.304   6.507  0.4078  0.1904  0.3820
 1163SOL    HW1 4459   5.773   5.260   6.582  1.4897  1.2822  1.6553
 1163SOL    HW2 4460   5.746   5.302   6.439 -0.5839 -0.8822  1.3550
 1164SOL     OW 4461   1.643   3.915   6.654  0.2790  0.3386 -0.2002
 1164SOL    HW1 4462   1.561   3.866   6.652 -1.0166  2.4048 -0.7697
 1164SOL    HW2 4463   1.667   3.917   6.747  0.3702 -1.2982 -0.1623
 1165SOL     OW 4464   2.190   0.652   5.519 -0.1004 -0.2616  0.0563
 1165SOL    HW1 4465   2.180   0.640   5.613  1.1297  1.0788  0.3938
 1165SOL    HW2 4466   2.182   0.747   5.506 -0.5667 -0.4600 -1.2338
 1166SOL     OW 4467   0.740   6.649   2.499  0.4644  0.1028  0.6390
 1166SOL    HW1 4468   0.826   6.636   2.458  1.2180  0.8492  1.9107
 1166SOL    HW2 4469   0.695   6.710   2.440  0.7851 -0.3038 -0.0481
 1167SOL     OW 4470   2.272   4.557   7.223  0.1464 -0.1140  0.2828
 1167SOL    HW1 4471   2.216   4.481   7.240 -0.6478  0.9020  2.5598
 1167SOL    HW2 4472   2.215   4.618   7.176  0.3090 -0.2960 -0.1554
 1168SOL     OW 4473   3.243   2.744   5.395  0.2615  0.2415  0.4277
 1168SOL    HW1 4474   3.175   2.694   5.350  0.6960 -1.2714  1.3534
 1168SOL    HW2 4475   3.325   2.709   5.361  0.5785  0.1657  1.2374
 1169SOL     OW 4476   4.115   5.034   6.147  0.5017 -0.0953  0.6321
 1169SOL    HW1 4477   4.181   5.007   6.083 -2.3574  0.5352 -2.9424
 1169SOL    HW2 4478   4.097   4.954   6.198  1.2514 -1.3584 -0.9799
 1170SOL     OW 4479   2.132   2.404   0.754  0.1955  0.5954 -0.2018
 1170SOL    HW1 4480   2.202   2.429   0.693  1.8047 -0.8284  0.9350
 1170SOL    HW2 4481   2.114   2.313   0.733 -0.6861  0.6853  0.1348
 1171SOL     OW 4482   1.067   3.352   3.929 -0.0720 -0.5542 -0.2045
 1171SOL    HW1 4483   0.981   3.335   3.966  0.2212  1.7634  1.7852
 1171SOL    HW2 4484   1.050   3.412   3.856 -0.1362  0.3292  0.5215
 1172SOL     OW 4485   2.321   3.468   2.294  0.0329  0.1434  0.0190
 1172SOL    HW1 4486   2.393   3.405   2.286  0.8359  0.9527  0.6258
 1172SOL    HW2 4487   2.242   3.415   2.287  0.6856 -0.8455 -0.1231
 1173SOL     OW 4488   5.283   5.286   6.425  0.5754 -0.0514  0.2000
 1173SOL    HW1 4489   5.326   5.321   6.503  0.4247  0.8086 -0.0878
 1173SOL    HW2 4490   5.310   5.194   6.421  1.3186  0.1367  0.7533
 1174SOL     OW 4491   0.659   6.242   7.318 -0.0745 -0.0875 -0.0563
 1174SOL    HW1 4492   0.751   6.222   7.300 -0.3635  0.2067 -2.1156
 1174SOL    HW2 4493   0.612   6.207   7.242 -1.6000  0.3471  0.6499
 1175SOL     OW 4494   7.380   3.322   3.652 -0.3876 -0.1396  0.6187
 1175SOL    HW1 4495   7.465   3.360   3.672  0.8216 -1.2682 -1.8997
 1175SOL    HW2 4496   7.395   3.228   3.650 -1.1333 -0.2816 -1.8119
 1176SOL     OW 4497   6.642   3.085   0.721 -0.6380  0.2067 -0.0090
 1176SOL    HW1 4498   6.730   3.121   0.731 -0.4696 -0.0212 -0.6385
 1176SOL    HW2 4499   6.596   3.148   0.666 -0.3521 -0.5154 -1.0855
 1177SOL     OW 4500   6.270   4.754   5.992  0.1454  0.3864  0.4500
 1177SOL    HW1 4501   6.203   4.732   6.057  0.3759  0.0492  0.5798
 1177SOL    HW2 4502   6.341   4.792   6.044 -0.3496  1.6874  0.1974
 1178SOL     OW 4503   5.691   0.624   6.107  0.0042 -0.1275  0.4798
 1178SOL    HW1 4504   5.657   0.700   6.059 -1.8702 -1.4686 -0.4761
 1178SOL    HW2 4505   5.661   0.637   6.197 -0.5825  0.1317  0.2545
 1179SOL     OW 4506   2.616   7.115   5.881 -0.4532  0.1951  0.1519
 1179SOL    HW1 4507   2.625   7.210   5.892 -1.5990  0.2795  0.4750
 1179SOL    HW2 4508   2.608   7.103   5.786  0.5611  0.3177  0.0318
 1180SOL     OW 4509   2.796   2.862   5.721 -0.1823  0.4777 -0.0731
 1180SOL    HW1 4510   2.738   2.842   5.795  1.1757 -0.6897  0.7209
 1180SOL    HW2 4511   2.847   2.782   5.708  3.3506  2.3005  1.2197
 1181SOL     OW 4512   6.858   5.550   7.206  0.0905  0.1600 -0.4703
 1181SOL    HW1 4513   6.779   5.497   7.222 -0.0293  1.0127  2.1911
 1181SOL    HW2 4514   6.826   5.625   7.156 -0.3230 -0.6543 -1.4640
 1182SOL     OW 4515   4.368   2.981   6.489  0.2868  0.1608  0.4739
 1182SOL    HW1 4516   4.364   2.975   6.394  0.8131 -0.2548  0.4742
 1182SOL    HW2 4517   4.282   2.950   6.519  0.6593 -1.2107  0.1932
 1183SOL     OW 4518   7.192   1.777   6.651  0.2162 -0.0389  0.4625
 1183SOL    HW1 4519   7.262   1.842   6.658 -0.3637  0.6312  0.2088
 1183SOL    HW2 4520   7.184   1.762   6.557  1.5729 -1.8682  0.5828
 1184SOL     OW 4521   3.847   6.807   0.381  0.3628  0.2889 -0.4801
 1184SOL    HW1 4522   3.820   6.885   0.428  1.3241  0.4703 -0.2012
 1184SOL    HW2 4523   3.845   6.737   0.447  0.3471  0.2565 -0.5145
 1185SOL     OW 4524   2.119   4.554   4.937 -0.3578 -0.3117  0.1049
 1185SOL    HW1 4525   2.048   4.500   4.904  0.7006 -1.9228  0.3113
 1185SOL    HW2 4526   2.141   4.514   5.022 -0.3747  1.2553  0.8821
 1186SOL     OW 4527   2.344   5.045   6.931 -0.6441  0.2636  0.0343
 1186SOL    HW1 4528   2.344   4.957   6.893 -0.8427  0.8592 -1.4370
 1186SOL    HW2 4529   2.265   5.048   6.984 -0.3404 -0.6272  0.5537
 1187SOL     OW 4530   5.725   2.604   5.473 -0.3577 -0.2756  0.2051
 1187SOL    HW1 4531   5.667   2.629   5.546 -1.0098 -1.9153  0.2842
 1187SOL    HW2 4532   5.735   2.685   5.423 -0.8021  0.6245  1.4925
 1188SOL     OW 4533   1.700   6.802   4.426 -0.0604  0.2198  0.6840
 1188SOL    HW1 4534   1.665   6.746   4.357 -1.7444  1.9271  0.0395
 1188SOL    HW2 4535   1.792   6.778   4.433 -0.2044 -1.0261 -1.1367
 1189SOL     OW 4536   3.887   7.330   0.156  0.3087  0.0596  0.2683
 1189SOL    HW1 4537   3.836   7.402   0.193  0.1938  0.9829 -1.5766
 1189SOL    HW2 4538   3.955   7.313   0.221 -1.2821 -0.0411  1.9934
 1190SOL     OW 4539   4.363   4.282   6.143 -0.5055 -0.0470  0.5115
 1190SOL    HW1 4540   4.438   4.254   6.195 -0.8377 -0.4961  0.7581
 1190SOL    HW2 4541   4.379   4.375   6.125 -0.9364  0.4383  2.4049
 1191SOL     OW 4542   4.744   1.077   5.124 -0.2598  0.7209  0.0288
 1191SOL    HW1 4543   4.782   1.041   5.044  1.8162 -0.3968  1.4201
 1191SOL    HW2 4544   4.667   1.023   5.141  0.4879 -0.4142 -0.1165
 1192SOL     OW 4545   2.457   1.919   1.770  0.4734 -0.2995  0.2810
 1192SOL    HW1 4546   2.520   1.960   1.711 -0.4552 -1.6117 -1.7798
 1192SOL    HW2 4547   2.506   1.848   1.811  1.1307  0.6143  1.1191
 1193SOL     OW 4548   3.203   0.008   4.066 -0.3292  0.1326  0.3890
 1193SOL    HW1 4549   3.227  -0.059   4.130 -0.6590 -0.2397  0.1255
 1193SOL    HW2 4550   3.279   0.016   4.009 -0.0337  0.4656  0.8229
 1194SOL     OW 4551   0.521   1.860   3.445  0.2127  0.1864  0.7023
 1194SOL    HW1 4552   0.601   1.901   3.477  0.5142 -0.7951  1.2319
 1194SOL    HW2 4553   0.460   1.866   3.519  0.2260 -0.2383  0.7456
 1195SOL     OW 4554   5.823   3.231   1.795  0.2569  0.3495  0.6357
 1195SOL    HW1 4555   5.890   3.291   1.762  1.3269 -1.0961  0.0632
 1195SOL    HW2 4556   5.864   3.145   1.790 -1.3100 -0.4649  1.2274
 1196SOL     OW 4557   0.704   2.522   3.519 -0.0214  0.4745  0.7613
 1196SOL    HW1 4558   0.717   2.547   3.611 -0.1069  1.0403  0.6243
 1196SOL    HW2 4559   0.734   2.598   3.469  1.8778 -0.5597  0.2381
 1197SOL     OW 4560   4.028   5.702   3.672 -0.3994  0.3507  0.5448
 1197SOL    HW1 4561   4.110   5.734   3.709 -0.1058 -0.3341  0.5138
 1197SOL    HW2 4562   4.022   5.611   3.703 -0.6154  0.0611 -0.3094
 1198SOL     OW 4563   4.027   3.537   2.490 -0.3228 -0.2733 -0.1078
 1198SOL    HW1 4564   4.088   3.591   2.441  0.0493 -0.0461  0.5960
 1198SOL    HW2 4565   3.968   3.600   2.533 -1.5584 -0.5035 -1.4013
 1199SOL     OW 4566   3.113   1.228   6.131 -0.4380  0.9372 -0.4403
 1199SOL    HW1 4567   3.031   1.271   6.154 -1.9105 -0.8941 -1.8920
 1199SOL    HW2 4568   3.086   1.144   6.093  2.1988 -0.5062  0.6416
 1200SOL     OW 4569   0.782   6.527   2.244  0.0788  0.5050 -0.4530
 1200SOL    HW1 4570   0.857   6.468   2.250 -0.0038  0.2449 -1.8314
 1200SOL    HW2 4571   0.706   6.472   2.260 -0.0299  0.1303 -2.1725
 1201SOL     OW 4572   7.126   4.515   4.737 -0.0288 -0.8892  0.7280
 1201SOL    HW1 4573   7.031   4.508   4.728 -0.0311 -0.2472  0.2184
 1201SOL    HW2 4574   7.152   4.582   4.674  0.4641  0.6677  2.4664
 1202SOL     OW 4575   4.836   0.941   2.305  0.4973 -0.0396 -0.2067
 1202SOL    HW1 4576   4.887   1.021   2.297 -0.0071  0.3085  0.0066
 1202SOL    HW2 4577   4.764   0.952   2.243  0.5177 -0.3976 -0.2959
 1203SOL     OW 4578   1.920   6.274   0.053 -0.0502  0.1308 -0.1382
 1203SOL    HW1 4579   1.903   6.286  -0.040  0.9073  0.6004 -0.2671
 1203SOL    HW2 4580   1.837   6.296   0.096  0.0894  1.9757 -0.7506
 1204SOL     OW 4581   1.738   3.718   2.037  0.4008  0.3910  0.1845
 1204SOL    HW1 4582   1.683   3.648   2.071 -1.0804  1.7539  0.7097
 1204SOL    HW2 4583   1.693   3.749   1.958  0.4480  1.4524  0.5564
 1205SOL     OW 4584   1.852   3.791   3.668 -0.1779 -0.1315 -0.1789
 1205SOL    HW1 4585   1.795   3.838   3.729 -0.0151 -0.0853 -0.0625
 1205SOL    HW2 4586   1.865   3.705   3.708  0.9151  0.3109  0.4623
 1206SOL     OW 4587   0.261   7.084   1.035  0.2356  0.0103 -0.5471
 1206SOL    HW1 4588   0.215   7.147   1.089  0.3299  0.6997 -1.2459
 1206SOL    HW2 4589   0.342   7.065   1.083 -0.0978 -0.0921 -0.0189
 1207SOL     OW 4590   4.278   3.373   6.844  0.0473  0.4456  0.0746
 1207SOL    HW1 4591   4.300   3.388   6.752 -0.1513  0.2023 -0.0151
 1207SOL    HW2 4592   4.191   3.411   6.855 -0.1255  0.0676  0.0427
 1208SOL     OW 4593   0.700   5.915   5.968  0.4020  0.0688  0.4422
 1208SOL    HW1 4594   0.675   5.984   5.906 -0.9498 -1.4085 -0.7234
 1208SOL    HW2 4595   0.786   5.943   5.999  0.9814  1.0869 -1.8047
 1209SOL     OW 4596   4.090   2.259   3.125 -0.5177 -0.7410  0.2149
 1209SOL    HW1 4597   4.106   2.325   3.192  2.4860 -1.1377  0.0163
 1209SOL    HW2 4598   4.049   2.307   3.053  0.6564  0.7414  0.4764
 1210SOL     OW 4599   6.914   4.056   1.206 -0.6385 -0.5744  0.0305
 1210SOL    HW1 4600   6.843   4.045   1.269  0.5573  0.5426  1.6641
 1210SOL    HW2 4601   6.975   3.986   1.225 -0.6445 -0.7147 -0.4473
 1211SOL     OW 4602   3.067   1.312   3.740  0.5705 -0.6075  0.3909
 1211SOL    HW1 4603   3.066   1.226   3.698 -0.7018 -0.9688  1.0989
 1211SOL    HW2 4604   2.976   1.327   3.766  0.7952  0.9084  0.3763
 1212SOL     OW 4605   4.121   3.069   3.628  0.0201  0.4237  0.1993
 1212SOL    HW1 4606   4.082   3.066   3.540 -0.4967 -1.6839  0.4529
 1212SOL    HW2 4607   4.215   3.066   3.612 -0.0411  0.9043 -0.3005
 1213SOL     OW 4608   1.898   3.123   0.586 -0.4205  0.0364  0.3276
 1213SOL    HW1 4609   1.970   3.062   0.569 -0.3480 -0.0812  1.0109
 1213SOL    HW2 4610   1.927   3.173   0.663 -1.4681 -0.6831  1.2191
 1214SOL     OW 4611   2.948   0.381   7.138  0.1479 -1.0058 -0.3507
 1214SOL    HW1 4612   3.003   0.459   7.127  0.2785 -1.2529 -1.5756
 1214SOL    HW2 4613   2.977   0.322   7.069  0.1056 -2.1874  0.6198
 1215SOL     OW 4614   6.669   7.117   3.787  0.5320  0.4527  0.0910
 1215SOL    HW1 4615   6.631   7.170   3.858 -2.3439  0.4145 -1.2735
 1215SOL    HW2 4616   6.691   7.181   3.719  0.6829  0.2589 -0.0396
 1216SOL     OW 4617   5.338   4.492   2.703 -0.1091 -0.6695 -0.6806
 1216SOL    HW1 4618   5.322   4.585   2.716 -0.7917 -0.9449  0.5387
 1216SOL    HW2 4619   5.434   4.484   2.703 -0.0484 -0.0115 -0.5006
 1217SOL     OW 4620   6.279   1.101   4.137 -0.2668 -0.8866 -0.0084
 1217SOL    HW1 4621   6.277   1.179   4.081 -1.8489  0.0680  1.2989
 1217SOL    HW2 4622   6.360   1.109   4.186 -0.5352  0.0925  0.3013
 1218SOL     OW 4623   6.527   6.149   2.408 -0.6458  0.0604 -0.2537
 1218SOL    HW1 4624   6.470   6.071   2.413 -0.9302  0.2742 -0.1268
 1218SOL    HW2 4625   6.598   6.130   2.470 -0.8089 -0.0226 -0.0898
 1219SOL     OW 4626   0.559   4.226   5.342 -0.6111 -0.3186 -0.3164
 1219SOL    HW1 4627   0.621   4.265   5.281 -0.6611 -0.6263 -0.5622
 1219SOL    HW2 4628   0.526   4.147   5.298 -0.5968 -0.5798  0.1276
 1220SOL     OW 4629   7.018   3.728   2.380  0.2755  0.3256  0.1198
 1220SOL    HW1 4630   7.064   3.646   2.401 -0.0051  0.1888  0.2120
 1220SOL    HW2 4631   6.982   3.713   2.293  1.8622  1.0805 -0.6995
 1221SOL     OW 4632   3.555   5.289   2.037  0.2120  0.1285 -0.6572
 1221SOL    HW1 4633   3.589   5.374   2.009 -1.2303  0.5002 -1.3554
 1221SOL    HW2 4634   3.618   5.259   2.102  0.7827  1.7096 -0.4301
 1222SOL     OW 4635   2.398   6.759   3.281  0.0837  0.0925 -0.2616
 1222SOL    HW1 4636   2.383   6.836   3.335 -0.2880 -0.4030  0.3548
 1222SOL    HW2 4637   2.358   6.687   3.330 -0.8395 -0.2697 -1.5056
 1223SOL     OW 4638   1.092   3.975   3.826 -0.1468  1.2093  0.5027
 1223SOL    HW1 4639   1.151   3.909   3.789  0.7045  1.3010  1.6277
 1223SOL    HW2 4640   1.009   3.961   3.781 -0.3762 -1.4630  1.5887
 1224SOL     OW 4641   1.534   2.173   0.010 -0.5521  0.2693  0.8192
 1224SOL    HW1 4642   1.603   2.124   0.054 -1.5954 -0.9423  1.1306
 1224SOL    HW2 4643   1.479   2.207   0.080 -1.4338 -0.5024  0.5202
 1225SOL     OW 4644   5.634   2.039   2.772  0.2700 -0.6127  0.1102
 1225SOL    HW1 4645   5.576   1.965   2.792  1.8840 -2.6603 -2.1340
 1225SOL    HW2 4646   5.586   2.089   2.706  0.4756 -1.5523 -0.7763
 1226SOL     OW 4647   3.090   1.148   4.006 -0.0937 -0.1517 -0.2187
 1226SOL    HW1 4648   3.138   1.211   4.059 -0.1057 -0.8644  0.6565
 1226SOL    HW2 4649   3.007   1.191   3.986  0.6355  0.8565 -1.2384
 1227SOL     OW 4650   6.202   1.199   6.835  0.0769 -0.6836 -0.4172
 1227SOL    HW1 4651   6.200   1.290   6.864  0.4344 -0.3746 -1.3211
 1227SOL    HW2 4652   6.294   1.182   6.813 -0.2281 -0.7806 -1.6864
 1228SOL     OW 4653   6.254   3.293   5.326 -0.0953  0.7031 -0.6986
 1228SOL    HW1 4654   6.179   3.336   5.286 -1.8073  0.5287  2.0404
 1228SOL    HW2 4655   6.285   3.354   5.393 -0.0831 -0.6242  0.5798
 1229SOL     OW 4656   0.320   0.613   5.406 -0.2146 -0.0231 -0.4096
 1229SOL    HW1 4657   0.239   0.613   5.457 -1.1995 -1.7016 -1.8639
 1229SOL    HW2 4658   0.358   0.526   5.421  1.5099  0.8289  0.4757
 1230SOL     OW 4659   1.935   0.622   4.555 -0.1734 -0.2775 -0.1579
 1230SOL    HW1 4660   1.971   0.642   4.642  1.1351  2.2020 -1.1743
 1230SOL    HW2 4661   2.004   0.572   4.512 -1.0770 -2.0749  0.3577
 1231SOL     OW 4662   4.701   1.535   4.454  0.0222 -0.0103 -0.3107
 1231SOL    HW1 4663   4.716   1.444   4.429 -0.9017 -0.1882 -0.2562
 1231SOL    HW2 4664   4.693   1.581   4.370  0.3671 -0.0015 -0.3387
 1232SOL     OW 4665   3.546   3.016   6.849  1.0273  0.4818  0.0983
 1232SOL    HW1 4666   3.539   2.943   6.910 -0.0079  0.2121 -0.3189
 1232SOL    HW2 4667   3.512   3.091   6.899 -0.9843  0.0285 -0.4889
 1233SOL     OW 4668   4.748   6.136   5.097 -1.0681  0.4274 -0.2912
 1233SOL    HW1 4669   4.826   6.140   5.042 -1.2746 -0.1136 -0.6408
 1233SOL    HW2 4670   4.694   6.209   5.068 -0.7983  0.6523 -0.2233
 1234SOL     OW 4671   3.931   0.331   0.485 -0.0833  0.1054  0.0269
 1234SOL    HW1 4672   3.863   0.321   0.552 -1.1528 -3.4524 -1.3305
 1234SOL    HW2 4673   3.945   0.425   0.479 -1.6260  0.7194  3.5233
 1235SOL     OW 4674   6.112   3.616   1.113  0.0600  0.3776 -0.0220
 1235SOL    HW1 4675   6.032   3.569   1.089  0.9600 -1.4290  0.3423
 1235SOL    HW2 4676   6.084   3.681   1.177 -0.9306 -1.3162  1.3553
 1236SOL     OW 4677   4.486   3.909   2.927 -0.2508  0.2058 -0.8064
 1236SOL    HW1 4678   4.391   3.914   2.913 -0.3416  1.1857  0.0363
 1236SOL    HW2 4679   4.494   3.851   3.003 -0.3187  1.4997  0.2340
 1237SOL     OW 4680   5.708   1.101   5.454  0.2571  0.2655  0.2295
 1237SOL    HW1 4681   5.730   1.060   5.371  0.3211 -1.8779  1.2484
 1237SOL    HW2 4682   5.629   1.151   5.436 -0.3040 -0.9756 -0.8984
 1238SOL     OW 4683   4.409   6.374   1.813 -0.1636  0.3416 -0.1428
 1238SOL    HW1 4684   4.363   6.399   1.733 -2.3024 -0.6594  0.6980
 1238SOL    HW2 4685   4.416   6.455   1.863 -1.4148  0.4473 -0.1129
 1239SOL     OW 4686   3.021   3.561   2.848  0.0654 -0.6898 -0.2156
 1239SOL    HW1 4687   2.957   3.595   2.911  0.3165 -0.6383  0.0161
 1239SOL    HW2 4688   2.988   3.475   2.825 -0.4412 -0.3944 -0.6110
 1240SOL     OW 4689   5.239   7.083   1.070  0.6613  0.5781 -0.0229
 1240SOL    HW1 4690   5.176   7.050   1.007 -0.7996  0.7389  1.2753
 1240SOL    HW2 4691   5.204   7.169   1.095  1.1098  0.4560  1.0825
 1241SOL     OW 4692   1.208   0.551   0.209  0.9420 -0.5669  0.0803
 1241SOL    HW1 4693   1.163   0.505   0.138  0.1183  1.1022 -0.5204
 1241SOL    HW2 4694   1.195   0.495   0.286 -2.5845 -0.0149  0.0560
 1242SOL     OW 4695   4.548   2.536   3.063 -0.2142  0.1114  0.3318
 1242SOL    HW1 4696   4.628   2.509   3.017 -1.4324 -1.1887 -1.1444
 1242SOL    HW2 4697   4.513   2.454   3.098 -2.0593  0.2483 -1.0187
 1243SOL     OW 4698   0.146   3.065   3.588 -0.0634 -0.5689  0.1334
 1243SOL    HW1 4699   0.154   2.997   3.656 -0.5163 -1.4593 -0.6830
 1243SOL    HW2 4700   0.236   3.079   3.558 -0.0150 -1.1275  0.0033
 1244SOL     OW 4701   4.337   0.585   5.287  0.3441  0.3269 -0.2052
 1244SOL    HW1 4702   4.376   0.539   5.213  1.0168 -0.6591  0.7450
 1244SOL    HW2 4703   4.318   0.517   5.352 -1.2498  1.0229  0.1198
 1245SOL     OW 4704   0.055   0.955   6.833 -0.0518 -0.2589 -0.4228
 1245SOL    HW1 4705   0.037   1.021   6.901 -1.2826  0.7702 -1.6885
 1245SOL    HW2 4706   0.136   0.913   6.862 -0.2781  0.4644  1.4358
 1246SOL     OW 4707   6.482   3.148   4.109  0.8665 -0.6089  0.3796
 1246SOL    HW1 4708   6.452   3.147   4.018  0.4224 -1.0275  0.5250
 1246SOL    HW2 4709   6.454   3.234   4.142  1.9266 -0.0400 -0.1636
 1247SOL     OW 4710   4.023   6.844   4.805  0.2269 -0.6030  0.0956
 1247SOL    HW1 4711   3.947   6.797   4.841 -0.8734  2.0642  1.5879
 1247SOL    HW2 4712   4.033   6.920   4.863  1.6057  1.2398 -2.3825
 1248SOL     OW 4713   6.793   5.312   5.057 -0.3098  0.7777  0.7272
 1248SOL    HW1 4714   6.720   5.370   5.035 -0.6669 -0.0587 -0.3768
 1248SOL    HW2 4715   6.781   5.235   5.001  1.7528  0.8807  0.0503
 1249SOL     OW 4716   6.027   1.487   1.742 -0.2524 -0.2606 -1.0987
 1249SOL    HW1 4717   5.935   1.499   1.763 -0.2088 -2.4767  0.7816
 1249SOL    HW2 4718   6.030   1.488   1.646 -2.0555  0.6971 -1.1930
 1250SOL     OW 4719   1.681   0.761   6.703  0.0810 -0.5640  0.3521
 1250SOL    HW1 4720   1.709   0.852   6.691  1.7091 -0.8618  1.4703
 1250SOL    HW2 4721   1.607   0.750   6.644 -1.7421  2.1836  1.9381
 1251SOL     OW 4722   0.034   2.497   1.659 -0.2600 -0.5461  0.4484
 1251SOL    HW1 4723  -0.048   2.528   1.696 -1.0285 -1.3586 -0.5319
 1251SOL    HW2 4724   0.082   2.577   1.637 -0.3520 -0.0575  1.9120
 1252SOL     OW 4725   6.961   1.935   5.139 -0.8508 -0.0404  0.2111
 1252SOL    HW1 4726   7.007   1.882   5.074 -1.7799 -0.5210 -0.0850
 1252SOL    HW2 4727   7.016   2.011   5.152  0.4788 -1.0233  0.5736
 1253SOL     OW 4728   5.476   3.792   1.353  0.3639  0.0039  0.3278
 1253SOL    HW1 4729   5.451   3.700   1.349 -1.7373  0.5174  0.3349
 1253SOL    HW2 4730   5.572   3.792   1.352  0.3889 -2.1341 -0.2680
 1254SOL     OW 4731   6.695   6.884   3.965 -0.2147  0.1870 -0.5048
 1254SOL    HW1 4732   6.656   6.799   3.985 -1.5296 -0.1775 -3.9761
 1254SOL    HW2 4733   6.635   6.925   3.903  0.6918  3.4580  0.5495
 1255SOL     OW 4734   3.835   3.441   5.928 -0.2670  0.2421  0.2388
 1255SOL    HW1 4735   3.837   3.346   5.941  0.5747  0.4586  2.0167
 1255SOL    HW2 4736   3.927   3.468   5.929 -0.5288  1.2437  1.5139
 1256SOL     OW 4737   7.217   4.632   1.835 -0.7891 -0.3324  0.0264
 1256SOL    HW1 4738   7.200   4.591   1.750 -0.3337  0.2578 -0.3566
 1256SOL    HW2 4739   7.280   4.574   1.878 -0.0324  0.0363 -0.5746
 1257SOL     OW 4740   1.161   2.040   6.728  0.0506  0.0238  0.1471
 1257SOL    HW1 4741   1.210   1.961   6.750 -0.6914 -0.6202 -0.4749
 1257SOL    HW2 4742   1.140   2.030   6.635 -1.2501  0.2975  0.3973
 1258SOL     OW 4743   5.159   4.369   1.263 -0.3872  0.6326  0.5102
 1258SOL    HW1 4744   5.074   4.376   1.306 -0.1260 -1.7395  1.5415
 1258SOL    HW2 4745   5.140   4.333   1.177 -0.4548  0.2602  0.6789
 1259SOL     OW 4746   3.351   2.223   5.337 -0.3451 -0.2864  0.3749
 1259SOL    HW1 4747   3.289   2.152   5.354 -0.1261 -0.0497  2.3999
 1259SOL    HW2 4748   3.341   2.282   5.412  1.5723  0.3064  0.2129
 1260SOL     OW 4749   5.834   4.779   7.330 -0.0719  0.6181  0.1374
 1260SOL    HW1 4750   5.851   4.803   7.421 -1.3958  0.4081  0.4595
 1260SOL    HW2 4751   5.739   4.774   7.324 -0.0083  0.8169 -1.3164
 1261SOL     OW 4752   1.740   6.142   3.861  0.4766  0.6973  0.3054
 1261SOL    HW1 4753   1.799   6.168   3.791 -1.7209  1.0217 -1.5352
 1261SOL    HW2 4754   1.744   6.046   3.863  3.2014  0.7249  2.2665
 1262SOL     OW 4755   4.719   0.265   7.079 -0.3121  0.7714 -0.0144
 1262SOL    HW1 4756   4.792   0.276   7.018 -0.9138 -1.4114 -1.2296
 1262SOL    HW2 4757   4.644   0.304   7.034 -0.5589 -0.0020 -0.3005
 1263SOL     OW 4758   5.444   3.687   3.281  0.1633  0.1459  0.4766
 1263SOL    HW1 4759   5.399   3.715   3.202  0.6639  1.7921  0.7381
 1263SOL    HW2 4760   5.387   3.620   3.319 -0.2810 -0.3660 -1.0501
 1264SOL     OW 4761   2.246   2.989   4.001 -0.2667 -0.4815 -0.3314
 1264SOL    HW1 4762   2.169   3.001   3.945 -1.4056 -0.0980  1.2626
 1264SOL    HW2 4763   2.245   3.063   4.061  1.5491 -0.2892 -0.4660
 1265SOL     OW 4764   7.333   3.213   6.171 -0.6594 -0.5524  0.5465
 1265SOL    HW1 4765   7.365   3.131   6.209  0.2326  0.2964  1.6987
 1265SOL    HW2 4766   7.332   3.197   6.077 -1.3009 -2.1593  0.7931
 1266SOL     OW 4767   2.476   4.068   5.964 -0.2406 -0.3005  0.0752
 1266SOL    HW1 4768   2.561   4.091   6.001 -0.1549 -2.0586  1.0619
 1266SOL    HW2 4769   2.490   4.068   5.869  1.8240 -3.6754  0.2149
 1267SOL     OW 4770   6.990   2.224   0.501 -0.4483 -0.3225  0.0625
 1267SOL    HW1 4771   6.920   2.194   0.443  0.7293  0.3450 -1.8067
 1267SOL    HW2 4772   6.945   2.276   0.567 -1.6930  1.0134 -1.7117
 1268SOL     OW 4773   3.714   5.034   6.359 -0.0631  0.0900 -0.2946
 1268SOL    HW1 4774   3.693   4.976   6.432  1.4540 -0.6603 -0.4218
 1268SOL    HW2 4775   3.733   4.975   6.286  2.4648  0.6581 -0.1759
 1269SOL     OW 4776   1.175   0.452   1.461  0.0726  0.1068  0.4519
 1269SOL    HW1 4777   1.087   0.421   1.481  0.0799  0.4552  1.0417
 1269SOL    HW2 4778   1.164   0.544   1.438  0.1568 -0.1057 -0.4837
 1270SOL     OW 4779   3.398   3.919   2.509 -0.3533  0.1918 -0.2793
 1270SOL    HW1 4780   3.308   3.893   2.487  0.2949 -1.5227 -1.1181
 1270SOL    HW2 4781   3.436   3.945   2.425  0.2039  0.0232 -0.0809
 1271SOL     OW 4782   5.233   3.354   4.611 -0.0640 -0.5803  0.3167
 1271SOL    HW1 4783   5.284   3.353   4.530  0.6511 -0.6863  0.7633
 1271SOL    HW2 4784   5.237   3.264   4.643 -0.6006 -0.6075  0.3147
 1272SOL     OW 4785   1.867   1.017   1.932  0.3895  0.1969  0.1877
 1272SOL    HW1 4786   1.930   1.009   1.860  2.2714  1.0914  1.6338
 1272SOL    HW2 4787   1.854   1.111   1.941 -0.0196  0.0799  0.8668
 1273SOL     OW 4788   0.244   6.487   2.472  0.0027  0.0943  0.3092
 1273SOL    HW1 4789   0.170   6.434   2.443 -0.8113  0.5876  1.4141
 1273SOL    HW2 4790   0.314   6.467   2.410 -1.3235  0.3014 -1.3082
 1274SOL     OW 4791   4.781   6.378   0.256  0.2365  0.1226  0.7906
 1274SOL    HW1 4792   4.860   6.406   0.301  0.2915  3.0540 -0.8382
 1274SOL    HW2 4793   4.774   6.438   0.182 -1.6876 -2.2298 -1.1018
 1275SOL     OW 4794   7.335   4.204   5.522  0.4387 -0.2085  0.1935
 1275SOL    HW1 4795   7.262   4.189   5.462 -0.1213  3.5247 -0.3165
 1275SOL    HW2 4796   7.300   4.184   5.608 -0.5198 -0.4553 -0.2413
 1276SOL     OW 4797   3.713   2.145   2.941  0.2336  0.2770 -0.7254
 1276SOL    HW1 4798   3.670   2.228   2.920  1.4528  0.7934 -1.2980
 1276SOL    HW2 4799   3.721   2.100   2.857  0.1680 -0.1285 -0.5160
 1277SOL     OW 4800   1.778   1.810   2.632 -0.5612 -0.6221  0.3843
 1277SOL    HW1 4801   1.834   1.796   2.556 -0.6892  0.5283  0.0588
 1277SOL    HW2 4802   1.813   1.751   2.699  2.1264  1.1921  0.7532
 1278SOL     OW 4803   1.187   1.946   3.856 -0.0778  0.0500 -0.2833
 1278SOL    HW1 4804   1.234   1.921   3.935 -1.2045 -0.0389  0.3838
 1278SOL    HW2 4805   1.222   1.888   3.788  2.3681  1.5050 -0.3686
 1279SOL     OW 4806   3.590   3.774   4.773  0.0324  0.4968  0.4699
 1279SOL    HW1 4807   3.642   3.804   4.848  1.1165 -0.5905  0.1913
 1279SOL    HW2 4808   3.607   3.838   4.704  1.0600  0.1392  0.3732
 1280SOL     OW 4809   0.230   3.557   5.194 -0.2362 -0.6131 -0.1429
 1280SOL    HW1 4810   0.306   3.615   5.202  0.5436 -1.3536 -1.7833
 1280SOL    HW2 4811   0.209   3.533   5.285 -0.3303  1.8592  0.5590
 1281SOL     OW 4812   5.527   0.931   0.150 -0.2090  0.5528 -0.3790
 1281SOL    HW1 4813   5.467   0.970   0.214  1.6545  0.5526  1.4834
 1281SOL    HW2 4814   5.538   0.999   0.084 -0.4784  1.4442  0.4605
 1282SOL     OW 4815   4.041   4.494   6.289  0.1084 -0.0510  0.1756
 1282SOL    HW1 4816   3.958   4.542   6.296 -0.4339 -1.2108  2.8072
 1282SOL    HW2 4817   4.017   4.403   6.304  2.0344 -0.1748  3.4801
 1283SOL     OW 4818   0.042   6.342   3.329  0.2752  0.1448  0.3220
 1283SOL    HW1 4819  -0.009   6.296   3.395  1.9870 -0.8269  1.0462
 1283SOL    HW2 4820   0.009   6.432   3.331 -2.6247 -0.7820 -0.5753
 1284SOL     OW 4821   2.884   5.118   4.734  0.2596 -0.5841  0.3665
 1284SOL    HW1 4822   2.880   5.118   4.829  1.0591  0.0244  0.4062
 1284SOL    HW2 4823   2.801   5.156   4.706 -0.9246 -2.7376  0.7474
 1285SOL     OW 4824   5.123   6.592   6.237  0.0746  0.2033  0.1675
 1285SOL    HW1 4825   5.067   6.642   6.297  1.5520  0.8040  1.0983
 1285SOL    HW2 4826   5.102   6.501   6.257 -1.5989  0.3964 -0.5286
 1286SOL     OW 4827   3.959   6.718   3.282 -0.0214 -0.8588  0.7116
 1286SOL    HW1 4828   4.018   6.747   3.351  0.0302 -0.2516  0.4166
 1286SOL    HW2 4829   3.977   6.624   3.272  0.2390 -0.8656  1.2539
 1287SOL     OW 4830   5.837   0.906   1.271  0.0154  0.2003  0.0337
 1287SOL    HW1 4831   5.804   0.943   1.352  1.7450  0.7122  0.5384
 1287SOL    HW2 4832   5.869   0.981   1.221  2.1280 -0.3726  0.4105
 1288SOL     OW 4833   0.294   6.719   5.680  1.1318 -0.4690 -0.2638
 1288SOL    HW1 4834   0.353   6.752   5.747 -1.3434 -0.0247  1.8295
 1288SOL    HW2 4835   0.282   6.626   5.702 -1.5636  0.1846  1.5863
 1289SOL     OW 4836   5.548   2.408   1.152  0.2780  0.1682 -0.2676
 1289SOL    HW1 4837   5.513   2.459   1.079 -0.0566  2.2295  1.2498
 1289SOL    HW2 4838   5.635   2.443   1.167  0.4546 -0.4354  0.1560
 1290SOL     OW 4839   1.477   4.342   5.116  0.2849  0.3194  0.2310
 1290SOL    HW1 4840   1.549   4.403   5.099 -0.3423  1.1226  0.4346
 1290SOL    HW2 4841   1.466   4.343   5.211 -0.3758  0.6410  0.1536
 1291SOL     OW 4842   0.899   0.192   2.027  0.3807 -0.4489  0.4286
 1291SOL    HW1 4843   0.881   0.188   1.933 -1.2696 -2.1060  0.7468
 1291SOL    HW2 4844   0.818   0.224   2.065  0.5326 -1.1693  1.3902
 1292SOL     OW 4845   4.498   5.777   2.712 -0.0950  0.0195 -0.2458
 1292SOL    HW1 4846   4.578   5.726   2.695 -0.5119 -1.0112  0.8382
 1292SOL    HW2 4847   4.527   5.868   2.702  0.8103 -0.3718 -1.5721
 1293SOL     OW 4848   0.662   5.698   5.310 -0.1007  0.4768 -0.4314
 1293SOL    HW1 4849   0.567   5.694   5.324 -0.0423 -0.2779 -0.2333
 1293SOL    HW2 4850   0.695   5.613   5.340  0.5858  0.5586 -0.9293
 1294SOL     OW 4851   4.754   0.679   0.007 -0.7178 -0.5359  0.2484
 1294SOL    HW1 4852   4.676   0.730   0.028 -0.6992 -0.4177  0.0362
 1294SOL    HW2 4853   4.725   0.619  -0.062 -0.8769 -1.1807  0.8692
 1295SOL     OW 4854   3.745   4.995   5.386  0.2307 -0.2259  0.3639
 1295SOL    HW1 4855   3.810   5.037   5.442  1.2436 -1.2189 -0.0161
 1295SOL    HW2 4856   3.778   5.010   5.297 -1.2140  1.1067  0.0173
 1296SOL     OW 4857   0.973   3.303   5.388 -0.3363  0.1414  0.5711
 1296SOL    HW1 4858   0.888   3.337   5.414 -0.0898  2.5448 -1.4246
 1296SOL    HW2 4859   0.956   3.245   5.314 -0.3841 -1.3750  1.6981
 1297SOL     OW 4860   1.476   1.484   5.208 -0.3228  0.1303  0.1884
 1297SOL    HW1 4861   1.423   1.496   5.287  0.7385 -1.2375  1.1631
 1297SOL    HW2 4862   1.438   1.544   5.144 -1.1990  1.3086  1.7393
 1298SOL     OW 4863   1.020   2.795   3.726 -0.3026  0.1626 -0.2691
 1298SOL    HW1 4864   0.985   2.854   3.660  0.7923 -0.8277 -1.8088
 1298SOL    HW2 4865   1.011   2.708   3.687  0.5413 -0.4370  0.8111
 1299SOL     OW 4866   0.884   6.847   3.907 -0.1150  0.2027  0.3806
 1299SOL    HW1 4867   0.860   6.873   3.996  0.1264 -0.2146  0.5709
 1299SOL    HW2 4868   0.979   6.854   3.905 -0.0178 -1.0111  0.5474
 1300SOL     OW 4869   3.963   5.701   6.050 -0.0092 -0.2496 -0.4397
 1300SOL    HW1 4870   3.982   5.623   6.101  0.5838 -0.6016 -1.1821
 1300SOL    HW2 4871   3.873   5.723   6.072  0.0343 -0.7593  0.2706
 1301SOL     OW 4872   0.604   3.473   6.473 -0.2688  0.5012 -0.3815
 1301SOL    HW1 4873   0.677   3.476   6.534 -0.0362  1.9617 -0.6858
 1301SOL    HW2 4874   0.638   3.426   6.397 -0.6390 -1.5456  0.6741
 1302SOL     OW 4875   4.317   2.495   4.306  0.6271  0.5200  0.1765
 1302SOL    HW1 4876   4.239   2.472   4.257  1.4257  0.1763 -0.9929
 1302SOL    HW2 4877   4.323   2.429   4.375  2.0951 -2.1484 -2.2434
 1303SOL     OW 4878   1.490   3.995   4.161  0.2981  0.0228 -0.0838
 1303SOL    HW1 4879   1.495   4.063   4.228  0.2962  1.2698 -1.2876
 1303SOL    HW2 4880   1.405   3.953   4.175  0.5571 -0.1575  1.0480
 1304SOL     OW 4881   2.640   2.673   6.619 -0.1011  0.2975 -0.0018
 1304SOL    HW1 4882   2.671   2.611   6.554 -1.6510  0.4441 -0.9127
 1304SOL    HW2 4883   2.700   2.748   6.612 -0.3484  0.3841 -1.3894
 1305SOL     OW 4884   2.194   4.262   1.469 -0.0109 -0.1018  0.6434
 1305SOL    HW1 4885   2.129   4.212   1.518  0.7448 -1.3536  0.4212
 1305SOL    HW2 4886   2.270   4.265   1.528  0.0364  0.5983  0.5552
 1306SOL     OW 4887   6.754   0.446   6.512  0.2602  0.1705  0.3458
 1306SOL    HW1 4888   6.692   0.382   6.548 -0.8504  1.2278  0.3758
 1306SOL    HW2 4889   6.825   0.392   6.475  1.2841 -0.9916  3.6591
 1307SOL     OW 4890   4.462   6.311   5.932 -0.1225  0.2531 -0.2961
 1307SOL    HW1 4891   4.395   6.352   5.879 -1.6683  0.7266  1.8912
 1307SOL    HW2 4892   4.511   6.384   5.970  0.5561 -0.0614 -0.5439
 1308SOL     OW 4893   2.240   2.906   2.091  0.2662 -0.3264 -0.6209
 1308SOL    HW1 4894   2.188   2.983   2.116  0.1146 -0.3917 -0.7375
 1308SOL    HW2 4895   2.298   2.939   2.023  1.1401  0.0166  0.2602
 1309SOL     OW 4896   6.625   0.293   0.099 -0.4645  0.0915 -0.0792
 1309SOL    HW1 4897   6.564   0.358   0.065  0.4020  0.0112 -1.8827
 1309SOL    HW2 4898   6.705   0.306   0.048  0.1478 -1.5517  0.4087
 1310SOL     OW 4899   5.092   5.775   6.867  0.4097 -0.1110  0.0885
 1310SOL    HW1 4900   5.152   5.825   6.811  0.5428  1.0914  1.2307
 1310SOL    HW2 4901   5.101   5.817   6.953 -1.9337 -0.0046  0.3276
 1311SOL     OW 4902   4.090   4.526   3.512  0.0065 -0.8023 -0.2271
 1311SOL    HW1 4903   4.019   4.531   3.448 -0.2036 -2.4700 -0.1767
 1311SOL    HW2 4904   4.127   4.614   3.514 -1.7190 -0.0116 -0.6423
 1312SOL     OW 4905   3.189   7.078   0.109  0.1845  0.0343  0.0205
 1312SOL    HW1 4906   3.097   7.056   0.095  1.0031 -3.8875 -0.4470
 1312SOL    HW2 4907   3.190   7.130   0.189 -2.3996  0.0207  0.1450
 1313SOL     OW 4908   2.357   4.292   1.706 -0.5613  0.0389  0.0141
 1313SOL    HW1 4909   2.268   4.300   1.741 -0.6436 -1.4621  0.2505
 1313SOL    HW2 4910   2.401   4.235   1.769  0.6318  0.9120 -0.0146
 1314SOL     OW 4911   4.284   5.437   2.613  0.0142  0.0529 -0.4189
 1314SOL    HW1 4912   4.223   5.381   2.661 -0.4073  1.6173  0.9802
 1314SOL    HW2 4913   4.311   5.502   2.678  0.7477  1.2467 -1.8843
 1315SOL     OW 4914   3.067   1.581   1.104  0.2328  0.0103 -0.4943
 1315SOL    HW1 4915   3.015   1.616   1.176  0.0050 -1.1680 -0.0552
 1315SOL    HW2 4916   3.047   1.637   1.030 -1.5942 -0.3471 -0.3179
 1316SOL     OW 4917   1.027   3.527   3.718  0.1415 -0.3018  0.0052
 1316SOL    HW1 4918   0.955   3.581   3.686  0.8511  1.1462  0.7593
 1316SOL    HW2 4919   1.032   3.454   3.656  0.0693  1.2457 -1.9090
 1317SOL     OW 4920   4.281   6.541   0.230  0.1194 -0.0879  0.0689
 1317SOL    HW1 4921   4.197   6.500   0.209 -0.7336  1.7889 -0.4187
 1317SOL    HW2 4922   4.298   6.600   0.156  0.1140  2.1328  1.7455
 1318SOL     OW 4923   2.466   0.364   3.522  0.1317 -0.5859 -0.2831
 1318SOL    HW1 4924   2.530   0.390   3.456 -0.5864 -0.3938 -0.9083
 1318SOL    HW2 4925   2.415   0.295   3.480  0.0030 -0.8264  0.2602
 1319SOL     OW 4926   4.166   5.320   0.967 -0.2719 -0.2069  0.3526
 1319SOL    HW1 4927   4.244   5.360   0.928 -2.1577  2.5365 -0.8907
 1319SOL    HW2 4928   4.147   5.375   1.043 -3.4021  2.1002 -1.8605
 1320SOL     OW 4929   2.989   4.716   4.276 -0.0155  0.0198  0.2264
 1320SOL    HW1 4930   3.046   4.644   4.302 -0.9856 -0.1204  2.1153
 1320SOL    HW2 4931   2.930   4.678   4.211  0.7328 -0.3581 -0.2430
 1321SOL     OW 4932   2.082   5.605   0.843  0.5508 -0.4182  0.0852
 1321SOL    HW1 4933   2.161   5.591   0.897  1.6082 -0.1501 -1.3378
 1321SOL    HW2 4934   2.104   5.567   0.758 -1.8949 -2.8529  0.3986
 1322SOL     OW 4935   1.947   2.383   7.023  0.2069 -0.4848  0.4716
 1322SOL    HW1 4936   1.951   2.322   6.949 -0.7693  0.9827 -0.8594
 1322SOL    HW2 4937   1.860   2.369   7.061 -0.5789  0.9699 -0.6988
 1323SOL     OW 4938   3.098   4.360   4.938 -0.4019  0.4141 -0.2729
 1323SOL    HW1 4939   3.108   4.422   5.010  1.3437 -0.0135 -0.0871
 1323SOL    HW2 4940   3.124   4.275   4.975 -0.3685  0.0236 -1.1568
 1324SOL     OW 4941   6.830   6.713   0.958  0.2087  0.0198 -0.1260
 1324SOL    HW1 4942   6.925   6.712   0.958  0.2302  0.9143  0.1222
 1324SOL    HW2 4943   6.807   6.776   1.026 -0.5442  0.3114 -0.6368
 1325SOL     OW 4944   2.046   3.022   7.249 -0.2696 -0.5528  0.1248
 1325SOL    HW1 4945   2.025   2.929   7.253  0.7722 -0.9248 -1.6059
 1325SOL    HW2 4946   2.134   3.024   7.211  0.2368  1.1039  1.3110
 1326SOL     OW 4947   2.277   5.714   2.798 -0.3556 -0.8790 -0.0257
 1326SOL    HW1 4948   2.314   5.768   2.868 -0.6573 -0.6505 -0.0403
 1326SOL    HW2 4949   2.224   5.775   2.746 -0.4840 -1.1351 -0.1967
 1327SOL     OW 4950   1.613   0.879   6.055  0.5204  0.7801  0.7530
 1327SOL    HW1 4951   1.701   0.918   6.058  1.0977  0.0161 -2.0774
 1327SOL    HW2 4952   1.628   0.792   6.017 -1.4583  0.7044  0.0226
 1328SOL     OW 4953   2.241   0.391   5.463  0.3373 -0.2729  0.7366
 1328SOL    HW1 4954   2.251   0.469   5.517  0.3255 -0.1820  0.6079
 1328SOL    HW2 4955   2.250   0.422   5.373  1.0049 -0.5241  0.7133
 1329SOL     OW 4956   5.409   4.813   7.052  0.3506 -0.3181  0.3841
 1329SOL    HW1 4957   5.355   4.743   7.089  0.0903  0.5900  1.7856
 1329SOL    HW2 4958   5.458   4.771   6.981 -1.0893 -1.5033  0.0545
 1330SOL     OW 4959   3.782   0.348   6.009 -0.0238  0.4709 -0.4277
 1330SOL    HW1 4960   3.808   0.437   6.030 -1.1183  0.7331 -0.1165
 1330SOL    HW2 4961   3.754   0.352   5.917 -0.6814  0.5913 -0.2230
 1331SOL     OW 4962   5.836   2.439   3.206 -0.0377  0.3430  0.4632
 1331SOL    HW1 4963   5.752   2.395   3.219 -0.6856  0.7902 -1.7865
 1331SOL    HW2 4964   5.814   2.522   3.164  1.4798  0.7136  0.3364
 1332SOL     OW 4965   1.101   3.534   1.601 -0.2762  0.0830  0.5382
 1332SOL    HW1 4966   1.120   3.612   1.549 -1.1699  0.3486  0.5948
 1332SOL    HW2 4967   1.020   3.555   1.647 -0.2146 -0.6612  1.0003
 1333SOL     OW 4968   3.632   6.800   1.851  0.0619  0.6826 -0.6359
 1333SOL    HW1 4969   3.542   6.770   1.841  0.1493  0.2501 -0.1618
 1333SOL    HW2 4970   3.677   6.767   1.773  0.6321 -2.2449  0.8087
 1334SOL     OW 4971   0.799   3.625   7.032 -0.0925  0.3008 -0.1739
 1334SOL    HW1 4972   0.856   3.554   7.003 -0.6989 -0.1552 -0.2623
 1334SOL    HW2 4973   0.842   3.704   6.998  0.8058  0.0252  0.2803
 1335SOL     OW 4974   0.863   2.940   6.802  0.4349 -0.2569 -0.1763
 1335SOL    HW1 4975   0.939   2.949   6.745  0.6686  0.3520  0.2232
 1335SOL    HW2 4976   0.873   3.010   6.867 -1.3398  0.9790 -1.1383
 1336SOL     OW 4977   5.440   1.829   2.863  0.3044 -0.8668 -0.6365
 1336SOL    HW1 4978   5.451   1.751   2.807 -1.2984 -0.6671 -1.2700
 1336SOL    HW2 4979   5.384   1.887   2.812 -2.9351 -1.4775  1.9064
 1337SOL     OW 4980   5.591   3.404   3.210 -0.0670  0.3359 -0.5177
 1337SOL    HW1 4981   5.635   3.470   3.156 -1.2963  1.1513 -0.5589
 1337SOL    HW2 4982   5.597   3.438   3.299 -0.0293  0.1085 -0.4327
 1338SOL     OW 4983   6.909   2.832   7.231  0.2724 -0.3408  0.4685
 1338SOL    HW1 4984   6.895   2.738   7.240  0.0927 -0.1425  3.0597
 1338SOL    HW2 4985   6.821   2.869   7.230  0.3166 -0.1862 -1.2472
 1339SOL     OW 4986   5.396   0.659   6.700 -0.0310  0.2113  0.0424
 1339SOL    HW1 4987   5.475   0.712   6.707 -0.1375  0.2471  1.1817
 1339SOL    HW2 4988   5.420   0.588   6.641  0.2221  1.3122 -1.2112
 1340SOL     OW 4989   1.920   2.759   7.210  0.5589 -0.2468 -0.2896
 1340SOL    HW1 4990   1.892   2.751   7.302  0.4806 -0.9566 -0.3713
 1340SOL    HW2 4991   1.840   2.783   7.163  0.5625 -0.0542 -0.1991
 1341SOL     OW 4992   0.382   4.391   2.489 -0.1057  0.2952 -0.9821
 1341SOL    HW1 4993   0.378   4.481   2.522 -1.0456 -0.1705  0.2157
 1341SOL    HW2 4994   0.476   4.374   2.481  0.0904  1.3973 -1.3009
 1342SOL     OW 4995   1.293   2.483   3.173 -0.1894  0.1337 -0.1073
 1342SOL    HW1 4996   1.255   2.415   3.117  0.3922 -0.3952  0.1402
 1342SOL    HW2 4997   1.217   2.533   3.203 -0.8663 -1.7717  1.5332
 1343SOL     OW 4998   2.809   3.001   7.161 -0.0159 -0.5811 -0.2643
 1343SOL    HW1 4999   2.859   2.965   7.234 -0.1176 -0.3696 -0.0901
 1343SOL    HW2 5000   2.841   3.090   7.150 -0.2331 -0.5007 -0.2614
 1344SOL     OW 5001   3.071   4.826   6.718 -0.4687 -0.0014 -0.1477
 1344SOL    HW1 5002   2.982   4.833   6.683 -0.4762 -0.8336 -0.3186
 1344SOL    HW2 5003   3.121   4.783   6.648  0.4848  1.9407 -0.7511
 1345SOL     OW 5004   2.564   6.412   5.693 -0.0679 -0.4905 -0.0628
 1345SOL    HW1 5005   2.499   6.470   5.652  2.8929  3.2686  0.0615
 1345SOL    HW2 5006   2.550   6.423   5.787  0.3171 -0.2208 -0.0383
 1346SOL     OW 5007   6.678   6.396   2.411 -0.0028  0.0942  0.1231
 1346SOL    HW1 5008   6.701   6.361   2.497 -1.5950 -0.7445  0.2609
 1346SOL    HW2 5009   6.608   6.338   2.380 -0.4277  1.2176 -1.1183
 1347SOL     OW 5010   1.771   6.804   1.864 -0.7971  0.5667  0.0777
 1347SOL    HW1 5011   1.768   6.821   1.770  1.7507 -0.2833 -0.2305
 1347SOL    HW2 5012   1.681   6.780   1.887 -1.5135  0.9874 -2.0726
 1348SOL     OW 5013   6.585   5.419   2.757 -0.2381  0.4983  0.5520
 1348SOL    HW1 5014   6.555   5.418   2.848 -0.2151 -1.5754  0.5814
 1348SOL    HW2 5015   6.535   5.350   2.714  3.0904 -1.9731  0.1921
 1349SOL     OW 5016   3.873   1.092   1.912  0.2106 -0.3221 -0.0914
 1349SOL    HW1 5017   3.820   1.132   1.981 -0.1143 -1.9464  0.6459
 1349SOL    HW2 5018   3.820   1.019   1.880  0.8058 -0.2212 -1.3386
 1350SOL     OW 5019   5.668   3.832   3.267 -0.1471 -0.2717  0.8419
 1350SOL    HW1 5020   5.662   3.852   3.174 -0.2960 -1.0203  0.6826
 1350SOL    HW2 5021   5.591   3.778   3.285  1.0375 -2.0042  0.8965
 1351SOL     OW 5022   6.073   4.593   7.134 -0.5998 -0.3908 -0.0696
 1351SOL    HW1 5023   6.093   4.508   7.095 -0.6148 -1.5267  2.2480
 1351SOL    HW2 5024   6.138   4.604   7.203 -2.3903  0.0407  1.6409
 1352SOL     OW 5025   4.594   6.900   5.749 -0.1495 -0.2056  0.4094
 1352SOL    HW1 5026   4.597   6.983   5.797 -0.5123  0.7437 -1.1307
 1352SOL    HW2 5027   4.514   6.906   5.696  0.5698 -0.9161 -0.7934
 1353SOL     OW 5028   5.997   2.579   1.057  0.4882 -0.4431  0.0410
 1353SOL    HW1 5029   5.932   2.636   1.098  1.6253 -0.2600  1.6561
 1353SOL    HW2 5030   6.039   2.634   0.991  0.0866 -0.1011  0.0627
 1354SOL     OW 5031   5.548   4.611   0.911 -0.0020 -0.8744  0.1705
 1354SOL    HW1 5032   5.453   4.601   0.911 -0.3050  0.5750 -3.0531
 1354SOL    HW2 5033   5.563   4.703   0.931  0.9658 -1.5292  2.8637
 1355SOL     OW 5034   3.522   5.648   1.231 -0.1425 -0.2382  0.2774
 1355SOL    HW1 5035   3.468   5.720   1.266  1.0196  0.0013  1.6722
 1355SOL    HW2 5036   3.581   5.626   1.302 -1.6438 -3.8876  0.6000
 1356SOL     OW 5037   4.361   3.694   5.604 -0.2236 -0.2959  0.1382
 1356SOL    HW1 5038   4.440   3.693   5.658 -0.4013 -1.6315  0.4082
 1356SOL    HW2 5039   4.375   3.624   5.540 -1.3856 -0.8861  0.5051
 1357SOL     OW 5040   1.396   6.788   1.891  0.0883  0.1812  0.2094
 1357SOL    HW1 5041   1.345   6.764   1.813  1.0184  1.9421 -1.0162
 1357SOL    HW2 5042   1.331   6.824   1.952 -0.5648 -0.6008 -0.0142
 1358SOL     OW 5043   7.062   2.394   2.362  0.2499 -0.2823  0.0675
 1358SOL    HW1 5044   7.047   2.485   2.336 -0.7314 -0.2098  0.8190
 1358SOL    HW2 5045   7.092   2.351   2.282 -0.2657  0.4822 -0.5538
 1359SOL     OW 5046   2.896   1.578   2.325  0.0183  0.1239 -0.0542
 1359SOL    HW1 5047   2.961   1.511   2.302 -0.2274  0.1258 -0.7926
 1359SOL    HW2 5048   2.917   1.652   2.268 -0.0341  0.4859  0.3932
 1360SOL     OW 5049   5.486   6.519   4.305  0.4743 -0.1144  0.2721
 1360SOL    HW1 5050   5.548   6.558   4.244  2.7409 -3.9166 -0.1999
 1360SOL    HW2 5051   5.523   6.537   4.392  0.8414 -0.1796  0.1314
 1361SOL     OW 5052   3.231   5.959   0.548 -0.5063 -0.2989 -0.1516
 1361SOL    HW1 5053   3.310   6.007   0.521 -1.3260  0.7687 -0.7456
 1361SOL    HW2 5054   3.163   5.991   0.489 -2.0681  1.0281  2.2363
 1362SOL     OW 5055   4.959   5.376   6.152 -0.3812 -0.0373  0.5366
 1362SOL    HW1 5056   4.949   5.445   6.087 -2.7296 -0.2786  0.5705
 1362SOL    HW2 5057   4.986   5.299   6.102 -0.2991  0.2639  0.1187
 1363SOL     OW 5058   3.411   2.925   2.040  0.2245  0.5967  0.1243
 1363SOL    HW1 5059   3.489   2.874   2.019  0.5279  0.2566  1.9439
 1363SOL    HW2 5060   3.376   2.951   1.955  0.8946 -1.3924 -0.8322
 1364SOL     OW 5061   3.876   5.063   0.108  0.1771  0.2528  0.1020
 1364SOL    HW1 5062   3.872   4.980   0.060  2.2807 -0.6882  1.4110
 1364SOL    HW2 5063   3.873   5.130   0.039 -0.6357 -0.9147 -1.0460
 1365SOL     OW 5064   4.243   4.770   1.607  0.5076 -0.1181  0.3322
 1365SOL    HW1 5065   4.321   4.752   1.555 -0.1592 -0.1243 -0.6868
 1365SOL    HW2 5066   4.209   4.683   1.631 -0.6732 -0.2184 -1.5133
 1366SOL     OW 5067   3.941   5.936   4.934 -0.5282 -0.5650 -0.7542
 1366SOL    HW1 5068   3.871   5.884   4.894 -3.6158  2.0440  0.7877
 1366SOL    HW2 5069   3.943   5.906   5.025 -0.4668  0.1629 -0.5093
 1367SOL     OW 5070   4.082   2.666   5.879 -0.1877  0.0394 -0.5890
 1367SOL    HW1 5071   4.100   2.572   5.876  1.3343  0.3074 -0.5746
 1367SOL    HW2 5072   3.995   2.672   5.919 -0.3935 -1.3565 -0.7563
 1368SOL     OW 5073   4.771   1.417   3.978  0.4089 -0.3021 -0.1028
 1368SOL    HW1 5074   4.708   1.415   4.051  0.7852 -0.5427  0.2202
 1368SOL    HW2 5075   4.740   1.350   3.918 -1.1922  1.3883 -1.2677
 1369SOL     OW 5076   6.252   1.248   1.549 -0.0522 -0.2139  0.0264
 1369SOL    HW1 5077   6.164   1.212   1.538  0.1093 -0.6335  0.1020
 1369SOL    HW2 5078   6.308   1.191   1.496  0.1338  0.2276 -0.2554
 1370SOL     OW 5079   0.517   1.857   7.134  0.0943  0.7007  0.0627
 1370SOL    HW1 5080   0.497   1.867   7.227  0.3283 -0.9456  0.3036
 1370SOL    HW2 5081   0.611   1.874   7.127  0.0572  0.9285  0.0993
 1371SOL     OW 5082   2.372   1.663   1.241 -0.5276 -0.7611  0.7673
 1371SOL    HW1 5083   2.400   1.596   1.178  0.8512  0.0312  0.4889
 1371SOL    HW2 5084   2.448   1.676   1.298 -1.2847 -0.4760  1.7428
 1372SOL     OW 5085   3.193   3.708   5.965  0.1934  0.0817 -0.1539
 1372SOL    HW1 5086   3.186   3.686   6.058  1.1922 -1.7771 -0.4834
 1372SOL    HW2 5087   3.276   3.670   5.937 -0.6197 -0.3960 -2.0793
 1373SOL     OW 5088   6.629   6.712   1.455  0.2604  0.1206  0.0465
 1373SOL    HW1 5089   6.643   6.712   1.360 -0.6095  0.4979 -0.0918
 1373SOL    HW2 5090   6.534   6.701   1.465  0.5369 -1.8550  0.9195
 1374SOL     OW 5091   7.172   0.282   5.456  0.7733 -0.3494 -0.0600
 1374SOL    HW1 5092   7.248   0.244   5.413 -0.9525  0.0321 -3.8568
 1374SOL    HW2 5093   7.136   0.211   5.509  1.9502 -1.5540 -0.8160
 1375SOL     OW 5094   3.577   6.766   1.387 -0.3371 -0.0548 -0.2638
 1375SOL    HW1 5095   3.561   6.794   1.297 -0.0555 -1.3839 -0.7405
 1375SOL    HW2 5096   3.672   6.775   1.398 -0.4804  1.1003  0.2707
 1376SOL     OW 5097   3.248   3.171   3.335 -0.1300 -0.2865 -0.2869
 1376SOL    HW1 5098   3.328   3.171   3.387 -0.9197 -1.4496  0.9926
 1376SOL    HW2 5099   3.217   3.081   3.338 -0.3791 -0.3539 -2.5971
 1377SOL     OW 5100   6.482   1.493   0.522 -0.2501 -0.5066 -0.0050
 1377SOL    HW1 5101   6.494   1.503   0.616 -0.8443  0.7556 -0.0382
 1377SOL    HW2 5102   6.422   1.419   0.512 -0.7493 -0.1894  0.6429
 1378SOL     OW 5103   3.459   1.173   6.853  0.0909 -0.0172 -0.5718
 1378SOL    HW1 5104   3.507   1.236   6.906 -0.2797  0.3832 -0.7054
 1378SOL    HW2 5105   3.391   1.224   6.810 -1.6230 -0.8609  0.9882
 1379SOL     OW 5106   2.648   1.101   3.478 -0.1581  0.5347 -0.4261
 1379SOL    HW1 5107   2.604   1.082   3.395 -4.0101  3.8671  0.5116
 1379SOL    HW2 5108   2.601   1.047   3.542 -0.2352  1.2084  0.0984
 1380SOL     OW 5109   2.690   0.530   4.170  0.3594  0.2344  0.0187
 1380SOL    HW1 5110   2.649   0.524   4.083 -0.2398  0.4794  0.2710
 1380SOL    HW2 5111   2.632   0.590   4.218  0.5771 -0.0596  0.6466
 1381SOL     OW 5112   3.703   3.962   4.952 -0.4274  1.0619 -0.2442
 1381SOL    HW1 5113   3.761   4.036   4.973 -0.1695  0.9165 -0.4336
 1381SOL    HW2 5114   3.615   3.994   4.972 -0.2150  1.0143  0.8077
 1382SOL     OW 5115   1.975   5.954   4.738 -0.2287 -0.2213 -0.6240
 1382SOL    HW1 5116   1.906   5.925   4.679 -0.6907  0.4897 -0.4548
 1382SOL    HW2 5117   1.929   6.002   4.807  0.2400 -1.5040  0.6268
 1383SOL     OW 5118   1.857   6.088   7.177  0.3388  0.4187 -0.3737
 1383SOL    HW1 5119   1.822   6.037   7.104  0.8619 -0.2694 -0.1586
 1383SOL    HW2 5120   1.951   6.091   7.161  0.7615 -1.4666  1.2699
 1384SOL     OW 5121   3.757   4.264   0.895  0.5727 -1.0136  0.2251
 1384SOL    HW1 5122   3.839   4.249   0.943  1.3413 -0.5100 -0.8920
 1384SOL    HW2 5123   3.772   4.345   0.846 -1.2665  0.1276  1.3792
 1385SOL     OW 5124   0.289   5.016   6.382  0.3036 -0.0290 -0.0809
 1385SOL    HW1 5125   0.351   4.979   6.445 -0.1409  0.4567  0.6581
 1385SOL    HW2 5126   0.302   5.110   6.388  0.1530  0.0296 -0.6211
 1386SOL     OW 5127   5.897   1.623   3.333 -0.4480 -0.5247 -0.2285
 1386SOL    HW1 5128   5.921   1.697   3.278 -1.3634 -0.5113 -0.6338
 1386SOL    HW2 5129   5.901   1.547   3.275  1.6665 -1.0100  0.4741
 1387SOL     OW 5130   7.039   0.020   2.503  0.6723 -0.2665 -0.0667
 1387SOL    HW1 5131   7.090   0.058   2.431  1.3036  0.9494  0.9665
 1387SOL    HW2 5132   6.948   0.044   2.483  0.6690 -1.0406 -1.0852
 1388SOL     OW 5133   1.693   4.789   3.189 -0.6702  0.2049 -0.6677
 1388SOL    HW1 5134   1.653   4.709   3.224  0.1457  0.7476  1.6359
 1388SOL    HW2 5135   1.704   4.846   3.264  0.4342  1.8090 -1.9724
 1389SOL     OW 5136   6.752   4.320   6.615 -0.1647 -0.0507  0.5229
 1389SOL    HW1 5137   6.758   4.282   6.527  0.6600 -0.8110  0.8852
 1389SOL    HW2 5138   6.843   4.333   6.641 -0.3930 -0.2154  1.4198
 1390SOL     OW 5139   5.266   3.298   0.188  0.2908  0.0926  0.0706
 1390SOL    HW1 5140   5.203   3.364   0.159  0.5440  0.8955  1.2890
 1390SOL    HW2 5141   5.348   3.346   0.199  0.1092 -0.0398  2.5315
 1391SOL     OW 5142   1.880   0.558   0.629  0.2410 -0.7216 -0.0329
 1391SOL    HW1 5143   1.970   0.555   0.662  0.2942  0.0593 -0.0877
 1391SOL    HW2 5144   1.829   0.509   0.694  0.1764  1.5971  1.7976
 1392SOL     OW 5145   3.533   4.916   4.367  0.6593  0.3116 -0.2124
 1392SOL    HW1 5146   3.550   4.866   4.447 -2.0748  0.2466  0.4198
 1392SOL    HW2 5147   3.439   4.903   4.350  1.1203  0.3356 -3.4374
 1393SOL     OW 5148   1.534   4.999   3.147 -0.6655  0.4722  0.0403
 1393SOL    HW1 5149   1.507   5.014   3.056 -1.5640  1.2122  0.4218
 1393SOL    HW2 5150   1.611   4.941   3.139 -2.4295 -1.8986 -1.0705
 1394SOL     OW 5151   0.498   0.701   3.078 -0.5053 -0.0378  0.0076
 1394SOL    HW1 5152   0.497   0.681   2.984 -0.7638 -1.7003  0.3303
 1394SOL    HW2 5153   0.590   0.717   3.099 -0.5596  1.4252 -0.7024
 1395SOL     OW 5154   2.761   2.134   1.675 -0.1911  0.5014 -0.4328
 1395SOL    HW1 5155   2.726   2.197   1.737 -0.3595  0.6528 -0.6826
 1395SOL    HW2 5156   2.814   2.186   1.615 -0.3573  0.4065 -0.6580
 1396SOL     OW 5157   3.899   1.458   2.857 -0.3085 -0.0657  0.3450
 1396SOL    HW1 5158   3.933   1.397   2.922 -0.8233 -1.0973 -0.3204
 1396SOL    HW2 5159   3.852   1.524   2.908 -1.7615 -1.5260  1.0001
 1397SOL     OW 5160   0.722   0.421   3.837 -0.5417 -0.1496 -0.1298
 1397SOL    HW1 5161   0.684   0.367   3.767  1.8331 -0.9857 -0.8520
 1397SOL    HW2 5162   0.754   0.499   3.793  0.7654 -0.5779  0.0208
 1398SOL     OW 5163   1.625   5.863   0.707  0.2985 -0.4152  0.2656
 1398SOL    HW1 5164   1.697   5.913   0.747  0.0307  0.8638 -0.7637
 1398SOL    HW2 5165   1.621   5.782   0.757 -2.0883  2.2259  5.0814
 1399SOL     OW 5166   2.525   5.159   7.106 -0.3256 -0.5032 -0.1621
 1399SOL    HW1 5167   2.461   5.122   7.044 -0.3445  0.4747 -0.7491
 1399SOL    HW2 5168   2.472   5.198   7.175 -0.3046 -1.5910  0.4994
 1400SOL     OW 5169   0.834   1.083   7.180  0.0481 -0.6436  0.0149
 1400SOL    HW1 5170   0.883   1.096   7.262  0.6526 -1.9408 -0.1112
 1400SOL    HW2 5171   0.778   1.008   7.198 -0.1973 -0.6081 -0.6041
 1401SOL     OW 5172   5.822   5.165   2.326 -0.4258 -0.3462 -0.3568
 1401SOL    HW1 5173   5.869   5.207   2.254  0.0744  1.6443  1.0238
 1401SOL    HW2 5174   5.840   5.221   2.402 -1.1176 -2.2181  1.2803
 1402SOL     OW 5175   2.919   6.493   5.975  0.1678  0.3029 -0.2350
 1402SOL    HW1 5176   2.839   6.543   5.989  0.1549 -0.1378  1.4641
 1402SOL    HW2 5177   2.989   6.550   6.008  0.3477 -0.0412 -0.0114
 1403SOL     OW 5178   3.623   7.262   6.489  0.2360  0.1023  0.2884
 1403SOL    HW1 5179   3.609   7.351   6.523 -1.0893  0.0777 -0.1466
 1403SOL    HW2 5180   3.718   7.256   6.477  0.2518  1.8866 -0.7849
 1404SOL     OW 5181   2.054   1.806   6.381 -0.0947 -0.0650  0.0898
 1404SOL    HW1 5182   2.123   1.795   6.446  0.5331  1.1930 -0.3395
 1404SOL    HW2 5183   2.011   1.720   6.376  2.5600 -1.4334 -0.9276
 1405SOL     OW 5184   3.895   1.014   4.896  0.1831  0.1958  0.3458
 1405SOL    HW1 5185   3.918   0.929   4.933  1.5741  0.3388 -0.1476
 1405SOL    HW2 5186   3.848   0.992   4.815 -0.6921 -0.0926  0.9166
 1406SOL     OW 5187   6.063   7.278   2.774 -0.0791  0.7389 -0.2411
 1406SOL    HW1 5188   5.996   7.319   2.828 -0.0444  0.6524 -0.1303
 1406SOL    HW2 5189   6.143   7.282   2.828 -0.3321 -0.5455  0.2786
 1407SOL     OW 5190   3.378   1.653   3.108 -0.2772  0.5168  0.0439
 1407SOL    HW1 5191   3.411   1.731   3.063  0.8135 -0.4167 -0.8206
 1407SOL    HW2 5192   3.419   1.655   3.194 -0.6361  1.1355  0.2108
 1408SOL     OW 5193   5.987   3.138   5.393 -0.2635 -0.0085 -0.0305
 1408SOL    HW1 5194   5.893   3.156   5.392 -0.2448  0.1098  0.4002
 1408SOL    HW2 5195   6.028   3.223   5.376 -0.2512 -0.2366 -1.2676
 1409SOL     OW 5196   5.292   1.626   6.151  0.3074  0.4831  0.0895
 1409SOL    HW1 5197   5.362   1.579   6.107 -3.2379 -3.5859 -2.0222
 1409SOL    HW2 5198   5.256   1.685   6.085  0.4497  1.0446  0.5026
 1410SOL     OW 5199   4.861   6.196   7.379  0.2941 -0.5929 -0.3631
 1410SOL    HW1 5200   4.779   6.214   7.426  0.5706 -1.1822  0.3469
 1410SOL    HW2 5201   4.921   6.264   7.409  0.1785 -0.3756 -0.6163
 1411SOL     OW 5202   1.154   5.642   1.466  0.0686  0.0957 -0.0922
 1411SOL    HW1 5203   1.159   5.716   1.406  1.0488  1.4832  1.5995
 1411SOL    HW2 5204   1.243   5.606   1.467  0.6364  1.3597  1.9483
 1412SOL     OW 5205   3.370   0.143   1.524  0.2140 -0.4051  0.2261
 1412SOL    HW1 5206   3.297   0.166   1.581  0.5702 -0.2999  0.6435
 1412SOL    HW2 5207   3.338   0.161   1.436  1.0624  3.5916  0.5479
 1413SOL     OW 5208   3.545   2.363   2.812 -0.2199  0.1354 -0.0202
 1413SOL    HW1 5209   3.580   2.433   2.757  1.0902 -0.2701  0.2801
 1413SOL    HW2 5210   3.450   2.366   2.796 -0.0738  1.2884 -0.8000
 1414SOL     OW 5211   3.486   4.988   5.001  0.5388  0.7182 -0.4070
 1414SOL    HW1 5212   3.424   5.060   5.005 -1.2470 -0.6597 -1.8553
 1414SOL    HW2 5213   3.567   5.025   5.036 -0.6478  3.0201  0.1194
 1415SOL     OW 5214   7.125   3.863   5.700  0.5175  0.1227  0.2903
 1415SOL    HW1 5215   7.055   3.872   5.634  2.1652  0.0880 -1.5673
 1415SOL    HW2 5216   7.103   3.784   5.749 -1.0994  0.5029  0.2290
 1416SOL     OW 5217   0.960   1.479   6.882  0.5785  0.0711  0.1045
 1416SOL    HW1 5218   0.952   1.390   6.915 -2.2111  0.3758  0.5314
 1416SOL    HW2 5219   1.045   1.510   6.914  0.8722 -1.8734  1.3392
 1417SOL     OW 5220   6.407   5.435   5.954 -0.3019 -0.3965  0.0788
 1417SOL    HW1 5221   6.455   5.382   6.018 -0.2101 -0.0716  0.2808
 1417SOL    HW2 5222   6.471   5.499   5.923 -0.6074  0.0415  0.3490
 1418SOL     OW 5223   5.638   6.104   0.578 -0.0003 -0.1686  0.5401
 1418SOL    HW1 5224   5.613   6.194   0.598  2.3021  1.1303 -1.7600
 1418SOL    HW2 5225   5.556   6.055   0.581 -1.6139  2.3177  0.2799
 1419SOL     OW 5226   3.762   2.987   3.249  0.1674  0.2835 -0.0770
 1419SOL    HW1 5227   3.772   2.957   3.159 -0.3148  1.8978 -0.6931
 1419SOL    HW2 5228   3.679   3.035   3.249 -0.4587 -0.7195  1.5275
 1420SOL     OW 5229   0.581   0.485   6.075  0.3111  0.0881  0.1886
 1420SOL    HW1 5230   0.661   0.442   6.108  1.1063  1.1354 -0.3170
 1420SOL    HW2 5231   0.612   0.569   6.041 -1.0778  0.6572  0.3049
 1421SOL     OW 5232   0.537   2.878   3.005 -0.6532 -0.7386  0.0748
 1421SOL    HW1 5233   0.520   2.965   2.970 -3.2150 -1.2057 -0.0438
 1421SOL    HW2 5234   0.576   2.830   2.931  0.2552  0.1090 -0.0234
 1422SOL     OW 5235   0.034   3.804   5.777  0.7114  0.5170 -0.5604
 1422SOL    HW1 5236  -0.034   3.798   5.843 -0.0346 -0.2664 -1.3773
 1422SOL    HW2 5237   0.110   3.761   5.817  0.2313 -0.0642 -0.2601
 1423SOL     OW 5238   1.765   2.913   5.681  0.0216  0.5404  0.3551
 1423SOL    HW1 5239   1.682   2.875   5.709 -0.0212 -0.3175 -0.8214
 1423SOL    HW2 5240   1.743   2.969   5.607  0.5458 -0.3854 -0.5487
 1424SOL     OW 5241   4.503   6.048   6.321  0.2876  0.0563 -0.4086
 1424SOL    HW1 5242   4.485   6.139   6.342 -0.4163  0.0102 -0.7665
 1424SOL    HW2 5243   4.463   5.998   6.392 -2.9962 -0.1527 -2.1881
 1425SOL     OW 5244   1.140   0.396   5.861  0.0624 -0.1385  0.4172
 1425SOL    HW1 5245   1.234   0.391   5.844 -0.1502 -0.6168 -0.7124
 1425SOL    HW2 5246   1.113   0.480   5.822  0.0279  0.0374  0.8127
 1426SOL     OW 5247   3.036   3.094   4.230  0.0080 -0.4993 -0.1143
 1426SOL    HW1 5248   3.030   3.151   4.153 -0.2838  0.5792  0.6676
 1426SOL    HW2 5249   2.981   3.138   4.295  0.0953 -1.4926  0.6462
 1427SOL     OW 5250   3.420   5.092   0.297 -0.1853 -0.1907  0.1605
 1427SOL    HW1 5251   3.484   5.120   0.231  0.3383  0.6832  1.0203
 1427SOL    HW2 5252   3.445   5.138   0.377  1.5906 -4.1027  2.1407
 1428SOL     OW 5253   4.818   3.091   6.766  0.1692  0.5140  0.2328
 1428SOL    HW1 5254   4.861   3.134   6.692  1.2038 -2.3381 -0.9799
 1428SOL    HW2 5255   4.745   3.043   6.727  0.4034 -0.6252  1.1489
 1429SOL     OW 5256   0.063   3.939   6.291 -0.4415  0.6203  0.3076
 1429SOL    HW1 5257  -0.001   4.009   6.282 -0.2872  0.7476  0.1952
 1429SOL    HW2 5258   0.148   3.983   6.290 -0.3840  0.5902  1.8394
 1430SOL     OW 5259   1.067   2.629   1.529 -1.1767 -0.0790  0.2813
 1430SOL    HW1 5260   1.123   2.606   1.603 -3.1267 -0.3816  1.7532
 1430SOL    HW2 5261   1.122   2.683   1.473  1.1125 -1.8340  0.7049
 1431SOL     OW 5262   4.393   4.000   4.431  0.4241 -0.4553 -0.1321
 1431SOL    HW1 5263   4.484   4.016   4.456 -0.2205  1.5943  1.1611
 1431SOL    HW2 5264   4.361   3.937   4.495  0.8951 -1.1064 -0.5298
 1432SOL     OW 5265   2.917   3.636   4.990  0.0224  0.1539 -0.0322
 1432SOL    HW1 5266   2.928   3.591   4.906  1.6540 -1.9306  1.2014
 1432SOL    HW2 5267   2.937   3.727   4.971  2.1715 -0.5529 -1.6450
 1433SOL     OW 5268   5.413   5.970   4.081  0.2140  0.0026  0.2622
 1433SOL    HW1 5269   5.382   5.883   4.057 -1.2635 -0.0311  2.0808
 1433SOL    HW2 5270   5.507   5.966   4.065  0.3762 -2.3152  1.2946
 1434SOL     OW 5271   1.689   0.003   7.169 -0.1859 -0.0705 -0.6864
 1434SOL    HW1 5272   1.717  -0.088   7.166 -2.1220 -0.8217  1.4655
 1434SOL    HW2 5273   1.771   0.053   7.170  0.9258 -1.7874 -1.1262
 1435SOL     OW 5274   2.313   2.494   5.429  0.3120  0.3702  0.0749
 1435SOL    HW1 5275   2.347   2.439   5.359  1.2741  0.7546  0.2181
 1435SOL    HW2 5276   2.320   2.583   5.395  0.5099  0.5354  0.5373
 1436SOL     OW 5277   0.570   5.759   2.186 -0.3576  0.3130 -0.1374
 1436SOL    HW1 5278   0.584   5.714   2.270 -1.2976  0.6035  0.1854
 1436SOL    HW2 5279   0.536   5.691   2.128  1.6241 -0.2411 -0.7375
 1437SOL     OW 5280   2.684   4.218   0.435 -0.4067  0.4461  0.3310
 1437SOL    HW1 5281   2.621   4.290   0.444 -0.3231  0.7875 -1.3578
 1437SOL    HW2 5282   2.639   4.141   0.469 -1.0923  1.0085  0.7102
 1438SOL     OW 5283   3.325   1.661   2.828 -0.3495 -0.1202  0.0747
 1438SOL    HW1 5284   3.407   1.700   2.799 -0.3907  0.7287  1.0052
 1438SOL    HW2 5285   3.340   1.639   2.920 -1.0588 -0.2520  0.1692
 1439SOL     OW 5286   1.346   6.779   3.218  0.3131 -0.2402 -0.0140
 1439SOL    HW1 5287   1.382   6.727   3.290  0.6522 -0.1181 -0.0937
 1439SOL    HW2 5288   1.280   6.723   3.178 -0.2159 -0.1325  0.6878
 1440SOL     OW 5289   5.816   5.938   5.958 -0.3337  0.5693  0.3804
 1440SOL    HW1 5290   5.755   5.923   5.886 -0.6856  0.0935  0.7740
 1440SOL    HW2 5291   5.761   5.960   6.033  0.0474  1.3729  0.4324
 1441SOL     OW 5292   1.037   2.143   0.052  0.2681  0.6717  0.4368
 1441SOL    HW1 5293   1.007   2.169   0.139  2.2885  0.0023  1.3966
 1441SOL    HW2 5294   1.076   2.057   0.064  0.1486  0.3383 -1.2540
 1442SOL     OW 5295   3.597   1.560   3.454 -0.3633 -0.3607  0.0867
 1442SOL    HW1 5296   3.635   1.615   3.522 -0.3427  0.5081 -0.6132
 1442SOL    HW2 5297   3.503   1.579   3.458 -0.4218 -0.6674  0.1889
 1443SOL     OW 5298   2.667   6.900   6.786 -0.2417  0.3748 -0.2642
 1443SOL    HW1 5299   2.630   6.946   6.862 -0.0299 -0.6449  0.4779
 1443SOL    HW2 5300   2.747   6.859   6.820 -0.4391 -0.5503 -0.8915
 1444SOL     OW 5301   1.941   1.003   3.285  0.4597  0.1847 -0.4195
 1444SOL    HW1 5302   1.930   1.057   3.363  2.2897 -0.9758  0.7032
 1444SOL    HW2 5303   1.862   1.020   3.233 -1.3588  0.2099  2.1484
 1445SOL     OW 5304   3.494   4.605   1.412  0.2120  0.5053 -0.3638
 1445SOL    HW1 5305   3.428   4.655   1.364 -1.6165 -1.2200  0.1954
 1445SOL    HW2 5306   3.485   4.515   1.378  0.0859 -0.3970  1.9030
 1446SOL     OW 5307   4.513   0.463   5.083  0.7088 -0.2744  0.9077
 1446SOL    HW1 5308   4.609   0.464   5.090  0.9631  0.7114 -1.5843
 1446SOL    HW2 5309   4.496   0.393   5.020  0.0075  1.0757 -0.4517
 1447SOL     OW 5310   6.794   3.789   5.837 -0.1024  0.1438  0.4505
 1447SOL    HW1 5311   6.769   3.857   5.901  1.4525  1.4425 -0.2342
 1447SOL    HW2 5312   6.865   3.741   5.881  0.4865  0.5868  0.0076
 1448SOL     OW 5313   4.723   6.361   0.619 -0.1762  0.0936 -0.2763
 1448SOL    HW1 5314   4.685   6.346   0.705  0.9395 -1.8291 -0.0618
 1448SOL    HW2 5315   4.649   6.390   0.565 -0.7224  2.2334  1.4836
 1449SOL     OW 5316   4.580   1.667   4.242  0.4196 -0.3480  0.9817
 1449SOL    HW1 5317   4.492   1.697   4.261  0.3990 -0.2546  0.7366
 1449SOL    HW2 5318   4.579   1.643   4.149  0.3053 -1.5522  1.2750
 1450SOL     OW 5319   7.306   0.992   1.381  0.5593 -0.1122 -0.6357
 1450SOL    HW1 5320   7.312   1.078   1.341  0.2535 -0.1599 -0.7925
 1450SOL    HW2 5321   7.254   0.940   1.319 -0.8902  0.1263  0.3160
 1451SOL     OW 5322   5.784   4.160   3.828 -0.3470  0.5714 -0.1305
 1451SOL    HW1 5323   5.788   4.250   3.860  3.4420 -0.2436  2.3641
 1451SOL    HW2 5324   5.714   4.120   3.879 -1.2174  1.7627 -0.3420
 1452SOL     OW 5325   1.226   3.244   4.845  0.1408 -0.0394 -0.1180
 1452SOL    HW1 5326   1.276   3.314   4.886  0.4085  0.0994 -0.6750
 1452SOL    HW2 5327   1.279   3.217   4.770 -0.2775 -0.3823 -0.2957
 1453SOL     OW 5328   6.684   4.077   1.365 -0.1351  0.5443 -0.3345
 1453SOL    HW1 5329   6.693   4.171   1.375 -0.3511  0.8422 -2.4579
 1453SOL    HW2 5330   6.603   4.066   1.314  0.7872 -0.6512 -1.6201
 1454SOL     OW 5331   2.366   2.975   2.957  0.2816 -0.5027  0.3440
 1454SOL    HW1 5332   2.326   2.889   2.942 -1.0867  0.1687 -0.0538
 1454SOL    HW2 5333   2.435   2.959   3.022 -1.1462 -1.6304  1.6618
 1455SOL     OW 5334   6.146   2.876   2.215 -0.0867  0.1220 -1.0542
 1455SOL    HW1 5335   6.201   2.825   2.275  0.0509  0.5421 -0.8141
 1455SOL    HW2 5336   6.118   2.951   2.267  0.3437  0.6885 -1.6355
 1456SOL     OW 5337   2.564   7.011   1.780  0.1034 -0.2416  0.7315
 1456SOL    HW1 5338   2.522   7.081   1.832 -0.7867 -1.5547  1.8535
 1456SOL    HW2 5339   2.608   7.058   1.709 -1.5313  1.3798  0.6978
 1457SOL     OW 5340   1.446   1.271   1.878 -0.5330 -0.4699 -0.0402
 1457SOL    HW1 5341   1.413   1.187   1.847  1.0707 -0.9583 -0.5608
 1457SOL    HW2 5342   1.432   1.331   1.805 -0.0279 -0.7473 -0.3752
 1458SOL     OW 5343   5.581   5.068   3.795 -0.3320 -0.4336 -0.0092
 1458SOL    HW1 5344   5.535   4.985   3.804  0.0604 -0.6024  0.4400
 1458SOL    HW2 5345   5.658   5.047   3.742  0.7344 -0.7444  1.5958
 1459SOL     OW 5346   5.512   4.331   5.831  0.2752 -0.0324 -0.0480
 1459SOL    HW1 5347   5.604   4.321   5.808  0.5229  2.6178 -0.4653
 1459SOL    HW2 5348   5.512   4.390   5.907 -1.0880  0.5009 -0.4367
 1460SOL     OW 5349   1.250   5.546   2.389 -0.0756 -0.1346  0.1219
 1460SOL    HW1 5350   1.207   5.487   2.327 -1.7810  0.2182  0.8801
 1460SOL    HW2 5351   1.326   5.497   2.420  0.4264 -0.5788 -1.7058
 1461SOL     OW 5352   2.882   3.238   7.094 -0.2210 -0.1131  0.1543
 1461SOL    HW1 5353   2.847   3.250   7.005  1.1134 -2.3059 -0.7241
 1461SOL    HW2 5354   2.967   3.283   7.092  0.3754 -1.2296 -0.0955
 1462SOL     OW 5355   3.221   3.109   7.079  0.1614  0.0530  0.1452
 1462SOL    HW1 5356   3.181   3.170   7.141  0.1599  0.6218 -0.4110
 1462SOL    HW2 5357   3.281   3.057   7.132  0.4249  0.7709  0.5605
 1463SOL     OW 5358   3.875   6.754   2.180 -0.2807  0.6180 -0.9292
 1463SOL    HW1 5359   3.927   6.685   2.138  1.0581  0.4602  0.8360
 1463SOL    HW2 5360   3.936   6.794   2.243 -2.0458  1.0394  0.5855
 1464SOL     OW 5361   5.753   2.613   2.833  0.1968  0.5148  0.1355
 1464SOL    HW1 5362   5.773   2.707   2.839 -0.9992  0.6984  1.7292
 1464SOL    HW2 5363   5.772   2.579   2.920  0.0806 -0.6317 -0.2763
 1465SOL     OW 5364   7.196   6.997   1.564  0.1224  0.0850  0.5686
 1465SOL    HW1 5365   7.248   6.921   1.538 -0.3941  0.1920 -0.8490
 1465SOL    HW2 5366   7.261   7.065   1.582  0.5446  0.3872 -1.7058
 1466SOL     OW 5367   5.468   1.241   4.794 -0.6994 -0.3163 -0.1541
 1466SOL    HW1 5368   5.459   1.295   4.872  0.8393  0.0363 -0.1811
 1466SOL    HW2 5369   5.413   1.284   4.728 -1.1796 -0.0195  0.4361
 1467SOL     OW 5370   4.232   2.715   0.644  0.7512  0.2005  0.0363
 1467SOL    HW1 5371   4.195   2.771   0.711  1.0949  1.1060 -0.5068
 1467SOL    HW2 5372   4.165   2.648   0.628  0.9248 -0.4222  1.7135
 1468SOL     OW 5373   6.776   6.386   6.100  0.4405 -0.4905  0.3579
 1468SOL    HW1 5374   6.790   6.422   6.013  0.2592  2.2078  1.3383
 1468SOL    HW2 5375   6.701   6.327   6.091 -1.1465  1.5874 -0.9272
 1469SOL     OW 5376   4.852   2.373   1.054  0.1622 -0.5487  0.1465
 1469SOL    HW1 5377   4.796   2.321   1.112 -0.7962  1.6026  1.2788
 1469SOL    HW2 5378   4.826   2.348   0.966  0.7954 -3.0193  0.5979
 1470SOL     OW 5379   6.239   4.314   1.874 -0.1971 -0.4381  0.2430
 1470SOL    HW1 5380   6.309   4.250   1.877 -0.5277 -0.8131  0.0830
 1470SOL    HW2 5381   6.168   4.270   1.827 -0.1603  0.2998 -0.5358
 1471SOL     OW 5382   5.244   4.966   1.992 -0.2361 -0.0884 -0.0592
 1471SOL    HW1 5383   5.219   4.884   1.949  0.9794 -0.6824  0.3308
 1471SOL    HW2 5384   5.260   5.027   1.920  2.6370 -1.3137 -0.5667
 1472SOL     OW 5385   5.664   1.906   5.682 -0.1591  0.2466 -0.5342
 1472SOL    HW1 5386   5.587   1.962   5.678 -1.5373 -1.5028  0.3302
 1472SOL    HW2 5387   5.646   1.834   5.620  1.4004  0.4931 -1.3519
 1473SOL     OW 5388   1.583   6.608   3.503 -0.3311 -0.4853  0.3555
 1473SOL    HW1 5389   1.523   6.534   3.508  0.2905 -1.0332 -0.1620
 1473SOL    HW2 5390   1.670   6.570   3.516 -0.1202  0.3663  1.6431
 1474SOL     OW 5391   1.272   3.751   6.405  0.1501  0.3482 -0.0058
 1474SOL    HW1 5392   1.266   3.734   6.311  0.8372  0.7187 -0.1192
 1474SOL    HW2 5393   1.287   3.845   6.412  1.4669  0.1278  0.4073
 1475SOL     OW 5394   7.158   2.418   2.617  0.4556  0.5561  0.6611
 1475SOL    HW1 5395   7.107   2.383   2.544  0.4531  1.3289  0.2923
 1475SOL    HW2 5396   7.210   2.488   2.579 -0.4797  1.8179  1.6377
 1476SOL     OW 5397   6.805   3.629   6.760  0.2871  0.4254 -0.4347
 1476SOL    HW1 5398   6.750   3.558   6.729  0.5493  0.8702 -1.9913
 1476SOL    HW2 5399   6.894   3.592   6.762  0.3640  0.5818 -0.8533
 1477SOL     OW 5400   0.599   6.795   1.299 -0.1906 -0.1463  0.1319
 1477SOL    HW1 5401   0.614   6.703   1.321 -1.5917 -0.5648 -0.5292
 1477SOL    HW2 5402   0.672   6.842   1.339 -0.5699 -1.2934  2.2844
 1478SOL     OW 5403   0.997   5.823   4.205  0.3883 -0.2358 -0.2008
 1478SOL    HW1 5404   1.069   5.882   4.224  1.0629 -0.4445 -1.9360
 1478SOL    HW2 5405   0.918   5.873   4.228  0.9634  1.1569 -1.0897
 1479SOL     OW 5406   5.514   0.932   6.202 -0.3626  0.1875 -0.2320
 1479SOL    HW1 5407   5.527   1.006   6.261 -1.5954  1.2524 -1.2121
 1479SOL    HW2 5408   5.551   0.857   6.248  1.0327  1.4187  0.7491
 1480SOL     OW 5409   7.236   0.602   5.787 -0.5838  0.2432 -0.2428
 1480SOL    HW1 5410   7.181   0.676   5.810 -0.7571 -0.2383  0.9660
 1480SOL    HW2 5411   7.292   0.634   5.716  0.1068  1.8624  0.9797
 1481SOL     OW 5412   5.054   2.353   1.327 -0.3663  0.2057 -0.3774
 1481SOL    HW1 5413   5.027   2.348   1.235 -0.3258 -0.0183 -0.3780
 1481SOL    HW2 5414   5.144   2.383   1.324 -0.5060  0.6219 -0.3914
 1482SOL     OW 5415   3.442   5.405   3.954  0.3062  0.5869 -0.5113
 1482SOL    HW1 5416   3.528   5.366   3.965  1.4344  2.7341 -1.0155
 1482SOL    HW2 5417   3.412   5.375   3.868  0.7512  0.1862 -0.5267
 1483SOL     OW 5418   4.210   1.085   2.942 -0.1035  0.0112 -0.2012
 1483SOL    HW1 5419   4.266   1.061   3.016  0.5416 -0.8523 -0.9438
 1483SOL    HW2 5420   4.265   1.141   2.887 -0.7452  1.0717  0.2011
 1484SOL     OW 5421   3.955   5.401   6.804 -0.3939  0.3005 -0.8003
 1484SOL    HW1 5422   4.017   5.465   6.771 -2.3223  1.3408 -2.6421
 1484SOL    HW2 5423   3.941   5.340   6.732 -1.2306 -0.1318 -0.2974
 1485SOL     OW 5424   6.006   3.375   7.154 -0.0028  0.4498  0.2847
 1485SOL    HW1 5425   5.982   3.452   7.206  0.5446  0.9766 -0.2129
 1485SOL    HW2 5426   6.101   3.368   7.166 -0.2326 -1.0767  1.5394
 1486SOL     OW 5427   5.856   2.861   4.963 -0.2616  0.0566 -0.1741
 1486SOL    HW1 5428   5.798   2.905   4.900  0.3817  0.0540 -0.7809
 1486SOL    HW2 5429   5.844   2.768   4.946 -0.8837  0.0207  0.4379
 1487SOL     OW 5430   6.123   4.711   4.850  0.3099  0.2094 -0.2096
 1487SOL    HW1 5431   6.129   4.708   4.755  1.6056 -0.3238 -0.1256
 1487SOL    HW2 5432   6.090   4.624   4.875 -0.7469  0.5935 -0.1943
 1488SOL     OW 5433   5.707   2.874   5.284  0.1222 -0.1600  0.0003
 1488SOL    HW1 5434   5.657   2.927   5.221  0.9686  1.4840  0.6679
 1488SOL    HW2 5435   5.797   2.903   5.274  1.1157 -3.2900 -1.3918
 1489SOL     OW 5436   5.451   5.710   5.925  0.6382  0.4154 -0.0228
 1489SOL    HW1 5437   5.526   5.698   5.984  0.0928  2.1463  1.0927
 1489SOL    HW2 5438   5.487   5.759   5.851  0.7907  0.5400  0.1309
 1490SOL     OW 5439   4.224   4.126   6.318  0.0741  0.0283 -0.4020
 1490SOL    HW1 5440   4.290   4.176   6.271 -0.0012 -0.3328 -0.9109
 1490SOL    HW2 5441   4.213   4.171   6.401  2.0594 -0.7495  0.3536
 1491SOL     OW 5442   0.635   6.611   1.624 -0.1343 -0.5246 -0.1062
 1491SOL    HW1 5443   0.597   6.629   1.539 -1.5431 -0.1727  0.5657
 1491SOL    HW2 5444   0.725   6.643   1.618 -1.0314  2.0821 -0.5749
 1492SOL     OW 5445   3.988   5.246   1.521  0.5278 -0.0610 -0.3725
 1492SOL    HW1 5446   4.003   5.190   1.597  0.1379  1.6214  1.0156
 1492SOL    HW2 5447   3.919   5.202   1.471  0.0335 -0.6750  0.8173
 1493SOL     OW 5448   7.104   5.646   5.830 -0.0099  0.2919  0.5859
 1493SOL    HW1 5449   7.159   5.715   5.868 -0.1291 -0.3843  2.0688
 1493SOL    HW2 5450   7.043   5.623   5.901 -1.3581  0.1178 -0.5956
 1494SOL     OW 5451   6.067   3.740   7.137 -0.5543  0.1659  0.2838
 1494SOL    HW1 5452   6.026   3.710   7.218  1.4571 -1.4524  0.7972
 1494SOL    HW2 5453   6.160   3.747   7.159  0.0830 -0.6145 -1.9352
 1495SOL     OW 5454   6.826   4.442   5.013 -0.0259 -0.5090  0.4986
 1495SOL    HW1 5455   6.902   4.391   5.041  0.0403 -0.8877 -0.3639
 1495SOL    HW2 5456   6.825   4.435   4.918 -0.2924  0.7128  0.3928
 1496SOL     OW 5457   0.566   6.982   1.519 -0.0213 -0.1994 -0.1036
 1496SOL    HW1 5458   0.659   6.960   1.520  0.4747  1.3311 -3.1694
 1496SOL    HW2 5459   0.523   6.902   1.488  0.3411 -0.6494  0.5354
 1497SOL     OW 5460   2.100   5.034   7.056 -0.4040 -0.1776 -0.2554
 1497SOL    HW1 5461   2.024   5.065   7.006  0.0742  0.3160 -0.6967
 1497SOL    HW2 5462   2.094   5.080   7.140 -0.4153  0.1138 -0.4141
 1498SOL     OW 5463   2.500   3.067   3.292 -0.0066  0.0109 -0.4652
 1498SOL    HW1 5464   2.507   3.057   3.387 -1.2823  1.6300 -0.1426
 1498SOL    HW2 5465   2.526   2.982   3.256  2.1628 -0.1064  1.2149
 1499SOL     OW 5466   5.893   2.216   7.325 -0.3037 -0.6385 -0.5815
 1499SOL    HW1 5467   5.934   2.141   7.367 -2.5496 -0.5089  2.1583
 1499SOL    HW2 5468   5.818   2.179   7.278 -1.0397 -0.2488  0.2435
 1500SOL     OW 5469   2.580   0.804   1.534 -0.3500  0.2131  0.0066
 1500SOL    HW1 5470   2.501   0.842   1.498  0.8337  1.4857 -1.3684
 1500SOL    HW2 5471   2.652   0.847   1.488  1.1385 -2.2927 -0.2340
 1501SOL     OW 5472   4.534   5.447   0.579 -0.1188  0.3356  0.1350
 1501SOL    HW1 5473   4.506   5.529   0.538  1.4487  0.8939  0.0982
 1501SOL    HW2 5474   4.621   5.467   0.614 -0.7485 -0.5514  2.4124
 1502SOL     OW 5475   4.644   4.462   7.105  0.3977  0.0735  0.6632
 1502SOL    HW1 5476   4.652   4.546   7.150  0.1427 -0.3681  1.5644
 1502SOL    HW2 5477   4.626   4.399   7.175  1.0481 -0.8096  0.0598
 1503SOL     OW 5478   3.157   2.069   4.233 -0.0339 -0.0504 -0.4273
 1503SOL    HW1 5479   3.061   2.072   4.230 -0.0887  1.1600  1.1622
 1503SOL    HW2 5480   3.184   2.119   4.156 -0.6441 -1.3075 -1.4939
 1504SOL     OW 5481   5.209   6.040   6.477  0.1298 -0.0525 -0.4552
 1504SOL    HW1 5482   5.225   5.990   6.558 -0.8439 -0.4254 -0.4879
 1504SOL    HW2 5483   5.148   5.986   6.427  0.5610  0.2766 -1.3553
 1505SOL     OW 5484   5.991   6.733   0.188  0.9042  0.2939  0.2195
 1505SOL    HW1 5485   5.938   6.688   0.122 -0.6688  0.7170  1.1452
 1505SOL    HW2 5486   6.047   6.664   0.225  1.3820 -0.0629 -1.1036
 1506SOL     OW 5487   1.737   6.846   3.534  0.6266  0.5878 -0.7235
 1506SOL    HW1 5488   1.702   6.935   3.534 -1.0591 -0.0225  0.4401
 1506SOL    HW2 5489   1.661   6.790   3.519  1.1825 -0.7534  1.0651
 1507SOL     OW 5490   3.835   4.557   1.697  0.5327 -0.0148  0.4527
 1507SOL    HW1 5491   3.787   4.561   1.614 -0.0277 -1.1077  0.6985
 1507SOL    HW2 5492   3.861   4.647   1.714 -0.4600  0.4365 -0.2689
 1508SOL     OW 5493   1.070   6.580   1.803 -0.3529 -0.0258 -0.7071
 1508SOL    HW1 5494   1.047   6.543   1.718 -1.2884  0.0806 -0.5165
 1508SOL    HW2 5495   1.035   6.669   1.800  0.1252  0.1738 -0.4233
 1509SOL     OW 5496   2.874   1.555   5.884 -0.0575 -0.3038  0.0644
 1509SOL    HW1 5497   2.954   1.510   5.859 -0.5865 -0.3716 -1.6480
 1509SOL    HW2 5498   2.818   1.549   5.807 -2.3261 -1.5713  1.6774
 1510SOL     OW 5499   5.104   2.978   1.883 -0.3379 -0.2549 -0.2070
 1510SOL    HW1 5500   5.107   2.883   1.900 -1.0953  0.0439  1.8521
 1510SOL    HW2 5501   5.066   2.985   1.795 -2.5828 -1.8392  0.5296
 1511SOL     OW 5502   3.333   6.579   3.887  0.0689 -0.1574 -0.4136
 1511SOL    HW1 5503   3.242   6.597   3.862 -0.2177 -0.7163  0.1712
 1511SOL    HW2 5504   3.365   6.521   3.818 -0.9156 -2.2047  0.7409
 1512SOL     OW 5505   3.801   4.710   5.427 -0.2939 -0.4447  0.4295
 1512SOL    HW1 5506   3.757   4.786   5.389  1.4072  0.9322  1.0894
 1512SOL    HW2 5507   3.788   4.719   5.521 -2.0961 -2.3223  0.4293
 1513SOL     OW 5508   0.794   0.739   3.405  0.3223 -0.1871 -0.3279
 1513SOL    HW1 5509   0.708   0.780   3.418  0.4662  0.4624 -1.3873
 1513SOL    HW2 5510   0.816   0.756   3.314  2.2764  1.0028  0.3145
 1514SOL     OW 5511   0.799   0.041   1.328  0.4894  0.3248  0.5811
 1514SOL    HW1 5512   0.748  -0.010   1.391 -0.6572 -0.5386 -0.9832
 1514SOL    HW2 5513   0.782   0.000   1.244  1.4818  1.8296 -0.4097
 1515SOL     OW 5514   3.573   1.737   0.956 -0.5541 -0.3896  0.1207
 1515SOL    HW1 5515   3.561   1.663   1.015  0.4815 -0.5842  0.0976
 1515SOL    HW2 5516   3.497   1.734   0.898 -0.8134 -1.0807  0.4942
 1516SOL     OW 5517   2.355   4.405   2.711 -0.1355  0.3585 -0.2792
 1516SOL    HW1 5518   2.404   4.328   2.685  0.2055  0.5700 -0.2666
 1516SOL    HW2 5519   2.268   4.392   2.672  0.1611  0.3475 -0.9569
 1517SOL     OW 5520   0.439   5.540   3.124 -0.5231 -0.0473 -0.1252
 1517SOL    HW1 5521   0.476   5.513   3.040  1.6329  2.8199 -0.2385
 1517SOL    HW2 5522   0.509   5.522   3.188 -0.4286  1.7334  0.3267
 1518SOL     OW 5523   1.722   0.675   1.838  0.2296  0.1379 -0.2200
 1518SOL    HW1 5524   1.672   0.640   1.912  0.9581 -0.0847  0.1764
 1518SOL    HW2 5525   1.707   0.770   1.842  1.2196  0.2767  0.9622
 1519SOL     OW 5526   7.089   5.662   1.665 -0.4249  0.0084 -0.2563
 1519SOL    HW1 5527   7.031   5.722   1.712 -0.6624 -0.1059 -0.4017
 1519SOL    HW2 5528   7.172   5.709   1.660  0.3799 -0.9156  2.4292
 1520SOL     OW 5529   1.571   0.444   4.062 -0.4561  0.1906  0.3216
 1520SOL    HW1 5530   1.486   0.411   4.032 -1.3729  0.6239  2.3344
 1520SOL    HW2 5531   1.552   0.528   4.104  0.8971  0.0783  1.2295
 1521SOL     OW 5532   3.454   4.852   6.128  0.3415  0.1890 -0.7569
 1521SOL    HW1 5533   3.542   4.827   6.103  1.3314  1.2818  1.3793
 1521SOL    HW2 5534   3.434   4.927   6.071  1.5935  1.1424 -0.0091
 1522SOL     OW 5535   5.164   0.553   3.591 -0.0610  0.0239  0.1837
 1522SOL    HW1 5536   5.109   0.631   3.600 -0.0453 -0.1322  2.1411
 1522SOL    HW2 5537   5.253   0.584   3.613 -0.1790 -0.6619  1.7338
 1523SOL     OW 5538   2.824   4.406   5.115 -0.0962  0.2135  0.3413
 1523SOL    HW1 5539   2.840   4.446   5.201 -0.9960 -0.0839  0.6640
 1523SOL    HW2 5540   2.848   4.314   5.127 -0.6309  0.0780  0.4092
 1524SOL     OW 5541   2.202   2.737   4.185 -0.0360 -0.2065  0.2350
 1524SOL    HW1 5542   2.243   2.652   4.200 -0.8640 -0.6174  0.2405
 1524SOL    HW2 5543   2.164   2.731   4.097 -3.1526 -1.1837  1.4860
 1525SOL     OW 5544   2.859   0.651   6.365 -0.1512 -0.6030  0.7422
 1525SOL    HW1 5545   2.873   0.586   6.297 -0.4418 -0.3391  0.4248
 1525SOL    HW2 5546   2.768   0.638   6.392 -0.3168 -0.1058  0.4357
 1526SOL     OW 5547   2.163   6.391   1.174 -0.2871  0.1911 -0.7360
 1526SOL    HW1 5548   2.244   6.440   1.164  0.3810 -0.8002 -0.3687
 1526SOL    HW2 5549   2.095   6.448   1.138  0.5373  1.1275 -0.8385
 1527SOL     OW 5550   4.108   0.344   2.542  0.0884 -0.4108  0.5228
 1527SOL    HW1 5551   4.082   0.428   2.579  0.4551  0.4123 -0.9718
 1527SOL    HW2 5552   4.200   0.335   2.564 -0.4803 -1.5654  2.6599
 1528SOL     OW 5553   4.886   4.688   4.943 -0.1580  0.3376  0.1412
 1528SOL    HW1 5554   4.830   4.645   4.879 -0.7215  1.4149 -0.1183
 1528SOL    HW2 5555   4.896   4.777   4.909 -0.6515  1.0039  1.6671
 1529SOL     OW 5556   4.755   6.304   1.024  0.7491 -0.4485 -0.3119
 1529SOL    HW1 5557   4.703   6.229   1.053 -1.3025  1.3635  0.9513
 1529SOL    HW2 5558   4.825   6.310   1.089 -0.7880  0.4140  1.3633
 1530SOL     OW 5559   2.797   5.517   1.660 -0.0901 -0.2867 -0.0461
 1530SOL    HW1 5560   2.882   5.548   1.628  0.5469  0.3912  2.1227
 1530SOL    HW2 5561   2.738   5.591   1.646 -0.7911 -1.2781 -2.9738
 1531SOL     OW 5562   3.788   5.627   0.181 -0.5143 -0.5609  0.2523
 1531SOL    HW1 5563   3.843   5.661   0.111  0.6037 -0.7509  1.0089
 1531SOL    HW2 5564   3.850   5.596   0.248 -1.5359  0.2688  1.6487
 1532SOL     OW 5565   3.697   5.371   1.702  0.0811  0.0710 -0.0052
 1532SOL    HW1 5566   3.737   5.435   1.644  0.8233 -0.5625 -0.2089
 1532SOL    HW2 5567   3.620   5.416   1.739 -0.4836  0.4500 -1.5674
 1533SOL     OW 5568   6.462   3.483   6.345 -0.0413  0.0695 -0.3000
 1533SOL    HW1 5569   6.476   3.487   6.250  1.3928  1.3796 -0.0686
 1533SOL    HW2 5570   6.450   3.390   6.364 -1.1132 -0.1503 -1.8456
 1534SOL     OW 5571   1.938   0.585   2.729 -0.0081  0.8555  0.6036
 1534SOL    HW1 5572   1.948   0.649   2.658  0.6111 -0.0037 -0.1023
 1534SOL    HW2 5573   1.886   0.515   2.690 -0.9608  1.0628  1.4740
 1535SOL     OW 5574   3.613   3.123   4.462 -0.0667  0.5547 -0.1195
 1535SOL    HW1 5575   3.618   3.045   4.408  2.3274  0.5502 -0.0160
 1535SOL    HW2 5576   3.587   3.091   4.548  0.4432 -0.0870 -0.1924
 1536SOL     OW 5577   6.420   2.829   5.015  0.0044 -0.1959  0.2999
 1536SOL    HW1 5578   6.438   2.907   5.066 -0.5254 -0.2186  0.5287
 1536SOL    HW2 5579   6.330   2.805   5.038 -0.6655  0.4232 -1.4520
 1537SOL     OW 5580   6.707   7.309   6.839 -0.3552  0.2758 -0.0805
 1537SOL    HW1 5581   6.632   7.311   6.779 -1.4491  0.1274  1.2361
 1537SOL    HW2 5582   6.737   7.400   6.841 -0.1734  0.2487 -0.9952
 1538SOL     OW 5583   2.686   3.990   3.391  0.4376 -0.0930 -0.1855
 1538SOL    HW1 5584   2.750   4.007   3.322  0.4447 -1.1622 -0.4672
 1538SOL    HW2 5585   2.710   4.049   3.462  1.5333 -0.2340 -0.4176
 1539SOL     OW 5586   1.813   5.888   3.392 -0.8302  0.0075  0.4161
 1539SOL    HW1 5587   1.854   5.882   3.478 -1.3754  1.2490  0.7871
 1539SOL    HW2 5588   1.877   5.851   3.331  1.8441  3.7143  0.6514
 1540SOL     OW 5589   6.200   3.981   1.147  0.0519  0.1129 -0.0179
 1540SOL    HW1 5590   6.281   3.979   1.096  0.1082  0.8669  0.0279
 1540SOL    HW2 5591   6.130   3.965   1.084  0.3481 -2.7608  0.2692
 1541SOL     OW 5592   2.532   1.933   6.401  0.6794  0.5900  0.1557
 1541SOL    HW1 5593   2.470   1.999   6.372 -0.3918  0.3781  1.8348
 1541SOL    HW2 5594   2.536   1.870   6.329  1.0380  1.9778 -1.0929
 1542SOL     OW 5595   2.726   4.516   0.828  0.3338 -0.1654  0.7450
 1542SOL    HW1 5596   2.805   4.560   0.859  0.0651  2.2343 -1.6680
 1542SOL    HW2 5597   2.736   4.512   0.733 -1.5204 -1.7279  0.5502
 1543SOL     OW 5598   6.481   1.018   4.734 -0.3869  0.0944  0.3033
 1543SOL    HW1 5599   6.509   0.966   4.809 -0.3853 -0.5990 -0.1624
 1543SOL    HW2 5600   6.550   1.083   4.722  0.9289 -1.3975 -0.6423
 1544SOL     OW 5601   5.988   0.820   2.569  0.6440 -0.2200 -0.0249
 1544SOL    HW1 5602   6.055   0.753   2.557  1.1587 -0.3116  2.6443
 1544SOL    HW2 5603   5.919   0.776   2.619 -1.0092  0.1550 -1.8569
 1545SOL     OW 5604   5.213   2.326   6.900 -0.0877 -0.1987 -0.2261
 1545SOL    HW1 5605   5.146   2.367   6.844 -0.0119 -1.2098 -1.0844
 1545SOL    HW2 5606   5.284   2.305   6.840 -0.1370 -1.6008  0.1863
 1546SOL     OW 5607   2.589   6.771   6.478 -0.2626 -0.1422  0.5060
 1546SOL    HW1 5608   2.509   6.721   6.498  0.5806 -1.2005  1.3145
 1546SOL    HW2 5609   2.612   6.813   6.560  0.2767 -0.2114  0.3907
 1547SOL     OW 5610   1.339   0.433   1.712  0.1778  0.3531 -0.2229
 1547SOL    HW1 5611   1.378   0.350   1.741  0.7813  0.4410 -0.7663
 1547SOL    HW2 5612   1.286   0.409   1.635 -1.3723  0.1303  0.8629
 1548SOL     OW 5613   6.329   7.134   0.463  0.3653  0.3348 -0.4657
 1548SOL    HW1 5614   6.274   7.174   0.530  0.5196 -1.4762  0.8147
 1548SOL    HW2 5615   6.268   7.104   0.396 -0.3771 -2.2114  1.2348
 1549SOL     OW 5616   7.290   5.569   2.520 -0.5033  0.2838 -0.0958
 1549SOL    HW1 5617   7.222   5.587   2.454 -1.3773  0.7862  0.9080
 1549SOL    HW2 5618   7.372   5.575   2.472 -1.1977 -1.6624 -1.6370
 1550SOL     OW 5619   5.890   2.461   5.640  0.2156  0.3605  0.4528
 1550SOL    HW1 5620   5.979   2.479   5.610  0.3423  0.9536  1.1652
 1550SOL    HW2 5621   5.835   2.518   5.587  0.5126  2.0508  1.8651
 1551SOL     OW 5622   6.097   4.107   5.910  0.3302 -0.5038 -0.2552
 1551SOL    HW1 5623   6.028   4.151   5.959 -2.5030 -4.0135 -0.7364
 1551SOL    HW2 5624   6.113   4.165   5.835  0.1438  1.7906  1.3583
 1552SOL     OW 5625   5.210   1.441   2.432  0.0545 -0.5793 -0.5235
 1552SOL    HW1 5626   5.146   1.371   2.420 -0.8338  0.4372 -2.1110
 1552SOL    HW2 5627   5.161   1.522   2.417  1.2896  0.3346  0.1643
 1553SOL     OW 5628   4.351   7.201   7.024  0.6048  0.5328  0.4290
 1553SOL    HW1 5629   4.290   7.151   7.078  0.7488 -0.0375  0.0812
 1553SOL    HW2 5630   4.434   7.198   7.072  0.7597 -0.0644  0.1424
 1554SOL     OW 5631   2.136   7.026   2.724 -0.2925 -0.2860 -0.3272
 1554SOL    HW1 5632   2.061   7.084   2.737 -0.4474 -0.9883  2.4630
 1554SOL    HW2 5633   2.099   6.944   2.692 -0.6113 -0.3131  0.1092
 1555SOL     OW 5634   5.182   4.725   3.465 -0.1284 -0.1469  0.5257
 1555SOL    HW1 5635   5.196   4.745   3.372 -0.9382 -1.4423  0.1000
 1555SOL    HW2 5636   5.095   4.760   3.484 -1.5522 -2.9915 -0.2210
 1556SOL     OW 5637   1.126   5.303   2.077 -0.9616 -0.3193 -0.1267
 1556SOL    HW1 5638   1.069   5.298   2.153  0.5372  2.5892  1.3625
 1556SOL    HW2 5639   1.126   5.396   2.054  1.8355 -0.4696 -1.0849
 1557SOL     OW 5640   2.231   1.214   1.243 -0.2123  0.0891 -0.0914
 1557SOL    HW1 5641   2.160   1.159   1.274 -1.1976 -0.0714 -2.4089
 1557SOL    HW2 5642   2.206   1.303   1.268  0.8555 -0.3239  2.7105
 1558SOL     OW 5643   6.186   3.691   1.771 -0.3936  0.2132 -0.2138
 1558SOL    HW1 5644   6.118   3.757   1.782  0.1397  0.7883 -0.3321
 1558SOL    HW2 5645   6.222   3.679   1.859 -0.1701  0.4343 -0.2729
 1559SOL     OW 5646   2.065   4.321   3.798  0.0638  0.1039  0.4544
 1559SOL    HW1 5647   2.030   4.291   3.714 -0.8278  2.5444 -0.1240
 1559SOL    HW2 5648   1.989   4.321   3.856  0.6619 -1.4972  1.3064
 1560SOL     OW 5649   4.217   4.193   5.522 -0.2141  0.1667  0.0715
 1560SOL    HW1 5650   4.251   4.134   5.456 -0.9545  0.5722 -0.6905
 1560SOL    HW2 5651   4.233   4.281   5.488 -1.2701  0.3731  0.0636
 1561SOL     OW 5652   7.126   3.801   0.458  0.0290  0.0662  0.0459
 1561SOL    HW1 5653   7.073   3.723   0.474 -0.2110 -0.2603 -2.0840
 1561SOL    HW2 5654   7.187   3.775   0.389  1.6966  1.0191  1.1059
 1562SOL     OW 5655   3.342   5.047   2.183 -0.2100  0.1850 -0.5145
 1562SOL    HW1 5656   3.357   5.014   2.094 -0.5076  2.2262 -1.3733
 1562SOL    HW2 5657   3.292   5.127   2.170 -1.7063 -0.3350  1.6255
 1563SOL     OW 5658   2.804   1.384   6.267  0.2006  0.1460  0.4500
 1563SOL    HW1 5659   2.783   1.338   6.186  0.0991 -0.6049  0.8978
 1563SOL    HW2 5660   2.815   1.315   6.332 -0.0066  0.7587  1.1466
 1564SOL     OW 5661   6.066   3.555   2.262 -0.4918 -0.1015 -0.1315
 1564SOL    HW1 5662   5.978   3.529   2.233 -0.1101 -1.3488 -0.2123
 1564SOL    HW2 5663   6.075   3.645   2.231 -0.9049 -0.6730 -2.0746
 1565SOL     OW 5664   2.017   1.054   2.169  0.0411  1.0211  0.1331
 1565SOL    HW1 5665   2.028   1.031   2.077 -0.1008  0.8174  0.1674
 1565SOL    HW2 5666   1.965   0.983   2.205 -2.5186  2.5628 -0.3172
 1566SOL     OW 5667   1.881   7.126   3.544  0.3757  0.3712 -0.0759
 1566SOL    HW1 5668   1.931   7.196   3.585 -0.0058  0.2839  0.5620
 1566SOL    HW2 5669   1.918   7.045   3.581  0.6962  0.2372 -0.6728
 1567SOL     OW 5670   2.455   5.904   2.469 -0.6539  0.2235  0.1532
 1567SOL    HW1 5671   2.380   5.945   2.427  0.5498  1.1460 -1.2058
 1567SOL    HW2 5672   2.502   5.976   2.511  0.0539 -0.1554  0.0338
 1568SOL     OW 5673   2.783   4.865   0.254  0.5264 -0.0217  0.2232
 1568SOL    HW1 5674   2.730   4.924   0.200  1.4817  0.5863 -0.0612
 1568SOL    HW2 5675   2.872   4.875   0.221  1.0221 -0.1665  1.4596
 1569SOL     OW 5676   2.388   6.579   1.154  0.0110  0.2245 -0.1301
 1569SOL    HW1 5677   2.449   6.620   1.093  2.0858 -1.8516  0.3911
 1569SOL    HW2 5678   2.353   6.652   1.206  2.5206  1.4925 -0.0622
 1570SOL     OW 5679   4.311   1.585   7.182 -0.2784 -0.2748  0.4837
 1570SOL    HW1 5680   4.367   1.648   7.227 -1.2155  1.1053 -0.2292
 1570SOL    HW2 5681   4.313   1.507   7.238  1.3478  0.1610  1.0989
 1571SOL     OW 5682   2.889   3.320   2.608  0.2813 -0.3548  0.0267
 1571SOL    HW1 5683   2.843   3.388   2.658 -0.1866 -0.7298  0.1157
 1571SOL    HW2 5684   2.979   3.352   2.601  0.3459 -0.2601  1.0665
 1572SOL     OW 5685   6.436   2.225   1.880  0.0193  0.4758 -0.2806
 1572SOL    HW1 5686   6.366   2.270   1.927 -0.5443  0.5596 -1.1745
 1572SOL    HW2 5687   6.466   2.157   1.940 -2.0550 -0.7499 -0.5430
 1573SOL     OW 5688   2.012   5.557   2.759  0.6964 -0.1100  0.0931
 1573SOL    HW1 5689   2.100   5.586   2.783  0.9285 -0.2018 -0.6350
 1573SOL    HW2 5690   1.974   5.527   2.842  2.5570 -3.2672 -0.0045
 1574SOL     OW 5691   2.012   3.911   4.259 -0.0531 -0.3524  0.8156
 1574SOL    HW1 5692   2.075   3.979   4.283  0.3408 -0.8987  1.3644
 1574SOL    HW2 5693   2.065   3.833   4.244 -0.3899 -0.2759 -0.9545
 1575SOL     OW 5694   4.011   5.733   6.922  0.4778 -0.5940 -0.5386
 1575SOL    HW1 5695   3.972   5.763   6.839 -0.6853 -1.3983 -0.3176
 1575SOL    HW2 5696   4.103   5.720   6.902  0.2833 -0.4275 -1.6224
 1576SOL     OW 5697   5.159   2.065   3.118  0.3752 -0.4502 -0.1337
 1576SOL    HW1 5698   5.207   2.052   3.200 -1.1858  0.4038  0.9650
 1576SOL    HW2 5699   5.174   2.156   3.095 -2.1955  0.4417  1.3088
 1577SOL     OW 5700   3.008   6.131   1.347  0.1468  0.2415  0.0901
 1577SOL    HW1 5701   3.103   6.127   1.341  0.0603 -0.7392 -1.0423
 1577SOL    HW2 5702   2.981   6.190   1.277 -0.1392 -0.4548 -0.3989
 1578SOL     OW 5703   0.861   6.102   2.526 -0.5835 -0.6548 -0.0528
 1578SOL    HW1 5704   0.856   6.057   2.611 -0.7051 -0.8380 -0.1565
 1578SOL    HW2 5705   0.876   6.032   2.463 -0.9041 -0.5669 -0.2284
 1579SOL     OW 5706   5.024   1.431   3.795  0.2308  0.5186  0.0486
 1579SOL    HW1 5707   4.967   1.435   3.872 -0.5585 -0.7949 -0.4266
 1579SOL    HW2 5708   4.963   1.433   3.721  0.8824  0.2456 -0.4980
 1580SOL     OW 5709   3.636   2.035   0.363  0.5598  0.1841 -0.1959
 1580SOL    HW1 5710   3.684   1.964   0.405 -2.0317 -1.3554  0.3841
 1580SOL    HW2 5711   3.545   2.024   0.392 -0.2776  2.6718 -1.5253
 1581SOL     OW 5712   3.169   3.755   3.957 -0.8726  0.2875  0.3785
 1581SOL    HW1 5713   3.084   3.768   3.998 -1.0602  0.5592 -0.0929
 1581SOL    HW2 5714   3.194   3.842   3.925 -0.0087  0.3884  1.3064
 1582SOL     OW 5715   0.812   6.660   7.296  0.6103 -0.5920 -0.0142
 1582SOL    HW1 5716   0.855   6.732   7.251 -1.1630  0.6536  0.1655
 1582SOL    HW2 5717   0.821   6.681   7.389 -0.1936 -0.3884  0.0300
 1583SOL     OW 5718   1.110   2.780   0.342  0.1455  0.8064 -0.3861
 1583SOL    HW1 5719   1.014   2.782   0.338  0.1513 -0.0562 -1.8136
 1583SOL    HW2 5720   1.132   2.828   0.422 -1.4815  0.7985  0.1045
 1584SOL     OW 5721   5.288   3.969   1.670  0.0134 -0.1434 -0.0511
 1584SOL    HW1 5722   5.224   3.897   1.671 -0.3119  0.0314  3.3421
 1584SOL    HW2 5723   5.236   4.047   1.655 -0.3120 -0.2002  0.7327
 1585SOL     OW 5724   3.115   6.565   5.067  0.4873  0.7683 -0.3046
 1585SOL    HW1 5725   3.093   6.553   4.975 -0.2782  0.8722 -0.1448
 1585SOL    HW2 5726   3.211   6.564   5.069  0.6434 -3.6141 -0.5403
 1586SOL     OW 5727   0.508   1.940   4.326 -0.5122 -0.5759  0.0781
 1586SOL    HW1 5728   0.548   1.860   4.362 -1.1151 -0.7659  0.3361
 1586SOL    HW2 5729   0.577   1.979   4.273  0.2460 -0.5505  1.0452
 1587SOL     OW 5730   1.700   6.116   2.735 -0.0917  0.3866  0.2003
 1587SOL    HW1 5731   1.756   6.039   2.729  2.6383  2.1403  1.1977
 1587SOL    HW2 5732   1.712   6.148   2.824 -0.6730  2.2815 -0.3545
 1588SOL     OW 5733   2.904   0.594   0.933  0.2193 -0.1457 -0.4393
 1588SOL    HW1 5734   2.869   0.665   0.880  0.2815  1.4055  1.4778
 1588SOL    HW2 5735   2.849   0.593   1.012  2.7381  0.6131  1.4738
 1589SOL     OW 5736   7.242   0.266   2.658  0.3331  0.1144 -0.1942
 1589SOL    HW1 5737   7.252   0.171   2.660  1.3884  0.2049  2.0823
 1589SOL    HW2 5738   7.332   0.299   2.647  0.0918  0.8466 -0.0295
 1590SOL     OW 5739   3.609   2.245   3.725 -0.1287 -0.1968  0.1742
 1590SOL    HW1 5740   3.577   2.169   3.774 -0.0404  0.3028  1.0270
 1590SOL    HW2 5741   3.698   2.223   3.701  0.0511 -0.1919  0.8139
 1591SOL     OW 5742   3.727   4.762   5.704  0.0212 -0.4417 -0.4897
 1591SOL    HW1 5743   3.633   4.763   5.724 -0.4546  0.6056 -2.4711
 1591SOL    HW2 5744   3.754   4.672   5.718 -1.2119 -0.6870  0.4562
 1592SOL     OW 5745   0.988   5.611   4.667  0.3044 -0.0827 -0.0133
 1592SOL    HW1 5746   0.905   5.643   4.704 -0.0308  0.2840 -1.0507
 1592SOL    HW2 5747   1.027   5.688   4.626  0.6777 -0.4776 -0.4063
 1593SOL     OW 5748   0.474   0.215   3.240  0.2575  0.2446  1.5299
 1593SOL    HW1 5749   0.428   0.278   3.296  0.0089  0.3087  1.2554
 1593SOL    HW2 5750   0.417   0.139   3.238  0.4100  0.1262  1.6045
 1594SOL     OW 5751   6.319   4.996   3.895  0.1642  0.9245  0.1655
 1594SOL    HW1 5752   6.334   4.918   3.948  1.0457  0.3844 -0.8369
 1594SOL    HW2 5753   6.240   5.035   3.932 -1.1687 -1.2372 -0.2178
 1595SOL     OW 5754   5.208   3.157   1.090 -0.7897 -0.5339  0.1938
 1595SOL    HW1 5755   5.154   3.219   1.041 -0.2054 -0.1242  0.0603
 1595SOL    HW2 5756   5.164   3.073   1.077 -2.1462 -0.0241  1.1798
 1596SOL     OW 5757   1.197   5.558   2.033 -0.1834 -0.2460 -0.2383
 1596SOL    HW1 5758   1.237   5.628   1.982  0.5662  0.0866  0.7784
 1596SOL    HW2 5759   1.140   5.603   2.096 -0.2696 -0.5861 -0.0665
 1597SOL     OW 5760   5.524   7.011   4.558  0.2279  0.0569 -0.7334
 1597SOL    HW1 5761   5.473   7.047   4.485 -1.0534  0.9882  0.5670
 1597SOL    HW2 5762   5.476   6.933   4.585  0.6262 -0.2052 -0.7586
 1598SOL     OW 5763   6.478   3.899   2.194  0.3359  0.2289  0.1806
 1598SOL    HW1 5764   6.384   3.888   2.210 -0.4190  2.3730 -2.0519
 1598SOL    HW2 5765   6.502   3.821   2.143 -0.4933  0.1089 -0.0546
 1599SOL     OW 5766   3.867   1.286   4.242  0.0122  0.2065  0.1679
 1599SOL    HW1 5767   3.824   1.297   4.327  0.1819  0.7775  0.1855
 1599SOL    HW2 5768   3.820   1.214   4.200 -1.0328  0.8853  0.1442
 1600SOL     OW 5769   1.138   5.876   5.274 -0.0376  0.0746 -0.2690
 1600SOL    HW1 5770   1.117   5.853   5.183 -3.4649  0.7620  0.2298
 1600SOL    HW2 5771   1.107   5.803   5.326  1.3284 -0.0319  0.4605
 1601SOL     OW 5772   1.396   1.793   5.290 -0.3449  0.2767  0.0452
 1601SOL    HW1 5773   1.447   1.838   5.356 -2.5019  2.0255  0.6403
 1601SOL    HW2 5774   1.419   1.837   5.208  1.6661 -1.3051 -0.2998
 1602SOL     OW 5775   2.583   2.340   5.449 -0.0088  0.2263 -0.5622
 1602SOL    HW1 5776   2.661   2.284   5.443 -1.6867 -2.3928  0.2902
 1602SOL    HW2 5777   2.583   2.371   5.540 -0.8280 -1.2620 -0.0146
 1603SOL     OW 5778   4.421   6.714   1.304 -0.4827 -0.3942  0.0959
 1603SOL    HW1 5779   4.427   6.694   1.397 -0.3590 -0.4617  0.0749
 1603SOL    HW2 5780   4.430   6.629   1.261  0.6243 -0.2434 -0.0133
 1604SOL     OW 5781   4.544   1.698   6.884  0.1683 -0.2151  0.2236
 1604SOL    HW1 5782   4.520   1.635   6.953 -0.2537  0.4329  0.6831
 1604SOL    HW2 5783   4.536   1.649   6.803  2.3435 -1.5227  0.6993
 1605SOL     OW 5784   6.566   0.166   3.602  0.3074  0.0774 -0.9061
 1605SOL    HW1 5785   6.520   0.129   3.526 -1.3545  0.9329 -0.3824
 1605SOL    HW2 5786   6.545   0.260   3.599 -0.3499  0.0225  0.9482
 1606SOL     OW 5787   1.651   5.650   1.060  0.1432 -0.2056 -0.2859
 1606SOL    HW1 5788   1.581   5.667   1.124 -0.1936 -2.4889  0.0463
 1606SOL    HW2 5789   1.726   5.624   1.113  1.1089  1.6690 -0.6737
 1607SOL     OW 5790   5.918   4.073   0.055 -0.3907 -0.1036 -0.1457
 1607SOL    HW1 5791   5.890   4.152   0.007 -1.1451 -0.0624  0.3551
 1607SOL    HW2 5792   5.858   4.067   0.129 -1.5226 -2.1435 -1.1212
 1608SOL     OW 5793   3.165   6.664   6.075  0.3866  0.2776 -1.1651
 1608SOL    HW1 5794   3.215   6.724   6.130  3.1069 -0.0074 -3.1487
 1608SOL    HW2 5795   3.189   6.577   6.107 -2.7121  0.0717  0.9956
 1609SOL     OW 5796   4.235   3.896   3.210 -0.1081  0.1353 -0.7243
 1609SOL    HW1 5797   4.204   3.894   3.120  1.3508  1.2741 -1.2973
 1609SOL    HW2 5798   4.267   3.986   3.222  1.9619 -0.6519  0.1252
 1610SOL     OW 5799   6.355   5.765   7.045 -0.3131 -0.0183  0.0157
 1610SOL    HW1 5800   6.327   5.822   7.117  2.7107 -1.2466  2.4310
 1610SOL    HW2 5801   6.370   5.680   7.087  0.3217 -1.1833 -2.3815
 1611SOL     OW 5802   1.634   4.125   1.226 -0.2864 -0.3901 -0.2619
 1611SOL    HW1 5803   1.578   4.195   1.259 -2.5406 -1.2296 -2.1131
 1611SOL    HW2 5804   1.703   4.171   1.178 -0.5517  0.6035  0.2724
 1612SOL     OW 5805   7.243   7.138   2.049  0.9744  0.2795 -0.2612
 1612SOL    HW1 5806   7.220   7.067   1.989  0.7595  1.5454 -1.7451
 1612SOL    HW2 5807   7.336   7.155   2.031  1.4031 -0.4776  1.0567
 1613SOL     OW 5808   2.359   2.515   4.266 -0.1054  0.0849 -0.4290
 1613SOL    HW1 5809   2.346   2.465   4.185 -1.8475  0.3908 -0.3790
 1613SOL    HW2 5810   2.441   2.480   4.302  0.9758  0.2757 -2.5317
 1614SOL     OW 5811   2.536   6.597   0.886 -0.2326 -0.2421  0.4516
 1614SOL    HW1 5812   2.626   6.595   0.919 -0.4917 -0.5979  1.1530
 1614SOL    HW2 5813   2.543   6.564   0.796  0.8360  2.9356 -0.7857
 1615SOL     OW 5814   1.746   5.078   4.525  0.0767 -0.3630 -0.1654
 1615SOL    HW1 5815   1.793   5.017   4.467  0.6459  1.0533 -1.2500
 1615SOL    HW2 5816   1.810   5.146   4.545 -0.6660  0.1047  0.6950
 1616SOL     OW 5817   3.185   2.052   5.005  0.6573 -1.0769 -0.1323
 1616SOL    HW1 5818   3.132   1.998   5.064  0.2937  0.6772  1.2398
 1616SOL    HW2 5819   3.122   2.109   4.961  1.1660 -0.6616 -0.3369
 1617SOL     OW 5820   1.577   1.238   5.972  0.4025 -0.1801 -0.6165
 1617SOL    HW1 5821   1.611   1.181   5.904 -1.1311 -1.3172 -0.4904
 1617SOL    HW2 5822   1.521   1.300   5.926 -2.1721 -2.1242 -0.3245
 1618SOL     OW 5823   6.339   5.711   3.934 -0.3134  0.3231 -0.4383
 1618SOL    HW1 5824   6.396   5.788   3.935  0.3948 -0.0897  2.7325
 1618SOL    HW2 5825   6.371   5.658   3.860  0.7521  1.9379 -1.1979
 1619SOL     OW 5826   3.277   0.364   6.305  0.3379  0.6990 -0.0342
 1619SOL    HW1 5827   3.316   0.403   6.384  1.0082 -0.5642  0.2920
 1619SOL    HW2 5828   3.186   0.347   6.330  0.4105  0.7798  0.3002
 1620SOL     OW 5829   2.852   3.769   6.900 -0.7507  0.2962 -0.3495
 1620SOL    HW1 5830   2.792   3.734   6.966 -0.6657  0.4816 -0.1691
 1620SOL    HW2 5831   2.889   3.847   6.942  1.3048 -1.0174  0.4327
 1621SOL     OW 5832   5.610   5.366   6.909  0.4815  0.3054  0.5672
 1621SOL    HW1 5833   5.553   5.438   6.937 -0.8625 -0.6626  0.4007
 1621SOL    HW2 5834   5.616   5.309   6.985 -1.4656 -1.2486 -0.3536
 1622SOL     OW 5835   2.500   1.401   4.092 -0.5760  0.6763  0.0077
 1622SOL    HW1 5836   2.577   1.455   4.073 -1.3531  2.1125  0.8206
 1622SOL    HW2 5837   2.534   1.329   4.146  0.6910 -0.4294 -2.1507
 1623SOL     OW 5838   3.537   0.080   5.047  0.1140  0.0397 -0.4327
 1623SOL    HW1 5839   3.554   0.002   5.100 -1.0857 -0.3268 -0.5743
 1623SOL    HW2 5840   3.592   0.148   5.087 -1.1118 -0.1040  1.6117
 1624SOL     OW 5841   3.852   4.623   2.475 -0.2734  0.2673 -0.2026
 1624SOL    HW1 5842   3.896   4.540   2.455 -0.1660 -0.2201  1.8225
 1624SOL    HW2 5843   3.894   4.687   2.418  1.6755 -0.5521  0.2618
 1625SOL     OW 5844   5.857   7.106   2.082 -0.0405  0.2034  0.2818
 1625SOL    HW1 5845   5.924   7.039   2.099  1.9784  2.2845  1.0388
 1625SOL    HW2 5846   5.851   7.154   2.165 -1.6201  0.8168 -0.1702
 1626SOL     OW 5847   4.474   4.042   4.000 -0.9182  0.4273 -0.1663
 1626SOL    HW1 5848   4.513   4.110   3.944 -0.2798 -0.1300 -0.4144
 1626SOL    HW2 5849   4.549   3.990   4.029 -1.2881  0.4605  0.8773
 1627SOL     OW 5850   1.439   4.169   4.380  0.1022 -0.0186  0.3018
 1627SOL    HW1 5851   1.432   4.080   4.414  0.7846 -0.2976 -0.2873
 1627SOL    HW2 5852   1.486   4.217   4.448  1.9627 -0.7119 -0.4569
 1628SOL     OW 5853   3.319   6.065   7.091 -0.1434 -0.0918 -0.1865
 1628SOL    HW1 5854   3.393   6.103   7.044  0.6762 -1.5722 -0.1739
 1628SOL    HW2 5855   3.344   5.973   7.103 -1.7723 -0.5003  0.2683
 1629SOL     OW 5856   6.647   1.754   4.464 -0.7179 -0.1314  0.1618
 1629SOL    HW1 5857   6.734   1.794   4.454 -1.4717  2.0591  1.5679
 1629SOL    HW2 5858   6.647   1.719   4.553 -0.8504 -1.2919 -0.2851
 1630SOL     OW 5859   5.657   6.563   0.691 -0.3896 -0.1711  0.0642
 1630SOL    HW1 5860   5.578   6.532   0.645  0.5756  0.3032 -2.0077
 1630SOL    HW2 5861   5.729   6.518   0.647  0.5757  0.0391  1.3844
 1631SOL     OW 5862   1.283   2.414   6.575  0.0639  0.4355 -0.2139
 1631SOL    HW1 5863   1.197   2.388   6.542  0.1993 -0.6664  0.2577
 1631SOL    HW2 5864   1.346   2.362   6.525  0.4587  1.0801 -0.4090
 1632SOL     OW 5865   6.653   2.126   3.155 -0.0567 -0.1032  0.6170
 1632SOL    HW1 5866   6.560   2.137   3.136  0.1915  1.3171  0.0849
 1632SOL    HW2 5867   6.687   2.077   3.081 -0.3745 -0.6160  0.8075
 1633SOL     OW 5868   3.753   3.555   0.827  0.0932  0.3953 -0.2532
 1633SOL    HW1 5869   3.706   3.630   0.863 -1.4378 -1.0587  0.9483
 1633SOL    HW2 5870   3.726   3.552   0.735  0.4306  1.4729 -0.4041
 1634SOL     OW 5871   3.380   1.772   1.949  0.1820 -0.4895  0.8704
 1634SOL    HW1 5872   3.349   1.682   1.940  0.7312 -0.6528  0.5930
 1634SOL    HW2 5873   3.323   1.823   1.891  0.0088 -0.6854  0.8673
 1635SOL     OW 5874   1.262   6.070   7.243  0.2645 -0.4132 -0.3074
 1635SOL    HW1 5875   1.210   6.012   7.299  0.1564 -0.3202 -0.3108
 1635SOL    HW2 5876   1.347   6.027   7.236 -0.3296 -1.4501 -1.6923
 1636SOL     OW 5877   0.652   6.705   5.518  0.3000  0.3253 -0.0663
 1636SOL    HW1 5878   0.738   6.665   5.530 -0.2969 -1.2135 -0.7620
 1636SOL    HW2 5879   0.672   6.796   5.495  1.7109  0.2317  0.6374
 1637SOL     OW 5880   4.360   1.277   5.293 -0.0245 -0.7370 -0.2079
 1637SOL    HW1 5881   4.407   1.360   5.303  2.4068 -2.2558  2.9342
 1637SOL    HW2 5882   4.298   1.275   5.366 -0.9933 -1.1618 -1.0187
 1638SOL     OW 5883   2.759   6.641   6.308  0.4042 -0.1446  0.5687
 1638SOL    HW1 5884   2.794   6.594   6.385  0.5526 -0.5034  0.2879
 1638SOL    HW2 5885   2.684   6.689   6.342  1.3714  0.9307  1.2656
 1639SOL     OW 5886   1.766   0.579   0.156  0.0493 -0.6717  0.1355
 1639SOL    HW1 5887   1.753   0.588   0.251  1.1480 -0.9654  0.3247
 1639SOL    HW2 5888   1.860   0.570   0.146  0.1916  1.6441 -1.1804
 1640SOL     OW 5889   3.521   0.461   1.484  0.5038 -0.3475 -0.3629
 1640SOL    HW1 5890   3.470   0.509   1.418 -1.9419 -2.0471  0.1213
 1640SOL    HW2 5891   3.513   0.369   1.457 -0.0413 -1.0254  1.8954
 1641SOL     OW 5892   6.533   2.100   4.299 -0.9418 -0.7130  0.0684
 1641SOL    HW1 5893   6.606   2.064   4.349 -0.1663 -0.6800 -1.0130
 1641SOL    HW2 5894   6.465   2.033   4.303 -0.6605 -0.9609  0.6612
 1642SOL     OW 5895   4.470   0.516   3.431 -0.0781 -0.3767  0.4723
 1642SOL    HW1 5896   4.467   0.421   3.441 -1.7009 -0.5199 -0.8305
 1642SOL    HW2 5897   4.537   0.531   3.365 -1.2664 -0.8334 -0.8898
 1643SOL     OW 5898   0.292   0.372   3.370  0.0017  0.0049  0.8659
 1643SOL    HW1 5899   0.197   0.366   3.367 -0.0159 -1.3327  2.4267
 1643SOL    HW2 5900   0.310   0.464   3.390 -0.8912  0.4691 -0.3191
 1644SOL     OW 5901   2.563   5.304   4.281 -0.2635 -0.0711  0.0396
 1644SOL    HW1 5902   2.510   5.271   4.354  0.5532  0.4143  0.8801
 1644SOL    HW2 5903   2.652   5.275   4.301  0.0701  0.5697 -0.4635
 1645SOL     OW 5904   0.621   1.319   6.269 -0.0220  0.1918 -0.2572
 1645SOL    HW1 5905   0.588   1.386   6.208  2.2967  2.0857  0.4409
 1645SOL    HW2 5906   0.593   1.349   6.355  1.2736  0.4533  0.0885
 1646SOL     OW 5907   6.359   2.574   3.372  0.2559  0.0251  0.1089
 1646SOL    HW1 5908   6.272   2.541   3.394  0.3541  1.0174  2.2137
 1646SOL    HW2 5909   6.418   2.501   3.390  0.1084  0.1731  1.2526
 1647SOL     OW 5910   6.467   3.730   2.849 -0.1707  0.2797  0.2232
 1647SOL    HW1 5911   6.412   3.663   2.889 -1.2678  0.2742 -1.2116
 1647SOL    HW2 5912   6.410   3.774   2.786  1.4511  0.2695 -1.3466
 1648SOL     OW 5913   1.864   5.933   0.878 -0.2323 -0.0183  0.3398
 1648SOL    HW1 5914   1.795   5.944   0.944 -0.7316 -3.0522  0.4600
 1648SOL    HW2 5915   1.941   5.907   0.929 -0.1618 -0.7445 -0.1337
 1649SOL     OW 5916   0.683   2.160   0.156 -0.1667 -0.2949  0.6235
 1649SOL    HW1 5917   0.618   2.150   0.087  0.0407  1.1174  0.1926
 1649SOL    HW2 5918   0.650   2.231   0.211  1.0808  0.6327  0.2500
 1650SOL     OW 5919   6.999   4.496   2.432 -0.3625  0.3666  0.1851
 1650SOL    HW1 5920   7.079   4.512   2.382  0.7575  0.4845  1.9141
 1650SOL    HW2 5921   6.934   4.553   2.392  0.8455  1.5021 -0.2523
 1651SOL     OW 5922   5.632   5.648   3.928 -0.3076  0.2275  0.0713
 1651SOL    HW1 5923   5.723   5.656   3.900  0.0930 -0.2084  1.2113
 1651SOL    HW2 5924   5.593   5.586   3.866  0.6077 -0.8622  0.5601
 1652SOL     OW 5925   0.799   1.318   2.303 -0.6739 -0.0461  1.0706
 1652SOL    HW1 5926   0.818   1.311   2.209 -0.6218  0.6104  1.0310
 1652SOL    HW2 5927   0.877   1.283   2.345 -1.0465 -1.1603  0.8673
 1653SOL     OW 5928   2.852   3.358   4.741 -0.0459 -0.1115  0.2781
 1653SOL    HW1 5929   2.770   3.312   4.722 -0.3815  1.1776 -1.7254
 1653SOL    HW2 5930   2.838   3.446   4.705  1.8073  0.4757  0.9318
 1654SOL     OW 5931   3.841   5.536   5.457  0.6574  0.3622 -0.5976
 1654SOL    HW1 5932   3.824   5.546   5.551  0.4660 -1.8429 -0.3532
 1654SOL    HW2 5933   3.780   5.597   5.416 -0.7141 -0.0961  0.6635
 1655SOL     OW 5934   6.515   2.561   1.277 -0.4104 -0.3691 -0.2807
 1655SOL    HW1 5935   6.599   2.516   1.269 -0.2941 -0.4839  1.1984
 1655SOL    HW2 5936   6.514   2.593   1.368 -1.7398  0.0837 -0.4334
 1656SOL     OW 5937   4.343   5.225   3.140  0.4846  0.4006  0.1178
 1656SOL    HW1 5938   4.257   5.187   3.159  1.1860 -0.6443  1.4112
 1656SOL    HW2 5939   4.332   5.318   3.156 -0.1385  0.1257  1.4659
 1657SOL     OW 5940   2.040   7.302   0.939  0.4514 -0.7137  0.1499
 1657SOL    HW1 5941   1.950   7.302   0.970  0.8042 -0.6350  1.2392
 1657SOL    HW2 5942   2.047   7.380   0.884  0.2744  0.1938  1.3776
 1658SOL     OW 5943   1.449   3.688   1.123  0.2059 -0.3116 -0.0431
 1658SOL    HW1 5944   1.410   3.608   1.088 -0.4859 -0.0068  0.0198
 1658SOL    HW2 5945   1.443   3.678   1.218  0.2728 -0.2636 -0.0336
 1659SOL     OW 5946   1.773   1.917   3.533 -0.1332  0.0943  0.3222
 1659SOL    HW1 5947   1.787   1.918   3.628  0.0651  0.5517  0.2915
 1659SOL    HW2 5948   1.698   1.858   3.521  0.6621 -1.0125  0.6367
 1660SOL     OW 5949   2.716   3.926   3.841 -0.2807  0.2039 -0.0216
 1660SOL    HW1 5950   2.781   3.974   3.791  1.4298 -0.2773  1.6125
 1660SOL    HW2 5951   2.704   3.844   3.793 -1.6300  1.3375 -1.6836
 1661SOL     OW 5952   4.637   1.890   2.446  0.2484  0.2365 -0.0457
 1661SOL    HW1 5953   4.544   1.870   2.454  0.5515 -0.7504  1.5753
 1661SOL    HW2 5954   4.671   1.826   2.384  0.0508 -0.1736  0.2672
 1662SOL     OW 5955   0.537   4.839   0.046  0.2842  0.8504  0.8309
 1662SOL    HW1 5956   0.508   4.921   0.005 -1.7715  0.4131  1.3073
 1662SOL    HW2 5957   0.524   4.853   0.140 -3.0292 -0.9793  0.7804
 1663SOL     OW 5958   0.931   3.763   5.822  0.1150 -0.4049 -0.4310
 1663SOL    HW1 5959   0.884   3.710   5.758 -0.7218 -0.0375 -0.1472
 1663SOL    HW2 5960   1.011   3.790   5.778 -0.9228  0.7282 -1.7378
 1664SOL     OW 5961   7.067   4.273   2.221  0.3961 -0.4079  0.1579
 1664SOL    HW1 5962   7.136   4.327   2.259  0.5299 -0.8343  0.5289
 1664SOL    HW2 5963   7.003   4.262   2.291 -0.1852  0.2102 -0.2686
 1665SOL     OW 5964   6.038   5.772   4.921 -0.4722 -0.7756 -0.2954
 1665SOL    HW1 5965   6.002   5.850   4.963 -0.5777 -1.1608  0.3379
 1665SOL    HW2 5966   5.961   5.719   4.899 -0.4519 -0.3960 -1.3688
 1666SOL     OW 5967   6.239   6.273   7.299  1.2712  0.3185  0.6460
 1666SOL    HW1 5968   6.242   6.353   7.352 -0.5247 -0.9032  2.7739
 1666SOL    HW2 5969   6.146   6.262   7.279  1.3023 -1.8313  1.4481
 1667SOL     OW 5970   5.860   0.692   7.371 -0.1007  0.8518  0.0323
 1667SOL    HW1 5971   5.766   0.701   7.385 -0.0601  2.3928 -0.4976
 1667SOL    HW2 5972   5.875   0.725   7.282  1.0518  1.6668  0.4929
 1668SOL     OW 5973   1.133   5.239   3.423 -0.0789  0.4750 -0.0055
 1668SOL    HW1 5974   1.147   5.199   3.338  0.2068  0.7029 -0.0664
 1668SOL    HW2 5975   1.183   5.185   3.484 -1.8801 -0.8895  0.3328
 1669SOL     OW 5976   3.488   1.925   6.611 -0.8830  0.0111 -0.3924
 1669SOL    HW1 5977   3.556   1.864   6.639 -0.1210  1.8086  2.0210
 1669SOL    HW2 5978   3.530   1.976   6.541 -0.7327 -0.6892 -0.8224
 1670SOL     OW 5979   5.667   2.920   3.951  0.0207 -0.5768 -0.0097
 1670SOL    HW1 5980   5.692   2.944   4.041 -0.7640 -0.0476  0.0737
 1670SOL    HW2 5981   5.751   2.916   3.904  0.3337  0.5986  0.4028
 1671SOL     OW 5982   6.235   5.774   1.622  0.1063 -0.1589  0.3467
 1671SOL    HW1 5983   6.248   5.787   1.528  0.7031  1.3064  0.6069
 1671SOL    HW2 5984   6.324   5.774   1.659 -0.0759 -1.4239  0.8500
 1672SOL     OW 5985   5.255   5.371   1.631  0.0642 -0.2457 -0.0427
 1672SOL    HW1 5986   5.312   5.430   1.680 -0.4430 -0.1788  0.4836
 1672SOL    HW2 5987   5.171   5.417   1.628 -0.4782 -1.1482  0.8104
 1673SOL     OW 5988   6.510   6.053   7.162  0.3381 -0.3632 -0.5123
 1673SOL    HW1 5989   6.474   6.059   7.250 -1.2836 -0.5168 -1.1232
 1673SOL    HW2 5990   6.558   6.135   7.150 -0.5548  0.2602  0.0436
 1674SOL     OW 5991   2.019   0.593   1.818 -0.4203 -0.0056 -0.1428
 1674SOL    HW1 5992   1.926   0.605   1.801 -0.2314 -0.6220 -1.7581
 1674SOL    HW2 5993   2.025   0.509   1.864 -0.7191  0.4873  0.8290
 1675SOL     OW 5994   4.489   2.669   1.847 -0.3364  0.2224 -0.1211
 1675SOL    HW1 5995   4.490   2.590   1.793 -1.3572  0.0325  0.1105
 1675SOL    HW2 5996   4.580   2.682   1.872 -0.2876 -1.5393  0.7843
 1676SOL     OW 5997   4.984   4.763   0.407 -0.1391  0.1016 -0.3068
 1676SOL    HW1 5998   5.067   4.730   0.374 -0.7865 -0.4324 -1.4839
 1676SOL    HW2 5999   4.970   4.716   0.490 -0.1382 -1.2075 -1.0221
 1677SOL     OW 6000   3.132   0.504   5.283  0.1962 -0.3723 -0.6456
 1677SOL    HW1 6001   3.193   0.503   5.209 -0.4566 -1.6760 -1.1990
 1677SOL    HW2 6002   3.112   0.596   5.296 -1.2922 -0.1897 -3.4875
 1678SOL     OW 6003   5.557   3.912   5.094  0.4543 -0.3122  0.2940
 1678SOL    HW1 6004   5.575   3.998   5.057  1.7209 -0.4753  0.4837
 1678SOL    HW2 6005   5.560   3.852   5.019 -0.5803 -0.1837  0.1386
 1679SOL     OW 6006   4.940   6.629   6.595 -0.1981 -0.5638  0.2667
 1679SOL    HW1 6007   4.893   6.590   6.668  0.3737 -1.1880  0.3123
 1679SOL    HW2 6008   4.894   6.597   6.517 -0.7866  0.0746  0.3452
 1680SOL     OW 6009   7.021   5.826   3.238 -0.3785 -0.0261 -0.3389
 1680SOL    HW1 6010   7.031   5.856   3.148  1.7193 -1.0055 -0.5006
 1680SOL    HW2 6011   6.975   5.743   3.231 -0.5779  0.0929 -0.4593
 1681SOL     OW 6012   2.541   2.142   1.120  1.1282 -0.5762 -0.6627
 1681SOL    HW1 6013   2.484   2.212   1.088  2.5613 -0.6297 -3.6371
 1681SOL    HW2 6014   2.482   2.067   1.131  0.1300  0.1907 -0.5909
 1682SOL     OW 6015   2.842   2.519   0.209 -0.4577 -0.1517 -0.3348
 1682SOL    HW1 6016   2.747   2.506   0.204 -0.1414 -2.7485 -0.8401
 1682SOL    HW2 6017   2.865   2.493   0.298  0.0444 -2.0341 -0.9690
 1683SOL     OW 6018   2.550   1.424   5.229  0.4630  0.8290 -0.2010
 1683SOL    HW1 6019   2.523   1.449   5.318  0.6200 -0.0495  0.1053
 1683SOL    HW2 6020   2.565   1.330   5.235  3.0457  1.1513 -0.4671
 1684SOL     OW 6021   5.252   1.866   0.394 -0.3366 -0.1321  0.2402
 1684SOL    HW1 6022   5.197   1.797   0.432  0.0811  0.0446  1.2172
 1684SOL    HW2 6023   5.199   1.903   0.324 -0.4501 -1.6377 -0.5032
 1685SOL     OW 6024   1.603   3.420   5.981 -0.2445 -0.0062  0.6233
 1685SOL    HW1 6025   1.586   3.339   6.029 -0.7029 -0.0865  0.3306
 1685SOL    HW2 6026   1.688   3.450   6.013 -0.5588 -0.0419  1.5152
 1686SOL     OW 6027   5.665   6.675   5.218 -0.1559 -0.2792  0.0381
 1686SOL    HW1 6028   5.598   6.713   5.276  0.8210  0.8696  0.4600
 1686SOL    HW2 6029   5.663   6.731   5.140  0.7425  0.1697  0.3240
 1687SOL     OW 6030   2.118   4.315   1.063 -0.3481  0.3682  0.1698
 1687SOL    HW1 6031   2.168   4.396   1.054 -0.6112  0.5000 -0.1264
 1687SOL    HW2 6032   2.078   4.302   0.977  0.7129 -0.7712 -0.1704
 1688SOL     OW 6033   7.266   3.023   2.128 -0.4873 -0.2089 -0.0102
 1688SOL    HW1 6034   7.178   3.044   2.159 -1.1518 -1.3563 -1.0181
 1688SOL    HW2 6035   7.253   2.980   2.044  1.0417 -0.4192 -0.1812
 1689SOL     OW 6036   1.025   2.252   4.194 -0.2561 -0.3016  0.1848
 1689SOL    HW1 6037   1.012   2.165   4.231 -3.4447 -0.7357 -1.6308
 1689SOL    HW2 6038   1.074   2.235   4.113  0.5373 -0.1640  0.6206
 1690SOL     OW 6039   6.051   7.011   1.248  1.0103 -0.2413  0.0075
 1690SOL    HW1 6040   5.966   7.024   1.291  1.3929  0.3168  0.6209
 1690SOL    HW2 6041   6.082   6.927   1.281  0.4017 -0.7677 -0.7350
 1691SOL     OW 6042   5.778   3.297   0.621  0.2710 -0.3676  0.0331
 1691SOL    HW1 6043   5.691   3.294   0.662 -0.7506 -0.1075 -2.0212
 1691SOL    HW2 6044   5.784   3.386   0.585  1.8263 -0.0507  0.9673
 1692SOL     OW 6045   3.417   0.029   1.795 -0.7209 -0.6490  0.0525
 1692SOL    HW1 6046   3.440   0.119   1.772  0.5815 -0.7538  0.8268
 1692SOL    HW2 6047   3.360   0.000   1.724  3.3239 -1.0757 -3.4637
 1693SOL     OW 6048   5.676   5.399   6.278  0.3743  0.2884 -0.3594
 1693SOL    HW1 6049   5.630   5.452   6.213 -1.1665 -0.3469  0.1824
 1693SOL    HW2 6050   5.641   5.311   6.265  1.1155 -0.1228  0.3835
 1694SOL     OW 6051   1.531   0.244   3.691 -0.4567 -0.0953 -0.1116
 1694SOL    HW1 6052   1.482   0.320   3.722  1.0030  1.0726 -0.5540
 1694SOL    HW2 6053   1.622   0.271   3.695  0.1012 -1.7890 -0.4317
 1695SOL     OW 6054   2.638   5.676   7.142 -0.4139 -0.1497  0.4606
 1695SOL    HW1 6055   2.588   5.611   7.092  0.1553  0.3259 -0.7570
 1695SOL    HW2 6056   2.573   5.738   7.174 -0.6323  0.4959 -1.1616
 1696SOL     OW 6057   1.427   3.809   3.892  0.0114 -0.8407 -0.5342
 1696SOL    HW1 6058   1.452   3.893   3.853 -2.6088 -0.8649 -2.5196
 1696SOL    HW2 6059   1.399   3.832   3.981  2.0730 -0.1246 -0.0142
 1697SOL     OW 6060   3.096   5.144   2.605 -0.4902 -0.7234 -0.5296
 1697SOL    HW1 6061   3.132   5.233   2.598 -1.4451 -0.3175 -0.5154
 1697SOL    HW2 6062   3.082   5.116   2.515 -0.6396 -0.6610 -0.5269
 1698SOL     OW 6063   6.943   1.584   0.512 -0.4120 -0.0393 -0.1992
 1698SOL    HW1 6064   6.859   1.619   0.484 -0.3726  0.7471  0.6233
 1698SOL    HW2 6065   6.927   1.490   0.523 -0.6317 -0.2489 -2.0108
 1699SOL     OW 6066   6.343   7.138   6.049  0.0413 -0.0559  0.0215
 1699SOL    HW1 6067   6.372   7.185   5.971 -0.2757 -0.3205 -0.2592
 1699SOL    HW2 6068   6.297   7.204   6.101 -0.5328 -0.0798 -0.4424
 1700SOL     OW 6069   0.907   6.743   0.176 -0.1567  0.2844 -0.3453
 1700SOL    HW1 6070   0.939   6.831   0.195 -2.6852  1.4000 -0.8183
 1700SOL    HW2 6071   0.907   6.699   0.261 -3.0886  2.3038  0.8749
 1701SOL     OW 6072   1.232   7.013   5.407 -1.0959  0.2490  0.0152
 1701SOL    HW1 6073   1.185   6.968   5.478 -1.6562  0.0048 -0.4925
 1701SOL    HW2 6074   1.320   7.027   5.441 -1.0143 -0.9051  0.3363
 1702SOL     OW 6075   5.776   3.963   4.564  0.3410 -0.3746  0.7007
 1702SOL    HW1 6076   5.686   3.964   4.594  0.4301  0.2427  0.9501
 1702SOL    HW2 6077   5.770   3.933   4.473 -0.3818  2.0559 -0.1173
 1703SOL     OW 6078   1.854   5.912   2.463  0.5112 -0.1606 -0.1916
 1703SOL    HW1 6079   1.846   5.817   2.455 -0.6067 -0.0228 -1.0368
 1703SOL    HW2 6080   1.792   5.936   2.532 -0.2188  0.0630 -0.8958
 1704SOL     OW 6081   2.826   0.144   4.430 -0.1783  0.3923 -0.0830
 1704SOL    HW1 6082   2.813   0.163   4.523  0.3218 -1.4023  0.3856
 1704SOL    HW2 6083   2.754   0.085   4.408 -0.6098  1.2395 -0.9890
 1705SOL     OW 6084   7.320   4.379   1.839 -0.0020  0.0041  0.6502
 1705SOL    HW1 6085   7.325   4.400   1.745 -1.5832 -1.2345  0.2400
 1705SOL    HW2 6086   7.325   4.283   1.842  2.8884  0.1103  2.1028
 1706SOL     OW 6087   2.410   4.926   5.819 -0.3828  0.3806 -0.0762
 1706SOL    HW1 6088   2.353   4.851   5.838  1.6226 -1.3734 -0.5473
 1706SOL    HW2 6089   2.401   4.982   5.896 -2.0843 -0.2227  0.2253
 1707SOL     OW 6090   2.304   6.300   2.676 -0.2337  0.0874  0.2305
 1707SOL    HW1 6091   2.220   6.255   2.669 -0.5223  0.6220  0.2297
 1707SOL    HW2 6092   2.292   6.381   2.627  1.3827 -1.3651 -2.9305
 1708SOL     OW 6093   3.698   1.524   0.580 -0.5021  0.1447  0.5702
 1708SOL    HW1 6094   3.604   1.521   0.597 -0.6046  0.6685  0.1237
 1708SOL    HW2 6095   3.708   1.492   0.490 -0.2239 -0.1815  0.7131
 1709SOL     OW 6096   3.103   5.984   6.059 -0.2863 -0.9816 -0.0974
 1709SOL    HW1 6097   3.171   6.051   6.045 -0.2906 -1.0043 -0.2280
 1709SOL    HW2 6098   3.149   5.901   6.048 -0.2734 -0.9999  0.1028
 1710SOL     OW 6099   5.589   0.193   6.280  0.3144 -0.3410  0.3397
 1710SOL    HW1 6100   5.589   0.097   6.280  0.3112 -0.3426 -0.1769
 1710SOL    HW2 6101   5.576   0.217   6.372 -1.1035 -0.8382  0.2886
 1711SOL     OW 6102   6.853   0.664   4.543  0.0913  0.2164 -0.0491
 1711SOL    HW1 6103   6.928   0.699   4.495  0.6964 -0.2806  0.5215
 1711SOL    HW2 6104   6.836   0.728   4.612 -1.1101  1.2013 -1.1924
 1712SOL     OW 6105   5.411   7.360   2.972 -0.2333 -0.3587  0.2303
 1712SOL    HW1 6106   5.484   7.395   3.023 -0.6406 -1.4470  1.6658
 1712SOL    HW2 6107   5.450   7.291   2.919 -0.0784 -0.4433  0.4493
 1713SOL     OW 6108   2.699   2.330   1.864  0.8272 -0.0611 -0.4557
 1713SOL    HW1 6109   2.647   2.367   1.936  0.3569  3.1134 -2.2029
 1713SOL    HW2 6110   2.789   2.359   1.882  0.5744  1.5311 -1.4455
 1714SOL     OW 6111   2.467   2.816   4.058  0.4778  0.6904 -0.2916
 1714SOL    HW1 6112   2.400   2.881   4.034  1.1665  0.5671 -2.8612
 1714SOL    HW2 6113   2.509   2.853   4.136 -1.7365  1.3495  0.6824
 1715SOL     OW 6114   0.268   0.991   2.440 -0.0954 -0.0288  0.0860
 1715SOL    HW1 6115   0.272   1.037   2.356 -0.3670  0.0090  0.0926
 1715SOL    HW2 6116   0.176   0.967   2.449  0.2215 -1.5424 -0.4377
 1716SOL     OW 6117   2.855   6.338   0.893  0.2108  0.3866 -1.4777
 1716SOL    HW1 6118   2.922   6.387   0.846 -0.2999  0.9322 -1.6443
 1716SOL    HW2 6119   2.809   6.290   0.826  0.3504  0.1063 -1.3756
 1717SOL     OW 6120   2.490   0.767   0.841  0.8575  0.0873 -0.4237
 1717SOL    HW1 6121   2.575   0.806   0.860  1.1885 -0.6551 -0.3411
 1717SOL    HW2 6122   2.499   0.676   0.867 -0.1041  0.0948 -0.0261
 1718SOL     OW 6123   5.608   1.280   4.276  0.2928 -0.4960 -0.2760
 1718SOL    HW1 6124   5.551   1.304   4.202 -2.0613  2.3965  2.2000
 1718SOL    HW2 6125   5.597   1.185   4.285  0.3091 -0.8739 -3.2635
 1719SOL     OW 6126   5.274   4.465   4.091 -0.7153  0.4911 -0.1425
 1719SOL    HW1 6127   5.193   4.442   4.045 -0.5850  2.2768 -1.3794
 1719SOL    HW2 6128   5.268   4.560   4.104  1.5662  0.8303 -1.0754
 1720SOL     OW 6129   4.280   2.818   2.627 -0.1437  0.1717 -0.2516
 1720SOL    HW1 6130   4.373   2.803   2.611 -0.2797 -1.6095  0.4103
 1720SOL    HW2 6131   4.250   2.868   2.551  1.2069  0.2532 -0.7582
 1721SOL     OW 6132   4.397   0.103   6.601  0.2538 -0.4532  0.2204
 1721SOL    HW1 6133   4.319   0.131   6.553  0.4879  0.1093  0.1590
 1721SOL    HW2 6134   4.366   0.090   6.691  0.1208 -0.0774  0.2307
 1722SOL     OW 6135   1.790   0.115   6.714 -0.0490 -0.6276 -0.0969
 1722SOL    HW1 6136   1.741   0.160   6.783 -0.4633 -1.2530  0.0341
 1722SOL    HW2 6137   1.811   0.029   6.751  1.1668 -0.3713 -0.1548
 1723SOL     OW 6138   3.272   2.095   5.717  0.3245  0.1451  0.9192
 1723SOL    HW1 6139   3.196   2.037   5.707 -0.5883  1.3143  0.7686
 1723SOL    HW2 6140   3.266   2.128   5.807  1.3771 -0.7037  1.3177
 1724SOL     OW 6141   3.424   0.012   3.915  0.3629  0.3565 -0.1808
 1724SOL    HW1 6142   3.474   0.093   3.903 -0.7690  1.1576  0.2435
 1724SOL    HW2 6143   3.376   0.001   3.833 -1.5914  1.6846  0.6892
 1725SOL     OW 6144   7.126   1.016   2.485  0.1809  0.4442 -0.0482
 1725SOL    HW1 6145   7.081   1.000   2.402 -0.1962 -0.1648  0.2672
 1725SOL    HW2 6146   7.079   1.091   2.524 -1.6247 -1.1211  0.9946
 1726SOL     OW 6147   6.457   3.601   0.567  0.6317  0.7085 -0.2563
 1726SOL    HW1 6148   6.417   3.687   0.550 -0.2306  0.2335 -0.6528
 1726SOL    HW2 6149   6.544   3.623   0.601  1.2765  1.7314 -2.3493
 1727SOL     OW 6150   6.251   4.710   1.234  0.0354  0.3769 -0.3219
 1727SOL    HW1 6151   6.179   4.649   1.250  1.0580 -0.6032  0.7453
 1727SOL    HW2 6152   6.312   4.661   1.179  0.8007  0.4604  0.4248
 1728SOL     OW 6153   4.868   1.548   1.774 -0.5002  0.2188 -0.7705
 1728SOL    HW1 6154   4.873   1.643   1.774  0.2621  0.1862 -0.6545
 1728SOL    HW2 6155   4.787   1.528   1.821 -0.1601  0.7888  0.0700
 1729SOL     OW 6156   6.089   4.732   3.627 -0.4500 -0.0016 -0.2858
 1729SOL    HW1 6157   6.143   4.800   3.587 -0.2790 -1.0877 -2.0049
 1729SOL    HW2 6158   6.003   4.773   3.639 -0.1141  0.7747 -0.4839
 1730SOL     OW 6159   5.308   2.027   2.738 -0.2906  0.1910 -0.2398
 1730SOL    HW1 6160   5.325   2.118   2.763 -0.0880  0.7755 -2.3774
 1730SOL    HW2 6161   5.226   2.030   2.689  0.1348 -0.6502 -1.0272
 1731SOL     OW 6162   6.453   5.959   2.801 -0.2153 -0.4902  0.0376
 1731SOL    HW1 6163   6.499   6.043   2.802  1.8193 -1.5357  0.8417
 1731SOL    HW2 6164   6.367   5.978   2.837 -0.2452  1.4546 -0.9295
 1732SOL     OW 6165   0.228   7.263   5.790  0.1905 -0.1392 -0.5112
 1732SOL    HW1 6166   0.268   7.209   5.721  0.3346 -0.9846  0.2111
 1732SOL    HW2 6167   0.302   7.292   5.843  0.1280  0.9356 -0.9973
 1733SOL     OW 6168   5.779   6.365   3.935 -0.3514  0.3154  0.4620
 1733SOL    HW1 6169   5.704   6.341   3.880  1.1364  0.2357 -1.6582
 1733SOL    HW2 6170   5.755   6.335   4.023 -1.7986 -1.9311 -0.6006
 1734SOL     OW 6171   2.504   0.849   4.552  0.4822  0.2831  0.5925
 1734SOL    HW1 6172   2.476   0.938   4.533 -0.2050  0.0791  0.6239
 1734SOL    HW2 6173   2.425   0.804   4.581  0.7302 -0.4517  0.1707
 1735SOL     OW 6174   2.680   4.063   1.935  0.4838 -0.5451 -0.3219
 1735SOL    HW1 6175   2.708   4.061   2.026 -0.0183 -1.1172 -0.1767
 1735SOL    HW2 6176   2.585   4.075   1.939  0.3452 -1.4521 -0.7440
 1736SOL     OW 6177   3.602   4.157   0.505 -0.1728 -0.2931 -0.4772
 1736SOL    HW1 6178   3.577   4.202   0.585  1.3106  0.4931 -0.4047
 1736SOL    HW2 6179   3.533   4.179   0.442  0.4584  2.1293 -0.4367
 1737SOL     OW 6180   5.602   1.155   1.666  0.6563 -0.4566  0.3143
 1737SOL    HW1 6181   5.605   1.250   1.666  2.2181 -0.4437  2.1041
 1737SOL    HW2 6182   5.511   1.133   1.645  0.3991  1.3825 -0.6411
 1738SOL     OW 6183   6.885   1.111   6.135  0.4207  0.7194 -0.0354
 1738SOL    HW1 6184   6.855   1.042   6.195 -0.5369  2.1857  1.2661
 1738SOL    HW2 6185   6.961   1.073   6.091  0.6535 -0.7478  1.5012
 1739SOL     OW 6186   7.007   5.414   2.939  0.5197  0.0727  0.2934
 1739SOL    HW1 6187   7.044   5.375   2.860 -1.7257 -0.9785 -0.3251
 1739SOL    HW2 6188   6.977   5.500   2.912  0.6106  0.0912  0.2511
 1740SOL     OW 6189   4.031   1.618   6.120 -0.2554 -0.7170  0.1440
 1740SOL    HW1 6190   4.088   1.630   6.196  1.4786 -0.8870 -1.0821
 1740SOL    HW2 6191   4.034   1.524   6.103 -0.7199 -0.6914 -0.0849
 1741SOL     OW 6192   1.889   4.913   1.462  0.0682  0.2161  0.1008
 1741SOL    HW1 6193   1.805   4.957   1.465  0.2249  0.4730  0.9304
 1741SOL    HW2 6194   1.933   4.950   1.385  0.3397  1.7942  0.9693
 1742SOL     OW 6195   5.038   2.900   5.395 -0.1652 -0.1016  0.2178
 1742SOL    HW1 6196   5.020   2.860   5.310  1.1893 -2.1072  0.7827
 1742SOL    HW2 6197   4.956   2.888   5.444  0.2537 -2.6484  0.4640
 1743SOL     OW 6198   1.838   1.057   2.648 -0.1646  0.4662 -0.0821
 1743SOL    HW1 6199   1.787   1.139   2.650  0.1614  0.6631  0.3386
 1743SOL    HW2 6200   1.825   1.019   2.735  1.4509  1.1809  0.5258
 1744SOL     OW 6201   6.888   2.179   2.417  0.1332 -0.1649  0.1862
 1744SOL    HW1 6202   6.898   2.171   2.512 -0.1650 -0.2590  0.2112
 1744SOL    HW2 6203   6.943   2.254   2.393  1.7981 -1.3642  0.1477
 1745SOL     OW 6204   6.137   2.816   1.958 -0.2782  0.4141  0.0718
 1745SOL    HW1 6205   6.131   2.834   2.052  1.7415  0.3043  0.2651
 1745SOL    HW2 6206   6.057   2.854   1.922 -0.4683  1.6716  1.6557
 1746SOL     OW 6207   0.655   2.300   0.889  0.4862 -0.0739 -0.4041
 1746SOL    HW1 6208   0.664   2.393   0.909 -1.0672  0.6499 -2.6708
 1746SOL    HW2 6209   0.628   2.260   0.971  2.8246  1.1239  1.0652
 1747SOL     OW 6210   3.636   4.529   2.618  0.4191  0.5324  0.0347
 1747SOL    HW1 6211   3.727   4.554   2.603  0.3196  0.3474 -0.9083
 1747SOL    HW2 6212   3.587   4.610   2.605  0.4131  0.5625  0.2360
 1748SOL     OW 6213   6.384   1.835   4.467 -0.3045  0.0972  0.3601
 1748SOL    HW1 6214   6.360   1.896   4.397  0.8711 -0.4616 -0.5775
 1748SOL    HW2 6215   6.480   1.828   4.461 -0.4079 -1.9313  0.3231
 1749SOL     OW 6216   4.776   5.932   6.368  1.0441 -0.0922 -0.0122
 1749SOL    HW1 6217   4.718   5.859   6.343  0.6287  0.4368 -0.6130
 1749SOL    HW2 6218   4.838   5.938   6.296  1.3774 -0.1660  0.2701
 1750SOL     OW 6219   1.906   0.325   6.113  0.3405 -0.4751 -0.4419
 1750SOL    HW1 6220   1.894   0.354   6.203  0.3254  0.9726 -0.8675
 1750SOL    HW2 6221   1.869   0.396   6.060  2.2518 -0.2703 -1.6108
 1751SOL     OW 6222   3.533   3.406   7.091 -0.0281  0.3364  0.6327
 1751SOL    HW1 6223   3.617   3.426   7.132  0.4788 -0.0893 -0.1761
 1751SOL    HW2 6224   3.492   3.492   7.078  1.0666  0.7222 -0.5816
 1752SOL     OW 6225   2.384   6.990   5.278  0.2723  0.0513  0.1709
 1752SOL    HW1 6226   2.408   7.032   5.196  1.2164  1.8895  1.3148
 1752SOL    HW2 6227   2.465   6.989   5.329  0.4779 -3.8109  0.0370
 1753SOL     OW 6228   2.970   4.635   5.956  0.0676 -0.4927 -0.3378
 1753SOL    HW1 6229   3.026   4.713   5.954 -0.4961 -0.0471  0.6589
 1753SOL    HW2 6230   3.010   4.576   5.892  0.9434  0.3113 -0.5623
 1754SOL     OW 6231   2.043   5.853   4.447 -0.2555  0.7101 -0.0487
 1754SOL    HW1 6232   1.953   5.843   4.478 -0.3709  0.7657 -0.3575
 1754SOL    HW2 6233   2.096   5.858   4.527 -0.1831 -2.2049  0.1881
 1755SOL     OW 6234   2.290   2.924   7.126 -0.4296  0.2075  0.4976
 1755SOL    HW1 6235   2.351   2.981   7.173 -0.1602 -1.3189  2.0919
 1755SOL    HW2 6236   2.338   2.898   7.047 -0.5721  2.1425 -0.2834
 1756SOL     OW 6237   3.757   2.361   6.215  0.0630 -0.0027 -0.4749
 1756SOL    HW1 6238   3.846   2.379   6.185  0.7530  1.1516  2.0568
 1756SOL    HW2 6239   3.737   2.431   6.277 -2.4134 -0.5512 -0.5335
 1757SOL     OW 6240   4.641   1.920   1.809  0.4353  0.3157 -0.2028
 1757SOL    HW1 6241   4.723   1.869   1.809  1.2152  1.4646 -1.9218
 1757SOL    HW2 6242   4.581   1.868   1.756 -0.1756 -0.7889  1.4942
 1758SOL     OW 6243   3.652   1.275   1.185 -0.4276 -0.2201  0.5805
 1758SOL    HW1 6244   3.711   1.282   1.261  0.4787  0.7952 -0.1652
 1758SOL    HW2 6245   3.606   1.193   1.197  1.5456 -1.3473  0.9577
 1759SOL     OW 6246   0.659   6.683   6.049  0.0840  0.0749  0.2687
 1759SOL    HW1 6247   0.662   6.778   6.034 -1.1730  0.3540  1.5361
 1759SOL    HW2 6248   0.597   6.650   5.985 -0.2697  0.2816  0.4984
 1760SOL     OW 6249   5.477   6.307   0.710 -0.1862  1.1647  0.0741
 1760SOL    HW1 6250   5.389   6.336   0.734 -0.3238 -0.4554  1.7281
 1760SOL    HW2 6251   5.516   6.277   0.792  1.7083  1.2661 -0.7240
 1761SOL     OW 6252   0.610   5.243   6.192  0.1820  0.4065  0.1826
 1761SOL    HW1 6253   0.604   5.282   6.105 -1.6273 -0.1797 -0.0104
 1761SOL    HW2 6254   0.533   5.276   6.238  1.5983  1.4725  1.9344
 1762SOL     OW 6255   7.349   5.915   4.469 -0.1653  0.0196  0.8403
 1762SOL    HW1 6256   7.260   5.888   4.446  0.2157 -0.7171  0.1756
 1762SOL    HW2 6257   7.345   6.010   4.471 -0.2113  0.2123 -2.5920
 1763SOL     OW 6258   0.946   5.977   0.570  0.1021 -0.5434  0.2006
 1763SOL    HW1 6259   0.855   6.008   0.575  0.1863 -0.4690  1.7073
 1763SOL    HW2 6260   0.999   6.055   0.588  0.4301 -0.8344  0.4934
 1764SOL     OW 6261   6.563   3.928   5.490 -0.1072 -0.3379 -0.2367
 1764SOL    HW1 6262   6.605   3.959   5.410 -1.5438  0.4911 -0.7135
 1764SOL    HW2 6263   6.614   3.851   5.515  0.1308 -0.8863 -2.1903
 1765SOL     OW 6264   5.120   2.363   4.334 -0.0876  0.0628 -0.2222
 1765SOL    HW1 6265   5.084   2.450   4.317  2.2595  1.0468 -0.5227
 1765SOL    HW2 6266   5.203   2.380   4.378 -0.2305 -2.0989  1.0231
 1766SOL     OW 6267   5.938   3.997   6.126 -0.2204 -0.2445 -0.1421
 1766SOL    HW1 6268   5.974   3.977   6.040  0.7754  1.7778 -0.2392
 1766SOL    HW2 6269   5.990   3.943   6.187  1.5166  0.9515 -0.4971
 1767SOL     OW 6270   6.285   3.114   2.016 -0.2976 -0.7212  0.0808
 1767SOL    HW1 6271   6.322   3.026   2.019 -0.4578 -0.7616  1.9604
 1767SOL    HW2 6272   6.341   3.165   2.074 -1.3542 -0.0515  0.5377
 1768SOL     OW 6273   6.652   7.125   0.299  0.4560 -0.2180  0.8003
 1768SOL    HW1 6274   6.699   7.077   0.230 -0.6394 -0.9660  0.5437
 1768SOL    HW2 6275   6.597   7.058   0.341 -0.9705  0.7721  0.5621
 1769SOL     OW 6276   6.097   4.764   4.064 -0.1806 -0.4547 -0.2223
 1769SOL    HW1 6277   6.064   4.675   4.062  1.0933 -0.9577  0.0056
 1769SOL    HW2 6278   6.189   4.756   4.037 -0.1736  0.8432 -0.6413
 1770SOL     OW 6279   4.453   1.408   4.069  0.2278 -1.0902  0.2796
 1770SOL    HW1 6280   4.420   1.327   4.030  2.0658 -1.6833 -0.1424
 1770SOL    HW2 6281   4.459   1.469   3.996 -1.4511 -0.4353  0.6524
 1771SOL     OW 6282   5.550   1.830   1.657  0.8744  0.1490  0.6285
 1771SOL    HW1 6283   5.569   1.840   1.564 -0.1711 -0.2604  0.3645
 1771SOL    HW2 6284   5.573   1.915   1.695 -1.7968  1.5143 -0.5377
 1772SOL     OW 6285   5.396   0.382   1.827 -0.4655  0.4421 -0.2544
 1772SOL    HW1 6286   5.383   0.295   1.791 -1.8770  1.4290 -2.2921
 1772SOL    HW2 6287   5.460   0.423   1.769 -1.0503  1.2940 -0.3203
 1773SOL     OW 6288   0.196   3.213   1.178  0.1985 -0.0513 -0.0471
 1773SOL    HW1 6289   0.251   3.165   1.115  0.8509  0.0018  0.4667
 1773SOL    HW2 6290   0.249   3.216   1.258  0.2578  1.7157 -0.1192
 1774SOL     OW 6291   1.526   4.735   5.985  0.6307  0.4346 -0.0158
 1774SOL    HW1 6292   1.487   4.812   6.028  1.7598  0.8990  0.2057
 1774SOL    HW2 6293   1.462   4.665   6.000  0.2468  0.9792  1.0146
 1775SOL     OW 6294   3.567   4.722   1.040  0.8008  0.1723  0.2046
 1775SOL    HW1 6295   3.650   4.681   1.063  1.3634  0.8214 -0.5912
 1775SOL    HW2 6296   3.574   4.811   1.077  0.4035  0.1895  0.2417
 1776SOL     OW 6297   0.145   1.817   0.156  0.0970 -0.7465  0.1737
 1776SOL    HW1 6298   0.085   1.744   0.174 -1.5639  0.7866  1.1241
 1776SOL    HW2 6299   0.138   1.831   0.062 -0.9889 -0.6694  0.2495
 1777SOL     OW 6300   1.177   0.849   0.496 -0.1539 -0.4975 -0.0204
 1777SOL    HW1 6301   1.096   0.892   0.469  0.7318  1.3268  0.0773
 1777SOL    HW2 6302   1.246   0.895   0.447  0.9657 -0.9347  1.0932
 1778SOL     OW 6303   5.215   0.389   2.732  0.1848  0.3185 -0.3177
 1778SOL    HW1 6304   5.145   0.445   2.765 -0.3576 -0.2630 -0.4502
 1778SOL    HW2 6305   5.171   0.328   2.673  0.8203  0.0118 -0.4875
 1779SOL     OW 6306   0.451   7.232   4.671  0.0188 -0.3843  0.1471
 1779SOL    HW1 6307   0.496   7.185   4.742  0.2069 -1.0605 -0.4032
 1779SOL    HW2 6308   0.496   7.202   4.592  0.0591  0.6491 -0.2312
 1780SOL     OW 6309   6.753   0.048   2.445  0.1102 -0.1902  0.2060
 1780SOL    HW1 6310   6.721  -0.037   2.415  2.2946 -1.0492  0.1110
 1780SOL    HW2 6311   6.726   0.109   2.378 -1.2919 -0.8351  0.1499
 1781SOL     OW 6312   1.477   4.754   1.122 -0.0242  0.0854 -0.4331
 1781SOL    HW1 6313   1.568   4.772   1.098 -0.6036  1.2843 -1.8846
 1781SOL    HW2 6314   1.470   4.658   1.114  1.1946 -0.0658  0.0734
 1782SOL     OW 6315   4.232   1.224   4.490  0.5454 -0.3274 -0.1804
 1782SOL    HW1 6316   4.229   1.287   4.418 -0.4699 -0.1109  0.0357
 1782SOL    HW2 6317   4.311   1.248   4.539 -0.5895  1.8070  0.7775
 1783SOL     OW 6318   6.620   4.818   7.158 -0.1712 -0.7930 -0.1415
 1783SOL    HW1 6319   6.695   4.773   7.197  0.1349  0.3668  0.6533
 1783SOL    HW2 6320   6.642   4.823   7.064  0.4957 -0.9266 -0.0015
 1784SOL     OW 6321   1.305   7.269   4.633 -0.0586  0.1004 -0.0593
 1784SOL    HW1 6322   1.333   7.209   4.565 -1.2929 -2.9887  1.9413
 1784SOL    HW2 6323   1.219   7.237   4.661  1.2099 -0.2294  4.2831
 1785SOL     OW 6324   5.134   1.155   0.249 -0.2301  0.3973 -0.8756
 1785SOL    HW1 6325   5.144   1.069   0.207  1.0006  0.4629 -0.7715
 1785SOL    HW2 6326   5.089   1.136   0.332  2.3982 -0.6036  0.4444
 1786SOL     OW 6327   4.221   0.785   6.909 -0.8629 -0.1935 -0.4322
 1786SOL    HW1 6328   4.262   0.755   6.991 -0.7802  2.5204  0.6346
 1786SOL    HW2 6329   4.154   0.720   6.890 -0.7669 -0.9985  1.7210
 1787SOL     OW 6330   4.787   5.685   4.125 -0.0981 -0.0858 -0.4809
 1787SOL    HW1 6331   4.772   5.626   4.051 -1.6615  0.5590 -0.7146
 1787SOL    HW2 6332   4.874   5.721   4.110  0.5435 -1.6566 -0.7895
 1788SOL     OW 6333   0.937   4.014   2.338  0.2653  0.7932 -0.0808
 1788SOL    HW1 6334   0.985   4.088   2.375  0.5555  0.1452  0.8752
 1788SOL    HW2 6335   0.850   4.049   2.319  0.4436  1.4147  0.2287
 1789SOL     OW 6336   4.311   4.866   5.728  0.3334 -0.8398 -0.1014
 1789SOL    HW1 6337   4.280   4.791   5.778  1.5954  1.1502  4.1651
 1789SOL    HW2 6338   4.405   4.868   5.742  0.7092  0.1298 -2.3261
 1790SOL     OW 6339   2.412   5.472   6.772 -0.5149 -0.1530  0.6870
 1790SOL    HW1 6340   2.404   5.536   6.701  1.7136 -1.1121 -0.5357
 1790SOL    HW2 6341   2.370   5.393   6.738  0.2049 -0.4904  0.5521
 1791SOL     OW 6342   0.381   4.574   4.973 -0.3404  0.2070 -0.5969
 1791SOL    HW1 6343   0.447   4.505   4.978  0.0569  0.6551  0.9449
 1791SOL    HW2 6344   0.297   4.528   4.981 -0.1530 -0.2248 -1.0726
 1792SOL     OW 6345   1.068   5.470   0.332  0.1242  0.4400  0.0454
 1792SOL    HW1 6346   1.077   5.490   0.425 -0.6724 -0.2110  0.2755
 1792SOL    HW2 6347   0.992   5.412   0.327  1.9968 -2.1477 -0.6011
 1793SOL     OW 6348   4.944   2.334   6.477 -0.7665 -0.6771 -0.7271
 1793SOL    HW1 6349   4.936   2.270   6.548  0.9822 -0.8432 -0.6525
 1793SOL    HW2 6350   4.914   2.287   6.400  0.5932 -1.6668 -0.6945
 1794SOL     OW 6351   6.694   3.756   6.994 -0.1104  0.2756  0.4868
 1794SOL    HW1 6352   6.771   3.807   7.019 -0.7279  0.0201  3.1922
 1794SOL    HW2 6353   6.722   3.706   6.917  1.6133  1.9826 -0.0868
 1795SOL     OW 6354   3.528   2.664   1.958  0.1481 -0.6580  0.4549
 1795SOL    HW1 6355   3.490   2.621   2.035 -0.7053  1.5164  1.3453
 1795SOL    HW2 6356   3.479   2.629   1.884 -2.7255  0.9743  1.4432
 1796SOL     OW 6357   2.060   6.270   2.789 -0.0152 -0.4622 -0.3892
 1796SOL    HW1 6358   1.978   6.280   2.837 -1.0465  0.5060 -2.2242
 1796SOL    HW2 6359   2.101   6.191   2.826 -1.4123 -0.5598  1.0424
 1797SOL     OW 6360   6.195   6.015   2.851  0.9163  0.1634 -0.3656
 1797SOL    HW1 6361   6.142   6.038   2.775  0.1210  0.2194  0.1917
 1797SOL    HW2 6362   6.159   6.068   2.922  1.7882  0.2696  0.0064
 1798SOL     OW 6363   4.767   5.811   5.953 -0.3371 -0.0794  0.0777
 1798SOL    HW1 6364   4.701   5.823   6.021 -1.2671  0.2239 -0.8483
 1798SOL    HW2 6365   4.738   5.869   5.881 -0.0911 -1.3285 -1.0682
 1799SOL     OW 6366   6.851   6.617   2.573  0.1247 -0.3442 -0.1947
 1799SOL    HW1 6367   6.881   6.594   2.485  0.8131  0.2020 -0.1134
 1799SOL    HW2 6368   6.909   6.688   2.600 -0.8145  0.2865  0.2436
 1800SOL     OW 6369   4.270   4.531   3.021  0.0920  1.1675  0.5405
 1800SOL    HW1 6370   4.365   4.518   3.020 -0.0755 -0.3858 -1.2997
 1800SOL    HW2 6371   4.258   4.624   3.001  1.2384  1.0987 -0.6277
 1801SOL     OW 6372   3.435   5.359   1.117  0.2628 -0.3818 -0.2429
 1801SOL    HW1 6373   3.378   5.401   1.052  0.3189  0.2584  0.1144
 1801SOL    HW2 6374   3.519   5.350   1.073 -0.0756 -1.2475 -0.7430
 1802SOL     OW 6375   7.023   4.850   4.350  0.3077 -0.3287  0.3670
 1802SOL    HW1 6376   6.932   4.820   4.345 -0.5719  1.8240  1.9663
 1802SOL    HW2 6377   7.065   4.788   4.409 -1.0268  0.4955  2.2770
 1803SOL     OW 6378   2.529   3.498   1.477  0.1569  0.1053 -0.4178
 1803SOL    HW1 6379   2.488   3.585   1.477 -2.1387 -0.8512 -2.4148
 1803SOL    HW2 6380   2.561   3.487   1.388  1.5610 -0.6396  0.1511
 1804SOL     OW 6381   5.516   6.621   2.065  0.7133 -0.0863 -0.0944
 1804SOL    HW1 6382   5.588   6.678   2.040  1.4616 -0.6805  0.6516
 1804SOL    HW2 6383   5.557   6.536   2.082 -0.0474 -0.2420  1.0756
 1805SOL     OW 6384   5.429   0.975   2.329  0.4886  0.3273  0.0854
 1805SOL    HW1 6385   5.455   1.059   2.294 -0.2927  0.0490 -1.2321
 1805SOL    HW2 6386   5.507   0.942   2.374  1.8835  0.2669 -2.2315
 1806SOL     OW 6387   2.116   0.098   6.765 -0.1121  0.0670 -0.0109
 1806SOL    HW1 6388   2.130   0.101   6.671 -0.4247 -0.2568 -0.0702
 1806SOL    HW2 6389   2.059   0.022   6.779 -1.3372  1.0048  0.2873
 1807SOL     OW 6390   6.590   6.634   3.963 -0.6847  0.0605  0.4723
 1807SOL    HW1 6391   6.536   6.645   3.885  0.2781 -1.0961 -0.3909
 1807SOL    HW2 6392   6.548   6.564   4.012 -1.6105  1.1643  1.3207
 1808SOL     OW 6393   1.154   2.462   3.971 -0.5972  0.3841 -0.1266
 1808SOL    HW1 6394   1.087   2.462   4.039 -1.4078  0.2165 -0.9020
 1808SOL    HW2 6395   1.226   2.411   4.008  0.1492  2.5800  1.6853
 1809SOL     OW 6396   2.971   5.660   6.128  0.0559 -0.0048 -0.4648
 1809SOL    HW1 6397   3.061   5.653   6.096  0.2895  0.0594  0.1654
 1809SOL    HW2 6398   2.975   5.633   6.219 -0.3479  1.0973 -0.0964
 1810SOL     OW 6399   7.158   3.416   3.772 -0.2687 -0.0360 -0.0078
 1810SOL    HW1 6400   7.241   3.384   3.735 -0.4133  0.6055 -0.9264
 1810SOL    HW2 6401   7.121   3.340   3.816  1.0191 -0.2190  0.8259
 1811SOL     OW 6402   0.212   6.669   3.737 -0.1374 -0.0115 -0.3057
 1811SOL    HW1 6403   0.162   6.656   3.818  0.5324 -0.8792 -0.0237
 1811SOL    HW2 6404   0.146   6.698   3.673 -0.9724 -0.9273  0.1131
 1812SOL     OW 6405   0.355   1.053   5.661 -0.1597 -0.4007 -0.3177
 1812SOL    HW1 6406   0.332   0.961   5.670 -3.8891  0.4361  0.2830
 1812SOL    HW2 6407   0.315   1.080   5.578 -0.9200  1.0825  0.4939
 1813SOL     OW 6408   0.766   1.019   4.697  0.0129  0.4250 -0.1576
 1813SOL    HW1 6409   0.757   1.115   4.699 -1.8019  0.3643 -2.0171
 1813SOL    HW2 6410   0.766   0.994   4.789 -0.9913  2.1389  0.3677
 1814SOL     OW 6411   6.422   3.093   5.140 -0.7682 -0.7259 -0.9144
 1814SOL    HW1 6412   6.336   3.075   5.100 -1.6461 -0.5432  0.7982
 1814SOL    HW2 6413   6.407   3.168   5.197  0.7902 -0.0835 -1.2988
 1815SOL     OW 6414   5.332   4.673   0.068 -0.9905  0.0415  0.9721
 1815SOL    HW1 6415   5.259   4.655   0.128 -0.7017  2.6944  2.2449
 1815SOL    HW2 6416   5.405   4.697   0.125  0.0991  0.0271 -0.3688
 1816SOL     OW 6417   2.493   4.024   4.496  0.6256 -0.7347 -0.1622
 1816SOL    HW1 6418   2.471   3.992   4.408  1.9231 -0.2856 -0.6764
 1816SOL    HW2 6419   2.588   4.039   4.493  0.5138  0.3612  0.9753
 1817SOL     OW 6420   0.258   0.785   6.660 -0.0481  0.2537 -0.0063
 1817SOL    HW1 6421   0.267   0.793   6.755  1.9198 -0.6823 -0.0661
 1817SOL    HW2 6422   0.224   0.697   6.647 -0.9547  0.6206 -0.1546
 1818SOL     OW 6423   6.208   2.759   4.076  0.1629 -0.0952 -0.1229
 1818SOL    HW1 6424   6.162   2.789   4.154  1.1321  1.3190 -0.0618
 1818SOL    HW2 6425   6.207   2.834   4.017  3.2570  0.3995  0.2958
 1819SOL     OW 6426   2.833   0.072   0.259 -0.1707  0.1285 -0.3066
 1819SOL    HW1 6427   2.813   0.138   0.325 -0.3614 -0.0570 -0.1800
 1819SOL    HW2 6428   2.876   0.121   0.188 -0.7985  0.4735 -0.4518
 1820SOL     OW 6429   0.804   0.556   5.064 -0.1082 -0.3058  0.4097
 1820SOL    HW1 6430   0.877   0.571   5.124  1.1531 -1.2344 -0.8162
 1820SOL    HW2 6431   0.805   0.632   5.005  0.2728 -0.5907  0.0350
 1821SOL     OW 6432   3.887   2.176   6.404 -0.0637  0.0440  0.1164
 1821SOL    HW1 6433   3.850   2.226   6.332 -1.3574 -1.4551 -0.3267
 1821SOL    HW2 6434   3.866   2.085   6.384  0.2990 -0.5034  1.9565
 1822SOL     OW 6435   6.784   6.116   6.906  0.0468 -0.3704  0.4628
 1822SOL    HW1 6436   6.827   6.110   6.820  1.5070 -1.0824  1.1935
 1822SOL    HW2 6437   6.709   6.057   6.900  0.1252 -0.4034 -0.3246
 1823SOL     OW 6438   5.902   1.362   3.899 -0.8397 -0.2013  0.3008
 1823SOL    HW1 6439   5.847   1.354   3.821  0.5301  0.2932 -0.7569
 1823SOL    HW2 6440   5.954   1.441   3.883 -0.0007 -0.5241  1.3800
 1824SOL     OW 6441   5.383   2.987   2.715 -0.4546  0.1886 -0.2652
 1824SOL    HW1 6442   5.456   2.942   2.673 -0.5802 -0.8567  0.5741
 1824SOL    HW2 6443   5.307   2.933   2.694 -1.0350  1.3258 -1.2264
 1825SOL     OW 6444   4.085   5.536   5.323  0.0229 -0.1090 -0.1817
 1825SOL    HW1 6445   4.147   5.581   5.381  1.1786 -0.5657 -1.0228
 1825SOL    HW2 6446   4.006   5.525   5.376  0.8617 -0.0403  1.1260
 1826SOL     OW 6447   3.784   5.144   2.239  0.6157 -0.2171  0.2996
 1826SOL    HW1 6448   3.793   5.058   2.279  0.7614 -0.4967 -0.3227
 1826SOL    HW2 6449   3.722   5.191   2.296  0.0707 -0.9318  0.3034
 1827SOL     OW 6450   7.133   3.148   1.256  0.6535  0.0243 -0.7540
 1827SOL    HW1 6451   7.167   3.233   1.284  0.9188 -0.0544 -0.8317
 1827SOL    HW2 6452   7.205   3.110   1.205  1.2669 -1.0522  0.8471
 1828SOL     OW 6453   2.544   4.938   1.315 -0.5259  0.0484  0.1344
 1828SOL    HW1 6454   2.527   4.967   1.405 -0.1345 -0.0575  0.2405
 1828SOL    HW2 6455   2.603   4.864   1.324  0.1379  0.5183 -0.2472
 1829SOL     OW 6456   5.841   1.580   5.177  0.2786  0.1055  0.4986
 1829SOL    HW1 6457   5.838   1.675   5.188 -0.3736  0.2794 -0.9887
 1829SOL    HW2 6458   5.753   1.555   5.150  0.5820 -0.8527  0.3266
 1830SOL     OW 6459   4.867   1.681   3.550 -0.1948  0.2296  0.2639
 1830SOL    HW1 6460   4.803   1.730   3.497 -0.2993 -0.8608 -0.6566
 1830SOL    HW2 6461   4.899   1.612   3.491  0.9598  0.0300  1.0957
 1831SOL     OW 6462   0.848   3.070   2.126  0.2639  0.1097  0.4005
 1831SOL    HW1 6463   0.932   3.091   2.086  1.3803 -2.9677  0.7820
 1831SOL    HW2 6464   0.842   3.127   2.202  1.5672  1.0143 -0.1556
 1832SOL     OW 6465   4.146   2.829   0.120  0.2819 -0.0687 -0.1440
 1832SOL    HW1 6466   4.071   2.877   0.154  0.7405 -0.1356  0.9861
 1832SOL    HW2 6467   4.135   2.833   0.025  0.1421  2.0214 -0.0901
 1833SOL     OW 6468   4.231   3.309   2.534  0.7004  0.3382  0.1062
 1833SOL    HW1 6469   4.247   3.388   2.586 -0.3748  0.1047  0.8239
 1833SOL    HW2 6470   4.313   3.260   2.538  1.1997  1.1552  0.1068
 1834SOL     OW 6471   1.198   5.818   3.577 -0.2001  0.2361 -0.3169
 1834SOL    HW1 6472   1.257   5.833   3.503  1.8293  1.7551  1.4916
 1834SOL    HW2 6473   1.224   5.732   3.610  1.6662  1.2074  0.9270
 1835SOL     OW 6474   6.898   2.616   1.269  0.2705  0.8423  0.4587
 1835SOL    HW1 6475   6.935   2.539   1.226  0.7437 -0.2690  2.6852
 1835SOL    HW2 6476   6.869   2.672   1.197 -0.2110 -1.4382 -1.2522
 1836SOL     OW 6477   5.322   2.938   1.365 -0.0327 -0.3798 -0.3353
 1836SOL    HW1 6478   5.345   2.935   1.272 -0.3303  1.9107 -0.5563
 1836SOL    HW2 6479   5.226   2.947   1.365 -0.0774 -0.8148  0.2241
 1837SOL     OW 6480   3.830   6.068   0.823  0.1688 -0.3509 -0.1038
 1837SOL    HW1 6481   3.791   6.123   0.756  0.9657  0.2853 -0.0471
 1837SOL    HW2 6482   3.909   6.032   0.783 -1.3114 -3.1123 -0.8770
 1838SOL     OW 6483   3.260   1.217   1.214 -0.0391 -0.7053  0.0784
 1838SOL    HW1 6484   3.223   1.193   1.299  2.0580  2.0286  1.9650
 1838SOL    HW2 6485   3.310   1.141   1.186  0.1467 -1.3097  1.9138
 1839SOL     OW 6486   4.197   2.174   4.378 -0.9763  0.7411 -0.2300
 1839SOL    HW1 6487   4.199   2.189   4.283 -1.2620  2.7832  0.0414
 1839SOL    HW2 6488   4.107   2.193   4.403 -1.0662 -0.4068  0.3997
 1840SOL     OW 6489   5.005   4.159   3.422 -0.1825 -0.2241  0.2620
 1840SOL    HW1 6490   4.925   4.211   3.422  0.4868  0.8729 -1.3573
 1840SOL    HW2 6491   5.061   4.201   3.488 -0.0807  0.4121 -0.2254
 1841SOL     OW 6492   1.141   2.120   4.595  0.1597 -0.5994 -0.3347
 1841SOL    HW1 6493   1.207   2.119   4.664 -0.5117 -0.2156  0.3305
 1841SOL    HW2 6494   1.179   2.175   4.526 -0.1313  1.0388  0.7454
 1842SOL     OW 6495   5.653   3.842   2.520 -0.0346  0.5626 -0.2648
 1842SOL    HW1 6496   5.630   3.931   2.494 -0.7357  0.2502 -0.7136
 1842SOL    HW2 6497   5.574   3.791   2.506  1.0066 -0.6335 -2.2835
 1843SOL     OW 6498   2.562   0.479   6.860  0.0139 -0.0659 -0.0209
 1843SOL    HW1 6499   2.485   0.465   6.804 -1.1142  1.2939  1.1101
 1843SOL    HW2 6500   2.572   0.574   6.862  1.5240 -0.2083  0.1716
 1844SOL     OW 6501   3.729   6.601   3.358  0.6447 -0.7239 -0.3269
 1844SOL    HW1 6502   3.758   6.511   3.372 -0.1351 -0.7220  1.6151
 1844SOL    HW2 6503   3.810   6.650   3.342  1.5447 -1.1874  2.2440
 1845SOL     OW 6504   1.608   6.629   2.608  0.1110  0.4784 -0.3883
 1845SOL    HW1 6505   1.518   6.608   2.585 -0.3115 -0.3567  1.8176
 1845SOL    HW2 6506   1.657   6.549   2.587  0.2824  0.7769 -1.1657
 1846SOL     OW 6507   5.737   3.173   2.601 -0.2133 -0.2567  0.8322
 1846SOL    HW1 6508   5.759   3.155   2.509 -1.7373 -3.7030  0.9742
 1846SOL    HW2 6509   5.764   3.263   2.615  1.0934  0.0559 -2.6826
 1847SOL     OW 6510   2.615   2.595   4.461  0.3764  0.3668 -0.1043
 1847SOL    HW1 6511   2.554   2.670   4.464  0.1991  0.1978  1.0407
 1847SOL    HW2 6512   2.661   2.600   4.544 -0.1807 -1.2452  0.3262
 1848SOL     OW 6513   4.853   1.572   2.669 -0.4506  0.2890 -0.0243
 1848SOL    HW1 6514   4.759   1.588   2.682 -0.0140  0.9506  3.1639
 1848SOL    HW2 6515   4.895   1.653   2.698  1.1460 -0.1284 -1.0769
 1849SOL     OW 6516   1.557   6.450   4.216  0.0535  0.2536  0.4256
 1849SOL    HW1 6517   1.587   6.538   4.190  2.5134 -1.0489 -1.5810
 1849SOL    HW2 6518   1.608   6.390   4.161 -1.2374 -2.4785  2.0134
 1850SOL     OW 6519   1.588   6.099   5.340 -0.4072  0.6038 -0.3660
 1850SOL    HW1 6520   1.547   6.184   5.354  0.0568  0.5812  1.4372
 1850SOL    HW2 6521   1.522   6.035   5.365 -0.1176  0.5042  0.1706
 1851SOL     OW 6522   4.517   6.864   5.035 -0.0231 -0.7299 -0.1854
 1851SOL    HW1 6523   4.576   6.913   4.979  1.0630  0.7461  2.0861
 1851SOL    HW2 6524   4.574   6.808   5.088 -0.8784 -1.2184  0.2440
 1852SOL     OW 6525   0.587   2.435   5.579  0.0128 -0.1409  0.0735
 1852SOL    HW1 6526   0.651   2.498   5.548 -2.9035  2.7012 -0.6530
 1852SOL    HW2 6527   0.559   2.388   5.500 -0.5811  0.4166 -0.0572
 1853SOL     OW 6528   2.902   2.665   5.013  0.2966  0.1426 -0.3644
 1853SOL    HW1 6529   2.842   2.616   5.069  0.4679 -0.1791 -0.4551
 1853SOL    HW2 6530   2.904   2.616   4.931  1.4823 -0.4508 -0.0055
 1854SOL     OW 6531   0.722   5.298   0.146  0.1957  0.6864 -0.2414
 1854SOL    HW1 6532   0.672   5.220   0.122  1.2745  0.1538 -0.8392
 1854SOL    HW2 6533   0.800   5.295   0.089 -0.0537  2.5428 -0.7492
 1855SOL     OW 6534   4.644   6.061   1.040 -0.1477 -0.0652 -0.3869
 1855SOL    HW1 6535   4.600   5.981   1.010 -0.9359  0.6620 -1.2503
 1855SOL    HW2 6536   4.731   6.033   1.065 -0.3039 -1.1447 -1.0065
 1856SOL     OW 6537   7.376   2.468   0.918  0.6360 -0.3274  0.0202
 1856SOL    HW1 6538   7.420   2.400   0.969  0.3180 -0.2013  0.4625
 1856SOL    HW2 6539   7.432   2.544   0.927 -0.4974  0.3351  1.9876
 1857SOL     OW 6540   2.253   6.136   0.462  0.1173 -0.0008  0.1522
 1857SOL    HW1 6541   2.261   6.206   0.527 -0.7199 -0.5656  0.8959
 1857SOL    HW2 6542   2.211   6.178   0.387  0.4257  0.4933  0.2521
 1858SOL     OW 6543   2.585   2.138   4.752  0.6246  0.1263 -0.0268
 1858SOL    HW1 6544   2.507   2.093   4.719  1.3700 -1.3194  0.1304
 1858SOL    HW2 6545   2.577   2.134   4.847 -0.0000  1.6045  0.0077
 1859SOL     OW 6546   2.283   0.804   0.009 -0.1735  0.5092  0.6686
 1859SOL    HW1 6547   2.287   0.754  -0.073 -0.9162 -0.7336  1.3620
 1859SOL    HW2 6548   2.372   0.840   0.019  1.1140 -2.5127  1.2149
 1860SOL     OW 6549   4.769   7.367   6.155 -0.5882 -0.1320  0.2075
 1860SOL    HW1 6550   4.735   7.289   6.111  1.0262 -0.1775 -1.0257
 1860SOL    HW2 6551   4.787   7.338   6.244  0.4891 -1.3488 -0.3673
 1861SOL     OW 6552   5.063   7.310   6.478 -0.2357  0.5396 -0.1702
 1861SOL    HW1 6553   5.010   7.235   6.452  0.7714 -0.4249  0.4587
 1861SOL    HW2 6554   5.020   7.344   6.557 -0.6353  0.5606 -0.3965
 1862SOL     OW 6555   3.680   6.295   0.669 -1.0063 -0.0875 -0.3915
 1862SOL    HW1 6556   3.764   6.307   0.625 -1.6508 -0.9792 -1.9318
 1862SOL    HW2 6557   3.615   6.328   0.608 -1.7795  1.1210  1.0069
 1863SOL     OW 6558   5.405   2.575   6.624 -0.1712 -0.2247 -0.5764
 1863SOL    HW1 6559   5.498   2.588   6.606 -0.4510  0.9308 -1.3154
 1863SOL    HW2 6560   5.400   2.490   6.667  1.3118  0.0478  0.1981
 1864SOL     OW 6561   2.834   2.414   0.934  0.0698  0.2775 -0.2868
 1864SOL    HW1 6562   2.849   2.356   0.859 -0.3854 -0.7566  0.3980
 1864SOL    HW2 6563   2.758   2.466   0.908  0.5577  0.6639 -0.9625
 1865SOL     OW 6564   3.339   7.120   3.033  0.1744 -0.4479  0.7914
 1865SOL    HW1 6565   3.409   7.154   3.089  0.7164  2.0192 -1.2192
 1865SOL    HW2 6566   3.384   7.067   2.968 -0.0341 -0.3423  0.5621
 1866SOL     OW 6567   7.108   0.198   6.597 -0.4565 -0.7868 -0.0797
 1866SOL    HW1 6568   7.022   0.169   6.567 -1.1772 -0.1279  1.2625
 1866SOL    HW2 6569   7.114   0.288   6.567 -0.3493 -0.7559  0.0354
 1867SOL     OW 6570   6.076   2.712   1.688  0.1573  0.1883  0.4400
 1867SOL    HW1 6571   6.005   2.656   1.721  0.1132 -0.1253 -0.1711
 1867SOL    HW2 6572   6.108   2.758   1.766 -1.3800  1.1109  0.5714
 1868SOL     OW 6573   3.756   6.663   2.424 -0.2144  0.0159 -0.1023
 1868SOL    HW1 6574   3.682   6.723   2.427  0.2510  0.5768  0.3997
 1868SOL    HW2 6575   3.772   6.649   2.331 -0.5173  0.4357 -0.2188
 1869SOL     OW 6576   1.153   3.125   4.402  0.0394 -0.2967  0.0101
 1869SOL    HW1 6577   1.077   3.159   4.449 -0.2261  1.7797 -1.7107
 1869SOL    HW2 6578   1.228   3.169   4.442  0.0289 -0.1899 -0.0852
 1870SOL     OW 6579   1.618   3.080   0.185  0.0915 -0.2940  0.3549
 1870SOL    HW1 6580   1.656   3.129   0.112 -0.4530  2.9377  2.0280
 1870SOL    HW2 6581   1.642   3.131   0.263 -2.5050 -1.4343  2.0521
 1871SOL     OW 6582   5.147   3.224   1.602  0.3285 -0.5170 -0.3591
 1871SOL    HW1 6583   5.127   3.258   1.515  2.8824 -1.3331 -1.3784
 1871SOL    HW2 6584   5.226   3.272   1.629  0.3801 -1.2560  0.8901
 1872SOL     OW 6585   5.353   2.218   1.564 -0.5889  0.4222 -0.4244
 1872SOL    HW1 6586   5.282   2.154   1.567  0.2863 -0.5351  0.9009
 1872SOL    HW2 6587   5.373   2.227   1.471 -1.1871 -0.7129 -0.6839
 1873SOL     OW 6588   5.236   1.601   3.442 -0.1184 -0.3043  0.1166
 1873SOL    HW1 6589   5.175   1.561   3.380 -0.3519  1.8027 -1.0932
 1873SOL    HW2 6590   5.310   1.628   3.388  1.4237 -1.7808  1.3887
 1874SOL     OW 6591   2.529   3.270   2.306 -0.1864 -0.1265  0.1371
 1874SOL    HW1 6592   2.562   3.256   2.217  1.0431  0.7770  0.4201
 1874SOL    HW2 6593   2.553   3.190   2.353  1.3450  0.3541  0.2357
 1875SOL     OW 6594   1.755   1.463   1.493  0.6242  0.9571 -0.4881
 1875SOL    HW1 6595   1.788   1.402   1.558 -1.7644 -0.2734 -0.3112
 1875SOL    HW2 6596   1.826   1.526   1.480  1.9898 -0.0445  1.6384
 1876SOL     OW 6597   1.092   0.382   5.043 -0.2813  0.0176  0.4231
 1876SOL    HW1 6598   1.107   0.383   5.137  0.9593  0.8521  0.2466
 1876SOL    HW2 6599   1.009   0.337   5.032 -0.0775 -0.7724  1.8641
 1877SOL     OW 6600   6.859   7.195   3.099 -0.4089  0.1116  0.1995
 1877SOL    HW1 6601   6.913   7.272   3.086 -1.0715  0.4911 -0.3711
 1877SOL    HW2 6602   6.826   7.174   3.012 -1.9744  0.4945  0.6677
 1878SOL     OW 6603   0.292   0.841   6.929  0.4364  0.0576  1.0576
 1878SOL    HW1 6604   0.303   0.912   6.992 -1.0343 -0.2024  1.6567
 1878SOL    HW2 6605   0.245   0.773   6.978 -0.1129 -0.4421 -0.1232
 1879SOL     OW 6606   1.461   6.335   1.378  0.1421  0.0243  0.4645
 1879SOL    HW1 6607   1.527   6.390   1.337 -0.4135 -0.3677 -1.0375
 1879SOL    HW2 6608   1.509   6.279   1.439  0.9942  0.6775  0.3954
 1880SOL     OW 6609   0.624   0.320   1.441  0.1966  0.8553 -0.1008
 1880SOL    HW1 6610   0.662   0.361   1.519 -0.0588  1.3790 -0.2439
 1880SOL    HW2 6611   0.531   0.312   1.461  0.0438  1.4468 -0.5347
 1881SOL     OW 6612   0.512   5.707   1.297 -0.4470  0.1329 -0.4010
 1881SOL    HW1 6613   0.539   5.623   1.333 -0.3356 -0.5635 -2.0386
 1881SOL    HW2 6614   0.550   5.710   1.209 -0.2897  1.9836 -0.3291
 1882SOL     OW 6615   1.836   6.130   1.364 -0.0922 -0.1290 -0.1030
 1882SOL    HW1 6616   1.805   6.212   1.325  0.8709  0.0453 -0.5495
 1882SOL    HW2 6617   1.911   6.105   1.310  0.7458 -0.3478  1.1163
 1883SOL     OW 6618   5.437   0.598   3.623  0.3279 -0.0073  0.0995
 1883SOL    HW1 6619   5.461   0.635   3.708 -0.5901  0.5535  0.1302
 1883SOL    HW2 6620   5.520   0.585   3.578  0.7424  1.5189  0.3457
 1884SOL     OW 6621   2.117   5.755   3.708 -0.1140  0.2443  0.2780
 1884SOL    HW1 6622   2.153   5.837   3.675  0.5866  0.1593  0.8147
 1884SOL    HW2 6623   2.144   5.690   3.643  1.4739  0.0378  1.0924
 1885SOL     OW 6624   2.751   4.941   2.087 -0.0118 -0.1686  0.2937
 1885SOL    HW1 6625   2.663   4.974   2.102  0.1186  0.3328 -0.0232
 1885SOL    HW2 6626   2.745   4.894   2.004  0.2495  0.7748 -0.2794
 1886SOL     OW 6627   5.009   2.350   3.853 -0.1094  0.7265 -0.6368
 1886SOL    HW1 6628   5.073   2.314   3.791  1.5925  2.0621  0.2592
 1886SOL    HW2 6629   5.007   2.286   3.924  1.8400  1.6184  0.2914
 1887SOL     OW 6630   5.663   6.982   4.236 -0.2046 -0.5359 -0.0606
 1887SOL    HW1 6631   5.720   6.965   4.311  2.0796  0.2261 -1.5299
 1887SOL    HW2 6632   5.634   7.072   4.247 -0.7367 -0.7627  0.4296
 1888SOL     OW 6633   1.299   0.840   2.210  0.1655  0.5490  0.4340
 1888SOL    HW1 6634   1.286   0.746   2.217  0.6083  0.4230 -0.3466
 1888SOL    HW2 6635   1.394   0.852   2.213  0.1373  0.9206  0.0099
 1889SOL     OW 6636   4.963   5.139   5.999  0.1167  0.5603 -0.0384
 1889SOL    HW1 6637   4.941   5.048   6.020 -0.5717  0.8157  0.3418
 1889SOL    HW2 6638   4.890   5.170   5.946 -0.1026  1.1763  0.6043
 1890SOL     OW 6639   1.544   4.000   1.759 -0.3321 -0.1367  0.2522
 1890SOL    HW1 6640   1.566   3.912   1.789  1.2381 -0.9998 -2.9753
 1890SOL    HW2 6641   1.574   4.058   1.828  1.2533 -2.0140  1.2084
 1891SOL     OW 6642   6.290   3.220   7.319 -0.3297  0.5130 -0.2286
 1891SOL    HW1 6643   6.305   3.209   7.414 -0.1563 -0.9311 -0.3899
 1891SOL    HW2 6644   6.245   3.140   7.293  2.0020 -0.4002 -1.8292
 1892SOL     OW 6645   4.437   3.242   6.600 -0.3965 -0.7204 -0.4606
 1892SOL    HW1 6646   4.420   3.161   6.551 -1.6064 -0.1189 -1.1078
 1892SOL    HW2 6647   4.352   3.287   6.600  0.4413  0.9495 -0.8931
 1893SOL     OW 6648   5.284   3.026   3.364 -0.4928 -0.4712  0.4102
 1893SOL    HW1 6649   5.216   3.020   3.296 -0.1698  2.2736 -0.2802
 1893SOL    HW2 6650   5.355   3.074   3.322  0.6520 -0.6656  2.0353
 1894SOL     OW 6651   5.613   6.351   1.120 -0.2811 -0.4784  0.5701
 1894SOL    HW1 6652   5.677   6.294   1.078 -1.2704 -2.3561  1.4446
 1894SOL    HW2 6653   5.664   6.420   1.160  0.8895 -0.0996 -1.4422
 1895SOL     OW 6654   2.414   0.111   4.410  0.5735 -0.4156 -0.0885
 1895SOL    HW1 6655   2.328   0.131   4.447  0.5777  0.7269 -0.6547
 1895SOL    HW2 6656   2.467   0.189   4.429  1.3616 -0.9263 -0.1365
 1896SOL     OW 6657   5.382   3.782   6.405  0.8063  0.4215 -0.4175
 1896SOL    HW1 6658   5.405   3.745   6.491 -0.1475  2.1704  0.6582
 1896SOL    HW2 6659   5.376   3.706   6.347  0.5051 -0.9306  1.2878
 1897SOL     OW 6660   5.228   1.611   4.247  0.0225 -0.2662  0.0746
 1897SOL    HW1 6661   5.146   1.607   4.199 -1.0729  2.1585  1.5342
 1897SOL    HW2 6662   5.202   1.628   4.338  2.0678  3.1989  0.2030
 1898SOL     OW 6663   1.000   4.037   6.079  0.2231  0.0308 -0.4287
 1898SOL    HW1 6664   1.034   3.949   6.060  2.3095  0.6612  0.0341
 1898SOL    HW2 6665   1.062   4.095   6.035 -2.0354  1.2974 -2.1271
 1899SOL     OW 6666   4.234   6.460   1.625 -0.1093 -0.0209  0.1439
 1899SOL    HW1 6667   4.201   6.523   1.689  0.0722 -0.0034  0.2202
 1899SOL    HW2 6668   4.156   6.428   1.580 -0.3408 -0.7344  1.0143
 1900SOL     OW 6669   0.462   0.933   6.567 -0.3699 -0.3430  0.0412
 1900SOL    HW1 6670   0.397   0.869   6.594 -0.6118  0.3863  1.2256
 1900SOL    HW2 6671   0.431   1.016   6.603  1.1828  0.0310  0.6009
 1901SOL     OW 6672   0.300   3.023   7.066  0.5179 -0.2352 -0.0181
 1901SOL    HW1 6673   0.382   2.987   7.100 -0.2654 -0.3348  1.8632
 1901SOL    HW2 6674   0.283   3.099   7.122 -0.1720  0.3961 -1.0503
 1902SOL     OW 6675   6.739   4.901   6.656  0.4698  0.0200 -0.8672
 1902SOL    HW1 6676   6.730   4.943   6.570  0.4000  0.3052 -0.7223
 1902SOL    HW2 6677   6.833   4.885   6.665  0.3761 -0.8880 -1.4068
 1903SOL     OW 6678   2.679   6.081   5.561 -0.4519 -0.2200  0.1949
 1903SOL    HW1 6679   2.644   6.127   5.637 -0.3799  0.4284 -0.1575
 1903SOL    HW2 6680   2.734   6.012   5.597  0.3656  0.6887  0.7266
 1904SOL     OW 6681   3.177   1.566   5.516 -0.4970 -0.2951 -0.5497
 1904SOL    HW1 6682   3.238   1.536   5.583 -0.0362 -0.9351 -1.2432
 1904SOL    HW2 6683   3.112   1.496   5.509 -0.9089  0.0617 -0.3149
 1905SOL     OW 6684   5.360   5.294   3.055  0.2941  0.1103 -0.2161
 1905SOL    HW1 6685   5.297   5.359   3.088  0.6203 -0.3450  1.3610
 1905SOL    HW2 6686   5.309   5.243   2.992 -0.5640  0.5308  0.1119
 1906SOL     OW 6687   2.570   5.139   1.819  0.1763 -0.2083  0.6762
 1906SOL    HW1 6688   2.485   5.126   1.861 -0.3405  0.3434 -0.1832
 1906SOL    HW2 6689   2.561   5.220   1.769  0.4150 -1.3659 -1.3432
 1907SOL     OW 6690   1.163   0.522   5.397  0.0738 -0.2608 -0.2912
 1907SOL    HW1 6691   1.222   0.489   5.330 -0.5801 -2.8005  0.2721
 1907SOL    HW2 6692   1.220   0.557   5.465  0.7837  0.4341 -1.2145
 1908SOL     OW 6693   3.048   5.042   2.375  0.2139 -0.5051 -0.0807
 1908SOL    HW1 6694   3.061   4.950   2.349 -0.6820 -0.3758 -1.0264
 1908SOL    HW2 6695   3.008   5.083   2.299  0.8630  0.7538  0.2317
 1909SOL     OW 6696   5.565   4.147   3.536  0.5452  0.0757  0.3051
 1909SOL    HW1 6697   5.501   4.076   3.534  0.7362 -0.1290 -3.0747
 1909SOL    HW2 6698   5.643   4.107   3.573 -0.3399 -0.4742  1.6759
 1910SOL     OW 6699   1.855   6.594   4.902  0.7649 -0.0519 -0.4415
 1910SOL    HW1 6700   1.768   6.613   4.865  0.8873 -0.5497 -1.0113
 1910SOL    HW2 6701   1.916   6.638   4.843  1.0061 -1.4462 -1.2900
 1911SOL     OW 6702   6.496   3.644   6.079  0.5724  0.1593  0.0848
 1911SOL    HW1 6703   6.460   3.705   6.014 -1.3347 -0.3299  0.6425
 1911SOL    HW2 6704   6.471   3.558   6.047  1.8139 -0.2667  0.1844
 1912SOL     OW 6705   1.005   1.331   2.767 -0.9339  0.3971  0.5216
 1912SOL    HW1 6706   0.936   1.293   2.712 -2.8319  0.9470  2.4134
 1912SOL    HW2 6707   1.086   1.293   2.733 -2.2293 -1.0111 -1.1796
 1913SOL     OW 6708   6.631   6.767   1.194 -0.1677 -0.0487 -0.2913
 1913SOL    HW1 6709   6.540   6.738   1.206 -0.5519  1.3884  0.5614
 1913SOL    HW2 6710   6.623   6.852   1.151  0.4166  2.3772  3.8533
 1914SOL     OW 6711   6.159   0.874   4.922 -0.0893 -0.0234 -0.2797
 1914SOL    HW1 6712   6.170   0.902   4.831  0.5661  0.5724 -0.0323
 1914SOL    HW2 6713   6.216   0.797   4.931 -2.3312 -1.8869 -1.1154
 1915SOL     OW 6714   1.595   0.594   1.374 -0.0899  0.3422  0.1180
 1915SOL    HW1 6715   1.689   0.572   1.375 -0.3543 -0.9979 -1.0299
 1915SOL    HW2 6716   1.566   0.576   1.464  0.6384  0.2347  0.3402
 1916SOL     OW 6717   1.729   3.484   0.393 -0.1302 -0.1355  0.5721
 1916SOL    HW1 6718   1.823   3.467   0.404  0.0354 -0.4858 -1.1294
 1916SOL    HW2 6719   1.688   3.398   0.406 -0.4988  0.3710  3.4688
 1917SOL     OW 6720   7.089   6.170   2.841 -0.7206 -0.5792  0.4566
 1917SOL    HW1 6721   7.013   6.229   2.844  1.1615  2.0304  0.1661
 1917SOL    HW2 6722   7.126   6.183   2.754  1.6737  0.5328  1.5248
 1918SOL     OW 6723   5.826   4.726   1.641  0.4639  0.0992 -0.2186
 1918SOL    HW1 6724   5.786   4.755   1.724  0.2165 -1.1357  0.1126
 1918SOL    HW2 6725   5.920   4.737   1.655  0.3871  0.5126 -0.0142
 1919SOL     OW 6726   5.194   1.991   6.954  0.1483 -0.0866  0.0922
 1919SOL    HW1 6727   5.288   2.006   6.962  0.2872  0.1752 -1.6887
 1919SOL    HW2 6728   5.172   1.936   7.030  1.3692  1.3049  1.5207
 1920SOL     OW 6729   6.943   0.004   6.266  0.5085 -0.2064 -0.3065
 1920SOL    HW1 6730   6.945   0.051   6.183 -1.4414 -0.5072 -0.5842
 1920SOL    HW2 6731   7.022  -0.049   6.266  0.4958 -0.2872 -2.0307
 1921SOL     OW 6732   5.890   2.561   0.522  0.2734  0.1410 -0.4821
 1921SOL    HW1 6733   5.819   2.624   0.532 -0.2856 -0.1725 -2.1602
 1921SOL    HW2 6734   5.880   2.526   0.433  0.2216 -2.7389  0.5340
 1922SOL     OW 6735   6.936   5.464   2.028  0.2430 -0.0298  0.4811
 1922SOL    HW1 6736   6.870   5.407   2.067  0.4650 -0.5537  0.1018
 1922SOL    HW2 6737   6.976   5.412   1.959 -0.5048  1.0717 -0.8306
 1923SOL     OW 6738   1.780   4.327   3.237 -0.1860  0.0356  0.2094
 1923SOL    HW1 6739   1.814   4.270   3.306 -2.0811 -4.0397 -1.8717
 1923SOL    HW2 6740   1.853   4.334   3.175  0.5505  1.2643  1.1660
 1924SOL     OW 6741   3.844   6.256   2.496  0.5499  0.5214 -0.2750
 1924SOL    HW1 6742   3.930   6.215   2.492  0.8297  1.0033  0.4731
 1924SOL    HW2 6743   3.821   6.273   2.405  0.1274 -1.8426 -0.6620
 1925SOL     OW 6744   1.558   4.274   4.144 -0.1926 -0.0306  0.4148
 1925SOL    HW1 6745   1.613   4.347   4.173  0.9831 -0.1773 -1.3021
 1925SOL    HW2 6746   1.529   4.232   4.225  1.0101  0.9709  1.4025
 1926SOL     OW 6747   6.608   5.260   3.392 -0.0495 -0.3557 -0.0782
 1926SOL    HW1 6748   6.531   5.294   3.347  0.1288 -1.7341 -1.5568
 1926SOL    HW2 6749   6.654   5.337   3.423 -1.1004  0.5814 -0.7651
 1927SOL     OW 6750   2.134   7.155   5.347 -0.4233 -0.3895  0.3735
 1927SOL    HW1 6751   2.182   7.189   5.422  0.2267  1.6928 -0.8931
 1927SOL    HW2 6752   2.183   7.077   5.320  0.1991 -0.3011  1.2193
 1928SOL     OW 6753   5.830   4.959   0.548  0.8835  0.0988 -0.2055
 1928SOL    HW1 6754   5.782   4.979   0.468 -0.3607  1.5105  0.8601
 1928SOL    HW2 6755   5.819   4.864   0.559  0.8320 -0.0640 -1.5362
 1929SOL     OW 6756   1.038   4.362   6.930  0.1639 -0.1718  0.0735
 1929SOL    HW1 6757   1.082   4.347   7.014  0.1405 -1.9250 -0.1944
 1929SOL    HW2 6758   0.963   4.303   6.932 -0.4743  0.5990 -0.7246
 1930SOL     OW 6759   5.015   2.388   7.114  0.2432 -0.0434  0.1302
 1930SOL    HW1 6760   4.965   2.309   7.091  0.8068 -0.7039  1.0826
 1930SOL    HW2 6761   5.093   2.384   7.058 -0.1920  0.3537 -0.5080
 1931SOL     OW 6762   6.892   5.584   3.273  0.4626 -0.8101  0.2040
 1931SOL    HW1 6763   6.798   5.596   3.279  0.5528 -0.0333  0.1406
 1931SOL    HW2 6764   6.904   5.489   3.273 -0.2610 -0.9136  0.9971
 1932SOL     OW 6765   6.478   4.233   0.994 -0.2255  0.3311  0.0833
 1932SOL    HW1 6766   6.409   4.278   0.944 -0.5274 -0.7305 -0.4899
 1932SOL    HW2 6767   6.436   4.153   1.026 -0.3806  1.4963  3.0768
 1933SOL     OW 6768   7.089   6.827   4.976  0.3620  0.4427  0.7947
 1933SOL    HW1 6769   7.140   6.746   4.979  1.2734  0.8036 -2.0603
 1933SOL    HW2 6770   7.105   6.863   4.889 -4.2399  0.9902 -0.0693
 1934SOL     OW 6771   6.211   3.036   1.389 -0.3724  0.4759  0.0459
 1934SOL    HW1 6772   6.238   3.116   1.433  0.0777  0.3113  0.0812
 1934SOL    HW2 6773   6.288   3.010   1.337 -0.6567  0.2945 -0.2877
 1935SOL     OW 6774   3.249   5.295   4.526 -0.2325 -0.0831  0.1448
 1935SOL    HW1 6775   3.266   5.343   4.445 -0.9691  0.2593  0.1813
 1935SOL    HW2 6776   3.334   5.260   4.551  0.0467 -0.0135 -0.6613
 1936SOL     OW 6777   2.446   3.303   7.012  0.1458 -0.4551  0.5115
 1936SOL    HW1 6778   2.368   3.306   6.957  1.5194  0.2870 -1.5327
 1936SOL    HW2 6779   2.423   3.355   7.089 -1.1622  0.2642 -0.3295
 1937SOL     OW 6780   6.274   2.081   4.639 -0.0254  0.2356 -0.5122
 1937SOL    HW1 6781   6.263   2.089   4.734 -2.0029 -0.7624 -0.6063
 1937SOL    HW2 6782   6.347   2.021   4.628 -1.4543 -1.8163  0.4722
 1938SOL     OW 6783   5.612   2.379   3.807  0.4517  0.4743  0.1946
 1938SOL    HW1 6784   5.579   2.363   3.896  2.2163  1.9652  1.1664
 1938SOL    HW2 6785   5.540   2.350   3.750 -1.0504  0.2155  2.1055
 1939SOL     OW 6786   6.056   4.902   1.947  0.1268 -0.6293 -0.2719
 1939SOL    HW1 6787   6.122   4.958   1.988  0.9194 -1.1314 -0.8451
 1939SOL    HW2 6788   5.987   4.963   1.920  0.5996 -0.0338 -0.1534
 1940SOL     OW 6789   5.575   6.994   2.534  0.0441 -0.0545  0.0857
 1940SOL    HW1 6790   5.609   6.918   2.581  1.2316  0.6948  0.4784
 1940SOL    HW2 6791   5.480   6.990   2.547  0.1995 -0.8117  1.1066
 1941SOL     OW 6792   4.144   3.248   2.251  0.1477  0.2933 -0.9153
 1941SOL    HW1 6793   4.209   3.274   2.186  1.3046  0.5788  0.3274
 1941SOL    HW2 6794   4.181   3.274   2.335 -2.2610  1.8937 -0.2528
 1942SOL     OW 6795   4.268   0.753   2.745 -0.0253  0.2583 -0.2024
 1942SOL    HW1 6796   4.179   0.788   2.750 -0.1245  0.0206 -0.3150
 1942SOL    HW2 6797   4.283   0.715   2.831  0.1667  0.7786 -0.0014
 1943SOL     OW 6798   6.364   1.945   7.332  1.2484 -0.4990  0.4960
 1943SOL    HW1 6799   6.405   2.002   7.398  1.1355 -0.6257  0.6773
 1943SOL    HW2 6800   6.420   1.868   7.329  2.3464  0.3025 -0.9454
 1944SOL     OW 6801   2.123   4.151   2.831 -0.5727  0.7246 -0.0577
 1944SOL    HW1 6802   2.212   4.152   2.867 -1.0750  0.7555  1.2327
 1944SOL    HW2 6803   2.122   4.075   2.773  0.4677  1.0665 -0.5456
 1945SOL     OW 6804   3.559   7.215   3.205  0.7374  0.3994  0.2330
 1945SOL    HW1 6805   3.560   7.283   3.138  0.3781 -1.2390 -1.4997
 1945SOL    HW2 6806   3.602   7.256   3.281  0.6851  2.4758 -0.7920
 1946SOL     OW 6807   2.645   4.854   1.835  0.4888 -0.4088  0.7253
 1946SOL    HW1 6808   2.565   4.876   1.883 -0.5149 -1.4367 -0.4036
 1946SOL    HW2 6809   2.667   4.934   1.787  0.0089 -0.1888  0.8638
 1947SOL     OW 6810   2.653   7.380   1.246 -0.4995  0.0940  0.0610
 1947SOL    HW1 6811   2.652   7.286   1.263 -0.5401  0.3855  1.8754
 1947SOL    HW2 6812   2.567   7.410   1.276 -0.0935  0.8441  0.5127
 1948SOL     OW 6813   1.362   2.677   4.283 -0.5216 -0.4154  0.2899
 1948SOL    HW1 6814   1.275   2.709   4.259  0.0139  2.8237  2.1054
 1948SOL    HW2 6815   1.401   2.650   4.200 -2.7034 -0.5678 -0.7670
 1949SOL     OW 6816   1.602   5.307   4.741  0.0881 -0.0220  0.4650
 1949SOL    HW1 6817   1.606   5.313   4.837 -1.2204 -1.0479  0.6127
 1949SOL    HW2 6818   1.690   5.282   4.715  0.6723  1.0319  1.3162
 1950SOL     OW 6819   7.279   6.440   6.575  0.1233 -0.2073  0.0696
 1950SOL    HW1 6820   7.277   6.347   6.598  0.5272 -0.0824  0.6568
 1950SOL    HW2 6821   7.369   6.455   6.544  0.3813  0.2031  0.9748
 1951SOL     OW 6822   3.245   4.317   5.336 -0.7902 -0.0849 -0.2005
 1951SOL    HW1 6823   3.340   4.310   5.327 -0.7638  0.5402 -0.4719
 1951SOL    HW2 6824   3.225   4.270   5.417 -0.2855 -0.4714 -0.2958
 1952SOL     OW 6825   2.751   3.920   5.176  0.5659 -0.3212 -0.0276
 1952SOL    HW1 6826   2.719   3.832   5.195  1.4240 -0.5471  0.4753
 1952SOL    HW2 6827   2.742   3.929   5.082 -1.5203 -0.1241  0.1490
 1953SOL     OW 6828   2.928   5.800   7.073  0.2075 -0.3831 -0.0672
 1953SOL    HW1 6829   2.967   5.758   6.997  0.6703  0.3656 -0.2519
 1953SOL    HW2 6830   2.961   5.889   7.070 -0.4249 -0.1255  0.5571
 1954SOL     OW 6831   3.521   5.241   4.712 -0.3667  0.0726  0.0015
 1954SOL    HW1 6832   3.571   5.323   4.717 -0.7734  0.3531 -0.4766
 1954SOL    HW2 6833   3.468   5.240   4.792  1.7129 -1.1171  1.4758
 1955SOL     OW 6834   6.116   6.791   6.729  0.1004 -0.1423 -0.3977
 1955SOL    HW1 6835   6.124   6.886   6.734 -0.9423 -0.0845  0.4911
 1955SOL    HW2 6836   6.090   6.763   6.817 -1.0717 -1.0805 -1.0002
 1956SOL     OW 6837   3.325   6.691   4.551 -0.3218  0.4298 -0.0921
 1956SOL    HW1 6838   3.417   6.689   4.577 -0.9399  2.5280  2.7220
 1956SOL    HW2 6839   3.293   6.603   4.569  0.6651  0.2571  0.9792
 1957SOL     OW 6840   1.053   7.098   6.479 -0.1938  0.0213 -0.4202
 1957SOL    HW1 6841   1.047   7.163   6.410 -0.6610 -0.3622 -0.7378
 1957SOL    HW2 6842   0.973   7.108   6.530  0.2403  0.4469  0.2036
 1958SOL     OW 6843   3.543   1.414   1.818 -1.2924  0.2908 -0.2005
 1958SOL    HW1 6844   3.562   1.508   1.829 -0.5569  0.1187  0.0530
 1958SOL    HW2 6845   3.494   1.391   1.898  0.9640 -0.1522  1.1384
 1959SOL     OW 6846   3.306   0.162   2.662  0.4858 -0.2672  0.7383
 1959SOL    HW1 6847   3.361   0.088   2.689  1.7836  0.4150  0.0470
 1959SOL    HW2 6848   3.314   0.225   2.733  0.2324 -0.3489  0.8403
 1960SOL     OW 6849   1.356   0.399   5.237  0.3476 -0.1764 -0.0616
 1960SOL    HW1 6850   1.395   0.349   5.164 -0.8737 -1.0496 -0.1487
 1960SOL    HW2 6851   1.400   0.365   5.315 -0.2416 -1.2141 -0.1538
 1961SOL     OW 6852   5.065   0.116   6.245  0.3928 -0.4743  0.1414
 1961SOL    HW1 6853   5.053   0.103   6.339 -1.4971 -0.4629 -0.0719
 1961SOL    HW2 6854   5.001   0.057   6.204  1.6433 -0.9843 -1.1704
 1962SOL     OW 6855   3.227   3.589   2.679  0.2624 -0.5336  0.4124
 1962SOL    HW1 6856   3.284   3.663   2.702  0.8862 -1.1652  0.9355
 1962SOL    HW2 6857   3.161   3.587   2.748 -1.0006  0.7869 -0.6995
 1963SOL     OW 6858   6.597   0.714   4.542 -0.7129  0.3193 -0.8249
 1963SOL    HW1 6859   6.608   0.793   4.489 -0.1185 -0.1054 -1.3304
 1963SOL    HW2 6860   6.676   0.664   4.528 -0.9462 -0.2216 -0.2399
 1964SOL     OW 6861   0.887   6.197   0.348  0.0307  0.2775  0.2271
 1964SOL    HW1 6862   0.830   6.123   0.372  1.2161 -0.2437  1.6339
 1964SOL    HW2 6863   0.972   6.156   0.329  0.7717  1.2624  1.2553
 1965SOL     OW 6864   4.055   2.266   5.081 -0.5570 -0.0023 -0.2515
 1965SOL    HW1 6865   3.969   2.303   5.066 -0.6136 -0.3194 -0.7492
 1965SOL    HW2 6866   4.113   2.316   5.024  0.1740  2.3418  2.3256
 1966SOL     OW 6867   5.217   5.978   3.196 -0.4152  0.1957  0.3202
 1966SOL    HW1 6868   5.245   6.053   3.249 -0.6346  0.4882  0.0201
 1966SOL    HW2 6869   5.147   6.012   3.141  0.4666  0.1357 -0.8638
 1967SOL     OW 6870   1.983   3.992   3.313 -0.0598 -0.0988 -0.0659
 1967SOL    HW1 6871   2.066   3.962   3.349 -1.3733 -0.0188  3.4102
 1967SOL    HW2 6872   1.944   3.915   3.273  0.5423 -0.7766  0.6388
 1968SOL     OW 6873   2.926   7.061   4.350 -0.0003  0.1037  0.4429
 1968SOL    HW1 6874   2.868   7.108   4.410  1.3767 -0.9504  2.7366
 1968SOL    HW2 6875   3.004   7.041   4.403  2.1904  0.8324 -2.2824
 1969SOL     OW 6876   1.285   3.479   0.212  0.3104  0.1064 -0.1825
 1969SOL    HW1 6877   1.233   3.407   0.176  0.0372  0.4958 -0.5860
 1969SOL    HW2 6878   1.323   3.443   0.292  2.2732 -1.3162 -1.6643
 1970SOL     OW 6879   5.478   0.211   4.255 -0.0143  0.7791 -0.4145
 1970SOL    HW1 6880   5.478   0.290   4.200  0.5510  0.4542 -0.9061
 1970SOL    HW2 6881   5.511   0.142   4.197  1.0240  0.5151  0.4538
 1971SOL     OW 6882   1.543   3.760   4.911  0.3899 -0.5097 -0.5425
 1971SOL    HW1 6883   1.492   3.796   4.983  0.8864  0.2324 -0.5443
 1971SOL    HW2 6884   1.616   3.715   4.954  1.7120  1.4668 -0.5471
 1972SOL     OW 6885   0.745   1.614   3.476  0.0049 -0.4361 -0.5377
 1972SOL    HW1 6886   0.828   1.636   3.520 -0.9469 -0.4710  1.4069
 1972SOL    HW2 6887   0.750   1.657   3.391  1.5594  0.4784 -0.0244
 1973SOL     OW 6888   4.134   3.569   1.114 -0.1924 -0.1025  0.0186
 1973SOL    HW1 6889   4.212   3.560   1.168 -0.4211  0.8132  0.5105
 1973SOL    HW2 6890   4.089   3.647   1.147 -0.3051  0.5381 -1.5157
 1974SOL     OW 6891   4.298   5.273   7.223  0.6688 -0.1465  0.4884
 1974SOL    HW1 6892   4.208   5.244   7.237  0.2104  1.4148  0.9381
 1974SOL    HW2 6893   4.351   5.207   7.267 -0.1533 -1.7112 -0.7310
 1975SOL     OW 6894   0.227   4.598   1.283  0.1359 -0.2884 -0.4938
 1975SOL    HW1 6895   0.203   4.527   1.343  0.1898  0.0117 -0.1173
 1975SOL    HW2 6896   0.186   4.574   1.200  1.9398 -1.9041 -0.9997
 1976SOL     OW 6897   1.236   1.463   4.343  0.5222  0.1499 -0.0393
 1976SOL    HW1 6898   1.319   1.418   4.326 -0.9252 -2.5535 -0.5673
 1976SOL    HW2 6899   1.206   1.425   4.426 -0.7593  0.1255 -0.4946
 1977SOL     OW 6900   0.762   1.841   2.797  0.4494 -0.0643 -0.5902
 1977SOL    HW1 6901   0.778   1.766   2.854 -0.3452 -0.2903 -0.6415
 1977SOL    HW2 6902   0.681   1.818   2.750  0.3082  0.7343 -0.7577
 1978SOL     OW 6903   7.282   2.318   1.322 -0.2453 -0.2052  0.4549
 1978SOL    HW1 6904   7.298   2.411   1.338  1.0161 -0.5434  1.3253
 1978SOL    HW2 6905   7.189   2.306   1.341 -0.5740  0.9855 -0.2780
 1979SOL     OW 6906   3.158   7.168   7.105 -0.2218 -0.1064 -0.3936
 1979SOL    HW1 6907   3.247   7.200   7.118  0.1076 -0.1392 -2.3182
 1979SOL    HW2 6908   3.160   7.078   7.139  0.1184  0.3057  0.7098
 1980SOL     OW 6909   1.700   2.380   3.696  0.4701 -0.0084  0.2014
 1980SOL    HW1 6910   1.608   2.407   3.690  0.7135  1.0801  1.0176
 1980SOL    HW2 6911   1.700   2.287   3.676 -0.8967 -0.1592  0.8640
 1981SOL     OW 6912   5.030   0.655   6.734  1.0219 -0.3999  0.0470
 1981SOL    HW1 6913   4.942   0.663   6.769  0.3641 -0.3381 -1.5192
 1981SOL    HW2 6914   5.064   0.574   6.772  1.0072  0.5086  2.0901
 1982SOL     OW 6915   1.195   0.854   6.700  0.0765  0.2332 -0.1997
 1982SOL    HW1 6916   1.198   0.788   6.770  1.6547  0.8762  0.3835
 1982SOL    HW2 6917   1.238   0.812   6.625 -1.6741 -0.4804 -0.8584
 1983SOL     OW 6918   5.550   3.740   5.606 -0.3727 -0.0927 -0.9383
 1983SOL    HW1 6919   5.632   3.764   5.564 -0.9476  1.5700 -1.1792
 1983SOL    HW2 6920   5.569   3.744   5.700 -0.8618  3.3730 -0.8377
 1984SOL     OW 6921   0.698   0.841   6.897  0.4925  0.0631 -0.2449
 1984SOL    HW1 6922   0.767   0.775   6.892 -0.2340 -0.6277 -1.9544
 1984SOL    HW2 6923   0.685   0.854   6.991  0.2742 -2.6907  0.2140
 1985SOL     OW 6924   4.100   5.902   1.139  0.5548  0.2566 -0.4771
 1985SOL    HW1 6925   4.114   5.976   1.080 -1.2027 -0.1190 -1.4276
 1985SOL    HW2 6926   4.099   5.826   1.082 -0.0156 -0.2411  0.1757
 1986SOL     OW 6927   0.518   7.363   6.606  0.0794 -0.3314  0.2002
 1986SOL    HW1 6928   0.444   7.368   6.546 -0.1164 -2.1121  0.2135
 1986SOL    HW2 6929   0.577   7.433   6.579 -1.2733  0.6485 -0.2805
 1987SOL     OW 6930   0.989   0.116   1.498 -0.5330  0.0045 -0.2481
 1987SOL    HW1 6931   1.082   0.110   1.477 -0.3273  1.2699  0.2077
 1987SOL    HW2 6932   0.945   0.072   1.425  0.4099 -0.6588 -0.4397
 1988SOL     OW 6933   2.147   6.587   6.722  0.4602 -0.2181 -0.0658
 1988SOL    HW1 6934   2.151   6.678   6.694  0.1783  0.6653  2.5276
 1988SOL    HW2 6935   2.053   6.567   6.726  0.5168 -0.5961 -0.4614
 1989SOL     OW 6936   5.609   5.024   3.111 -0.0984  0.1657 -0.0959
 1989SOL    HW1 6937   5.665   5.024   3.189  0.3072  2.0865 -0.3346
 1989SOL    HW2 6938   5.667   5.047   3.039 -0.5995 -0.9791 -0.8992
 1990SOL     OW 6939   2.207   5.755   5.529  0.1971  0.6340 -0.0123
 1990SOL    HW1 6940   2.150   5.822   5.490 -0.2550  0.1297 -0.2369
 1990SOL    HW2 6941   2.264   5.803   5.589 -0.2943  1.1875  0.0175
 1991SOL     OW 6942   2.358   2.223   7.249  0.3746  0.6106 -0.3105
 1991SOL    HW1 6943   2.423   2.292   7.232  2.6236 -0.6303  2.4176
 1991SOL    HW2 6944   2.396   2.144   7.210  1.8942 -0.6269  3.2443
 1992SOL     OW 6945   3.059   0.794   5.391 -0.3039  0.3510 -0.2591
 1992SOL    HW1 6946   2.979   0.831   5.427  0.0457 -0.1001  1.0465
 1992SOL    HW2 6947   3.109   0.765   5.468  0.4555 -0.7048 -1.1125
 1993SOL     OW 6948   1.877   0.146   5.827 -0.0693  0.3806 -0.4503
 1993SOL    HW1 6949   1.795   0.183   5.858 -0.0169 -0.5494  0.8992
 1993SOL    HW2 6950   1.861   0.125   5.736 -1.6274 -0.5392  0.0013
 1994SOL     OW 6951   5.314   3.415   3.839  0.2826  0.8500  0.3661
 1994SOL    HW1 6952   5.391   3.468   3.820  1.8341 -0.7353  1.8469
 1994SOL    HW2 6953   5.272   3.460   3.912  0.0844  1.4506 -0.1129
 1995SOL     OW 6954   5.468   2.108   0.302  0.1042 -0.6516 -0.3159
 1995SOL    HW1 6955   5.390   2.072   0.344  0.0450 -1.1401 -0.8293
 1995SOL    HW2 6956   5.436   2.183   0.252 -0.0172 -0.7676 -0.4136
 1996SOL     OW 6957   4.352   2.317   4.553 -0.2936  0.0328  0.6586
 1996SOL    HW1 6958   4.313   2.261   4.486  0.8949  0.3645 -0.3499
 1996SOL    HW2 6959   4.326   2.277   4.636 -1.6610 -0.4811  0.0216
 1997SOL     OW 6960   0.202   7.066   5.103  0.5549  0.0656  0.8085
 1997SOL    HW1 6961   0.229   7.127   5.171  1.5280 -0.2454  0.7178
 1997SOL    HW2 6962   0.209   6.979   5.144  1.0078 -0.1120  0.3635
 1998SOL     OW 6963   2.607   5.183   4.695 -0.3226 -0.2564  0.3893
 1998SOL    HW1 6964   2.550   5.255   4.722  0.8126  1.1649 -0.8261
 1998SOL    HW2 6965   2.555   5.133   4.633 -0.2677  1.0995 -0.8040
 1999SOL     OW 6966   5.109   2.732   1.639 -0.4354 -0.3952  0.4796
 1999SOL    HW1 6967   5.026   2.706   1.679 -0.2215 -0.6301  0.7730
 1999SOL    HW2 6968   5.100   2.826   1.622 -0.7498 -0.4161  0.5353
 2000SOL     OW 6969   4.163   1.097   6.248  0.1944 -0.8512 -1.1842
 2000SOL    HW1 6970   4.188   1.170   6.306 -2.3368 -1.3020  0.6118
 2000SOL    HW2 6971   4.147   1.024   6.307 -1.0424 -1.7681 -2.5855
 2001SOL     OW 6972   6.437   0.799   1.302  0.6639 -0.1015  0.1065
 2001SOL    HW1 6973   6.480   0.770   1.222 -0.5825 -1.6024 -0.0674
 2001SOL    HW2 6974   6.499   0.781   1.372  0.2717 -2.4924 -0.0990
 2002SOL     OW 6975   6.309   2.142   1.042 -0.2149  0.4135  0.2626
 2002SOL    HW1 6976   6.380   2.143   0.977  0.4709 -0.9310  0.9419
 2002SOL    HW2 6977   6.326   2.219   1.096  1.2294 -0.2874  0.8833
 2003SOL     OW 6978   0.699   2.404   4.678  0.1869  0.0794 -0.5442
 2003SOL    HW1 6979   0.695   2.422   4.584  0.9733  2.2938 -0.2138
 2003SOL    HW2 6980   0.761   2.331   4.686 -1.3521 -1.4499 -1.8357
 2004SOL     OW 6981   6.826   6.155   0.522 -0.6767  0.2529 -0.4241
 2004SOL    HW1 6982   6.814   6.183   0.613 -0.5791  1.3392 -0.7295
 2004SOL    HW2 6983   6.752   6.193   0.475 -1.2885 -1.1480 -0.6441
 2005SOL     OW 6984   4.270   0.215   7.347 -0.6159  0.2867 -0.3952
 2005SOL    HW1 6985   4.344   0.154   7.342 -1.3118 -0.5705 -0.5116
 2005SOL    HW2 6986   4.274   0.251   7.435  0.4016  0.8682 -0.6555
 2006SOL     OW 6987   4.596   7.379   6.462 -0.6931 -0.8495 -0.1450
 2006SOL    HW1 6988   4.535   7.347   6.396 -1.0954 -3.2512  1.2538
 2006SOL    HW2 6989   4.541   7.418   6.529 -0.4431 -0.1957 -0.3173
 2007SOL     OW 6990   6.250   3.467   2.930  0.1046 -0.0524 -0.0633
 2007SOL    HW1 6991   6.160   3.477   2.901 -0.1785  0.2035  0.8631
 2007SOL    HW2 6992   6.294   3.420   2.859 -1.1263 -1.5795  0.1428
 2008SOL     OW 6993   5.652   2.922   0.542  0.2608 -0.7370 -0.2956
 2008SOL    HW1 6994   5.722   2.885   0.488  0.0946  0.5205 -1.4407
 2008SOL    HW2 6995   5.684   2.915   0.632  1.3463 -1.2356 -0.7053
 2009SOL     OW 6996   3.597   4.307   5.518  0.4900  0.2888  0.5305
 2009SOL    HW1 6997   3.519   4.317   5.574 -0.1976 -0.0453 -0.3475
 2009SOL    HW2 6998   3.658   4.257   5.571 -0.5322 -0.8921  0.6376
 2010SOL     OW 6999   0.768   1.540   5.250  0.0453 -0.2970  0.4548
 2010SOL    HW1 7000   0.800   1.495   5.328 -0.2392  0.0615  0.7844
 2010SOL    HW2 7001   0.843   1.540   5.190  0.5693  0.2567  1.0888
 2011SOL     OW 7002   0.564   1.660   5.101 -0.3893  0.2142 -0.7216
 2011SOL    HW1 7003   0.586   1.615   5.020 -2.3994 -0.6659 -0.8397
 2011SOL    HW2 7004   0.626   1.626   5.166  1.2688  0.9572 -1.8325
 2012SOL     OW 7005   3.551   0.855   1.567 -0.4502  0.1284  0.2594
 2012SOL    HW1 7006   3.552   0.930   1.626  1.5779 -0.7214  1.4083
 2012SOL    HW2 7007   3.563   0.779   1.624 -0.3457 -0.9020 -1.0651
 2013SOL     OW 7008   2.021   2.268   6.085  0.7831  0.0366  0.0850
 2013SOL    HW1 7009   1.964   2.241   6.013 -0.2806  0.2338  0.8326
 2013SOL    HW2 7010   2.070   2.342   6.049  0.6567 -0.1991 -0.6026
 2014SOL     OW 7011   5.097   2.888   1.094 -0.3101 -0.0072  0.0336
 2014SOL    HW1 7012   5.070   2.862   1.006  2.1518 -0.5766 -0.6418
 2014SOL    HW2 7013   5.159   2.820   1.121  0.4190  1.1477  1.4238
 2015SOL     OW 7014   4.941   1.145   1.524 -0.2833 -0.0953  0.7570
 2015SOL    HW1 7015   4.914   1.076   1.463 -0.6774  0.4886  0.2586
 2015SOL    HW2 7016   4.993   1.099   1.591  2.1060 -0.4532 -1.2038
 2016SOL     OW 7017   5.353   1.889   4.533  0.0602  0.0749  0.4357
 2016SOL    HW1 7018   5.276   1.837   4.558  0.4578 -0.2709  0.9444
 2016SOL    HW2 7019   5.330   1.924   4.447 -1.3057  1.2483  1.2379
 2017SOL     OW 7020   0.819   5.764   1.197  0.1170 -0.2076  0.0415
 2017SOL    HW1 7021   0.898   5.735   1.150  0.6195 -0.2845  0.9089
 2017SOL    HW2 7022   0.836   5.742   1.288 -0.6584  0.3368  0.3300
 2018SOL     OW 7023   1.547   4.959   2.101  0.3312 -0.0988 -0.5095
 2018SOL    HW1 7024   1.575   4.878   2.057 -0.5582  0.0686 -1.4145
 2018SOL    HW2 7025   1.589   5.029   2.051  1.8516  0.0177  0.8176
 2019SOL     OW 7026   1.957   3.466   5.350  0.4963 -0.0389 -0.1496
 2019SOL    HW1 7027   2.013   3.534   5.387  0.0027 -0.6231  1.8218
 2019SOL    HW2 7028   1.928   3.416   5.426 -1.1200 -0.9560 -1.3166
 2020SOL     OW 7029   1.425   6.543   0.236 -0.1771 -0.2573 -0.1030
 2020SOL    HW1 7030   1.496   6.535   0.173  0.5145 -1.2826  0.7846
 2020SOL    HW2 7031   1.465   6.587   0.311 -1.2806  2.0411 -0.7792
 2021SOL     OW 7032   0.992   5.675   5.453  0.2959  0.0291 -0.2095
 2021SOL    HW1 7033   0.950   5.641   5.532  1.7059  0.3987  0.7481
 2021SOL    HW2 7034   0.978   5.607   5.387  1.5091 -1.6552  1.1581
 2022SOL     OW 7035   5.613   5.206   6.670  0.1706  0.1748 -0.0888
 2022SOL    HW1 7036   5.609   5.226   6.763 -2.6187  1.0568 -0.3077
 2022SOL    HW2 7037   5.543   5.142   6.656 -1.7451  2.5234 -2.0460
 2023SOL     OW 7038   6.273   5.820   5.043  0.2400  0.0880  0.9060
 2023SOL    HW1 7039   6.276   5.913   5.062  1.4898  0.2640  0.0091
 2023SOL    HW2 7040   6.191   5.808   4.995  0.7437  1.0218 -0.2572
 2024SOL     OW 7041   5.735   4.271   7.379 -0.1804  0.4884 -0.2153
 2024SOL    HW1 7042   5.761   4.352   7.335 -0.9937  0.9929  0.2152
 2024SOL    HW2 7043   5.641   4.283   7.397  0.0724  0.1765  1.3953
 2025SOL     OW 7044   2.584   5.450   0.917 -0.7475  1.0092  0.7167
 2025SOL    HW1 7045   2.612   5.362   0.893 -1.4404  1.5512 -2.7001
 2025SOL    HW2 7046   2.662   5.493   0.950 -0.0385 -0.4337  0.9589
 2026SOL     OW 7047   6.263   6.133   6.009 -0.3317  0.2496  0.3238
 2026SOL    HW1 7048   6.212   6.102   6.085  0.8142  0.3351  1.1493
 2026SOL    HW2 7049   6.354   6.115   6.032 -0.0430 -1.7135 -1.9319
 2027SOL     OW 7050   1.906   1.908   0.677 -0.5199 -0.2942  0.6292
 2027SOL    HW1 7051   1.979   1.857   0.643 -0.1138  0.7569 -0.1277
 2027SOL    HW2 7052   1.883   1.865   0.760  1.3518 -0.3017  1.1873
 2028SOL     OW 7053   5.046   5.445   7.378  0.6027  0.2818  0.2395
 2028SOL    HW1 7054   5.030   5.539   7.384  0.4665  0.2292  0.7519
 2028SOL    HW2 7055   4.967   5.410   7.337  0.5635  0.3663  0.2422
 2029SOL     OW 7056   0.064   2.273   4.050 -0.1089 -0.1549 -0.0910
 2029SOL    HW1 7057  -0.019   2.252   4.093  0.4756  2.2579  2.5562
 2029SOL    HW2 7058   0.131   2.251   4.114  1.0618  0.9346 -0.8800
 2030SOL     OW 7059   5.014   3.183   7.288 -1.3157 -0.4495 -0.1759
 2030SOL    HW1 7060   5.039   3.129   7.363  0.3080  0.1691 -0.2302
 2030SOL    HW2 7061   5.097   3.200   7.242 -2.1230  0.1168 -1.4834
 2031SOL     OW 7062   1.274   5.587   0.174  0.2870 -0.0100 -0.2649
 2031SOL    HW1 7063   1.354   5.575   0.225  0.2956 -0.5454 -0.3998
 2031SOL    HW2 7064   1.204   5.559   0.233  0.1110  1.3004  0.1725
 2032SOL     OW 7065   2.324   2.097   6.332  0.1579 -0.0663 -0.2411
 2032SOL    HW1 7066   2.305   2.029   6.397  1.2451 -0.6578 -0.5162
 2032SOL    HW2 7067   2.263   2.167   6.352 -0.6710 -0.9381  0.3505
 2033SOL     OW 7068   5.751   6.341   2.712 -0.5718 -0.0424  0.5802
 2033SOL    HW1 7069   5.809   6.407   2.674 -1.2726  0.7601  0.8956
 2033SOL    HW2 7070   5.717   6.293   2.636  0.2732 -0.3520  0.3736
 2034SOL     OW 7071   5.820   0.233   3.253  0.3172  0.1628 -0.0890
 2034SOL    HW1 7072   5.725   0.240   3.264  0.1237 -0.6471 -1.0879
 2034SOL    HW2 7073   5.837   0.275   3.168  0.9505  0.9335  0.4101
 2035SOL     OW 7074   6.631   2.167   3.672  0.3324  0.5312  1.0903
 2035SOL    HW1 7075   6.685   2.154   3.594 -0.5487 -0.4778  0.6261
 2035SOL    HW2 7076   6.693   2.173   3.744  1.0789 -0.5016  0.5558
 2036SOL     OW 7077   4.798   1.213   6.751  0.2199 -0.1221  0.3029
 2036SOL    HW1 7078   4.871   1.202   6.690  0.2769  0.4049  0.2701
 2036SOL    HW2 7079   4.811   1.300   6.788 -1.6670  0.9977 -1.4509
 2037SOL     OW 7080   1.053   7.110   7.255 -0.5822  0.0752 -0.0221
 2037SOL    HW1 7081   1.127   7.080   7.203 -0.4254 -0.3037  0.4101
 2037SOL    HW2 7082   0.998   7.032   7.267 -0.3306  0.0143  0.8395
 2038SOL     OW 7083   1.278   3.482   2.156 -0.6556 -0.0627 -0.9444
 2038SOL    HW1 7084   1.275   3.402   2.104 -0.4007 -0.5835 -0.1741
 2038SOL    HW2 7085   1.243   3.457   2.241 -1.2390  0.8239 -0.9098
 2039SOL     OW 7086   0.246   3.540   3.327 -0.6043  0.3746 -0.9858
 2039SOL    HW1 7087   0.274   3.483   3.399  0.1439  0.2969 -1.3300
 2039SOL    HW2 7088   0.197   3.610   3.370 -0.1137  0.3621 -0.3891
 2040SOL     OW 7089   4.249   1.508   4.487 -0.3711 -0.6255  0.6324
 2040SOL    HW1 7090   4.244   1.603   4.475 -0.9460 -0.6383  0.7324
 2040SOL    HW2 7091   4.330   1.483   4.444  0.2947  0.0407  1.4729
 2041SOL     OW 7092   4.209   3.412   6.215  0.8473  0.3905 -0.6866
 2041SOL    HW1 7093   4.166   3.491   6.250  0.9058  0.6207 -1.1297
 2041SOL    HW2 7094   4.145   3.342   6.229  1.5384  0.1125  1.5119
 2042SOL     OW 7095   1.102   6.438   6.253 -0.1096 -0.3394 -0.4881
 2042SOL    HW1 7096   1.027   6.476   6.208  0.7753 -0.8847 -2.5510
 2042SOL    HW2 7097   1.159   6.513   6.270 -1.2151  0.1270  1.3973
 2043SOL     OW 7098   0.442   2.364   7.203 -0.0594  0.2331  0.3714
 2043SOL    HW1 7099   0.528   2.336   7.235 -0.2875 -0.7433  0.1785
 2043SOL    HW2 7100   0.388   2.372   7.282 -0.1561 -0.5072  0.3918
 2044SOL     OW 7101   0.754   4.708   4.359  0.2341  0.5506 -0.4541
 2044SOL    HW1 7102   0.659   4.707   4.345  0.1021  1.4636  0.2534
 2044SOL    HW2 7103   0.764   4.733   4.451  1.1664  0.8683 -0.6343
 2045SOL     OW 7104   3.641   0.191   3.704 -0.0745  0.0278 -0.0198
 2045SOL    HW1 7105   3.637   0.238   3.787  0.9747 -0.1371  0.1375
 2045SOL    HW2 7106   3.619   0.256   3.638  0.5377  0.5435  0.2669
 2046SOL     OW 7107   1.950   2.412   3.985  0.6382  0.0492 -0.2590
 2046SOL    HW1 7108   1.854   2.417   3.981  0.5716 -1.1782 -0.7419
 2046SOL    HW2 7109   1.969   2.391   4.077  0.4105 -0.2254 -0.2741
 2047SOL     OW 7110   4.575   5.082   5.935  0.5826  0.3147  0.3090
 2047SOL    HW1 7111   4.643   5.150   5.926  0.6201  0.1061 -1.2418
 2047SOL    HW2 7112   4.576   5.036   5.852 -0.9707 -0.1758  0.5280
 2048SOL     OW 7113   0.690   1.665   2.210  0.2550 -0.0053 -0.4452
 2048SOL    HW1 7114   0.597   1.644   2.204  0.3194  0.0067 -1.8271
 2048SOL    HW2 7115   0.710   1.659   2.303 -1.3288  0.8682 -0.0019
 2049SOL     OW 7116   4.973   1.244   4.222  0.1711  0.4868 -0.6321
 2049SOL    HW1 7117   5.045   1.306   4.236  0.6221  0.0848 -1.1664
 2049SOL    HW2 7118   5.008   1.178   4.163 -0.0821 -0.6816  0.4739
 2050SOL     OW 7119   2.062   1.018   7.264  0.2878 -0.5141 -0.0072
 2050SOL    HW1 7120   2.124   1.088   7.244  0.0684 -0.4844 -0.5900
 2050SOL    HW2 7121   2.116   0.939   7.270  0.3916 -0.4785 -0.4617
 2051SOL     OW 7122   4.127   0.192   4.004  0.3072  0.5692 -0.1756
 2051SOL    HW1 7123   4.079   0.163   4.082  1.8279 -1.2601  0.1639
 2051SOL    HW2 7124   4.219   0.183   4.028  0.8126  1.1841 -1.7685
 2052SOL     OW 7125   7.094   5.136   6.717  0.3436  0.5693  0.1347
 2052SOL    HW1 7126   7.021   5.167   6.770  0.4852 -0.7948  1.1903
 2052SOL    HW2 7127   7.171   5.176   6.756  0.4964 -0.8181  1.3010
 2053SOL     OW 7128   4.404   1.063   2.135 -0.2119  0.0413 -0.3452
 2053SOL    HW1 7129   4.368   1.044   2.222  0.4024  0.7839  0.0718
 2053SOL    HW2 7130   4.354   1.006   2.077 -1.3466  0.2859  0.3578
 2054SOL     OW 7131   3.196   0.312   1.370  0.3803  0.3668  0.2977
 2054SOL    HW1 7132   3.208   0.396   1.415  0.4519  0.2578  0.4812
 2054SOL    HW2 7133   3.172   0.337   1.281 -0.7095  0.5919  0.6306
 2055SOL     OW 7134   6.199   5.320   6.809  0.1472 -0.2119  0.8177
 2055SOL    HW1 7135   6.242   5.311   6.894  0.8998  1.5085  0.6729
 2055SOL    HW2 7136   6.270   5.338   6.748 -0.3121 -2.0287 -0.3350
 2056SOL     OW 7137   6.512   5.790   4.159  0.0272 -0.2470 -0.5486
 2056SOL    HW1 7138   6.517   5.731   4.083  2.1291 -1.2084  0.2630
 2056SOL    HW2 7139   6.584   5.852   4.146  1.5852 -1.5017  1.4295
 2057SOL     OW 7140   3.264   0.817   1.606 -0.0943  0.7150 -0.1527
 2057SOL    HW1 7141   3.356   0.838   1.625  0.4995  0.9787 -2.8853
 2057SOL    HW2 7142   3.245   0.741   1.662  2.7721 -1.2669 -1.5882
 2058SOL     OW 7143   4.432   2.154   5.434 -0.0718 -0.2337  0.3448
 2058SOL    HW1 7144   4.496   2.109   5.380  1.1300  1.9976 -0.2229
 2058SOL    HW2 7145   4.483   2.218   5.484 -1.6500  0.4390  1.1799
 2059SOL     OW 7146   2.699   0.768   3.258 -0.1996 -0.0619 -0.2837
 2059SOL    HW1 7147   2.717   0.745   3.167 -0.9146 -2.3215  0.0805
 2059SOL    HW2 7148   2.779   0.743   3.305  0.5815  2.0719 -0.3656
 2060SOL     OW 7149   4.097   0.442   0.790 -0.3205 -0.0065  0.0176
 2060SOL    HW1 7150   4.035   0.505   0.826  0.8718  0.4401  1.3682
 2060SOL    HW2 7151   4.061   0.356   0.815 -1.4241  0.1531 -0.9670
 2061SOL     OW 7152   3.752   2.787   1.488 -0.4192  0.0306 -0.2185
 2061SOL    HW1 7153   3.841   2.815   1.469 -1.0476  1.3211 -1.4729
 2061SOL    HW2 7154   3.713   2.772   1.402 -1.8495  0.9473  0.2385
 2062SOL     OW 7155   1.365   5.204   2.981 -0.6477 -0.6488 -0.0464
 2062SOL    HW1 7156   1.353   5.111   2.964  1.0404 -0.7249 -1.0580
 2062SOL    HW2 7157   1.457   5.221   2.961 -0.8516  1.1984  0.3325
 2063SOL     OW 7158   1.684   5.324   1.072  0.6695  0.6842 -0.3283
 2063SOL    HW1 7159   1.717   5.235   1.064 -1.8978 -0.2920 -0.8327
 2063SOL    HW2 7160   1.749   5.377   1.026  1.7730 -1.0440 -0.8481
 2064SOL     OW 7161   6.219   0.079   5.105  0.3951 -0.3150  0.4086
 2064SOL    HW1 7162   6.179   0.166   5.105  0.1744 -0.4074 -0.4728
 2064SOL    HW2 7163   6.269   0.075   5.187  0.0109  0.4545  0.6848
 2065SOL     OW 7164   6.004   5.117   0.397 -0.1534  0.5327  0.2989
 2065SOL    HW1 7165   6.071   5.073   0.450 -0.5640 -1.4784 -0.7561
 2065SOL    HW2 7166   5.921   5.087   0.435 -0.4374  0.3528 -0.4517
 2066SOL     OW 7167   1.101   6.034   2.147 -0.3536  0.1893  0.2970
 2066SOL    HW1 7168   1.096   6.057   2.239 -0.1281 -0.6379  0.5230
 2066SOL    HW2 7169   1.017   6.065   2.110 -0.5230  0.3504  0.8124
 2067SOL     OW 7170   0.011   3.329   0.787 -0.3153  0.4894  0.5024
 2067SOL    HW1 7171   0.011   3.278   0.706 -0.3604  2.3136 -0.7183
 2067SOL    HW2 7172   0.000   3.264   0.857  0.2444 -1.1973 -0.8997
 2068SOL     OW 7173   6.874   1.772   6.402 -0.6378 -0.3016  0.4010
 2068SOL    HW1 7174   6.932   1.715   6.351 -0.7388  0.7081 -0.9088
 2068SOL    HW2 7175   6.787   1.756   6.366 -0.5811  1.1016 -0.4390
 2069SOL     OW 7176   7.327   1.077   0.842  0.0804 -0.0532  0.4537
 2069SOL    HW1 7177   7.338   1.171   0.828  0.1779 -0.0333  0.6544
 2069SOL    HW2 7178   7.371   1.036   0.768 -1.0002  0.0751 -0.2842
 2070SOL     OW 7179   0.373   5.049   4.843  0.6077 -0.4136 -0.2655
 2070SOL    HW1 7180   0.293   5.031   4.892  1.4334 -1.1302  0.8821
 2070SOL    HW2 7181   0.362   5.002   4.760 -0.3887 -0.0260 -0.3621
 2071SOL     OW 7182   0.597   6.533   2.681  0.8779  0.1793 -0.0693
 2071SOL    HW1 7183   0.643   6.553   2.599  0.3822 -2.1835 -1.0294
 2071SOL    HW2 7184   0.641   6.455   2.714  0.1954  0.3176  1.2051
 2072SOL     OW 7185   2.301   4.653   6.928  0.6910  0.7119  0.6736
 2072SOL    HW1 7186   2.223   4.690   6.968  0.1539  2.2366 -1.5560
 2072SOL    HW2 7187   2.296   4.559   6.946 -2.2407  0.5954 -0.2516
 2073SOL     OW 7188   0.727   2.684   6.873 -0.3397 -0.5798  0.0421
 2073SOL    HW1 7189   0.754   2.662   6.962  2.1643  0.2589 -0.4117
 2073SOL    HW2 7190   0.787   2.755   6.847 -2.1691  0.4432 -1.6861
 2074SOL     OW 7191   5.126   1.491   6.810  0.2610 -0.0234  0.1189
 2074SOL    HW1 7192   5.190   1.537   6.865  0.3180 -0.2674  0.2594
 2074SOL    HW2 7193   5.174   1.470   6.730 -0.2373  1.6332 -0.6500
 2075SOL     OW 7194   3.108   0.155   4.780  0.0796  0.2269  0.3452
 2075SOL    HW1 7195   3.146   0.160   4.867  1.4161  0.9016 -0.2526
 2075SOL    HW2 7196   3.055   0.234   4.772  0.1063  0.2582  0.4758
 2076SOL     OW 7197   0.960   3.302   1.112 -0.1523 -0.3920  0.6947
 2076SOL    HW1 7198   0.915   3.249   1.177 -2.2168  1.1895  0.6713
 2076SOL    HW2 7199   0.890   3.349   1.067  1.4997  2.0536  0.4718
 2077SOL     OW 7200   3.496   3.795   4.169 -0.0772  0.0886  0.4378
 2077SOL    HW1 7201   3.462   3.826   4.253  0.1264  1.7095 -0.0292
 2077SOL    HW2 7202   3.586   3.828   4.166  0.5714 -1.6138  0.3886
 2078SOL     OW 7203   2.309   6.647   6.391  0.4534 -0.4111 -0.5657
 2078SOL    HW1 7204   2.273   6.728   6.426  2.3700 -0.7347  2.5047
 2078SOL    HW2 7205   2.268   6.637   6.305 -2.4593  1.9639  0.4083
 2079SOL     OW 7206   7.369   0.623   6.867  0.2363 -0.7746  0.5794
 2079SOL    HW1 7207   7.299   0.687   6.851 -0.5981 -2.1524 -1.8039
 2079SOL    HW2 7208   7.378   0.622   6.962 -1.9591  0.5373  0.8890
 2080SOL     OW 7209   0.308   4.882   1.324  0.3340  0.6073  0.5976
 2080SOL    HW1 7210   0.238   4.821   1.300  0.3205  1.0463 -0.5687
 2080SOL    HW2 7211   0.268   4.969   1.312  0.6022  0.8553  1.4443
 2081SOL     OW 7212   2.866   1.766   4.226  0.2599  0.0459 -0.0861
 2081SOL    HW1 7213   2.915   1.812   4.294  0.5403  0.2937 -0.4520
 2081SOL    HW2 7214   2.774   1.779   4.250  0.3442  0.5294 -0.0124
 2082SOL     OW 7215   2.086   3.610   7.206  0.2297  0.2815 -0.2380
 2082SOL    HW1 7216   2.122   3.525   7.180 -1.3008 -0.6857  0.6983
 2082SOL    HW2 7217   1.992   3.601   7.192  0.1590  2.3279 -1.4568
 2083SOL     OW 7218   6.525   1.145   3.422  0.8464 -0.2113 -0.1008
 2083SOL    HW1 7219   6.509   1.154   3.516  1.0076  1.6510 -0.2149
 2083SOL    HW2 7220   6.439   1.156   3.382  0.9420  0.1294 -0.2174
 2084SOL     OW 7221   2.248   2.161   3.314  0.2859 -0.1511  0.1565
 2084SOL    HW1 7222   2.251   2.199   3.402  1.6587 -0.1627  0.1404
 2084SOL    HW2 7223   2.313   2.091   3.317 -0.3277 -0.7716 -0.6029
 2085SOL     OW 7224   1.142   6.127   3.372 -0.4305 -0.1523 -0.1254
 2085SOL    HW1 7225   1.155   6.135   3.466 -2.8051 -0.3360  0.2795
 2085SOL    HW2 7226   1.054   6.090   3.363 -0.1705 -0.3650 -2.4151
 2086SOL     OW 7227   1.375   5.977   0.687 -0.4491  0.4024  0.3066
 2086SOL    HW1 7228   1.367   6.016   0.600 -1.7674 -0.1985  0.1335
 2086SOL    HW2 7229   1.462   5.935   0.687 -0.5087  0.2535 -0.7832
 2087SOL     OW 7230   0.386   1.482   6.397 -0.2055 -0.7112 -0.1324
 2087SOL    HW1 7231   0.320   1.417   6.372 -0.2874 -0.1757 -1.3827
 2087SOL    HW2 7232   0.384   1.547   6.327  0.4988  0.1863  0.6481
 2088SOL     OW 7233   0.385   6.603   6.864  0.1000  0.0656  0.2756
 2088SOL    HW1 7234   0.351   6.528   6.912  0.4045  0.0811  0.5163
 2088SOL    HW2 7235   0.343   6.679   6.905 -1.3918 -0.0515 -0.9469
 2089SOL     OW 7236   1.211   1.760   5.758 -0.8261  0.2611  0.2174
 2089SOL    HW1 7237   1.197   1.666   5.743  1.5860 -0.0742 -0.2806
 2089SOL    HW2 7238   1.220   1.797   5.670  0.0029  0.6436  0.4578
 2090SOL     OW 7239   6.926   3.017   6.117  0.1472  0.0997  0.4008
 2090SOL    HW1 7240   6.924   3.027   6.212 -0.1727 -0.4649  0.4545
 2090SOL    HW2 7241   7.002   3.068   6.089  0.3262  0.1496  0.9721
 2091SOL     OW 7242   7.236   0.994   4.371 -0.5620  0.6332  0.0960
 2091SOL    HW1 7243   7.199   0.975   4.457 -0.5684 -1.9022 -0.3814
 2091SOL    HW2 7244   7.318   1.039   4.389 -1.3725  1.6822  1.3365
 2092SOL     OW 7245   5.839   6.668   6.583 -0.6004 -0.7565 -0.2504
 2092SOL    HW1 7246   5.840   6.677   6.679 -1.8121 -0.0389 -0.2868
 2092SOL    HW2 7247   5.929   6.645   6.561 -0.1200 -0.2067  1.0062
 2093SOL     OW 7248   2.300   6.863   6.027 -0.0166 -0.2457 -0.2821
 2093SOL    HW1 7249   2.378   6.900   6.067 -0.2291  0.0066 -0.0927
 2093SOL    HW2 7250   2.298   6.772   6.058  0.5972 -0.4725 -0.8885
 2094SOL     OW 7251   0.480   7.279   0.596  0.7603 -0.0562 -0.7647
 2094SOL    HW1 7252   0.420   7.232   0.654 -0.1439  0.3245 -1.3667
 2094SOL    HW2 7253   0.525   7.211   0.547 -1.3896 -0.3437 -2.4895
 2095SOL     OW 7254   2.170   4.294   6.664 -0.0447  0.7318  0.3251
 2095SOL    HW1 7255   2.262   4.316   6.656 -0.3318  2.0126  0.3390
 2095SOL    HW2 7256   2.124   4.374   6.640 -1.1654 -0.0564 -0.2488
 2096SOL     OW 7257   5.717   0.490   0.951 -0.3808  0.7674  0.7027
 2096SOL    HW1 7258   5.727   0.524   0.862 -0.8566  0.2148  0.4309
 2096SOL    HW2 7259   5.794   0.436   0.966  0.1283  1.5488  0.9500
 2097SOL     OW 7260   6.228   6.204   1.146 -0.2551  0.3376  0.2355
 2097SOL    HW1 7261   6.286   6.230   1.075  0.1503  1.0745  0.8170
 2097SOL    HW2 7262   6.282   6.148   1.202  0.1471  1.6240  1.1703
 2098SOL     OW 7263   3.671   3.557   1.264 -0.5028 -0.2386 -0.1733
 2098SOL    HW1 7264   3.760   3.521   1.266 -0.1628  0.5598 -0.4874
 2098SOL    HW2 7265   3.615   3.485   1.294  0.1700 -0.9803 -0.6433
 2099SOL     OW 7266   2.329   3.888   4.647  0.3525 -0.8206 -0.2768
 2099SOL    HW1 7267   2.415   3.896   4.607  0.7248 -1.0014  0.4707
 2099SOL    HW2 7268   2.346   3.852   4.734 -0.5198 -1.3416 -0.3074
 2100SOL     OW 7269   3.778   0.854   1.857 -0.2948 -0.2528 -1.0540
 2100SOL    HW1 7270   3.792   0.760   1.871  0.8713  0.0665  0.2128
 2100SOL    HW2 7271   3.685   0.868   1.874 -0.0275 -0.8315  1.1358
 2101SOL     OW 7272   4.611   6.390   5.040 -0.0755  0.2751 -0.6149
 2101SOL    HW1 7273   4.527   6.390   5.086 -0.4838  0.6796 -1.3609
 2101SOL    HW2 7274   4.641   6.480   5.045  0.6917 -0.0118  0.3132
 2102SOL     OW 7275   4.673   4.173   6.446  0.1839  0.0996 -0.1700
 2102SOL    HW1 7276   4.600   4.137   6.496 -0.1103 -1.0905 -1.3955
 2102SOL    HW2 7277   4.749   4.120   6.471  0.8054  1.6363  1.4636
 2103SOL     OW 7278   1.199   1.320   3.188 -0.4761  0.0319  0.2268
 2103SOL    HW1 7279   1.254   1.272   3.126 -1.0456  0.9976 -1.0790
 2103SOL    HW2 7280   1.181   1.257   3.257 -0.3322 -1.3005 -0.8947
 2104SOL     OW 7281   6.849   1.077   4.509  0.6430 -0.3720 -0.4770
 2104SOL    HW1 7282   6.848   1.161   4.463 -0.1026  1.6617  2.9033
 2104SOL    HW2 7283   6.942   1.053   4.512  1.0847  1.2326 -0.1397
 2105SOL     OW 7284   6.787   7.071   2.481 -0.5006 -0.4747 -0.0486
 2105SOL    HW1 7285   6.832   6.986   2.479  0.7934  0.1868 -0.2472
 2105SOL    HW2 7286   6.812   7.113   2.399 -1.0303  0.1508  0.1049
 2106SOL     OW 7287   3.781   0.200   0.266 -0.1057 -0.0808  0.1746
 2106SOL    HW1 7288   3.845   0.243   0.322 -0.6170 -0.8367  1.3623
 2106SOL    HW2 7289   3.763   0.264   0.197  0.3958  0.9451  0.9741
 2107SOL     OW 7290   3.151   2.263   4.026  0.3711 -0.7328  0.3569
 2107SOL    HW1 7291   3.088   2.215   3.973 -0.1579  0.7344 -0.4133
 2107SOL    HW2 7292   3.099   2.305   4.094 -0.0755  2.8069 -1.9224
 2108SOL     OW 7293   5.908   0.144   2.730 -0.3020 -0.1807  0.6707
 2108SOL    HW1 7294   5.879   0.077   2.792  1.3353  0.0714  1.7815
 2108SOL    HW2 7295   5.903   0.226   2.780 -1.5275  0.4444 -0.4203
 2109SOL     OW 7296   5.872   6.936   1.814 -0.0190 -0.0489  0.6838
 2109SOL    HW1 7297   5.826   6.926   1.730  0.3456  0.1109  0.4629
 2109SOL    HW2 7298   5.952   6.884   1.804 -0.6233 -1.1775  1.4381
 2110SOL     OW 7299   5.189   2.174   7.323  0.1249 -0.0594 -0.3091
 2110SOL    HW1 7300   5.124   2.104   7.316 -1.6600  1.3688  0.9861
 2110SOL    HW2 7301   5.231   2.159   7.407  0.0303  0.1850 -0.2180
 2111SOL     OW 7302   1.993   0.505   3.080  0.0477  0.3222 -0.1807
 2111SOL    HW1 7303   2.019   0.488   3.171 -1.8392 -0.0437  0.3395
 2111SOL    HW2 7304   1.989   0.418   3.040  0.5409  0.4549 -0.5252
 2112SOL     OW 7305   2.373   6.074   1.428 -0.4126 -0.1210  0.1598
 2112SOL    HW1 7306   2.434   6.108   1.494  0.8014 -0.8267 -0.5828
 2112SOL    HW2 7307   2.326   6.004   1.474 -1.1217  0.8189  0.9168
 2113SOL     OW 7308   4.474   5.465   2.101  0.2455 -0.6394 -0.2509
 2113SOL    HW1 7309   4.482   5.475   2.196 -1.4405  1.3586 -0.2402
 2113SOL    HW2 7310   4.409   5.396   2.089 -0.2822 -0.2151  0.0996
 2114SOL     OW 7311   7.143   6.820   0.796  0.0403 -0.2574 -0.3009
 2114SOL    HW1 7312   7.171   6.863   0.877  2.2320 -1.5947 -0.2579
 2114SOL    HW2 7313   7.115   6.733   0.824 -0.5340 -0.2436 -0.8259
 2115SOL     OW 7314   3.874   0.029   1.152 -0.0651  0.1557  0.4552
 2115SOL    HW1 7315   3.781   0.007   1.147 -0.7645  2.6659  1.1872
 2115SOL    HW2 7316   3.916  -0.032   1.091 -2.1939 -0.9368 -0.0161
 2116SOL     OW 7317   6.418   4.015   6.561 -0.0112  0.3354  0.2245
 2116SOL    HW1 7318   6.468   4.088   6.598 -1.4564  1.0316  0.8943
 2116SOL    HW2 7319   6.484   3.955   6.526  1.3123  0.7841  1.8475
 2117SOL     OW 7320   1.060   7.347   6.721  0.1717  0.3186 -0.0290
 2117SOL    HW1 7321   1.133   7.321   6.665  0.3712 -1.7110  1.0880
 2117SOL    HW2 7322   1.093   7.336   6.810 -0.8046  1.5056  0.5131
 2118SOL     OW 7323   1.590   3.490   2.031  0.2287 -0.6169  0.0500
 2118SOL    HW1 7324   1.562   3.422   1.970 -0.2517  0.9581 -1.5958
 2118SOL    HW2 7325   1.525   3.560   2.020  0.3594 -0.1166  2.1135
 2119SOL     OW 7326   3.206   4.979   1.210  0.0477 -0.0414  0.1816
 2119SOL    HW1 7327   3.188   5.074   1.210 -0.8514 -0.1956  0.9087
 2119SOL    HW2 7328   3.120   4.938   1.209  0.4400 -0.8831 -1.3145
 2120SOL     OW 7329   2.383   1.500   3.727  0.2039  0.2634  0.0021
 2120SOL    HW1 7330   2.389   1.405   3.730  0.3132  0.0724 -3.1309
 2120SOL    HW2 7331   2.473   1.529   3.706  0.1360  1.0513  0.7380
 2121SOL     OW 7332   5.643   0.936   1.846  0.4410 -0.0770 -0.3071
 2121SOL    HW1 7333   5.624   1.018   1.800  0.7227 -0.1978 -0.6394
 2121SOL    HW2 7334   5.576   0.932   1.915 -0.6516 -0.4047 -1.3485
 2122SOL     OW 7335   0.608   3.453   4.421 -0.3122 -0.1352 -0.2917
 2122SOL    HW1 7336   0.630   3.460   4.328 -2.9813 -0.0185 -1.0056
 2122SOL    HW2 7337   0.604   3.543   4.452 -2.3920  0.0594 -0.9326
 2123SOL     OW 7338   3.600   3.427   4.043  0.0746 -0.0014  0.3519
 2123SOL    HW1 7339   3.516   3.470   4.056  0.7424  1.3044  0.5341
 2123SOL    HW2 7340   3.599   3.353   4.104 -0.5491  0.5776  1.0653
 2124SOL     OW 7341   1.593   5.702   3.428  0.0201  0.0584  0.1561
 2124SOL    HW1 7342   1.647   5.766   3.380 -0.2608 -0.0199 -0.2639
 2124SOL    HW2 7343   1.567   5.749   3.507  1.2098 -0.1057  0.6682
 2125SOL     OW 7344   6.682   1.219   6.439  0.5252 -0.5772  0.0323
 2125SOL    HW1 7345   6.702   1.268   6.360  1.0766 -2.6759 -1.1984
 2125SOL    HW2 7346   6.588   1.232   6.453  0.3190 -0.6066 -1.2748
 2126SOL     OW 7347   3.072   4.019   1.627  0.5324 -0.8206 -0.2522
 2126SOL    HW1 7348   3.028   3.967   1.694  1.7659 -0.2949  1.0073
 2126SOL    HW2 7349   3.155   4.045   1.667  0.4583  1.1647 -1.2521
 2127SOL     OW 7350   2.322   2.578   0.235 -0.1344 -0.1111 -0.8912
 2127SOL    HW1 7351   2.305   2.487   0.210 -2.0606 -0.0923  0.1098
 2127SOL    HW2 7352   2.236   2.611   0.263  0.5521  1.9743 -1.0910
 2128SOL     OW 7353   0.664   0.218   3.633  0.6966 -0.1243 -0.2710
 2128SOL    HW1 7354   0.656   0.149   3.568 -0.8254  0.6086 -0.9031
 2128SOL    HW2 7355   0.671   0.299   3.582  0.9648  0.3253  0.4608
 2129SOL     OW 7356   6.399   0.891   6.059  0.5521 -0.0525  0.4090
 2129SOL    HW1 7357   6.453   0.822   6.023  0.1503 -0.5459  0.7356
 2129SOL    HW2 7358   6.401   0.877   6.154 -1.5085 -1.1382  0.3522
 2130SOL     OW 7359   6.251   4.547   5.377  0.3800  0.4716 -0.7607
 2130SOL    HW1 7360   6.344   4.547   5.356  0.4518 -0.2086 -0.4508
 2130SOL    HW2 7361   6.229   4.455   5.393 -0.0707  0.7444  0.3279
 2131SOL     OW 7362   3.077   4.679   3.522 -0.0357  0.2339  0.4758
 2131SOL    HW1 7363   3.016   4.722   3.582 -0.5856 -1.0658  0.8838
 2131SOL    HW2 7364   3.156   4.664   3.575  0.3308  1.1094  0.2026
 2132SOL     OW 7365   1.873   4.605   0.427  0.6401 -0.4302  0.3459
 2132SOL    HW1 7366   1.780   4.601   0.403  0.9952 -0.3583 -1.1459
 2132SOL    HW2 7367   1.898   4.696   0.410  0.7819 -0.2227  1.6020
 2133SOL     OW 7368   4.509   4.067   5.792 -0.4990  0.2258  0.3545
 2133SOL    HW1 7369   4.441   4.029   5.848 -0.2253  0.2040  0.6685
 2133SOL    HW2 7370   4.510   4.010   5.715 -0.3504 -0.1888  0.6579
 2134SOL     OW 7371   6.923   1.590   1.936 -0.0764  0.2798  0.0069
 2134SOL    HW1 7372   6.980   1.618   1.865  1.7764 -0.3055  1.1728
 2134SOL    HW2 7373   6.883   1.509   1.906  0.8697 -0.0834 -0.2973
 2135SOL     OW 7374   0.252   2.801   7.248 -0.1515 -0.3305  0.0284
 2135SOL    HW1 7375   0.237   2.807   7.153  1.6393 -1.2070 -0.3562
 2135SOL    HW2 7376   0.165   2.801   7.286 -0.9078  0.8046 -1.5653
 2136SOL     OW 7377   0.260   5.714   3.556  0.2333 -0.4051 -0.1857
 2136SOL    HW1 7378   0.249   5.772   3.480 -0.5630  2.3072  1.8600
 2136SOL    HW2 7379   0.355   5.705   3.566  0.3688  0.4064 -0.6443
 2137SOL     OW 7380   4.101   0.142   7.119  0.2043  0.4341 -0.0805
 2137SOL    HW1 7381   4.176   0.142   7.179  0.3763 -1.1724 -0.2584
 2137SOL    HW2 7382   4.109   0.223   7.070  0.8482  1.1129  1.1118
 2138SOL     OW 7383   5.968   2.095   3.744 -0.3280 -0.0252  0.5036
 2138SOL    HW1 7384   5.894   2.047   3.783 -0.9014 -1.1036 -1.7533
 2138SOL    HW2 7385   6.030   2.026   3.719  0.8429  0.7797  1.1418
 2139SOL     OW 7386   7.282   4.864   6.781  0.1781 -0.1046 -0.3852
 2139SOL    HW1 7387   7.327   4.929   6.726 -0.0943  0.7754  0.4039
 2139SOL    HW2 7388   7.293   4.897   6.870 -0.0869 -1.0846  0.0192
 2140SOL     OW 7389   6.059   6.279   2.682 -0.5043 -0.0603 -0.0031
 2140SOL    HW1 7390   6.135   6.235   2.642 -0.4793 -1.0850  1.1029
 2140SOL    HW2 7391   5.986   6.219   2.667 -0.7022  0.0358  0.5377
 2141SOL     OW 7392   5.213   7.325   1.205 -0.0200 -0.1618 -0.7290
 2141SOL    HW1 7393   5.126   7.327   1.246 -0.2276 -0.7794 -1.1198
 2141SOL    HW2 7394   5.224   7.411   1.166 -0.9449 -0.4453 -1.6589
 2142SOL     OW 7395   1.302   1.769   4.047 -0.4072  0.4181 -0.3860
 2142SOL    HW1 7396   1.374   1.707   4.051  0.0276  0.7805 -2.0502
 2142SOL    HW2 7397   1.230   1.720   4.007 -0.9949  0.1802  0.8926
 2143SOL     OW 7398   7.217   2.604   1.353 -0.3911 -0.4289  0.4461
 2143SOL    HW1 7399   7.132   2.628   1.390  0.5492  2.9464  0.7849
 2143SOL    HW2 7400   7.206   2.614   1.259 -0.4279 -0.1848  0.4759
 2144SOL     OW 7401   6.122   6.466   2.399 -0.3055  0.3298 -0.4640
 2144SOL    HW1 7402   6.174   6.450   2.320 -0.5606  2.3975 -1.1095
 2144SOL    HW2 7403   6.051   6.402   2.394  1.3093 -1.5863 -0.2921
 2145SOL     OW 7404   6.705   4.405   1.079 -0.5817 -0.1192 -0.4164
 2145SOL    HW1 7405   6.633   4.343   1.070 -1.6548  1.2405 -1.7695
 2145SOL    HW2 7406   6.662   4.488   1.099  0.8785  0.0279  2.7291
 2146SOL     OW 7407   0.916   6.350   6.931 -0.0174 -0.1108 -0.4506
 2146SOL    HW1 7408   0.914   6.400   7.013  0.0875 -0.9034  0.0424
 2146SOL    HW2 7409   0.838   6.294   6.936  0.3057 -0.5760 -0.6334
 2147SOL     OW 7410   2.992   5.888   2.691 -0.2681 -0.2645  0.3183
 2147SOL    HW1 7411   2.932   5.962   2.699 -0.8076 -0.6404 -0.1551
 2147SOL    HW2 7412   3.074   5.919   2.727  0.1903  1.3671 -1.9168
 2148SOL     OW 7413   2.237   6.054   3.228  0.3611 -0.4566  0.0826
 2148SOL    HW1 7414   2.144   6.053   3.208  0.3302  2.4683 -0.2917
 2148SOL    HW2 7415   2.243   6.100   3.312  1.4988  0.0084 -0.2355
 2149SOL     OW 7416   3.212   4.104   1.901 -0.3486  0.4778 -0.6589
 2149SOL    HW1 7417   3.154   4.109   1.977  1.2218  0.3061  0.6067
 2149SOL    HW2 7418   3.264   4.185   1.905  0.7784 -0.2133 -0.6257
 2150SOL     OW 7419   5.898   1.284   0.553  0.2757  0.1747  0.4707
 2150SOL    HW1 7420   5.870   1.283   0.461  0.8926  0.0283  0.2791
 2150SOL    HW2 7421   5.916   1.192   0.573  0.4755  0.2484  0.6329
 2151SOL     OW 7422   6.788   3.052   2.589  0.0519  0.4632 -0.1917
 2151SOL    HW1 7423   6.811   3.042   2.681  0.2189 -1.2378 -0.3907
 2151SOL    HW2 7424   6.700   3.014   2.582 -0.3771  1.4974 -0.5517
 2152SOL     OW 7425   0.468   2.536   1.171 -0.3098  0.1416 -0.3649
 2152SOL    HW1 7426   0.423   2.501   1.248 -0.2218 -0.1990 -0.4645
 2152SOL    HW2 7427   0.407   2.519   1.099 -0.1399 -0.0715 -0.4580
 2153SOL     OW 7428   6.393   0.079   4.768  0.0230  0.0449  0.1835
 2153SOL    HW1 7429   6.322   0.024   4.800  0.0894  0.0780  0.3908
 2153SOL    HW2 7430   6.464   0.065   4.831 -0.1369  0.7651  0.5378
 2154SOL     OW 7431   5.247   6.758   1.705 -0.2653 -0.0942 -0.2425
 2154SOL    HW1 7432   5.239   6.795   1.792 -1.3176 -1.1199  0.1153
 2154SOL    HW2 7433   5.289   6.673   1.718 -2.6789 -1.3867 -0.3904
 2155SOL     OW 7434   5.845   5.162   2.637 -0.2708 -0.3023 -0.1312
 2155SOL    HW1 7435   5.784   5.234   2.626  0.0106  0.0806  0.7116
 2155SOL    HW2 7436   5.800   5.086   2.601 -0.6509  0.2471 -0.8453
 2156SOL     OW 7437   4.944   7.024   5.497 -0.5742 -0.2369 -0.2550
 2156SOL    HW1 7438   4.861   7.037   5.451  0.1638  1.2429 -1.2726
 2156SOL    HW2 7439   4.957   7.105   5.547 -1.0763 -1.5754  2.2338
 2157SOL     OW 7440   0.505   5.981   2.897 -0.1472  0.2733  0.6020
 2157SOL    HW1 7441   0.551   5.903   2.928  2.1230  1.6352  0.8388
 2157SOL    HW2 7442   0.547   6.002   2.813 -1.4818  0.6414 -0.0072
 2158SOL     OW 7443   4.525   5.777   1.448 -1.0694 -0.4376  0.5747
 2158SOL    HW1 7444   4.510   5.688   1.478  1.7949 -0.7990  1.1968
 2158SOL    HW2 7445   4.605   5.772   1.395 -0.0612  1.9232  1.7168
 2159SOL     OW 7446   4.305   3.654   1.360 -0.2924  0.5388 -0.1520
 2159SOL    HW1 7447   4.215   3.659   1.392 -0.0044  0.8082  0.6330
 2159SOL    HW2 7448   4.333   3.565   1.382  0.8469  1.5656  2.9953
 2160SOL     OW 7449   6.228   6.586   4.096  0.4359 -0.0359 -0.3977
 2160SOL    HW1 7450   6.186   6.605   4.012 -0.3324  1.1814  0.2229
 2160SOL    HW2 7451   6.247   6.492   4.093  0.5732  0.0124 -1.9788
 2161SOL     OW 7452   6.955   6.656   5.154  0.3329  0.3397  0.1057
 2161SOL    HW1 7453   6.967   6.724   5.088  0.1258  0.6268  0.3592
 2161SOL    HW2 7454   7.013   6.585   5.126 -0.8520 -0.1669 -1.2211
 2162SOL     OW 7455   1.223   4.751   4.634 -0.4585  0.0767  0.2182
 2162SOL    HW1 7456   1.215   4.748   4.730 -0.4963 -1.5251  0.1880
 2162SOL    HW2 7457   1.266   4.668   4.611 -0.1703  0.5830 -1.1333
 2163SOL     OW 7458   1.088   2.541   2.599  0.2428 -0.6272  0.1284
 2163SOL    HW1 7459   1.051   2.512   2.682 -1.1322  1.7825  0.4507
 2163SOL    HW2 7460   1.114   2.460   2.555 -1.4818 -2.1705  1.7489
 2164SOL     OW 7461   6.861   0.825   5.302  0.1117 -0.2492 -0.0888
 2164SOL    HW1 7462   6.830   0.881   5.230 -0.9453  0.0716  0.5903
 2164SOL    HW2 7463   6.948   0.859   5.323 -1.1172  2.3212  1.4010
 2165SOL     OW 7464   4.191   1.184   5.066 -0.2653  0.4797 -0.0530
 2165SOL    HW1 7465   4.258   1.245   5.098  2.1179 -1.3541 -1.2038
 2165SOL    HW2 7466   4.143   1.158   5.144  0.1965  2.0404  0.7875
 2166SOL     OW 7467   5.008   4.503   2.764 -0.1500 -0.0616  0.4957
 2166SOL    HW1 7468   5.051   4.536   2.685  0.0317  0.2356  0.7163
 2166SOL    HW2 7469   5.068   4.526   2.835  1.4624 -3.4142  0.3942
 2167SOL     OW 7470   4.898   3.173   3.330 -0.2356 -0.4423 -0.1569
 2167SOL    HW1 7471   4.928   3.208   3.414 -0.0935  0.9465 -0.7637
 2167SOL    HW2 7472   4.901   3.248   3.270 -0.8319 -1.2862 -1.2786
 2168SOL     OW 7473   2.683   3.082   0.554 -0.1141 -0.2596  0.4877
 2168SOL    HW1 7474   2.690   3.116   0.644  2.4199  0.5974  0.0310
 2168SOL    HW2 7475   2.657   3.157   0.502 -1.1195 -0.6510  0.4010
 2169SOL     OW 7476   5.637   0.826   4.902 -0.4454 -0.2006  0.1135
 2169SOL    HW1 7477   5.616   0.899   4.961 -0.8540  0.3704 -0.7208
 2169SOL    HW2 7478   5.733   0.822   4.903 -0.4112  0.4444  0.0617
 2170SOL     OW 7479   3.744   1.922   1.134  0.1992 -0.6207  0.1379
 2170SOL    HW1 7480   3.741   1.948   1.042  1.8878 -1.7930 -0.2820
 2170SOL    HW2 7481   3.734   1.827   1.132  0.1362 -0.6470  1.1970
 2171SOL     OW 7482   0.712   7.312   2.393 -0.1137  0.6294  0.1633
 2171SOL    HW1 7483   0.645   7.380   2.402 -0.3342  0.5204 -0.6369
 2171SOL    HW2 7484   0.662   7.231   2.385  0.1448  0.1973  2.2177
 2172SOL     OW 7485   4.413   5.356   0.225  0.3015 -0.4566 -0.4917
 2172SOL    HW1 7486   4.509   5.366   0.225  0.1543  1.4456  0.4871
 2172SOL    HW2 7487   4.399   5.262   0.217  2.3263 -1.0618  1.8511
 2173SOL     OW 7488   4.929   1.298   5.448 -0.3269 -0.0117  0.4433
 2173SOL    HW1 7489   5.006   1.272   5.500  1.1186 -1.2291 -2.1023
 2173SOL    HW2 7490   4.858   1.303   5.512  1.0180 -2.7475  2.3829
 2174SOL     OW 7491   2.362   5.780   3.868 -0.7690 -0.2076  0.3867
 2174SOL    HW1 7492   2.371   5.868   3.905 -0.5389 -0.6086  1.3204
 2174SOL    HW2 7493   2.269   5.759   3.877 -0.9282  0.1548 -0.3570
 2175SOL     OW 7494   6.931   5.007   3.379  0.1432 -0.1656  0.5609
 2175SOL    HW1 7495   6.990   4.941   3.344  0.2341  1.0962 -1.8436
 2175SOL    HW2 7496   6.846   4.987   3.341 -0.1556  0.2681  0.9802
 2176SOL     OW 7497   7.068   4.298   4.965  0.1014  0.4703  0.1404
 2176SOL    HW1 7498   7.090   4.238   4.894 -2.1190 -0.0378 -0.1905
 2176SOL    HW2 7499   7.128   4.372   4.955 -1.2151  1.2348 -3.3377
 2177SOL     OW 7500   2.444   4.343   6.663 -0.2624  0.1993 -0.3483
 2177SOL    HW1 7501   2.426   4.437   6.654 -1.0338  0.1350  0.4164
 2177SOL    HW2 7502   2.481   4.334   6.751  1.5331  0.0103 -1.0656
 2178SOL     OW 7503   7.340   1.375   3.984  0.3316 -0.4533  0.1254
 2178SOL    HW1 7504   7.420   1.428   3.982  0.0329 -0.0005 -1.1269
 2178SOL    HW2 7505   7.340   1.335   4.070  2.8491 -1.8969 -0.4477
 2179SOL     OW 7506   2.639   1.337   4.376  0.1883 -0.3321 -0.3247
 2179SOL    HW1 7507   2.729   1.369   4.371 -0.1485  0.6110 -0.6381
 2179SOL    HW2 7508   2.644   1.245   4.351  1.5130 -1.2019  2.6409
 2180SOL     OW 7509   2.100   1.048   4.227  0.1923  0.2253 -0.1577
 2180SOL    HW1 7510   2.041   0.975   4.208  2.1107 -1.1955 -1.0364
 2180SOL    HW2 7511   2.181   1.005   4.255  1.8730  1.9227 -2.0999
 2181SOL     OW 7512   6.154   4.826   6.226  0.3238 -0.1769  0.1096
 2181SOL    HW1 7513   6.082   4.786   6.275 -1.9227  2.8759 -0.3815
 2181SOL    HW2 7514   6.228   4.822   6.285 -1.3394  0.0891  2.3542
 2182SOL     OW 7515   2.049   0.171   0.840 -0.2027 -0.0334 -0.5081
 2182SOL    HW1 7516   1.998   0.233   0.891  0.9582 -0.1386  0.8314
 2182SOL    HW2 7517   2.059   0.212   0.754 -1.1643  0.6931 -0.2827
 2183SOL     OW 7518   5.492   4.862   2.937 -0.2913 -0.3588  0.1046
 2183SOL    HW1 7519   5.532   4.924   2.998 -1.3890  1.3051 -0.7629
 2183SOL    HW2 7520   5.510   4.776   2.974  1.1813  0.4669  1.4478
 2184SOL     OW 7521   6.228   6.236   0.434  0.4265  0.0113  0.3338
 2184SOL    HW1 7522   6.209   6.329   0.446 -0.6322 -0.2243  0.6360
 2184SOL    HW2 7523   6.319   6.226   0.464  0.5179  0.9231  0.3949
 2185SOL     OW 7524   3.464   1.851   7.188 -0.2916  0.2596 -0.0783
 2185SOL    HW1 7525   3.478   1.821   7.278 -0.6579 -0.1377 -0.1489
 2185SOL    HW2 7526   3.426   1.775   7.143 -1.6929  0.9614 -0.1516
 2186SOL     OW 7527   4.517   5.418   6.261  0.2553  0.1225  0.1853
 2186SOL    HW1 7528   4.499   5.325   6.245 -0.3396  0.2746 -0.0829
 2186SOL    HW2 7529   4.495   5.461   6.178 -0.2563  0.5977  0.5637
 2187SOL     OW 7530   0.141   4.906   5.670  0.9423 -0.3163 -0.2843
 2187SOL    HW1 7531   0.079   4.863   5.728  0.3324 -0.2133 -0.8498
 2187SOL    HW2 7532   0.219   4.918   5.723  0.8117 -1.3057  0.1524
 2188SOL     OW 7533   0.014   1.962   3.573 -0.3475 -0.1874 -0.3643
 2188SOL    HW1 7534  -0.046   1.986   3.644  0.0349 -0.9252  0.2237
 2188SOL    HW2 7535   0.009   1.866   3.569 -1.3067 -0.1082 -2.1849
 2189SOL     OW 7536   2.405   3.098   6.220  0.2159 -0.5709 -0.0256
 2189SOL    HW1 7537   2.349   3.025   6.246 -1.8278  1.4676  1.7163
 2189SOL    HW2 7538   2.467   3.109   6.292  0.3577 -0.4323 -0.1658
 2190SOL     OW 7539   1.294   2.246   4.067 -0.4607 -0.1117 -0.2330
 2190SOL    HW1 7540   1.357   2.278   4.131 -0.7742 -0.8596  0.4804
 2190SOL    HW2 7541   1.292   2.151   4.082 -0.7643 -0.2575 -1.1504
 2191SOL     OW 7542   0.498   3.235   0.297  0.1679 -0.0266 -0.0430
 2191SOL    HW1 7543   0.436   3.308   0.293 -0.2684 -0.3187  0.9508
 2191SOL    HW2 7544   0.578   3.273   0.333  0.5900  0.3603 -1.3650
 2192SOL     OW 7545   0.136   2.538   6.906  0.3051 -0.0458  0.0662
 2192SOL    HW1 7546   0.127   2.514   6.998  0.6385 -0.8581 -0.0964
 2192SOL    HW2 7547   0.191   2.617   6.906  1.6357 -0.9293  0.5030
 2193SOL     OW 7548   3.066   0.068   2.989  0.0849  0.5307  0.0292
 2193SOL    HW1 7549   3.150   0.114   2.987  0.1320  0.4207 -0.7988
 2193SOL    HW2 7550   3.089  -0.024   2.981 -0.0940  0.4627  0.2716
 2194SOL     OW 7551   6.930   4.514   2.058  0.0570  0.1339  0.2804
 2194SOL    HW1 7552   6.869   4.492   1.988  0.7605  0.7251 -0.5531
 2194SOL    HW2 7553   6.982   4.435   2.071  0.0694  0.0933 -0.0187
 2195SOL     OW 7554   4.074   1.827   1.850 -0.1715 -0.3032 -0.1513
 2195SOL    HW1 7555   3.992   1.865   1.820  0.1396  0.6784  0.2020
 2195SOL    HW2 7556   4.112   1.894   1.907 -0.0584 -1.5348  1.2763
 2196SOL     OW 7557   1.595   4.539   3.265 -0.3122 -0.4005  0.6140
 2196SOL    HW1 7558   1.654   4.464   3.272 -0.5749 -0.5154  1.8143
 2196SOL    HW2 7559   1.508   4.502   3.279 -0.3742  0.2357  2.0512
 2197SOL     OW 7560   4.623   4.809   5.473  0.4886 -0.2803  0.1288
 2197SOL    HW1 7561   4.679   4.745   5.431  1.1327  0.5519 -0.3137
 2197SOL    HW2 7562   4.600   4.871   5.404 -0.1589 -0.0561  0.5316
 2198SOL     OW 7563   0.505   7.263   4.353  0.0281 -0.6694  1.0847
 2198SOL    HW1 7564   0.427   7.245   4.302  0.8795 -1.0824 -0.1115
 2198SOL    HW2 7565   0.529   7.353   4.330  1.8185 -1.6434 -1.2727
 2199SOL     OW 7566   1.534   4.020   5.161 -0.0039 -0.3769  1.1474
 2199SOL    HW1 7567   1.581   4.038   5.080 -0.0164 -1.5118  0.8653
 2199SOL    HW2 7568   1.594   4.048   5.230  0.0331  0.5350  0.7540
 2200SOL     OW 7569   0.215   5.156   0.990 -0.2875  0.8217 -0.1566
 2200SOL    HW1 7570   0.240   5.183   0.902 -0.6426  1.4602 -0.0640
 2200SOL    HW2 7571   0.129   5.115   0.979  0.8154 -1.5355 -0.5023
 2201SOL     OW 7572   0.888   0.889   0.840 -0.3941 -0.4501 -0.3552
 2201SOL    HW1 7573   0.863   0.971   0.798  0.1176 -0.4219 -0.6200
 2201SOL    HW2 7574   0.837   0.822   0.795 -1.6596 -0.1669  0.6222
 2202SOL     OW 7575   6.612   4.650   6.479 -0.1868  0.1669 -0.4544
 2202SOL    HW1 7576   6.695   4.656   6.527 -0.5866  0.1340  0.2581
 2202SOL    HW2 7577   6.567   4.575   6.519 -1.3822  1.3316  0.4953
 2203SOL     OW 7578   1.626   2.697   7.227  0.0641  0.0836 -0.0650
 2203SOL    HW1 7579   1.550   2.754   7.244  1.0167  1.2967  0.2795
 2203SOL    HW2 7580   1.597   2.640   7.156 -1.5654 -0.2625  0.8230
 2204SOL     OW 7581   4.351   5.473   0.829  0.6991  0.2054  0.4897
 2204SOL    HW1 7582   4.342   5.475   0.733 -2.5465 -3.5811  0.4786
 2204SOL    HW2 7583   4.433   5.425   0.844  0.4191 -0.5982 -0.4477
 2205SOL     OW 7584   6.805   5.735   6.487 -0.3704 -0.0333  0.1945
 2205SOL    HW1 7585   6.787   5.721   6.393  0.9268 -1.2439  0.0927
 2205SOL    HW2 7586   6.727   5.703   6.531 -1.5299  1.6981 -0.4853
 2206SOL     OW 7587   5.310   0.764   5.086  0.2490  0.4591 -0.9099
 2206SOL    HW1 7588   5.376   0.700   5.061 -0.9713 -0.6857 -1.2896
 2206SOL    HW2 7589   5.273   0.794   5.003  1.1375  2.0551 -0.7683
 2207SOL     OW 7590   6.211   5.854   3.142 -0.1769  0.3336  0.0390
 2207SOL    HW1 7591   6.152   5.796   3.189 -0.1215  0.9798  0.9210
 2207SOL    HW2 7592   6.177   5.856   3.052  1.3077 -3.1372 -0.7636
 2208SOL     OW 7593   1.119   6.049   3.663  0.4101  0.0884 -0.1717
 2208SOL    HW1 7594   1.050   6.028   3.727 -0.1616  0.9814 -0.4732
 2208SOL    HW2 7595   1.143   5.964   3.625  0.1131 -0.3421  0.5785
 2209SOL     OW 7596   1.946   5.148   3.443  0.1818 -0.3860  0.8522
 2209SOL    HW1 7597   2.031   5.162   3.401 -0.2243 -2.4301 -0.8761
 2209SOL    HW2 7598   1.947   5.205   3.520  1.3901  2.9018 -1.3647
 2210SOL     OW 7599   3.007   5.395   1.079 -0.5551 -0.8610 -0.2761
 2210SOL    HW1 7600   2.954   5.322   1.048 -2.7590  1.0164 -1.1799
 2210SOL    HW2 7601   3.058   5.423   1.003 -1.9479  0.3478 -0.8179
 2211SOL     OW 7602   0.128   5.367   3.002  0.7303 -0.3818 -0.0987
 2211SOL    HW1 7603   0.111   5.455   3.037  1.1696 -1.2665  2.5850
 2211SOL    HW2 7604   0.103   5.373   2.910  3.0131  3.2278 -0.7046
 2212SOL     OW 7605   5.583   0.309   5.334 -0.2750 -0.0631 -0.1788
 2212SOL    HW1 7606   5.633   0.390   5.331 -0.4352  0.0216 -0.6067
 2212SOL    HW2 7607   5.553   0.296   5.244  0.6245 -1.1407 -0.3520
 2213SOL     OW 7608   3.708   1.170   6.299 -0.1454  0.0477  0.2592
 2213SOL    HW1 7609   3.703   1.213   6.214  1.5966 -2.8717 -1.4722
 2213SOL    HW2 7610   3.780   1.215   6.344 -1.3162  1.8532  0.4325
 2214SOL     OW 7611   5.323   4.753   2.779 -0.1483  0.4841 -0.2127
 2214SOL    HW1 7612   5.275   4.815   2.724  0.2407  0.0527 -1.0663
 2214SOL    HW2 7613   5.370   4.807   2.842 -0.7041  0.9878 -0.2250
 2215SOL     OW 7614   5.808   4.860   0.872 -0.1399 -0.0618 -0.1316
 2215SOL    HW1 7615   5.858   4.781   0.851  0.2696 -0.1058  0.9522
 2215SOL    HW2 7616   5.873   4.930   0.876 -0.0329 -0.2181  1.8242
 2216SOL     OW 7617   6.372   6.563   2.620 -0.0810  0.0688 -0.1350
 2216SOL    HW1 7618   6.307   6.553   2.550 -2.3760 -0.8129  1.9859
 2216SOL    HW2 7619   6.323   6.548   2.701  2.8742 -1.0829  1.6020
 2217SOL     OW 7620   2.600   0.136   6.441 -0.6069  0.4884 -0.1543
 2217SOL    HW1 7621   2.603   0.042   6.428  1.0531  0.5923 -0.7468
 2217SOL    HW2 7622   2.540   0.149   6.515 -0.8515 -1.0099 -0.0726
 2218SOL     OW 7623   1.196   5.783   3.899  0.6619 -0.1409  0.0495
 2218SOL    HW1 7624   1.139   5.860   3.905  0.8214 -0.1202  1.8590
 2218SOL    HW2 7625   1.152   5.725   3.837  1.0671  1.7936 -2.2183
 2219SOL     OW 7626   6.927   0.309   2.896  0.2475 -0.3205  0.4821
 2219SOL    HW1 7627   6.935   0.305   2.801  3.0149  0.5648  0.5997
 2219SOL    HW2 7628   6.833   0.314   2.912 -0.3159 -0.9668 -2.1594
 2220SOL     OW 7629   0.876   5.817   3.550  0.3789 -0.1137 -0.4173
 2220SOL    HW1 7630   0.945   5.758   3.579 -0.8146 -1.4745 -0.2182
 2220SOL    HW2 7631   0.843   5.857   3.631  1.9549  1.7827 -0.6482
 2221SOL     OW 7632   6.799   4.129   0.393 -0.1199 -0.4133  0.1047
 2221SOL    HW1 7633   6.889   4.102   0.411 -0.5026 -0.6235  1.9099
 2221SOL    HW2 7634   6.759   4.053   0.352  0.4251 -0.4337 -0.4062
 2222SOL     OW 7635   1.874   6.290   4.308  0.6378  0.6596  0.4841
 2222SOL    HW1 7636   1.955   6.243   4.327  0.8256 -0.3055 -2.1887
 2222SOL    HW2 7637   1.900   6.359   4.247 -0.4275  0.7035  0.0569
 2223SOL     OW 7638   1.164   3.006   0.784  0.0334  0.4373  0.5471
 2223SOL    HW1 7639   1.239   3.013   0.844 -2.0324 -2.1670  3.7276
 2223SOL    HW2 7640   1.194   2.946   0.716  1.3786  0.8798  0.6972
 2224SOL     OW 7641   1.704   1.128   5.792  0.3788  0.1147 -0.3251
 2224SOL    HW1 7642   1.696   1.052   5.735  0.2667 -0.1232  0.0047
 2224SOL    HW2 7643   1.755   1.191   5.741  1.7961 -0.7568 -0.0230
 2225SOL     OW 7644   3.050   1.397   7.168 -0.1823 -0.0664  0.8605
 2225SOL    HW1 7645   3.073   1.304   7.172  2.7205  0.5693  1.9155
 2225SOL    HW2 7646   3.093   1.435   7.245 -1.0143  2.2062  0.2779
 2226SOL     OW 7647   5.220   4.386   1.540  0.0908  0.4572  0.6045
 2226SOL    HW1 7648   5.163   4.462   1.546 -0.8794 -0.2003 -0.1060
 2226SOL    HW2 7649   5.268   4.398   1.458 -0.2216  0.2088  0.3812
 2227SOL     OW 7650   3.624   2.471   0.192 -0.2676 -0.5819 -0.3154
 2227SOL    HW1 7651   3.623   2.379   0.167  0.9583 -0.7612  0.2623
 2227SOL    HW2 7652   3.619   2.471   0.287  0.2117 -0.0670 -0.2850
 2228SOL     OW 7653   2.097   1.784   0.525 -0.1316  0.5586  0.2390
 2228SOL    HW1 7654   2.193   1.787   0.522 -0.1355  0.8587  0.3702
 2228SOL    HW2 7655   2.076   1.694   0.549  0.1208  0.5302  0.3545
 2229SOL     OW 7656   6.043   6.187   3.553  0.7145  0.1259  0.0886
 2229SOL    HW1 7657   6.030   6.133   3.476  0.8230  0.9765 -0.5420
 2229SOL    HW2 7658   5.971   6.163   3.612 -0.5028  0.8009 -1.0674
 2230SOL     OW 7659   2.276   2.598   6.661 -0.1959  0.0835  0.2847
 2230SOL    HW1 7660   2.301   2.571   6.749 -1.0990 -0.0994  0.4941
 2230SOL    HW2 7661   2.214   2.532   6.632 -0.2850  0.4153 -0.2988
 2231SOL     OW 7662   2.420   2.930   1.125  0.4043  0.4851 -0.4175
 2231SOL    HW1 7663   2.442   2.975   1.206 -0.6764  0.7633 -0.2734
 2231SOL    HW2 7664   2.429   2.837   1.146 -2.0855  0.4239  0.7358
 2232SOL     OW 7665   7.200   2.020   2.235 -0.2142  0.1605 -0.5042
 2232SOL    HW1 7666   7.111   1.987   2.221 -0.4307 -0.3193  1.6715
 2232SOL    HW2 7667   7.194   2.114   2.218 -1.6079  0.4554  1.3517
 2233SOL     OW 7668   6.186   0.522   0.892 -0.2187  0.4210 -0.3536
 2233SOL    HW1 7669   6.199   0.484   0.979 -0.7156 -0.7646 -0.7749
 2233SOL    HW2 7670   6.219   0.611   0.899 -3.0922  1.4566  1.9462
 2234SOL     OW 7671   6.570   1.289   4.864  0.2139  0.8396  0.0502
 2234SOL    HW1 7672   6.586   1.284   4.770  1.0238 -1.2256  0.2334
 2234SOL    HW2 7673   6.622   1.364   4.893  2.2563 -0.1502 -0.7937
 2235SOL     OW 7674   1.580   6.471   0.727 -0.2127 -0.0342  0.2230
 2235SOL    HW1 7675   1.507   6.531   0.739  0.3043  0.3391  1.7898
 2235SOL    HW2 7676   1.654   6.513   0.771  0.7462 -0.7765 -0.6071
 2236SOL     OW 7677   5.744   0.753   2.967  0.1302  0.1199 -0.8092
 2236SOL    HW1 7678   5.671   0.795   3.011 -0.1536 -0.6659 -0.5199
 2236SOL    HW2 7679   5.815   0.754   3.032 -0.3823 -1.3218 -0.1807
 2237SOL     OW 7680   5.757   7.144   3.183 -0.3164 -0.3806  0.3896
 2237SOL    HW1 7681   5.670   7.123   3.216 -0.5072  0.1518  0.2374
 2237SOL    HW2 7682   5.806   7.171   3.261 -0.5744  0.2399  0.3469
 2238SOL     OW 7683   1.422   0.976   3.744  0.1969 -0.2557  0.2411
 2238SOL    HW1 7684   1.446   1.056   3.791  2.7599  0.2807 -1.7834
 2238SOL    HW2 7685   1.328   0.985   3.729 -0.1072  1.0001  2.4617
 2239SOL     OW 7686   3.778   4.200   5.961 -0.0482 -0.0887  0.3235
 2239SOL    HW1 7687   3.796   4.260   6.033 -1.7950 -0.0122  0.7311
 2239SOL    HW2 7688   3.818   4.117   5.989  1.4793  0.5687  0.2057
 2240SOL     OW 7689   0.648   5.814   3.974 -0.4746  0.1901 -0.2621
 2240SOL    HW1 7690   0.610   5.793   3.889 -1.1664  0.8263 -0.1138
 2240SOL    HW2 7691   0.624   5.905   3.990 -3.2837 -0.8142  2.1305
 2241SOL     OW 7692   6.433   2.001   0.209 -0.3622 -0.4848 -0.4724
 2241SOL    HW1 7693   6.372   1.981   0.280 -0.9807  0.9438 -0.5757
 2241SOL    HW2 7694   6.505   1.939   0.221 -0.9130 -0.9033  0.8101
 2242SOL     OW 7695   7.109   0.945   0.618  0.0775  0.4452 -0.3325
 2242SOL    HW1 7696   7.196   0.908   0.632  0.8001  2.5275  1.3621
 2242SOL    HW2 7697   7.106   0.964   0.524  1.4562  0.3296 -0.4176
 2243SOL     OW 7698   6.567   4.855   6.031  0.6436  0.3444  0.1362
 2243SOL    HW1 7699   6.636   4.881   5.970  0.6846  1.2115  0.5360
 2243SOL    HW2 7700   6.556   4.761   6.016 -0.4627  0.7900 -2.3370
 2244SOL     OW 7701   3.810   2.428   4.232  0.7058  0.6892 -0.4521
 2244SOL    HW1 7702   3.855   2.513   4.236 -0.7214  1.4268  0.7464
 2244SOL    HW2 7703   3.763   2.429   4.149  1.2077  0.7839 -0.7398
 2245SOL     OW 7704   4.657   0.318   6.660  0.7802  0.4841  0.2195
 2245SOL    HW1 7705   4.581   0.276   6.619  1.4084  0.6959 -1.2330
 2245SOL    HW2 7706   4.698   0.249   6.711 -0.3588  0.3581  1.0137
 2246SOL     OW 7707   2.260   0.200   1.683  0.5726  0.9283  0.0264
 2246SOL    HW1 7708   2.353   0.178   1.680  0.5391  0.8243 -2.7996
 2246SOL    HW2 7709   2.220   0.125   1.727  1.7737  0.9590  1.2606
 2247SOL     OW 7710   4.115   4.003   0.874 -0.3010 -0.1783  0.1645
 2247SOL    HW1 7711   4.210   4.002   0.884 -0.2541 -3.1811  0.3607
 2247SOL    HW2 7712   4.101   3.978   0.782 -0.9040  0.1568  0.1637
 2248SOL     OW 7713   5.217   4.002   6.065  0.0626 -0.0105 -0.2425
 2248SOL    HW1 7714   5.122   4.007   6.080 -0.0549  0.2112 -1.0164
 2248SOL    HW2 7715   5.256   4.030   6.148 -0.5473  0.6547 -0.1734
 2249SOL     OW 7716   2.595   1.756   4.300  0.4023 -0.1897  0.0759
 2249SOL    HW1 7717   2.544   1.681   4.330 -1.1773  0.2864 -1.2416
 2249SOL    HW2 7718   2.600   1.815   4.375  1.2395 -1.3545  0.9702
 2250SOL     OW 7719   0.780   2.507   2.125  0.0495  0.5490  0.0030
 2250SOL    HW1 7720   0.806   2.426   2.081 -1.8779 -0.6590  0.9673
 2250SOL    HW2 7721   0.800   2.576   2.061  0.3771 -0.8100 -1.4310
 2251SOL     OW 7722   4.305   0.335   0.644 -0.2963 -0.0015  0.3959
 2251SOL    HW1 7723   4.240   0.394   0.683 -0.5848  0.6191 -0.9613
 2251SOL    HW2 7724   4.254   0.278   0.586  0.3225  0.3802 -0.5549
 2252SOL     OW 7725   0.449   3.127   3.749  0.3994 -0.0830  0.2410
 2252SOL    HW1 7726   0.543   3.117   3.766  0.1390 -2.1034  0.6958
 2252SOL    HW2 7727   0.407   3.068   3.812 -0.9787 -2.1571 -2.4415
 2253SOL     OW 7728   4.613   2.313   4.415 -0.5665 -0.5042 -0.9829
 2253SOL    HW1 7729   4.633   2.235   4.363  0.1653  0.3289 -1.9757
 2253SOL    HW2 7730   4.557   2.280   4.486 -1.1518 -1.7447 -1.9837
 2254SOL     OW 7731   2.276   3.420   0.433 -0.4035  0.3400 -0.1445
 2254SOL    HW1 7732   2.291   3.327   0.417  2.3698  0.9858 -1.9025
 2254SOL    HW2 7733   2.184   3.433   0.407 -0.2087 -1.4968 -2.0980
 2255SOL     OW 7734   2.766   5.827   5.692  0.2212 -0.4073 -0.3225
 2255SOL    HW1 7735   2.754   5.734   5.709  3.1844 -1.0871 -1.3470
 2255SOL    HW2 7736   2.822   5.857   5.763 -0.8390  0.6960  0.0953
 2256SOL     OW 7737   0.951   7.151   1.595 -0.2893 -0.2992 -0.1482
 2256SOL    HW1 7738   0.949   7.159   1.690 -1.2090 -0.7492 -0.1230
 2256SOL    HW2 7739   1.042   7.130   1.574 -0.2359 -0.9536  0.7030
 2257SOL     OW 7740   6.805   0.293   5.522  0.2874  0.5119  0.1461
 2257SOL    HW1 7741   6.769   0.269   5.608  2.6593  0.2281  1.1382
 2257SOL    HW2 7742   6.788   0.217   5.467  0.9532 -0.3652  1.1048
 2258SOL     OW 7743   3.949   1.753   0.294 -0.4056  0.2293  0.2500
 2258SOL    HW1 7744   3.948   1.818   0.224 -0.9714  1.3683  1.2684
 2258SOL    HW2 7745   3.876   1.778   0.351 -0.6249 -1.2942  0.6896
 2259SOL     OW 7746   3.899   0.093   7.303  0.5040  0.1885  0.0471
 2259SOL    HW1 7747   3.976   0.118   7.254  0.9193 -1.0453  0.0293
 2259SOL    HW2 7748   3.933   0.047   7.380 -0.2047 -0.3978  0.0233
 2260SOL     OW 7749   6.047   5.990   0.339  1.0035 -0.2400 -0.2070
 2260SOL    HW1 7750   5.961   6.031   0.326  0.3097 -1.9322 -1.2956
 2260SOL    HW2 7751   6.107   6.064   0.349 -0.3256  1.0290 -1.1181
 2261SOL     OW 7752   1.045   6.924   4.515  0.4510  0.5482 -0.7323
 2261SOL    HW1 7753   0.990   6.853   4.547  1.9443 -0.1788  0.3031
 2261SOL    HW2 7754   0.992   7.003   4.529 -0.4530 -0.1595 -0.0560
 2262SOL     OW 7755   7.148   6.958   0.118  0.1928  0.2490  0.5528
 2262SOL    HW1 7756   7.188   7.010   0.187  0.3108  2.4448 -1.0646
 2262SOL    HW2 7757   7.059   6.991   0.110  0.1850  0.0581 -0.3603
 2263SOL     OW 7758   4.264   4.074   1.278 -0.2182  0.3754  0.0960
 2263SOL    HW1 7759   4.339   4.021   1.253 -0.6105  0.0574 -0.4218
 2263SOL    HW2 7760   4.193   4.011   1.288 -0.2638  0.5814  1.2675
 2264SOL     OW 7761   0.451   4.134   2.228  0.2902 -0.2626 -0.1321
 2264SOL    HW1 7762   0.431   4.168   2.141  0.9342 -1.3781 -0.7362
 2264SOL    HW2 7763   0.373   4.082   2.251  0.2456 -0.2145 -0.1735
 2265SOL     OW 7764   1.575   4.453   1.512  0.0245  0.6503  0.2343
 2265SOL    HW1 7765   1.632   4.528   1.530  0.2298  0.8074 -0.9673
 2265SOL    HW2 7766   1.626   4.377   1.541 -0.6613  1.0163  2.5612
 2266SOL     OW 7767   3.923   3.613   2.144  0.2477 -0.4791  0.3123
 2266SOL    HW1 7768   3.832   3.611   2.175  0.0331  0.2207 -0.2576
 2266SOL    HW2 7769   3.971   3.656   2.215  0.1686 -1.0029  0.6897
 2267SOL     OW 7770   3.490   2.281   1.407  0.9747  0.3275 -0.6224
 2267SOL    HW1 7771   3.567   2.228   1.383  0.8665  0.3606 -1.0471
 2267SOL    HW2 7772   3.446   2.298   1.324 -0.2095 -0.7944 -0.2672
 2268SOL     OW 7773   4.761   0.324   0.192 -0.0097 -0.7194  0.3714
 2268SOL    HW1 7774   4.810   0.314   0.110 -0.7463 -0.5455 -0.0968
 2268SOL    HW2 7775   4.757   0.235   0.228  2.5728 -0.4281  1.5702
 2269SOL     OW 7776   0.275   6.214   2.014  0.3257 -0.0267 -0.4215
 2269SOL    HW1 7777   0.332   6.290   2.004  0.6389 -0.3834 -1.4874
 2269SOL    HW2 7778   0.319   6.160   2.080 -0.1872  0.9551  0.7571
 2270SOL     OW 7779   0.260   7.263   6.132  0.1779  0.2572  0.1996
 2270SOL    HW1 7780   0.200   7.285   6.203  0.7477  0.7025  0.5552
 2270SOL    HW2 7781   0.332   7.325   6.141  1.0834 -0.7610  0.2653
 2271SOL     OW 7782   7.342   3.636   5.121 -0.1955  0.4003 -0.0711
 2271SOL    HW1 7783   7.437   3.637   5.121 -0.1900  0.2323 -0.4333
 2271SOL    HW2 7784   7.318   3.639   5.028 -0.4901 -1.8790 -0.1323
 2272SOL     OW 7785   0.414   1.403   1.687 -0.3971 -0.5961 -0.0606
 2272SOL    HW1 7786   0.409   1.322   1.636  0.9973  0.0621 -1.3321
 2272SOL    HW2 7787   0.408   1.375   1.778  1.4872 -2.3017 -0.4018
 2273SOL     OW 7788   4.655   3.098   5.200  0.3010 -0.1670  0.5330
 2273SOL    HW1 7789   4.628   3.074   5.289 -1.3843  2.4761  0.8832
 2273SOL    HW2 7790   4.744   3.131   5.210  0.6311 -1.1523  0.9640
 2274SOL     OW 7791   1.051   5.457   3.275  0.0227  0.2968 -0.0599
 2274SOL    HW1 7792   1.073   5.427   3.187 -1.2752  1.1879 -0.7105
 2274SOL    HW2 7793   1.062   5.380   3.331 -1.6601 -0.9764 -1.4147
 2275SOL     OW 7794   4.744   5.983   2.661  0.2603 -0.3987 -0.4479
 2275SOL    HW1 7795   4.816   5.926   2.636 -0.7814 -1.3509 -1.3978
 2275SOL    HW2 7796   4.756   5.998   2.754  0.8775 -1.7310 -0.2887
 2276SOL     OW 7797   0.167   4.362   4.802  0.0996  0.0650  0.3062
 2276SOL    HW1 7798   0.197   4.445   4.765  0.6795 -0.3449 -0.1578
 2276SOL    HW2 7799   0.124   4.386   4.884  1.1170  0.7314  0.6592
 2277SOL     OW 7800   2.335   6.348   7.164  0.1490 -0.2090  0.2042
 2277SOL    HW1 7801   2.384   6.411   7.110 -0.2670 -1.2990 -1.4934
 2277SOL    HW2 7802   2.403   6.294   7.205  0.4316 -0.0317 -0.0259
 2278SOL     OW 7803   7.259   6.869   2.310  0.2734  0.6058 -0.2139
 2278SOL    HW1 7804   7.229   6.950   2.349 -0.0960  0.2301  0.2969
 2278SOL    HW2 7805   7.347   6.888   2.277  0.2783  1.1398  0.1096
 2279SOL     OW 7806   3.093   2.290   0.401  0.0016  0.0410  0.3791
 2279SOL    HW1 7807   3.063   2.380   0.391  0.4021  0.1051 -0.3301
 2279SOL    HW2 7808   3.014   2.241   0.424 -0.0462  0.7195  1.7702
 2280SOL     OW 7809   2.793   5.378   6.491  0.1408 -0.0912  0.4097
 2280SOL    HW1 7810   2.869   5.335   6.452 -0.2392 -0.9139  0.5373
 2280SOL    HW2 7811   2.811   5.379   6.585 -0.8493 -2.1569  0.6977
 2281SOL     OW 7812   6.573   0.607   0.780  0.1395  0.0783  0.3374
 2281SOL    HW1 7813   6.524   0.535   0.743 -0.6219  0.1264  1.2082
 2281SOL    HW2 7814   6.551   0.682   0.725  2.2786 -0.6277 -1.6526
 2282SOL     OW 7815   1.868   2.253   5.844  0.2604  0.1334 -0.0554
 2282SOL    HW1 7816   1.908   2.212   5.767 -0.3256 -0.9159  0.1685
 2282SOL    HW2 7817   1.872   2.347   5.827  0.8016 -0.0576 -1.0304
 2283SOL     OW 7818   6.303   4.655   5.738 -0.1051 -0.3055 -0.0208
 2283SOL    HW1 7819   6.252   4.731   5.711  0.0381 -0.4358 -0.6616
 2283SOL    HW2 7820   6.293   4.653   5.833 -1.3635 -0.3707 -0.1390
 2284SOL     OW 7821   2.375   0.395   6.134  0.2686 -0.0014  0.2617
 2284SOL    HW1 7822   2.358   0.312   6.177 -1.4656 -0.0268 -0.4001
 2284SOL    HW2 7823   2.332   0.460   6.188  0.3106  0.2863 -0.0445
 2285SOL     OW 7824   1.027   5.631   3.747 -0.2390 -0.1451 -0.7082
 2285SOL    HW1 7825   1.009   5.543   3.712  1.5289 -1.6147  1.7356
 2285SOL    HW2 7826   0.961   5.642   3.816  0.7988 -0.5203  0.3877
 2286SOL     OW 7827   3.397   1.784   1.297 -0.1417  0.4199  0.3261
 2286SOL    HW1 7828   3.398   1.689   1.302  1.0254  0.4072  0.2070
 2286SOL    HW2 7829   3.401   1.814   1.388 -0.7201  0.3601  0.3727
 2287SOL     OW 7830   4.860   3.167   6.485 -0.0412 -0.0251 -0.3088
 2287SOL    HW1 7831   4.823   3.214   6.411  3.0932  1.0016 -1.3736
 2287SOL    HW2 7832   4.867   3.077   6.456  0.5415  0.2427 -1.0006
 2288SOL     OW 7833   5.527   0.209   3.318 -0.7395 -0.0459 -0.1757
 2288SOL    HW1 7834   5.525   0.114   3.326  0.7883  0.0265  1.7742
 2288SOL    HW2 7835   5.449   0.231   3.267 -1.0019 -2.3360 -0.8422
 2289SOL     OW 7836   1.395   5.953   6.569 -0.0321  0.2555 -0.2363
 2289SOL    HW1 7837   1.322   6.015   6.573 -1.1043 -1.0228  0.4125
 2289SOL    HW2 7838   1.472   6.009   6.557 -1.1696  1.6001 -1.9592
 2290SOL     OW 7839   5.021   6.003   0.819 -0.5561  0.3375 -0.0182
 2290SOL    HW1 7840   4.933   6.012   0.782 -0.2334  0.2812 -0.8122
 2290SOL    HW2 7841   5.074   6.067   0.772 -0.1918  0.4596  0.5471
 2291SOL     OW 7842   5.153   2.725   1.995  0.4102  0.8803  0.5927
 2291SOL    HW1 7843   5.155   2.713   2.090  0.2635  0.2594  0.5183
 2291SOL    HW2 7844   5.128   2.640   1.960  0.1602  1.1875  0.0106
 2292SOL     OW 7845   5.379   3.479   5.532  0.0461  0.3351  0.0338
 2292SOL    HW1 7846   5.315   3.487   5.603  0.4484  0.0712  0.4293
 2292SOL    HW2 7847   5.461   3.508   5.570  0.9457 -2.6606  0.6638
 2293SOL     OW 7848   4.574   0.103   4.604 -0.4175  0.1556  0.1808
 2293SOL    HW1 7849   4.488   0.060   4.607 -0.4329  0.0818 -0.9868
 2293SOL    HW2 7850   4.554   0.195   4.590 -0.3034 -0.1060 -2.0680
 2294SOL     OW 7851   0.462   2.883   1.648 -0.3921 -0.1198 -0.4078
 2294SOL    HW1 7852   0.476   2.849   1.736 -0.2155  1.4531  0.2085
 2294SOL    HW2 7853   0.484   2.976   1.654 -2.6460  0.5656 -1.5342
 2295SOL     OW 7854   3.908   3.335   2.365 -0.0369 -0.5146  0.2510
 2295SOL    HW1 7855   3.941   3.410   2.415  0.5727 -0.8094  0.2973
 2295SOL    HW2 7856   3.984   3.304   2.316 -0.1742 -1.3780  0.5738
 2296SOL     OW 7857   4.517   5.056   4.525  0.6249  0.0195 -0.4081
 2296SOL    HW1 7858   4.456   5.072   4.452 -1.6116  0.3897  1.4138
 2296SOL    HW2 7859   4.467   5.003   4.587  1.7938  1.1527  1.6281
 2297SOL     OW 7860   6.524   1.737   7.232  0.3314 -0.3487  0.3985
 2297SOL    HW1 7861   6.457   1.669   7.238 -0.1016  0.1479  1.4954
 2297SOL    HW2 7862   6.506   1.781   7.149 -1.1054  0.1615  0.9475
 2298SOL     OW 7863   5.919   1.901   5.410  0.1528 -0.4916 -0.5298
 2298SOL    HW1 7864   5.975   1.892   5.487 -0.9024 -1.3469  0.1673
 2298SOL    HW2 7865   5.844   1.952   5.440 -0.2781 -0.8522 -0.9732
 2299SOL     OW 7866   6.773   7.032   6.196  0.3413 -0.3316 -0.0397
 2299SOL    HW1 7867   6.828   7.012   6.271 -0.6245 -0.2982  0.6948
 2299SOL    HW2 7868   6.834   7.064   6.129  1.1077  0.6682  1.0977
 2300SOL     OW 7869   6.626   2.461   0.403  0.2288  0.0477 -0.6192
 2300SOL    HW1 7870   6.716   2.441   0.377  0.0826  0.6417 -1.6535
 2300SOL    HW2 7871   6.572   2.408   0.345 -0.0984  0.4276 -0.6662
 2301SOL     OW 7872   5.217   1.647   4.876  0.1899 -0.4996 -0.3744
 2301SOL    HW1 7873   5.136   1.698   4.877  0.7698  0.4281 -0.2433
 2301SOL    HW2 7874   5.239   1.640   4.783  0.3136 -0.1800 -0.3703
 2302SOL     OW 7875   4.928   6.293   3.615 -0.2722 -0.3688 -0.1357
 2302SOL    HW1 7876   4.952   6.214   3.567  0.5107 -0.9694  1.1906
 2302SOL    HW2 7877   4.977   6.363   3.574  1.1664 -1.0364  0.3862
 2303SOL     OW 7878   1.419   2.007   4.492  0.0100 -0.5693  0.1717
 2303SOL    HW1 7879   1.357   1.965   4.432 -0.7128  0.6832  0.0049
 2303SOL    HW2 7880   1.365   2.060   4.550  0.8806  0.1483  0.3549
 2304SOL     OW 7881   2.550   0.906   6.394 -0.2397 -0.9935 -0.0594
 2304SOL    HW1 7882   2.635   0.939   6.423 -0.7756 -0.3032  0.7738
 2304SOL    HW2 7883   2.534   0.831   6.450 -1.8032  1.0154  2.4002
 2305SOL     OW 7884   6.093   5.243   3.437 -0.2501  0.2945  0.0941
 2305SOL    HW1 7885   6.011   5.288   3.416 -1.1919 -1.3498  0.0930
 2305SOL    HW2 7886   6.137   5.300   3.501 -1.8950  0.7056  0.8976
 2306SOL     OW 7887   5.840   4.061   5.548 -0.2099 -0.3564  0.2962
 2306SOL    HW1 7888   5.888   4.085   5.468 -1.4991  1.1260 -0.0896
 2306SOL    HW2 7889   5.811   3.971   5.533 -2.7968  0.7217 -2.2138
 2307SOL     OW 7890   4.333   5.132   6.981 -0.5769  0.1197 -0.2113
 2307SOL    HW1 7891   4.285   5.055   7.010 -0.1921  0.2279  0.7392
 2307SOL    HW2 7892   4.345   5.184   7.060  1.0380  0.1293 -0.4389
 2308SOL     OW 7893   1.038   0.229   1.166 -0.6013  0.1598  0.0938
 2308SOL    HW1 7894   1.024   0.312   1.121  1.0493  0.6846  0.4699
 2308SOL    HW2 7895   1.010   0.246   1.256  0.4982  0.5839  0.3684
 2309SOL     OW 7896   1.997   6.735   4.388 -0.3154  0.2953 -0.1534
 2309SOL    HW1 7897   2.052   6.657   4.379  0.8180  1.0920 -0.4108
 2309SOL    HW2 7898   2.021   6.790   4.314 -1.1031  0.8938  0.0193
 2310SOL     OW 7899   5.349   3.458   7.096  0.2910 -0.4586 -0.5865
 2310SOL    HW1 7900   5.382   3.515   7.027  1.4710 -1.8505 -1.2297
 2310SOL    HW2 7901   5.428   3.424   7.138 -0.3820 -1.3648 -0.0225
 2311SOL     OW 7902   4.122   1.897   6.607 -0.2604 -0.1270 -0.4970
 2311SOL    HW1 7903   4.162   1.840   6.672  0.8666 -0.7701 -1.6981
 2311SOL    HW2 7904   4.038   1.922   6.645  0.5199 -0.1491  1.3569
 2312SOL     OW 7905   1.719   6.187   3.439 -0.0005  0.2292  0.2579
 2312SOL    HW1 7906   1.678   6.101   3.440 -2.3468  1.2845  0.8586
 2312SOL    HW2 7907   1.787   6.181   3.507 -0.0894 -1.1353  0.2679
 2313SOL     OW 7908   5.150   4.170   6.936  0.1255  0.2027 -0.0643
 2313SOL    HW1 7909   5.201   4.242   6.973  0.5273  0.1128 -0.4376
 2313SOL    HW2 7910   5.060   4.203   6.933  0.4420  1.0104 -1.0290
 2314SOL     OW 7911   7.325   4.913   1.729 -0.0080  0.2025  0.4276
 2314SOL    HW1 7912   7.281   4.837   1.768 -0.3479 -0.1558 -0.6142
 2314SOL    HW2 7913   7.417   4.903   1.754 -0.0226 -0.6452  0.1734
 2315SOL     OW 7914   4.210   2.151   6.145  0.2399 -0.0180 -0.3695
 2315SOL    HW1 7915   4.130   2.134   6.094 -0.7993  0.2678  1.1094
 2315SOL    HW2 7916   4.205   2.091   6.219  1.8113 -0.5407 -0.6482
 2316SOL     OW 7917   1.086   1.980   1.787  0.0565 -0.3811  0.3967
 2316SOL    HW1 7918   0.996   1.974   1.819  0.4150  0.2712  1.6164
 2316SOL    HW2 7919   1.085   2.054   1.727 -0.0628  0.1955  1.0850
 2317SOL     OW 7920   6.152   0.796   7.203 -0.6117  0.4383  0.1239
 2317SOL    HW1 7921   6.227   0.818   7.147 -0.8322 -0.1650 -0.4233
 2317SOL    HW2 7922   6.083   0.857   7.176 -0.2458  1.1816  0.8207
 2318SOL     OW 7923   4.488   1.753   7.342 -0.0620  0.1959 -0.2019
 2318SOL    HW1 7924   4.407   1.760   7.392 -0.4932  0.3996 -0.8979
 2318SOL    HW2 7925   4.505   1.843   7.313  0.9390  0.3211  0.7284
 2319SOL     OW 7926   5.388   2.993   1.896  0.0150 -0.4495 -0.5147
 2319SOL    HW1 7927   5.296   2.984   1.921  0.3990  0.8631  1.6291
 2319SOL    HW2 7928   5.387   2.985   1.800 -2.1457 -1.5894 -0.4757
 2320SOL     OW 7929   0.677   2.414   2.897  0.0270  0.8081 -0.4427
 2320SOL    HW1 7930   0.680   2.353   2.971  0.8945  0.0203 -1.1104
 2320SOL    HW2 7931   0.762   2.405   2.855 -0.5670  1.0247 -1.7267
 2321SOL     OW 7932   0.152   2.752   4.521  0.0594  0.3788  0.0180
 2321SOL    HW1 7933   0.150   2.668   4.476  2.3172 -0.4887  1.3426
 2321SOL    HW2 7934   0.200   2.810   4.461  0.8405 -0.0609  0.2028
 2322SOL     OW 7935   6.047   3.778   4.324  0.1012  0.3049  0.3791
 2322SOL    HW1 7936   5.977   3.718   4.296 -0.2198 -0.1291  1.9990
 2322SOL    HW2 7937   6.017   3.864   4.296 -1.6230  0.2619  1.9235
 2323SOL     OW 7938   0.605   4.362   2.310  0.2341 -0.0897  0.5066
 2323SOL    HW1 7939   0.559   4.280   2.294  0.3727 -0.1471  0.4021
 2323SOL    HW2 7940   0.541   4.430   2.287 -0.6013 -0.1198  2.4881
 2324SOL     OW 7941   3.208   4.233   1.193  0.5899 -0.4695  0.1317
 2324SOL    HW1 7942   3.182   4.190   1.112 -0.9338 -0.0055  0.3502
 2324SOL    HW2 7943   3.194   4.326   1.177  1.6119 -0.2473  0.4632
 2325SOL     OW 7944   4.053   3.420   1.520 -0.3956 -0.4209  0.1244
 2325SOL    HW1 7945   4.117   3.391   1.455 -0.5150  1.3073 -0.8149
 2325SOL    HW2 7946   4.025   3.339   1.563  0.5455 -1.4856 -1.1707
 2326SOL     OW 7947   2.367   1.134   6.044  0.4852 -0.3588 -0.0214
 2326SOL    HW1 7948   2.292   1.174   6.089 -0.2775 -0.8729 -0.8022
 2326SOL    HW2 7949   2.416   1.209   6.009  1.5055  0.1072  2.2178
 2327SOL     OW 7950   3.444   6.199   2.874  0.1124 -0.2135 -0.3521
 2327SOL    HW1 7951   3.379   6.183   2.943 -0.2202  0.0142 -0.6095
 2327SOL    HW2 7952   3.455   6.294   2.875  1.7756 -0.3788  0.9001
 2328SOL     OW 7953   2.265   2.437   5.710 -0.1888 -0.0688 -0.1482
 2328SOL    HW1 7954   2.305   2.353   5.729  0.5268  0.3559  0.2884
 2328SOL    HW2 7955   2.294   2.457   5.620  0.9771  0.4355  0.3171
 2329SOL     OW 7956   4.300   0.223   5.410 -0.1342 -0.3113  0.5680
 2329SOL    HW1 7957   4.252   0.148   5.443 -1.1984  0.3852  0.6528
 2329SOL    HW2 7958   4.379   0.186   5.370 -1.5338 -1.6522 -1.0713
 2330SOL     OW 7959   6.498   4.872   1.283 -0.0564  0.0808  0.0354
 2330SOL    HW1 7960   6.427   4.854   1.222 -0.1352  0.7982 -0.0871
 2330SOL    HW2 7961   6.474   4.954   1.325  0.5227  0.1440  0.2535
 2331SOL     OW 7962   4.999   6.104   4.001 -0.0066 -0.3981 -0.1783
 2331SOL    HW1 7963   5.059   6.115   3.927 -0.0246 -0.5282 -0.2116
 2331SOL    HW2 7964   5.046   6.047   4.062  0.5369  0.7193  0.4886
 2332SOL     OW 7965   1.182   4.487   5.221  0.2204 -0.0489 -0.2644
 2332SOL    HW1 7966   1.132   4.563   5.190 -0.1709 -0.1247  0.1623
 2332SOL    HW2 7967   1.256   4.525   5.269 -0.8906  0.0972  1.4209
 2333SOL     OW 7968   3.666   4.511   6.591  0.3901 -0.2129 -0.4359
 2333SOL    HW1 7969   3.670   4.606   6.600  2.0509 -0.4115  1.6162
 2333SOL    HW2 7970   3.757   4.483   6.586 -0.0776 -1.6969 -1.1498
 2334SOL     OW 7971   0.520   4.007   5.673 -0.1311  0.2073  0.4056
 2334SOL    HW1 7972   0.471   3.982   5.595  1.0554 -0.7829 -0.0663
 2334SOL    HW2 7973   0.609   4.023   5.641  0.9917 -2.5141  1.8330
 2335SOL     OW 7974   3.549   4.065   5.970  0.8575  0.4005 -0.0875
 2335SOL    HW1 7975   3.517   4.091   6.056  0.0043  2.0778 -0.8704
 2335SOL    HW2 7976   3.619   4.126   5.951  0.9029  0.1696 -0.6701
 2336SOL     OW 7977   5.397   5.060   6.628  0.5092  0.1391  0.4784
 2336SOL    HW1 7978   5.381   4.972   6.663  0.3467  0.7624  2.0740
 2336SOL    HW2 7979   5.404   5.048   6.533 -0.5767 -1.4388  0.5632
 2337SOL     OW 7980   4.964   6.926   2.758 -0.2966  0.2941  0.7844
 2337SOL    HW1 7981   4.976   6.878   2.676  0.3765  0.0669  1.0119
 2337SOL    HW2 7982   4.914   7.004   2.733 -2.2651 -0.9591  0.5550
 2338SOL     OW 7983   3.600   5.621   0.978 -0.2933  0.2326 -0.0320
 2338SOL    HW1 7984   3.583   5.619   1.072 -0.7769 -1.0888 -0.1226
 2338SOL    HW2 7985   3.527   5.572   0.939 -0.2107  0.9381 -1.1143
 2339SOL     OW 7986   7.168   5.851   2.709  0.7159 -0.0834 -0.8478
 2339SOL    HW1 7987   7.148   5.842   2.616  0.2414 -1.5313 -0.6388
 2339SOL    HW2 7988   7.083   5.863   2.751  0.8903  0.1739 -0.5605
 2340SOL     OW 7989   0.930   2.680   0.841 -0.1760 -0.1923  0.1797
 2340SOL    HW1 7990   1.022   2.682   0.815 -0.3848 -3.0545 -1.0786
 2340SOL    HW2 7991   0.887   2.746   0.785  1.0596  1.2408  0.8534
 2341SOL     OW 7992   4.059   4.756   5.604 -0.6196  0.0051  0.1019
 2341SOL    HW1 7993   4.044   4.723   5.515 -0.2715  1.1932 -0.4219
 2341SOL    HW2 7994   3.991   4.822   5.617  0.0582  0.6927  0.2388
 2342SOL     OW 7995   4.408   0.113   2.763  0.7076 -0.4567 -0.1609
 2342SOL    HW1 7996   4.358   0.162   2.697 -0.4171 -0.2177  0.8296
 2342SOL    HW2 7997   4.368   0.138   2.846  2.6628 -0.0556  0.7184
 2343SOL     OW 7998   7.035   0.057   5.555  0.2698 -0.1938 -0.4079
 2343SOL    HW1 7999   7.000   0.027   5.638  1.5433  0.8126  0.5393
 2343SOL    HW2 8000   6.960   0.057   5.496 -0.8435 -0.1532  0.9510
 2344SOL     OW 8001   3.270   4.893   2.681  0.2282 -0.2569 -0.1339
 2344SOL    HW1 8002   3.255   4.827   2.749  1.9792 -0.7372 -0.1556
 2344SOL    HW2 8003   3.183   4.914   2.648 -0.4599 -1.7513  0.6313
 2345SOL     OW 8004   6.392   1.391   5.671 -0.4787  0.7810 -0.0216
 2345SOL    HW1 8005   6.342   1.310   5.681 -0.2369  0.7626  1.2977
 2345SOL    HW2 8006   6.471   1.365   5.624 -0.0968  0.0925  0.9550
 2346SOL     OW 8007   2.214   3.768   5.045  0.7047 -0.2382 -0.0903
 2346SOL    HW1 8008   2.293   3.818   5.024  0.4495  0.7044  1.1132
 2346SOL    HW2 8009   2.245   3.697   5.101  0.7403  0.0180  0.2210
 2347SOL     OW 8010   3.496   2.674   0.408  0.0093 -0.0750  0.5981
 2347SOL    HW1 8011   3.445   2.621   0.347  1.1333  0.0649 -0.5247
 2347SOL    HW2 8012   3.554   2.612   0.451  0.0408 -0.0084  0.6519
 2348SOL     OW 8013   5.179   6.286   5.278 -0.7809 -0.2197 -0.2131
 2348SOL    HW1 8014   5.142   6.197   5.279  1.2524 -1.1313 -0.8418
 2348SOL    HW2 8015   5.264   6.276   5.321 -1.3468  1.8692  1.5513
 2349SOL     OW 8016   4.520   6.282   0.223 -0.1836  0.0887 -0.0622
 2349SOL    HW1 8017   4.615   6.288   0.238  0.0202  0.3160 -1.3519
 2349SOL    HW2 8018   4.501   6.351   0.159 -1.1911 -0.1034  0.0108
 2350SOL     OW 8019   2.002   4.266   4.665  0.4423 -0.2300 -0.6402
 2350SOL    HW1 8020   1.931   4.207   4.642 -2.1702  2.1376  0.6360
 2350SOL    HW2 8021   2.081   4.213   4.660 -1.6696 -3.7790  0.3746
 2351SOL     OW 8022   6.902   0.583   3.119 -0.0422 -0.2530  0.4926
 2351SOL    HW1 8023   6.810   0.599   3.099 -0.3091 -0.7879  1.2672
 2351SOL    HW2 8024   6.949   0.617   3.043 -0.7543  1.5299  0.8126
 2352SOL     OW 8025   4.461   7.312   5.771  0.0697  0.2638  0.2331
 2352SOL    HW1 8026   4.514   7.378   5.726 -0.8862  0.2506 -0.9607
 2352SOL    HW2 8027   4.522   7.240   5.788  0.8695  1.0025  0.5879
 2353SOL     OW 8028   5.042   6.101   0.196 -0.0595 -0.0182  0.2919
 2353SOL    HW1 8029   5.006   6.133   0.279  1.2262 -2.1873  1.7944
 2353SOL    HW2 8030   4.966   6.092   0.139 -1.0508  1.0707  1.3696
 2354SOL     OW 8031   2.971   2.175   5.977  0.0143  0.1075 -0.1237
 2354SOL    HW1 8032   2.965   2.205   6.068 -0.5708  0.7027 -0.3492
 2354SOL    HW2 8033   2.972   2.256   5.926  0.4866 -0.2231 -0.6398
 2355SOL     OW 8034   0.336   2.394   0.996 -0.1897  0.0725 -0.0544
 2355SOL    HW1 8035   0.317   2.397   0.902  0.4911 -0.4064 -0.2144
 2355SOL    HW2 8036   0.284   2.321   1.028 -2.1239  1.5392  0.3704
 2356SOL     OW 8037   1.952   4.973   2.048 -0.1885  0.0604 -0.1145
 2356SOL    HW1 8038   1.951   4.916   1.971  0.4176 -0.0208 -0.0637
 2356SOL    HW2 8039   1.889   5.043   2.027 -0.4095 -0.2435 -0.4639
 2357SOL     OW 8040   3.479   0.158   6.192  0.0442  0.2154 -0.0729
 2357SOL    HW1 8041   3.418   0.232   6.190 -0.4144 -0.1688 -1.0210
 2357SOL    HW2 8042   3.492   0.140   6.285 -1.8935 -0.1608  0.1591
 2358SOL     OW 8043   5.322   5.125   5.396  0.2242  0.2675  0.2243
 2358SOL    HW1 8044   5.273   5.204   5.419  0.4371  0.4832 -0.0490
 2358SOL    HW2 8045   5.380   5.109   5.470  0.1903  0.3740  0.2734
 2359SOL     OW 8046   0.278   2.605   6.559 -0.1987  0.2368 -0.1114
 2359SOL    HW1 8047   0.246   2.680   6.510 -0.6018  0.4728  0.4958
 2359SOL    HW2 8048   0.355   2.637   6.606  0.3133 -0.0461 -0.7488
 2360SOL     OW 8049   6.203   2.190   4.116  0.6599 -0.1968 -0.3752
 2360SOL    HW1 8050   6.248   2.216   4.036  0.7522 -0.6328 -0.4663
 2360SOL    HW2 8051   6.169   2.102   4.098  1.0562 -0.4812  0.2128
 2361SOL     OW 8052   0.560   5.402   1.574 -0.0161  0.4230  0.1143
 2361SOL    HW1 8053   0.581   5.446   1.656 -1.9280  6.2722 -2.0562
 2361SOL    HW2 8054   0.470   5.372   1.585  0.0883  0.2423  0.4897
 2362SOL     OW 8055   2.119   1.020   0.831  0.0484 -0.2702 -0.3545
 2362SOL    HW1 8056   2.161   0.955   0.887 -2.1271 -1.9733 -0.5329
 2362SOL    HW2 8057   2.100   0.972   0.750 -5.8245 -1.2131  1.0883
 2363SOL     OW 8058   4.730   7.018   4.891 -0.0591  0.4093 -0.3348
 2363SOL    HW1 8059   4.732   6.992   4.799  0.4902 -0.1534 -0.1784
 2363SOL    HW2 8060   4.811   6.981   4.927 -0.5045  0.2046  0.4787
 2364SOL     OW 8061   7.273   1.933   7.046  0.7385  0.1448 -0.2057
 2364SOL    HW1 8062   7.309   1.879   6.976  1.3833  1.4233 -0.8848
 2364SOL    HW2 8063   7.203   1.879   7.085  1.8248 -1.4350 -0.3829
 2365SOL     OW 8064   1.086   5.901   0.067 -0.9801 -0.5475  0.1401
 2365SOL    HW1 8065   1.150   5.929   0.133  1.6795 -3.0613 -1.1073
 2365SOL    HW2 8066   1.028   5.841   0.114 -0.6823 -0.3882  0.7237
 2366SOL     OW 8067   5.606   0.871   6.589  0.0453  0.2158 -0.0856
 2366SOL    HW1 8068   5.537   0.918   6.635  0.3964 -0.2538  0.9540
 2366SOL    HW2 8069   5.679   0.933   6.585 -0.8452  1.1872 -2.3669
 2367SOL     OW 8070   0.808   4.969   7.368 -0.5491 -0.0100  0.5963
 2367SOL    HW1 8071   0.725   4.935   7.401  0.0086 -2.3063 -0.1728
 2367SOL    HW2 8072   0.822   4.923   7.286  0.8133  1.4102 -0.0288
 2368SOL     OW 8073   0.850   0.930   5.541 -0.0843  0.1712 -0.3091
 2368SOL    HW1 8074   0.856   0.964   5.630  1.7027 -0.6049 -0.1011
 2368SOL    HW2 8075   0.939   0.935   5.507 -0.6445 -0.0195 -1.8852
 2369SOL     OW 8076   4.371   7.149   5.405 -0.1072 -0.4557 -0.0947
 2369SOL    HW1 8077   4.383   7.176   5.314 -1.5417  0.5909 -0.0155
 2369SOL    HW2 8078   4.349   7.231   5.451  0.8816 -0.9100  1.2640
 2370SOL     OW 8079   1.693   2.607   0.478 -0.0953 -0.1813 -0.0718
 2370SOL    HW1 8080   1.724   2.520   0.504  0.5455 -0.3546 -1.3543
 2370SOL    HW2 8081   1.652   2.594   0.393 -0.9426  0.6063  0.1968
 2371SOL     OW 8082   1.375   0.702   3.874  0.3512  0.0637 -0.2080
 2371SOL    HW1 8083   1.383   0.793   3.845 -2.1465 -0.2099 -2.1434
 2371SOL    HW2 8084   1.378   0.706   3.969 -0.8720  2.3526 -0.2025
 2372SOL     OW 8085   1.315   6.392   5.791 -0.6929  0.3524  0.6207
 2372SOL    HW1 8086   1.241   6.410   5.848 -0.2800  0.3188  1.1824
 2372SOL    HW2 8087   1.391   6.428   5.838 -0.1399 -0.9775  0.8071
 2373SOL     OW 8088   3.330   3.437   3.233 -0.2674  0.2240  0.2010
 2373SOL    HW1 8089   3.384   3.428   3.154  0.0573  0.3711  0.4031
 2373SOL    HW2 8090   3.274   3.359   3.233 -0.9226  0.6638 -0.6658
 2374SOL     OW 8091   1.965   7.033   2.012  0.5518 -0.3883  0.2332
 2374SOL    HW1 8092   1.921   7.059   1.931 -0.6355 -1.0147  0.6430
 2374SOL    HW2 8093   1.957   6.938   2.014  0.5893 -0.3805  1.0581
 2375SOL     OW 8094   5.963   6.038   4.308 -0.3564 -0.1499 -0.0663
 2375SOL    HW1 8095   5.899   6.096   4.349  0.0888 -0.3875  1.0001
 2375SOL    HW2 8096   5.940   6.039   4.215 -1.6384  0.1040  0.2286
 2376SOL     OW 8097   6.194   4.270   3.164  0.2860  0.1942  0.2133
 2376SOL    HW1 8098   6.194   4.293   3.071 -0.2203 -0.3408  0.0731
 2376SOL    HW2 8099   6.119   4.317   3.201  1.1250  1.2844  0.5936
 2377SOL     OW 8100   0.201   4.824   6.165 -0.0259 -0.1217 -0.3083
 2377SOL    HW1 8101   0.183   4.738   6.127  0.4762 -1.0064  1.3368
 2377SOL    HW2 8102   0.190   4.811   6.259 -0.3173  1.7344 -0.0478
 2378SOL     OW 8103   2.587   0.724   2.860 -0.2541  0.1604 -0.3365
 2378SOL    HW1 8104   2.659   0.718   2.923 -0.3303  0.1083 -0.2545
 2378SOL    HW2 8105   2.629   0.718   2.774 -0.2352 -0.6330 -0.2787
 2379SOL     OW 8106   0.334   6.235   6.601 -0.0875  0.2542  0.0646
 2379SOL    HW1 8107   0.314   6.180   6.677  1.8117 -0.5479  0.0400
 2379SOL    HW2 8108   0.311   6.323   6.629  0.6168 -0.0202  1.6195
 2380SOL     OW 8109   6.873   6.823   0.246 -0.5726 -0.2668  0.4292
 2380SOL    HW1 8110   6.939   6.769   0.203 -0.2528  0.1766  0.3524
 2380SOL    HW2 8111   6.922   6.874   0.311 -0.5829  1.1025 -0.5814
 2381SOL     OW 8112   2.596   6.108   0.825 -0.5010 -0.2012  0.1205
 2381SOL    HW1 8113   2.512   6.123   0.868 -1.2445  0.9564 -1.6145
 2381SOL    HW2 8114   2.588   6.153   0.741  1.5338 -0.8422 -0.4715
 2382SOL     OW 8115   1.721   7.361   1.387 -0.3314 -0.0851  0.3012
 2382SOL    HW1 8116   1.701   7.309   1.309  0.6898  0.3611 -0.2683
 2382SOL    HW2 8117   1.646   7.421   1.396 -1.2015 -1.1732  0.5877
 2383SOL     OW 8118   3.277   5.703   6.197 -0.3490  0.7100  0.0554
 2383SOL    HW1 8119   3.309   5.647   6.127 -3.8947 -1.1284 -0.3050
 2383SOL    HW2 8120   3.237   5.643   6.260  0.9662  2.4693  2.7804
 2384SOL     OW 8121   2.568   2.011   1.449 -0.3818  0.5541  1.1658
 2384SOL    HW1 8122   2.490   2.068   1.451 -0.8276  0.0060  0.0149
 2384SOL    HW2 8123   2.637   2.068   1.416 -0.9883  0.2815 -0.6753
 2385SOL     OW 8124   6.561   5.452   4.988  0.1171  0.2027 -0.4244
 2385SOL    HW1 8125   6.491   5.468   5.052  1.1923  0.7550  0.6640
 2385SOL    HW2 8126   6.555   5.524   4.926  0.8964  1.3539  0.7744
 2386SOL     OW 8127   2.319   2.931   4.322 -0.1019  0.2191 -0.0219
 2386SOL    HW1 8128   2.327   2.882   4.405  0.6402  0.7485  0.2311
 2386SOL    HW2 8129   2.291   2.865   4.259 -0.4808 -0.2411  0.6091
 2387SOL     OW 8130   1.977   5.900   1.709  0.0165  0.2504 -0.2541
 2387SOL    HW1 8131   2.019   5.873   1.790  1.9772  0.0713 -1.2607
 2387SOL    HW2 8132   2.012   5.988   1.692 -2.3637  1.4095  0.3622
 2388SOL     OW 8133   6.075   5.430   7.078  0.8465  0.3100  0.4437
 2388SOL    HW1 8134   6.162   5.409   7.042  0.5915 -0.3792  0.2048
 2388SOL    HW2 8135   6.089   5.435   7.173  1.5858  2.4203  0.2691
 2389SOL     OW 8136   2.157   3.792   0.785  0.1024 -0.4223  0.3487
 2389SOL    HW1 8137   2.140   3.726   0.717  0.9715  0.3708 -0.6661
 2389SOL    HW2 8138   2.074   3.840   0.792  0.3541  0.2415 -1.0017
 2390SOL     OW 8139   3.839   6.352   3.479  0.0809 -0.3084  0.1758
 2390SOL    HW1 8140   3.865   6.319   3.565  0.3322  0.2368  0.3095
 2390SOL    HW2 8141   3.838   6.274   3.423  0.6187 -0.5521  0.5008
 2391SOL     OW 8142   5.861   2.614   2.513  0.5832 -0.0888  0.4608
 2391SOL    HW1 8143   5.835   2.692   2.563  0.2080  0.7436 -0.9718
 2391SOL    HW2 8144   5.956   2.609   2.525  0.5469  0.2892  0.9672
 2392SOL     OW 8145   7.133   2.772   3.066  0.1131 -0.3467  0.4196
 2392SOL    HW1 8146   7.112   2.731   3.150 -0.1520 -0.1531  0.4510
 2392SOL    HW2 8147   7.146   2.699   3.006  2.3410 -0.5759  1.0710
 2393SOL     OW 8148   5.892   1.350   5.351 -0.1390  0.0193  0.3505
 2393SOL    HW1 8149   5.805   1.316   5.329 -0.4841 -0.1350  1.8293
 2393SOL    HW2 8150   5.921   1.396   5.272 -1.9316  0.7995  0.1025
 2394SOL     OW 8151   6.369   4.729   3.993 -0.0191  0.7309 -0.1008
 2394SOL    HW1 8152   6.352   4.642   4.029 -2.4228  1.3279  0.3286
 2394SOL    HW2 8153   6.450   4.757   4.037  1.6073 -1.7489 -1.2488
 2395SOL     OW 8154   4.768   5.201   6.295 -0.4088  0.3821  0.5978
 2395SOL    HW1 8155   4.817   5.280   6.272  0.2514  0.4514  2.0770
 2395SOL    HW2 8156   4.836   5.136   6.317 -0.9104  0.4596  2.6245
 2396SOL     OW 8157   3.990   3.370   0.805  0.5544 -0.0985 -0.3694
 2396SOL    HW1 8158   3.964   3.418   0.884 -3.5286  0.3500 -1.7303
 2396SOL    HW2 8159   4.046   3.300   0.837 -0.4465  0.3767  2.8536
 2397SOL     OW 8160   5.930   5.158   6.957  0.0309  0.3028 -0.3017
 2397SOL    HW1 8161   5.916   5.122   7.044  1.1206 -0.2562 -0.3369
 2397SOL    HW2 8162   5.988   5.233   6.971 -0.5483  0.7838 -0.4522
 2398SOL     OW 8163   4.748   3.376   4.938  0.3149 -0.2506  0.8662
 2398SOL    HW1 8164   4.657   3.402   4.923  0.3931  0.0902  0.9784
 2398SOL    HW2 8165   4.773   3.421   5.019  0.9734  0.6574  0.1803
 2399SOL     OW 8166   1.861   0.856   2.281 -0.5778  0.0692  0.1749
 2399SOL    HW1 8167   1.871   0.765   2.251  2.0321  0.0190  0.8784
 2399SOL    HW2 8168   1.794   0.893   2.225  0.5412 -1.4299 -2.3169
 2400SOL     OW 8169   0.891   5.818   3.071  0.7734 -0.0313 -0.1211
 2400SOL    HW1 8170   0.934   5.795   3.154  0.1676  0.7386  0.4305
 2400SOL    HW2 8171   0.941   5.892   3.037 -0.2311  1.0490  0.6645
 2401SOL     OW 8172   2.048   2.816   4.705  0.6652 -0.7677  0.2540
 2401SOL    HW1 8173   2.048   2.788   4.796 -0.5806  0.4303  0.6511
 2401SOL    HW2 8174   2.128   2.868   4.696  0.3733 -0.2056  0.8886
 2402SOL     OW 8175   3.801   5.871   3.004  0.0729  0.1934 -0.2778
 2402SOL    HW1 8176   3.739   5.935   2.969 -0.5365 -0.9108 -1.2481
 2402SOL    HW2 8177   3.747   5.804   3.045  0.7400  1.1374  2.3861
 2403SOL     OW 8178   4.731   6.057   2.927  0.3655 -0.2239 -0.4114
 2403SOL    HW1 8179   4.650   6.027   2.968  0.1448 -0.7917 -1.2267
 2403SOL    HW2 8180   4.721   6.152   2.921  1.1856  0.1476  2.4469
 2404SOL     OW 8181   6.344   5.277   3.259  0.4321 -0.2429  0.5687
 2404SOL    HW1 8182   6.307   5.365   3.253 -0.1058 -0.5607 -1.2151
 2404SOL    HW2 8183   6.270   5.221   3.281  0.3340 -0.5353 -0.4686
 2405SOL     OW 8184   6.632   0.118   1.145  0.1791 -0.4032 -0.2088
 2405SOL    HW1 8185   6.665   0.203   1.174  0.7756 -0.9532  0.8021
 2405SOL    HW2 8186   6.584   0.137   1.064 -0.4482  1.0167  0.4572
 2406SOL     OW 8187   2.438   6.829   3.991  0.2243  0.0675  0.1854
 2406SOL    HW1 8188   2.375   6.794   3.927  1.3532 -0.3504 -0.7191
 2406SOL    HW2 8189   2.433   6.924   3.979 -0.5769  0.0758  0.4714
 2407SOL     OW 8190   4.993   0.579   0.755 -0.2349 -0.2760  0.1592
 2407SOL    HW1 8191   4.908   0.539   0.775 -1.3222  2.0296  0.5341
 2407SOL    HW2 8192   4.998   0.575   0.659 -0.6473 -0.6507  0.1455
 2408SOL     OW 8193   5.042   2.142   4.037 -0.4673 -0.2318 -0.1494
 2408SOL    HW1 8194   5.116   2.178   4.085 -1.0292 -0.7148  1.1258
 2408SOL    HW2 8195   5.067   2.051   4.021 -0.7811 -0.3930  0.2770
 2409SOL     OW 8196   4.596   0.704   5.819 -0.1721 -0.0812 -0.2228
 2409SOL    HW1 8197   4.524   0.641   5.813 -0.8117  0.6125  0.1272
 2409SOL    HW2 8198   4.661   0.659   5.873 -0.4881 -0.5720 -0.2376
 2410SOL     OW 8199   0.855   2.647   2.353 -0.6574  0.1530  0.1918
 2410SOL    HW1 8200   0.837   2.618   2.264 -0.8835 -1.4424  0.7217
 2410SOL    HW2 8201   0.948   2.628   2.366 -0.5349  0.7194  0.1935
 2411SOL     OW 8202   4.440   4.853   1.022  0.2394  0.3284  0.1541
 2411SOL    HW1 8203   4.383   4.931   1.022  0.8609  0.8122 -1.4819
 2411SOL    HW2 8204   4.441   4.824   0.931  1.2502 -0.6982  0.4760
 2412SOL     OW 8205   0.683   1.438   0.063 -0.1625 -0.0125  0.0766
 2412SOL    HW1 8206   0.644   1.363   0.108 -0.0696 -1.0210 -1.4218
 2412SOL    HW2 8207   0.613   1.470   0.005 -0.4309  1.5414  1.2098
 2413SOL     OW 8208   3.085   7.249   1.416  0.5171  0.1953  0.4811
 2413SOL    HW1 8209   3.049   7.184   1.356 -0.7467 -0.0585  1.4746
 2413SOL    HW2 8210   3.168   7.211   1.445  0.5064 -0.2819 -0.0834
 2414SOL     OW 8211   2.144   2.860   0.594 -0.2728  0.5589 -0.3653
 2414SOL    HW1 8212   2.125   2.786   0.652  1.1109 -0.1542 -0.7855
 2414SOL    HW2 8213   2.223   2.899   0.631 -0.5524  1.3577 -0.5989
 2415SOL     OW 8214   5.627   5.962   2.723  0.7278  0.5345 -0.3776
 2415SOL    HW1 8215   5.626   5.871   2.695  1.4479  0.2248  0.5490
 2415SOL    HW2 8216   5.538   5.994   2.707  0.0808 -0.7268  0.5375
 2416SOL     OW 8217   0.210   2.818   0.302  0.0393  0.0309  0.2395
 2416SOL    HW1 8218   0.216   2.725   0.321  1.0022  0.3565  1.6815
 2416SOL    HW2 8219   0.146   2.824   0.231 -0.7441 -1.6400  0.7613
 2417SOL     OW 8220   5.450   2.793   3.367 -0.1168 -0.1338  0.2653
 2417SOL    HW1 8221   5.392   2.868   3.356 -0.4277 -0.4188 -0.0469
 2417SOL    HW2 8222   5.430   2.761   3.455 -0.9233 -0.6379 -0.0888
 2418SOL     OW 8223   0.247   0.715   4.364 -0.0474 -0.6960 -0.3478
 2418SOL    HW1 8224   0.288   0.739   4.281  1.8755 -1.3365  0.3764
 2418SOL    HW2 8225   0.291   0.635   4.391  0.7987  0.5324  2.2434
 2419SOL     OW 8226   4.843   2.442   5.351  0.3784  0.4572  0.2051
 2419SOL    HW1 8227   4.925   2.456   5.304  0.1293  0.6770 -0.1716
 2419SOL    HW2 8228   4.857   2.483   5.437  0.9138 -0.1466  0.4103
 2420SOL     OW 8229   6.953   3.493   1.490 -0.0973  0.4296 -0.1165
 2420SOL    HW1 8230   6.965   3.556   1.419  1.4738 -0.0170 -0.2866
 2420SOL    HW2 8231   6.964   3.545   1.570 -1.3581  0.8313 -0.1720
 2421SOL     OW 8232   6.642   6.291   4.254 -0.5449  0.4209  0.5573
 2421SOL    HW1 8233   6.604   6.336   4.179  0.1753 -0.5850 -0.4448
 2421SOL    HW2 8234   6.630   6.198   4.236  2.8178 -0.0241 -0.1566
 2422SOL     OW 8235   5.314   2.272   2.854  0.2266 -0.4965  0.1701
 2422SOL    HW1 8236   5.368   2.259   2.932  0.4758 -1.2358 -0.1127
 2422SOL    HW2 8237   5.273   2.357   2.867  1.4971  0.1056  0.3658
 2423SOL     OW 8238   2.093   6.758   3.944  0.2211 -0.3534  0.6892
 2423SOL    HW1 8239   2.117   6.831   4.001 -1.9537  0.0910  1.1367
 2423SOL    HW2 8240   2.086   6.683   4.003 -1.7722  0.0506  1.0401
 2424SOL     OW 8241   2.955   1.860   0.007 -0.2225  0.0603  0.0702
 2424SOL    HW1 8242   2.996   1.879  -0.077  1.3936  0.4230  0.9007
 2424SOL    HW2 8243   2.934   1.767   0.003 -3.2147  0.6809 -1.9463
 2425SOL     OW 8244   0.927   2.096   2.235 -0.1598  0.0103  0.4661
 2425SOL    HW1 8245   0.957   2.007   2.217  0.2849  0.0096  1.1573
 2425SOL    HW2 8246   0.881   2.089   2.319 -0.2925  0.3989  0.4287
 2426SOL     OW 8247   2.900   2.231   6.804 -0.2502  0.0929  0.2369
 2426SOL    HW1 8248   2.853   2.151   6.827 -0.4905 -0.0124 -0.5815
 2426SOL    HW2 8249   2.892   2.237   6.709 -2.3914  2.3742  0.4521
 2427SOL     OW 8250   2.396   3.421   3.451 -0.1832  0.0195  0.1333
 2427SOL    HW1 8251   2.416   3.410   3.358  1.0123  0.9342  0.2578
 2427SOL    HW2 8252   2.390   3.516   3.463 -2.2368 -0.1155  0.6458
 2428SOL     OW 8253   5.680   3.167   6.813  0.1608 -0.1881  0.1613
 2428SOL    HW1 8254   5.684   3.185   6.907 -1.8342  1.2250  0.0453
 2428SOL    HW2 8255   5.767   3.188   6.780  0.5744  0.3060  1.5386
 2429SOL     OW 8256   4.261   5.208   4.709 -0.7067 -0.5104  0.6523
 2429SOL    HW1 8257   4.355   5.221   4.724 -0.6640  2.6428 -1.3222
 2429SOL    HW2 8258   4.219   5.257   4.780 -0.8462 -1.1693  1.0252
 2430SOL     OW 8259   2.642   3.220   2.064  0.4868  0.1367 -0.6017
 2430SOL    HW1 8260   2.674   3.220   1.974 -0.2490  1.0182 -0.8779
 2430SOL    HW2 8261   2.718   3.192   2.116  0.8464 -0.6211 -1.5006
 2431SOL     OW 8262   1.445   5.507   1.458 -0.1237  0.2754 -0.4818
 2431SOL    HW1 8263   1.374   5.449   1.430  0.3598 -0.4321 -0.2727
 2431SOL    HW2 8264   1.522   5.474   1.412  0.2544  0.4441  0.0238
 2432SOL     OW 8265   3.145   4.030   1.014 -0.3114  0.0740 -0.1823
 2432SOL    HW1 8266   3.156   4.080   0.932 -0.0910 -0.0984 -0.2595
 2432SOL    HW2 8267   3.184   3.945   0.995 -0.4348 -0.0319  0.0430
 2433SOL     OW 8268   0.905   0.361   6.505  0.4001  0.0453  0.3396
 2433SOL    HW1 8269   0.821   0.368   6.458  1.1397  0.9785 -0.9094
 2433SOL    HW2 8270   0.891   0.292   6.569 -0.4344 -1.8919 -1.8057
 2434SOL     OW 8271   1.891   5.427   0.945  0.3533 -0.1957  0.1508
 2434SOL    HW1 8272   1.872   5.389   0.859  1.0717 -1.0578  0.3527
 2434SOL    HW2 8273   1.935   5.510   0.925 -0.3851  0.0999 -0.3023
 2435SOL     OW 8274   3.334   2.191   0.326 -0.3143 -0.3680  0.4716
 2435SOL    HW1 8275   3.373   2.232   0.404 -2.2363 -0.2072  1.3954
 2435SOL    HW2 8276   3.245   2.225   0.323 -0.3870 -0.6347 -1.6498
 2436SOL     OW 8277   1.782   3.297   2.582  0.6959  0.2328 -0.1676
 2436SOL    HW1 8278   1.701   3.286   2.533 -0.2022 -1.5062  1.5250
 2436SOL    HW2 8279   1.809   3.207   2.604  2.4420  0.8272  0.3098
 2437SOL     OW 8280   5.433   1.307   4.044 -0.5228  0.3384  0.7098
 2437SOL    HW1 8281   5.408   1.260   3.964  0.2748  0.1427  0.5709
 2437SOL    HW2 8282   5.401   1.396   4.031  2.8698  1.4146 -1.5328
 2438SOL     OW 8283   1.746   6.350   4.029  0.4034 -0.0794  0.4459
 2438SOL    HW1 8284   1.838   6.374   4.028  0.5455 -0.6010 -0.6362
 2438SOL    HW2 8285   1.742   6.266   3.984 -0.4715 -0.5923  1.4477
 2439SOL     OW 8286   3.385   0.669   3.644 -0.5666 -0.6193  0.2933
 2439SOL    HW1 8287   3.313   0.726   3.617 -0.4748 -0.5242  0.2504
 2439SOL    HW2 8288   3.388   0.679   3.740  0.0874  0.2120  0.1945
 2440SOL     OW 8289   5.313   5.855   7.116 -0.5654  0.0152  0.4748
 2440SOL    HW1 8290   5.377   5.889   7.054 -0.6474 -0.4766  0.1117
 2440SOL    HW2 8291   5.335   5.762   7.125  0.7252  0.4541  2.7464
 2441SOL     OW 8292   4.342   4.590   2.271 -0.4214 -0.5582  0.7512
 2441SOL    HW1 8293   4.360   4.683   2.285  0.9795 -0.6145 -0.3761
 2441SOL    HW2 8294   4.308   4.585   2.182 -0.0334 -1.1548  0.6243
 2442SOL     OW 8295   4.714   0.364   1.935  0.3003  0.3288 -0.1348
 2442SOL    HW1 8296   4.791   0.306   1.939 -0.4344 -0.7322 -0.8961
 2442SOL    HW2 8297   4.707   0.388   1.843  1.3419  2.7499  0.3259
 2443SOL     OW 8298   4.134   0.644   3.448  0.0734 -0.4171 -0.2816
 2443SOL    HW1 8299   4.048   0.615   3.478  0.4008 -1.1508 -0.0359
 2443SOL    HW2 8300   4.184   0.662   3.528  0.3802 -0.6833 -0.4104
 2444SOL     OW 8301   4.708   4.302   6.879 -0.0483  0.2665  0.1657
 2444SOL    HW1 8302   4.633   4.274   6.827  0.2497  0.3445 -0.3120
 2444SOL    HW2 8303   4.670   4.326   6.964 -0.6332  0.7619 -0.2215
 2445SOL     OW 8304   5.940   1.612   0.125  0.2970  0.0706 -0.3111
 2445SOL    HW1 8305   6.019   1.665   0.121  0.6165 -0.4120 -0.5502
 2445SOL    HW2 8306   5.970   1.523   0.107 -0.3971 -0.0242 -1.0364
 2446SOL     OW 8307   4.156   7.202   4.066  0.0621  0.3111  0.0565
 2446SOL    HW1 8308   4.197   7.278   4.024 -1.5219  1.3236  0.2804
 2446SOL    HW2 8309   4.141   7.230   4.157 -1.7396  0.2395 -0.1891
 2447SOL     OW 8310   6.651   6.688   0.346  0.6293  0.1265 -0.9327
 2447SOL    HW1 8311   6.723   6.742   0.312  0.1614  1.2572 -0.1888
 2447SOL    HW2 8312   6.615   6.645   0.269  0.4087  1.6372 -1.7059
 2448SOL     OW 8313   1.535   3.044   3.219 -0.0587  0.1197  0.6976
 2448SOL    HW1 8314   1.613   3.009   3.262  0.1560 -0.9730 -0.5223
 2448SOL    HW2 8315   1.504   2.972   3.164 -1.1138  1.0127  0.0914
 2449SOL     OW 8316   3.298   7.150   1.531  0.7114  0.3128 -0.1442
 2449SOL    HW1 8317   3.374   7.183   1.484  1.4071  0.6535  1.1745
 2449SOL    HW2 8318   3.308   7.055   1.530  1.3212  0.3662  0.2730
 2450SOL     OW 8319   3.108   3.707   1.723 -0.0331  0.2474 -0.5249
 2450SOL    HW1 8320   3.149   3.630   1.682  0.2328  0.2721 -0.3077
 2450SOL    HW2 8321   3.179   3.750   1.769 -0.0231  1.0543 -1.2716
 2451SOL     OW 8322   5.176   4.019   5.319  0.1219 -0.3713  0.0084
 2451SOL    HW1 8323   5.198   3.931   5.348 -0.4195 -0.1273  1.1919
 2451SOL    HW2 8324   5.143   4.007   5.230  1.4245 -1.1766 -0.4021
 2452SOL     OW 8325   3.932   7.123   3.934 -0.2601  0.2013  0.4499
 2452SOL    HW1 8326   4.001   7.170   3.981 -1.0625  1.5201  0.3505
 2452SOL    HW2 8327   3.858   7.184   3.932 -1.4694 -1.2019  0.6182
 2453SOL     OW 8328   3.623   3.875   0.489 -0.1174  0.5246  0.8331
 2453SOL    HW1 8329   3.611   3.969   0.479 -1.0800  0.2070 -1.9782
 2453SOL    HW2 8330   3.673   3.849   0.412 -0.4717 -1.3502  1.1891
 2454SOL     OW 8331   0.469   6.306   4.155  0.5497  0.6872 -0.1436
 2454SOL    HW1 8332   0.525   6.264   4.090 -0.2186  0.4785 -0.6839
 2454SOL    HW2 8333   0.530   6.344   4.219  1.2628 -1.2771  0.4030
 2455SOL     OW 8334   3.066   4.058   4.099  0.7752 -0.1914  0.5743
 2455SOL    HW1 8335   3.044   4.151   4.091 -0.6964 -0.5516  0.1366
 2455SOL    HW2 8336   3.137   4.044   4.036  0.8887  0.6007  0.5241
 2456SOL     OW 8337   4.883   3.897   1.984 -0.0535  0.0164 -0.0937
 2456SOL    HW1 8338   4.951   3.838   2.016  2.3624  1.1049 -2.7768
 2456SOL    HW2 8339   4.829   3.843   1.926 -0.7322 -0.5355  1.0098
 2457SOL     OW 8340   0.092   5.687   4.408 -0.2165  0.6164 -0.3183
 2457SOL    HW1 8341   0.073   5.774   4.444  2.1956  1.4557 -0.8206
 2457SOL    HW2 8342   0.044   5.684   4.325 -1.9189  0.6157  0.6270
 2458SOL     OW 8343   4.091   1.174   3.946 -0.4332 -0.3118  0.3330
 2458SOL    HW1 8344   4.088   1.183   4.041 -1.4498  0.3808  0.2504
 2458SOL    HW2 8345   4.037   1.098   3.926 -1.6953  0.5726  0.2149
 2459SOL     OW 8346   5.192   2.054   3.402 -0.0370 -0.7227  0.0263
 2459SOL    HW1 8347   5.118   2.112   3.386 -1.9688 -2.9840  0.1028
 2459SOL    HW2 8348   5.153   1.975   3.439  2.2401 -2.5621 -1.2030
 2460SOL     OW 8349   3.437   0.314   1.788  0.1087 -0.5852  0.2745
 2460SOL    HW1 8350   3.446   0.394   1.736 -0.1347 -1.6908 -1.5839
 2460SOL    HW2 8351   3.353   0.323   1.832  0.8556  0.9044  1.4870
 2461SOL     OW 8352   2.799   7.024   4.802 -0.4478  0.1494  0.5440
 2461SOL    HW1 8353   2.761   6.938   4.782  0.5020 -0.4864  1.3307
 2461SOL    HW2 8354   2.892   7.005   4.817  0.1291  1.5747 -0.9245
 2462SOL     OW 8355   0.894   5.716   3.955  0.5098  0.0701 -0.0943
 2462SOL    HW1 8356   0.803   5.747   3.964  0.5294  0.0091  0.3169
 2462SOL    HW2 8357   0.946   5.781   4.001  0.5550 -0.5446  0.7430
 2463SOL     OW 8358   4.358   4.916   3.323  0.3854 -0.8272 -0.0700
 2463SOL    HW1 8359   4.424   4.985   3.316 -1.8920  1.3760 -2.2869
 2463SOL    HW2 8360   4.392   4.845   3.268  1.6042 -0.3839  0.0875
 2464SOL     OW 8361   4.670   6.397   6.330  0.0487  0.1087  0.2380
 2464SOL    HW1 8362   4.602   6.425   6.392  0.2180  0.1078  0.4225
 2464SOL    HW2 8363   4.720   6.331   6.377 -0.1120 -0.2329 -0.0657
 2465SOL     OW 8364   4.002   4.752   3.936 -0.0414  0.0458  0.5327
 2465SOL    HW1 8365   4.062   4.816   3.898  2.1032 -0.9048  2.1174
 2465SOL    HW2 8366   4.053   4.671   3.942 -2.5216 -1.8093 -1.0420
 2466SOL     OW 8367   4.455   6.326   2.611 -0.7460 -0.6197  0.3741
 2466SOL    HW1 8368   4.403   6.393   2.568 -1.0192 -1.4352 -0.5883
 2466SOL    HW2 8369   4.493   6.370   2.687 -0.4933  0.7619 -0.5261
 2467SOL     OW 8370   7.018   2.657   6.113 -0.0302  0.4815  0.3958
 2467SOL    HW1 8371   7.094   2.628   6.064 -1.5906  2.0963 -3.3769
 2467SOL    HW2 8372   7.044   2.742   6.150  1.4264 -1.1078  3.3875
 2468SOL     OW 8373   1.034   2.568   5.586  0.0839 -0.0892  0.8034
 2468SOL    HW1 8374   0.984   2.507   5.532 -0.8998  0.6907  0.8132
 2468SOL    HW2 8375   0.970   2.631   5.619  1.0268  0.8143  1.0009
 2469SOL     OW 8376   5.998   5.097   3.730  0.5973 -0.3515  0.3505
 2469SOL    HW1 8377   6.086   5.085   3.693  0.4578 -2.1121  0.4956
 2469SOL    HW2 8378   6.009   5.165   3.796  1.2954  1.3397 -1.3850
 2470SOL     OW 8379   6.952   4.686   1.399  0.0354  0.1419 -0.0234
 2470SOL    HW1 8380   6.882   4.705   1.336  0.7342  1.0690 -0.5392
 2470SOL    HW2 8381   6.986   4.772   1.424  1.5770 -0.3122 -0.4507
 2471SOL     OW 8382   0.766   5.613   3.372  0.3414  0.1043  0.2467
 2471SOL    HW1 8383   0.825   5.684   3.347 -1.7173  1.3903 -1.2926
 2471SOL    HW2 8384   0.769   5.552   3.299 -0.2595  0.2020  0.1355
 2472SOL     OW 8385   3.990   1.358   6.821  0.2360 -0.1619 -0.4406
 2472SOL    HW1 8386   4.055   1.418   6.785  0.7284 -1.1373 -1.2322
 2472SOL    HW2 8387   3.977   1.293   6.752 -0.7885 -0.5919  0.1307
 2473SOL     OW 8388   6.924   5.860   1.816  0.5193 -0.7115  0.0943
 2473SOL    HW1 8389   6.959   5.903   1.895  0.1085 -0.2530  0.0294
 2473SOL    HW2 8390   6.835   5.835   1.840 -1.2918  3.3073 -1.5248
 2474SOL     OW 8391   4.862   0.174   0.890 -0.0135  0.3102  0.2073
 2474SOL    HW1 8392   4.883   0.081   0.885  0.7817  0.5206 -0.6788
 2474SOL    HW2 8393   4.819   0.193   0.806 -0.1318  0.7538  0.3645
 2475SOL     OW 8394   6.508   7.065   4.871 -0.2490  0.3641 -0.0165
 2475SOL    HW1 8395   6.438   7.116   4.911  0.5535  1.9492 -0.5712
 2475SOL    HW2 8396   6.464   7.011   4.806 -1.0094  1.0807 -0.1072
 2476SOL     OW 8397   4.258   3.684   5.268 -0.0879  0.3223 -0.3842
 2476SOL    HW1 8398   4.185   3.629   5.297 -0.0578  1.3621  1.8218
 2476SOL    HW2 8399   4.241   3.698   5.175 -2.3514 -0.0259 -0.0888
 2477SOL     OW 8400   6.377   3.920   1.547 -0.1237  0.2333 -0.0502
 2477SOL    HW1 8401   6.352   3.983   1.480 -0.7212  0.4822  0.3912
 2477SOL    HW2 8402   6.300   3.913   1.603 -1.0263 -2.7113 -1.4251
 2478SOL     OW 8403   3.124   4.426   5.785 -0.2273 -0.3197  0.1808
 2478SOL    HW1 8404   3.174   4.383   5.856  2.2607  0.4485 -0.9780
 2478SOL    HW2 8405   3.121   4.361   5.715 -2.2009 -0.8767  0.7267
 2479SOL     OW 8406   2.039   2.617   5.673 -0.0959 -0.3257 -0.5270
 2479SOL    HW1 8407   2.032   2.665   5.590  1.6767  0.8705 -0.0607
 2479SOL    HW2 8408   2.110   2.554   5.658  1.2749  0.9097  0.4729
 2480SOL     OW 8409   6.174   0.604   2.155  0.9245  0.2850  0.0989
 2480SOL    HW1 8410   6.083   0.575   2.163  0.4658  1.5576 -0.2512
 2480SOL    HW2 8411   6.182   0.675   2.220  2.1544 -0.8964  1.2961
 2481SOL     OW 8412   7.177   2.932   7.216  0.6163 -0.3604 -0.3632
 2481SOL    HW1 8413   7.091   2.904   7.187  0.8079 -0.8022 -0.5054
 2481SOL    HW2 8414   7.235   2.860   7.194  0.7335 -0.8188  1.3043
 2482SOL     OW 8415   4.237   6.339   1.212 -0.4543 -0.2760  0.1737
 2482SOL    HW1 8416   4.311   6.279   1.220 -0.3317 -0.2994 -0.9791
 2482SOL    HW2 8417   4.162   6.290   1.245  0.1662  0.0797  2.2991
 2483SOL     OW 8418   5.548   1.509   6.128 -0.3941  0.0183 -0.1356
 2483SOL    HW1 8419   5.574   1.431   6.080 -1.0048  1.0892 -2.3367
 2483SOL    HW2 8420   5.628   1.537   6.174  0.9999  0.3673 -2.6125
 2484SOL     OW 8421   4.572   5.014   6.849  0.0452  0.2970  0.1907
 2484SOL    HW1 8422   4.612   5.063   6.777  0.7071 -1.4448 -0.6749
 2484SOL    HW2 8423   4.486   5.055   6.860  0.0010  0.7477 -1.4704
 2485SOL     OW 8424   1.177   1.332   7.176 -0.7664 -0.2569  0.4071
 2485SOL    HW1 8425   1.110   1.288   7.227 -0.4802 -0.0693  0.9489
 2485SOL    HW2 8426   1.260   1.300   7.212 -0.5180  1.5157  1.5536
 2486SOL     OW 8427   2.754   0.693   2.642  0.5776  0.0354  0.7459
 2486SOL    HW1 8428   2.804   0.611   2.646 -0.0831 -0.3305  2.3381
 2486SOL    HW2 8429   2.705   0.687   2.560  1.7324 -0.4300  0.0618
 2487SOL     OW 8430   6.776   5.984   6.285  0.1057 -0.0025 -0.0038
 2487SOL    HW1 8431   6.721   6.061   6.272 -0.3497 -0.2191  0.5929
 2487SOL    HW2 8432   6.717   5.918   6.323  0.8991 -0.0328  1.2641
 2488SOL     OW 8433   3.419   7.255   6.791  0.4266 -0.5683  0.0988
 2488SOL    HW1 8434   3.408   7.183   6.730  1.5518 -0.5757 -0.1108
 2488SOL    HW2 8435   3.513   7.270   6.795  0.3057  0.0443  1.1242
 2489SOL     OW 8436   7.003   2.736   0.291  0.4868  0.1905 -0.4679
 2489SOL    HW1 8437   7.045   2.758   0.374 -2.1676 -0.3663  1.1683
 2489SOL    HW2 8438   7.062   2.770   0.224  2.1906  1.7120  1.6553
 2490SOL     OW 8439   4.825   7.213   2.691  0.1831  0.1173  0.0551
 2490SOL    HW1 8440   4.781   7.214   2.606 -0.0979 -3.4633  0.0119
 2490SOL    HW2 8441   4.770   7.267   2.748 -0.6550  1.0352 -1.5673
 2491SOL     OW 8442   3.866   5.445   6.409  0.3256  0.2659  0.5910
 2491SOL    HW1 8443   3.790   5.503   6.402  1.2042  1.6983  2.2025
 2491SOL    HW2 8444   3.836   5.373   6.465  0.3479  1.2292  1.8795
 2492SOL     OW 8445   3.408   3.178   3.942  0.4548  0.0009  0.0642
 2492SOL    HW1 8446   3.370   3.102   3.985 -0.5375 -0.8995 -2.2062
 2492SOL    HW2 8447   3.407   3.247   4.008 -2.3916 -0.8257  1.0046
 2493SOL     OW 8448   3.416   4.001   0.636  0.4317  0.0534 -0.2455
 2493SOL    HW1 8449   3.389   4.033   0.550 -0.9750 -1.0775 -0.2641
 2493SOL    HW2 8450   3.339   4.015   0.692  1.1625  0.3393  0.7157
 2494SOL     OW 8451   5.467   5.641   6.993  0.3151 -0.7837  0.2820
 2494SOL    HW1 8452   5.513   5.717   6.959  1.2591 -1.0492  0.9105
 2494SOL    HW2 8453   5.398   5.623   6.930  1.2402 -0.5183 -0.8297
 2495SOL     OW 8454   1.423   0.213   0.377 -0.1836 -0.4432  0.1944
 2495SOL    HW1 8455   1.493   0.202   0.313 -1.3286 -1.2634 -0.9807
 2495SOL    HW2 8456   1.343   0.193   0.328 -0.9472 -4.3766  2.5555
 2496SOL     OW 8457   1.470   3.214   2.964  0.6620 -0.3459 -1.0596
 2496SOL    HW1 8458   1.396   3.229   3.023  2.1234 -1.1556  1.0999
 2496SOL    HW2 8459   1.486   3.299   2.924  1.5163  1.1647  2.1217
 2497SOL     OW 8460   2.650   6.071   2.079 -0.4560  0.0129 -0.2033
 2497SOL    HW1 8461   2.596   6.149   2.090 -4.9892 -2.9300  1.3276
 2497SOL    HW2 8462   2.691   6.058   2.164 -2.6505 -1.0301  0.7840
 2498SOL     OW 8463   3.744   2.960   7.206  0.2909 -0.2175 -0.0533
 2498SOL    HW1 8464   3.730   2.889   7.268  1.8235 -0.7027 -0.2318
 2498SOL    HW2 8465   3.665   3.014   7.213 -0.7069 -1.6829  0.3999
 2499SOL     OW 8466   5.309   2.902   3.959  0.0479  0.3760  0.0711
 2499SOL    HW1 8467   5.314   2.832   3.894 -0.6029  0.8338 -0.4893
 2499SOL    HW2 8468   5.338   2.980   3.912  1.5680  0.3569  0.9202
 2500SOL     OW 8469   0.468   5.436   0.642 -0.0786 -0.0489 -0.2705
 2500SOL    HW1 8470   0.556   5.436   0.679 -0.5766 -1.4944  0.9965
 2500SOL    HW2 8471   0.461   5.353   0.596 -0.9552 -0.2019  0.1207
 2501SOL     OW 8472   0.878   0.223   5.045  0.2250  0.5505  0.6178
 2501SOL    HW1 8473   0.819   0.154   5.015 -0.6874  1.8644 -0.7743
 2501SOL    HW2 8474   0.887   0.207   5.139 -0.5427 -1.0110  0.4598
 2502SOL     OW 8475   3.204   2.385   5.151 -0.7402  0.1944 -0.2235
 2502SOL    HW1 8476   3.244   2.388   5.064 -0.1936  1.6999  0.0508
 2502SOL    HW2 8477   3.263   2.330   5.202 -1.9636 -2.1802 -1.1764
 2503SOL     OW 8478   5.165   6.000   3.528 -0.4105 -0.1864  0.7346
 2503SOL    HW1 8479   5.070   5.989   3.530 -0.3605 -0.9935 -0.3266
 2503SOL    HW2 8480   5.182   6.039   3.442  0.1805  0.3315  1.0866
 2504SOL     OW 8481   5.106   3.871   5.017 -0.0945  0.1077  0.6381
 2504SOL    HW1 8482   5.185   3.827   5.050 -1.0576 -1.4924  0.9336
 2504SOL    HW2 8483   5.035   3.810   5.036 -1.1824  0.6944 -1.2337
 2505SOL     OW 8484   3.153   5.404   3.985 -0.0716 -0.2809 -0.4308
 2505SOL    HW1 8485   3.246   5.398   4.007 -0.3762 -0.0936  0.9715
 2505SOL    HW2 8486   3.125   5.489   4.021 -0.7312 -0.2262 -1.0558
 2506SOL     OW 8487   2.512   0.773   4.043 -0.3382 -0.0296  0.1657
 2506SOL    HW1 8488   2.577   0.766   4.113 -0.3283 -0.3444  0.1297
 2506SOL    HW2 8489   2.532   0.700   3.984  1.5969  1.9943 -1.8619
 2507SOL     OW 8490   6.721   1.537   7.173  0.4025 -0.5987 -0.2076
 2507SOL    HW1 8491   6.660   1.594   7.219  0.6552 -0.7485  0.3273
 2507SOL    HW2 8492   6.772   1.495   7.243  0.0688 -1.6504 -0.5623
 2508SOL     OW 8493   2.931   0.201   0.040  0.1323 -0.3745  0.5349
 2508SOL    HW1 8494   2.968   0.186  -0.047  1.0888 -1.3859  1.0828
 2508SOL    HW2 8495   2.905   0.293   0.040  0.7176 -0.1906 -0.5968
 2509SOL     OW 8496   1.760   2.328   2.290 -0.6983  0.3918 -0.3529
 2509SOL    HW1 8497   1.839   2.305   2.339 -0.1886  2.1951 -0.2547
 2509SOL    HW2 8498   1.768   2.279   2.208  0.1401 -0.0423 -0.0277
 2510SOL     OW 8499   6.785   2.141   3.447  1.1711 -0.3742  0.1789
 2510SOL    HW1 8500   6.808   2.048   3.441 -0.8888 -1.1690  2.7881
 2510SOL    HW2 8501   6.724   2.155   3.374  1.0358 -1.2452  0.1107
 2511SOL     OW 8502   1.231   3.778   5.376  0.2497 -0.4363 -0.0989
 2511SOL    HW1 8503   1.298   3.781   5.307 -0.1206  1.2189 -0.4308
 2511SOL    HW2 8504   1.264   3.714   5.438  1.7340 -0.2742 -0.6746
 2512SOL     OW 8505   2.333   7.243   6.901  0.4754 -0.3468 -0.3770
 2512SOL    HW1 8506   2.349   7.294   6.980 -0.3333  0.2527 -0.5799
 2512SOL    HW2 8507   2.266   7.179   6.927  0.3240 -0.2536 -0.5363
 2513SOL     OW 8508   5.393   3.262   0.915 -0.7735 -0.1437  0.0720
 2513SOL    HW1 8509   5.373   3.205   0.989  0.2466 -0.2357  0.2943
 2513SOL    HW2 8510   5.417   3.203   0.844 -1.1840 -0.0357 -0.1607
 2514SOL     OW 8511   5.050   2.067   2.603 -0.7965  0.1017 -0.9135
 2514SOL    HW1 8512   4.955   2.061   2.595 -0.7775  1.2877 -2.4131
 2514SOL    HW2 8513   5.073   2.147   2.556  0.9950 -0.4211 -0.9803
 2515SOL     OW 8514   0.603   6.071   1.221  0.3489  0.0528 -0.2540
 2515SOL    HW1 8515   0.599   5.997   1.161  0.1318 -0.0993 -0.0583
 2515SOL    HW2 8516   0.637   6.034   1.302 -0.0990  0.0865 -0.0444
 2516SOL     OW 8517   1.544   2.312   1.609 -0.1261 -0.4664 -0.5473
 2516SOL    HW1 8518   1.490   2.239   1.639  0.3972 -1.3462 -1.6454
 2516SOL    HW2 8519   1.482   2.383   1.593 -0.8835 -1.2357 -1.1250
 2517SOL     OW 8520   6.149   6.421   5.121 -0.3764  0.2226 -0.3614
 2517SOL    HW1 8521   6.083   6.443   5.055 -0.5982 -2.1890 -1.0571
 2517SOL    HW2 8522   6.100   6.418   5.203 -0.4547  1.5313 -0.3379
 2518SOL     OW 8523   2.919   0.263   0.985  0.2444  0.4037 -0.4226
 2518SOL    HW1 8524   2.840   0.300   1.025 -0.8380 -1.1230 -1.0732
 2518SOL    HW2 8525   2.929   0.177   1.025  1.7507  0.6696 -0.1669
 2519SOL     OW 8526   1.173   3.130   2.801  0.1954  0.3066  0.6394
 2519SOL    HW1 8527   1.127   3.052   2.770  0.3686  0.8318 -1.0259
 2519SOL    HW2 8528   1.209   3.170   2.722  2.7579  0.4103  1.7571
 2520SOL     OW 8529   4.300   6.186   3.857  0.1767 -0.2805 -0.0839
 2520SOL    HW1 8530   4.347   6.108   3.886  0.2292 -0.3972 -0.4682
 2520SOL    HW2 8531   4.315   6.188   3.762 -0.2389 -0.0825 -0.1469
 2521SOL     OW 8532   1.642   5.845   3.176 -0.6557  0.2506  0.0535
 2521SOL    HW1 8533   1.600   5.894   3.105  0.7663  1.2769 -0.1388
 2521SOL    HW2 8534   1.696   5.910   3.221  1.3846 -1.1228 -0.2597
 2522SOL     OW 8535   2.367   1.891   3.375  0.2413 -0.2766 -0.0465
 2522SOL    HW1 8536   2.319   1.864   3.453 -2.2754 -0.6303 -1.6146
 2522SOL    HW2 8537   2.385   1.809   3.329  0.4037  0.0257 -0.5320
 2523SOL     OW 8538   4.278   5.375   3.928 -0.5030 -0.0973  0.1080
 2523SOL    HW1 8539   4.258   5.286   3.957  0.1954 -0.3752 -0.2568
 2523SOL    HW2 8540   4.350   5.365   3.866 -0.6797  0.6855 -0.2337
 2524SOL     OW 8541   3.140   1.034   0.383 -0.3394 -0.0262  0.0758
 2524SOL    HW1 8542   3.081   1.072   0.449 -0.0352 -1.5127  1.2734
 2524SOL    HW2 8543   3.227   1.067   0.406 -0.5898  1.8753 -1.4721
 2525SOL     OW 8544   5.503   2.983   5.440 -0.1969  0.0026 -0.3595
 2525SOL    HW1 8545   5.547   2.912   5.394 -0.9927  0.3812 -1.7376
 2525SOL    HW2 8546   5.537   3.063   5.401 -3.6266  0.3418 -3.1550
 2526SOL     OW 8547   1.422   5.395   2.525  0.0639  0.7911 -0.1796
 2526SOL    HW1 8548   1.430   5.300   2.529 -0.4001  0.7112  4.4477
 2526SOL    HW2 8549   1.511   5.426   2.507  1.2735 -0.6085  2.7215
 2527SOL     OW 8550   3.477   3.147   0.457  0.4694  0.1032  0.5180
 2527SOL    HW1 8551   3.544   3.211   0.483  0.7281 -0.8200  2.2721
 2527SOL    HW2 8552   3.394   3.192   0.475  0.5380  1.2568 -1.6783
 2528SOL     OW 8553   0.730   6.935   5.438  0.4050  0.1337  0.6053
 2528SOL    HW1 8554   0.811   6.920   5.485  0.6552  0.5521  0.3160
 2528SOL    HW2 8555   0.746   7.015   5.388  0.1291 -0.2674 -0.1412
 2529SOL     OW 8556   2.344   1.788   6.976 -0.3536  0.0187  0.1602
 2529SOL    HW1 8557   2.419   1.731   6.956 -0.0582  0.0099  1.2539
 2529SOL    HW2 8558   2.276   1.728   7.005 -0.2389  0.1607  0.7359
 2530SOL     OW 8559   0.997   2.171   1.588  0.1606  0.6244 -0.1366
 2530SOL    HW1 8560   0.936   2.244   1.580 -1.3582 -0.4131  1.3875
 2530SOL    HW2 8561   0.947   2.095   1.559  1.1850 -0.0834 -0.1162
 2531SOL     OW 8562   1.923   4.081   3.023  0.5931 -0.0068 -0.2952
 2531SOL    HW1 8563   1.970   4.048   3.099  0.0703  0.2949  0.1666
 2531SOL    HW2 8564   1.991   4.116   2.965  1.0716 -1.0638 -0.3835
 2532SOL     OW 8565   5.789   6.139   1.082  0.1016 -0.1681  0.3580
 2532SOL    HW1 8566   5.734   6.091   1.144 -1.2116 -0.5857 -1.0668
 2532SOL    HW2 8567   5.767   6.102   0.996  1.2806  0.9317 -0.4659
 2533SOL     OW 8568   6.844   1.409   5.444  0.0820 -1.0062 -0.1628
 2533SOL    HW1 8569   6.831   1.386   5.351 -0.2189 -0.5408 -0.2366
 2533SOL    HW2 8570   6.861   1.325   5.486 -0.8246 -1.3571 -0.4685
 2534SOL     OW 8571   2.685   3.776   1.991 -0.1570  0.3652 -0.0795
 2534SOL    HW1 8572   2.750   3.759   2.059  0.1238  0.0576 -0.4216
 2534SOL    HW2 8573   2.601   3.767   2.036  0.0269  0.6138  0.3294
 2535SOL     OW 8574   3.257   4.195   5.100 -0.4175  0.1937 -0.3227
 2535SOL    HW1 8575   3.236   4.226   5.188 -1.4858  0.6742 -0.7340
 2535SOL    HW2 8576   3.309   4.265   5.061  0.6168 -0.2974  0.1308
 2536SOL     OW 8577   3.526   0.817   5.417 -0.2102 -0.3542 -0.1250
 2536SOL    HW1 8578   3.463   0.804   5.346  1.1198 -1.3575 -1.1666
 2536SOL    HW2 8579   3.609   0.786   5.382  0.7730  0.3850  1.4191
 2537SOL     OW 8580   4.769   6.356   3.247 -0.2366  0.6015 -0.1031
 2537SOL    HW1 8581   4.714   6.314   3.313  0.6259 -1.3373 -0.5617
 2537SOL    HW2 8582   4.721   6.345   3.165 -1.0875  2.6032  0.0629
 2538SOL     OW 8583   6.630   6.917   2.177  0.0860  0.1962  0.2830
 2538SOL    HW1 8584   6.589   6.841   2.136  0.1635  0.1590  0.2744
 2538SOL    HW2 8585   6.653   6.888   2.265 -0.1408  0.2967  0.3757
 2539SOL     OW 8586   0.622   1.397   3.334  0.1799  0.3733 -0.0045
 2539SOL    HW1 8587   0.691   1.414   3.399  0.3601  0.2733 -0.1691
 2539SOL    HW2 8588   0.551   1.456   3.360  0.5691  0.9449 -0.2090
 2540SOL     OW 8589   3.020   7.280   3.847 -0.2077  0.1280  0.0705
 2540SOL    HW1 8590   3.085   7.349   3.861 -0.1456  0.6485 -2.3994
 2540SOL    HW2 8591   2.965   7.283   3.926  0.6719  2.0133  0.6778
 2541SOL     OW 8592   3.685   4.023   5.596  0.1243 -0.0194 -0.1665
 2541SOL    HW1 8593   3.671   3.956   5.663 -0.2036  1.0929  0.9085
 2541SOL    HW2 8594   3.760   3.991   5.546 -0.5108 -1.5611 -0.1796
 2542SOL     OW 8595   2.220   2.948   0.933  0.1128 -0.3260  0.2165
 2542SOL    HW1 8596   2.272   2.915   0.860  0.4067  0.8458 -0.1181
 2542SOL    HW2 8597   2.281   2.951   1.006  0.9845  2.3668 -0.5047
 2543SOL     OW 8598   5.537   5.408   5.957 -0.2756 -0.3573  0.0864
 2543SOL    HW1 8599   5.455   5.435   5.999  0.9225  0.6506  1.9409
 2543SOL    HW2 8600   5.555   5.478   5.894 -0.7742 -0.5222 -0.2435
 2544SOL     OW 8601   2.955   0.348   3.147 -0.5234 -0.6978  0.1562
 2544SOL    HW1 8602   3.034   0.295   3.160  0.4985  0.6781 -0.2126
 2544SOL    HW2 8603   2.946   0.398   3.228 -0.8628 -0.6438  0.0856
 2545SOL     OW 8604   1.494   6.378   3.704 -0.1781 -0.2963 -0.1490
 2545SOL    HW1 8605   1.533   6.354   3.620  1.4274  0.8052  0.2175
 2545SOL    HW2 8606   1.466   6.295   3.742  1.2816 -1.1118 -0.7515
 2546SOL     OW 8607   1.277   6.741   2.888  0.3650  0.0402  0.0327
 2546SOL    HW1 8608   1.295   6.647   2.895  0.0547  0.0022  0.3194
 2546SOL    HW2 8609   1.363   6.780   2.871  0.8134 -0.1111  1.7430
 2547SOL     OW 8610   2.886   5.719   3.636 -0.4657 -0.0482 -0.3185
 2547SOL    HW1 8611   2.825   5.778   3.678 -1.6438 -0.3513 -1.5421
 2547SOL    HW2 8612   2.957   5.708   3.699 -2.0451 -0.3073  1.4785
 2548SOL     OW 8613   5.463   6.502   3.516 -0.1465  0.0107  0.2695
 2548SOL    HW1 8614   5.388   6.549   3.479 -0.2087  0.9738  1.5362
 2548SOL    HW2 8615   5.425   6.448   3.586  0.0664 -1.2014 -0.5207
 2549SOL     OW 8616   3.202   5.616   0.617 -0.5384  0.2130 -0.2107
 2549SOL    HW1 8617   3.251   5.639   0.538 -1.0570  2.2295 -0.0022
 2549SOL    HW2 8618   3.179   5.524   0.605  1.5177 -0.2329 -1.2370
 2550SOL     OW 8619   6.243   0.924   3.165 -0.4065 -0.3657 -0.1542
 2550SOL    HW1 8620   6.319   0.979   3.146 -0.1995 -0.0530  1.4342
 2550SOL    HW2 8621   6.277   0.835   3.159  0.2099 -0.2187  0.9643
 2551SOL     OW 8622   1.892   3.345   3.006 -0.3203  0.4206 -0.9694
 2551SOL    HW1 8623   1.927   3.380   3.088  0.8812  0.1542 -1.3487
 2551SOL    HW2 8624   1.883   3.251   3.021  2.8880 -0.1865 -2.0775
 2552SOL     OW 8625   1.365   0.892   5.963  0.5614 -0.1153  0.5796
 2552SOL    HW1 8626   1.456   0.897   5.991  0.6085  0.6825  0.3318
 2552SOL    HW2 8627   1.369   0.884   5.868  0.3997  2.2941  0.2891
 2553SOL     OW 8628   2.427   4.425   0.465 -0.2729 -0.2801 -0.4043
 2553SOL    HW1 8629   2.369   4.449   0.393 -0.6881  0.7503  0.2390
 2553SOL    HW2 8630   2.454   4.509   0.502  1.2816 -0.7610 -0.4057
 2554SOL     OW 8631   0.131   1.703   5.041 -0.1836  0.6828 -0.5878
 2554SOL    HW1 8632   0.192   1.695   5.115 -0.7632  1.2731 -0.0321
 2554SOL    HW2 8633   0.061   1.641   5.061  0.0950  0.2020 -1.0894
 2555SOL     OW 8634   0.449   1.319   3.725  0.0842 -0.7287 -0.0707
 2555SOL    HW1 8635   0.511   1.391   3.718 -0.6869 -0.0151  0.2710
 2555SOL    HW2 8636   0.380   1.339   3.661  0.0299 -1.3297 -0.2084
 2556SOL     OW 8637   5.079   4.506   3.846 -0.2917 -0.0848 -0.0697
 2556SOL    HW1 8638   5.141   4.575   3.823  1.1532 -0.9043  1.2204
 2556SOL    HW2 8639   5.035   4.538   3.924 -1.1433  0.2563 -0.6718
 2557SOL     OW 8640   3.613   3.747   6.353 -0.3264 -0.0038 -0.5406
 2557SOL    HW1 8641   3.702   3.742   6.319 -0.1478 -1.9610  0.0768
 2557SOL    HW2 8642   3.556   3.744   6.276  0.0935  2.3550 -1.0173
 2558SOL     OW 8643   7.225   1.594   6.145  0.1474 -0.4355 -0.0319
 2558SOL    HW1 8644   7.206   1.606   6.052  0.6193  0.2142 -0.0471
 2558SOL    HW2 8645   7.320   1.585   6.150  0.1943  0.2069  0.4464
 2559SOL     OW 8646   1.620   5.952   4.809 -0.0055  0.1478 -0.1441
 2559SOL    HW1 8647   1.696   5.896   4.828 -0.4009 -1.2483 -2.3360
 2559SOL    HW2 8648   1.654   6.041   4.816  1.8890 -0.4409 -1.1871
 2560SOL     OW 8649   2.544   0.532   1.428 -0.4884 -0.0656  0.5603
 2560SOL    HW1 8650   2.581   0.462   1.481 -2.3642 -0.9276  0.8275
 2560SOL    HW2 8651   2.565   0.613   1.475  1.1791 -0.4629  0.5577
 2561SOL     OW 8652   3.231   2.784   0.099  0.0990 -0.0138 -0.1557
 2561SOL    HW1 8653   3.276   2.708   0.135 -0.1554 -0.1336 -0.0845
 2561SOL    HW2 8654   3.186   2.750   0.021  1.5064  0.4722 -1.2146
 2562SOL     OW 8655   7.228   5.340   6.340  0.2146 -0.1506 -0.1640
 2562SOL    HW1 8656   7.194   5.252   6.360  1.3949 -0.1957  1.8671
 2562SOL    HW2 8657   7.201   5.393   6.415 -0.1453  1.1698 -1.1878
 2563SOL     OW 8658   7.047   3.109   4.856 -0.7736 -0.3463 -0.0823
 2563SOL    HW1 8659   6.978   3.055   4.895 -0.0082  0.0216  1.8940
 2563SOL    HW2 8660   7.010   3.197   4.854 -1.5075 -0.6477 -2.0310
 2564SOL     OW 8661   0.707   7.194   6.944 -0.4211 -0.2729 -0.3253
 2564SOL    HW1 8662   0.684   7.124   7.005 -0.1914 -0.1382 -0.0823
 2564SOL    HW2 8663   0.794   7.222   6.971 -0.2375 -0.3433 -0.8407
 2565SOL     OW 8664   5.230   0.215   6.585 -0.3201 -0.9774  0.1033
 2565SOL    HW1 8665   5.141   0.203   6.553  0.3886 -0.2472 -2.3782
 2565SOL    HW2 8666   5.276   0.259   6.513  1.6803  0.0036  1.8587
 2566SOL     OW 8667   4.759   0.067   4.399  0.1064  0.1657 -0.0711
 2566SOL    HW1 8668   4.677   0.066   4.448  0.8362 -0.0330  1.1886
 2566SOL    HW2 8669   4.732   0.064   4.307 -1.2774 -0.3343  0.3249
 2567SOL     OW 8670   6.084   0.003   1.867  0.5598 -0.2333 -0.3777
 2567SOL    HW1 8671   6.062   0.097   1.865 -0.0429 -0.3734 -0.6378
 2567SOL    HW2 8672   6.174   0.000   1.899 -0.1700  0.3224  1.9279
 2568SOL     OW 8673   5.531   2.651   2.600 -0.0390  0.0978 -0.5227
 2568SOL    HW1 8674   5.590   2.614   2.535 -0.4864  0.4128 -1.1223
 2568SOL    HW2 8675   5.568   2.737   2.621  0.7492 -0.4867  0.5278
 2569SOL     OW 8676   3.772   4.871   1.723  0.2221  0.2358  0.1386
 2569SOL    HW1 8677   3.804   4.943   1.668  2.0029 -1.1104 -0.6823
 2569SOL    HW2 8678   3.833   4.867   1.796 -1.5900  1.4011  1.8432
 2570SOL     OW 8679   6.610   7.097   1.685 -0.0609 -0.6675 -0.0899
 2570SOL    HW1 8680   6.685   7.135   1.732  0.2809 -1.9483  0.4722
 2570SOL    HW2 8681   6.612   7.137   1.599  1.6513 -1.1084 -0.2877
 2571SOL     OW 8682   4.842   2.146   3.226 -0.4509 -0.5181 -0.0826
 2571SOL    HW1 8683   4.874   2.172   3.139 -0.6046 -0.7597 -0.2117
 2571SOL    HW2 8684   4.897   2.195   3.287 -0.8576  0.2716 -0.3278
 2572SOL     OW 8685   0.193   5.060   3.020 -0.3309 -0.0057 -0.0885
 2572SOL    HW1 8686   0.103   5.026   3.016  0.8881 -3.7548  0.2022
 2572SOL    HW2 8687   0.183   5.150   3.050 -3.9589 -0.3773  0.3105
 2573SOL     OW 8688   3.652   6.188   1.069 -0.6889  0.4370  0.0493
 2573SOL    HW1 8689   3.677   6.096   1.058  1.0013  0.8447  0.2110
 2573SOL    HW2 8690   3.567   6.184   1.113  0.7081 -1.1049  2.9144
 2574SOL     OW 8691   4.731   3.719   1.397 -0.5765 -0.4396 -0.0167
 2574SOL    HW1 8692   4.681   3.668   1.333 -0.1074 -1.7417  0.6086
 2574SOL    HW2 8693   4.676   3.722   1.475 -1.2035  1.2607 -0.4792
 2575SOL     OW 8694   4.493   1.236   7.199 -0.0106  0.0101 -0.4224
 2575SOL    HW1 8695   4.423   1.272   7.254 -2.6952 -1.9812 -2.2280
 2575SOL    HW2 8696   4.521   1.157   7.245  1.6206  1.1551  0.6290
 2576SOL     OW 8697   4.546   2.117   2.791  0.6451 -0.0190  0.2787
 2576SOL    HW1 8698   4.465   2.091   2.835  0.8254 -0.4982  0.3328
 2576SOL    HW2 8699   4.552   2.212   2.805  0.6480 -0.1463  1.1975
 2577SOL     OW 8700   4.785   2.949   4.056  0.3876  0.2980 -0.1193
 2577SOL    HW1 8701   4.735   3.030   4.071 -0.4545 -0.5033  1.6620
 2577SOL    HW2 8702   4.873   2.970   4.087  1.0204  1.4414 -2.4671
 2578SOL     OW 8703   3.816   6.613   4.277 -0.0649 -0.0893 -0.2657
 2578SOL    HW1 8704   3.845   6.550   4.211  0.4043  1.8449 -2.0098
 2578SOL    HW2 8705   3.733   6.646   4.244 -0.2917  0.2411  0.6041
 2579SOL     OW 8706   1.826   4.816   5.051  0.0570  0.3895  0.5781
 2579SOL    HW1 8707   1.847   4.866   4.972 -1.1404 -2.3966 -1.6709
 2579SOL    HW2 8708   1.906   4.768   5.071 -0.5879 -1.5130 -1.1117
 2580SOL     OW 8709   4.195   3.940   4.228  0.0539 -0.1326 -0.0018
 2580SOL    HW1 8710   4.195   4.034   4.207 -2.3010  0.2419  1.3248
 2580SOL    HW2 8711   4.253   3.932   4.304  0.6307  0.1623 -0.4064
 2581SOL     OW 8712   5.370   5.019   6.345 -0.3010 -0.3850  0.1144
 2581SOL    HW1 8713   5.292   5.025   6.290  1.4116  0.7045 -2.3825
 2581SOL    HW2 8714   5.405   4.932   6.329 -0.6380 -0.6363  0.7236
 2582SOL     OW 8715   6.414   6.568   1.577  0.0725 -0.0786  0.1556
 2582SOL    HW1 8716   6.357   6.553   1.501  1.0278  0.7435 -0.7607
 2582SOL    HW2 8717   6.470   6.491   1.581 -0.8150 -0.7121  0.8257
 2583SOL     OW 8718   0.731   1.250   5.910 -0.4609 -0.2411  0.2619
 2583SOL    HW1 8719   0.789   1.300   5.853  0.3951 -1.8735 -0.3686
 2583SOL    HW2 8720   0.647   1.296   5.905  0.1486  0.8172 -0.6873
 2584SOL     OW 8721   6.625   3.469   4.845 -0.3374  0.1610 -0.5993
 2584SOL    HW1 8722   6.624   3.491   4.752 -0.7051 -0.4989 -0.7572
 2584SOL    HW2 8723   6.707   3.422   4.859 -0.1640  0.4790 -0.5332
 2585SOL     OW 8724   3.838   7.012   1.767 -0.4878  0.3494  0.3047
 2585SOL    HW1 8725   3.828   7.006   1.672 -1.9778 -4.0407  0.5123
 2585SOL    HW2 8726   3.929   6.986   1.783 -0.9454 -1.5409  0.0933
 2586SOL     OW 8727   6.567   6.445   2.008  0.4688 -0.5120  0.5440
 2586SOL    HW1 8728   6.503   6.378   1.983  2.2547 -2.4547  0.9283
 2586SOL    HW2 8729   6.575   6.500   1.931 -1.3645 -0.4226  0.3616
 2587SOL     OW 8730   5.452   2.039   6.778  0.0672 -0.4047 -0.2015
 2587SOL    HW1 8731   5.528   2.096   6.772 -0.0318 -0.4053 -1.8543
 2587SOL    HW2 8732   5.377   2.096   6.759 -0.2512 -0.6279  0.3491
 2588SOL     OW 8733   6.219   0.829   6.537 -0.0342  0.4450 -0.4054
 2588SOL    HW1 8734   6.133   0.864   6.560  1.3615  2.3331  2.4954
 2588SOL    HW2 8735   6.247   0.881   6.462 -1.2812 -0.0891 -1.2859
 2589SOL     OW 8736   4.549   3.382   5.303 -0.0796  0.2040  0.4210
 2589SOL    HW1 8737   4.580   3.295   5.278  1.2785  1.0209 -0.9292
 2589SOL    HW2 8738   4.485   3.366   5.372 -0.9704 -1.9631 -0.8039
 2590SOL     OW 8739   1.436   4.024   0.059  0.1597  0.1889  0.2084
 2590SOL    HW1 8740   1.445   4.109   0.016 -1.3906 -0.6001 -1.8330
 2590SOL    HW2 8741   1.404   4.044   0.147  3.1704  1.8439  1.0831
 2591SOL     OW 8742   4.395   0.073   4.283  0.2846  0.4035 -0.2518
 2591SOL    HW1 8743   4.420   0.007   4.217 -0.6427  1.4328 -1.6970
 2591SOL    HW2 8744   4.423   0.156   4.245 -1.8662  1.2053 -0.1921
 2592SOL     OW 8745   6.334   7.192   2.213 -0.1716  0.1105  0.1671
 2592SOL    HW1 8746   6.269   7.190   2.143  0.6509 -0.1653 -0.6148
 2592SOL    HW2 8747   6.314   7.115   2.266 -1.6409  1.0686  1.0384
 2593SOL     OW 8748   3.155   4.987   3.615 -0.2294 -0.2693  0.2051
 2593SOL    HW1 8749   3.193   5.067   3.652  1.5635 -1.8509  2.0241
 2593SOL    HW2 8750   3.176   4.992   3.522  1.5048  0.5293  0.5986
 2594SOL     OW 8751   1.164   6.337   3.651  0.3569 -0.0087  0.0665
 2594SOL    HW1 8752   1.252   6.299   3.648 -0.0167 -0.9493  0.4556
 2594SOL    HW2 8753   1.122   6.294   3.726 -0.7382 -0.2676 -0.6611
 2595SOL     OW 8754   2.509   4.005   6.696 -0.5733 -0.1567 -0.3330
 2595SOL    HW1 8755   2.543   3.916   6.708 -0.5921 -0.3519 -1.6323
 2595SOL    HW2 8756   2.586   4.058   6.677 -0.3418  0.4499  1.9269
 2596SOL     OW 8757   6.767   2.636   6.052 -0.1414  0.1140  0.1887
 2596SOL    HW1 8758   6.857   2.656   6.078  0.7962 -0.5831 -2.3229
 2596SOL    HW2 8759   6.740   2.565   6.110  0.9104  0.3323  0.9667
 2597SOL     OW 8760   1.469   6.968   3.703  0.4141  0.3847  0.5030
 2597SOL    HW1 8761   1.431   7.050   3.672  0.3772  0.7298  1.4123
 2597SOL    HW2 8762   1.509   6.991   3.788  1.0445 -0.3715  0.4275
 2598SOL     OW 8763   3.179   0.842   1.154 -0.1625 -0.3252  0.0494
 2598SOL    HW1 8764   3.157   0.822   1.245  1.6699 -2.2387  0.1680
 2598SOL    HW2 8765   3.172   0.758   1.109 -1.6469  0.7017 -1.7619
 2599SOL     OW 8766   2.859   6.502   6.545  0.2575 -0.1409 -0.3366
 2599SOL    HW1 8767   2.947   6.464   6.534  0.4600  0.2680 -0.1492
 2599SOL    HW2 8768   2.809   6.433   6.588  0.9937  0.2872  1.2565
 2600SOL     OW 8769   0.159   2.843   1.364  0.0607 -0.7337 -0.5132
 2600SOL    HW1 8770   0.249   2.811   1.357  0.2286 -0.1316 -1.3139
 2600SOL    HW2 8771   0.157   2.890   1.447  0.3113 -1.2495 -0.2047
 2601SOL     OW 8772   0.626   3.422   5.147 -0.0546  0.0615 -0.2068
 2601SOL    HW1 8773   0.670   3.478   5.083 -0.1965 -0.0985 -0.4456
 2601SOL    HW2 8774   0.588   3.351   5.095  1.4118 -1.1162  0.2399
 2602SOL     OW 8775   0.378   6.868   6.418  0.4963 -0.1158 -0.4799
 2602SOL    HW1 8776   0.323   6.898   6.346  1.4520  1.0367 -0.7669
 2602SOL    HW2 8777   0.427   6.794   6.383 -0.3897 -0.7541 -0.4106
 2603SOL     OW 8778   1.236   6.578   2.089  0.5269 -0.5285  0.1890
 2603SOL    HW1 8779   1.266   6.664   2.118  2.7555 -1.0230 -0.4766
 2603SOL    HW2 8780   1.185   6.596   2.010  0.1065  0.2354  0.6166
 2604SOL     OW 8781   2.662   0.814   1.961  0.5426 -0.5643  0.2350
 2604SOL    HW1 8782   2.581   0.845   1.920  0.1474  0.2117  1.5598
 2604SOL    HW2 8783   2.635   0.782   2.047  1.4098 -1.8380  0.0555
 2605SOL     OW 8784   4.849   5.778   0.615  0.1571 -0.3794 -0.6645
 2605SOL    HW1 8785   4.797   5.774   0.534 -3.2204 -0.0266  1.3031
 2605SOL    HW2 8786   4.823   5.861   0.655 -0.4149 -1.7915  2.0742
 2606SOL     OW 8787   2.947   2.128   3.492  0.4509  0.0973 -0.2896
 2606SOL    HW1 8788   2.992   2.134   3.407 -0.6724  1.6575 -0.8285
 2606SOL    HW2 8789   2.855   2.119   3.469  0.1424  0.4937  0.7714
 2607SOL     OW 8790   0.989   2.469   6.890 -0.3439  0.1035  0.0171
 2607SOL    HW1 8791   1.066   2.418   6.864 -0.4316  0.2048 -0.4594
 2607SOL    HW2 8792   1.024   2.552   6.921 -0.2359 -0.0084  0.1907
 2608SOL     OW 8793   0.433   3.777   2.372 -0.2498  0.4826  0.2634
 2608SOL    HW1 8794   0.480   3.838   2.429 -1.4776  0.3870  1.4253
 2608SOL    HW2 8795   0.354   3.824   2.346  0.4516  0.6690 -1.7231
 2609SOL     OW 8796   2.222   5.377   1.466 -0.3097 -0.1252 -0.3475
 2609SOL    HW1 8797   2.185   5.355   1.381 -1.4216  1.7953 -0.4142
 2609SOL    HW2 8798   2.303   5.424   1.447 -1.1210  1.2913 -0.4184
 2610SOL     OW 8799   5.857   5.666   5.247 -0.1748 -0.3012 -0.5869
 2610SOL    HW1 8800   5.874   5.688   5.339 -1.5359 -0.0916 -0.3685
 2610SOL    HW2 8801   5.803   5.738   5.215 -0.9065 -1.0804 -1.1469
 2611SOL     OW 8802   0.997   2.009   0.460 -0.0662  0.1493 -0.2312
 2611SOL    HW1 8803   1.019   2.044   0.546 -2.4113  0.3711  0.3530
 2611SOL    HW2 8804   0.998   2.085   0.402  1.7124 -0.0319 -0.4954
 2612SOL     OW 8805   3.542   6.679   3.179 -0.2010  1.0355  0.5488
 2612SOL    HW1 8806   3.585   6.623   3.115 -0.6171 -0.4786  1.5333
 2612SOL    HW2 8807   3.588   6.662   3.261 -2.4668 -0.5185  1.5940
 2613SOL     OW 8808   6.069   6.437   1.990  0.0597  0.1665  0.1666
 2613SOL    HW1 8809   5.993   6.378   1.998  0.9103 -0.9086  0.5728
 2613SOL    HW2 8810   6.112   6.409   1.909  1.5493 -1.1201  1.3351
 2614SOL     OW 8811   1.228   3.350   6.183 -0.5631  0.4346  0.1528
 2614SOL    HW1 8812   1.231   3.398   6.100  0.0537 -0.8294 -0.5807
 2614SOL    HW2 8813   1.155   3.290   6.173 -1.2655  1.1160  1.0278
 2615SOL     OW 8814   5.621   1.576   5.796  0.4655  0.3771  0.6559
 2615SOL    HW1 8815   5.673   1.496   5.805 -0.1180 -0.2305 -1.0628
 2615SOL    HW2 8816   5.624   1.596   5.703 -3.3862 -0.3705  0.2313
 2616SOL     OW 8817   5.912   3.409   6.845  0.0416  0.3250  0.1436
 2616SOL    HW1 8818   5.918   3.353   6.923 -3.0535 -0.3531 -0.0001
 2616SOL    HW2 8819   5.913   3.348   6.772  0.9797  0.8275 -0.2811
 2617SOL     OW 8820   1.163   7.175   4.276 -0.6065 -0.6187  0.3074
 2617SOL    HW1 8821   1.127   7.174   4.187  0.4789 -1.4663 -0.1412
 2617SOL    HW2 8822   1.136   7.260   4.312 -0.0949  0.2375 -1.2374
 2618SOL     OW 8823   4.548   6.460   6.767  0.5041  0.5425 -1.0115
 2618SOL    HW1 8824   4.499   6.393   6.814 -0.0145  0.3012 -1.8767
 2618SOL    HW2 8825   4.630   6.469   6.816 -0.0654  0.3828 -0.0093
 2619SOL     OW 8826   5.096   5.710   3.219  0.2861 -0.2867 -0.2686
 2619SOL    HW1 8827   5.147   5.791   3.219  0.9717 -0.7013  0.1653
 2619SOL    HW2 8828   5.008   5.736   3.246  1.0774 -0.0026  2.3621
 2620SOL     OW 8829   5.381   4.337   3.244 -0.7911 -0.4775 -0.5582
 2620SOL    HW1 8830   5.366   4.431   3.238 -0.7211 -0.5496 -2.6074
 2620SOL    HW2 8831   5.467   4.328   3.286 -1.1108  0.3177  0.2950
 2621SOL     OW 8832   1.669   2.783   3.938  0.2414 -0.4449 -0.1903
 2621SOL    HW1 8833   1.754   2.789   3.981 -0.0003  1.3479  0.1332
 2621SOL    HW2 8834   1.686   2.735   3.857  1.3169 -1.1425  0.4354
 2622SOL     OW 8835   4.012   2.423   6.118  0.4856  0.7535  0.2992
 2622SOL    HW1 8836   4.081   2.410   6.183  1.2776 -1.6642 -0.8983
 2622SOL    HW2 8837   4.044   2.379   6.039 -2.1288  0.0860 -0.4968
 2623SOL     OW 8838   5.813   5.409   4.091  0.6254  0.2199 -0.8578
 2623SOL    HW1 8839   5.866   5.487   4.104 -0.2651  0.5204  1.4307
 2623SOL    HW2 8840   5.724   5.436   4.114  0.0002 -1.0438 -1.6804
 2624SOL     OW 8841   2.037   2.245   0.178  0.7089  0.5379  0.2928
 2624SOL    HW1 8842   2.019   2.179   0.110 -0.0421  1.6653 -0.6495
 2624SOL    HW2 8843   1.976   2.317   0.158  2.2853  2.0144  0.5897
 2625SOL     OW 8844   6.344   5.157   1.304  0.8632 -0.0642  0.2901
 2625SOL    HW1 8845   6.414   5.185   1.362  0.7814 -0.1452  0.4297
 2625SOL    HW2 8846   6.269   5.144   1.362  0.9286 -0.6671  0.2454
 2626SOL     OW 8847   2.659   5.907   3.058 -0.5789  0.2479 -0.0322
 2626SOL    HW1 8848   2.704   5.974   3.007  1.8803 -2.0698 -1.2205
 2626SOL    HW2 8849   2.672   5.933   3.149 -0.3397  1.7271 -0.4595
 2627SOL     OW 8850   6.606   1.747   0.732  0.5465 -0.4378  0.3191
 2627SOL    HW1 8851   6.538   1.810   0.755  1.0889 -0.1597  1.2159
 2627SOL    HW2 8852   6.574   1.664   0.766  0.2308 -0.4839 -0.0879
 2628SOL     OW 8853   5.915   5.569   0.475 -0.1077 -0.3967 -0.5076
 2628SOL    HW1 8854   5.870   5.606   0.399 -1.2818 -0.5561  0.0998
 2628SOL    HW2 8855   6.002   5.545   0.442 -0.6711 -0.6558 -1.8494
 2629SOL     OW 8856   3.854   1.647   4.706  1.0193  0.6139  0.0895
 2629SOL    HW1 8857   3.919   1.577   4.700  1.0060  0.4409  1.7175
 2629SOL    HW2 8858   3.876   1.706   4.634  2.4066  0.0818  0.0547
 2630SOL     OW 8859   2.196   3.053   6.802 -0.0504  0.1159 -0.0777
 2630SOL    HW1 8860   2.132   2.990   6.768 -0.2263  0.3583 -0.2023
 2630SOL    HW2 8861   2.247   3.004   6.866 -0.4374 -0.0541  0.1030
 2631SOL     OW 8862   4.175   4.208   4.110 -0.7429  0.4102  0.3686
 2631SOL    HW1 8863   4.174   4.296   4.073 -1.1172  0.2990  0.1021
 2631SOL    HW2 8864   4.211   4.153   4.040  0.7818  0.5454  1.0150
 2632SOL     OW 8865   4.355   7.349   4.618  0.9087 -0.4533  0.6999
 2632SOL    HW1 8866   4.321   7.414   4.556  0.0950 -1.6755 -0.1813
 2632SOL    HW2 8867   4.296   7.274   4.608  1.3519 -1.0447  2.2659
 2633SOL     OW 8868   5.170   1.417   7.172  0.1145  0.0687  0.3150
 2633SOL    HW1 8869   5.210   1.490   7.220  3.0724 -0.3395 -1.2448
 2633SOL    HW2 8870   5.184   1.341   7.228 -0.8436  0.3111  0.9010
 2634SOL     OW 8871   1.218   3.890   1.978 -0.1593 -0.1276  0.4527
 2634SOL    HW1 8872   1.126   3.893   1.954 -0.5144  1.4848  1.8125
 2634SOL    HW2 8873   1.220   3.914   2.071  1.8214  3.4620 -0.3060
 2635SOL     OW 8874   7.378   3.238   5.058 -0.6225  0.1261 -0.0288
 2635SOL    HW1 8875   7.299   3.186   5.048 -0.0766 -0.8114  0.3649
 2635SOL    HW2 8876   7.354   3.326   5.027 -1.4080 -0.4873 -1.2011
 2636SOL     OW 8877   5.826   4.439   1.649 -0.2079 -0.0484  0.0310
 2636SOL    HW1 8878   5.897   4.463   1.708 -2.0967 -0.3787  2.5924
 2636SOL    HW2 8879   5.786   4.523   1.625  0.9390  0.1355 -1.3902
 2637SOL     OW 8880   4.760   6.046   1.679 -0.0286 -0.3976 -0.2777
 2637SOL    HW1 8881   4.739   6.138   1.696  0.7178 -0.6370  2.4518
 2637SOL    HW2 8882   4.699   5.998   1.735  1.3002 -1.4246  0.3375
 2638SOL     OW 8883   0.185   1.984   2.594  0.6053  0.2052 -0.1507
 2638SOL    HW1 8884   0.246   2.047   2.633 -1.0158  1.5797  0.2632
 2638SOL    HW2 8885   0.160   2.023   2.511 -0.3925  0.1049  0.0929
 2639SOL     OW 8886   5.518   1.189   2.076 -0.9183  0.1722 -0.4931
 2639SOL    HW1 8887   5.443   1.245   2.095 -0.8625  0.9643 -2.4737
 2639SOL    HW2 8888   5.481   1.113   2.030 -0.4207  1.1770 -2.6546
 2640SOL     OW 8889   0.110   3.611   1.616 -0.2499  0.4086 -0.2111
 2640SOL    HW1 8890   0.193   3.645   1.583 -1.2503  1.4930 -1.7204
 2640SOL    HW2 8891   0.045   3.637   1.551 -1.9426  0.4343  1.3975
 2641SOL     OW 8892   3.040   0.855   6.309  0.0852 -0.0094  0.2883
 2641SOL    HW1 8893   2.969   0.809   6.354 -1.4557  3.2568  1.4745
 2641SOL    HW2 8894   3.116   0.843   6.366 -0.3944 -0.5947  0.8252
 2642SOL     OW 8895   7.021   6.175   4.269  0.8554  0.6676  0.3930
 2642SOL    HW1 8896   6.949   6.216   4.316  1.4946 -0.0764  2.0801
 2642SOL    HW2 8897   6.980   6.134   4.193 -0.3346  1.1404  0.7553
 2643SOL     OW 8898   6.637   2.548   2.150  0.3094 -0.6259 -0.0399
 2643SOL    HW1 8899   6.614   2.456   2.163 -0.1159 -0.7988 -1.7482
 2643SOL    HW2 8900   6.656   2.555   2.057  3.2081  0.4232  0.5218
 2644SOL     OW 8901   6.881   0.294   5.098 -0.4194  0.4929  0.1948
 2644SOL    HW1 8902   6.862   0.339   5.181 -0.5134  0.6503  0.0881
 2644SOL    HW2 8903   6.796   0.267   5.065 -0.6110  2.3020 -0.9111
 2645SOL     OW 8904   4.029   4.154   3.137  0.3951 -0.3792  0.7460
 2645SOL    HW1 8905   3.951   4.107   3.166  0.6035 -0.3239  1.4271
 2645SOL    HW2 8906   4.073   4.095   3.076  0.9721 -1.3472  2.0345
 2646SOL     OW 8907   0.981   4.567   1.837 -0.0944  0.2918 -0.3881
 2646SOL    HW1 8908   1.034   4.507   1.785 -1.4762 -0.2051 -1.2429
 2646SOL    HW2 8909   1.038   4.644   1.848  0.2819  0.3923 -2.5684
 2647SOL     OW 8910   0.451   1.608   3.305  0.2502  0.0458 -0.6296
 2647SOL    HW1 8911   0.489   1.681   3.352 -0.5556  0.6549 -0.8920
 2647SOL    HW2 8912   0.360   1.634   3.289  0.1611 -0.6740 -1.4108
 2648SOL     OW 8913   4.528   5.767   2.273  0.0192  0.7275  0.2736
 2648SOL    HW1 8914   4.487   5.845   2.310 -0.3750  1.4256 -1.5186
 2648SOL    HW2 8915   4.549   5.792   2.183  2.1129 -0.4423  0.3801
 2649SOL     OW 8916   6.639   1.271   3.150 -0.0063  0.1809 -0.0863
 2649SOL    HW1 8917   6.630   1.315   3.065 -0.3075  1.3496  0.5294
 2649SOL    HW2 8918   6.616   1.338   3.214  0.7046 -0.5370  0.9521
 2650SOL     OW 8919   0.805   0.369   3.259  0.3807 -0.0854 -0.4336
 2650SOL    HW1 8920   0.757   0.346   3.179 -0.7041 -1.5073  0.5795
 2650SOL    HW2 8921   0.741   0.415   3.313  1.4571  1.9766 -0.8423
 2651SOL     OW 8922   7.071   2.710   0.780  0.2969  0.9109  0.0644
 2651SOL    HW1 8923   7.081   2.758   0.698  1.7080  1.5574  0.5781
 2651SOL    HW2 8924   7.116   2.627   0.766  2.1038  1.7281  0.7055
 2652SOL     OW 8925   5.054   7.369   0.379 -0.2977  0.1840 -0.6356
 2652SOL    HW1 8926   4.979   7.391   0.324 -0.2583  0.8504 -0.4317
 2652SOL    HW2 8927   5.112   7.319   0.321 -0.7787 -0.1136 -0.8628
 2653SOL     OW 8928   2.762   4.566   1.182  0.0683  0.3234 -0.1045
 2653SOL    HW1 8929   2.683   4.616   1.162 -0.8486 -1.3799 -0.9178
 2653SOL    HW2 8930   2.813   4.568   1.102 -0.5589 -1.0431 -0.5640
 2654SOL     OW 8931   1.502   2.141   3.182  0.3292 -0.3433  0.1515
 2654SOL    HW1 8932   1.547   2.183   3.255 -2.8512  3.1506  0.4068
 2654SOL    HW2 8933   1.541   2.179   3.104  0.4670 -0.3434  0.2212
 2655SOL     OW 8934   2.578   1.299   0.555  0.4409  0.2230 -0.1962
 2655SOL    HW1 8935   2.507   1.361   0.571  0.8108  0.3715  0.9779
 2655SOL    HW2 8936   2.652   1.333   0.605  0.7828 -0.9134  0.1173
 2656SOL     OW 8937   3.705   2.987   5.225  0.5714 -0.0920 -0.6988
 2656SOL    HW1 8938   3.652   3.042   5.167  0.4061  0.4454 -0.0492
 2656SOL    HW2 8939   3.653   2.981   5.305  1.3697  0.2342 -0.1448
 2657SOL     OW 8940   1.438   5.246   2.179  0.2938  0.0823 -0.1429
 2657SOL    HW1 8941   1.481   5.216   2.099 -0.1915  1.1298 -0.8154
 2657SOL    HW2 8942   1.345   5.247   2.158  0.1025 -0.2339  0.6478
 2658SOL     OW 8943   4.486   3.247   4.298 -0.6145 -0.1460  0.2795
 2658SOL    HW1 8944   4.395   3.279   4.298 -0.7333 -0.4759  0.7478
 2658SOL    HW2 8945   4.479   3.156   4.327 -0.2652 -0.5848 -0.9495
 2659SOL     OW 8946   1.226   0.691   6.052  0.6163 -0.7418  0.2868
 2659SOL    HW1 8947   1.186   0.719   6.135 -2.6602  0.6292 -1.5885
 2659SOL    HW2 8948   1.265   0.770   6.016  0.1728 -0.8532 -0.4461
 2660SOL     OW 8949   0.271   3.262   1.732 -0.8875  0.5418  0.4794
 2660SOL    HW1 8950   0.204   3.298   1.673 -2.7633 -1.5887  1.1329
 2660SOL    HW2 8951   0.340   3.230   1.673 -2.7516 -1.6141 -0.7087
 2661SOL     OW 8952   1.096   0.631   3.745 -0.3844  0.1652 -0.2258
 2661SOL    HW1 8953   1.177   0.595   3.781  1.2948 -0.0376 -3.7767
 2661SOL    HW2 8954   1.078   0.577   3.668 -3.3659  0.8849 -0.1473
 2662SOL     OW 8955   5.489   2.901   3.747  0.4467 -0.8135 -0.0248
 2662SOL    HW1 8956   5.542   2.849   3.687  0.6853 -0.9776  0.3234
 2662SOL    HW2 8957   5.550   2.926   3.816  0.2437 -0.3752 -0.0057
 2663SOL     OW 8958   4.707   5.499   4.865 -0.4011  0.2349 -0.1639
 2663SOL    HW1 8959   4.633   5.479   4.924  1.4167  0.5881  2.3995
 2663SOL    HW2 8960   4.748   5.414   4.849 -1.3131  0.0369 -1.5978
 2664SOL     OW 8961   3.654   1.972   2.703 -0.0065 -0.6027 -0.4436
 2664SOL    HW1 8962   3.631   1.991   2.612 -0.5860 -1.0390 -0.3946
 2664SOL    HW2 8963   3.637   1.878   2.713 -0.4078 -0.4693  0.2426
 2665SOL     OW 8964   1.689   4.201   1.893 -0.3710 -0.1326 -0.1287
 2665SOL    HW1 8965   1.598   4.226   1.911 -0.5363  0.2264 -1.4113
 2665SOL    HW2 8966   1.706   4.232   1.804  1.3178  0.6852  0.4257
 2666SOL     OW 8967   4.430   2.098   1.226 -0.1184  0.5310 -0.0680
 2666SOL    HW1 8968   4.442   2.188   1.196  0.8613  0.5317  0.2892
 2666SOL    HW2 8969   4.460   2.044   1.153  0.8695  0.5198  0.3325
 2667SOL     OW 8970   6.576   3.018   1.462 -0.2296  0.2876 -0.4543
 2667SOL    HW1 8971   6.619   2.981   1.385  1.1914 -0.4107  0.6309
 2667SOL    HW2 8972   6.530   3.095   1.429  1.6770  0.9374 -1.7248
 2668SOL     OW 8973   2.230   5.143   4.807  0.0831  0.0242 -0.7391
 2668SOL    HW1 8974   2.228   5.049   4.790  0.4079 -0.2265  0.5323
 2668SOL    HW2 8975   2.142   5.173   4.781  0.2040 -0.4880 -1.8071
 2669SOL     OW 8976   3.503   6.062   4.383 -0.1757 -0.1349  0.6113
 2669SOL    HW1 8977   3.581   6.110   4.355 -0.7791  1.6597  1.8435
 2669SOL    HW2 8978   3.537   5.985   4.430  0.8392  0.4092  0.7884
 2670SOL     OW 8979   6.760   2.803   0.157  0.2377 -0.2411  0.0116
 2670SOL    HW1 8980   6.834   2.801   0.217  0.5511  1.2847 -0.2738
 2670SOL    HW2 8981   6.778   2.733   0.095  0.0842 -1.6055  1.4580
 2671SOL     OW 8982   3.313   2.006   0.753  0.0241 -0.1946 -0.7572
 2671SOL    HW1 8983   3.247   2.075   0.739 -1.6891 -1.5524  0.2818
 2671SOL    HW2 8984   3.397   2.051   0.740 -0.9784  2.3368  0.7486
 2672SOL     OW 8985   0.508   4.695   1.660  0.0222 -0.5227  0.5444
 2672SOL    HW1 8986   0.603   4.697   1.646  0.0226  0.4765  0.6411
 2672SOL    HW2 8987   0.472   4.665   1.576  0.3516  0.4116  0.0532
 2673SOL     OW 8988   4.734   3.662   5.454 -0.1467  0.4005  0.5467
 2673SOL    HW1 8989   4.657   3.673   5.399 -0.3013 -1.0108  0.4399
 2673SOL    HW2 8990   4.712   3.590   5.513  2.0233 -1.9001 -1.2731
 2674SOL     OW 8991   4.376   6.636   0.458  0.8687 -0.7266  0.5429
 2674SOL    HW1 8992   4.350   6.604   0.371  1.0137 -1.1924  0.6685
 2674SOL    HW2 8993   4.404   6.558   0.505  4.9296 -0.0395 -0.4016
 2675SOL     OW 8994   7.163   0.830   4.752  0.4428 -0.4354 -0.4398
 2675SOL    HW1 8995   7.241   0.865   4.710 -0.1190  0.2485 -0.9253
 2675SOL    HW2 8996   7.163   0.737   4.729  2.9207 -1.2659  2.3468
 2676SOL     OW 8997   3.984   0.380   4.252  0.1741  0.0895 -0.1822
 2676SOL    HW1 8998   3.980   0.440   4.326 -1.9299  0.4094 -0.5000
 2676SOL    HW2 8999   3.908   0.323   4.262  0.9788 -1.1997 -1.0188
 2677SOL     OW 9000   3.871   0.158   6.962 -0.1395  0.2803 -0.6841
 2677SOL    HW1 9001   3.935   0.116   7.020  2.1553  1.0273 -2.5141
 2677SOL    HW2 9002   3.829   0.224   7.017 -0.5172 -1.2714  0.9869
 2678SOL     OW 9003   1.503   4.249   3.419 -0.4206  0.3092 -0.9376
 2678SOL    HW1 9004   1.496   4.175   3.358  0.8841  0.4775 -1.3096
 2678SOL    HW2 9005   1.597   4.260   3.433 -0.6416  1.2892 -0.1266
 2679SOL     OW 9006   3.220   4.676   0.519 -0.6387  0.0029 -0.2486
 2679SOL    HW1 9007   3.170   4.677   0.437 -1.1710 -0.3129  0.0626
 2679SOL    HW2 9008   3.301   4.721   0.498 -0.9910  0.3950 -0.8083
 2680SOL     OW 9009   0.814   6.381   4.096 -0.3537  0.0296  0.2507
 2680SOL    HW1 9010   0.774   6.297   4.074  0.2248 -0.2464  0.2243
 2680SOL    HW2 9011   0.891   6.386   4.040 -0.2354  0.4521  0.4495
 2681SOL     OW 9012   1.404   0.649   5.169 -0.4611 -0.2078 -0.1043
 2681SOL    HW1 9013   1.493   0.647   5.131 -0.3756  0.9366  0.0128
 2681SOL    HW2 9014   1.380   0.557   5.177  1.2785 -0.5916  1.1610
 2682SOL     OW 9015   3.834   6.067   7.367 -0.6199 -0.2127  0.2509
 2682SOL    HW1 9016   3.889   6.143   7.346  1.1197 -1.5989 -0.4811
 2682SOL    HW2 9017   3.842   6.058   7.462  2.9426 -2.0453 -0.0392
 2683SOL     OW 9018   7.288   2.260   6.083 -0.4318  0.5637 -0.1142
 2683SOL    HW1 9019   7.345   2.315   6.137  0.3466  0.1565 -0.5050
 2683SOL    HW2 9020   7.288   2.175   6.127 -1.6549  0.8651  0.5041
 2684SOL     OW 9021   4.517   1.749   5.131  0.0064  0.2373 -0.2660
 2684SOL    HW1 9022   4.612   1.741   5.139 -0.0867 -1.1162 -0.2849
 2684SOL    HW2 9023   4.504   1.792   5.046  0.6014  0.3508 -0.3038
 2685SOL     OW 9024   3.647   4.477   1.952 -0.1715 -0.7778  0.0770
 2685SOL    HW1 9025   3.683   4.532   1.882  1.5894 -2.5774 -0.5299
 2685SOL    HW2 9026   3.681   4.516   2.032 -0.9688  0.4120 -0.1206
 2686SOL     OW 9027   0.400   3.955   7.125  0.0607  0.6501 -0.0351
 2686SOL    HW1 9028   0.474   3.895   7.125 -0.8050 -0.5587 -2.7101
 2686SOL    HW2 9029   0.427   4.027   7.068 -0.6828  0.3323 -0.8157
 2687SOL     OW 9030   5.983   6.848   6.164  0.2564  0.0486  0.0420
 2687SOL    HW1 9031   6.005   6.868   6.255 -0.3929 -0.7674  0.3989
 2687SOL    HW2 9032   6.061   6.872   6.114  1.0136 -0.4724  0.9488
 2688SOL     OW 9033   6.998   1.371   3.646  0.1599  0.0428  0.0381
 2688SOL    HW1 9034   6.914   1.411   3.666 -0.3842 -0.3754 -1.3425
 2688SOL    HW2 9035   7.034   1.423   3.574  1.2967  0.4841  0.8895
 2689SOL     OW 9036   3.270   4.313   2.308  0.3642  0.4629  0.4989
 2689SOL    HW1 9037   3.204   4.253   2.345  1.6904  0.0531  2.3435
 2689SOL    HW2 9038   3.302   4.362   2.384  1.2627  1.5757 -0.5729
 2690SOL     OW 9039   0.107   5.849   5.201 -0.3785 -0.1915  0.2294
 2690SOL    HW1 9040   0.044   5.903   5.248 -0.3866  0.2575 -0.2882
 2690SOL    HW2 9041   0.169   5.911   5.163 -1.2887 -0.3661 -1.7063
 2691SOL     OW 9042   6.287   4.522   6.228 -0.1206  0.4484 -0.0166
 2691SOL    HW1 9043   6.215   4.552   6.172  0.2730  1.5639  0.0488
 2691SOL    HW2 9044   6.297   4.429   6.207 -1.2937  0.3798 -0.3358
 2692SOL     OW 9045   2.827   0.352   2.011 -0.4337  0.1944  0.0731
 2692SOL    HW1 9046   2.748   0.396   2.043 -0.8085 -0.2018 -0.2944
 2692SOL    HW2 9047   2.801   0.261   1.999  0.1562  0.0032  0.1946
 2693SOL     OW 9048   2.472   3.358   5.281 -0.3312 -0.3285 -0.4212
 2693SOL    HW1 9049   2.458   3.265   5.297 -0.7532 -0.5843 -2.1275
 2693SOL    HW2 9050   2.566   3.369   5.275 -0.2995 -0.7002 -0.5625
 2694SOL     OW 9051   6.941   2.841   3.483  0.0952  0.2742 -0.1539
 2694SOL    HW1 9052   6.897   2.756   3.477  0.2260  0.1621  0.4129
 2694SOL    HW2 9053   7.033   2.819   3.496 -0.0830  0.4755  1.6801
 2695SOL     OW 9054   7.276   3.007   4.278  0.2094  0.1515  0.4214
 2695SOL    HW1 9055   7.306   2.943   4.213  1.4356  2.7989 -1.7829
 2695SOL    HW2 9056   7.181   3.000   4.277  0.1165  0.7656 -2.4778
 2696SOL     OW 9057   5.433   5.564   7.248 -0.1220 -0.0798  0.0171
 2696SOL    HW1 9058   5.403   5.650   7.279 -1.0336 -0.4654  0.2453
 2696SOL    HW2 9059   5.443   5.576   7.153  0.1410  0.3837  0.0995
 2697SOL     OW 9060   1.344   6.371   6.889 -0.0749 -0.1885 -0.6657
 2697SOL    HW1 9061   1.333   6.343   6.980  0.1065 -0.2512 -0.6625
 2697SOL    HW2 9062   1.275   6.324   6.842  1.0524 -1.7047 -0.8731
 2698SOL     OW 9063   4.108   0.042   4.232  0.7857  0.0654 -0.0941
 2698SOL    HW1 9064   4.049   0.018   4.303  1.5046 -0.8729  0.2129
 2698SOL    HW2 9065   4.183   0.083   4.276  1.6500 -1.3424 -0.1974
 2699SOL     OW 9066   0.945   4.883   1.958 -0.0149 -0.0284 -0.6832
 2699SOL    HW1 9067   0.990   4.932   1.890 -0.7123  1.0192 -0.4151
 2699SOL    HW2 9068   0.862   4.929   1.969  0.1798 -0.0344  1.0326
 2700SOL     OW 9069   0.993   2.539   3.571 -0.1551  0.1004  0.4321
 2700SOL    HW1 9070   0.915   2.496   3.535  0.1287 -1.1299  1.2241
 2700SOL    HW2 9071   1.058   2.469   3.579  0.8271  0.9676  0.4228
 2701SOL     OW 9072   3.096   4.363   4.614  0.0357 -0.2136 -0.0102
 2701SOL    HW1 9073   3.046   4.281   4.613 -1.1445  0.4844 -0.6260
 2701SOL    HW2 9074   3.070   4.406   4.696 -0.3516  0.1385 -0.3174
 2702SOL     OW 9075   0.800   3.572   3.295 -0.0240 -0.2857  0.3553
 2702SOL    HW1 9076   0.855   3.598   3.222  0.4752 -1.7940  0.1512
 2702SOL    HW2 9077   0.816   3.637   3.363  0.9296  0.0777 -0.2071
 2703SOL     OW 9078   3.910   7.288   4.384  0.1955  0.0405 -0.2421
 2703SOL    HW1 9079   3.830   7.328   4.350  0.8441  1.0756 -0.6340
 2703SOL    HW2 9080   3.904   7.298   4.479 -0.0374  0.3356 -0.2853
 2704SOL     OW 9081   5.633   5.369   3.174 -0.0626  0.6882 -0.0850
 2704SOL    HW1 9082   5.548   5.406   3.196  0.0044  1.2996 -0.8499
 2704SOL    HW2 9083   5.613   5.286   3.130 -0.2667  0.9077 -0.4058
 2705SOL     OW 9084   2.041   2.955   3.315  0.5844  0.5676  0.4435
 2705SOL    HW1 9085   2.097   2.888   3.355  1.2893  2.0694  2.1038
 2705SOL    HW2 9086   2.102   3.025   3.289  0.2094 -0.3436 -3.5761
 2706SOL     OW 9087   0.100   6.833   1.229 -0.1519  0.1861  0.1982
 2706SOL    HW1 9088   0.136   6.769   1.290  0.9762  2.3505  1.9378
 2706SOL    HW2 9089   0.103   6.789   1.144  2.0456 -1.5005  1.0545
 2707SOL     OW 9090   6.861   2.155   5.548  0.0023  0.2014  0.1961
 2707SOL    HW1 9091   6.858   2.071   5.503  2.8241 -0.0815  0.3815
 2707SOL    HW2 9092   6.868   2.220   5.477  0.3880  0.0707  0.1120
 2708SOL     OW 9093   0.913   1.228   3.980  0.2430 -0.5099 -0.4287
 2708SOL    HW1 9094   0.831   1.189   3.951  0.4118 -0.9276 -0.3618
 2708SOL    HW2 9095   0.980   1.163   3.957  0.3976 -0.8125  0.7784
 2709SOL     OW 9096   1.125   5.363   3.012 -0.1054 -0.4192  0.1298
 2709SOL    HW1 9097   1.066   5.299   2.971  0.3720 -0.6667 -0.1911
 2709SOL    HW2 9098   1.210   5.319   3.013  0.0496 -0.1126  0.6919
 2710SOL     OW 9099   4.796   0.620   4.394 -0.5150  0.1922 -0.1056
 2710SOL    HW1 9100   4.877   0.573   4.417  0.7499  1.7538 -1.1691
 2710SOL    HW2 9101   4.826   0.702   4.356 -2.6543  2.1108  2.0516
 2711SOL     OW 9102   5.775   5.261   5.013 -0.1158 -0.0056 -0.5316
 2711SOL    HW1 9103   5.698   5.263   5.069  0.7373  0.1793  0.6729
 2711SOL    HW2 9104   5.817   5.345   5.026  1.3615 -0.8505  0.4088
 2712SOL     OW 9105   2.417   3.140   5.479  0.1476 -0.0652 -0.5402
 2712SOL    HW1 9106   2.512   3.138   5.471  0.3370  0.0155  1.3410
 2712SOL    HW2 9107   2.390   3.049   5.467  0.3739  0.0050 -1.7181
 2713SOL     OW 9108   5.048   7.295   1.469  0.1831 -0.2196  0.1771
 2713SOL    HW1 9109   5.141   7.271   1.469  0.5314  1.0985 -0.3840
 2713SOL    HW2 9110   5.003   7.216   1.437  1.4779  0.4359 -3.7693
 2714SOL     OW 9111   3.410   0.210   0.350 -0.8315 -0.0914 -0.2013
 2714SOL    HW1 9112   3.458   0.143   0.302 -0.6809  1.7298 -2.7591
 2714SOL    HW2 9113   3.326   0.216   0.305 -0.9340  1.2638  0.1408
 2715SOL     OW 9114   4.261   0.664   6.308 -0.1339 -0.7352  0.2370
 2715SOL    HW1 9115   4.178   0.675   6.354  0.3626 -0.5999  1.1457
 2715SOL    HW2 9116   4.301   0.751   6.310  0.4070 -0.9862  0.5787
 2716SOL     OW 9117   0.097   3.286   5.358  0.5603 -0.0048  0.0924
 2716SOL    HW1 9118   0.059   3.284   5.270 -0.0731  2.0523  0.2570
 2716SOL    HW2 9119   0.157   3.211   5.360 -1.0756 -1.4421 -1.2961
 2717SOL     OW 9120   5.493   1.904   2.376  0.4555  0.4600 -0.4639
 2717SOL    HW1 9121   5.498   2.000   2.380 -2.3763  0.6562  0.1036
 2717SOL    HW2 9122   5.471   1.885   2.285  2.6169  0.1538 -0.9926
 2718SOL     OW 9123   2.990   6.129   4.971  0.2292 -0.0562 -0.1331
 2718SOL    HW1 9124   3.045   6.125   4.893 -0.5154  0.4244 -0.6931
 2718SOL    HW2 9125   2.914   6.181   4.945 -1.1660 -1.8165  0.2069
 2719SOL     OW 9126   2.721   4.495   5.834  0.6341 -0.4050 -0.1167
 2719SOL    HW1 9127   2.753   4.417   5.880  0.6481 -1.1405 -1.3308
 2719SOL    HW2 9128   2.794   4.557   5.840  0.9557 -0.8000  0.1178
 2720SOL     OW 9129   1.080   6.106   5.606  0.2786  0.3904 -0.4124
 2720SOL    HW1 9130   1.163   6.104   5.654  0.1506  1.6043 -0.1117
 2720SOL    HW2 9131   1.021   6.051   5.657  0.2566  1.3545  0.6390
 2721SOL     OW 9132   4.231   6.010   0.891 -0.0738 -0.4037 -0.4657
 2721SOL    HW1 9133   4.179   5.966   0.824 -0.2529 -1.0760  0.1146
 2721SOL    HW2 9134   4.288   5.942   0.927  0.3623  0.0602 -0.2545
 2722SOL     OW 9135   1.580   0.848   3.568  0.1314  0.0583  0.7402
 2722SOL    HW1 9136   1.563   0.891   3.485 -0.9576 -1.3438  0.1889
 2722SOL    HW2 9137   1.523   0.893   3.631  0.0235  0.3128  0.4589
 2723SOL     OW 9138   2.414   3.323   5.993  0.4251  0.2472 -0.1547
 2723SOL    HW1 9139   2.343   3.260   5.989  1.1586 -0.6031 -0.1213
 2723SOL    HW2 9140   2.398   3.372   6.074 -0.1961  0.1676 -0.2243
 2724SOL     OW 9141   5.659   7.041   4.799  0.3219 -0.2070 -1.0716
 2724SOL    HW1 9142   5.632   6.958   4.840  2.2890  0.2220  1.3160
 2724SOL    HW2 9143   5.631   7.032   4.708 -0.7848 -2.9028 -0.5812
 2725SOL     OW 9144   1.586   0.735   0.775 -0.1818 -0.4078  0.4852
 2725SOL    HW1 9145   1.498   0.772   0.772  0.2757  0.7610  0.9139
 2725SOL    HW2 9146   1.644   0.810   0.758  0.7641 -0.9679  1.1626
 2726SOL     OW 9147   2.601   1.455   3.016  0.2661  0.4631 -0.1924
 2726SOL    HW1 9148   2.670   1.491   2.961 -1.4692  0.3487 -2.5680
 2726SOL    HW2 9149   2.648   1.401   3.080  2.3685  0.3781 -1.6981
 2727SOL     OW 9150   4.454   6.456   6.517 -0.5570  0.1982 -0.2581
 2727SOL    HW1 9151   4.492   6.448   6.604  0.2334 -1.1457 -0.6916
 2727SOL    HW2 9152   4.414   6.542   6.516  0.2623  0.6257  1.1096
 2728SOL     OW 9153   2.704   6.172   4.494  0.1388  0.1686 -0.0925
 2728SOL    HW1 9154   2.728   6.091   4.540 -2.8602  0.1485  1.7366
 2728SOL    HW2 9155   2.736   6.242   4.551 -0.3807  0.2052  0.1557
 2729SOL     OW 9156   0.771   2.742   2.867 -0.4810 -0.5819  0.4631
 2729SOL    HW1 9157   0.726   2.688   2.932 -0.1061 -1.4807 -0.0023
 2729SOL    HW2 9158   0.778   2.686   2.790 -0.0885  0.1416 -0.0472
 2730SOL     OW 9159   2.620   6.538   2.850  0.3437 -0.5575  0.5952
 2730SOL    HW1 9160   2.530   6.554   2.878  0.0572  0.2428 -0.6854
 2730SOL    HW2 9161   2.615   6.532   2.755  1.5263 -1.3855  0.5617
 2731SOL     OW 9162   4.966   2.952   4.684  0.3223  0.5646  0.5156
 2731SOL    HW1 9163   4.892   2.899   4.654 -1.1411  1.4587  2.2908
 2731SOL    HW2 9164   5.005   2.987   4.604 -1.9870  1.0623 -0.4771
 2732SOL     OW 9165   7.195   7.291   6.234  0.2627 -0.2728 -0.4614
 2732SOL    HW1 9166   7.272   7.304   6.290 -0.0080  0.3045 -0.2094
 2732SOL    HW2 9167   7.217   7.338   6.153  0.3671 -0.5119 -0.5727
 2733SOL     OW 9168   5.787   3.776   5.493 -0.3715 -0.1639  0.1218
 2733SOL    HW1 9169   5.756   3.761   5.403 -1.2228 -0.0844  0.3966
 2733SOL    HW2 9170   5.855   3.710   5.506 -2.2002 -2.0781  0.3914
 2734SOL     OW 9171   4.198   3.828   5.843  0.3852  0.2009  0.1167
 2734SOL    HW1 9172   4.209   3.747   5.893  0.5496  0.1090 -0.0719
 2734SOL    HW2 9173   4.232   3.809   5.756 -1.5659 -0.2382 -0.6213
 2735SOL     OW 9174   5.947   0.437   2.832  1.1445 -0.2719  0.4668
 2735SOL    HW1 9175   5.905   0.512   2.791  0.7658 -1.0939 -0.6967
 2735SOL    HW2 9176   6.040   0.449   2.814  1.0760 -0.1417  0.2062
 2736SOL     OW 9177   6.544   1.750   3.617 -0.5294 -0.0360 -0.1633
 2736SOL    HW1 9178   6.474   1.754   3.552 -1.7082 -0.1618  1.0241
 2736SOL    HW2 9179   6.586   1.836   3.614 -0.6477 -0.0073 -0.9915
 2737SOL     OW 9180   2.766   2.170   1.272 -0.4138  0.2974 -0.0965
 2737SOL    HW1 9181   2.824   2.241   1.244  1.4321 -1.2291 -0.3558
 2737SOL    HW2 9182   2.695   2.171   1.208  0.2383  1.1090 -0.8356
 2738SOL     OW 9183   6.513   1.033   3.104  0.0882  0.3314 -0.5639
 2738SOL    HW1 9184   6.574   0.960   3.097 -0.3191 -0.3066  1.6823
 2738SOL    HW2 9185   6.559   1.100   3.154 -0.5900  0.3601  0.0435
 2739SOL     OW 9186   7.272   1.900   0.438 -0.0966  0.0883  0.2433
 2739SOL    HW1 9187   7.332   1.968   0.468  0.9776 -0.1728 -1.2114
 2739SOL    HW2 9188   7.226   1.939   0.364  0.0297 -0.5361 -0.1697
 2740SOL     OW 9189   2.065   6.987   3.711 -0.4433 -0.2718 -0.0722
 2740SOL    HW1 9190   2.024   7.011   3.795 -1.4629 -0.4574 -0.5054
 2740SOL    HW2 9191   2.144   7.042   3.707 -0.9864  0.5758  0.4802
 2741SOL     OW 9192   2.532   7.371   2.074 -0.2006  0.0736 -0.2557
 2741SOL    HW1 9193   2.473   7.438   2.110 -0.1380  0.6783 -1.2365
 2741SOL    HW2 9194   2.487   7.341   1.995  0.3568 -0.1545 -0.4846
 2742SOL     OW 9195   7.297   4.807   2.632  0.0381  0.4538 -0.8526
 2742SOL    HW1 9196   7.358   4.820   2.559  0.6916 -1.7801 -0.8020
 2742SOL    HW2 9197   7.353   4.780   2.705 -0.8331  0.0987 -0.2999
 2743SOL     OW 9198   4.332   2.838   5.322 -0.6374 -0.5590  0.8127
 2743SOL    HW1 9199   4.285   2.893   5.260 -1.5025 -1.3135  0.7757
 2743SOL    HW2 9200   4.314   2.877   5.407  1.6753  1.3132  0.5766
 2744SOL     OW 9201   7.005   6.067   1.616  0.3936 -0.1639  0.0438
 2744SOL    HW1 9202   7.082   6.079   1.671 -0.3659 -0.4224  1.1997
 2744SOL    HW2 9203   6.959   5.993   1.656 -0.8196  0.4456 -0.1850
 2745SOL     OW 9204   5.502   6.171   3.502  0.1820  0.3189 -1.3282
 2745SOL    HW1 9205   5.441   6.182   3.429 -3.2565  2.2755  1.5362
 2745SOL    HW2 9206   5.556   6.250   3.501 -1.3407  1.4298 -0.6374
 2746SOL     OW 9207   3.060   7.177   3.051 -0.0018 -0.3894 -0.5465
 2746SOL    HW1 9208   3.069   7.173   3.146 -1.1770 -0.2920 -0.4107
 2746SOL    HW2 9209   3.148   7.163   3.017  0.7750  1.3333  0.6003
 2747SOL     OW 9210   3.439   0.148   6.448 -0.1440  0.0647  0.0776
 2747SOL    HW1 9211   3.448   0.156   6.543  0.2254 -0.7358  0.1192
 2747SOL    HW2 9212   3.349   0.119   6.434  0.2095 -1.1881  0.2851
 2748SOL     OW 9213   1.048   1.388   1.372 -0.5784 -0.5478 -0.2640
 2748SOL    HW1 9214   1.124   1.360   1.320  1.0384  0.7108  1.3195
 2748SOL    HW2 9215   1.065   1.354   1.459 -0.4808  1.9633  0.7646
 2749SOL     OW 9216   0.355   5.887   6.607 -0.4448 -0.2438  0.5143
 2749SOL    HW1 9217   0.277   5.847   6.646 -0.0492 -2.6750 -1.0166
 2749SOL    HW2 9218   0.400   5.929   6.681 -1.7920 -1.1542  1.9110
 2750SOL     OW 9219   2.753   3.459   2.858 -0.5761  0.1521  0.7838
 2750SOL    HW1 9220   2.743   3.524   2.927 -0.5009 -0.0571  0.9906
 2750SOL    HW2 9221   2.666   3.455   2.817 -0.5553  0.4522  0.7073
 2751SOL     OW 9222   4.357   3.952   2.178  0.1637 -0.2829 -0.5012
 2751SOL    HW1 9223   4.381   4.006   2.253  0.5233  2.6693 -2.5916
 2751SOL    HW2 9224   4.264   3.934   2.190  0.7216 -2.1753  1.9041
 2752SOL     OW 9225   4.971   0.715   5.096 -0.3552 -0.1128  0.0580
 2752SOL    HW1 9226   5.010   0.798   5.124 -1.7430  0.2386  1.0909
 2752SOL    HW2 9227   4.998   0.705   5.005  2.1361  0.0514  0.7191
 2753SOL     OW 9228   4.665   5.304   2.896 -0.6047  0.5036  0.0602
 2753SOL    HW1 9229   4.711   5.269   2.820  0.0075  1.5049 -0.0497
 2753SOL    HW2 9230   4.709   5.387   2.915 -1.2535  0.6466  1.0279
 2754SOL     OW 9231   3.711   1.704   5.891 -0.1162 -0.0055  0.3632
 2754SOL    HW1 9232   3.738   1.794   5.875 -0.0973 -0.2195 -0.9410
 2754SOL    HW2 9233   3.693   1.669   5.803 -2.0172 -0.6738  0.9809
 2755SOL     OW 9234   4.524   4.724   4.877 -0.5003  0.3284 -0.1420
 2755SOL    HW1 9235   4.569   4.792   4.826  2.0090 -1.2733 -0.2378
 2755SOL    HW2 9236   4.459   4.688   4.816 -2.5853  3.1642  0.2175
 2756SOL     OW 9237   6.966   5.350   7.006 -0.0225 -0.4443 -0.0465
 2756SOL    HW1 9238   7.060   5.337   7.022 -0.0699 -0.8635 -0.1108
 2756SOL    HW2 9239   6.924   5.329   7.089 -0.0364  0.0157  0.0632
 2757SOL     OW 9240   3.497   3.082   2.982  0.2325  0.1110  0.2373
 2757SOL    HW1 9241   3.443   3.005   2.962  1.6585 -0.6737 -0.7659
 2757SOL    HW2 9242   3.574   3.073   2.925  1.7420  0.8392  2.0505
 2758SOL     OW 9243   1.442   7.277   1.814 -0.7029  0.2459 -0.2359
 2758SOL    HW1 9244   1.426   7.187   1.841 -1.3023 -0.2770 -2.1372
 2758SOL    HW2 9245   1.532   7.295   1.840 -1.1268 -0.2836  1.6998
 2759SOL     OW 9246   0.935   5.810   4.873 -0.5128  0.0968 -0.1694
 2759SOL    HW1 9247   1.017   5.856   4.851  0.3162 -1.6599 -0.9120
 2759SOL    HW2 9248   0.866   5.874   4.853  0.6320  1.5019  0.1457
 2760SOL     OW 9249   4.268   0.146   4.893  0.0921  0.6924  0.5256
 2760SOL    HW1 9250   4.189   0.138   4.946 -0.6414  0.6152 -0.5504
 2760SOL    HW2 9251   4.261   0.077   4.828  1.1969  0.5026  0.5753
 2761SOL     OW 9252   6.048   4.200   3.739  0.1823  0.3618 -0.5487
 2761SOL    HW1 9253   6.097   4.117   3.739  0.7776  0.7109 -0.7874
 2761SOL    HW2 9254   5.957   4.173   3.751  0.3634 -0.3348 -0.6735
 2762SOL     OW 9255   5.692   3.218   4.349  0.1809  0.1280  0.2949
 2762SOL    HW1 9256   5.685   3.228   4.254  2.0740  1.7106  0.2608
 2762SOL    HW2 9257   5.703   3.124   4.363  0.3501 -0.0735 -1.0902
 2763SOL     OW 9258   7.082   0.186   0.518  0.1549 -0.2216  0.6136
 2763SOL    HW1 9259   7.057   0.123   0.451  0.2058  0.4844 -0.0911
 2763SOL    HW2 9260   7.123   0.257   0.469  0.9288 -0.0608  1.4784
 2764SOL     OW 9261   2.368   4.608   2.020 -0.0573 -0.0467  0.1500
 2764SOL    HW1 9262   2.387   4.624   1.928 -2.0392  1.3001 -0.0834
 2764SOL    HW2 9263   2.306   4.535   2.020  0.2380 -0.3053  0.4688
 2765SOL     OW 9264   2.890   4.864   3.664 -0.0391  0.1851 -0.3062
 2765SOL    HW1 9265   2.968   4.920   3.661  0.1577 -0.1038 -0.7516
 2765SOL    HW2 9266   2.817   4.926   3.657  0.0842  0.5759  1.4913
 2766SOL     OW 9267   1.700   6.554   3.840  0.0586  0.1851  0.2837
 2766SOL    HW1 9268   1.720   6.508   3.922  2.7717 -1.9787 -1.4025
 2766SOL    HW2 9269   1.637   6.497   3.796 -1.0941  1.1476  0.6370
 2767SOL     OW 9270   6.281   4.366   1.334  0.0844  0.3641  0.4966
 2767SOL    HW1 9271   6.240   4.388   1.417  0.1468 -1.3358  1.0270
 2767SOL    HW2 9272   6.215   4.312   1.289  0.2779  0.7854 -0.3027
 2768SOL     OW 9273   3.580   2.001   3.839 -0.0628 -0.5875  0.4865
 2768SOL    HW1 9274   3.653   1.979   3.896 -0.4526  1.6235  1.9721
 2768SOL    HW2 9275   3.504   1.961   3.880  0.3547 -4.2467 -1.8949
 2769SOL     OW 9276   0.323   3.651   4.849  0.2426  0.3281 -0.2714
 2769SOL    HW1 9277   0.401   3.639   4.796  1.4973 -1.8681  1.8410
 2769SOL    HW2 9278   0.304   3.563   4.882 -1.4829  1.2915  1.4739
 2770SOL     OW 9279   2.596   3.787   5.561 -0.2663 -0.4660  0.0880
 2770SOL    HW1 9280   2.590   3.693   5.549  0.4453 -0.4427 -0.5552
 2770SOL    HW2 9281   2.682   3.810   5.525  0.7598  0.0510  2.6415
 2771SOL     OW 9282   1.634   7.340   6.315  0.3819  0.3954 -0.2563
 2771SOL    HW1 9283   1.683   7.420   6.333 -0.3164  0.9358 -0.6719
 2771SOL    HW2 9284   1.650   7.322   6.222  0.1645  0.3175 -0.2808
 2772SOL     OW 9285   4.761   7.131   5.344  0.0036  0.2204 -0.4439
 2772SOL    HW1 9286   4.695   7.157   5.408 -0.2616 -0.5851 -0.3876
 2772SOL    HW2 9287   4.789   7.214   5.304  0.3527  0.7644  0.8740
 2773SOL     OW 9288   5.468   1.413   2.510 -0.3686  0.0249 -0.1124
 2773SOL    HW1 9289   5.374   1.405   2.494 -0.2194  0.9273 -1.6982
 2773SOL    HW2 9290   5.509   1.353   2.448  0.1125 -0.0501  0.2670
 2774SOL     OW 9291   1.208   1.347   5.043  0.2047 -0.1807 -0.0344
 2774SOL    HW1 9292   1.291   1.359   4.998 -1.0480  2.7112 -1.8338
 2774SOL    HW2 9293   1.189   1.253   5.034  1.2240 -0.1883 -3.4437
 2775SOL     OW 9294   3.965   1.662   0.990 -0.2475  0.6852  0.2462
 2775SOL    HW1 9295   4.012   1.712   1.056  1.1453 -0.9078  0.5379
 2775SOL    HW2 9296   3.880   1.643   1.030  0.5593 -0.2304  1.6153
 2776SOL     OW 9297   3.887   4.577   3.332 -0.4550  0.0713 -0.4370
 2776SOL    HW1 9298   3.933   4.571   3.248  0.2390  0.4965 -0.0968
 2776SOL    HW2 9299   3.816   4.514   3.325 -0.2143 -0.1215 -1.2279
 2777SOL     OW 9300   5.381   0.968   1.979  0.2273  0.1574 -0.2238
 2777SOL    HW1 9301   5.349   0.880   1.999  0.7121  0.0131 -0.0486
 2777SOL    HW2 9302   5.305   1.015   1.947  0.2776 -0.7958 -1.8725
 2778SOL     OW 9303   4.696   4.644   1.029  0.0252  0.1427  0.3021
 2778SOL    HW1 9304   4.655   4.725   1.060  1.4796  0.6535  0.9648
 2778SOL    HW2 9305   4.637   4.612   0.961 -1.8654  0.4252  1.7348
 2779SOL     OW 9306   4.928   7.316   2.359  0.0030 -0.0680  0.0089
 2779SOL    HW1 9307   5.007   7.289   2.407 -0.8372 -2.2987  0.2763
 2779SOL    HW2 9308   4.875   7.236   2.355 -2.0178  1.2468 -0.6061
 2780SOL     OW 9309   5.940   0.935   7.129  0.1828 -0.6977  0.0560
 2780SOL    HW1 9310   5.949   0.989   7.050 -0.6458 -0.3431  0.1971
 2780SOL    HW2 9311   5.857   0.890   7.118 -0.3130 -0.0471  1.0867
 2781SOL     OW 9312   3.292   1.887   6.858  0.7309  0.3811  0.4386
 2781SOL    HW1 9313   3.342   1.810   6.885 -0.1090  0.2981  1.8873
 2781SOL    HW2 9314   3.307   1.894   6.764  1.1230 -1.3238  0.3431
 2782SOL     OW 9315   3.458   2.810   3.189  0.1332  0.1537  0.0869
 2782SOL    HW1 9316   3.395   2.814   3.261 -0.9593 -2.0131 -0.6502
 2782SOL    HW2 9317   3.509   2.731   3.207 -0.1220 -0.4021 -1.4528
 2783SOL     OW 9318   0.436   2.335   5.769  0.7581 -0.0182  0.2430
 2783SOL    HW1 9319   0.348   2.356   5.737  0.9399 -1.2471 -1.1783
 2783SOL    HW2 9320   0.495   2.365   5.700  1.4658  0.5546  1.0651
 2784SOL     OW 9321   4.311   2.819   0.419  0.2155 -1.2613  0.2325
 2784SOL    HW1 9322   4.268   2.757   0.478 -2.2159  0.5653  0.5561
 2784SOL    HW2 9323   4.326   2.897   0.472  1.2648 -0.8045 -0.6897
 2785SOL     OW 9324   0.341   3.096   0.112 -0.5406 -0.0902  0.4345
 2785SOL    HW1 9325   0.419   3.063   0.067 -0.4477 -0.9273  1.1637
 2785SOL    HW2 9326   0.375   3.139   0.191 -0.8518 -1.4115  1.3189
 2786SOL     OW 9327   2.459   4.182   4.986 -0.1530  0.1601  0.0867
 2786SOL    HW1 9328   2.424   4.209   4.901 -0.9704  0.6649  0.5653
 2786SOL    HW2 9329   2.483   4.265   5.028  1.2446 -0.1503 -0.0596
 2787SOL     OW 9330   4.654   4.447   6.472 -0.1311  0.1178  0.1835
 2787SOL    HW1 9331   4.685   4.446   6.381  1.0108  0.1932  0.5554
 2787SOL    HW2 9332   4.651   4.354   6.497 -0.0396  0.1195  0.2010
 2788SOL     OW 9333   5.562   2.333   5.719 -0.3302  0.1805 -0.1711
 2788SOL    HW1 9334   5.503   2.258   5.727 -0.6795  0.5116  0.3964
 2788SOL    HW2 9335   5.585   2.335   5.626 -0.8532 -0.2258 -0.3152
 2789SOL     OW 9336   6.087   7.070   6.742 -0.1853 -0.7290 -0.7704
 2789SOL    HW1 9337   6.141   7.132   6.693 -1.3487  0.9108 -0.0603
 2789SOL    HW2 9338   6.115   7.079   6.833 -1.6506  0.2128 -0.3769
 2790SOL     OW 9339   4.864   4.215   4.743  0.5350 -0.1293  0.1822
 2790SOL    HW1 9340   4.953   4.209   4.708  0.5161  1.3753 -0.2035
 2790SOL    HW2 9341   4.863   4.154   4.817  1.4726 -1.1504 -0.6222
 2791SOL     OW 9342   2.493   5.338   1.209 -0.0608  0.2298 -0.5828
 2791SOL    HW1 9343   2.585   5.315   1.200 -0.1024  0.7355 -2.9522
 2791SOL    HW2 9344   2.454   5.312   1.125 -1.9451  0.6357  0.1239
 2792SOL     OW 9345   4.614   5.225   6.691 -0.1725 -0.0544 -0.0966
 2792SOL    HW1 9346   4.656   5.292   6.637 -0.6229  1.0041  0.8339
 2792SOL    HW2 9347   4.536   5.200   6.642  0.0473  0.0216 -0.4947
 2793SOL     OW 9348   6.712   5.248   3.028 -0.3021 -0.3571  0.1500
 2793SOL    HW1 9349   6.804   5.265   3.047 -0.6171  1.7908 -0.0032
 2793SOL    HW2 9350   6.664   5.315   3.076 -1.5527  0.6657 -2.3135
 2794SOL     OW 9351   6.151   0.142   2.563  0.4194  0.4046 -0.0133
 2794SOL    HW1 9352   6.065   0.118   2.599  1.1518 -0.0759  1.4935
 2794SOL    HW2 9353   6.213   0.118   2.632  2.2132 -3.0625 -2.5534
 2795SOL     OW 9354   5.628   1.222   6.845  0.2439  0.1212 -0.0557
 2795SOL    HW1 9355   5.669   1.243   6.929 -1.2053  0.1589  0.6910
 2795SOL    HW2 9356   5.590   1.135   6.859  0.0128  0.1182 -0.6798
 2796SOL     OW 9357   3.538   6.354   7.028  0.0455  0.5582  0.5973
 2796SOL    HW1 9358   3.617   6.367   6.976 -1.1306  1.1871 -1.1354
 2796SOL    HW2 9359   3.561   6.384   7.116  1.6778  0.8105  0.1104
 2797SOL     OW 9360   7.097   6.332   0.619  0.1439  0.2423 -0.0326
 2797SOL    HW1 9361   7.050   6.265   0.568  0.6202  0.5620 -0.9155
 2797SOL    HW2 9362   7.173   6.354   0.565  0.6977  0.5569  0.8546
 2798SOL     OW 9363   4.353   6.687   5.814  0.8110  0.1451  0.2407
 2798SOL    HW1 9364   4.313   6.606   5.782  0.7926  0.1721  0.1945
 2798SOL    HW2 9365   4.438   6.690   5.771  1.1195 -0.2246  0.8133
 2799SOL     OW 9366   6.415   0.237   0.991 -0.1196  0.0748  0.2675
 2799SOL    HW1 9367   6.389   0.261   0.902 -2.1502 -0.6388  0.6112
 2799SOL    HW2 9368   6.337   0.197   1.029  0.8136  0.0059  2.2601
 2800SOL     OW 9369   0.579   1.698   4.109 -0.3253 -0.0910 -0.0649
 2800SOL    HW1 9370   0.623   1.616   4.089  0.1076 -0.0147  0.5620
 2800SOL    HW2 9371   0.487   1.673   4.123 -0.5813 -0.2002 -1.7189
 2801SOL     OW 9372   5.221   0.917   0.105  0.0345 -0.0965  0.2992
 2801SOL    HW1 9373   5.223   0.855   0.177  1.0438  0.5013  0.8056
 2801SOL    HW2 9374   5.205   0.863   0.027 -0.9447 -0.7552  0.9376
 2802SOL     OW 9375   2.302   5.011   3.925  0.1140 -0.1655  0.1020
 2802SOL    HW1 9376   2.352   5.035   3.847 -0.3259 -1.2704 -0.5350
 2802SOL    HW2 9377   2.352   4.941   3.965  1.1536  1.4158  1.7114
 2803SOL     OW 9378   6.739   3.334   5.289 -0.1293  0.0475  0.0665
 2803SOL    HW1 9379   6.717   3.420   5.255 -1.6789 -0.7635 -1.1160
 2803SOL    HW2 9380   6.734   3.276   5.214 -2.0090 -1.5371  1.3070
 2804SOL     OW 9381   7.038   6.944   1.334 -0.3123 -0.4630  0.1751
 2804SOL    HW1 9382   7.093   6.997   1.392 -1.1064  0.3620  0.1931
 2804SOL    HW2 9383   6.964   7.000   1.314 -0.3834 -0.9914 -1.1107
 2805SOL     OW 9384   4.287   6.290   7.284  0.2593 -0.1905  0.5072
 2805SOL    HW1 9385   4.270   6.284   7.378 -1.0897  0.6928  0.3470
 2805SOL    HW2 9386   4.240   6.216   7.247 -0.2423  0.1671  0.4183
 2806SOL     OW 9387   3.210   7.376   6.744  0.1385 -0.3801  0.2780
 2806SOL    HW1 9388   3.222   7.467   6.774  1.3875 -0.2031 -0.6408
 2806SOL    HW2 9389   3.295   7.335   6.760 -0.0214 -1.0294 -0.4874
 2807SOL     OW 9390   2.482   3.603   5.856  0.2641  0.5541 -0.3049
 2807SOL    HW1 9391   2.424   3.538   5.895  2.5476 -1.0579  0.5803
 2807SOL    HW2 9392   2.431   3.640   5.784 -1.9772 -0.4835  0.6645
 2808SOL     OW 9393   5.570   1.135   0.608 -0.0138 -0.2485 -0.0363
 2808SOL    HW1 9394   5.534   1.186   0.681 -1.3338 -0.8111 -0.2755
 2808SOL    HW2 9395   5.654   1.178   0.589 -0.1102  0.5299  1.1372
 2809SOL     OW 9396   0.596   2.750   0.172 -0.5281  0.2217  0.3814
 2809SOL    HW1 9397   0.533   2.681   0.151 -0.9864  0.7626 -0.0341
 2809SOL    HW2 9398   0.579   2.818   0.108  0.7586  0.2110  0.0101
 2810SOL     OW 9399   2.729   5.591   0.378 -0.0863  1.0263  0.4069
 2810SOL    HW1 9400   2.688   5.654   0.318 -1.4325 -0.7277 -0.6348
 2810SOL    HW2 9401   2.655   5.551   0.424  0.6012 -0.5348  0.2301
 2811SOL     OW 9402   3.701   3.425   2.066  0.1893 -0.3296  0.1358
 2811SOL    HW1 9403   3.795   3.408   2.067  0.2391 -0.1486 -0.8006
 2811SOL    HW2 9404   3.674   3.413   2.157  1.3373  0.8547  0.6775
 2812SOL     OW 9405   0.241   1.259   1.941  0.3237  0.8816 -0.1562
 2812SOL    HW1 9406   0.148   1.247   1.922  0.5737  0.1512 -0.9992
 2812SOL    HW2 9407   0.249   1.351   1.966 -0.8038  0.6636  1.0753
 2813SOL     OW 9408   6.578   4.370   6.204  0.9936  0.4179  0.3521
 2813SOL    HW1 9409   6.553   4.286   6.242 -0.2750  1.6752  2.4659
 2813SOL    HW2 9410   6.523   4.378   6.126  3.0409 -1.8252 -1.4856
 2814SOL     OW 9411   5.931   5.799   4.474  0.5529  0.2468 -0.2328
 2814SOL    HW1 9412   5.846   5.831   4.505  1.6620  0.9651  2.3697
 2814SOL    HW2 9413   5.966   5.872   4.422  0.4985  0.8496  0.5620
 2815SOL     OW 9414   6.694   6.052   6.628  0.3107  0.1300 -0.1737
 2815SOL    HW1 9415   6.789   6.057   6.619  0.3396  0.5972  0.3550
 2815SOL    HW2 9416   6.672   5.965   6.595  0.9625 -0.1274  0.0488
 2816SOL     OW 9417   0.918   0.944   6.537  0.0078 -0.5463 -0.3984
 2816SOL    HW1 9418   0.836   0.908   6.570 -1.2989  3.6669  1.6125
 2816SOL    HW2 9419   0.892   1.013   6.477  1.9204  1.7295  1.1971
 2817SOL     OW 9420   6.701   1.389   6.720  0.0000 -0.3154 -0.6525
 2817SOL    HW1 9421   6.748   1.390   6.637  0.9264 -0.3362 -0.1458
 2817SOL    HW2 9422   6.609   1.377   6.696  0.4016 -1.7132 -1.6012
 2818SOL     OW 9423   3.317   0.749   3.904  0.7477  0.3822 -0.4418
 2818SOL    HW1 9424   3.252   0.801   3.857  0.7810  0.9380  0.1203
 2818SOL    HW2 9425   3.276   0.727   3.987  0.6827 -0.6195 -0.7208
 2819SOL     OW 9426   1.884   4.428   4.858 -0.3938 -0.2925  0.1596
 2819SOL    HW1 9427   1.907   4.363   4.792 -1.9770 -0.8759  0.1496
 2819SOL    HW2 9428   1.824   4.488   4.814 -2.0633 -1.1074  1.1922
 2820SOL     OW 9429   0.537   4.239   3.973  0.2840  0.2653 -0.1019
 2820SOL    HW1 9430   0.537   4.294   3.894 -1.1640  0.0882 -0.2536
 2820SOL    HW2 9431   0.517   4.152   3.940 -0.2620  0.1812  0.4495
 2821SOL     OW 9432   0.636   3.235   6.860 -0.2661  0.2261  0.3329
 2821SOL    HW1 9433   0.574   3.236   6.787  0.1356  0.5005 -0.0050
 2821SOL    HW2 9434   0.663   3.143   6.867  1.8156  0.5862 -1.6822
 2822SOL     OW 9435   6.892   2.570   6.961 -0.1073 -0.0212  0.0151
 2822SOL    HW1 9436   6.825   2.635   6.984  0.8438  0.8367  0.4463
 2822SOL    HW2 9437   6.947   2.564   7.039 -0.1558 -1.3483 -0.0340
 2823SOL     OW 9438   5.003   4.976   4.925  0.3169  0.0562 -0.1600
 2823SOL    HW1 9439   5.021   5.026   5.005  2.1615 -0.8639  0.0638
 2823SOL    HW2 9440   4.975   5.042   4.862 -0.1635  0.9498  0.9447
 2824SOL     OW 9441   5.373   5.838   6.286 -0.7655  0.1782  0.2709
 2824SOL    HW1 9442   5.282   5.837   6.315  0.1067 -1.0865  3.4248
 2824SOL    HW2 9443   5.395   5.746   6.272 -0.5386  0.6037 -2.8789
 2825SOL     OW 9444   7.055   6.894   5.641  0.2159  0.5221  0.0945
 2825SOL    HW1 9445   6.985   6.860   5.698  1.7392  0.5098  2.0730
 2825SOL    HW2 9446   7.049   6.841   5.562 -2.2765  0.8151 -0.0087
 2826SOL     OW 9447   4.966   5.468   5.693  0.1309  0.0116 -0.0535
 2826SOL    HW1 9448   4.930   5.428   5.614 -3.1881 -0.7999  1.6988
 2826SOL    HW2 9449   4.980   5.560   5.670 -0.8077 -0.1906 -1.5707
 2827SOL     OW 9450   5.927   6.542   2.610 -0.8077  0.2052  0.2619
 2827SOL    HW1 9451   5.992   6.479   2.643 -1.2927 -0.2283  0.4112
 2827SOL    HW2 9452   5.956   6.562   2.521 -0.9807 -0.7132 -0.0184
 2828SOL     OW 9453   6.814   2.193   6.030 -0.6779  0.2699  0.2695
 2828SOL    HW1 9454   6.816   2.101   6.054  0.5470  0.4117  0.8272
 2828SOL    HW2 9455   6.897   2.228   6.063  0.2544  0.9314 -2.4286
 2829SOL     OW 9456   6.697   5.490   0.965 -0.2167 -0.0360  0.5397
 2829SOL    HW1 9457   6.765   5.555   0.948  0.1769 -0.5768 -0.0001
 2829SOL    HW2 9458   6.632   5.504   0.896  0.1745 -0.6110  0.0388
 2830SOL     OW 9459   6.958   0.503   3.889  0.5067  0.1569 -0.5585
 2830SOL    HW1 9460   6.951   0.416   3.928  0.5939  0.3691 -0.0719
 2830SOL    HW2 9461   7.021   0.549   3.943  1.3685  0.1442 -1.5116
 2831SOL     OW 9462   3.071   5.373   4.684  0.4506  0.1659  0.0922
 2831SOL    HW1 9463   3.135   5.353   4.616 -1.3789 -0.9790 -1.3660
 2831SOL    HW2 9464   3.039   5.287   4.713 -0.8469  0.7112  0.3636
 2832SOL     OW 9465   2.438   2.667   1.215 -0.3297 -0.2981 -0.1684
 2832SOL    HW1 9466   2.417   2.574   1.222  0.6354 -0.4252  2.1524
 2832SOL    HW2 9467   2.452   2.695   1.306  2.5593  1.3089 -0.9778
 2833SOL     OW 9468   4.357   0.682   2.472 -0.1403  0.2633  0.4087
 2833SOL    HW1 9469   4.299   0.686   2.549  1.7908 -0.5100  2.0041
 2833SOL    HW2 9470   4.307   0.633   2.407 -1.5673  0.3088  1.4155
 2834SOL     OW 9471   0.695   1.597   1.016  0.4992  0.4953  0.0194
 2834SOL    HW1 9472   0.699   1.690   0.993  0.8773  0.2707 -0.8620
 2834SOL    HW2 9473   0.771   1.584   1.073  0.8687  0.5816 -0.4409
 2835SOL     OW 9474   5.828   4.942   6.826  0.6597  0.2208 -0.1430
 2835SOL    HW1 9475   5.886   4.882   6.873  0.6980 -0.6877 -1.2969
 2835SOL    HW2 9476   5.845   5.027   6.866  1.2354 -0.3824  0.9622
 2836SOL     OW 9477   5.856   7.240   1.807 -0.2615 -0.2008  0.3086
 2836SOL    HW1 9478   5.859   7.261   1.714 -0.7039 -1.5706 -0.0455
 2836SOL    HW2 9479   5.928   7.290   1.846 -0.7500  1.2369 -0.5646
 2837SOL     OW 9480   4.047   0.332   5.327 -0.1459  0.1097 -0.6289
 2837SOL    HW1 9481   4.137   0.303   5.342  0.0378  0.3963 -1.1489
 2837SOL    HW2 9482   4.007   0.262   5.277 -0.7864 -0.8882  1.1691
 2838SOL     OW 9483   2.985   4.098   5.871  0.5758 -0.2533 -0.1824
 2838SOL    HW1 9484   2.989   4.113   5.777 -0.8367  2.0870  0.0501
 2838SOL    HW2 9485   2.902   4.051   5.884  0.0457  0.7034 -0.0111
 2839SOL     OW 9486   2.238   4.704   1.543 -0.1056 -0.0613 -0.5851
 2839SOL    HW1 9487   2.175   4.632   1.538 -1.2818  0.9242 -0.4665
 2839SOL    HW2 9488   2.288   4.687   1.623 -0.9781 -0.2795 -0.0691
 2840SOL     OW 9489   4.860   6.310   2.705 -0.5042  0.1256 -0.2101
 2840SOL    HW1 9490   4.823   6.351   2.627 -1.0987 -0.3173 -0.1706
 2840SOL    HW2 9491   4.885   6.222   2.676  1.4145  0.7140 -0.4752
 2841SOL     OW 9492   1.024   1.194   6.101  0.7390  0.1217 -0.0381
 2841SOL    HW1 9493   0.931   1.176   6.116  0.6982 -0.6972 -1.1742
 2841SOL    HW2 9494   1.055   1.229   6.184 -0.9918  2.1134 -0.1470
 2842SOL     OW 9495   2.722   7.273   3.984  0.1060  0.3644  0.1642
 2842SOL    HW1 9496   2.776   7.229   4.050 -1.1212 -0.2575  0.7972
 2842SOL    HW2 9497   2.719   7.364   4.012 -0.1174  0.1722  0.7803
 2843SOL     OW 9498   5.762   5.334   0.436 -0.1135 -0.2593 -0.4299
 2843SOL    HW1 9499   5.676   5.365   0.466 -0.1305  0.3249 -1.0626
 2843SOL    HW2 9500   5.817   5.412   0.434 -0.0991 -0.2828 -1.8585
 2844SOL     OW 9501   3.866   4.200   2.485  0.6122 -1.1495  0.2104
 2844SOL    HW1 9502   3.832   4.112   2.472 -0.7959 -0.5394 -0.3848
 2844SOL    HW2 9503   3.863   4.213   2.580  2.1237 -2.2026  0.4468
 2845SOL     OW 9504   2.993   5.019   0.753  0.3791  0.1562  0.2219
 2845SOL    HW1 9505   3.018   4.945   0.807  0.0680  0.2331  0.4685
 2845SOL    HW2 9506   2.951   4.980   0.676  0.9869  0.0385 -0.0579
 2846SOL     OW 9507   3.015   3.851   4.282  0.1902 -0.8536 -0.4075
 2846SOL    HW1 9508   3.027   3.918   4.216 -1.9655 -1.3232 -1.3898
 2846SOL    HW2 9509   3.089   3.792   4.271  0.7844  0.0223 -1.2125
 2847SOL     OW 9510   5.772   4.971   3.336 -0.5265  0.2574 -0.2982
 2847SOL    HW1 9511   5.784   4.897   3.396 -0.8795  0.8336  0.5032
 2847SOL    HW2 9512   5.861   4.994   3.308 -0.2979  0.3467  0.4712
 2848SOL     OW 9513   4.966   0.622   1.288  0.5772  0.1886  0.3470
 2848SOL    HW1 9514   5.023   0.689   1.324  1.5560 -0.8781  0.8703
 2848SOL    HW2 9515   4.965   0.637   1.194 -1.6186  2.7238  0.6658
 2849SOL     OW 9516   5.412   2.232   4.460  0.0516  0.2131 -0.4013
 2849SOL    HW1 9517   5.492   2.179   4.454  0.4346  0.7967 -0.6038
 2849SOL    HW2 9518   5.352   2.179   4.511  0.4651 -0.3698 -0.5006
 2850SOL     OW 9519   1.276   5.520   4.845 -0.0396  0.0671 -0.5900
 2850SOL    HW1 9520   1.235   5.546   4.762  2.1669  1.9862 -1.1747
 2850SOL    HW2 9521   1.357   5.571   4.849 -0.7586  1.2434  3.4685
 2851SOL     OW 9522   5.338   4.005   0.144 -0.1595 -0.2312 -0.7987
 2851SOL    HW1 9523   5.311   4.078   0.200 -0.5040 -0.7412 -0.2745
 2851SOL    HW2 9524   5.426   3.982   0.175 -0.9813 -1.5816  0.7132
 2852SOL     OW 9525   4.559   7.174   7.355 -0.1842 -0.1904  0.2252
 2852SOL    HW1 9526   4.606   7.160   7.273 -2.0110  1.0231 -1.1246
 2852SOL    HW2 9527   4.628   7.184   7.421  1.3293 -2.6644 -0.8351
 2853SOL     OW 9528   6.033   2.105   0.258  0.4735 -0.0255  0.4405
 2853SOL    HW1 9529   6.043   2.054   0.178  0.0513 -0.1644  0.4735
 2853SOL    HW2 9530   5.941   2.131   0.259  0.4799 -0.0051  0.8652
 2854SOL     OW 9531   7.210   6.177   3.423  0.0004  0.2860  0.5633
 2854SOL    HW1 9532   7.214   6.081   3.424  0.0541  0.2772 -0.1467
 2854SOL    HW2 9533   7.209   6.200   3.330  0.5434  0.9973  0.7278
 2855SOL     OW 9534   7.334   4.555   0.601 -0.1341  0.1782 -0.2433
 2855SOL    HW1 9535   7.361   4.645   0.618 -0.8288  0.1867  0.8618
 2855SOL    HW2 9536   7.318   4.553   0.506 -0.0833  1.2011 -0.2859
 2856SOL     OW 9537   3.698   7.370   2.624  0.2682  0.3066  0.2188
 2856SOL    HW1 9538   3.648   7.438   2.579  0.3680  1.8844  2.3640
 2856SOL    HW2 9539   3.789   7.402   2.622  0.3034  0.3082  1.3149
 2857SOL     OW 9540   5.650   6.696   5.582  0.1701  0.6096  0.2220
 2857SOL    HW1 9541   5.605   6.765   5.629 -1.6806 -0.3188 -0.1088
 2857SOL    HW2 9542   5.612   6.698   5.494 -0.3147 -1.1476  0.3571
 2858SOL     OW 9543   1.943   2.300   1.164 -0.2733 -0.6142  0.0478
 2858SOL    HW1 9544   1.894   2.258   1.235 -0.9038 -0.8107 -0.4980
 2858SOL    HW2 9545   1.959   2.231   1.100  1.4976 -0.7714  0.5903
 2859SOL     OW 9546   6.431   4.107   1.252  0.5052 -0.2823 -0.5988
 2859SOL    HW1 9547   6.438   4.199   1.277  0.7044 -0.0416 -1.4964
 2859SOL    HW2 9548   6.338   4.088   1.255  0.3697  0.2174 -1.3047
 2860SOL     OW 9549   3.422   6.890   0.750  1.0070  0.2390  0.0639
 2860SOL    HW1 9550   3.477   6.922   0.822  2.4355  1.1737 -1.3794
 2860SOL    HW2 9551   3.339   6.937   0.759  2.2390  2.6717 -0.6337
 2861SOL     OW 9552   3.998   2.820   2.720  0.3546  0.1573  0.2407
 2861SOL    HW1 9553   4.090   2.842   2.704  0.4527 -0.7620 -0.6194
 2861SOL    HW2 9554   3.992   2.808   2.814  0.8780  1.1962  0.4242
 2862SOL     OW 9555   5.508   5.158   2.324  0.2064  0.2218 -0.8329
 2862SOL    HW1 9556   5.480   5.066   2.323  0.1112  0.2524 -1.5279
 2862SOL    HW2 9557   5.604   5.154   2.333  0.2255  0.0505 -1.1238
 2863SOL     OW 9558   0.377   3.792   2.034  0.7928 -0.2023 -0.0797
 2863SOL    HW1 9559   0.386   3.710   1.986 -0.3807  0.7788 -2.1331
 2863SOL    HW2 9560   0.466   3.812   2.064  1.5894 -0.9787 -1.7589
 2864SOL     OW 9561   2.996   6.280   5.491  0.6168  0.0683 -0.0190
 2864SOL    HW1 9562   3.003   6.332   5.410 -0.0476  0.1748 -0.0156
 2864SOL    HW2 9563   2.942   6.205   5.466 -0.9741  0.9171  0.7024
 2865SOL     OW 9564   2.290   1.087   2.891 -0.3304  0.7385 -0.4547
 2865SOL    HW1 9565   2.236   1.073   2.968  3.1992 -1.2818  1.9401
 2865SOL    HW2 9566   2.306   1.000   2.856  2.0729  1.1010 -0.4307
 2866SOL     OW 9567   4.204   4.960   3.932  0.9105  0.3335  0.0336
 2866SOL    HW1 9568   4.207   4.965   3.836  1.7010  0.7722  0.0745
 2866SOL    HW2 9569   4.165   5.043   3.959  0.2445  0.0149  0.0819
 2867SOL     OW 9570   2.808   3.485   1.860 -0.1147  0.0337  0.2621
 2867SOL    HW1 9571   2.813   3.506   1.953  0.7810  1.0033  0.0192
 2867SOL    HW2 9572   2.728   3.434   1.851  0.0067 -0.4458  1.6265
 2868SOL     OW 9573   6.437   1.800   5.948 -0.0961 -0.2612  0.3531
 2868SOL    HW1 9574   6.492   1.722   5.947 -0.2817 -0.4171  1.5131
 2868SOL    HW2 9575   6.478   1.857   6.014  0.3629  0.8730 -0.8549
 2869SOL     OW 9576   1.660   6.368   2.570 -0.1782 -0.2798 -0.1246
 2869SOL    HW1 9577   1.726   6.329   2.627 -0.1266 -0.5313 -0.3519
 2869SOL    HW2 9578   1.615   6.292   2.531 -0.0300 -0.1153 -0.6265
 2870SOL     OW 9579   5.774   3.343   3.986  0.1107  0.5079 -0.0076
 2870SOL    HW1 9580   5.863   3.309   3.992  0.1958  0.9809  2.4411
 2870SOL    HW2 9581   5.719   3.273   4.021 -0.5194  0.2258 -1.4857
 2871SOL     OW 9582   3.750   6.139   5.683  0.5347 -0.4123 -0.7640
 2871SOL    HW1 9583   3.804   6.210   5.717 -0.6574  0.9378 -1.5800
 2871SOL    HW2 9584   3.660   6.165   5.705 -0.0612 -0.7720 -2.5957
 2872SOL     OW 9585   0.720   3.346   5.428  0.3997 -0.4050 -0.2652
 2872SOL    HW1 9586   0.679   3.385   5.351 -1.9969  1.0361  1.6042
 2872SOL    HW2 9587   0.651   3.293   5.468  0.4325  1.5612  2.6515
 2873SOL     OW 9588   3.190   2.896   3.361  0.3291 -0.3153 -0.1902
 2873SOL    HW1 9589   3.105   2.891   3.404  0.3307  0.5336 -0.0782
 2873SOL    HW2 9590   3.248   2.843   3.416 -0.1860 -1.1535 -0.4363
 2874SOL     OW 9591   3.750   1.901   0.745 -0.4355 -0.1293 -0.2956
 2874SOL    HW1 9592   3.712   1.835   0.803  0.4735 -1.0919 -0.7619
 2874SOL    HW2 9593   3.683   1.969   0.739 -1.4526 -1.0629  0.1085
 2875SOL     OW 9594   3.361   5.984   3.768 -0.1828  0.4597 -0.0059
 2875SOL    HW1 9595   3.327   5.923   3.834 -0.7858  1.1650  0.3597
 2875SOL    HW2 9596   3.283   6.012   3.720 -0.0250  1.5456  0.3587
 2876SOL     OW 9597   5.263   6.686   2.836 -0.2611 -0.1305 -0.2874
 2876SOL    HW1 9598   5.225   6.763   2.793  1.8922  1.1785  0.0148
 2876SOL    HW2 9599   5.322   6.722   2.902  2.0509 -1.9964 -1.2103
 2877SOL     OW 9600   0.321   2.256   0.064  0.2051  0.1448 -0.0636
 2877SOL    HW1 9601   0.384   2.212   0.007 -1.3980 -0.7365 -1.2391
 2877SOL    HW2 9602   0.300   2.191   0.132 -2.2708 -1.1189 -1.8809
 2878SOL     OW 9603   7.372   4.757   5.857  0.6973 -0.0896 -0.3426
 2878SOL    HW1 9604   7.309   4.690   5.832  0.2725  0.8526 -1.9320
 2878SOL    HW2 9605   7.319   4.827   5.894  0.9844  0.0186 -0.1325
 2879SOL     OW 9606   5.333   7.091   4.390 -0.3714 -0.1995  0.7686
 2879SOL    HW1 9607   5.279   7.147   4.446 -1.1918 -1.3593  1.1828
 2879SOL    HW2 9608   5.274   7.020   4.364  0.6445 -0.8778  0.2617
 2880SOL     OW 9609   1.527   7.365   4.325  0.1224 -0.0949  0.6916
 2880SOL    HW1 9610   1.540   7.450   4.283  0.5756 -0.1708  0.6801
 2880SOL    HW2 9611   1.435   7.344   4.307 -0.4449  1.1003  1.9666
 2881SOL     OW 9612   2.198   3.182   6.051 -0.0267 -0.1485 -0.3913
 2881SOL    HW1 9613   2.199   3.187   6.147  1.2366 -2.2162 -0.2394
 2881SOL    HW2 9614   2.181   3.090   6.032 -1.5492  0.4410 -2.2176
 2882SOL     OW 9615   4.633   0.483   4.189 -0.1428 -0.1541  0.3824
 2882SOL    HW1 9616   4.699   0.518   4.248  0.0445  1.4292 -0.7158
 2882SOL    HW2 9617   4.682   0.453   4.112 -0.5323 -0.6951  0.3355
 2883SOL     OW 9618   6.570   2.040   4.606 -0.3504  0.6028  0.0092
 2883SOL    HW1 9619   6.610   2.071   4.687 -1.6459  1.7109  0.2722
 2883SOL    HW2 9620   6.532   1.955   4.628  1.2147 -0.1474 -0.0711
 2884SOL     OW 9621   0.745   6.827   2.715  0.1013  0.0821 -0.4692
 2884SOL    HW1 9622   0.720   6.779   2.636 -0.9341  0.6481 -0.5020
 2884SOL    HW2 9623   0.688   6.792   2.783  0.5777  0.0152 -0.1008
 2885SOL     OW 9624   4.590   2.574   0.660 -0.3244 -0.2389  0.1298
 2885SOL    HW1 9625   4.658   2.618   0.610  0.4370 -1.0519  0.4303
 2885SOL    HW2 9626   4.546   2.645   0.708 -1.1826  0.5782 -1.7723
 2886SOL     OW 9627   1.550   0.175   7.378  0.1316 -0.2993  0.0207
 2886SOL    HW1 9628   1.473   0.228   7.357 -0.5124 -0.7935  1.0729
 2886SOL    HW2 9629   1.587   0.153   7.293 -1.3619 -0.7549 -0.5512
 2887SOL     OW 9630   1.445   0.191   0.661  0.1396 -0.5817  0.3526
 2887SOL    HW1 9631   1.436   0.169   0.568 -1.2955 -1.4260  0.6619
 2887SOL    HW2 9632   1.540   0.194   0.676  0.4290 -2.6655 -0.6428
 2888SOL     OW 9633   1.598   2.821   4.654  0.3372  0.7763  0.0066
 2888SOL    HW1 9634   1.633   2.734   4.670 -0.3478  0.3630 -0.6750
 2888SOL    HW2 9635   1.610   2.835   4.560 -0.6242  0.9184 -0.1088
 2889SOL     OW 9636   1.442   5.708   1.656 -0.5384 -0.0667 -0.5754
 2889SOL    HW1 9637   1.455   5.641   1.588 -0.6220 -0.3120 -0.3487
 2889SOL    HW2 9638   1.530   5.741   1.674 -0.3891 -0.7351 -0.0582
 2890SOL     OW 9639   0.337   1.726   5.214 -0.3833 -0.4313 -0.0503
 2890SOL    HW1 9640   0.374   1.765   5.293 -0.4399 -2.4250  1.0352
 2890SOL    HW2 9641   0.413   1.703   5.160 -0.2822 -0.1853 -0.0134
 2891SOL     OW 9642   4.711   3.239   0.490 -0.1937  0.3131 -0.6152
 2891SOL    HW1 9643   4.701   3.318   0.543 -0.0319  1.9329 -2.8673
 2891SOL    HW2 9644   4.685   3.265   0.402  1.7574 -1.6016 -1.8616
 2892SOL     OW 9645   6.704   3.212   6.485  0.2962 -0.0043  0.0663
 2892SOL    HW1 9646   6.696   3.248   6.574  0.0791 -0.4782  0.2404
 2892SOL    HW2 9647   6.620   3.231   6.444 -0.1306 -1.0342  0.4319
 2893SOL     OW 9648   3.381   4.757   6.395 -0.6376 -0.3324  0.2025
 2893SOL    HW1 9649   3.401   4.805   6.315 -1.4257  1.1571  0.8707
 2893SOL    HW2 9650   3.445   4.789   6.459 -0.8422 -0.5499  0.5178
 2894SOL     OW 9651   5.051   3.682   3.366  0.4330 -0.0689  0.1521
 2894SOL    HW1 9652   5.085   3.711   3.451  1.0234  0.1230 -0.1405
 2894SOL    HW2 9653   5.120   3.625   3.331  0.6867  0.7265 -0.6754
 2895SOL     OW 9654   1.737   1.800   2.124 -0.5580  0.4704  0.6188
 2895SOL    HW1 9655   1.826   1.830   2.145  0.2466 -1.0219 -0.4907
 2895SOL    HW2 9656   1.708   1.860   2.055 -0.7733  1.4922  1.5675
 2896SOL     OW 9657   0.747   1.268   3.027 -0.1227 -0.0019  0.1795
 2896SOL    HW1 9658   0.822   1.326   3.016 -0.3986  0.2325 -0.5286
 2896SOL    HW2 9659   0.774   1.186   2.985 -0.3100  0.1339 -0.2170
 2897SOL     OW 9660   4.317   4.645   6.954  0.4429 -0.1718 -0.0312
 2897SOL    HW1 9661   4.356   4.571   7.000  0.5794 -0.1169 -0.0589
 2897SOL    HW2 9662   4.380   4.667   6.885  0.4341  0.0119  0.0182
 2898SOL     OW 9663   0.004   6.379   2.358  0.2659  0.0302  0.2962
 2898SOL    HW1 9664   0.013   6.376   2.263  0.0828 -0.2818  0.2848
 2898SOL    HW2 9665  -0.042   6.461   2.375  0.1757  0.0224  0.1039
 2899SOL     OW 9666   0.595   3.158   3.028 -0.6497 -0.2896  0.6324
 2899SOL    HW1 9667   0.611   3.102   2.952 -2.3919 -0.6276  0.4651
 2899SOL    HW2 9668   0.523   3.215   3.002 -2.2073 -1.2952  2.4012
 2900SOL     OW 9669   4.511   4.268   0.859 -0.1506  0.8214  0.0950
 2900SOL    HW1 9670   4.459   4.233   0.786 -0.5988  0.2073  0.6988
 2900SOL    HW2 9671   4.453   4.265   0.934 -0.0834  2.5542  0.2648
 2901SOL     OW 9672   3.349   3.265   0.156  0.4983 -0.4499 -0.1914
 2901SOL    HW1 9673   3.340   3.177   0.191  0.8529  0.0901  1.3093
 2901SOL    HW2 9674   3.410   3.309   0.215  0.9736  0.5730 -1.3771
 2902SOL     OW 9675   4.802   3.433   5.188 -0.2637  0.1970  0.3458
 2902SOL    HW1 9676   4.878   3.444   5.246  0.6584 -1.4840 -0.4575
 2902SOL    HW2 9677   4.727   3.435   5.247  0.5930 -0.8526  1.5491
 2903SOL     OW 9678   4.938   1.423   1.547 -0.0233  0.1983 -0.8234
 2903SOL    HW1 9679   4.938   1.328   1.551  1.6450  0.2073  1.2094
 2903SOL    HW2 9680   4.907   1.451   1.633  1.6728  1.4456 -0.5681
 2904SOL     OW 9681   5.865   2.322   2.037  0.1214  0.4901  0.0098
 2904SOL    HW1 9682   5.938   2.372   2.074 -0.8574  0.5574  2.0356
 2904SOL    HW2 9683   5.905   2.242   2.005  1.1239  0.5415  1.0314
 2905SOL     OW 9684   3.712   4.575   2.217  0.1346  0.0460  0.3738
 2905SOL    HW1 9685   3.761   4.493   2.222  0.4535  0.2406  0.4494
 2905SOL    HW2 9686   3.653   4.574   2.292  0.6247  0.1987  0.7638
 2906SOL     OW 9687   2.845   2.742   2.237  0.4440  0.2952  0.3951
 2906SOL    HW1 9688   2.791   2.741   2.315  0.8714  1.2548  0.7247
 2906SOL    HW2 9689   2.795   2.692   2.172  0.7592 -1.8377  1.6930
 2907SOL     OW 9690   1.810   1.543   4.610  0.1875  0.5042 -0.2305
 2907SOL    HW1 9691   1.728   1.494   4.601 -1.3262  3.1970 -2.7320
 2907SOL    HW2 9692   1.799   1.593   4.691  0.8848 -1.5118  1.2185
 2908SOL     OW 9693   2.554   5.181   4.009 -0.0366  0.4048 -0.3160
 2908SOL    HW1 9694   2.530   5.230   4.087 -0.4541 -2.0861  1.2182
 2908SOL    HW2 9695   2.471   5.166   3.963 -0.0143  0.4587 -0.3746
 2909SOL     OW 9696   6.491   1.113   4.382 -0.5906  0.0786  0.1734
 2909SOL    HW1 9697   6.542   1.032   4.380  0.6366  0.8347 -2.1042
 2909SOL    HW2 9698   6.400   1.084   4.390 -0.2444 -1.5939 -1.3590
 2910SOL     OW 9699   7.137   2.041   2.552  0.3137  0.0671 -0.1932
 2910SOL    HW1 9700   7.185   2.066   2.631  0.0725  0.9650 -0.3226
 2910SOL    HW2 9701   7.164   2.104   2.486 -0.3553  0.0298 -0.5153
 2911SOL     OW 9702   2.678   1.314   2.030 -0.0745 -0.2503 -0.1531
 2911SOL    HW1 9703   2.678   1.218   2.024  0.6641 -0.2127 -1.0272
 2911SOL    HW2 9704   2.771   1.337   2.031 -0.2298  0.5139 -1.2789
 2912SOL     OW 9705   6.694   4.194   3.695 -0.1535 -0.0454  0.3903
 2912SOL    HW1 9706   6.653   4.124   3.644  0.5808 -1.5368  1.7553
 2912SOL    HW2 9707   6.621   4.242   3.732 -0.7165  1.0975 -1.9790
 2913SOL     OW 9708   6.841   1.476   0.905  0.5402 -0.2361  0.3857
 2913SOL    HW1 9709   6.917   1.422   0.885  0.8021  0.7098 -1.3952
 2913SOL    HW2 9710   6.871   1.566   0.891 -0.3787  0.2860  1.5501
 2914SOL     OW 9711   1.832   4.653   3.808 -0.3633 -0.6389 -0.2069
 2914SOL    HW1 9712   1.770   4.584   3.782 -0.0730 -0.9312 -0.1353
 2914SOL    HW2 9713   1.849   4.636   3.901 -0.1022 -0.6210 -0.2494
 2915SOL     OW 9714   4.900   6.453   4.534 -0.1248  0.0736  0.3410
 2915SOL    HW1 9715   4.882   6.495   4.450 -3.1936  1.9222  1.7449
 2915SOL    HW2 9716   4.836   6.383   4.540  0.5963 -0.5554  0.8381
 2916SOL     OW 9717   3.610   6.099   4.736 -0.3312 -0.0217  0.3753
 2916SOL    HW1 9718   3.628   6.059   4.650 -1.6142 -0.5301  0.3199
 2916SOL    HW2 9719   3.684   6.158   4.751 -1.2261  1.9476 -2.1844
 2917SOL     OW 9720   7.063   1.182   3.846  0.4077 -0.3795  0.6475
 2917SOL    HW1 9721   7.055   1.240   3.770  0.3210 -2.1445 -0.7651
 2917SOL    HW2 9722   7.144   1.134   3.831 -0.4506 -1.9370  0.7873
 2918SOL     OW 9723   0.898   7.021   2.383  0.6986  0.1508  0.3110
 2918SOL    HW1 9724   0.933   7.050   2.299  0.4320 -0.3093  0.0339
 2918SOL    HW2 9725   0.940   6.937   2.400 -0.3469 -0.4846 -0.1026
 2919SOL     OW 9726   3.626   2.197   3.219  0.1258 -0.5671  0.0593
 2919SOL    HW1 9727   3.619   2.162   3.131  1.8147  2.2436 -1.3598
 2919SOL    HW2 9728   3.535   2.210   3.247 -0.4636 -0.7776 -1.6230
 2920SOL     OW 9729   4.308   6.666   5.148 -0.0913 -0.0519 -0.4028
 2920SOL    HW1 9730   4.253   6.724   5.095 -1.2273  0.1011  0.8880
 2920SOL    HW2 9731   4.345   6.604   5.085 -1.0294  0.4131 -1.4445
 2921SOL     OW 9732   2.642   6.807   3.157 -0.4882 -0.3972  0.5214
 2921SOL    HW1 9733   2.557   6.799   3.200 -1.4927  1.1062 -1.0419
 2921SOL    HW2 9734   2.664   6.900   3.166 -0.1549 -0.2950 -1.1104
 2922SOL     OW 9735   3.677   2.828   3.480  0.2255  0.5442 -0.7433
 2922SOL    HW1 9736   3.725   2.746   3.476  1.1350  1.0615 -0.8279
 2922SOL    HW2 9737   3.723   2.885   3.418  0.2755  1.4429  0.1021
 2923SOL     OW 9738   0.861   7.177   6.103  0.0510 -0.3569 -0.2555
 2923SOL    HW1 9739   0.821   7.110   6.048  1.8288 -1.1436 -0.6756
 2923SOL    HW2 9740   0.951   7.182   6.072  1.1555 -0.8603  2.5899
 2924SOL     OW 9741   1.021   1.127   3.503 -0.2062 -0.3376  0.4639
 2924SOL    HW1 9742   1.003   1.072   3.426  0.1781  1.4367 -0.9379
 2924SOL    HW2 9743   1.114   1.144   3.499 -0.0787 -0.6344  1.6583
 2925SOL     OW 9744   4.347   2.901   3.311  0.3382  0.2500  0.5900
 2925SOL    HW1 9745   4.439   2.878   3.295  0.1707  0.0436 -0.1390
 2925SOL    HW2 9746   4.303   2.880   3.228 -0.7263 -1.5695  1.5363
 2926SOL     OW 9747   1.043   3.892   2.767  0.3196  0.2760 -0.2684
 2926SOL    HW1 9748   0.990   3.899   2.688 -2.6678  2.1540  1.6602
 2926SOL    HW2 9749   0.981   3.862   2.834  2.8192 -1.7563  1.3228
 2927SOL     OW 9750   0.449   3.898   1.137  0.0061 -0.0812  0.6870
 2927SOL    HW1 9751   0.491   3.812   1.146  1.4366  0.7165  2.4812
 2927SOL    HW2 9752   0.361   3.886   1.173 -0.1126 -0.9842  0.1124
 2928SOL     OW 9753   3.525   2.513   6.967 -0.0790  0.0644  0.1575
 2928SOL    HW1 9754   3.454   2.466   6.924 -0.3756 -0.1315  0.8530
 2928SOL    HW2 9755   3.605   2.481   6.924 -0.4258  0.7537 -1.0756
 2929SOL     OW 9756   2.378   3.712   3.398  0.2970 -0.4689  0.0384
 2929SOL    HW1 9757   2.381   3.808   3.388 -2.2526 -0.4164 -0.7958
 2929SOL    HW2 9758   2.443   3.680   3.335 -0.8987  0.6682 -1.8978
 2930SOL     OW 9759   1.145   6.546   0.994 -0.2987 -0.1385 -0.0460
 2930SOL    HW1 9760   1.217   6.485   1.013  0.3970  0.3715 -0.9199
 2930SOL    HW2 9761   1.189   6.630   0.979 -1.1729  0.3881  0.3358
 2931SOL     OW 9762   6.266   6.475   7.054  0.5149  0.3812 -0.0153
 2931SOL    HW1 9763   6.308   6.390   7.068 -3.2944 -1.4123  2.0429
 2931SOL    HW2 9764   6.288   6.526   7.132 -0.4045 -0.2569  0.6785
 2932SOL     OW 9765   6.371   6.953   1.617 -0.2127  0.0655 -0.2292
 2932SOL    HW1 9766   6.457   6.995   1.613  0.3858 -1.2494 -2.2291
 2932SOL    HW2 9767   6.361   6.928   1.709  1.2094  0.8723  0.1737
 2933SOL     OW 9768   7.073   2.091   5.705 -0.1435  0.8434  0.0312
 2933SOL    HW1 9769   7.009   2.106   5.635 -0.4247 -0.7879 -0.0837
 2933SOL    HW2 9770   7.021   2.054   5.776  0.6546 -0.5208 -0.0668
 2934SOL     OW 9771   6.652   1.463   4.361 -0.0639 -0.0279  0.4428
 2934SOL    HW1 9772   6.666   1.557   4.369  2.0853 -0.3535  1.0896
 2934SOL    HW2 9773   6.635   1.433   4.451 -0.8616 -0.2600  0.2247
 2935SOL     OW 9774   6.856   5.682   3.008 -0.5460  0.6631  0.2302
 2935SOL    HW1 9775   6.768   5.644   3.007 -0.4526  0.4443  0.2172
 2935SOL    HW2 9776   6.901   5.634   3.077 -0.9376  1.9293  1.3904
 2936SOL     OW 9777   5.387   1.591   4.007 -0.1157  0.3549  0.0488
 2936SOL    HW1 9778   5.344   1.630   3.931 -1.5682 -0.7220  0.2550
 2936SOL    HW2 9779   5.345   1.633   4.082 -1.4162 -1.2132  0.2668
 2937SOL     OW 9780   1.270   0.903   4.473 -0.3810  0.4528  0.6663
 2937SOL    HW1 9781   1.353   0.893   4.426 -0.1365 -0.3583  1.2586
 2937SOL    HW2 9782   1.210   0.938   4.407  0.3345  0.7221  0.1398
 2938SOL     OW 9783   7.310   2.721   7.154  0.0788  0.1735 -0.1126
 2938SOL    HW1 9784   7.396   2.678   7.149 -0.1883 -0.2036 -2.6467
 2938SOL    HW2 9785   7.249   2.657   7.120 -1.3317  0.3502  1.8955
 2939SOL     OW 9786   6.470   4.371   3.791 -0.4299 -0.3173 -0.3332
 2939SOL    HW1 9787   6.388   4.420   3.804  0.3412  0.8100  0.4793
 2939SOL    HW2 9788   6.527   4.403   3.860  0.0622 -2.5380  0.3463
 2940SOL     OW 9789   6.559   3.772   3.353 -0.4092 -0.0177  0.5007
 2940SOL    HW1 9790   6.471   3.735   3.353 -0.2171 -0.5190  1.6102
 2940SOL    HW2 9791   6.580   3.784   3.261 -2.1765  1.4291  0.2408
 2941SOL     OW 9792   0.323   2.998   2.081  0.2108 -0.6760  0.0012
 2941SOL    HW1 9793   0.332   3.093   2.073 -1.7070 -0.3847  0.6560
 2941SOL    HW2 9794   0.399   2.962   2.036 -0.1043  1.1304 -2.1387
 2942SOL     OW 9795   5.706   2.653   4.123  0.3970  0.1033 -0.1633
 2942SOL    HW1 9796   5.638   2.612   4.176  0.0260  1.3158  0.3480
 2942SOL    HW2 9797   5.786   2.605   4.144 -0.4188 -1.9139 -1.4300
 2943SOL     OW 9798   5.271   0.549   0.496  0.1275 -0.0215  0.2301
 2943SOL    HW1 9799   5.211   0.475   0.485  0.3843 -0.2420  0.3095
 2943SOL    HW2 9800   5.358   0.510   0.494  0.3780  0.5599 -2.0647
 2944SOL     OW 9801   0.386   6.299   2.749  0.5140 -0.4245  0.0176
 2944SOL    HW1 9802   0.469   6.266   2.714  0.6574  0.4800 -0.5431
 2944SOL    HW2 9803   0.411   6.379   2.796  0.0860 -0.6781  0.6766
 2945SOL     OW 9804   2.043   1.538   0.683  0.2611 -0.2776 -0.6743
 2945SOL    HW1 9805   1.959   1.521   0.640 -1.5430  0.1073  2.4353
 2945SOL    HW2 9806   2.065   1.455   0.726 -0.7136  0.6752  1.8597
 2946SOL     OW 9807   5.303   5.996   5.826  0.4340 -0.1339  0.7097
 2946SOL    HW1 9808   5.332   5.988   5.917  3.2929  1.1167  0.0246
 2946SOL    HW2 9809   5.377   5.965   5.775 -1.1703 -0.9530 -1.2511
 2947SOL     OW 9810   5.254   2.319   6.154 -0.2185  0.7136 -0.2779
 2947SOL    HW1 9811   5.250   2.390   6.219  0.7152  0.2833  0.2724
 2947SOL    HW2 9812   5.255   2.364   6.069  2.0084  1.4939  0.0821
 2948SOL     OW 9813   3.951   2.157   0.835  0.0832  0.2110  0.0679
 2948SOL    HW1 9814   3.876   2.205   0.800 -0.6540 -0.6067  0.4736
 2948SOL    HW2 9815   3.992   2.117   0.759 -0.1760  0.2775 -0.1080
 2949SOL     OW 9816   3.322   0.018   3.659 -0.1730  0.4875 -0.3220
 2949SOL    HW1 9817   3.291  -0.072   3.646 -0.3854  0.6607 -1.0410
 2949SOL    HW2 9818   3.259   0.072   3.613 -1.1577  1.1787  1.7321
 2950SOL     OW 9819   1.655   3.393   3.443 -0.1727 -0.1307  0.2452
 2950SOL    HW1 9820   1.655   3.410   3.349 -0.5388  0.2752  0.3152
 2950SOL    HW2 9821   1.729   3.443   3.477  1.4908 -2.1891 -0.1428
 2951SOL     OW 9822   4.392   5.612   5.025 -0.3853 -0.0957  0.4438
 2951SOL    HW1 9823   4.454   5.625   5.097 -0.2943  1.4629  0.1384
 2951SOL    HW2 9824   4.306   5.622   5.065 -0.3509  0.1329  0.4665
 2952SOL     OW 9825   0.456   4.590   4.111 -0.5465 -0.1458 -0.1465
 2952SOL    HW1 9826   0.393   4.563   4.045  0.6603  0.5089 -1.6379
 2952SOL    HW2 9827   0.538   4.603   4.063  0.5478 -0.2033  1.5801
 2953SOL     OW 9828   1.271   6.209   0.786 -0.2977  0.1438  0.0091
 2953SOL    HW1 9829   1.318   6.130   0.761 -0.6713 -0.0496 -0.0971
 2953SOL    HW2 9830   1.337   6.265   0.826  0.0800 -0.0049 -0.3950
 2954SOL     OW 9831   6.379   6.638   4.494 -0.3705 -0.2197 -0.4763
 2954SOL    HW1 9832   6.388   6.675   4.406 -0.2382  1.2754  0.1339
 2954SOL    HW2 9833   6.288   6.656   4.518 -0.6642 -1.4178 -0.6341
 2955SOL     OW 9834   5.603   1.895   1.399 -0.1427  0.1502 -0.6992
 2955SOL    HW1 9835   5.661   1.961   1.360  1.4134 -0.7792 -0.0534
 2955SOL    HW2 9836   5.655   1.814   1.399 -1.1216 -0.5203  0.7173
 2956SOL     OW 9837   2.925   7.319   6.408  0.6284  0.0851  0.3231
 2956SOL    HW1 9838   2.872   7.293   6.484  0.9589 -2.9228 -0.3392
 2956SOL    HW2 9839   3.000   7.259   6.409  1.5790  1.1475 -1.4022
 2957SOL     OW 9840   4.657   5.540   7.287 -0.7522 -0.1278 -0.4282
 2957SOL    HW1 9841   4.563   5.525   7.294 -0.8650  0.8702  0.3535
 2957SOL    HW2 9842   4.666   5.606   7.219 -0.5240 -0.9290 -1.2047
 2958SOL     OW 9843   0.368   3.436   5.677  0.4036  0.0729  0.6868
 2958SOL    HW1 9844   0.429   3.504   5.706  1.2818  0.0357 -0.9118
 2958SOL    HW2 9845   0.335   3.397   5.757  1.5118  0.9771  1.6198
 2959SOL     OW 9846   0.305   2.358   6.749 -0.2881 -0.2814 -0.6612
 2959SOL    HW1 9847   0.227   2.382   6.799  0.7824  0.7540  0.5897
 2959SOL    HW2 9848   0.302   2.413   6.671 -1.2874 -0.9406 -1.1010
 2960SOL     OW 9849   5.938   3.966   5.060  0.2604  0.1903  0.7907
 2960SOL    HW1 9850   5.981   3.896   5.110 -1.3579 -0.9258  0.7081
 2960SOL    HW2 9851   5.904   3.921   4.982  2.3200  1.7834 -1.1766
 2961SOL     OW 9852   6.802   4.115   0.949 -0.5704  0.4299 -0.3271
 2961SOL    HW1 9853   6.820   4.119   1.043  1.3399  0.9444 -0.6775
 2961SOL    HW2 9854   6.708   4.134   0.942 -0.6320  0.9606  1.4304
 2962SOL     OW 9855   0.931   2.819   4.006  0.1270 -0.3466 -0.3965
 2962SOL    HW1 9856   0.868   2.889   4.022 -2.4436 -2.2994 -1.2657
 2962SOL    HW2 9857   0.961   2.833   3.916 -2.3791 -1.6715 -1.5480
 2963SOL     OW 9858   6.240   6.141   2.522 -0.4049 -0.1170  0.0477
 2963SOL    HW1 9859   6.209   6.154   2.432  0.9031  1.2967 -0.2464
 2963SOL    HW2 9860   6.319   6.195   2.528 -0.1609 -0.6114  1.8932
 2964SOL     OW 9861   6.850   0.849   4.743  0.5668  0.5314 -0.1054
 2964SOL    HW1 9862   6.789   0.854   4.816 -0.4090 -0.6866 -0.8022
 2964SOL    HW2 9863   6.853   0.938   4.708 -3.0013  0.1622 -1.7735
 2965SOL     OW 9864   1.435   6.880   6.898 -0.0146 -0.3777  0.0943
 2965SOL    HW1 9865   1.382   6.809   6.933 -0.7100 -0.2199 -0.6147
 2965SOL    HW2 9866   1.500   6.837   6.842  0.5951 -0.5668  0.9234
 2966SOL     OW 9867   3.720   3.185   0.748  0.5139  0.2866 -0.5420
 2966SOL    HW1 9868   3.625   3.178   0.742  0.5426  0.4940 -1.3285
 2966SOL    HW2 9869   3.736   3.214   0.838 -0.1081 -0.6358 -0.1186
 2967SOL     OW 9870   4.641   5.146   0.979 -0.2090  0.4827 -0.0174
 2967SOL    HW1 9871   4.601   5.143   0.892  1.4312 -0.5553 -0.7950
 2967SOL    HW2 9872   4.713   5.083   0.974  1.1954  1.8723  1.4511
 2968SOL     OW 9873   3.791   6.694   4.936 -0.0657  0.1299 -0.0339
 2968SOL    HW1 9874   3.800   6.622   4.998  0.3505 -0.9022 -1.2456
 2968SOL    HW2 9875   3.704   6.682   4.898 -0.7745  1.4017  1.0825
 2969SOL     OW 9876   1.898   3.008   2.293  0.5896  0.0158  0.0906
 2969SOL    HW1 9877   1.880   2.929   2.345  1.5711 -1.8799 -2.2714
 2969SOL    HW2 9878   1.881   2.982   2.203  1.0098  2.5412 -0.8098
 2970SOL     OW 9879   2.595   6.598   4.446 -0.5859 -0.6187  0.2150
 2970SOL    HW1 9880   2.598   6.662   4.374  0.1005 -1.0000 -0.1100
 2970SOL    HW2 9881   2.573   6.516   4.403  2.1951 -1.3525  0.0291
 2971SOL     OW 9882   3.412   5.462   4.921 -0.6156  0.4507 -0.0400
 2971SOL    HW1 9883   3.406   5.543   4.970 -0.8248  1.3831 -1.5321
 2971SOL    HW2 9884   3.498   5.465   4.879 -0.2781 -0.5061  0.5582
 2972SOL     OW 9885   4.811   4.660   2.454 -0.0294 -0.4568  0.2529
 2972SOL    HW1 9886   4.829   4.747   2.419  2.2715 -0.3253  1.5669
 2972SOL    HW2 9887   4.862   4.600   2.400  0.6792 -0.6392  1.0898
 2973SOL     OW 9888   4.702   0.435   1.680  0.7326  0.6349 -0.0226
 2973SOL    HW1 9889   4.772   0.490   1.645 -0.5132  1.6496 -1.0247
 2973SOL    HW2 9890   4.663   0.393   1.602  1.6388 -1.6975  0.7109
 2974SOL     OW 9891   3.891   5.295   0.354 -0.3781  0.5057  0.3504
 2974SOL    HW1 9892   3.801   5.325   0.361 -0.9057 -0.6490 -1.0411
 2974SOL    HW2 9893   3.914   5.307   0.262  0.5007 -0.2321  0.4601
 2975SOL     OW 9894   5.572   3.969   0.226  0.1732  0.6875 -0.9114
 2975SOL    HW1 9895   5.651   3.942   0.272  0.3456  0.6932 -1.2019
 2975SOL    HW2 9896   5.553   4.057   0.259 -1.2968 -0.3404  1.2474
 2976SOL     OW 9897   6.234   5.117   5.577  0.0097  0.1943  0.1731
 2976SOL    HW1 9898   6.322   5.154   5.570 -0.2670  0.9459  0.5801
 2976SOL    HW2 9899   6.203   5.144   5.664 -1.2189  1.2960 -0.5604
 2977SOL     OW 9900   1.135   5.865   1.300  0.3749  0.2601 -0.0515
 2977SOL    HW1 9901   1.214   5.915   1.279 -0.0308  0.1163 -2.1878
 2977SOL    HW2 9902   1.084   5.866   1.219 -1.6156 -0.0553  1.1269
 2978SOL     OW 9903   3.379   4.755   3.398 -0.3338  0.0849  0.2361
 2978SOL    HW1 9904   3.360   4.746   3.491 -0.8547 -0.9288  0.0426
 2978SOL    HW2 9905   3.474   4.756   3.392 -0.2756 -1.4851  0.6480
 2979SOL     OW 9906   3.188   2.484   3.859 -0.4814  0.3333 -0.2900
 2979SOL    HW1 9907   3.135   2.466   3.782 -2.5507 -0.8478  1.3022
 2979SOL    HW2 9908   3.202   2.398   3.899  0.0829  0.9720  0.9331
 2980SOL     OW 9909   6.046   7.349   6.126  0.3586 -0.3146  0.2129
 2980SOL    HW1 9910   6.125   7.326   6.174 -0.5457 -1.1308  1.3787
 2980SOL    HW2 9911   6.077   7.395   6.048  1.8994  0.7240  1.3861
 2981SOL     OW 9912   6.707   7.159   7.303 -0.5342  0.1478  0.2220
 2981SOL    HW1 9913   6.716   7.235   7.359 -0.5408 -0.1578  0.6397
 2981SOL    HW2 9914   6.678   7.089   7.361  1.2535 -0.6542  0.1923
 2982SOL     OW 9915   5.863   6.296   1.592 -0.1204  0.0955 -0.0276
 2982SOL    HW1 9916   5.913   6.375   1.570 -0.3367 -0.0000 -0.9079
 2982SOL    HW2 9917   5.904   6.227   1.541  0.2781 -0.4413  0.9971
 2983SOL     OW 9918   4.152   3.572   5.946 -0.1560  0.4153  0.0265
 2983SOL    HW1 9919   4.147   3.529   5.861  2.3689 -0.1245  0.0664
 2983SOL    HW2 9920   4.169   3.500   6.008 -0.5886  0.9480  0.7771
 2984SOL     OW 9921   0.065   0.802   0.329 -0.0472 -0.1874 -0.0179
 2984SOL    HW1 9922   0.068   0.890   0.367  1.0293 -0.4529  0.5714
 2984SOL    HW2 9923  -0.025   0.773   0.344 -0.1572  0.4488  0.6392
 2985SOL     OW 9924   2.398   5.474   3.006  0.6889  0.2265 -0.4074
 2985SOL    HW1 9925   2.441   5.537   3.064 -0.9252  1.7392 -0.7475
 2985SOL    HW2 9926   2.449   5.477   2.926  0.6368  1.1488 -0.4227
 2986SOL     OW 9927   2.381   6.622   3.017 -0.3076  0.2250 -0.0277
 2986SOL    HW1 9928   2.390   6.666   3.102  0.4690  0.0544 -0.0142
 2986SOL    HW2 9929   2.303   6.662   2.978  0.6058  1.9392 -0.1939
 2987SOL     OW 9930   2.909   4.220   1.472  0.1748 -0.3836  0.4776
 2987SOL    HW1 9931   2.948   4.299   1.433  0.0157  1.5265  3.7393
 2987SOL    HW2 9932   2.981   4.179   1.519 -0.1855 -1.1016  0.4168
 2988SOL     OW 9933   6.147   6.146   2.268  0.5533  0.9847  0.3579
 2988SOL    HW1 9934   6.060   6.184   2.270  0.6155  1.1545 -0.1617
 2988SOL    HW2 9935   6.166   6.132   2.175  1.2415  1.3372  0.4347
 2989SOL     OW 9936   5.363   2.477   3.295  0.8745  0.0611 -0.5854
 2989SOL    HW1 9937   5.285   2.434   3.260  0.4630 -0.6236  1.1037
 2989SOL    HW2 9938   5.380   2.549   3.234 -0.3204 -0.5392 -1.6707
 2990SOL     OW 9939   7.169   3.576   3.008  0.1103  0.0188  0.0643
 2990SOL    HW1 9940   7.193   3.538   3.092  0.2935  1.0262  0.4853
 2990SOL    HW2 9941   7.252   3.583   2.960  0.1363  0.2146  0.1346
 2991SOL     OW 9942   1.955   5.183   3.724 -0.4988  0.0162 -0.3447
 2991SOL    HW1 9943   1.893   5.179   3.797 -1.3337  2.1443 -0.8566
 2991SOL    HW2 9944   2.000   5.098   3.726 -3.3884 -1.6568  0.0961
 2992SOL     OW 9945   3.237   0.215   5.027  0.3472  0.3051 -0.2750
 2992SOL    HW1 9946   3.191   0.177   5.102  0.8140  0.0940 -0.0943
 2992SOL    HW2 9947   3.309   0.155   5.011  1.4520  1.4175  0.3866
 2993SOL     OW 9948   1.636   6.581   6.564 -0.3164  0.3625 -0.2639
 2993SOL    HW1 9949   1.583   6.542   6.494  0.3188 -0.2532 -0.4095
 2993SOL    HW2 9950   1.667   6.664   6.527 -0.1173  0.1167 -0.6578
 2994SOL     OW 9951   7.239   1.540   1.191 -0.6226 -0.1995 -0.1102
 2994SOL    HW1 9952   7.297   1.510   1.120 -2.3488 -0.5622 -1.4355
 2994SOL    HW2 9953   7.204   1.623   1.160 -1.0407 -0.1285  0.5406
 2995SOL     OW 9954   3.733   5.955   2.070  0.4099  0.2588 -0.1148
 2995SOL    HW1 9955   3.770   5.883   2.120 -0.5929 -0.1135  0.1126
 2995SOL    HW2 9956   3.662   5.989   2.125 -0.2641  0.2884 -0.9771
 2996SOL     OW 9957   4.898   4.473   5.335  0.4904 -0.0468  0.6511
 2996SOL    HW1 9958   4.964   4.459   5.402  2.2288 -0.5333 -1.0624
 2996SOL    HW2 9959   4.891   4.568   5.327  0.2181  0.0119  1.5389
 2997SOL     OW 9960   7.023   6.357   6.182 -0.5819  0.3787  0.0308
 2997SOL    HW1 9961   6.931   6.374   6.165 -0.5395 -1.3267 -2.3496
 2997SOL    HW2 9962   7.065   6.443   6.175 -1.5325  0.7272 -2.6288
 2998SOL     OW 9963   1.775   0.375   3.671 -0.6655  0.4535  0.8872
 2998SOL    HW1 9964   1.749   0.447   3.614 -0.9271 -0.2776  0.0463
 2998SOL    HW2 9965   1.809   0.417   3.750 -1.0008  1.4815  0.4996
 2999SOL     OW 9966   4.759   3.709   1.820 -0.1310  0.0996 -0.1414
 2999SOL    HW1 9967   4.811   3.665   1.753 -1.8428 -2.2226 -0.0491
 2999SOL    HW2 9968   4.670   3.712   1.784 -0.6866  0.6891  1.1901
 3000SOL     OW 9969   2.084   1.321   0.865 -0.0518 -0.6015 -0.0933
 3000SOL    HW1 9970   1.999   1.312   0.907  0.0620 -0.9050  0.0791
 3000SOL    HW2 9971   2.095   1.239   0.816 -0.4145 -0.0380 -1.1470
 3001SOL     OW 9972   3.081   4.939   4.091  0.5411 -0.1267 -0.3643
 3001SOL    HW1 9973   3.078   5.019   4.038  1.2710  0.0958 -0.0907
 3001SOL    HW2 9974   3.021   4.879   4.047 -0.6971  0.8526 -0.0804
 3002SOL     OW 9975   5.976   0.228   5.487  0.7893 -0.0866  0.3215
 3002SOL    HW1 9976   5.891   0.195   5.517  0.8602  0.6631  1.4362
 3002SOL    HW2 9977   5.969   0.323   5.497  2.0403 -0.0657  1.2358
 3003SOL     OW 9978   5.076   6.443   2.309  0.4049  0.0183 -0.1118
 3003SOL    HW1 9979   5.126   6.425   2.389  0.0334 -0.7500 -0.0435
 3003SOL    HW2 9980   5.110   6.380   2.245 -1.1062 -1.1889  0.2085
 3004SOL     OW 9981   0.782   2.637   3.232 -0.1101 -0.4867  0.5617
 3004SOL    HW1 9982   0.749   2.548   3.226  0.4419 -0.6925  0.5483
 3004SOL    HW2 9983   0.877   2.628   3.226 -0.1194  0.3309 -2.3830
 3005SOL     OW 9984   6.851   3.878   4.391  0.7122 -0.1762 -0.5500
 3005SOL    HW1 9985   6.798   3.858   4.468 -0.2886  2.5939 -0.4201
 3005SOL    HW2 9986   6.935   3.833   4.407 -0.2452 -1.4910  1.0403
 3006SOL     OW 9987   1.487   5.504   0.328 -0.3371  0.4506 -0.1217
 3006SOL    HW1 9988   1.496   5.537   0.418 -0.8259  1.6165 -0.4889
 3006SOL    HW2 9989   1.442   5.420   0.338  1.9368 -0.7326  0.9250
 3007SOL     OW 9990   3.255   2.329   4.524  0.3972 -0.3430  0.2933
 3007SOL    HW1 9991   3.171   2.374   4.533  1.0208  0.8212  0.5093
 3007SOL    HW2 9992   3.260   2.271   4.600 -0.9262 -1.6905 -0.5821
 3008SOL     OW 9993   4.041   6.348   7.105 -0.1647  0.0357  0.0440
 3008SOL    HW1 9994   4.006   6.309   7.025 -0.3084 -1.3161  0.7333
 3008SOL    HW2 9995   3.975   6.411   7.131 -0.1616  0.4203 -0.8463
 3009SOL     OW 9996   3.641   5.828   6.762  0.8071  0.0340 -0.2351
 3009SOL    HW1 9997   3.628   5.901   6.823  2.2132 -0.9349  1.2805
 3009SOL    HW2 9998   3.588   5.757   6.797 -1.2343  0.4788 -2.1670
 3010SOL     OW 9999   5.372   6.471   5.970 -0.1680 -0.4199 -0.0379
 3010SOL    HW110000   5.325   6.434   5.895 -1.2526  0.4939  0.1616
 3010SOL    HW210001   5.398   6.558   5.941 -1.4386  0.3235  0.9444
 3011SOL     OW10002   5.039   6.692   2.416 -0.2528  0.5146  0.3938
 3011SOL    HW110003   5.041   6.612   2.363 -1.4068 -1.2843  2.8533
 3011SOL    HW210004   4.995   6.756   2.361  1.0340 -0.3568 -1.8119
 3012SOL     OW10005   3.337   2.824   0.720 -0.1322  0.4083 -0.4883
 3012SOL    HW110006   3.428   2.820   0.750 -0.2950  0.1959 -0.0183
 3012SOL    HW210007   3.290   2.763   0.777 -0.3804 -0.3063 -1.4112
 3013SOL     OW10008   3.401   1.871   5.847  0.1736  0.0250 -0.2240
 3013SOL    HW110009   3.394   1.940   5.781 -2.8311 -1.1391 -1.2922
 3013SOL    HW210010   3.466   1.810   5.810  1.8941  1.5464  0.1337
 3014SOL     OW10011   3.362   5.571   1.907  0.3412  0.3208 -0.4336
 3014SOL    HW110012   3.412   5.497   1.941 -0.0266 -0.2062 -1.0254
 3014SOL    HW210013   3.410   5.648   1.939  2.2219 -0.1464 -1.9558
 3015SOL     OW10014   0.412   0.557   4.841 -0.3976  0.1264 -0.4138
 3015SOL    HW110015   0.443   0.613   4.770 -0.3483 -1.6071 -1.8229
 3015SOL    HW210016   0.478   0.489   4.848 -1.2409 -0.6528  0.1497
 3016SOL     OW10017   6.142   6.947   3.597 -0.6913 -0.7771 -0.1698
 3016SOL    HW110018   6.075   6.949   3.665 -1.0326 -0.3941 -0.5073
 3016SOL    HW210019   6.223   6.972   3.642 -1.1057  0.5147 -0.1065
 3017SOL     OW10020   3.927   3.492   1.896 -0.2913  0.4897 -0.2140
 3017SOL    HW110021   3.952   3.550   1.824  2.6556 -1.1970 -0.7307
 3017SOL    HW210022   3.975   3.526   1.972  0.4251 -0.4436 -0.2230
 3018SOL     OW10023   0.027   6.684   1.730  0.2741  0.0881 -0.0409
 3018SOL    HW110024  -0.059   6.722   1.712  0.9541  0.7391 -2.2115
 3018SOL    HW210025   0.054   6.644   1.647  1.9057 -0.4343  0.6931
 3019SOL     OW10026   7.280   7.265   0.512 -0.4296  0.5260  0.3726
 3019SOL    HW110027   7.210   7.224   0.462  0.2474 -1.0662  0.6515
 3019SOL    HW210028   7.316   7.332   0.454  0.1688 -1.0901 -1.2308
 3020SOL     OW10029   5.910   1.766   7.273  0.1057 -0.4344  0.5178
 3020SOL    HW110030   5.830   1.815   7.293  0.4015  0.1431  0.3144
 3020SOL    HW210031   5.904   1.687   7.326 -0.3818 -0.1757  0.8546
 3021SOL     OW10032   0.844   5.314   0.690  0.5211  0.7121  0.3689
 3021SOL    HW110033   0.828   5.311   0.596 -1.5072  0.2362  0.6659
 3021SOL    HW210034   0.767   5.358   0.726 -0.2236 -1.7326  2.0393
 3022SOL     OW10035   5.072   4.667   4.614  0.7329  0.0404  0.4173
 3022SOL    HW110036   5.093   4.733   4.680 -0.4813  2.3172 -1.3245
 3022SOL    HW210037   4.993   4.701   4.570  1.5327 -1.2825 -2.2716
 3023SOL     OW10038   2.083   1.133   5.598  0.2487  0.0586 -0.5396
 3023SOL    HW110039   2.099   1.218   5.641 -0.6500  0.1511 -0.3715
 3023SOL    HW210040   2.052   1.076   5.668 -0.0727 -0.1378 -0.8406
 3024SOL     OW10041   6.889   3.345   5.781  0.3357 -0.2129  0.1662
 3024SOL    HW110042   6.821   3.406   5.810 -0.1824 -0.3278 -0.7779
 3024SOL    HW210043   6.855   3.307   5.700  0.9779 -1.2096  0.3443
 3025SOL     OW10044   2.679   1.777   4.561  0.3497  0.5195  0.3911
 3025SOL    HW110045   2.756   1.738   4.602  1.2552  0.6904 -1.0510
 3025SOL    HW210046   2.609   1.766   4.625  0.9939 -1.8034  0.8106
 3026SOL     OW10047   5.187   2.799   2.263 -0.7775 -0.4739  0.0137
 3026SOL    HW110048   5.262   2.752   2.299 -1.1399 -1.3250 -0.3158
 3026SOL    HW210049   5.221   2.887   2.246  0.0127 -0.7035  0.3135
 3027SOL     OW10050   6.613   0.944   5.791 -0.7909 -0.2097 -0.2891
 3027SOL    HW110051   6.571   0.881   5.849 -0.1499 -0.6985 -0.3354
 3027SOL    HW210052   6.551   0.957   5.720 -1.8775  0.9057  0.8138
 3028SOL     OW10053   2.164   1.918   6.119  0.2137  0.4098  0.4635
 3028SOL    HW110054   2.133   1.882   6.202  1.3124  0.7500  1.0396
 3028SOL    HW210055   2.151   2.012   6.127  1.6030  0.5831  0.8208
 3029SOL     OW10056   5.162   2.256   1.052  0.3748  0.5491  0.6593
 3029SOL    HW110057   5.098   2.324   1.033 -1.1149 -0.8284  0.5149
 3029SOL    HW210058   5.168   2.205   0.972 -0.1909 -0.7546  1.4075
 3030SOL     OW10059   4.811   5.438   3.460  0.2438  0.0643 -0.1971
 3030SOL    HW110060   4.885   5.384   3.490 -0.3618 -0.6768 -0.0009
 3030SOL    HW210061   4.843   5.528   3.466  0.9817 -0.2187  0.3096
 3031SOL     OW10062   6.654   2.517   6.294 -0.7737 -0.2325  0.2837
 3031SOL    HW110063   6.717   2.575   6.338 -0.5172 -0.8168  0.6990
 3031SOL    HW210064   6.569   2.551   6.319 -0.6357  0.5134 -0.2103
 3032SOL     OW10065   6.080   5.161   5.352 -0.3755 -0.1702  0.2592
 3032SOL    HW110066   6.127   5.127   5.276  0.4117  0.6959  0.3470
 3032SOL    HW210067   6.142   5.153   5.424  0.0629  1.9270  0.1793
 3033SOL     OW10068   3.720   0.166   3.220 -0.4849 -0.4105 -0.0462
 3033SOL    HW110069   3.671   0.141   3.298  1.1176 -0.8612  0.8500
 3033SOL    HW210070   3.807   0.128   3.232  1.0176  2.6124 -0.2626
 3034SOL     OW10071   2.860   5.470   0.620  0.1902  0.6693 -0.1570
 3034SOL    HW110072   2.880   5.450   0.529 -2.0548 -0.6222 -0.4127
 3034SOL    HW210073   2.793   5.538   0.616  1.6117  2.2026  0.6255
 3035SOL     OW10074   1.674   1.631   1.755  0.0376 -0.0550  0.4750
 3035SOL    HW110075   1.674   1.702   1.691 -1.7243 -0.2744  0.1830
 3035SOL    HW210076   1.764   1.597   1.753  0.4692  1.0660 -0.5983
 3036SOL     OW10077   0.736   7.377   5.007 -0.2290  0.0211  0.3129
 3036SOL    HW110078   0.812   7.326   4.980  0.0024  1.0792 -1.1380
 3036SOL    HW210079   0.681   7.314   5.054  1.4300 -0.8021  1.2389
 3037SOL     OW10080   2.977   6.136   5.752  0.0252  0.5473  0.2101
 3037SOL    HW110081   2.938   6.195   5.688 -1.8336  0.3429  1.0746
 3037SOL    HW210082   3.009   6.062   5.700 -0.7644  0.7326 -0.5632
 3038SOL     OW10083   2.711   7.127   1.580 -0.1240 -0.1736 -0.1130
 3038SOL    HW110084   2.800   7.162   1.592  0.1173 -0.2867 -1.3888
 3038SOL    HW210085   2.715   7.082   1.495 -1.5222  0.1844 -0.3845
 3039SOL     OW10086   5.582   6.360   2.950  0.4424  0.4068 -0.2467
 3039SOL    HW110087   5.656   6.324   2.901  0.9348  2.2882 -1.0040
 3039SOL    HW210088   5.622   6.404   3.025 -0.2110 -1.3466  1.1915
 3040SOL     OW10089   4.912   6.611   4.317  0.0595 -0.7019 -0.8213
 3040SOL    HW110090   4.897   6.636   4.226 -2.9044  1.6484  0.1670
 3040SOL    HW210091   4.936   6.692   4.361  0.3931 -1.5809  0.6923
 3041SOL     OW10092   1.139   0.989   2.057 -0.4495  0.0246  0.1519
 3041SOL    HW110093   1.168   0.966   1.969 -1.2233  0.1680 -0.1454
 3041SOL    HW210094   1.183   0.927   2.115  1.5212  1.0613 -0.1434
 3042SOL     OW10095   2.136   0.072   1.922  0.9278 -0.8390  0.0523
 3042SOL    HW110096   2.076   0.050   1.993 -0.9535  1.4167 -0.6987
 3042SOL    HW210097   2.213   0.108   1.965  1.0183 -2.0925  0.9862
 3043SOL     OW10098   6.603   4.644   5.570  0.2377 -0.4190 -0.3796
 3043SOL    HW110099   6.616   4.682   5.657  0.4200  0.9933 -1.0093
 3043SOL    HW210100   6.537   4.699   5.529 -0.4896 -1.5951 -0.8506
 3044SOL     OW10101   5.783   7.300   6.034  0.3214  0.5773 -0.2354
 3044SOL    HW110102   5.878   7.302   6.048  0.4694  2.4433 -1.1865
 3044SOL    HW210103   5.746   7.307   6.122  1.0036 -1.2506  0.2558
 3045SOL     OW10104   6.850   3.043   2.875 -0.0262 -0.0767  0.0633
 3045SOL    HW110105   6.922   3.017   2.932 -0.9462 -0.2164  1.2148
 3045SOL    HW210106   6.783   2.975   2.889 -0.5081  0.2116 -0.7437
 3046SOL     OW10107   1.637   3.931   2.424 -0.0287 -0.1525  0.3847
 3046SOL    HW110108   1.705   3.964   2.365  1.1321 -1.0164  1.2048
 3046SOL    HW210109   1.576   3.884   2.366  0.2835  0.2900 -0.3096
 3047SOL     OW10110   2.784   0.679   2.372 -0.2079 -0.4775  0.3820
 3047SOL    HW110111   2.836   0.608   2.333 -0.4285  0.9485 -2.8650
 3047SOL    HW210112   2.709   0.688   2.314 -0.7870  1.6337  1.3704
 3048SOL     OW10113   3.189   0.816   3.552  0.1515  0.4993  0.3098
 3048SOL    HW110114   3.174   0.851   3.639  0.2588 -0.1058  0.5757
 3048SOL    HW210115   3.103   0.818   3.509  0.3101  1.8986  0.0051
 3049SOL     OW10116   3.582   1.220   7.344 -0.1432  0.2865 -0.1989
 3049SOL    HW110117   3.646   1.201   7.275  1.3705 -0.3046  1.2877
 3049SOL    HW210118   3.619   1.296   7.389  0.2000 -0.8091  1.4456
 3050SOL     OW10119   2.371   0.929   3.851  0.2821 -0.0454 -0.4562
 3050SOL    HW110120   2.420   0.870   3.909 -0.0953 -1.2736 -1.3403
 3050SOL    HW210121   2.279   0.913   3.874  0.1793  0.2993 -0.6211
 3051SOL     OW10122   5.623   2.912   2.593  0.3435 -0.0401  0.1447
 3051SOL    HW110123   5.665   2.996   2.612  0.4906 -0.6010  2.5923
 3051SOL    HW210124   5.592   2.921   2.502  2.4121  1.7583 -0.4658
 3052SOL     OW10125   6.664   3.194   7.026 -0.6380  0.4874 -0.2432
 3052SOL    HW110126   6.616   3.125   6.981 -0.4973  0.4065 -0.2667
 3052SOL    HW210127   6.596   3.242   7.075 -0.9765  1.3069 -1.4695
 3053SOL     OW10128   3.726   3.030   1.636 -0.1892  0.2855 -0.6403
 3053SOL    HW110129   3.711   2.938   1.615  1.2883  0.1612 -1.2661
 3053SOL    HW210130   3.638   3.068   1.641 -0.7744 -0.6705 -2.5768
 3054SOL     OW10131   6.420   0.818   1.844  0.0942 -1.2683 -0.1300
 3054SOL    HW110132   6.374   0.756   1.788 -1.8146 -1.6463  1.7341
 3054SOL    HW210133   6.354   0.849   1.905  1.5563  0.8397  0.4998
 3055SOL     OW10134   2.056   4.927   6.473  0.5210 -0.1736 -0.5804
 3055SOL    HW110135   2.051   4.927   6.569 -0.8150 -0.7071 -0.6285
 3055SOL    HW210136   1.999   4.855   6.446 -1.6486  1.8546 -1.8505
 3056SOL     OW10137   4.681   3.042   3.209 -0.4959  0.0760  0.1783
 3056SOL    HW110138   4.760   3.093   3.230  0.6625 -0.7365 -1.9129
 3056SOL    HW210139   4.608   3.101   3.229  0.5402  0.6363  2.8003
 3057SOL     OW10140   6.020   4.529   5.801  0.0049 -0.5694 -0.1170
 3057SOL    HW110141   5.987   4.619   5.803 -1.2637 -1.0073 -0.6112
 3057SOL    HW210142   6.067   4.523   5.718  0.5107 -0.2285  0.1406
 3058SOL     OW10143   5.202   0.431   6.407 -0.1527 -0.4516  0.7240
 3058SOL    HW110144   5.117   0.463   6.438 -0.3945 -1.2980  0.9594
 3058SOL    HW210145   5.263   0.501   6.431 -0.5401 -0.4917  1.9428
 3059SOL     OW10146   6.226   0.478   2.814  0.2537  0.4182  0.5242
 3059SOL    HW110147   6.277   0.426   2.752  0.6228  0.7594  0.5293
 3059SOL    HW210148   6.215   0.422   2.890 -1.3044 -0.4903 -0.3135
 3060SOL     OW10149   2.347   1.462   3.050 -0.4806  0.1129 -0.4788
 3060SOL    HW110150   2.335   1.372   3.080 -1.2466 -0.2324 -1.7760
 3060SOL    HW210151   2.437   1.465   3.019  0.3827  0.5076  1.8242
 3061SOL     OW10152   6.454   5.337   7.353  0.4097 -0.0110 -0.7752
 3061SOL    HW110153   6.426   5.416   7.400  1.4805 -0.5172  0.7829
 3061SOL    HW210154   6.386   5.272   7.371  0.4092  0.0367 -0.6072
 3062SOL     OW10155   7.040   3.938   6.137 -0.1867 -0.9322 -0.0563
 3062SOL    HW110156   6.951   3.962   6.114  0.3503  1.9996  0.6135
 3062SOL    HW210157   7.032   3.891   6.220 -0.9289  2.8754  2.2186
 3063SOL     OW10158   5.902   1.110   6.914  1.1875  0.5183 -0.3480
 3063SOL    HW110159   5.812   1.131   6.941  1.1865  1.4559 -1.0241
 3063SOL    HW210160   5.950   1.191   6.928  2.2035 -0.2869  1.0477
 3064SOL     OW10161   2.757   7.353   6.885  0.3311  0.6378 -0.3348
 3064SOL    HW110162   2.848   7.325   6.885 -0.2127 -1.3201 -1.8147
 3064SOL    HW210163   2.720   7.313   6.964  0.1434 -0.9586 -1.1819
 3065SOL     OW10164   0.670   6.513   7.084 -0.1956 -0.2801  0.0527
 3065SOL    HW110165   0.734   6.542   7.149  0.9071 -0.6579 -0.8217
 3065SOL    HW210166   0.592   6.564   7.102  0.9988  1.7149 -0.1302
 3066SOL     OW10167   1.718   7.311   2.657 -0.9611  0.3241  0.6342
 3066SOL    HW110168   1.775   7.286   2.728 -0.8892  0.8489  0.7662
 3066SOL    HW210169   1.640   7.257   2.668  0.5751 -2.4645 -1.1741
 3067SOL     OW10170   2.050   4.185   4.102 -0.2570  0.2712 -1.0848
 3067SOL    HW110171   2.064   4.115   4.038 -1.5460 -1.2651  0.2052
 3067SOL    HW210172   1.981   4.239   4.064 -0.0865  0.1439 -1.5775
 3068SOL     OW10173   3.165   3.452   0.862 -0.4010 -0.1246 -0.3382
 3068SOL    HW110174   3.236   3.399   0.898  0.8389  1.4444 -0.3789
 3068SOL    HW210175   3.130   3.500   0.938  0.2438  0.9510 -0.7005
 3069SOL     OW10176   2.482   5.657   5.399 -0.5893 -0.6941 -0.3669
 3069SOL    HW110177   2.489   5.562   5.399  0.3944 -0.6362  0.6638
 3069SOL    HW210178   2.400   5.674   5.445 -1.7249 -1.0546 -2.1349
 3070SOL     OW10179   0.226   6.220   5.188  0.3448  0.4371 -0.1142
 3070SOL    HW110180   0.270   6.179   5.263 -1.6938 -1.3377  0.2344
 3070SOL    HW210181   0.239   6.159   5.116 -0.7122  0.3164 -0.2270
 3071SOL     OW10182   5.240   1.119   3.424  0.2996 -0.0504 -0.2610
 3071SOL    HW110183   5.210   1.038   3.465  0.6134  0.2577  0.6059
 3071SOL    HW210184   5.250   1.097   3.331  0.9693 -1.1817  0.0551
 3072SOL     OW10185   6.762   7.143   4.952  0.7435  0.3719  0.3883
 3072SOL    HW110186   6.681   7.107   4.916 -0.1527  0.4723  2.1905
 3072SOL    HW210187   6.800   7.071   5.002  1.4319  0.5348  0.1141
 3073SOL     OW10188   0.137   3.542   1.881  0.3207  0.0769 -0.3416
 3073SOL    HW110189   0.146   3.633   1.853  2.6042 -0.1584 -0.5840
 3073SOL    HW210190   0.099   3.497   1.806 -0.5508  0.7667 -0.3247
 3074SOL     OW10191   3.971   3.433   3.149  0.5390 -0.2279  0.6622
 3074SOL    HW110192   3.918   3.448   3.227 -1.0214  1.7622 -0.6914
 3074SOL    HW210193   4.048   3.489   3.160 -0.7254  1.7798 -0.1092
 3075SOL     OW10194   1.711   0.557   3.207 -0.2850 -0.0836  0.0155
 3075SOL    HW110195   1.651   0.628   3.233  2.3845  2.5945 -0.5570
 3075SOL    HW210196   1.700   0.552   3.112 -0.0132 -0.0081 -0.0186
 3076SOL     OW10197   2.967   1.689   3.781 -0.0416  0.0884  0.2104
 3076SOL    HW110198   2.891   1.631   3.782 -0.4427  0.6093  0.0123
 3076SOL    HW210199   3.041   1.631   3.763 -0.7377 -0.0228 -2.7885
 3077SOL     OW10200   1.679   5.480   2.454 -0.3867  0.3476  0.1257
 3077SOL    HW110201   1.658   5.519   2.369  2.1689  0.1870 -0.6412
 3077SOL    HW210202   1.716   5.552   2.506  0.9413 -0.2085 -0.0154
 3078SOL     OW10203   6.572   0.581   1.892  0.2111 -0.0523  0.0556
 3078SOL    HW110204   6.556   0.559   1.984 -0.4900 -1.0571 -0.2875
 3078SOL    HW210205   6.571   0.677   1.890 -0.3385 -0.0213  1.0097
 3079SOL     OW10206   4.265   6.180   0.183 -0.3550 -0.5324  0.2530
 3079SOL    HW110207   4.279   6.094   0.143 -0.7712  0.0545 -1.1932
 3079SOL    HW210208   4.351   6.205   0.218  0.8461  0.2299 -2.8999
 3080SOL     OW10209   6.353   0.745   4.620 -0.1887 -0.0689  0.5040
 3080SOL    HW110210   6.332   0.765   4.711 -1.0876 -0.5550  0.4142
 3080SOL    HW210211   6.449   0.747   4.616 -0.1555  2.2130  0.9398
 3081SOL     OW10212   7.092   1.046   4.605 -0.2071  0.0997 -0.0497
 3081SOL    HW110213   7.100   0.968   4.660  0.2112  0.6322  0.6619
 3081SOL    HW210214   7.155   1.108   4.642 -1.6485  1.3662  0.3793
 3082SOL     OW10215   6.874   4.514   5.513 -0.7013  0.5167  0.5653
 3082SOL    HW110216   6.891   4.517   5.419  1.2515 -0.2117  0.8524
 3082SOL    HW210217   6.803   4.577   5.526  0.6113  2.4604 -1.0627
 3083SOL     OW10218   4.313   1.733   2.761 -0.2071  0.5290 -0.2558
 3083SOL    HW110219   4.280   1.649   2.794 -1.2124  0.3710 -1.5870
 3083SOL    HW210220   4.352   1.775   2.838 -1.3847 -0.3296  0.8679
 3084SOL     OW10221   1.634   6.667   2.252  0.1832 -0.3680  0.0241
 3084SOL    HW110222   1.712   6.689   2.303 -0.9911  1.6201  1.1342
 3084SOL    HW210223   1.622   6.573   2.264  0.5553 -0.1562  2.6243
 3085SOL     OW10224   6.662   0.195   6.135  0.7428  0.1951 -0.4878
 3085SOL    HW110225   6.579   0.232   6.104  0.8482 -0.2112 -1.2788
 3085SOL    HW210226   6.729   0.243   6.086  0.9640  0.3037 -0.0804
 3086SOL     OW10227   3.560   0.078   3.461 -0.2199 -0.1116  0.2615
 3086SOL    HW110228   3.577  -0.015   3.470 -0.8150 -0.2140  0.3637
 3086SOL    HW210229   3.515   0.103   3.541  0.4044  0.3788  0.4659
 3087SOL     OW10230   1.791   0.235   4.122  0.1418  0.5916 -0.1206
 3087SOL    HW110231   1.731   0.291   4.074 -0.6050  1.3286  1.5750
 3087SOL    HW210232   1.783   0.264   4.213  0.0697 -1.9683  0.7654
 3088SOL     OW10233   2.150   4.556   4.363  0.1342  0.9933  0.2127
 3088SOL    HW110234   2.230   4.520   4.401 -0.4614  0.5837  1.1323
 3088SOL    HW210235   2.172   4.647   4.343  2.4160 -0.2693 -4.2910
 3089SOL     OW10236   3.940   7.069   3.027  0.5621 -0.0241  0.4801
 3089SOL    HW110237   3.931   7.120   2.947 -0.0803  0.2453  0.7177
 3089SOL    HW210238   3.900   7.124   3.095  0.1405 -0.7101  0.7983
 3090SOL     OW10239   1.858   3.231   1.400 -0.5327 -0.0524  0.4707
 3090SOL    HW110240   1.822   3.145   1.383 -0.8518  0.0068  0.8248
 3090SOL    HW210241   1.924   3.244   1.333 -0.1090 -0.7909  0.7384
 3091SOL     OW10242   1.906   1.408   6.598  0.1813  0.3339 -0.1391
 3091SOL    HW110243   1.839   1.418   6.665  0.1130  1.0514 -0.3079
 3091SOL    HW210244   1.963   1.338   6.631 -2.2641 -2.4300 -1.3373
 3092SOL     OW10245   3.007   6.309   1.869 -0.2608 -0.6580 -0.0545
 3092SOL    HW110246   3.021   6.369   1.942 -0.8189 -3.3131  2.3994
 3092SOL    HW210247   2.912   6.299   1.863 -0.2024 -0.7739 -0.8699
 3093SOL     OW10248   5.598   1.347   0.323 -0.4668 -0.3286  0.1637
 3093SOL    HW110249   5.628   1.395   0.400 -0.0272 -1.7648  0.9283
 3093SOL    HW210250   5.671   1.288   0.302 -1.1314 -0.9358 -0.4943
 3094SOL     OW10251   3.912   6.246   6.873  0.2464 -0.8144 -0.0751
 3094SOL    HW110252   3.931   6.193   6.796 -1.9367 -2.7879  0.6428
 3094SOL    HW210253   3.834   6.296   6.849  1.2705  0.8739 -0.1129
 3095SOL     OW10254   2.106   5.348   6.940 -0.3603 -0.0130  0.1045
 3095SOL    HW110255   2.039   5.281   6.951 -0.4367  0.4053  2.5505
 3095SOL    HW210256   2.074   5.402   6.867 -2.8748  0.3777  1.4137
 3096SOL     OW10257   3.869   2.512   0.939 -0.1107 -0.6854 -0.0015
 3096SOL    HW110258   3.821   2.533   1.019  1.0236  5.4558 -0.4524
 3096SOL    HW210259   3.961   2.520   0.963  0.2734  0.2493 -1.6371
 3097SOL     OW10260   6.453   5.447   3.754 -0.3751 -0.2274 -0.2026
 3097SOL    HW110261   6.465   5.352   3.749  0.4465 -0.2158  1.2391
 3097SOL    HW210262   6.522   5.477   3.813 -0.7972  1.2416 -0.4250
 3098SOL     OW10263   4.185   0.013   2.137  0.3177 -0.1838 -0.1465
 3098SOL    HW110264   4.175   0.064   2.218  1.4924 -1.3417  0.7631
 3098SOL    HW210265   4.102   0.026   2.091  0.7076  2.9008 -0.1988
 3099SOL     OW10266   1.133   7.226   2.987  0.2112 -0.2138 -0.0228
 3099SOL    HW110267   1.098   7.204   2.900  0.7962 -1.4003  0.0149
 3099SOL    HW210268   1.057   7.227   3.044 -0.0348 -0.6615 -0.3340
 3100SOL     OW10269   2.058   0.825   5.735  0.0796 -0.7463 -0.1803
 3100SOL    HW110270   1.972   0.793   5.760 -0.1747 -0.3146 -0.5007
 3100SOL    HW210271   2.078   0.893   5.800 -1.1300  1.2792 -1.8166
 3101SOL     OW10272   4.378   3.046   7.135 -0.0571 -0.4747  0.4370
 3101SOL    HW110273   4.442   3.087   7.077 -0.4923  0.0802  0.3456
 3101SOL    HW210274   4.400   3.080   7.222  0.0404 -0.6188  0.4690
 3102SOL     OW10275   0.267   2.991   0.503 -0.5411 -0.1132 -0.1211
 3102SOL    HW110276   0.256   2.946   0.420 -0.9392 -1.7788  0.8016
 3102SOL    HW210277   0.329   2.938   0.552 -1.3537  0.0854  1.1698
 3103SOL     OW10278   6.978   5.733   3.505  0.1303  0.4643 -0.4333
 3103SOL    HW110279   6.974   5.718   3.411  1.2098  1.6696 -0.6934
 3103SOL    HW210280   6.943   5.821   3.518  0.9137  0.6979  0.1755
 3104SOL     OW10281   7.246   3.455   2.068  0.3165 -0.2623  0.2305
 3104SOL    HW110282   7.336   3.422   2.073  0.0308 -0.9200  2.4873
 3104SOL    HW210283   7.227   3.462   1.975  1.5773 -3.3689 -0.3683
 3105SOL     OW10284   6.509   6.005   3.610 -0.0611  0.0623  0.1862
 3105SOL    HW110285   6.519   5.958   3.528 -2.4755  1.2083 -0.8400
 3105SOL    HW210286   6.576   6.074   3.607 -0.4579  0.4137 -1.0752
 3106SOL     OW10287   6.143   1.896   1.070 -0.3719  0.3113  0.1815
 3106SOL    HW110288   6.120   1.885   1.162  0.5398  0.2349  0.4158
 3106SOL    HW210289   6.180   1.811   1.045 -1.5947 -0.0274 -0.5679
 3107SOL     OW10290   4.858   5.360   7.138 -0.3208 -0.1474 -0.4138
 3107SOL    HW110291   4.794   5.288   7.142 -0.2962 -0.1293  0.4665
 3107SOL    HW210292   4.804   5.439   7.146 -0.2882 -0.0921 -0.7482
 3108SOL     OW10293   2.609   2.550   0.877  0.7415  0.1213  0.4159
 3108SOL    HW110294   2.625   2.617   0.943 -0.6325  1.0774 -0.1681
 3108SOL    HW210295   2.527   2.509   0.905  0.9833 -0.5434  0.1516
 3109SOL     OW10296   0.061   1.559   7.164 -0.6478 -0.0112 -0.3025
 3109SOL    HW110297   0.064   1.470   7.127  2.1648 -0.6580  1.2038
 3109SOL    HW210298   0.087   1.615   7.091  0.0085 -0.7037 -0.6170
 3110SOL     OW10299   5.649   1.335   2.724  0.0488  0.7508 -0.3470
 3110SOL    HW110300   5.718   1.292   2.673 -1.2513 -0.2681 -1.3470
 3110SOL    HW210301   5.610   1.397   2.663 -1.6058 -0.5711 -0.7224
 3111SOL     OW10302   4.306   7.099   1.746  0.1251  0.0349  0.1427
 3111SOL    HW110303   4.369   7.068   1.682 -2.5866 -2.1890 -1.6923
 3111SOL    HW210304   4.266   7.176   1.705  0.0775  0.0919  0.2934
 3112SOL     OW10305   5.300   1.976   4.250 -0.4412  0.5631  0.2499
 3112SOL    HW110306   5.289   2.062   4.210  0.5689  0.0561 -1.1742
 3112SOL    HW210307   5.254   1.916   4.191  0.9043 -0.1688 -0.0981
 3113SOL     OW10308   2.649   3.696   3.515 -0.3164  0.0544  0.1475
 3113SOL    HW110309   2.565   3.740   3.522 -0.3559 -0.0673  0.4489
 3113SOL    HW210310   2.652   3.665   3.424  0.1381  1.5181 -0.3668
 3114SOL     OW10311   4.517   6.149   7.191  0.3022 -0.0738  0.2981
 3114SOL    HW110312   4.608   6.167   7.216  0.5036  0.1222 -0.5389
 3114SOL    HW210313   4.465   6.209   7.245  0.6658 -0.1755  0.7687
 3115SOL     OW10314   1.710   5.085   0.884  0.0378 -0.1786 -0.1458
 3115SOL    HW110315   1.742   5.035   0.959  1.3441  1.3951  0.4021
 3115SOL    HW210316   1.790   5.116   0.841 -0.6948 -0.8259 -2.0555
 3116SOL     OW10317   3.326   5.521   3.622 -0.0362  0.4093  0.2599
 3116SOL    HW110318   3.260   5.557   3.562  0.1279  0.2784  0.0025
 3116SOL    HW210319   3.391   5.590   3.630 -0.9663  1.1732  1.7355
 3117SOL     OW10320   4.174   4.772   7.362 -0.1153 -0.4421 -0.3553
 3117SOL    HW110321   4.165   4.866   7.350  1.5160 -0.3463 -1.1434
 3117SOL    HW210322   4.084   4.739   7.367 -0.6966  1.2028  0.4875
 3118SOL     OW10323   4.215   0.182   4.461  0.4229 -0.2616  0.0523
 3118SOL    HW110324   4.286   0.155   4.403  1.4289 -0.1244  1.1792
 3118SOL    HW210325   4.224   0.277   4.467  0.7753 -0.3448  0.9798
 3119SOL     OW10326   2.983   6.595   5.518  0.0156 -0.1102  0.3800
 3119SOL    HW110327   2.934   6.514   5.506 -2.2402  0.6379  3.2736
 3119SOL    HW210328   3.048   6.574   5.585  0.1541  0.2129  0.3489
 3120SOL     OW10329   5.538   0.458   1.592  0.2620 -0.1377 -0.1947
 3120SOL    HW110330   5.519   0.548   1.617 -0.9090 -0.6370  0.8369
 3120SOL    HW210331   5.484   0.442   1.514  0.9214  0.2296 -0.7281
 3121SOL     OW10332   5.872   1.146   6.186 -0.1220  0.0578 -0.0281
 3121SOL    HW110333   5.831   1.153   6.272 -0.1474  0.7242 -0.0855
 3121SOL    HW210334   5.803   1.170   6.124 -0.5251 -1.7987 -0.3572
 3122SOL     OW10335   6.474   3.510   1.396  0.2874  0.0641  0.0148
 3122SOL    HW110336   6.512   3.505   1.484 -1.3049  0.1404  0.7291
 3122SOL    HW210337   6.477   3.604   1.375 -0.3989  0.2059  0.4967
 3123SOL     OW10338   5.284   3.778   3.955  0.1586 -0.3978 -0.1025
 3123SOL    HW110339   5.288   3.867   3.990 -1.3239  0.2392 -1.4487
 3123SOL    HW210340   5.204   3.742   3.991  0.3301 -0.9044 -0.2245
 3124SOL     OW10341   3.827   1.017   0.058  0.3769 -0.2847 -0.5468
 3124SOL    HW110342   3.775   1.037  -0.020  0.9290 -1.5450 -1.2721
 3124SOL    HW210343   3.789   0.935   0.090  0.9351 -0.4052 -0.1882
 3125SOL     OW10344   6.004   5.749   6.652 -0.3964 -0.4571  0.5333
 3125SOL    HW110345   5.993   5.654   6.662  2.4725 -0.8096  1.0998
 3125SOL    HW210346   6.076   5.771   6.711 -1.1104  2.1512  0.5517
 3126SOL     OW10347   2.271   5.371   4.960  0.6094  0.2684 -0.3425
 3126SOL    HW110348   2.271   5.283   4.922 -0.1049 -0.0292  0.3323
 3126SOL    HW210349   2.180   5.386   4.984  1.3769 -0.6317  3.7596
 3127SOL     OW10350   2.052   6.583   5.517 -0.1883  0.0886  0.0475
 3127SOL    HW110351   2.057   6.652   5.583 -2.6531  1.3093 -0.9069
 3127SOL    HW210352   2.133   6.594   5.466  0.0756  1.4577  0.7040
 3128SOL     OW10353   2.679   0.042   3.690 -0.3875  0.1180  0.1857
 3128SOL    HW110354   2.729   0.103   3.744  0.1679  0.2226 -0.4373
 3128SOL    HW210355   2.712   0.056   3.601 -1.8682  0.5670 -0.3374
 3129SOL     OW10356   5.559   6.188   5.896  0.2656 -0.2024 -0.5492
 3129SOL    HW110357   5.498   6.160   5.964  0.6510 -0.4649 -0.3089
 3129SOL    HW210358   5.583   6.107   5.851  0.4011 -0.0960 -0.6685
 3130SOL     OW10359   0.256   4.292   2.919  0.4804  0.1663  0.0231
 3130SOL    HW110360   0.267   4.199   2.902 -0.0261 -0.0613  0.8683
 3130SOL    HW210361   0.334   4.317   2.969  0.8439  0.3068 -0.6100
 3131SOL     OW10362   4.502   1.851   4.888  0.2618  0.5996 -0.1592
 3131SOL    HW110363   4.470   1.918   4.827 -1.4769  0.8378  0.9385
 3131SOL    HW210364   4.489   1.769   4.842 -0.4165  0.8200 -0.3692
 3132SOL     OW10365   0.542   2.692   5.098 -0.6466 -0.1741 -0.3037
 3132SOL    HW110366   0.462   2.643   5.115 -0.0870 -0.4888  1.6942
 3132SOL    HW210367   0.594   2.635   5.041 -0.7401 -1.1609  0.5695
 3133SOL     OW10368   5.012   6.319   6.306 -0.1954  0.1414 -0.3443
 3133SOL    HW110369   5.069   6.344   6.379 -1.3485  3.1862 -0.3715
 3133SOL    HW210370   4.949   6.258   6.344 -0.4923  1.3228  1.1098
 3134SOL     OW10371   6.250   2.591   0.834 -0.2563 -0.0573 -0.1499
 3134SOL    HW110372   6.205   2.542   0.766 -0.3191  1.4306 -1.2345
 3134SOL    HW210373   6.261   2.679   0.798  1.9484  0.1301  0.7755
 3135SOL     OW10374   2.735   3.851   7.170  0.2074 -0.0166  0.1419
 3135SOL    HW110375   2.675   3.805   7.111  0.4539  0.8202 -0.7999
 3135SOL    HW210376   2.714   3.817   7.257 -2.4853  1.1374  0.0273
 3136SOL     OW10377   3.528   1.055   5.759 -0.5406 -0.2914 -0.0426
 3136SOL    HW110378   3.615   1.017   5.757 -0.5504 -0.2825 -0.9678
 3136SOL    HW210379   3.512   1.074   5.852  0.1100 -1.0310  0.2306
 3137SOL     OW10380   5.678   2.455   4.321  0.0300  0.2406 -0.6323
 3137SOL    HW110381   5.664   2.492   4.408 -0.3707  1.1510 -1.0810
 3137SOL    HW210382   5.717   2.369   4.338 -3.3969 -1.2295  0.5827
 3138SOL     OW10383   4.605   3.889   0.712  0.3079  0.2205  0.0274
 3138SOL    HW110384   4.660   3.883   0.790  0.7169  0.6337 -0.2225
 3138SOL    HW210385   4.667   3.905   0.641 -0.1417  0.7989 -0.2405
 3139SOL     OW10386   4.617   2.442   1.400 -0.2945 -0.0426 -0.0728
 3139SOL    HW110387   4.705   2.415   1.429  0.3383  0.6535 -1.2973
 3139SOL    HW210388   4.562   2.428   1.477  1.3782  1.9835  1.6044
 3140SOL     OW10389   5.157   5.241   0.523  0.4898  0.4013 -0.0419
 3140SOL    HW110390   5.239   5.285   0.544  1.2730 -0.4155 -1.2467
 3140SOL    HW210391   5.174   5.198   0.438 -1.1567  0.1720 -0.2858
 3141SOL     OW10392   3.742   0.695   5.285 -0.4356  0.4814  0.3871
 3141SOL    HW110393   3.693   0.635   5.229  0.5007  2.0890 -2.3603
 3141SOL    HW210394   3.819   0.646   5.313 -0.0192  0.1453 -1.2697
 3142SOL     OW10395   0.114   1.786   2.185 -0.1960  0.3489 -0.3859
 3142SOL    HW110396   0.074   1.802   2.271  1.5901  0.5304  0.4513
 3142SOL    HW210397   0.173   1.712   2.200 -0.0040  0.2577 -1.5164
 3143SOL     OW10398   3.976   2.515   4.553  0.7371 -0.6461  0.4660
 3143SOL    HW110399   3.946   2.587   4.497  0.7945 -1.4724 -0.6718
 3143SOL    HW210400   3.998   2.557   4.636  0.8412  0.6626 -0.1922
 3144SOL     OW10401   2.316   3.545   5.191 -0.0789 -0.6204  0.2582
 3144SOL    HW110402   2.376   3.489   5.241  0.5823 -0.9924 -0.9102
 3144SOL    HW210403   2.299   3.496   5.111 -2.9309 -1.0632  1.0317
 3145SOL     OW10404   4.598   4.208   3.833 -0.4005 -0.3679 -0.0187
 3145SOL    HW110405   4.634   4.296   3.824 -1.1246 -0.1637 -1.0676
 3145SOL    HW210406   4.635   4.159   3.760  1.0436 -1.3307  1.2914
 3146SOL     OW10407   4.925   4.418   1.360  0.0152 -0.2642  0.3230
 3146SOL    HW110408   4.842   4.443   1.319 -0.2791 -0.6303  0.6746
 3146SOL    HW210409   4.899   4.358   1.431  0.3703  1.4584  2.0057
 3147SOL     OW10410   0.505   6.116   3.453 -0.9464 -0.3875  0.8300
 3147SOL    HW110411   0.590   6.152   3.479 -1.0815 -0.0087  0.7541
 3147SOL    HW210412   0.465   6.185   3.401 -0.8264 -0.9930 -0.0931
 3148SOL     OW10413   6.126   1.312   3.218  0.2146  0.0414  0.4039
 3148SOL    HW110414   6.041   1.345   3.188  0.6449  1.8634  1.0883
 3148SOL    HW210415   6.128   1.222   3.186 -1.7527  0.1063 -0.0729
 3149SOL     OW10416   3.351   6.947   5.953 -0.4165 -0.3999  0.3560
 3149SOL    HW110417   3.392   7.031   5.932 -1.1718  0.1084  0.8560
 3149SOL    HW210418   3.356   6.941   6.048 -1.1531 -0.4932  0.3966
 3150SOL     OW10419   3.396   6.220   2.119 -0.5998 -1.1139  0.0902
 3150SOL    HW110420   3.321   6.225   2.179 -0.5516 -3.7912  0.5209
 3150SOL    HW210421   3.469   6.193   2.175 -0.5526 -3.6986 -1.0635
 3151SOL     OW10422   6.616   3.977   0.561  0.1310  0.3983  0.3276
 3151SOL    HW110423   6.627   4.057   0.510  0.2196 -0.9923 -2.0215
 3151SOL    HW210424   6.693   3.924   0.539 -1.3788 -1.5206 -0.6493
 3152SOL     OW10425   4.377   3.105   0.482  0.3410  0.0075 -1.0311
 3152SOL    HW110426   4.386   3.193   0.518 -0.1887 -0.1716 -0.4636
 3152SOL    HW210427   4.284   3.085   0.489  0.5566 -0.8570 -0.5554
 3153SOL     OW10428   1.324   0.572   2.268 -0.1727 -0.1310 -0.5059
 3153SOL    HW110429   1.298   0.584   2.360  1.4899  0.2204 -0.0455
 3153SOL    HW210430   1.383   0.497   2.270 -0.4487 -0.3855 -1.3801
 3154SOL     OW10431   4.025   1.572   3.506  0.1021 -0.1137 -0.2828
 3154SOL    HW110432   3.994   1.650   3.460 -1.3322  0.1112  0.9604
 3154SOL    HW210433   3.983   1.578   3.592  0.4983 -1.9169  0.0671
 3155SOL     OW10434   6.362   1.585   4.171 -0.2809  0.0272  0.1150
 3155SOL    HW110435   6.397   1.605   4.258  0.7235  1.1876 -0.5292
 3155SOL    HW210436   6.270   1.612   4.176  0.1309  1.4803  0.4019
 3156SOL     OW10437   5.351   6.293   1.097 -0.3223 -0.1563  0.7269
 3156SOL    HW110438   5.446   6.309   1.093 -0.2013 -0.7938  1.0333
 3156SOL    HW210439   5.333   6.280   1.190 -0.7914  0.4270  0.7228
 3157SOL     OW10440   2.425   6.921   6.652 -0.1366  0.3206 -0.6610
 3157SOL    HW110441   2.420   7.016   6.648 -0.4615  0.2627 -1.8871
 3157SOL    HW210442   2.506   6.903   6.699  0.5263  1.2041 -1.4387
 3158SOL     OW10443   5.261   7.353   6.708 -0.3505  0.5085  0.0364
 3158SOL    HW110444   5.279   7.289   6.638 -1.3136 -1.4627  1.4837
 3158SOL    HW210445   5.253   7.436   6.662  1.0150 -0.3694 -1.9547
 3159SOL     OW10446   0.086   6.669   3.292 -0.0519  0.2435  0.4641
 3159SOL    HW110447   0.160   6.662   3.232  0.0301 -0.1680  0.6138
 3159SOL    HW210448   0.090   6.760   3.323 -0.0793  0.4454 -0.1253
 3160SOL     OW10449   5.832   5.209   5.720  0.2869 -0.3740 -0.4784
 3160SOL    HW110450   5.795   5.232   5.634  0.2520 -1.2405 -0.7039
 3160SOL    HW210451   5.756   5.191   5.775  0.2733  1.1219  0.0224
 3161SOL     OW10452   3.061   2.973   5.359 -0.0890 -0.2908 -0.5401
 3161SOL    HW110453   2.983   2.916   5.360 -0.2665 -0.0863 -1.3391
 3161SOL    HW210454   3.134   2.914   5.380 -0.4200 -0.5485 -0.0893
 3162SOL     OW10455   2.330   1.643   6.419  0.0247  0.1976 -0.2775
 3162SOL    HW110456   2.328   1.582   6.346 -0.4629 -0.9357  0.6557
 3162SOL    HW210457   2.388   1.714   6.389 -0.2885 -0.1507 -1.8020
 3163SOL     OW10458   3.134   7.206   6.061  0.8529  0.7381  0.2798
 3163SOL    HW110459   3.098   7.294   6.073  1.2554  0.9163  0.1827
 3163SOL    HW210460   3.091   7.172   5.983 -0.0323  0.4695  0.8629
 3164SOL     OW10461   7.065   3.184   3.911  0.0951 -0.5946 -0.5592
 3164SOL    HW110462   7.072   3.197   4.006  0.9154 -0.9965 -0.5546
 3164SOL    HW210463   6.995   3.119   3.901  1.6927 -2.5145 -0.0335
 3165SOL     OW10464   0.951   3.286   2.341 -0.1833 -0.1456 -0.3202
 3165SOL    HW110465   1.022   3.345   2.367  0.4621  1.7900 -5.4055
 3165SOL    HW210466   0.979   3.200   2.372  1.5961  1.3110  2.5535
 3166SOL     OW10467   5.623   3.465   3.508  0.4296 -0.2276 -0.3683
 3166SOL    HW110468   5.534   3.462   3.545 -0.2177  1.4631 -1.6371
 3166SOL    HW210469   5.679   3.490   3.581  0.3347 -3.6159  1.0595
 3167SOL     OW10470   3.830   5.128   1.829  0.6489  0.1475  0.2830
 3167SOL    HW110471   3.778   5.117   1.909  1.0624 -0.2502  0.5024
 3167SOL    HW210472   3.769   5.167   1.766 -1.4639 -4.4795 -0.9880
 3168SOL     OW10473   6.701   1.199   3.934 -0.4525 -0.3603 -0.1372
 3168SOL    HW110474   6.745   1.261   3.993 -0.7804 -0.9536  0.7429
 3168SOL    HW210475   6.625   1.168   3.984 -0.7574 -0.8430 -0.8914
 3169SOL     OW10476   6.370   6.269   1.990 -0.3000  0.3436  0.8103
 3169SOL    HW110477   6.310   6.209   1.946  2.1795 -0.0982 -2.3882
 3169SOL    HW210478   6.422   6.212   2.047 -1.2235  0.3421  1.6836
 3170SOL     OW10479   3.541   6.463   2.855  0.0730 -0.0426 -0.0976
 3170SOL    HW110480   3.588   6.535   2.898 -0.7493  0.2955  0.2622
 3170SOL    HW210481   3.605   6.425   2.796  0.7044  0.6129  0.1425
 3171SOL     OW10482   5.065   5.297   2.276 -0.1456 -0.1866 -0.1604
 3171SOL    HW110483   5.087   5.207   2.251 -0.4610 -0.5421  0.7911
 3171SOL    HW210484   5.096   5.304   2.366 -2.0928 -0.0540  0.5394
 3172SOL     OW10485   0.831   1.141   6.354  0.0451  0.0414 -0.4759
 3172SOL    HW110486   0.833   1.212   6.419  0.9944 -1.4889  1.2510
 3172SOL    HW210487   0.756   1.162   6.299  1.2012  3.2589 -1.0889
 3173SOL     OW10488   3.683   6.048   5.096  0.2057 -0.1360 -0.1357
 3173SOL    HW110489   3.734   5.973   5.126  0.1382 -0.9537 -1.9510
 3173SOL    HW210490   3.628   6.014   5.026  1.4257  1.9040 -2.2492
 3174SOL     OW10491   5.687   6.170   5.552 -0.1090 -0.3521  0.0221
 3174SOL    HW110492   5.640   6.086   5.555  0.7138 -0.8650 -0.9501
 3174SOL    HW210493   5.724   6.180   5.640  2.2880 -2.5066 -0.6406
 3175SOL     OW10494   4.735   4.377   4.997  0.7926 -0.1042 -0.4934
 3175SOL    HW110495   4.799   4.334   5.055 -0.4095 -1.0930  0.1457
 3175SOL    HW210496   4.709   4.308   4.936  1.3363  0.6756 -1.6392
 3176SOL     OW10497   1.046   4.721   1.246  0.5865 -0.3304  0.0717
 3176SOL    HW110498   1.001   4.760   1.170  1.3118  1.5681  0.5703
 3176SOL    HW210499   1.001   4.758   1.322  2.8626  1.5458  0.5861
 3177SOL     OW10500   0.044   0.953   0.626 -0.0218  0.2192 -0.1517
 3177SOL    HW110501   0.093   0.987   0.551  0.4278  0.8660  0.4155
 3177SOL    HW210502   0.022   0.863   0.603 -2.1469  1.1529 -2.1718
 3178SOL     OW10503   0.190   5.234   4.303 -0.4945 -0.5043 -0.5160
 3178SOL    HW110504   0.194   5.164   4.369 -1.5376  0.0308  0.1486
 3178SOL    HW210505   0.137   5.198   4.233 -1.0388 -0.3913 -0.1694
 3179SOL     OW10506   2.738   4.530   3.841  0.8152  0.4081 -0.6344
 3179SOL    HW110507   2.715   4.442   3.871  0.7109  0.4207 -0.6752
 3179SOL    HW210508   2.654   4.576   3.837  0.7070  0.1556 -1.7655
 3180SOL     OW10509   0.458   2.851   0.671  0.3161  0.3209 -0.0991
 3180SOL    HW110510   0.497   2.930   0.709 -0.6333  1.0617 -0.6049
 3180SOL    HW210511   0.416   2.807   0.746 -0.2915  1.0104 -0.0198
 3181SOL     OW10512   2.219   4.400   2.142  0.6683 -0.0278  0.1996
 3181SOL    HW110513   2.149   4.342   2.114  1.8540 -1.0500 -0.7681
 3181SOL    HW210514   2.291   4.342   2.165  2.0697  1.0101 -1.3031
 3182SOL     OW10515   5.767   3.060   1.476 -0.3310 -0.5257  0.3746
 3182SOL    HW110516   5.746   2.976   1.435  1.5325 -0.0508 -1.7004
 3182SOL    HW210517   5.860   3.055   1.496  0.0384  1.3878 -0.6919
 3183SOL     OW10518   5.618   1.699   1.010 -0.9306  0.2309  0.0122
 3183SOL    HW110519   5.545   1.703   1.072 -1.7273  0.4149 -0.9159
 3183SOL    HW210520   5.607   1.775   0.954  0.5466  0.8011  0.4404
 3184SOL     OW10521   5.936   6.063   4.007  0.6021 -0.0086 -0.2576
 3184SOL    HW110522   5.881   6.077   3.930  0.1963  1.3399  0.2414
 3184SOL    HW210523   5.998   5.995   3.981 -2.1061 -2.5911 -0.4190
 3185SOL     OW10524   2.568   2.834   0.500  0.7381 -0.4864  0.2327
 3185SOL    HW110525   2.628   2.908   0.505  0.5961 -0.2592 -1.1940
 3185SOL    HW210526   2.560   2.815   0.407 -1.5462 -0.3935  0.3440
 3186SOL     OW10527   3.789   5.575   2.863  0.4286 -0.4847 -0.1007
 3186SOL    HW110528   3.819   5.500   2.915  1.0289 -0.4687 -0.4080
 3186SOL    HW210529   3.727   5.620   2.920 -0.0641 -1.3043  0.0236
 3187SOL     OW10530   0.424   2.113   1.314 -0.1510 -0.2804 -0.2382
 3187SOL    HW110531   0.453   2.028   1.347 -0.2920 -0.0520  0.4861
 3187SOL    HW210532   0.350   2.092   1.257 -0.6764 -0.5893  0.5382
 3188SOL     OW10533   3.158   5.749   5.886 -0.3461  0.4857  0.0342
 3188SOL    HW110534   3.104   5.671   5.874  0.0718  0.2074 -0.0731
 3188SOL    HW210535   3.192   5.768   5.798 -1.4690  1.5568 -0.1994
 3189SOL     OW10536   1.040   4.381   3.851 -0.0542  0.4634  0.2082
 3189SOL    HW110537   0.970   4.322   3.878  0.0549  0.4680  0.5071
 3189SOL    HW210538   1.117   4.352   3.900  0.5202 -0.4421 -1.1701
 3190SOL     OW10539   6.926   6.004   3.495 -0.5011 -0.2655  0.2680
 3190SOL    HW110540   6.857   6.068   3.515  0.8548  1.1071  0.7129
 3190SOL    HW210541   6.903   5.971   3.408 -1.0846  1.0571 -0.1069
 3191SOL     OW10542   3.297   1.289   4.161  0.1986  0.1355  0.2087
 3191SOL    HW110543   3.358   1.326   4.225 -1.9289  0.1835  2.3195
 3191SOL    HW210544   3.217   1.340   4.171 -0.3056 -0.0364 -2.3601
 3192SOL     OW10545   1.375   4.236   1.666 -0.0475  0.3440  0.0527
 3192SOL    HW110546   1.425   4.179   1.726 -1.7884  0.0481  1.2951
 3192SOL    HW210547   1.411   4.217   1.579  0.5111 -1.4610  0.6404
 3193SOL     OW10548   0.258   0.048   2.742  0.2105 -0.0231 -0.3727
 3193SOL    HW110549   0.323   0.043   2.671 -0.4524  0.1193 -1.0037
 3193SOL    HW210550   0.239   0.141   2.751 -1.4573 -0.2029 -1.6574
 3194SOL     OW10551   4.368   1.935   1.433 -0.5627  0.3179  0.3163
 3194SOL    HW110552   4.339   1.866   1.374 -1.3769  0.4559  0.5478
 3194SOL    HW210553   4.388   2.009   1.375  1.6514 -0.5026 -0.0762
 3195SOL     OW10554   4.008   4.974   5.225 -0.1722  0.4748 -0.5235
 3195SOL    HW110555   4.020   4.881   5.206 -1.0371 -0.0298  1.1362
 3195SOL    HW210556   4.079   4.995   5.286 -0.8464  0.4746  0.2905
 3196SOL     OW10557   3.780   4.266   6.277 -0.2594  0.4162  0.2201
 3196SOL    HW110558   3.747   4.203   6.341 -1.8811  0.5543 -0.4172
 3196SOL    HW210559   3.712   4.334   6.274  0.1731  0.8221 -1.0410
 3197SOL     OW10560   2.904   6.733   1.780 -0.7071  0.6695 -0.1069
 3197SOL    HW110561   2.987   6.716   1.825 -0.9690  0.0082  0.1332
 3197SOL    HW210562   2.903   6.671   1.708 -0.4998  1.4212 -0.7717
 3198SOL     OW10563   6.924   5.289   3.247  0.4144  0.8409  0.3018
 3198SOL    HW110564   6.933   5.222   3.315  1.6606  1.9651  1.3042
 3198SOL    HW210565   7.012   5.296   3.209  0.1357  1.4342 -0.2541
 3199SOL     OW10566   1.553   2.541   3.094  0.5759 -0.2488  0.1406
 3199SOL    HW110567   1.617   2.548   3.165  0.0176  1.7203  0.5122
 3199SOL    HW210568   1.468   2.545   3.138  0.1807 -1.4309 -0.4732
 3200SOL     OW10569   5.558   2.685   7.006  0.1009 -0.5197 -0.1847
 3200SOL    HW110570   5.464   2.681   7.017 -0.0034 -1.8851 -1.2870
 3200SOL    HW210571   5.571   2.706   6.913  0.8855  0.0360  0.0325
 3201SOL     OW10572   0.552   1.767   1.459  0.0557  1.1897  0.2286
 3201SOL    HW110573   0.512   1.784   1.373 -0.9473  0.8595  0.6194
 3201SOL    HW210574   0.495   1.702   1.499  1.7800 -0.3879  0.2405
 3202SOL     OW10575   4.676   4.037   0.078  0.0796  0.3081  0.0263
 3202SOL    HW110576   4.605   4.073   0.132 -0.7607 -0.9905 -0.1693
 3202SOL    HW210577   4.694   3.951   0.117  0.2424 -0.1684 -1.0716
 3203SOL     OW10578   1.458   0.929   2.550 -0.6025  0.1182 -0.1044
 3203SOL    HW110579   1.493   1.000   2.604  0.4059  1.1993 -2.0800
 3203SOL    HW210580   1.534   0.874   2.531 -1.2780 -1.2682  0.9701
 3204SOL     OW10581   1.590   4.144   6.124 -0.2383  0.2544  0.8256
 3204SOL    HW110582   1.530   4.105   6.187  0.4808  0.6380  1.7703
 3204SOL    HW210583   1.660   4.081   6.113 -1.2261 -0.6239 -1.0096
 3205SOL     OW10584   1.263   2.788   1.411  0.2328  0.4374 -0.2990
 3205SOL    HW110585   1.243   2.882   1.404  2.3430  1.1805  2.1720
 3205SOL    HW210586   1.353   2.780   1.381 -0.2672 -1.0759 -1.5602
 3206SOL     OW10587   2.256   4.814   0.842 -0.0723 -0.1527  0.0102
 3206SOL    HW110588   2.330   4.871   0.865  0.6342 -0.7524 -0.6967
 3206SOL    HW210589   2.200   4.815   0.919  0.3879  0.7620  0.3553
 3207SOL     OW10590   3.574   0.606   1.254 -0.3192  0.0219 -0.6012
 3207SOL    HW110591   3.628   0.551   1.197 -1.6371 -0.7441 -1.1423
 3207SOL    HW210592   3.484   0.590   1.226 -0.8197  1.7443 -0.1412
 3208SOL     OW10593   5.340   5.506   0.306 -0.0999  0.1618  0.2522
 3208SOL    HW110594   5.271   5.573   0.306  0.4314  0.7692 -1.6145
 3208SOL    HW210595   5.328   5.459   0.224  1.7350  0.3540 -0.1786
 3209SOL     OW10596   3.498   6.114   6.619  0.5337 -0.6931 -0.5740
 3209SOL    HW110597   3.552   6.179   6.575 -1.0279 -0.2349 -1.9063
 3209SOL    HW210598   3.543   6.031   6.601  1.5118 -0.2051 -0.4815
 3210SOL     OW10599   4.799   3.458   7.030  0.1848  0.2850  0.1820
 3210SOL    HW110600   4.779   3.458   6.937  0.4142  1.8280  0.1069
 3210SOL    HW210601   4.884   3.415   7.036 -0.4559 -1.0799 -0.1419
 3211SOL     OW10602   1.501   2.591   2.709  0.4316  0.0987 -0.2860
 3211SOL    HW110603   1.434   2.557   2.768  0.2509 -0.8347 -1.0008
 3211SOL    HW210604   1.462   2.671   2.674 -0.4843 -0.6074 -0.9475
 3212SOL     OW10605   0.104   4.461   2.750 -0.3742  0.2162  0.0216
 3212SOL    HW110606   0.021   4.438   2.791 -0.0087  0.4852  0.9401
 3212SOL    HW210607   0.166   4.394   2.781 -0.8251 -1.8605 -3.0521
 3213SOL     OW10608   5.287   3.267   5.859  0.3393 -0.2644 -0.1557
 3213SOL    HW110609   5.345   3.221   5.798  0.3300  1.2015 -1.3515
 3213SOL    HW210610   5.342   3.285   5.935  2.1443  2.5916 -1.9249
 3214SOL     OW10611   6.058   0.620   3.423 -0.1517 -0.2065  0.3201
 3214SOL    HW110612   6.067   0.614   3.328 -1.8615  0.1391  0.1077
 3214SOL    HW210613   6.071   0.713   3.442  1.6791 -0.4918  0.6361
 3215SOL     OW10614   4.138   3.875   6.405  0.1296 -0.2617  0.0335
 3215SOL    HW110615   4.143   3.899   6.497  4.9095 -0.2287  0.0221
 3215SOL    HW210616   4.117   3.956   6.360 -0.2278  0.1772  0.9695
 3216SOL     OW10617   3.176   2.442   1.792 -0.4049 -0.4685 -0.4360
 3216SOL    HW110618   3.181   2.440   1.697  0.2750 -1.0470 -0.3970
 3216SOL    HW210619   3.243   2.380   1.821  1.0606  1.4350  0.4614
 3217SOL     OW10620   5.179   5.109   2.467 -0.0809 -0.0508  0.0228
 3217SOL    HW110621   5.249   5.078   2.410  0.8964  0.7215  0.7730
 3217SOL    HW210622   5.159   5.035   2.524  1.5707  0.3192  1.1658
 3218SOL     OW10623   6.366   2.111   7.077  0.0616 -0.3258  0.0658
 3218SOL    HW110624   6.404   2.041   7.130  0.1599  0.4524  1.0473
 3218SOL    HW210625   6.304   2.155   7.136  0.9294  1.2043 -0.1119
 3219SOL     OW10626   2.838   5.683   4.355 -0.0270  0.0522 -0.5284
 3219SOL    HW110627   2.778   5.728   4.415 -0.1426 -0.4224 -0.2801
 3219SOL    HW210628   2.828   5.590   4.377 -0.6906 -0.2166 -1.8455
 3220SOL     OW10629   2.927   5.708   0.042 -0.5881  0.0147 -0.0771
 3220SOL    HW110630   3.018   5.735   0.057 -0.3784  0.2170 -1.5662
 3220SOL    HW210631   2.892   5.696   0.130  0.5694  0.9742  0.5669
 3221SOL     OW10632   0.850   1.519   4.506  0.0880  0.0485 -0.2027
 3221SOL    HW110633   0.913   1.516   4.579  0.2160  0.4911 -0.2922
 3221SOL    HW210634   0.905   1.520   4.428 -0.0238  0.5995 -0.2768
 3222SOL     OW10635   1.354   0.090   6.311  0.2976  0.7558 -0.0497
 3222SOL    HW110636   1.413   0.015   6.321 -1.6178 -0.6753  1.6193
 3222SOL    HW210637   1.343   0.123   6.400  0.5946  2.6598 -0.6843
 3223SOL     OW10638   1.758   4.045   0.935 -0.8958  0.5309  0.1639
 3223SOL    HW110639   1.678   4.016   0.979 -0.7331  0.8569  0.6806
 3223SOL    HW210640   1.815   4.077   1.005 -0.9237  1.7644 -0.3500
 3224SOL     OW10641   5.126   3.214   2.966 -0.6526  0.9180  0.1815
 3224SOL    HW110642   5.203   3.266   2.990  0.8266 -1.2651  0.5234
 3224SOL    HW210643   5.052   3.269   2.990  0.7933  2.4063  1.5586
 3225SOL     OW10644   3.087   5.357   5.051  0.5985  0.1808 -0.3802
 3225SOL    HW110645   3.030   5.284   5.026 -0.9443  0.4087  2.0513
 3225SOL    HW210646   3.027   5.432   5.060  1.3725  0.6472  1.4123
 3226SOL     OW10647   1.938   3.635   6.692  0.1711 -0.0630  0.5008
 3226SOL    HW110648   1.928   3.540   6.698  1.5222 -0.1997  1.0137
 3226SOL    HW210649   1.937   3.665   6.783 -0.7009  0.4872  0.3257
 3227SOL     OW10650   5.455   6.456   5.095 -0.7557  0.4006  0.1426
 3227SOL    HW110651   5.523   6.483   5.033  1.5337 -0.2187  2.2463
 3227SOL    HW210652   5.398   6.400   5.043  0.9263  0.0703 -1.4798
 3228SOL     OW10653   3.551   0.301   2.998 -0.3276  0.3693 -0.5422
 3228SOL    HW110654   3.622   0.341   2.948  0.2500 -2.1094 -1.8812
 3228SOL    HW210655   3.583   0.296   3.088 -0.4657  2.8434 -0.3015
 3229SOL     OW10656   0.611   2.498   6.473 -0.6530  0.1823 -0.2600
 3229SOL    HW110657   0.619   2.554   6.396 -0.3304  0.9718  0.3282
 3229SOL    HW210658   0.645   2.413   6.445 -0.4264  0.4926 -0.9438
 3230SOL     OW10659   4.685   6.312   1.701  0.1151  0.6071  0.1889
 3230SOL    HW110660   4.595   6.304   1.732 -0.2958  1.7916 -0.6403
 3230SOL    HW210661   4.732   6.351   1.775 -0.0233 -0.0591  0.6407
 3231SOL     OW10662   6.751   0.066   2.761 -0.2414 -0.0236 -0.0780
 3231SOL    HW110663   6.704  -0.017   2.749 -0.3649 -0.0976  0.8659
 3231SOL    HW210664   6.772   0.094   2.672 -2.2970  0.1408 -0.5692
 3232SOL     OW10665   1.046   5.015   1.735 -0.1768  0.0089 -0.0758
 3232SOL    HW110666   1.020   5.029   1.645 -0.9853 -0.8955  0.0054
 3232SOL    HW210667   1.111   5.083   1.752  1.8927 -1.3103 -2.1141
 3233SOL     OW10668   2.428   3.934   2.535  0.0360  0.0537  0.1157
 3233SOL    HW110669   2.370   3.879   2.482 -1.4092  1.2036  0.4433
 3233SOL    HW210670   2.477   3.873   2.589 -0.2707 -0.9987 -0.7628
 3234SOL     OW10671   2.950   6.206   6.654 -0.4454 -0.8037  0.0403
 3234SOL    HW110672   2.994   6.226   6.737  0.2817 -2.3335  0.0504
 3234SOL    HW210673   2.965   6.113   6.640 -1.4254 -0.7932 -1.3188
 3235SOL     OW10674   1.758   2.982   3.349  0.1906 -0.0421  0.5289
 3235SOL    HW110675   1.853   2.980   3.341  0.1024 -1.8209 -0.5515
 3235SOL    HW210676   1.736   2.899   3.390 -1.0822 -1.0522 -2.0506
 3236SOL     OW10677   2.349   3.472   4.026 -0.2989  0.1982  0.2590
 3236SOL    HW110678   2.312   3.487   3.939  1.7859  1.2578 -0.5157
 3236SOL    HW210679   2.317   3.385   4.051 -3.4160  1.1082 -0.1925
 3237SOL     OW10680   3.829   0.522   1.433 -0.2682  1.2305  0.0895
 3237SOL    HW110681   3.738   0.545   1.414 -0.2355 -0.0963 -1.9693
 3237SOL    HW210682   3.827   0.427   1.447  0.8459  1.1062 -0.4980
 3238SOL     OW10683   1.991   6.599   1.128 -0.8971  0.2037 -0.2517
 3238SOL    HW110684   1.942   6.637   1.056 -0.7520  0.5168 -0.1841
 3238SOL    HW210685   2.016   6.673   1.183 -0.9353 -0.0216  0.0786
 3239SOL     OW10686   5.022   5.741   4.029  0.3439 -0.4154  0.3341
 3239SOL    HW110687   4.996   5.725   3.938  0.1773  0.7454  0.1705
 3239SOL    HW210688   5.106   5.786   4.023 -0.0345  0.3543  0.7328
 3240SOL     OW10689   2.511   1.222   2.284  0.0093 -0.2794 -0.0873
 3240SOL    HW110690   2.421   1.251   2.298  0.2473 -0.1792  1.3147
 3240SOL    HW210691   2.563   1.272   2.347  1.0097 -0.5921 -0.6366
 3241SOL     OW10692   3.330   7.190   0.805 -0.3460  0.4618 -0.1716
 3241SOL    HW110693   3.273   7.216   0.733 -1.2984 -2.2177 -0.4953
 3241SOL    HW210694   3.288   7.225   0.883 -0.8499  0.9715 -0.6627
 3242SOL     OW10695   4.345   7.373   3.625  0.2305 -0.2756 -0.1817
 3242SOL    HW110696   4.271   7.314   3.640 -0.4720  0.0844 -1.9900
 3242SOL    HW210697   4.317   7.457   3.662 -0.3566 -0.0993 -0.9970
 3243SOL     OW10698   4.567   6.824   0.249 -0.0325  0.6399  0.0625
 3243SOL    HW110699   4.477   6.853   0.260  0.3984  1.6404  1.1261
 3243SOL    HW210700   4.593   6.857   0.163 -1.2041 -1.1509 -1.0396
 3244SOL     OW10701   0.333   0.820   4.587 -0.5868 -0.4526 -0.1526
 3244SOL    HW110702   0.392   0.895   4.577  0.4053 -1.0343  1.1067
 3244SOL    HW210703   0.292   0.810   4.501 -1.4316  2.0864 -0.1483
 3245SOL     OW10704   2.028   2.378   5.404 -0.1396  0.6306 -0.1623
 3245SOL    HW110705   2.112   2.421   5.422  0.6363 -0.8611 -0.0071
 3245SOL    HW210706   1.986   2.434   5.339  3.1090 -0.8788 -3.9801
 3246SOL     OW10707   3.734   6.185   4.292 -0.1065  0.6936  0.6766
 3246SOL    HW110708   3.728   6.266   4.241  0.7567 -0.9086 -2.2189
 3246SOL    HW210709   3.826   6.180   4.317 -0.0435  0.3891  0.3948
 3247SOL     OW10710   6.358   4.497   7.134  0.1014 -0.4696 -0.2600
 3247SOL    HW110711   6.450   4.469   7.144 -0.1995 -1.7997 -0.9162
 3247SOL    HW210712   6.308   4.422   7.166 -0.7611  0.1717 -0.1040
 3248SOL     OW10713   3.069   4.380   7.133  0.9499  0.3576 -0.1230
 3248SOL    HW110714   3.127   4.304   7.139  0.0758 -0.2685  0.6516
 3248SOL    HW210715   2.984   4.343   7.110  0.5647  1.1404  0.0187
 3249SOL     OW10716   1.274   2.295   4.459 -0.5875 -0.6886  0.0865
 3249SOL    HW110717   1.340   2.287   4.390  1.2516 -0.6919  1.7606
 3249SOL    HW210718   1.207   2.352   4.421  0.6378 -0.2123 -1.4872
 3250SOL     OW10719   6.742   4.532   2.329 -0.4923 -1.0372  0.1049
 3250SOL    HW110720   6.676   4.477   2.371 -0.1493 -1.3409  0.2476
 3250SOL    HW210721   6.748   4.500   2.240  0.0953 -1.5965  0.3344
 3251SOL     OW10722   0.185   3.834   0.951  0.8202  0.0042  0.1093
 3251SOL    HW110723   0.187   3.748   0.910 -1.7468  0.0623 -0.3218
 3251SOL    HW210724   0.187   3.816   1.045 -0.6339 -0.6264  0.0443
 3252SOL     OW10725   3.880   1.043   5.592 -0.2735 -0.4450 -0.0936
 3252SOL    HW110726   3.875   0.984   5.516  0.0219  0.3282 -0.7288
 3252SOL    HW210727   3.851   1.128   5.558  1.3115  0.2768  0.2489
 3253SOL     OW10728   4.488   0.505   6.155 -0.3303 -0.1744 -0.5511
 3253SOL    HW110729   4.494   0.428   6.212  1.1125  1.0056  1.0071
 3253SOL    HW210730   4.408   0.550   6.182 -0.1011 -0.0696 -0.0458
 3254SOL     OW10731   6.871   1.117   3.581  0.2890  0.1235 -0.2790
 3254SOL    HW110732   6.788   1.135   3.626  1.0007 -0.3829  1.2954
 3254SOL    HW210733   6.926   1.192   3.603  0.3604  0.3056 -1.0640
 3255SOL     OW10734   6.015   3.519   0.798  0.0981  0.6701 -0.2550
 3255SOL    HW110735   6.074   3.455   0.837 -2.1245 -1.3956 -0.0733
 3255SOL    HW210736   6.003   3.585   0.866  0.1768 -0.2633  0.6925
 3256SOL     OW10737   3.838   4.693   6.336  0.1260 -0.5064  0.0237
 3256SOL    HW110738   3.859   4.766   6.278  1.2007 -0.9938 -0.2304
 3256SOL    HW210739   3.791   4.733   6.409  1.0886  0.5027  0.1098
 3257SOL     OW10740   0.075   1.061   1.598 -0.2186  0.0002 -0.2947
 3257SOL    HW110741   0.096   0.972   1.627 -2.2508 -0.1371  0.8963
 3257SOL    HW210742   0.041   1.049   1.509 -1.4933 -0.5809  0.2470
 3258SOL     OW10743   7.062   2.967   5.823  0.2901  0.0892  0.1001
 3258SOL    HW110744   7.082   3.057   5.848 -0.0766 -0.2988  1.9112
 3258SOL    HW210745   7.015   2.931   5.897  0.4716 -1.6267 -0.5648
 3259SOL     OW10746   4.142   1.063   4.212 -0.0528 -0.4461  0.2615
 3259SOL    HW110747   4.139   0.989   4.151 -3.1298 -0.6953  0.5511
 3259SOL    HW210748   4.128   1.023   4.298  0.8375  0.2450  0.7441
 3260SOL     OW10749   4.873   4.335   2.013 -0.0179  0.2812 -0.1581
 3260SOL    HW110750   4.917   4.323   1.929 -0.1412  0.6762 -0.2809
 3260SOL    HW210751   4.912   4.268   2.070  0.4800  0.3879 -0.3662
 3261SOL     OW10752   5.607   4.575   4.808  0.0730  0.4517  0.0790
 3261SOL    HW110753   5.512   4.566   4.811  0.0161  0.7595 -0.5361
 3261SOL    HW210754   5.624   4.621   4.725  0.8990 -1.6650 -1.0014
 3262SOL     OW10755   6.528   0.659   2.661  0.0870  0.2715 -0.1325
 3262SOL    HW110756   6.518   0.699   2.575  1.4772  1.5003  0.2369
 3262SOL    HW210757   6.573   0.725   2.713 -3.2129  0.7722  2.4222
 3263SOL     OW10758   5.078   5.912   7.257 -0.0302 -0.0459 -0.3475
 3263SOL    HW110759   5.039   5.825   7.264 -1.4176  0.6618  1.3580
 3263SOL    HW210760   5.172   5.895   7.248 -0.2540 -1.7016  0.0666
 3264SOL     OW10761   5.000   7.182   0.585  0.0928  0.2835 -0.2720
 3264SOL    HW110762   4.999   7.207   0.493  0.1750 -0.7542 -0.5640
 3264SOL    HW210763   4.990   7.087   0.584  0.6898  0.1991  0.7713
 3265SOL     OW10764   1.449   7.228   2.659  0.1416  0.2351 -0.2236
 3265SOL    HW110765   1.416   7.236   2.749 -0.0820 -1.8140 -0.0721
 3265SOL    HW210766   1.374   7.197   2.608  1.0797 -1.9734 -0.3851
 3266SOL     OW10767   4.846   0.929   2.619  0.3302 -0.1372  0.2418
 3266SOL    HW110768   4.876   1.011   2.659 -1.2592  0.0519  1.1260
 3266SOL    HW210769   4.889   0.927   2.534  3.3690 -0.2450  1.6243
 3267SOL     OW10770   1.059   5.212   4.761 -0.5973 -0.8404 -0.2175
 3267SOL    HW110771   1.154   5.220   4.763 -0.4655 -0.5087 -3.1455
 3267SOL    HW210772   1.029   5.293   4.721 -2.2814 -0.4125  1.7326
 3268SOL     OW10773   0.244   5.333   2.417  0.2292  0.8544 -0.3948
 3268SOL    HW110774   0.316   5.273   2.432  0.3278  1.3368  1.1699
 3268SOL    HW210775   0.264   5.410   2.470 -0.2668  1.9773 -1.7618
 3269SOL     OW10776   5.975   5.222   0.686 -0.6845 -0.0552  0.4022
 3269SOL    HW110777   5.970   5.131   0.656 -1.1281 -0.3327  1.2691
 3269SOL    HW210778   5.957   5.274   0.608 -1.4288 -0.7458  0.0971
 3270SOL     OW10779   3.502   4.675   6.833  0.6702  0.2381  0.3008
 3270SOL    HW110780   3.411   4.647   6.824  1.1663 -1.2372 -0.3774
 3270SOL    HW210781   3.515   4.737   6.761  0.4857 -0.3313 -0.2314
 3271SOL     OW10782   4.464   3.012   1.688  0.1565  0.3268 -0.1399
 3271SOL    HW110783   4.526   2.945   1.716  1.2453  1.8132  1.1705
 3271SOL    HW210784   4.396   3.011   1.755  0.8826  1.4175  0.6472
 3272SOL     OW10785   6.855   0.887   6.275 -0.5401  0.1840 -0.6601
 3272SOL    HW110786   6.864   0.884   6.370 -0.5763 -0.6217 -0.6753
 3272SOL    HW210787   6.928   0.835   6.242 -1.3607 -0.7699 -1.0155
 3273SOL     OW10788   1.391   1.652   0.868  0.3328 -0.3385  0.1521
 3273SOL    HW110789   1.385   1.701   0.786  0.6337 -0.8319 -0.1678
 3273SOL    HW210790   1.383   1.719   0.937  0.7647  0.1571 -0.2758
 3274SOL     OW10791   1.996   7.079   6.617  0.2508  0.2973 -0.0904
 3274SOL    HW110792   2.041   7.108   6.538  0.8475  1.0564  0.5257
 3274SOL    HW210793   1.978   7.159   6.666  0.7065 -0.2363  0.9843
 3275SOL     OW10794   3.421   1.376   4.434  0.0876 -0.1092 -0.5425
 3275SOL    HW110795   3.412   1.448   4.497 -2.7997  0.9051 -1.9523
 3275SOL    HW210796   3.361   1.309   4.466  0.6409 -0.7286 -0.7811
 3276SOL     OW10797   1.252   6.401   4.130 -0.0198  0.0309 -0.1691
 3276SOL    HW110798   1.269   6.450   4.050  0.9831  0.7960  0.4806
 3276SOL    HW210799   1.330   6.415   4.184 -0.9216  0.0604  1.1909
 3277SOL     OW10800   6.194   6.927   2.783 -0.2948 -0.1637  0.6977
 3277SOL    HW110801   6.172   6.873   2.859 -0.1010 -0.2749  0.6768
 3277SOL    HW210802   6.137   6.895   2.713  0.5565 -1.0626  0.3979
 3278SOL     OW10803   1.828   2.611   6.778  0.3845  0.4021  0.5246
 3278SOL    HW110804   1.830   2.596   6.683  1.6200  1.3288  0.3773
 3278SOL    HW210805   1.868   2.697   6.789 -0.5317  0.6808  1.8331
 3279SOL     OW10806   6.645   1.996   7.054 -0.0796 -0.3214 -0.4103
 3279SOL    HW110807   6.646   1.910   7.011  0.2407 -0.3187 -0.4091
 3279SOL    HW210808   6.685   2.055   6.991 -0.8245 -0.0578 -0.6424
 3280SOL     OW10809   4.389   4.862   0.733 -0.2219 -0.7660  0.7690
 3280SOL    HW110810   4.459   4.927   0.737  0.6480 -1.6752  0.5785
 3280SOL    HW210811   4.317   4.908   0.689  0.8158 -0.3115 -0.5265
 3281SOL     OW10812   7.253   5.277   2.208 -0.0055  0.0707 -0.0440
 3281SOL    HW110813   7.234   5.350   2.148  0.4304 -0.5499 -0.9484
 3281SOL    HW210814   7.212   5.201   2.167 -0.0487 -0.2869  0.6553
 3282SOL     OW10815   5.733   6.174   6.848  0.4504  0.0234  0.1614
 3282SOL    HW110816   5.750   6.199   6.939  0.3416 -1.0416  0.4988
 3282SOL    HW210817   5.794   6.103   6.831  2.5214  2.0942 -1.5944
 3283SOL     OW10818   4.086   1.810   4.919  1.2162  0.0233  0.0822
 3283SOL    HW110819   4.154   1.759   4.962  1.5228  0.9220  0.7179
 3283SOL    HW210820   4.008   1.755   4.924  1.4826 -0.3042  0.9420
 3284SOL     OW10821   4.345   7.208   0.218 -0.8164  0.1001 -0.2788
 3284SOL    HW110822   4.385   7.277   0.271  0.1389  0.2758 -1.1984
 3284SOL    HW210823   4.387   7.216   0.132 -0.9464 -1.3926 -0.5153
 3285SOL     OW10824   3.012   3.804   4.555  0.1089 -0.7013 -0.0869
 3285SOL    HW110825   3.082   3.857   4.592 -1.2618  1.4713 -0.4377
 3285SOL    HW210826   3.029   3.804   4.461 -0.8701  0.7145 -0.2944
 3286SOL     OW10827   3.862   6.649   5.746 -0.1254 -0.4123  0.3235
 3286SOL    HW110828   3.808   6.640   5.668  1.4823 -0.2077 -0.8620
 3286SOL    HW210829   3.816   6.715   5.799 -1.2842 -0.6145 -0.3958
 3287SOL     OW10830   5.167   1.343   1.441  0.1912  0.2264  0.4155
 3287SOL    HW110831   5.080   1.370   1.469 -0.5576 -0.5976 -0.9739
 3287SOL    HW210832   5.182   1.391   1.360  0.1555 -1.1052 -0.4154
 3288SOL     OW10833   0.374   3.463   6.127 -0.8823 -0.1858  1.0867
 3288SOL    HW110834   0.284   3.438   6.107 -0.9327  1.4168 -1.0194
 3288SOL    HW210835   0.368   3.555   6.155  0.1148  0.0291  0.6361
 3289SOL     OW10836   2.303   2.182   2.615  0.0424 -0.2175 -0.3054
 3289SOL    HW110837   2.300   2.163   2.708  0.4613 -2.6137 -0.7021
 3289SOL    HW210838   2.215   2.158   2.583  0.5484 -1.5000 -0.8176
 3290SOL     OW10839   0.931   4.198   3.069  0.0163 -0.4234 -0.4474
 3290SOL    HW110840   0.982   4.251   3.008 -0.6179 -0.2042 -0.7895
 3290SOL    HW210841   0.963   4.108   3.055  0.8203 -0.1905 -0.1366
 3291SOL     OW10842   3.704   2.210   5.968  0.4906  0.3730 -0.0823
 3291SOL    HW110843   3.663   2.267   5.903 -0.7459 -0.8387 -0.3964
 3291SOL    HW210844   3.712   2.265   6.046  0.5766  1.3776 -0.7807
 3292SOL     OW10845   6.834   4.502   6.275 -0.5561  0.3387  0.6418
 3292SOL    HW110846   6.820   4.558   6.352  0.4677  2.7620 -0.7937
 3292SOL    HW210847   6.753   4.452   6.266 -1.8205  2.0825  1.7013
 3293SOL     OW10848   3.349   3.373   5.143  0.1903  0.2341 -0.0830
 3293SOL    HW110849   3.293   3.448   5.163  1.4244  1.6921 -1.7244
 3293SOL    HW210850   3.309   3.300   5.189 -1.7460  1.6595  0.6353
 3294SOL     OW10851   3.760   6.967   4.973  0.1608 -0.5375 -0.0202
 3294SOL    HW110852   3.711   6.987   4.893 -0.4703 -0.3661  0.4035
 3294SOL    HW210853   3.800   6.881   4.956  0.4172 -0.2882 -0.6928
 3295SOL     OW10854   3.999   0.166   5.112 -0.4283  0.4281  0.0610
 3295SOL    HW110855   4.064   0.102   5.141  0.3253  0.3462 -1.6739
 3295SOL    HW210856   3.924   0.113   5.085 -0.3656  0.3627  0.0127
 3296SOL     OW10857   1.752   5.307   2.691  0.1128  0.4191 -0.2817
 3296SOL    HW110858   1.726   5.224   2.652  0.9559 -0.7543  1.4842
 3296SOL    HW210859   1.828   5.335   2.640  1.7804 -1.5588  0.9323
 3297SOL     OW10860   4.581   5.854   3.245 -0.3835 -0.2626  0.3829
 3297SOL    HW110861   4.495   5.864   3.204  0.9786 -0.2715 -2.7877
 3297SOL    HW210862   4.563   5.853   3.339 -3.9224 -1.2016 -0.1513
 3298SOL     OW10863   4.392   5.495   7.354 -0.8524 -0.1699 -0.0753
 3298SOL    HW110864   4.380   5.406   7.321  1.4806 -0.7644  0.5429
 3298SOL    HW210865   4.386   5.486   7.449  0.9981  0.0120  0.0883
 3299SOL     OW10866   3.295   2.054   6.172 -0.1621  0.2027  0.2042
 3299SOL    HW110867   3.293   2.125   6.108 -1.1913 -0.4360 -0.4917
 3299SOL    HW210868   3.368   1.999   6.144 -0.4736  0.0408 -0.2966
 3300SOL     OW10869   6.018   6.120   1.465 -0.0204  0.2670 -0.7229
 3300SOL    HW110870   6.007   6.035   1.421 -2.6869  0.4774 -0.5936
 3300SOL    HW210871   6.052   6.178   1.397  1.8282 -0.8302 -0.8223
 3301SOL     OW10872   3.115   0.240   1.972  0.3362 -0.0064  0.1820
 3301SOL    HW110873   3.031   0.230   2.018  0.3453 -2.8473 -0.1834
 3301SOL    HW210874   3.135   0.333   1.978 -2.6132  0.7108  0.6782
 3302SOL     OW10875   6.217   5.094   5.121 -0.2470 -0.5493  0.7008
 3302SOL    HW110876   6.200   5.170   5.065 -0.1372 -0.2811  1.0279
 3302SOL    HW210877   6.232   5.022   5.060 -1.1996 -0.4974  0.3840
 3303SOL     OW10878   3.270   0.462   1.976 -0.1663 -0.1172 -0.0308
 3303SOL    HW110879   3.269   0.537   1.916  2.0033 -0.7622 -0.9636
 3303SOL    HW210880   3.298   0.499   2.060  0.6933  0.1561 -0.4332
 3304SOL     OW10881   5.520   4.645   6.845 -0.6766  0.3271 -0.7871
 3304SOL    HW110882   5.556   4.557   6.848 -0.8035  0.2489  2.9542
 3304SOL    HW210883   5.538   4.675   6.756 -0.3360 -3.2936 -2.1079
 3305SOL     OW10884   3.395   2.987   0.195 -0.0756 -0.6154 -0.0195
 3305SOL    HW110885   3.398   2.977   0.291 -0.8545  0.0417  0.0897
 3305SOL    HW210886   3.332   2.921   0.166 -2.7801  1.5863  0.3661
 3306SOL     OW10887   2.793   6.890   7.147 -0.7120 -0.4055  0.1920
 3306SOL    HW110888   2.811   6.831   7.075  1.1985  1.7704 -1.2550
 3306SOL    HW210889   2.762   6.971   7.105 -0.5426  0.5837  1.8634
 3307SOL     OW10890   1.647   2.577   5.129  0.0034 -0.2920  0.5219
 3307SOL    HW110891   1.633   2.609   5.218 -0.2226 -0.9363  0.7300
 3307SOL    HW210892   1.559   2.559   5.096 -0.0118  1.1774 -0.3266
 3308SOL     OW10893   2.641   3.283   3.174  0.4371 -0.2643  0.3232
 3308SOL    HW110894   2.616   3.267   3.082  1.2615  0.2320  0.0102
 3308SOL    HW210895   2.618   3.201   3.219 -0.6028 -0.2677 -0.1882
 3309SOL     OW10896   1.328   6.389   0.589  0.4315  0.1820 -0.1154
 3309SOL    HW110897   1.422   6.389   0.603  0.4504  0.8500 -0.1797
 3309SOL    HW210898   1.292   6.337   0.660  0.9212 -0.9700 -0.6938
 3310SOL     OW10899   5.796   2.491   1.268 -0.0533  0.0145 -0.7058
 3310SOL    HW110900   5.882   2.524   1.295 -0.3373  1.6325 -1.6806
 3310SOL    HW210901   5.758   2.455   1.348  0.7441  1.0341  0.1595
 3311SOL     OW10902   4.729   5.645   5.424 -0.6152 -0.0767  0.0940
 3311SOL    HW110903   4.665   5.635   5.354  0.1247 -0.0893 -0.5973
 3311SOL    HW210904   4.782   5.721   5.398 -0.9492  0.5504  1.1401
 3312SOL     OW10905   3.564   6.561   4.611  0.4033  0.0341 -0.0231
 3312SOL    HW110906   3.615   6.492   4.653  0.4552  0.3484  0.4394
 3312SOL    HW210907   3.603   6.571   4.524  0.6757 -0.2069  0.0707
 3313SOL     OW10908   0.201   6.572   0.426 -0.1874 -0.4185  0.4130
 3313SOL    HW110909   0.209   6.659   0.466  0.9747 -0.8051  1.0876
 3313SOL    HW210910   0.173   6.589   0.336  1.3410  0.7531  0.1133
 3314SOL     OW10911   3.498   4.500   6.377  0.5723 -0.1294  0.0211
 3314SOL    HW110912   3.453   4.585   6.385  0.0764 -0.3658 -0.2222
 3314SOL    HW210913   3.562   4.501   6.448  0.3881  0.3424  0.1895
 3315SOL     OW10914   5.078   6.375   4.338 -0.4402 -0.8513 -0.7370
 3315SOL    HW110915   5.066   6.343   4.427 -0.8623 -2.2528 -1.2762
 3315SOL    HW210916   5.023   6.453   4.333  0.3052 -0.2203  0.4900
 3316SOL     OW10917   4.748   2.573   0.227 -0.6028  0.7032 -0.5861
 3316SOL    HW110918   4.784   2.647   0.178 -0.0095 -0.8670 -2.6481
 3316SOL    HW210919   4.654   2.575   0.206 -0.4703  0.4702 -1.2241
 3317SOL     OW10920   4.631   2.966   0.437 -0.2979  0.2745  0.1328
 3317SOL    HW110921   4.615   2.984   0.344  1.7041  0.3222 -0.2451
 3317SOL    HW210922   4.638   3.052   0.477  1.0824  0.2985 -0.1214
 3318SOL     OW10923   2.695   5.342   0.067  0.1726 -0.3821  0.5241
 3318SOL    HW110924   2.665   5.427   0.034 -0.9225 -0.0198  2.2980
 3318SOL    HW210925   2.627   5.315   0.129  1.3318 -1.7643  1.2560
 3319SOL     OW10926   6.251   1.640   3.523 -0.3416 -0.7736  0.2417
 3319SOL    HW110927   6.203   1.653   3.441  1.1820  0.8376 -0.4516
 3319SOL    HW210928   6.226   1.552   3.551 -0.3811 -1.6846 -2.3345
 3320SOL     OW10929   1.644   3.748   1.769 -0.2169 -0.2387 -0.0204
 3320SOL    HW110930   1.724   3.703   1.742  0.5291  1.4584 -0.7661
 3320SOL    HW210931   1.573   3.692   1.738  0.6515 -1.7439  0.5993
 3321SOL     OW10932   3.805   1.067   4.631  0.1309  0.0994 -0.5224
 3321SOL    HW110933   3.722   1.061   4.678  0.8471  0.7734  0.8749
 3321SOL    HW210934   3.808   1.157   4.599  0.4439  0.1530 -0.3432
 3322SOL     OW10935   5.171   0.362   3.806 -0.1448 -0.5355 -0.4277
 3322SOL    HW110936   5.266   0.352   3.794 -0.1108 -1.4425  0.4310
 3322SOL    HW210937   5.141   0.408   3.728  0.8365 -1.2808 -1.2678
 3323SOL     OW10938   5.029   0.216   5.536 -0.1425 -0.4972  0.0228
 3323SOL    HW110939   5.069   0.302   5.549  0.6582 -0.5693 -1.6126
 3323SOL    HW210940   4.949   0.235   5.486 -1.1171 -0.5430  1.5040
 3324SOL     OW10941   4.434   3.662   0.075  0.0801  0.2721  0.0149
 3324SOL    HW110942   4.420   3.697   0.163  0.0679 -0.1467  0.1821
 3324SOL    HW210943   4.415   3.568   0.083  0.7901  0.0936 -0.2626
 3325SOL     OW10944   0.176   3.825   7.192  0.4157 -0.2724 -0.5782
 3325SOL    HW110945   0.202   3.733   7.190  0.6306 -0.2438  0.3200
 3325SOL    HW210946   0.258   3.873   7.181  1.0228 -0.1708  2.9322
 3326SOL     OW10947   3.365   4.683   1.651 -0.2876 -0.4011  0.5708
 3326SOL    HW110948   3.420   4.746   1.698  0.0961 -0.0838 -0.2797
 3326SOL    HW210949   3.424   4.643   1.588 -1.5701  2.0547 -2.4456
 3327SOL     OW10950   1.236   6.638   6.976 -0.1132  0.7637  0.4141
 3327SOL    HW110951   1.270   6.564   6.926 -0.3087  0.7320  0.3284
 3327SOL    HW210952   1.193   6.598   7.051 -2.6183  0.6109 -1.0042
 3328SOL     OW10953   6.768   6.847   1.881 -0.1041 -0.9207 -0.6061
 3328SOL    HW110954   6.838   6.789   1.912  2.0801  1.2974 -1.0838
 3328SOL    HW210955   6.785   6.857   1.787 -0.6902  0.1509 -0.6077
 3329SOL     OW10956   4.581   1.772   0.378  0.0798  0.0412 -0.7119
 3329SOL    HW110957   4.499   1.748   0.335 -1.7626  0.2282  2.4364
 3329SOL    HW210958   4.611   1.692   0.420  0.9047  0.2720 -0.8303
 3330SOL     OW10959   3.842   3.927   7.308  0.4269  0.6102 -0.6469
 3330SOL    HW110960   3.770   3.895   7.254 -0.0729  2.2914 -1.0294
 3330SOL    HW210961   3.918   3.926   7.250 -0.0101  1.9633 -1.2799
 3331SOL     OW10962   3.575   0.848   3.928  0.2192 -0.4368 -0.4327
 3331SOL    HW110963   3.518   0.771   3.922  2.2655 -2.1251  0.2145
 3331SOL    HW210964   3.519   0.918   3.961 -1.5753 -1.8227 -0.3898
 3332SOL     OW10965   0.334   5.275   3.210  0.4728  0.7944  0.6266
 3332SOL    HW110966   0.314   5.323   3.129  0.1565 -0.2743  0.0578
 3332SOL    HW210967   0.307   5.334   3.280  0.2210  1.5083 -0.0579
 3333SOL     OW10968   6.468   0.751   0.115 -0.1192 -0.2164 -0.5013
 3333SOL    HW110969   6.384   0.739   0.158  1.5703  1.1786  3.7654
 3333SOL    HW210970   6.523   0.680   0.149  0.7142 -0.6424 -2.5758
 3334SOL     OW10971   6.809   5.714   0.594  0.0886 -0.0993  0.1227
 3334SOL    HW110972   6.830   5.694   0.685  0.5918  1.9169  0.4937
 3334SOL    HW210973   6.716   5.736   0.595  0.0190 -0.3885  0.0878
 3335SOL     OW10974   3.564   0.661   4.753  0.2688 -0.5279  0.2491
 3335SOL    HW110975   3.474   0.692   4.761  0.3121 -0.6083  1.2164
 3335SOL    HW210976   3.556   0.568   4.734  0.1395 -0.6641  0.9382
 3336SOL     OW10977   0.691   0.937   1.254 -0.1772  0.0707  0.0584
 3336SOL    HW110978   0.683   1.031   1.266 -1.0923  0.1170 -0.7130
 3336SOL    HW210979   0.782   0.923   1.229  0.2081  0.6245  1.1132
 3337SOL     OW10980   7.083   4.904   4.716  0.2748  0.1288 -0.2246
 3337SOL    HW110981   7.008   4.862   4.674  0.8954  1.1946 -2.5919
 3337SOL    HW210982   7.159   4.860   4.677  0.8887  0.6242  0.3927
 3338SOL     OW10983   6.284   6.061   3.352  0.5594  0.6864 -0.0165
 3338SOL    HW110984   6.204   6.100   3.388 -0.1089 -0.6318 -0.0136
 3338SOL    HW210985   6.254   6.008   3.279  1.3730 -0.2437  0.3084
 3339SOL     OW10986   5.922   4.576   0.725 -0.0108 -0.2065  0.2005
 3339SOL    HW110987   5.992   4.589   0.789  0.6544 -0.1329 -0.5370
 3339SOL    HW210988   5.895   4.485   0.737  0.5199 -0.3689  0.1808
 3340SOL     OW10989   1.602   0.192   2.678  0.3895 -0.2203 -0.3270
 3340SOL    HW110990   1.547   0.196   2.600 -0.5097 -1.6985  0.1809
 3340SOL    HW210991   1.639   0.103   2.678 -0.5885 -0.6959  1.5082
 3341SOL     OW10992   5.628   4.401   6.776  0.0380  0.1505 -0.2409
 3341SOL    HW110993   5.663   4.344   6.844  0.8450  0.5051 -0.3373
 3341SOL    HW210994   5.597   4.342   6.708  1.8034 -0.1854 -0.7992
 3342SOL     OW10995   0.756   5.155   2.264 -0.0338  0.2978  0.5321
 3342SOL    HW110996   0.795   5.188   2.184 -0.8852 -1.2403 -0.5679
 3342SOL    HW210997   0.741   5.233   2.318  0.9666  1.3041 -0.5897
 3343SOL     OW10998   3.210   5.510   3.250 -0.1799  0.1143 -0.0844
 3343SOL    HW110999   3.258   5.442   3.296 -0.2914 -0.0974 -0.2784
 3343SOL    HW211000   3.270   5.584   3.247  0.2883 -0.2767 -0.6604
 3344SOL     OW11001   7.224   6.260   7.157 -0.3528  0.0347  0.1777
 3344SOL    HW111002   7.183   6.179   7.188 -0.8057  0.6144  1.1622
 3344SOL    HW211003   7.315   6.254   7.187  0.5643 -1.5487 -2.5664
 3345SOL     OW11004   0.153   4.380   1.433 -1.0345  0.7194  0.2275
 3345SOL    HW111005   0.083   4.324   1.400 -0.0705 -0.2141 -0.3113
 3345SOL    HW211006   0.229   4.322   1.437 -0.4159  1.5708  1.3053
 3346SOL     OW11007   4.181   7.336   3.173 -0.1066  0.7415  0.3963
 3346SOL    HW111008   4.235   7.372   3.243 -1.8616  0.6037  1.8705
 3346SOL    HW211009   4.218   7.249   3.157  0.9051  1.1477  0.4598
 3347SOL     OW11010   0.501   4.650   5.310 -0.6947  0.0601  0.2861
 3347SOL    HW111011   0.457   4.660   5.225 -0.2925  1.0390  0.1718
 3347SOL    HW211012   0.457   4.577   5.352 -2.0288  0.6416 -0.0679
 3348SOL     OW11013   1.654   0.717   4.187  0.4451 -0.0172 -0.3085
 3348SOL    HW111014   1.629   0.795   4.138  1.2386  0.9200  0.7259
 3348SOL    HW211015   1.736   0.689   4.148  0.3733 -0.0762 -0.4144
 3349SOL     OW11016   0.901   2.153   0.923 -0.3596  0.1811 -0.0331
 3349SOL    HW111017   0.849   2.227   0.891  0.7942  0.3997 -1.5548
 3349SOL    HW211018   0.965   2.193   0.981 -0.3348  0.2584 -0.1118
 3350SOL     OW11019   1.001   3.066   3.220  0.1047 -0.2816  1.0394
 3350SOL    HW111020   0.945   3.138   3.190  2.8145  0.8023 -2.1429
 3350SOL    HW211021   0.956   2.987   3.191  0.1884  0.5621 -1.7446
 3351SOL     OW11022   2.729   5.432   6.020 -0.6651  0.2252 -0.7037
 3351SOL    HW111023   2.822   5.412   6.016 -0.7818 -0.4069 -0.3998
 3351SOL    HW211024   2.714   5.459   6.111 -0.9815 -0.7622 -0.4475
 3352SOL     OW11025   2.694   6.658   4.964 -0.7191 -0.3006  0.0316
 3352SOL    HW111026   2.720   6.670   4.873 -2.2673 -0.9551 -0.5281
 3352SOL    HW211027   2.611   6.611   4.960  0.5877 -3.0950  1.8259
 3353SOL     OW11028   5.869   4.549   4.524 -0.3638 -0.9722 -0.1598
 3353SOL    HW111029   5.796   4.574   4.579 -0.0001  0.7816 -0.4256
 3353SOL    HW211030   5.834   4.549   4.435  0.2999  1.5439 -0.4821
 3354SOL     OW11031   5.790   3.022   3.562 -0.5282  0.0967 -0.2318
 3354SOL    HW111032   5.731   2.946   3.562 -0.6500  0.1895 -0.1682
 3354SOL    HW211033   5.843   3.011   3.641  0.5989 -0.7923 -1.0883
 3355SOL     OW11034   4.637   1.129   2.331 -0.7083  0.0912  0.5440
 3355SOL    HW111035   4.588   1.109   2.411  0.9087 -1.0001  1.3235
 3355SOL    HW211036   4.727   1.146   2.361 -0.7280  2.9732 -0.7272
 3356SOL     OW11037   0.835   2.196   6.477  0.1526 -0.3264 -0.4373
 3356SOL    HW111038   0.821   2.141   6.554  1.2191 -0.3133 -0.2171
 3356SOL    HW211039   0.848   2.135   6.405 -1.3991 -0.3398 -0.7364
 3357SOL     OW11040   0.480   1.502   7.205 -0.0457  0.4292 -0.3637
 3357SOL    HW111041   0.567   1.518   7.168 -0.4390  2.2296 -0.6181
 3357SOL    HW211042   0.434   1.452   7.139  0.2183  1.0725 -1.0479
 3358SOL     OW11043   3.937   1.261   0.374  0.5350  0.0439  0.2618
 3358SOL    HW111044   4.019   1.214   0.359  1.7227  2.2967 -0.8732
 3358SOL    HW211045   3.954   1.317   0.450 -1.6855 -2.9450  3.2352
 3359SOL     OW11046   4.386   2.997   0.200  0.0449 -0.3935  0.0637
 3359SOL    HW111047   4.321   2.929   0.217  1.0086 -1.3492  0.0484
 3359SOL    HW211048   4.383   3.053   0.278 -1.0957 -0.1578 -0.1344
 3360SOL     OW11049   2.820   5.554   3.916  0.1978 -0.7191 -0.0910
 3360SOL    HW111050   2.914   5.570   3.922  0.0572  0.8671 -1.5936
 3360SOL    HW211051   2.786   5.578   4.002  0.7010  2.4330 -0.6759
 3361SOL     OW11052   1.063   2.610   3.142 -0.0429 -0.0115  0.1672
 3361SOL    HW111053   1.085   2.678   3.079 -1.0498 -0.5713 -0.8189
 3361SOL    HW211054   1.060   2.529   3.090  0.2999 -0.6861  1.1542
 3362SOL     OW11055   4.428   0.826   6.749  0.8720 -0.0302 -0.4983
 3362SOL    HW111056   4.346   0.798   6.789  1.3910 -0.2927  0.4202
 3362SOL    HW211057   4.402   0.881   6.675 -0.1249  0.3346  0.1086
 3363SOL     OW11058   4.196   1.221   5.805  0.2753  0.3768 -0.0852
 3363SOL    HW111059   4.183   1.312   5.833  0.1454 -0.1269  1.6040
 3363SOL    HW211060   4.108   1.188   5.787  0.1906  0.2009  0.6234
 3364SOL     OW11061   5.964   6.352   1.047 -0.2364  0.3913  0.3827
 3364SOL    HW111062   5.917   6.277   1.084  0.8151 -0.7951 -0.5724
 3364SOL    HW211063   6.011   6.389   1.122  1.5112 -1.6940  0.4127
 3365SOL     OW11064   2.301   2.324   0.130  0.9173 -0.3636  0.2808
 3365SOL    HW111065   2.210   2.294   0.137  0.0548  1.8509 -0.6075
 3365SOL    HW211066   2.347   2.251   0.089 -0.5473 -1.3754  0.3635
 3366SOL     OW11067   2.528   1.000   3.223  0.7499 -0.6395 -0.4379
 3366SOL    HW111068   2.560   0.922   3.268 -0.3145 -0.7555  0.1642
 3366SOL    HW211069   2.577   1.003   3.141  1.4460 -1.4319 -0.0605
 3367SOL     OW11070   5.760   0.781   0.572 -0.5439  0.1441  0.0272
 3367SOL    HW111071   5.682   0.735   0.603 -0.5305 -0.3561 -0.6677
 3367SOL    HW211072   5.732   0.824   0.491  0.5433 -2.2041 -1.7132
 3368SOL     OW11073   7.373   4.118   7.261  0.0194 -0.6969  0.2948
 3368SOL    HW111074   7.352   4.035   7.218  1.5761 -0.7454 -0.4360
 3368SOL    HW211075   7.457   4.144   7.224  0.7897 -0.0592  2.3532
 3369SOL     OW11076   2.915   5.360   4.226  0.4233 -0.6683 -0.1539
 3369SOL    HW111077   2.987   5.305   4.195  1.5272  1.0022 -0.7306
 3369SOL    HW211078   2.910   5.431   4.162 -1.5499 -0.5525  0.0598
 3370SOL     OW11079   4.242   6.098   6.802 -0.4360 -0.4101 -0.0082
 3370SOL    HW111080   4.196   6.036   6.859  1.2808 -1.7233  0.0382
 3370SOL    HW211081   4.297   6.149   6.862  1.8746 -2.2355 -0.4130
 3371SOL     OW11082   5.034   5.041   2.150 -0.3055  0.0111 -0.7309
 3371SOL    HW111083   5.096   4.997   2.092  0.8297 -0.1643  0.5708
 3371SOL    HW211084   4.994   5.109   2.095 -0.1180 -0.8789 -2.0170
 3372SOL     OW11085   6.555   4.864   3.766  0.3234 -0.4981  0.7414
 3372SOL    HW111086   6.480   4.887   3.820  1.1849  0.0845  1.7375
 3372SOL    HW211087   6.533   4.897   3.679 -0.9736 -1.2087  0.7799
 3373SOL     OW11088   1.649   2.288   3.359 -0.0710  0.0805 -0.0348
 3373SOL    HW111089   1.708   2.347   3.313 -0.1735  0.4890  0.3579
 3373SOL    HW211090   1.707   2.235   3.414  0.0606 -0.4657 -0.6783
 3374SOL     OW11091   6.781   3.996   6.053  0.0989 -0.3206 -0.1129
 3374SOL    HW111092   6.715   4.008   6.121  0.6678  0.8207  0.2511
 3374SOL    HW211093   6.763   4.065   5.989  2.5697  1.8159  1.3360
 3375SOL     OW11094   1.300   1.227   2.928 -0.0652 -0.2633  0.6646
 3375SOL    HW111095   1.266   1.143   2.958 -2.0455 -0.0585 -0.7890
 3375SOL    HW211096   1.394   1.213   2.919 -0.0269 -1.5897  2.6518
 3376SOL     OW11097   0.893   6.456   2.950 -0.2758 -0.2430  0.5909
 3376SOL    HW111098   0.941   6.406   3.016  0.8074 -0.9388 -0.6776
 3376SOL    HW211099   0.843   6.520   3.000 -0.4786 -1.5595  2.1692
 3377SOL     OW11100   0.816   3.708   0.146 -0.7508 -0.8123 -0.5337
 3377SOL    HW111101   0.830   3.625   0.102 -0.6628 -0.9678 -0.2123
 3377SOL    HW211102   0.904   3.742   0.163 -0.7869 -0.4884 -0.9726
 3378SOL     OW11103   4.751   5.123   5.056 -0.1188 -0.1114 -0.0546
 3378SOL    HW111104   4.767   5.169   4.974  0.7116  0.5493  0.4613
 3378SOL    HW211105   4.831   5.074   5.073  0.0262  0.3806  0.7520
 3379SOL     OW11106   3.603   1.362   1.523  0.0599  0.4107 -0.1095
 3379SOL    HW111107   3.578   1.356   1.615  0.1951 -0.2172 -0.1098
 3379SOL    HW211108   3.554   1.438   1.490  0.2080  0.7961  0.5366
 3380SOL     OW11109   1.733   5.784   4.113 -0.0735  0.0960 -0.3503
 3380SOL    HW111110   1.770   5.870   4.131 -1.1348  0.4246  0.3510
 3380SOL    HW211111   1.766   5.762   4.026 -1.0061  1.9119 -1.2345
 3381SOL     OW11112   7.327   1.826   2.400 -0.3229 -0.1065  0.0942
 3381SOL    HW111113   7.288   1.854   2.483 -1.1801  0.4720 -0.4888
 3381SOL    HW211114   7.307   1.897   2.339 -0.2911 -0.8305 -0.7733
 3382SOL     OW11115   6.731   0.111   3.019  0.4624 -0.9719 -0.0140
 3382SOL    HW111116   6.812   0.159   3.035 -1.7668  3.4487 -0.5890
 3382SOL    HW211117   6.737   0.084   2.927 -0.2336  3.2723 -1.5479
 3383SOL     OW11118   4.570   0.211   6.167  0.0176  0.1469  0.2784
 3383SOL    HW111119   4.637   0.144   6.178 -1.0300 -1.0891 -0.5540
 3383SOL    HW211120   4.491   0.163   6.142 -0.7965  1.6866 -0.2912
 3384SOL     OW11121   1.993   3.378   0.454  0.0511  0.0163 -0.0025
 3384SOL    HW111122   1.979   3.313   0.385 -3.9855  1.8205 -1.1599
 3384SOL    HW211123   1.992   3.327   0.535  1.7501 -1.7875 -1.0139
 3385SOL     OW11124   0.512   0.215   5.191  0.1960  0.6459 -0.2128
 3385SOL    HW111125   0.516   0.130   5.147 -0.6093  1.1778 -1.3557
 3385SOL    HW211126   0.591   0.217   5.245  0.9252 -0.2750 -1.1885
 3386SOL     OW11127   1.799   4.915   3.701 -0.1677 -0.4289  0.0353
 3386SOL    HW111128   1.860   4.966   3.755 -1.3211  0.2471  0.7483
 3386SOL    HW211129   1.810   4.825   3.730  0.0491 -0.2241  0.6007
 3387SOL     OW11130   4.087   7.253   6.921  0.1899 -0.2684 -0.3137
 3387SOL    HW111131   4.064   7.204   6.999 -0.2368 -2.7839 -1.8895
 3387SOL    HW211132   4.179   7.234   6.907  0.1454 -0.2281 -0.6768
 3388SOL     OW11133   5.956   0.717   4.484  0.4099  0.1609 -0.3476
 3388SOL    HW111134   5.920   0.772   4.554  0.0692 -0.8395  0.2980
 3388SOL    HW211135   5.993   0.641   4.530  1.0214 -0.0678 -1.1953
 3389SOL     OW11136   3.570   6.809   1.018 -0.1900  0.0262 -0.1553
 3389SOL    HW111137   3.612   6.875   1.072 -1.3109  1.4007 -0.8823
 3389SOL    HW211138   3.476   6.825   1.030 -0.4655 -0.7252 -1.1889
 3390SOL     OW11139   2.580   4.727   3.576  0.1507 -0.4340 -0.0265
 3390SOL    HW111140   2.615   4.704   3.662  0.5176  4.4429  1.4305
 3390SOL    HW211141   2.649   4.704   3.514  0.8336 -1.9211  1.2262
 3391SOL     OW11142   4.226   3.418   6.585  0.6202 -0.2651  0.2285
 3391SOL    HW111143   4.139   3.451   6.606  0.7519  0.5346 -0.4136
 3391SOL    HW211144   4.263   3.483   6.525  0.7040 -1.8341 -1.5246
 3392SOL     OW11145   2.723   1.903   1.231  0.2478  0.5622  0.3386
 3392SOL    HW111146   2.770   1.983   1.255 -1.3866  1.7143 -0.1046
 3392SOL    HW211147   2.653   1.897   1.295 -0.6998  0.4883 -0.6718
 3393SOL     OW11148   4.211   1.721   4.065 -0.1350 -0.8884  0.1128
 3393SOL    HW111149   4.298   1.739   4.029 -0.2123 -0.9039 -0.0835
 3393SOL    HW211150   4.172   1.657   4.005 -0.5837 -0.2866 -0.2532
 3394SOL     OW11151   2.647   2.622   4.056 -0.0394 -0.0136  0.4007
 3394SOL    HW111152   2.577   2.684   4.039  0.0152 -0.0550  0.0065
 3394SOL    HW211153   2.702   2.666   4.121  0.8774  1.0605 -1.0236
 3395SOL     OW11154   5.248   1.317   2.952 -0.2336 -0.0849  0.4222
 3395SOL    HW111155   5.218   1.340   2.864  0.5404 -2.3392 -0.5291
 3395SOL    HW211156   5.326   1.371   2.966 -0.1975  0.0940 -0.4039
 3396SOL     OW11157   6.582   3.655   4.223 -0.4357 -0.1109  0.1500
 3396SOL    HW111158   6.512   3.717   4.242  0.5002  1.1710 -0.4521
 3396SOL    HW211159   6.551   3.606   4.148 -1.6276 -1.1363  1.2587
 3397SOL     OW11160   0.835   3.328   4.061 -0.6896  0.0648 -0.5707
 3397SOL    HW111161   0.835   3.233   4.066  1.4190  0.0707  0.7227
 3397SOL    HW211162   0.862   3.358   4.148 -0.3532  1.7988 -1.2142
 3398SOL     OW11163   3.091   3.409   7.092  0.0979 -0.2926  0.0244
 3398SOL    HW111164   3.127   3.421   7.004 -0.6909  0.3612 -0.2197
 3398SOL    HW211165   3.153   3.455   7.149  0.5078 -0.5520 -0.2013
 3399SOL     OW11166   3.737   0.935   3.707 -0.3798 -0.5790 -0.5254
 3399SOL    HW111167   3.687   0.903   3.782 -3.3451  1.8552 -1.2548
 3399SOL    HW211168   3.746   0.859   3.649 -1.9072 -1.4745  0.3640
 3400SOL     OW11169   0.235   0.077   1.303  0.2206  0.1716  0.2972
 3400SOL    HW111170   0.222   0.164   1.263  0.0202  0.3009  0.6387
 3400SOL    HW211171   0.330   0.068   1.310  0.2649  0.0759 -0.3617
 3401SOL     OW11172   2.785   2.737   4.285  0.7028 -0.6045  0.0895
 3401SOL    HW111173   2.764   2.676   4.356  1.5594 -1.0285 -0.0057
 3401SOL    HW211174   2.776   2.824   4.325  1.2089 -0.8405  0.7442
 3402SOL     OW11175   6.493   1.739   6.946 -0.0367 -0.4097  0.2913
 3402SOL    HW111176   6.431   1.740   6.873 -0.8264 -2.4513  0.8762
 3402SOL    HW211177   6.575   1.706   6.908  0.0395  0.0946  0.0078
 3403SOL     OW11178   0.956   4.548   6.348  0.2536 -0.1052 -0.2047
 3403SOL    HW111179   0.861   4.545   6.362  0.1785 -0.6509 -0.8050
 3403SOL    HW211180   0.991   4.490   6.416  0.2511  0.8484  0.6526
 3404SOL     OW11181   2.050   3.686   2.930  0.0502  0.5545  0.2165
 3404SOL    HW111182   2.075   3.611   2.877 -2.4821 -0.1029 -0.1871
 3404SOL    HW211183   1.981   3.729   2.879 -1.9407  0.3427  2.5546
 3405SOL     OW11184   3.233   3.743   6.532  0.1823 -0.0836  0.4000
 3405SOL    HW111185   3.247   3.658   6.489 -1.4662 -0.1652 -0.0486
 3405SOL    HW211186   3.170   3.724   6.602  0.9394  0.5198  1.2673
 3406SOL     OW11187   1.759   1.358   3.008 -0.5836  0.2242  0.0255
 3406SOL    HW111188   1.779   1.290   2.944  0.8347 -0.4390  1.1217
 3406SOL    HW211189   1.772   1.440   2.961  2.8024 -0.1840 -0.0050
 3407SOL     OW11190   5.473   4.672   1.411 -0.1578  0.1885 -0.2594
 3407SOL    HW111191   5.505   4.620   1.485  2.4856 -0.7088 -1.9037
 3407SOL    HW211192   5.507   4.627   1.334 -2.1862  1.5203 -2.0414
 3408SOL     OW11193   2.165   0.627   2.869  0.1628  0.0801 -0.2863
 3408SOL    HW111194   2.139   0.572   2.943  0.1892  0.2612 -0.1433
 3408SOL    HW211195   2.087   0.632   2.815  0.4163 -0.8618 -0.7767
 3409SOL     OW11196   0.129   5.243   6.778 -0.3525  0.0558 -0.0811
 3409SOL    HW111197   0.216   5.281   6.770 -1.0143  1.2022 -2.7567
 3409SOL    HW211198   0.069   5.318   6.779 -1.4794 -0.7129 -2.1983
 3410SOL     OW11199   2.722   6.291   4.245  0.0581 -0.1731 -0.1221
 3410SOL    HW111200   2.708   6.253   4.332  1.3025 -0.1239  0.1086
 3410SOL    HW211201   2.811   6.325   4.247 -0.3719  1.0980 -0.9501
 3411SOL     OW11202   0.486   6.840   5.107  0.0992  0.2498  0.5079
 3411SOL    HW111203   0.446   6.847   5.194 -0.0523 -2.3228  0.7132
 3411SOL    HW211204   0.555   6.775   5.118  1.6254  1.5703 -0.8107
 3412SOL     OW11205   7.183   6.076   0.181  0.1893  0.2171 -0.5573
 3412SOL    HW111206   7.112   6.060   0.119  1.1319 -0.7057 -1.4443
 3412SOL    HW211207   7.144   6.059   0.267 -0.9015  0.6350 -0.9537
 3413SOL     OW11208   2.573   2.862   3.121  0.6895  0.0746  0.4440
 3413SOL    HW111209   2.620   2.854   3.038 -0.5797 -0.6190 -0.2354
 3413SOL    HW211210   2.578   2.774   3.160 -0.2484 -0.0748  0.2398
 3414SOL     OW11211   4.766   4.397   0.018 -0.0744  0.3601  0.2557
 3414SOL    HW111212   4.688   4.342   0.019  0.9834 -1.3097 -1.3823
 3414SOL    HW211213   4.824   4.354  -0.045  2.6583  0.8510  2.2483
 3415SOL     OW11214   7.220   2.003   3.806 -0.0735  0.3438  0.2503
 3415SOL    HW111215   7.155   2.070   3.784 -1.3617 -1.2976 -1.3339
 3415SOL    HW211216   7.167   1.926   3.830  1.2770 -0.8387 -0.4152
 3416SOL     OW11217   4.975   6.726   2.057  0.2074 -0.1618 -0.1947
 3416SOL    HW111218   5.068   6.705   2.050  0.8581  1.2941  2.5911
 3416SOL    HW211219   4.956   6.780   1.980  2.0793  0.7551 -0.0634
 3417SOL     OW11220   4.192   5.186   2.367  0.2419  0.5294  0.2593
 3417SOL    HW111221   4.175   5.278   2.386  0.4965  0.6721 -0.2035
 3417SOL    HW211222   4.135   5.138   2.428 -0.7900  1.0004 -0.3107
 3418SOL     OW11223   7.000   2.815   5.088 -0.2813  0.0075  0.2548
 3418SOL    HW111224   7.027   2.796   4.998 -0.1475  2.5524 -0.3057
 3418SOL    HW211225   7.023   2.736   5.137  0.8645 -0.9329 -1.6878
 3419SOL     OW11226   6.255   6.483   0.081 -0.6787 -0.5576 -0.0381
 3419SOL    HW111227   6.299   6.526   0.155  0.1678  0.6965 -1.2077
 3419SOL    HW211228   6.182   6.541   0.060 -0.6057 -0.6299 -0.5047
 3420SOL     OW11229   5.870   7.269   1.547 -0.5628  0.0711 -0.1836
 3420SOL    HW111230   5.922   7.335   1.501  0.6510 -1.0492 -0.4705
 3420SOL    HW211231   5.860   7.198   1.483  0.5028 -1.1916  1.0035
 3421SOL     OW11232   3.208   3.481   6.868  0.1451 -0.6334  0.1845
 3421SOL    HW111233   3.242   3.416   6.807  0.6365 -0.7681  0.6012
 3421SOL    HW211234   3.149   3.536   6.815  1.6525  0.1416 -0.7476
 3422SOL     OW11235   5.972   4.688   6.400 -0.4419  0.3621 -0.8773
 3422SOL    HW111236   5.905   4.728   6.455  0.0167  1.0124 -0.7726
 3422SOL    HW211237   6.012   4.621   6.456 -1.8486 -0.9330 -1.3700
 3423SOL     OW11238   2.677   3.014   6.358  0.4107  0.2898 -0.1061
 3423SOL    HW111239   2.669   2.940   6.297 -0.0322  0.5371 -0.3542
 3423SOL    HW211240   2.742   3.071   6.318  1.3373 -0.3256  0.4688
 3424SOL     OW11241   6.265   1.794   5.211 -0.1223 -0.6166  0.1965
 3424SOL    HW111242   6.206   1.827   5.143 -0.2850  0.5135  0.8599
 3424SOL    HW211243   6.221   1.716   5.245 -1.0156 -0.0505  0.3698
 3425SOL     OW11244   4.514   2.442   1.690 -0.0552 -0.0742 -0.1023
 3425SOL    HW111245   4.474   2.363   1.725 -1.2535 -0.3626 -1.9972
 3425SOL    HW211246   4.606   2.437   1.718 -0.6308 -0.8893  1.8179
 3426SOL     OW11247   5.757   5.780   3.141 -0.2074 -1.0117 -0.8330
 3426SOL    HW111248   5.764   5.736   3.225  1.0144 -0.7349 -0.7663
 3426SOL    HW211249   5.688   5.733   3.094 -2.0870 -0.1714  0.9124
 3427SOL     OW11250   3.607   4.650   0.149  0.2482  0.0180  0.6198
 3427SOL    HW111251   3.592   4.567   0.104  1.4140 -0.0649  0.3628
 3427SOL    HW211252   3.527   4.700   0.132 -0.3743 -0.9609  0.5958
 3428SOL     OW11253   1.324   0.319   4.005  0.6871  0.0668  0.4236
 3428SOL    HW111254   1.260   0.271   3.953  0.8789  0.5085 -0.2270
 3428SOL    HW211255   1.274   0.389   4.046  0.1943 -1.2456  2.1950
 3429SOL     OW11256   2.951   2.929   0.016  0.5842  0.2377 -0.4462
 3429SOL    HW111257   3.021   2.880  -0.027  0.1367  0.3824 -1.3698
 3429SOL    HW211258   2.946   2.892   0.104  0.6447 -0.9758 -0.9392
 3430SOL     OW11259   6.028   4.944   5.524 -0.1594 -0.5398  0.4111
 3430SOL    HW111260   6.105   4.956   5.579 -0.4582  0.7466  0.5802
 3430SOL    HW211261   6.024   5.023   5.471 -2.1252  0.0753  1.3816
 3431SOL     OW11262   3.437   1.945   3.553  0.1595  0.8473 -0.0804
 3431SOL    HW111263   3.411   1.990   3.634  0.9171  1.1296  0.0147
 3431SOL    HW211264   3.359   1.948   3.498 -1.3376 -1.8238  1.6726
 3432SOL     OW11265   7.376   0.038   6.028  0.4442  0.5728 -0.2456
 3432SOL    HW111266   7.442   0.075   6.087 -0.0180  0.7400  0.1737
 3432SOL    HW211267   7.391   0.081   5.944 -0.9661  2.7761  0.5571
 3433SOL     OW11268   4.746   0.920   6.651 -0.3539  0.0905  0.5594
 3433SOL    HW111269   4.696   1.001   6.653 -0.3740  0.1234 -0.5691
 3433SOL    HW211270   4.773   0.906   6.742  0.9422  2.1571  0.5606
 3434SOL     OW11271   0.095   2.067   0.540  0.3349 -0.2571  0.3912
 3434SOL    HW111272   0.181   2.042   0.508  0.3718  0.4808 -0.1132
 3434SOL    HW211273   0.090   2.030   0.628  1.1585 -0.3159  0.4186
 3435SOL     OW11274   6.666   5.633   0.067 -0.0157  0.4827 -0.0158
 3435SOL    HW111275   6.708   5.698   0.009  2.4187 -2.3737 -1.7737
 3435SOL    HW211276   6.576   5.629   0.036 -0.1379  2.6995 -0.1099
 3436SOL     OW11277   2.165   5.207   4.040 -0.3812 -0.1703  0.4920
 3436SOL    HW111278   2.084   5.169   4.074 -1.0806  0.1390 -0.7681
 3436SOL    HW211279   2.215   5.132   4.006 -0.8407 -0.2089 -0.1220
 3437SOL     OW11280   6.679   6.946   0.088 -0.0965  0.2714  0.6219
 3437SOL    HW111281   6.597   6.906   0.115  0.2101  0.1043  1.3318
 3437SOL    HW211282   6.747   6.894   0.132  0.4225 -0.0515 -0.5356
 3438SOL     OW11283   1.922   0.729   3.374  0.1933  0.1649 -0.4513
 3438SOL    HW111284   1.957   0.817   3.365 -0.5942  0.4134 -1.1723
 3438SOL    HW211285   1.868   0.716   3.296 -0.6208 -0.5189  0.2040
 3439SOL     OW11286   1.599   3.021   4.062 -0.4805  0.1456 -0.2210
 3439SOL    HW111287   1.673   3.063   4.018  1.4770 -0.2636  2.4072
 3439SOL    HW211288   1.598   2.932   4.027 -0.6446  0.5492 -1.2738
 3440SOL     OW11289   5.466   0.231   4.552  0.1765  0.0058  0.2613
 3440SOL    HW111290   5.473   0.213   4.458 -1.4762 -0.9027  0.2756
 3440SOL    HW211291   5.430   0.320   4.556  2.8016  1.1734  0.1236
 3441SOL     OW11292   1.035   1.544   1.003 -0.2947  0.1022  0.3071
 3441SOL    HW111293   0.960   1.555   1.062 -0.6192  3.5302 -0.5036
 3441SOL    HW211294   1.106   1.591   1.047  1.0137 -1.8055  0.3409
 3442SOL     OW11295   0.981   1.789   5.005 -0.4345  0.0105 -0.5790
 3442SOL    HW111296   0.907   1.732   4.984 -0.3053 -0.6806  0.7595
 3442SOL    HW211297   0.964   1.819   5.094  1.6189 -1.4122  0.3678
 3443SOL     OW11298   1.977   5.604   4.650 -0.0584  0.0726  0.1396
 3443SOL    HW111299   1.959   5.511   4.656 -0.7908  0.1801 -0.3582
 3443SOL    HW211300   1.922   5.643   4.718  0.2946  0.1392  0.3904
 3444SOL     OW11301   1.417   0.798   5.396  0.0197  0.1768 -0.3891
 3444SOL    HW111302   1.475   0.866   5.362 -0.1041 -0.1119 -1.1964
 3444SOL    HW211303   1.401   0.740   5.321 -0.4176 -0.3632  0.1118
 3445SOL     OW11304   2.993   4.590   2.646 -0.3966 -0.6008 -0.0383
 3445SOL    HW111305   3.031   4.572   2.560  0.0361  0.7821 -0.1557
 3445SOL    HW211306   2.930   4.660   2.630  1.1056  1.0810  1.0473
 3446SOL     OW11307   0.272   4.881   4.208  0.4103  0.1268 -1.0399
 3446SOL    HW111308   0.243   4.829   4.283  1.3875  0.1623 -0.6174
 3446SOL    HW211309   0.200   4.942   4.192  0.5522  0.7424  0.4778
 3447SOL     OW11310   1.401   7.188   0.305  0.2360  0.3890 -0.2119
 3447SOL    HW111311   1.332   7.223   0.249  0.0871 -0.4273 -0.5498
 3447SOL    HW211312   1.471   7.253   0.301 -0.2224  0.8687 -0.4467
 3448SOL     OW11313   5.596   5.154   5.845  0.6378  0.3669  0.2244
 3448SOL    HW111314   5.559   5.112   5.923  0.3946  0.8773  0.3855
 3448SOL    HW211315   5.576   5.247   5.856  2.5360  0.7549  0.6273
 3449SOL     OW11316   5.377   7.376   6.961  0.1619 -0.6772  0.7003
 3449SOL    HW111317   5.429   7.302   6.992  1.2393 -0.4129 -0.4104
 3449SOL    HW211318   5.375   7.366   6.866 -3.8481 -1.9920  0.7468
 3450SOL     OW11319   2.198   3.523   2.650 -0.1960  0.4885 -0.2454
 3450SOL    HW111320   2.166   3.450   2.597  0.0218  1.3744 -1.6525
 3450SOL    HW211321   2.143   3.597   2.624 -0.8550  0.7181  1.6360
 3451SOL     OW11322   7.216   6.522   2.822 -0.0887 -0.1645  0.1464
 3451SOL    HW111323   7.211   6.597   2.882 -0.2023  1.7371 -2.0825
 3451SOL    HW211324   7.126   6.496   2.808 -0.2776  1.0111 -1.0314
 3452SOL     OW11325   3.146   3.132   3.038  0.0326  0.7348 -0.1608
 3452SOL    HW111326   3.076   3.184   3.078 -0.4758  0.1411 -0.2618
 3452SOL    HW211327   3.223   3.151   3.092 -0.5793  0.1556  0.9671
 3453SOL     OW11328   0.081   4.578   2.480 -0.6205 -0.5907 -0.4231
 3453SOL    HW111329   0.174   4.596   2.473 -0.0691 -3.0090 -0.0771
 3453SOL    HW211330   0.066   4.556   2.572 -2.1333  2.3636  0.1700
 3454SOL     OW11331   5.942   0.585   5.085  0.2250 -0.0942  0.2644
 3454SOL    HW111332   5.893   0.561   5.163  1.0257 -0.6820  0.6029
 3454SOL    HW211333   6.015   0.523   5.082  1.2891  1.1183  0.1125
 3455SOL     OW11334   4.024   1.854   1.177 -0.1462  0.0581 -0.2355
 3455SOL    HW111335   3.950   1.860   1.238 -1.0430 -0.7806 -1.1791
 3455SOL    HW211336   4.034   1.942   1.142 -0.7637  0.1659 -0.1544
 3456SOL     OW11337   2.035   2.579   2.426  0.1247  0.1689  0.1770
 3456SOL    HW111338   2.098   2.628   2.374  1.6300 -1.3372  0.5109
 3456SOL    HW211339   2.069   2.490   2.429 -1.1836 -0.3437  1.7111
 3457SOL     OW11340   1.396   7.102   4.420  0.3088  0.5954  0.0919
 3457SOL    HW111341   1.421   7.033   4.358 -0.4717 -0.4705  0.9223
 3457SOL    HW211342   1.309   7.129   4.393  0.7796  1.6069 -0.4945
 3458SOL     OW11343   2.211   1.383   4.478  0.3071 -0.4434 -0.6094
 3458SOL    HW111344   2.271   1.403   4.406 -0.7756  1.6242 -0.9953
 3458SOL    HW211345   2.268   1.354   4.550  1.5170 -1.1154 -1.7904
 3459SOL     OW11346   2.338   2.184   5.788  0.1661  0.5545  0.1655
 3459SOL    HW111347   2.391   2.122   5.737 -2.6005 -2.4512  0.6209
 3459SOL    HW211348   2.382   2.188   5.873  0.6377 -0.4983 -0.0044
 3460SOL     OW11349   6.863   6.586   2.932 -0.0140 -0.1072  0.1106
 3460SOL    HW111350   6.838   6.673   2.899  1.2828 -0.3346 -1.5715
 3460SOL    HW211351   6.803   6.571   3.005 -0.7502  1.8914 -0.0035
 3461SOL     OW11352   6.136   2.793   5.086 -0.2376 -0.0431 -0.0906
 3461SOL    HW111353   6.051   2.823   5.053 -0.4138  1.0267  1.2176
 3461SOL    HW211354   6.141   2.701   5.060 -1.8933 -0.1777 -0.0316
 3462SOL     OW11355   5.239   6.525   4.834  0.4762  0.1007 -0.4174
 3462SOL    HW111356   5.243   6.443   4.882 -1.0381  1.1649  1.6793
 3462SOL    HW211357   5.194   6.503   4.753  0.8509 -1.2712 -0.2746
 3463SOL     OW11358   6.623   1.781   1.605  0.3890 -0.0092 -0.3871
 3463SOL    HW111359   6.565   1.826   1.544 -0.1429 -0.4615 -0.2238
 3463SOL    HW211360   6.700   1.837   1.611 -0.0104  0.5728 -0.6465
 3464SOL     OW11361   6.078   5.691   0.922 -0.0101 -0.1609 -0.2933
 3464SOL    HW111362   6.042   5.709   0.835  0.0725  0.2766 -0.2396
 3464SOL    HW211363   6.039   5.757   0.979 -1.2910 -1.4067  0.3359
 3465SOL     OW11364   6.929   4.379   6.022 -0.3127 -0.4322  0.3481
 3465SOL    HW111365   6.882   4.319   5.964 -1.1337  0.7271 -0.2272
 3465SOL    HW211366   6.862   4.415   6.080  0.2184 -0.2895  0.8870
 3466SOL     OW11367   4.596   3.326   5.897  0.4585 -0.0928  0.1631
 3466SOL    HW111368   4.638   3.240   5.892  0.9904  0.0952  1.1556
 3466SOL    HW211369   4.524   3.315   5.959 -0.0801 -0.0591 -0.4507
 3467SOL     OW11370   5.484   3.525   1.297  0.2685  0.2278 -0.3304
 3467SOL    HW111371   5.468   3.442   1.343 -0.4996  0.3135 -0.4435
 3467SOL    HW211372   5.577   3.521   1.273 -0.5566 -2.4052 -3.8644
 3468SOL     OW11373   2.749   4.841   0.964 -0.4009  0.2914 -0.0013
 3468SOL    HW111374   2.754   4.831   0.869 -1.7351 -0.3215 -0.0359
 3468SOL    HW211375   2.725   4.933   0.978  3.1380  1.3651 -0.0644
 3469SOL     OW11376   6.296   5.233   0.598 -0.2293  0.1288 -0.4916
 3469SOL    HW111377   6.242   5.237   0.677 -0.0904  0.0453 -0.3912
 3469SOL    HW211378   6.376   5.280   0.622  0.4232 -1.1501 -0.0973
 3470SOL     OW11379   3.721   5.382   1.307 -0.5389 -0.6451  0.2147
 3470SOL    HW111380   3.746   5.289   1.311  0.6108 -0.3930 -0.4587
 3470SOL    HW211381   3.643   5.388   1.361 -1.7953 -2.3898 -1.2706
 3471SOL     OW11382   1.801   1.611   0.177 -0.0280  0.5250 -0.0515
 3471SOL    HW111383   1.724   1.660   0.147 -1.5292 -0.2875  2.2080
 3471SOL    HW211384   1.867   1.678   0.196 -0.4672  1.3060 -1.1971
 3472SOL     OW11385   1.997   1.303   1.932 -0.2257  0.4987 -0.5454
 3472SOL    HW111386   1.979   1.375   1.993  0.8641 -0.4680  0.9838
 3472SOL    HW211387   2.087   1.279   1.950 -0.2304 -0.5526 -1.8128
 3473SOL     OW11388   3.694   0.636   4.356 -0.0311 -0.0134 -0.3908
 3473SOL    HW111389   3.763   0.694   4.386  1.3911 -1.2095 -1.2136
 3473SOL    HW211390   3.689   0.652   4.261 -0.0595 -0.7651 -0.5227
 3474SOL     OW11391   5.301   0.585   6.963 -0.8979  0.2729 -0.8741
 3474SOL    HW111392   5.258   0.506   6.930  2.8121 -2.5321  0.1870
 3474SOL    HW211393   5.357   0.614   6.891  0.3325 -0.2689 -0.1798
 3475SOL     OW11394   5.546   1.077   7.279  0.0516 -0.0150 -0.3088
 3475SOL    HW111395   5.617   1.135   7.307  0.7673 -1.4317  0.9743
 3475SOL    HW211396   5.574   1.042   7.195  0.6287 -0.1133 -0.0805
 3476SOL     OW11397   1.685   2.379   6.429  0.1182 -0.2732 -0.3926
 3476SOL    HW111398   1.761   2.338   6.386  0.4277 -1.3231  1.0558
 3476SOL    HW211399   1.631   2.410   6.357  0.1866 -2.7094 -1.6188
 3477SOL     OW11400   4.564   2.430   5.314 -0.2945 -0.2529 -0.3197
 3477SOL    HW111401   4.657   2.441   5.328 -0.2739 -0.1809 -0.5048
 3477SOL    HW211402   4.558   2.354   5.256 -0.4698 -1.7838  1.6099
 3478SOL     OW11403   0.781   4.065   5.420  0.2713  0.2762  0.4637
 3478SOL    HW111404   0.861   4.091   5.373  1.2446  0.1294  1.9714
 3478SOL    HW211405   0.719   4.135   5.401  0.7532  0.4261 -0.6923
 3479SOL     OW11406   3.438   0.501   4.099  0.4094 -0.5259 -0.1469
 3479SOL    HW111407   3.375   0.562   4.137  0.7327  0.0317 -0.4853
 3479SOL    HW211408   3.395   0.416   4.102  0.1471 -0.3680  0.7959
 3480SOL     OW11409   2.817   2.664   1.962 -0.3201 -0.5479 -0.2699
 3480SOL    HW111410   2.907   2.685   1.936  0.1195 -3.4541 -1.5078
 3480SOL    HW211411   2.763   2.725   1.913  0.8934 -0.4979 -1.6366
 3481SOL     OW11412   3.987   5.417   0.729 -0.0237 -0.2098 -0.3899
 3481SOL    HW111413   3.923   5.488   0.726 -0.4346 -0.5422  0.4269
 3481SOL    HW211414   4.007   5.406   0.822  2.1738  0.7346 -0.7025
 3482SOL     OW11415   5.328   0.494   4.129  0.3383 -0.2195 -0.4812
 3482SOL    HW111416   5.392   0.562   4.150  0.3802 -0.1838 -0.7204
 3482SOL    HW211417   5.375   0.433   4.072  0.2638 -0.3812 -0.3712
 3483SOL     OW11418   1.705   2.033   0.168  0.2319 -0.7113 -0.1854
 3483SOL    HW111419   1.792   2.011   0.133 -0.0732 -0.8038 -0.9074
 3483SOL    HW211420   1.701   1.987   0.252  1.4642  0.5115  0.5931
 3484SOL     OW11421   4.832   0.084   6.565 -0.5701 -0.4311  0.0752
 3484SOL    HW111422   4.845   0.166   6.517 -1.0689  1.3543  2.7709
 3484SOL    HW211423   4.751   0.047   6.530  0.3863 -0.5803 -2.1447
 3485SOL     OW11424   5.685   1.878   7.373  0.4459 -0.2850 -0.3375
 3485SOL    HW111425   5.631   1.799   7.366 -1.1085  0.8101 -1.4106
 3485SOL    HW211426   5.632   1.946   7.332  2.8907  0.7602 -1.9714
 3486SOL     OW11427   4.510   2.703   5.136 -0.3233  0.0807 -0.3748
 3486SOL    HW111428   4.488   2.612   5.157 -2.5263 -0.0726 -2.8860
 3486SOL    HW211429   4.488   2.752   5.215 -0.3062 -1.3865  0.5835
 3487SOL     OW11430   3.124   5.063   0.323 -0.5189 -0.2619  0.8728
 3487SOL    HW111431   3.085   5.032   0.241 -1.4913  0.4655  1.0284
 3487SOL    HW211432   3.216   5.038   0.317 -0.8730 -1.5040  0.2030
 3488SOL     OW11433   6.262   5.759   3.497  0.1787  0.3320  0.5190
 3488SOL    HW111434   6.188   5.760   3.436  1.0599 -1.3882 -0.6865
 3488SOL    HW211435   6.251   5.838   3.549 -2.0490  0.5487 -0.1501
 3489SOL     OW11436   6.997   3.571   6.547 -0.0926  0.0406 -0.1271
 3489SOL    HW111437   6.980   3.646   6.490 -0.4259 -0.5219 -0.7973
 3489SOL    HW211438   6.963   3.496   6.497  1.0709 -0.6702  0.1194
 3490SOL     OW11439   1.733   0.268   6.947 -0.1458 -0.1331 -0.0568
 3490SOL    HW111440   1.793   0.341   6.960 -0.6872  0.0412  1.7104
 3490SOL    HW211441   1.646   0.308   6.949 -0.4132 -0.7064 -0.0727
 3491SOL     OW11442   3.285   1.488   1.250 -0.0845  0.2757 -0.4941
 3491SOL    HW111443   3.211   1.530   1.204 -1.6558 -0.3780  1.2963
 3491SOL    HW211444   3.284   1.398   1.219 -0.5910  0.0594  0.1175
 3492SOL     OW11445   5.106   3.701   4.467 -0.1891 -0.1864 -0.1379
 3492SOL    HW111446   5.083   3.610   4.451  1.4534 -1.2421  2.7550
 3492SOL    HW211447   5.189   3.714   4.421  0.2588 -0.5873  0.5482
 3493SOL     OW11448   0.111   7.244   1.172  0.2453 -0.2776 -0.3471
 3493SOL    HW111449   0.168   7.306   1.220  1.7671 -1.0431 -1.0965
 3493SOL    HW211450   0.024   7.257   1.211  0.8588  1.1362  0.6603
 3494SOL     OW11451   0.216   4.273   7.061 -0.4875  0.0271  0.0687
 3494SOL    HW111452   0.305   4.243   7.040 -1.0472 -1.3657 -0.4411
 3494SOL    HW211453   0.216   4.366   7.039  1.2206  0.3970  1.3265
 3495SOL     OW11454   3.552   5.399   6.648  0.0150  0.5177  0.0118
 3495SOL    HW111455   3.464   5.368   6.668 -0.3948  2.2420  1.0718
 3495SOL    HW211456   3.600   5.392   6.731 -0.0003  2.2511  0.2202
 3496SOL     OW11457   5.248   1.655   6.983  0.3564 -0.6100  0.2905
 3496SOL    HW111458   5.321   1.707   6.951 -1.2922  2.2707  0.8451
 3496SOL    HW211459   5.266   1.642   7.076  1.5679 -2.5695 -0.1734
 3497SOL     OW11460   0.447   7.120   6.745 -0.6939 -0.1186  0.3982
 3497SOL    HW111461   0.484   7.134   6.832  1.5762 -0.3004 -0.4861
 3497SOL    HW211462   0.471   7.198   6.696 -0.6901 -0.6476 -0.4622
 3498SOL     OW11463   3.348   2.922   7.246 -0.0536 -0.7840 -0.2616
 3498SOL    HW111464   3.367   2.949   7.336 -0.4017  1.8333 -0.8732
 3498SOL    HW211465   3.297   2.842   7.254  0.3200 -0.8591  1.8483
 3499SOL     OW11466   0.021   2.129   0.809 -0.2945  0.4323  0.4045
 3499SOL    HW111467   0.054   2.219   0.814  1.6939 -0.2216  0.2014
 3499SOL    HW211468   0.098   2.075   0.829 -1.5846 -1.2194  1.1353
 3500SOL     OW11469   1.084   3.054   7.186  0.2559  0.2450  0.1307
 3500SOL    HW111470   1.173   3.089   7.189  0.6636 -0.5026 -1.8634
 3500SOL    HW211471   1.095   2.960   7.173 -0.7563  0.4273 -2.6658
 3501SOL     OW11472   2.810   6.760   0.646 -0.3331 -0.1843  0.2193
 3501SOL    HW111473   2.829   6.728   0.734 -0.8128 -1.1683 -0.0229
 3501SOL    HW211474   2.837   6.689   0.588 -1.2194 -0.0748 -0.3452
 3502SOL     OW11475   1.396   0.514   4.366 -0.1799 -0.0951  0.4797
 3502SOL    HW111476   1.462   0.522   4.435 -0.0510 -1.2418  0.5134
 3502SOL    HW211477   1.313   0.530   4.409 -0.0691 -0.4337  0.8223
 3503SOL     OW11478   2.942   1.781   2.967 -0.4510 -0.0388 -0.2776
 3503SOL    HW111479   2.868   1.728   2.939  0.1846 -0.1248 -1.9079
 3503SOL    HW211480   2.939   1.859   2.912  2.0071 -1.1325 -2.1788
 3504SOL     OW11481   0.585   6.657   0.458  0.5375  0.1861  0.0079
 3504SOL    HW111482   0.537   6.705   0.526 -0.5010  1.6456 -1.6739
 3504SOL    HW211483   0.673   6.694   0.461  0.3601  0.5988  0.2234
 3505SOL     OW11484   6.429   6.048   5.124  0.0072 -0.1182  0.0435
 3505SOL    HW111485   6.478   5.967   5.133 -0.3712 -0.3099  0.4166
 3505SOL    HW211486   6.397   6.068   5.212  2.2229  1.8134  0.5148
 3506SOL     OW11487   4.844   2.356   1.505 -0.3618  0.3306 -0.7122
 3506SOL    HW111488   4.883   2.403   1.580 -0.1272  0.3430 -0.8409
 3506SOL    HW211489   4.912   2.358   1.438  0.6236 -2.2960  0.0810
 3507SOL     OW11490   6.721   3.893   4.684  0.1282 -0.0534 -0.4882
 3507SOL    HW111491   6.805   3.875   4.727 -0.6827 -2.1410  0.3462
 3507SOL    HW211492   6.660   3.909   4.756 -0.6989 -1.0165 -0.9505
 3508SOL     OW11493   5.068   0.994   0.543 -0.1670 -0.2113 -0.1299
 3508SOL    HW111494   5.118   0.912   0.549  0.2350 -0.2038 -2.4570
 3508SOL    HW211495   5.104   1.049   0.612  0.3373 -1.5744  0.7519
 3509SOL     OW11496   0.326   7.153   7.327 -0.6379 -0.3395  0.1861
 3509SOL    HW111497   0.266   7.158   7.253  0.9114  0.6754 -1.0810
 3509SOL    HW211498   0.278   7.192   7.400 -1.4699  0.5544 -0.8055
 3510SOL     OW11499   1.576   0.633   2.666  0.3980 -0.2504  0.2283
 3510SOL    HW111500   1.654   0.580   2.652 -1.1432 -2.6406  0.1402
 3510SOL    HW211501   1.551   0.662   2.578  0.8193  0.0428  0.1971
 3511SOL     OW11502   7.196   1.063   1.076  0.1416  0.0502  0.0134
 3511SOL    HW111503   7.241   1.075   0.992  1.0771  1.5786  0.6973
 3511SOL    HW211504   7.226   1.135   1.130  0.1762 -1.3361  1.9631
 3512SOL     OW11505   4.610   7.218   0.590 -0.1244 -0.0534  0.2413
 3512SOL    HW111506   4.616   7.190   0.681  1.7639 -0.1053  0.1351
 3512SOL    HW211507   4.611   7.137   0.539 -0.2206  0.0103  0.1367
 3513SOL     OW11508   6.116   4.381   2.122  0.2081 -0.6068 -0.1076
 3513SOL    HW111509   6.106   4.475   2.136 -1.2520 -0.7493 -0.0689
 3513SOL    HW211510   6.185   4.374   2.056  0.4051  0.4846 -0.0392
 3514SOL     OW11511   2.221   4.075   0.067  0.2397  0.4541  0.1019
 3514SOL    HW111512   2.217   3.982   0.046 -0.9844  1.1640 -3.5044
 3514SOL    HW211513   2.135   4.096   0.104  0.0666  0.3421 -0.2301
 3515SOL     OW11514   5.484   4.214   0.388  0.4971  0.0012  0.0832
 3515SOL    HW111515   5.481   4.205   0.483 -3.9158  0.8429  0.2412
 3515SOL    HW211516   5.441   4.298   0.371  0.3500 -0.5350 -2.6637
 3516SOL     OW11517   1.505   3.637   3.680 -0.0990 -0.2190 -0.2582
 3516SOL    HW111518   1.480   3.550   3.713  0.7724 -0.0515  0.9378
 3516SOL    HW211519   1.476   3.698   3.748  2.8655  0.0266  0.9319
 3517SOL     OW11520   0.296   3.964   3.443 -0.5641 -0.0163  0.4957
 3517SOL    HW111521   0.320   4.036   3.501 -0.2291  0.9414 -0.7883
 3517SOL    HW211522   0.265   3.895   3.502  1.3476  0.2655  1.9275
 3518SOL     OW11523   2.736   2.917   5.199  0.0104  0.2294 -0.0760
 3518SOL    HW111524   2.773   2.975   5.133  0.2785  1.6088  1.2413
 3518SOL    HW211525   2.811   2.873   5.239  0.0050  0.6876  0.4587
 3519SOL     OW11526   4.755   2.760   4.305 -0.0199  0.1708 -0.4187
 3519SOL    HW111527   4.684   2.696   4.295  0.4551 -0.3214 -0.6658
 3519SOL    HW211528   4.774   2.788   4.216  1.4956 -1.2473 -0.5861
 3520SOL     OW11529   2.644   3.515   6.217 -0.2252 -0.1229 -0.7724
 3520SOL    HW111530   2.628   3.591   6.162 -0.3127 -0.8265 -1.7293
 3520SOL    HW211531   2.557   3.486   6.245 -0.1041  1.7177  1.8493
 3521SOL     OW11532   4.010   0.335   3.154  0.6292  0.0590 -0.9105
 3521SOL    HW111533   3.963   0.256   3.180  1.3759 -0.1929 -0.2935
 3521SOL    HW211534   4.075   0.349   3.223  1.2453  0.5827 -1.5749
 3522SOL     OW11535   5.454   7.081   5.130 -0.4421  0.3496  0.2865
 3522SOL    HW111536   5.544   7.060   5.105 -0.8395  0.0973 -0.9870
 3522SOL    HW211537   5.447   7.051   5.221  0.9194  0.8975  0.5919
 3523SOL     OW11538   6.296   2.197   0.374 -0.4027  0.4824  0.0486
 3523SOL    HW111539   6.208   2.170   0.347 -0.6716 -0.0818  1.3761
 3523SOL    HW211540   6.344   2.210   0.293 -1.5133  0.0950 -0.6860
 3524SOL     OW11541   6.543   6.322   3.060  0.1558  0.8032 -0.5912
 3524SOL    HW111542   6.625   6.305   3.106 -0.1629 -2.2953 -0.9550
 3524SOL    HW211543   6.477   6.323   3.129  0.0899 -0.3231 -0.6304
 3525SOL     OW11544   1.487   2.577   4.524 -0.3919 -0.3152 -0.0289
 3525SOL    HW111545   1.414   2.529   4.563 -0.7735 -0.6538 -1.1277
 3525SOL    HW211546   1.445   2.643   4.469  0.1259  1.1808  1.2923
 3526SOL     OW11547   0.799   2.579   5.761  0.3255  0.3843 -0.3466
 3526SOL    HW111548   0.835   2.654   5.808 -0.5544  0.9755 -0.5746
 3526SOL    HW211549   0.708   2.573   5.792 -0.4613  1.1374 -2.3162
 3527SOL     OW11550   0.627   4.927   2.812 -0.8997 -0.2546  0.4832
 3527SOL    HW111551   0.647   4.961   2.899 -1.2986 -2.9287  1.7438
 3527SOL    HW211552   0.695   4.962   2.756 -0.7006  1.6515  1.8265
 3528SOL     OW11553   1.476   6.989   1.196  0.1142 -0.1888  0.3241
 3528SOL    HW111554   1.511   6.927   1.132  0.5446  0.0593  0.3162
 3528SOL    HW211555   1.455   7.067   1.145 -1.0771 -0.5551  0.2152
 3529SOL     OW11556   5.799   5.554   6.803  0.2324  0.2237  0.0760
 3529SOL    HW111557   5.875   5.498   6.785  0.2027  0.7009 -1.6887
 3529SOL    HW211558   5.729   5.492   6.827  0.9636 -0.2665  0.9971
 3530SOL     OW11559   3.633   0.474   6.242 -0.2451  0.0993  0.1498
 3530SOL    HW111560   3.699   0.543   6.241  0.4429 -0.5101  1.3219
 3530SOL    HW211561   3.661   0.412   6.175  0.0630  0.1229  0.2576
 3531SOL     OW11562   1.074   6.077   6.483  0.0269 -0.4897  0.2042
 3531SOL    HW111563   1.089   5.997   6.534 -1.9313 -1.7871 -1.1035
 3531SOL    HW211564   1.028   6.135   6.542  0.3926 -0.7934  0.8003
 3532SOL     OW11565   2.418   7.271   6.409  0.5054  0.0165  0.5597
 3532SOL    HW111566   2.446   7.271   6.501  2.3239  0.8419  0.0516
 3532SOL    HW211567   2.495   7.243   6.361 -0.0937  0.6319 -0.7993
 3533SOL     OW11568   5.237   1.627   2.004  0.0944 -0.4634  0.2578
 3533SOL    HW111569   5.143   1.640   2.019 -0.0457 -0.6890 -0.3878
 3533SOL    HW211570   5.253   1.665   1.918  0.5397 -0.6974  0.2350
 3534SOL     OW11571   2.242   5.724   1.205  0.0396  0.0516 -0.0653
 3534SOL    HW111572   2.226   5.634   1.179  2.3849 -1.1320  2.1561
 3534SOL    HW211573   2.333   5.725   1.235  0.1616  3.2223 -0.2063
 3535SOL     OW11574   4.774   2.742   4.686 -0.7447 -0.4800  0.3108
 3535SOL    HW111575   4.746   2.726   4.776  1.0501 -0.9414  0.8141
 3535SOL    HW211576   4.773   2.656   4.645 -3.8463 -0.0158 -0.8874
 3536SOL     OW11577   3.391   2.827   1.220 -0.0219  0.1557  0.1848
 3536SOL    HW111578   3.371   2.910   1.263 -0.3748  0.6293 -0.8831
 3536SOL    HW211579   3.484   2.812   1.240 -0.4491 -0.2544  2.1121
 3537SOL     OW11580   4.475   2.328   7.310 -0.3803 -0.1617 -0.4442
 3537SOL    HW111581   4.385   2.344   7.281 -0.2628  0.9438 -0.2428
 3537SOL    HW211582   4.504   2.412   7.344  0.3516 -0.7999  0.5518
 3538SOL     OW11583   2.760   6.444   4.630 -0.0043  0.0134  0.4300
 3538SOL    HW111584   2.831   6.459   4.568 -0.8583  0.3492 -0.4945
 3538SOL    HW211585   2.684   6.487   4.591 -0.8026 -0.6250  1.2238
 3539SOL     OW11586   5.008   3.176   6.211  0.0716  0.3449  0.1433
 3539SOL    HW111587   5.045   3.161   6.123  2.6700 -0.3569  1.2435
 3539SOL    HW211588   4.967   3.093   6.234  2.2148 -0.6114  0.7704
 3540SOL     OW11589   6.966   3.063   5.161 -0.7475  0.5655  0.6464
 3540SOL    HW111590   6.971   2.972   5.133  0.7015  1.2418 -1.6097
 3540SOL    HW211591   6.874   3.086   5.154 -1.0338 -0.5545  0.6070
 3541SOL     OW11592   5.692   7.103   5.868 -0.0173  0.2044 -0.0132
 3541SOL    HW111593   5.695   7.030   5.930 -2.0877  0.0226 -0.0368
 3541SOL    HW211594   5.732   7.176   5.916 -0.9364 -0.1147  1.3269
 3542SOL     OW11595   0.231   3.967   0.183 -0.2432  0.0277  0.3951
 3542SOL    HW111596   0.203   3.905   0.116  0.2094  1.1663 -0.8913
 3542SOL    HW211597   0.325   3.949   0.195 -0.4928 -0.7357  1.3770
 3543SOL     OW11598   5.336   5.776   2.296  0.3506 -0.0325 -0.2073
 3543SOL    HW111599   5.255   5.742   2.335 -0.6861  2.5148  0.0782
 3543SOL    HW211600   5.340   5.734   2.210 -2.5719  1.4047 -1.1953
 3544SOL     OW11601   7.087   6.329   3.611  0.1249  0.0005  0.3303
 3544SOL    HW111602   7.109   6.252   3.558  1.2916  0.4844  0.0868
 3544SOL    HW211603   7.123   6.403   3.562 -1.0752  0.7284  0.5160
 3545SOL     OW11604   0.345   4.415   2.039  0.0398 -0.0411 -0.1138
 3545SOL    HW111605   0.269   4.397   2.095  0.4621  0.0279  0.4872
 3545SOL    HW211606   0.316   4.488   1.983 -1.3438 -1.8409 -1.9023
 3546SOL     OW11607   3.215   0.399   0.615  0.3132 -0.5888 -0.9269
 3546SOL    HW111608   3.151   0.396   0.686 -0.4681 -0.6773 -1.6139
 3546SOL    HW211609   3.273   0.325   0.632 -1.0372 -1.8265 -1.4319
 3547SOL     OW11610   4.145   4.121   3.846  0.5678  0.9035  0.1555
 3547SOL    HW111611   4.214   4.089   3.789  0.2536  2.0306 -0.9019
 3547SOL    HW211612   4.138   4.214   3.825 -3.3858  0.3311 -2.1579
 3548SOL     OW11613   1.697   4.541   4.094 -0.5587 -0.3234 -0.7628
 3548SOL    HW111614   1.756   4.594   4.147 -1.8589  0.7339 -0.3000
 3548SOL    HW211615   1.623   4.599   4.076 -1.5587 -1.6563 -1.1414
 3549SOL     OW11616   4.604   2.304   4.001  0.2590 -0.5524  0.0378
 3549SOL    HW111617   4.595   2.320   3.907  1.3848  2.1837  0.3013
 3549SOL    HW211618   4.583   2.388   4.041 -0.2331 -1.6854  2.2561
 3550SOL     OW11619   1.743   4.444   2.048  0.0196  0.3774  0.2227
 3550SOL    HW111620   1.733   4.351   2.027  2.7587  0.1031 -0.3099
 3550SOL    HW211621   1.734   4.449   2.143  0.4821 -0.5560  0.3209
 3551SOL     OW11622   4.768   5.522   0.682 -0.6327  0.6684 -0.6075
 3551SOL    HW111623   4.819   5.604   0.682  1.6688 -0.5875  2.0729
 3551SOL    HW211624   4.825   5.459   0.637 -0.4171 -0.4062  1.0939
 3552SOL     OW11625   2.652   2.798   5.989  0.2751  0.2647  0.4259
 3552SOL    HW111626   2.601   2.731   5.942 -0.2709  0.7186  0.3578
 3552SOL    HW211627   2.600   2.877   5.980  1.4675  0.9796 -0.4705
 3553SOL     OW11628   1.489   3.278   6.547 -0.3730  0.4560 -0.5748
 3553SOL    HW111629   1.443   3.337   6.488  2.3150  1.2627 -2.0350
 3553SOL    HW211630   1.549   3.335   6.596 -0.2210 -0.6346  0.5633
 3554SOL     OW11631   0.128   6.780   4.855  0.5410  0.1539  0.3005
 3554SOL    HW111632   0.204   6.785   4.797  0.2234  0.3456 -0.1064
 3554SOL    HW211633   0.101   6.689   4.850  0.9790 -0.0056  0.7567
 3555SOL     OW11634   1.289   6.643   6.329 -0.1342  0.0437  0.1389
 3555SOL    HW111635   1.236   6.697   6.389 -0.8596  0.4079 -0.8134
 3555SOL    HW211636   1.341   6.706   6.280  0.9129 -0.2918  0.7730
 3556SOL     OW11637   6.345   0.402   4.826 -0.0466 -0.3806 -0.0526
 3556SOL    HW111638   6.388   0.420   4.743 -0.0421  1.3211  0.2791
 3556SOL    HW211639   6.370   0.312   4.848  0.3768 -0.6677 -1.6154
 3557SOL     OW11640   3.164   6.668   1.945 -0.4211 -0.0166 -0.2181
 3557SOL    HW111641   3.236   6.676   2.008  0.2164  0.9034 -1.0422
 3557SOL    HW211642   3.207   6.654   1.861 -1.0666  2.9361 -1.1356
 3558SOL     OW11643   0.208   7.072   4.554 -0.2677 -0.1719 -0.0628
 3558SOL    HW111644   0.177   7.004   4.494  0.6081  1.0019 -1.9411
 3558SOL    HW211645   0.255   7.024   4.622  0.0821 -1.4800 -1.1670
 3559SOL     OW11646   3.514   0.569   0.435  0.2945 -0.1934 -0.1133
 3559SOL    HW111647   3.421   0.566   0.413  0.4674 -2.2530 -0.7741
 3559SOL    HW211648   3.559   0.579   0.351  0.6854  1.2766  0.2428
 3560SOL     OW11649   5.579   2.883   6.634 -0.1350 -0.2203 -0.4592
 3560SOL    HW111650   5.521   2.875   6.558 -0.2070  0.1772 -0.4445
 3560SOL    HW211651   5.534   2.943   6.693  0.4228  0.3263 -0.5788
 3561SOL     OW11652   3.132   2.521   6.296 -0.6253 -0.0691 -0.1288
 3561SOL    HW111653   3.132   2.576   6.217  0.3121 -0.7803 -0.6463
 3561SOL    HW211654   3.215   2.542   6.339 -0.3177 -0.9742 -0.2668
 3562SOL     OW11655   2.134   2.838   1.752  0.1139 -0.5263  0.3413
 3562SOL    HW111656   2.071   2.888   1.805  0.1320 -1.4787  1.2996
 3562SOL    HW211657   2.171   2.903   1.692 -0.2293  0.5085  1.2014
 3563SOL     OW11658   1.298   4.899   2.016  0.1836 -0.3827 -0.0198
 3563SOL    HW111659   1.303   4.820   1.961  1.2509  2.0228 -3.7601
 3563SOL    HW211660   1.390   4.921   2.034 -0.1091  0.0398  1.0038
 3564SOL     OW11661   7.118   0.679   6.700 -0.5592 -0.2053  0.1283
 3564SOL    HW111662   7.175   0.750   6.669 -2.8378  0.6008 -2.6653
 3564SOL    HW211663   7.176   0.603   6.705  0.9681  0.7378 -1.7456
 3565SOL     OW11664   5.255   6.603   4.169  0.0929 -0.2509 -0.0994
 3565SOL    HW111665   5.326   6.571   4.225  0.3347  0.1385 -0.1792
 3565SOL    HW211666   5.243   6.694   4.196 -0.3106 -0.2893 -0.1532
 3566SOL     OW11667   3.407   7.227   6.085 -0.6215  0.0548  0.4895
 3566SOL    HW111668   3.425   7.197   6.174 -1.2851  0.7059  0.8599
 3566SOL    HW211669   3.311   7.237   6.082 -0.4272  3.8299  1.0244
 3567SOL     OW11670   2.301   4.875   6.691  0.0949  0.2663  0.3613
 3567SOL    HW111671   2.340   4.929   6.622  0.3747  0.0454  0.3450
 3567SOL    HW211672   2.219   4.919   6.712  0.1096  0.4535  0.0365
 3568SOL     OW11673   7.305   0.925   6.152 -0.1646 -0.1670  0.3480
 3568SOL    HW111674   7.377   0.875   6.191  0.0496  1.0898  1.6127
 3568SOL    HW211675   7.240   0.858   6.129  1.0111 -1.2355  0.0030
 3569SOL     OW11676   4.062   2.938   6.180  0.1334  0.1648  0.0627
 3569SOL    HW111677   4.002   2.912   6.251 -0.4574  3.1848  0.8045
 3569SOL    HW211678   4.011   2.928   6.100  0.3750 -2.0072  0.1000
 3570SOL     OW11679   3.190   0.299   1.060 -0.1091 -0.0703  0.3846
 3570SOL    HW111680   3.193   0.242   0.983  1.6069  1.3522 -0.7021
 3570SOL    HW211681   3.099   0.326   1.067 -0.6196 -1.6023 -0.0816
 3571SOL     OW11682   2.462   0.364   7.118  0.1284  0.0956 -0.1921
 3571SOL    HW111683   2.492   0.413   7.042 -0.5681  1.1348  0.1758
 3571SOL    HW211684   2.423   0.430   7.175 -0.4760 -0.8349  0.5067
 3572SOL     OW11685   4.021   2.073   0.588  0.4066  0.5495 -0.3267
 3572SOL    HW111686   4.069   2.025   0.521 -1.7892 -1.3647 -0.6660
 3572SOL    HW211687   4.004   2.159   0.549  1.0957  0.2635 -1.2937
 3573SOL     OW11688   2.529   0.935   0.011 -0.0269  0.2971 -0.4786
 3573SOL    HW111689   2.580   1.016   0.017  1.3775 -0.6297  0.6682
 3573SOL    HW211690   2.593   0.866   0.027 -1.6389 -0.9253  1.0116
 3574SOL     OW11691   4.455   5.288   1.827 -0.1019  0.1294 -0.0271
 3574SOL    HW111692   4.473   5.216   1.887 -0.8237  0.5445  0.7058
 3574SOL    HW211693   4.540   5.332   1.817  0.3643 -0.8507 -0.5531
 3575SOL     OW11694   3.320   4.322   4.443  0.2968 -0.3909 -0.2092
 3575SOL    HW111695   3.377   4.397   4.459  1.3837 -1.3021  0.3635
 3575SOL    HW211696   3.251   4.329   4.508  1.1425 -0.5941  0.7300
 3576SOL     OW11697   0.146   1.351   0.124  0.0394 -0.1069 -0.3724
 3576SOL    HW111698   0.098   1.274   0.092  0.0513 -0.7679  1.0923
 3576SOL    HW211699   0.083   1.397   0.179 -0.1531  1.2960 -1.7212
 3577SOL     OW11700   2.867   3.875   6.609  0.1184  0.2167 -0.2463
 3577SOL    HW111701   2.844   3.870   6.516  1.7559 -0.2941 -0.6575
 3577SOL    HW211702   2.783   3.887   6.654 -0.8781 -1.0001 -1.6761
 3578SOL     OW11703   1.357   6.758   3.556  0.2253  0.4222 -0.1554
 3578SOL    HW111704   1.425   6.697   3.527  0.2074  0.6021 -0.5768
 3578SOL    HW211705   1.406   6.832   3.593  0.3875  1.9045 -3.0641
 3579SOL     OW11706   3.057   1.858   6.492 -0.7410  0.1141 -0.1405
 3579SOL    HW111707   3.115   1.787   6.468  0.3275  0.8397  0.2349
 3579SOL    HW211708   2.969   1.824   6.475 -0.2028 -0.8825 -1.0103
 3580SOL     OW11709   1.454   7.093   0.622  0.4214  0.2452  0.5014
 3580SOL    HW111710   1.481   7.152   0.693  0.8607  0.8405 -0.1448
 3580SOL    HW211711   1.446   7.150   0.546  0.9949 -0.5541 -0.1759
 3581SOL     OW11712   7.235   3.149   1.638 -0.0632 -0.4911 -0.5588
 3581SOL    HW111713   7.238   3.111   1.725 -0.6870 -2.0059 -1.1580
 3581SOL    HW211714   7.256   3.077   1.579  1.8012  0.8246 -1.6195
 3582SOL     OW11715   1.108   6.861   2.678 -0.1923 -0.1702  0.2906
 3582SOL    HW111716   1.086   6.943   2.722  0.1698 -0.9458  2.0178
 3582SOL    HW211717   1.173   6.820   2.735 -0.0909 -1.4966 -0.7163
 3583SOL     OW11718   5.590   0.997   7.004  0.3608 -0.0534 -0.6740
 3583SOL    HW111719   5.502   0.976   6.974  0.0616 -1.0869  0.8378
 3583SOL    HW211720   5.642   0.919   6.984  0.7146  0.1853 -0.6967
 3584SOL     OW11721   3.701   4.009   3.768 -0.2476  0.0732 -0.2284
 3584SOL    HW111722   3.662   3.984   3.684 -0.4849 -0.4748  0.0329
 3584SOL    HW211723   3.744   3.929   3.799 -0.9421  0.0024  0.5922
 3585SOL     OW11724   2.332   0.164   0.739  0.0557  0.2924  0.3286
 3585SOL    HW111725   2.254   0.146   0.792 -0.6116  1.3673 -0.2529
 3585SOL    HW211726   2.319   0.114   0.659  0.2422  0.0329  0.4569
 3586SOL     OW11727   0.220   0.765   3.103 -0.3138  0.4071  0.6185
 3586SOL    HW111728   0.233   0.786   3.011  1.4742  0.4821  0.8607
 3586SOL    HW211729   0.306   0.739   3.135 -1.1139 -0.7171  2.0098
 3587SOL     OW11730   2.637   2.456   1.612  0.1012 -0.8160 -0.2870
 3587SOL    HW111731   2.556   2.419   1.647 -0.7003 -0.3819 -1.6403
 3587SOL    HW211732   2.696   2.459   1.688 -0.8702 -1.8671  0.5466
 3588SOL     OW11733   6.511   6.624   5.765 -0.5450 -0.1056 -0.6852
 3588SOL    HW111734   6.501   6.583   5.851  2.4136  0.7687  0.1973
 3588SOL    HW211735   6.525   6.551   5.704 -0.8919 -0.6474 -0.1196
 3589SOL     OW11736   4.818   0.328   4.062 -0.5628  0.0227  0.4421
 3589SOL    HW111737   4.761   0.263   4.104 -0.5685  1.3116  2.5558
 3589SOL    HW211738   4.889   0.341   4.125 -0.2380  1.6105 -0.2214
 3590SOL     OW11739   1.429   3.405   2.608  0.2000  0.1022  0.8366
 3590SOL    HW111740   1.378   3.335   2.566 -0.5203  0.3640  1.2604
 3590SOL    HW211741   1.463   3.457   2.535 -2.2628  1.4276  0.5522
 3591SOL     OW11742   7.308   0.617   3.708  0.0921  0.4585 -0.3185
 3591SOL    HW111743   7.232   0.651   3.755 -0.0309  1.3656 -1.1581
 3591SOL    HW211744   7.272   0.553   3.647 -0.0612  1.2260 -1.0431
 3592SOL     OW11745   1.446   7.127   5.231 -0.0301  0.3032  0.1127
 3592SOL    HW111746   1.359   7.091   5.252  0.7625 -0.3347  2.6735
 3592SOL    HW211747   1.485   7.061   5.174 -0.6299 -0.2303  0.2974
 3593SOL     OW11748   7.192   5.169   0.416 -0.0837  0.4648  0.0694
 3593SOL    HW111749   7.154   5.184   0.329 -2.1099  0.0555  0.8399
 3593SOL    HW211750   7.223   5.079   0.413  2.7653  1.3554 -1.1907
 3594SOL     OW11751   1.300   3.839   0.614 -0.2292 -0.4497 -0.0252
 3594SOL    HW111752   1.344   3.802   0.691 -0.8662 -0.5369  0.3037
 3594SOL    HW211753   1.337   3.792   0.540  0.3795 -0.3799  0.2310
 3595SOL     OW11754   0.656   5.822   0.148 -0.2952  0.0574  0.0808
 3595SOL    HW111755   0.669   5.728   0.152  3.2193  0.3990  0.0316
 3595SOL    HW211756   0.591   5.835   0.079 -2.3980 -2.3336  1.4540
 3596SOL     OW11757   4.377   5.859   5.224  0.5191 -0.0696  0.3950
 3596SOL    HW111758   4.353   5.865   5.316  1.2777 -1.4419  0.7042
 3596SOL    HW211759   4.407   5.947   5.201 -1.7430  0.8860  0.8188
 3597SOL     OW11760   0.439   2.568   2.145 -0.4642 -0.7334  0.2619
 3597SOL    HW111761   0.364   2.510   2.161 -0.0294 -1.9133 -1.6984
 3597SOL    HW211762   0.500   2.515   2.094 -0.2466  1.5378 -2.0572
 3598SOL     OW11763   4.250   2.091   5.655 -0.8146  0.6892 -0.0737
 3598SOL    HW111764   4.328   2.101   5.709 -0.5881 -0.0433 -0.2447
 3598SOL    HW211765   4.181   2.066   5.716 -0.4894 -0.4417 -0.1334
 3599SOL     OW11766   6.213   3.616   1.491 -0.6470 -0.1835 -0.3843
 3599SOL    HW111767   6.209   3.648   1.581 -2.7873  0.9917 -0.8264
 3599SOL    HW211768   6.293   3.563   1.488  0.2703  0.9441  1.7875
 3600SOL     OW11769   6.233   1.299   5.229  0.7417  0.1240  0.3227
 3600SOL    HW111770   6.323   1.319   5.252  0.6834  0.1563  0.5294
 3600SOL    HW211771   6.231   1.299   5.133  0.6244  1.6097  0.3021
 3601SOL     OW11772   0.930   5.975   6.072  0.0253 -0.3780  0.1751
 3601SOL    HW111773   0.995   6.045   6.079  0.1778 -0.4485 -0.4995
 3601SOL    HW211774   0.910   5.953   6.163  0.0339  0.4827  0.4010
 3602SOL     OW11775   1.839   6.158   0.716  0.4636 -0.0603 -0.2002
 3602SOL    HW111776   1.865   6.096   0.785 -1.4154 -0.5324  0.1491
 3602SOL    HW211777   1.892   6.235   0.732  0.6560 -0.4624  1.3008
 3603SOL     OW11778   6.535   0.473   7.270 -0.3110  0.4982 -0.2526
 3603SOL    HW111779   6.456   0.507   7.311 -0.0970  0.0630  0.5615
 3603SOL    HW211780   6.606   0.527   7.306  0.2934 -2.0024  2.7285
 3604SOL     OW11781   3.828   5.783   4.351  0.1530  0.0034  0.2505
 3604SOL    HW111782   3.775   5.773   4.271 -1.1349  0.4920  1.0170
 3604SOL    HW211783   3.917   5.795   4.319 -0.3056 -0.0588 -1.1169
 3605SOL     OW11784   3.784   3.249   4.635  0.2199 -0.2671 -0.0261
 3605SOL    HW111785   3.811   3.160   4.657 -1.2947 -0.7580 -0.0579
 3605SOL    HW211786   3.724   3.275   4.705  0.0181  0.4209 -0.4345
 3606SOL     OW11787   3.586   6.114   6.307  0.5727  0.3951 -0.1279
 3606SOL    HW111788   3.629   6.171   6.371 -1.3796  0.0760  1.5683
 3606SOL    HW211789   3.559   6.173   6.236  0.0503  1.3277  0.8210
 3607SOL     OW11790   0.506   2.908   7.362  0.3060  0.2541 -0.7570
 3607SOL    HW111791   0.420   2.890   7.326 -0.3538  0.1522  0.7924
 3607SOL    HW211792   0.563   2.918   7.286 -0.9208 -0.3987 -1.7848
 3608SOL     OW11793   4.502   2.794   7.246 -0.4077  0.3475  0.3563
 3608SOL    HW111794   4.553   2.849   7.305  1.6568  0.1416 -1.1177
 3608SOL    HW211795   4.447   2.855   7.197 -0.3322  0.7652  0.7835
 3609SOL     OW11796   4.473   5.537   2.379  0.1505 -0.0861  0.0282
 3609SOL    HW111797   4.428   5.544   2.464 -1.1917 -0.7834 -0.5870
 3609SOL    HW211798   4.497   5.627   2.357  0.2815  0.1337  1.0191
 3610SOL     OW11799   1.982   5.060   5.869 -0.3923  0.7659 -0.0034
 3610SOL    HW111800   1.958   4.993   5.933 -1.2614  0.7544 -0.3332
 3610SOL    HW211801   1.899   5.103   5.847 -0.2258  0.2691 -1.7015
 3611SOL     OW11802   6.310   3.721   0.222  0.7710  0.1036 -0.4942
 3611SOL    HW111803   6.348   3.793   0.273 -0.0526 -0.4628  0.9876
 3611SOL    HW211804   6.384   3.663   0.204  0.9961 -0.0072  0.6630
 3612SOL     OW11805   0.762   2.345   4.120 -0.7503 -0.0459 -0.0560
 3612SOL    HW111806   0.777   2.440   4.120  0.0467 -0.1403  1.4537
 3612SOL    HW211807   0.842   2.308   4.157 -1.8847 -1.1405  1.4491
 3613SOL     OW11808   4.315   4.688   1.181  1.1560 -0.0539 -0.4811
 3613SOL    HW111809   4.233   4.734   1.163 -0.1445 -1.6478  0.9997
 3613SOL    HW211810   4.371   4.709   1.107 -0.5296  1.2088 -1.4724
 3614SOL     OW11811   6.328   2.883   0.237  0.1627 -0.4874 -0.4500
 3614SOL    HW111812   6.262   2.852   0.299  0.0183  1.7748  0.6382
 3614SOL    HW211813   6.407   2.894   0.290  0.4511  0.0631 -0.9815
 3615SOL     OW11814   6.833   5.844   7.375 -0.3584 -0.2035  0.2862
 3615SOL    HW111815   6.840   5.929   7.419 -0.4827  0.1571 -0.3867
 3615SOL    HW211816   6.831   5.865   7.282 -1.3314 -0.8789  0.1398
 3616SOL     OW11817   0.592   2.985   7.126 -0.1108  0.0164 -0.6974
 3616SOL    HW111818   0.632   2.899   7.117  0.9928  0.4254  0.0764
 3616SOL    HW211819   0.660   3.046   7.097 -0.0122  0.7503  0.9474
 3617SOL     OW11820   5.960   1.158   2.037 -0.7066 -0.0688 -0.0060
 3617SOL    HW111821   6.027   1.219   2.007 -1.4158  0.3664 -0.7416
 3617SOL    HW211822   5.877   1.201   2.017 -1.2346 -0.0741  1.9458
 3618SOL     OW11823   6.795   6.291   1.223 -0.3091  0.4989  0.4050
 3618SOL    HW111824   6.837   6.310   1.306 -1.3972 -1.0201  1.3551
 3618SOL    HW211825   6.862   6.247   1.170 -0.0885 -0.0178  1.1070
 3619SOL     OW11826   2.681   4.866   0.684  0.1931 -0.0923 -0.3146
 3619SOL    HW111827   2.620   4.923   0.731 -0.4824  1.4135 -2.8306
 3619SOL    HW211828   2.727   4.925   0.623  0.5460 -1.9876 -1.9773
 3620SOL     OW11829   1.481   0.201   1.803 -1.0235 -0.1520  0.1486
 3620SOL    HW111830   1.461   0.108   1.813  1.0561 -0.5364  1.1461
 3620SOL    HW211831   1.555   0.217   1.862  0.0746  1.6395 -1.5774
 3621SOL     OW11832   0.734   2.947   0.922  0.8382  0.7840  0.2748
 3621SOL    HW111833   0.668   2.878   0.934  0.1091  0.8439 -2.6114
 3621SOL    HW211834   0.706   3.017   0.980  0.0170 -0.3051  1.2335
 3622SOL     OW11835   2.759   6.717   5.580 -0.2051 -0.6227  0.8942
 3622SOL    HW111836   2.731   6.677   5.498  0.1836  2.6043 -0.9645
 3622SOL    HW211837   2.849   6.685   5.592  0.5929  0.6001 -1.2630
 3623SOL     OW11838   2.869   0.356   1.349  0.0507 -0.0109 -0.5284
 3623SOL    HW111839   2.782   0.356   1.389  0.5889  0.2851  0.7167
 3623SOL    HW211840   2.914   0.283   1.391  0.5083  0.0483 -0.9131
 3624SOL     OW11841   6.731   2.850   2.165 -0.5502 -0.0690 -0.4269
 3624SOL    HW111842   6.659   2.789   2.151 -0.1730 -1.0271  1.5249
 3624SOL    HW211843   6.764   2.868   2.077 -1.5665 -1.5850 -1.1630
 3625SOL     OW11844   0.634   5.851   4.386 -0.6635  0.3058 -0.3603
 3625SOL    HW111845   0.563   5.915   4.394 -0.2454  0.5758  1.7024
 3625SOL    HW211846   0.706   5.899   4.346 -1.1376  0.4230 -1.1042
 3626SOL     OW11847   1.116   1.692   1.312  0.4611 -0.4666 -0.4055
 3626SOL    HW111848   1.068   1.613   1.336 -0.1757 -0.3516 -1.2507
 3626SOL    HW211849   1.072   1.723   1.233  0.1750  1.2066  0.3917
 3627SOL     OW11850   2.567   1.614   6.943 -0.0819 -0.2371  0.1355
 3627SOL    HW111851   2.557   1.585   6.852  0.8662  1.0991 -0.4312
 3627SOL    HW211852   2.628   1.688   6.938  0.1674 -0.2825  1.8967
 3628SOL     OW11853   5.260   0.555   5.302  0.2717  0.0948  0.6183
 3628SOL    HW111854   5.213   0.493   5.246  0.9696 -1.7264  1.9493
 3628SOL    HW211855   5.235   0.641   5.269 -2.2644 -0.8354 -0.1116
 3629SOL     OW11856   7.333   4.825   1.248  0.6830  0.0728 -0.5865
 3629SOL    HW111857   7.333   4.745   1.300  0.9112  0.6812  0.3719
 3629SOL    HW211858   7.343   4.794   1.157 -0.7632 -1.0594 -0.3997
 3630SOL     OW11859   2.548   2.339   4.395 -0.9864  0.7206  0.3448
 3630SOL    HW111860   2.597   2.339   4.313  2.0453 -1.5220  1.9658
 3630SOL    HW211861   2.576   2.419   4.439  1.4704 -0.5186  1.2409
 3631SOL     OW11862   0.796   3.185   1.738  0.3945  0.4419  0.6788
 3631SOL    HW111863   0.858   3.144   1.677 -0.2148 -1.0751  1.0316
 3631SOL    HW211864   0.809   3.279   1.725  0.4384  0.1874 -1.6351
 3632SOL     OW11865   7.296   0.856   1.738 -0.1625 -0.0752 -0.4059
 3632SOL    HW111866   7.242   0.929   1.708 -1.9501 -0.8145  0.8245
 3632SOL    HW211867   7.264   0.781   1.689 -2.4673 -1.1128  2.3681
 3633SOL     OW11868   5.947   7.378   0.395  0.2403  0.1196 -0.6118
 3633SOL    HW111869   6.029   7.426   0.379  0.3448 -0.1310 -0.8370
 3633SOL    HW211870   5.933   7.385   0.489  0.0062  1.0012 -0.7048
 3634SOL     OW11871   0.652   6.501   6.390  0.0093 -0.0263  0.8434
 3634SOL    HW111872   0.595   6.573   6.361  0.9278 -0.8083 -3.5818
 3634SOL    HW211873   0.741   6.535   6.378  0.4454 -1.2323  0.5900
 3635SOL     OW11874   2.864   5.283   2.344  0.0249 -0.2032 -0.1245
 3635SOL    HW111875   2.935   5.255   2.401 -0.9370 -1.6067  0.4346
 3635SOL    HW211876   2.905   5.348   2.286  1.7374 -0.9287  0.1978
 3636SOL     OW11877   5.792   3.389   4.747  0.0253 -0.1904  0.0647
 3636SOL    HW111878   5.771   3.434   4.665 -0.8912 -0.4787  0.1269
 3636SOL    HW211879   5.708   3.380   4.792  0.6119  0.6435  1.3948
 3637SOL     OW11880   3.016   7.302   3.586 -0.2715 -0.5673  0.0537
 3637SOL    HW111881   3.022   7.286   3.680  2.0541 -0.5835 -0.0423
 3637SOL    HW211882   2.929   7.338   3.574 -1.0034 -1.4841  2.0632
 3638SOL     OW11883   0.243   1.990   4.329  0.0165  0.3378 -0.2108
 3638SOL    HW111884   0.331   1.952   4.328  0.6598  1.6646  1.3096
 3638SOL    HW211885   0.228   2.012   4.421 -1.2895  1.5364 -0.6842
 3639SOL     OW11886   0.171   4.420   7.345 -0.0836  0.8155 -0.4968
 3639SOL    HW111887   0.247   4.364   7.360  1.1323  2.2562 -1.0299
 3639SOL    HW211888   0.143   4.398   7.256 -1.6818 -1.2336  0.4183
 3640SOL     OW11889   3.919   3.809   0.660 -0.1786 -0.7124 -0.1549
 3640SOL    HW111890   3.895   3.895   0.626 -0.0504 -0.4437  0.4073
 3640SOL    HW211891   3.900   3.815   0.754 -0.4603 -1.4031 -0.1653
 3641SOL     OW11892   3.939   1.216   0.786 -0.4032 -0.7384  0.3997
 3641SOL    HW111893   3.930   1.240   0.878 -1.4601  0.1006  0.1013
 3641SOL    HW211894   3.941   1.300   0.740  1.7651 -1.0787 -0.2363
 3642SOL     OW11895   1.227   4.242   3.605 -0.3748  0.2310 -0.8241
 3642SOL    HW111896   1.157   4.307   3.615  1.6864  2.3453  0.6555
 3642SOL    HW211897   1.271   4.267   3.523  0.7002  1.0709 -0.0241
 3643SOL     OW11898   6.756   6.283   2.150  0.1484 -0.2165 -0.4435
 3643SOL    HW111899   6.743   6.334   2.230  3.4242  0.4354 -0.2028
 3643SOL    HW211900   6.708   6.332   2.083 -0.5921  0.6161  0.6577
 3644SOL     OW11901   7.176   4.324   7.084 -0.5910 -0.3345  0.5548
 3644SOL    HW111902   7.095   4.280   7.058 -0.5095 -1.2317  1.7415
 3644SOL    HW211903   7.151   4.415   7.100 -1.3717 -0.6055  0.8915
 3645SOL     OW11904   5.746   4.678   0.566 -0.0318 -1.1020  0.6562
 3645SOL    HW111905   5.756   4.635   0.481  1.7039 -0.9734  0.7660
 3645SOL    HW211906   5.821   4.649   0.617  0.7092  1.2759  1.0580
 3646SOL     OW11907   6.622   3.469   0.906 -0.1391 -0.4519 -0.0762
 3646SOL    HW111908   6.681   3.424   0.966  0.8972  1.4559  0.4226
 3646SOL    HW211909   6.544   3.487   0.959  1.1770  2.1681  1.1858
 3647SOL     OW11910   2.942   3.329   5.021  0.2255  0.2196  1.2985
 3647SOL    HW111911   2.986   3.251   4.985  0.2122  0.2793  1.1501
 3647SOL    HW211912   2.881   3.354   4.952 -1.4256 -0.9934  2.2440
 3648SOL     OW11913   6.460   0.535   0.342 -0.4790  0.0919 -0.1738
 3648SOL    HW111914   6.426   0.476   0.275 -0.4916 -0.9414  0.7256
 3648SOL    HW211915   6.407   0.517   0.420 -0.1644  0.9565  0.2596
 3649SOL     OW11916   4.478   5.095   7.324  1.0841 -0.3786 -0.1414
 3649SOL    HW111917   4.468   5.001   7.315  1.7464 -0.4455 -0.2745
 3649SOL    HW211918   4.518   5.107   7.410 -3.1869  0.1137  2.0140
 3650SOL     OW11919   7.301   1.294   0.666 -0.1470 -0.0009  0.4259
 3650SOL    HW111920   7.289   1.247   0.583 -0.4948  1.4011 -0.3393
 3650SOL    HW211921   7.283   1.385   0.646  0.3989  0.4768  1.9145
 3651SOL     OW11922   0.288   5.883   2.509  0.3330  0.0935 -0.1663
 3651SOL    HW111923   0.254   5.970   2.528  0.0165 -0.1165  0.2700
 3651SOL    HW211924   0.379   5.885   2.539  0.4694  0.4133 -0.5933
 3652SOL     OW11925   6.582   2.872   2.609  0.2924  0.0460 -0.3217
 3652SOL    HW111926   6.608   2.878   2.701  0.1447  1.0086 -0.3372
 3652SOL    HW211927   6.603   2.782   2.585  1.6842  0.1877  0.2507
 3653SOL     OW11928   0.583   4.443   3.791  0.2768  0.1608  0.1528
 3653SOL    HW111929   0.603   4.462   3.699  0.2626  0.8318  0.2874
 3653SOL    HW211930   0.646   4.494   3.840 -0.3261  0.5432  0.5389
 3654SOL     OW11931   7.171   7.148   2.322  0.2485  0.1285  0.0613
 3654SOL    HW111932   7.184   7.172   2.230 -1.2353 -0.1872 -0.2540
 3654SOL    HW211933   7.079   7.121   2.327  0.6910 -1.2905  1.3173
 3655SOL     OW11934   7.076   5.485   7.360 -0.5775  0.3132  0.2755
 3655SOL    HW111935   7.103   5.558   7.416 -0.2172  0.0091  0.5026
 3655SOL    HW211936   6.982   5.501   7.345 -1.3059 -0.8534  2.9406
 3656SOL     OW11937   1.995   5.818   1.283 -0.3123  0.0630 -0.1192
 3656SOL    HW111938   1.989   5.911   1.258 -0.8598  0.1550  0.3328
 3656SOL    HW211939   2.087   5.795   1.267 -0.1830  0.6724 -0.2839
 3657SOL     OW11940   1.229   0.973   4.730  0.0787 -0.5659 -0.3551
 3657SOL    HW111941   1.142   0.935   4.716  0.3399 -0.9882 -0.8812
 3657SOL    HW211942   1.281   0.941   4.656  0.5697  0.0231 -0.2680
 3658SOL     OW11943   5.147   1.184   5.589 -0.2046 -0.2639 -0.0503
 3658SOL    HW111944   5.165   1.202   5.681 -0.1647 -0.0070 -0.1076
 3658SOL    HW211945   5.149   1.089   5.583 -0.5173 -0.2955  0.2775
 3659SOL     OW11946   6.056   6.726   4.241 -0.2593  0.3431 -0.0272
 3659SOL    HW111947   6.117   6.657   4.217 -2.6350 -2.5566  1.5834
 3659SOL    HW211948   6.052   6.783   4.164  0.9237 -2.0024 -1.9363
 3660SOL     OW11949   3.249   4.450   1.731 -0.0405 -0.1001  0.3347
 3660SOL    HW111950   3.165   4.449   1.686  0.4659  0.1739 -0.6471
 3660SOL    HW211951   3.285   4.536   1.713  0.3003 -0.0872  1.0430
 3661SOL     OW11952   0.848   6.117   1.463 -0.3725 -0.0205  0.4815
 3661SOL    HW111953   0.799   6.036   1.444 -1.5090  0.5828  0.7645
 3661SOL    HW211954   0.918   6.089   1.522 -1.4507 -0.6209  1.5142
 3662SOL     OW11955   4.584   3.441   2.345  0.2374  0.4088 -0.4748
 3662SOL    HW111956   4.662   3.495   2.333  1.4140 -1.4204 -1.4758
 3662SOL    HW211957   4.617   3.356   2.373 -1.4015 -0.4412 -0.9760
 3663SOL     OW11958   5.908   6.718   1.424  0.4232  1.1881 -1.0205
 3663SOL    HW111959   5.849   6.750   1.492  1.5579  2.2559 -0.4966
 3663SOL    HW211960   5.879   6.761   1.344 -1.4171 -0.6773 -1.4371
 3664SOL     OW11961   5.760   6.439   5.197 -0.1153  0.4245  0.7831
 3664SOL    HW111962   5.748   6.421   5.291  0.9983 -0.5410  0.7549
 3664SOL    HW211963   5.732   6.530   5.187  1.5477  1.1763  2.4333
 3665SOL     OW11964   4.280   1.954   0.467  0.0265 -0.3316  0.0912
 3665SOL    HW111965   4.282   2.045   0.440  1.2528 -0.8405 -1.6824
 3665SOL    HW211966   4.337   1.951   0.544  1.4851  0.1011 -0.9386
 3666SOL     OW11967   0.998   6.758   5.894  0.0611 -0.7807 -0.1386
 3666SOL    HW111968   1.037   6.758   5.807  1.3881  1.0343  0.3962
 3666SOL    HW211969   1.059   6.809   5.948 -1.7646 -0.0257  1.3395
 3667SOL     OW11970   4.463   6.956   4.665 -0.2491  0.1317 -0.1077
 3667SOL    HW111971   4.554   6.926   4.672 -0.2978 -0.8190 -2.6021
 3667SOL    HW211972   4.411   6.878   4.681 -0.5761  0.3216 -0.2408
 3668SOL     OW11973   1.156   4.392   1.730  0.1987  0.3636 -0.1671
 3668SOL    HW111974   1.096   4.351   1.668 -2.5819 -0.8887  3.0729
 3668SOL    HW211975   1.235   4.338   1.725 -1.4728 -2.2866  0.2563
 3669SOL     OW11976   2.803   7.228   0.023  0.4294 -0.0992  0.1154
 3669SOL    HW111977   2.828   7.137   0.008 -3.2361 -1.0405 -1.6136
 3669SOL    HW211978   2.730   7.224   0.084  0.4500  1.7315  0.3377
 3670SOL     OW11979   5.651   6.840   2.907  0.0063  0.4784 -0.3526
 3670SOL    HW111980   5.657   6.848   3.002 -2.1841  1.2894 -0.2064
 3670SOL    HW211981   5.701   6.914   2.873 -2.0530  2.3082  0.3566
 3671SOL     OW11982   6.149   5.554   6.399 -0.6505  0.2423 -0.6145
 3671SOL    HW111983   6.091   5.553   6.476 -0.6501 -0.4355 -0.6206
 3671SOL    HW211984   6.136   5.642   6.362 -1.0179  0.4072 -0.1200
 3672SOL     OW11985   0.160   6.399   5.529  0.5769  0.0655 -0.0127
 3672SOL    HW111986   0.177   6.308   5.506  1.7222 -0.2927  2.0043
 3672SOL    HW211987   0.247   6.440   5.532  0.5485  0.1528  3.0085
 3673SOL     OW11988   3.334   5.519   0.908 -0.5832  0.0921  0.0887
 3673SOL    HW111989   3.267   5.473   0.858  0.0950  0.5692 -1.3352
 3673SOL    HW211990   3.322   5.611   0.884 -2.0035  0.7687  2.9713
 3674SOL     OW11991   1.738   7.215   5.871  0.8996 -0.2204 -0.0760
 3674SOL    HW111992   1.745   7.290   5.811  0.4861 -0.3813 -0.3279
 3674SOL    HW211993   1.781   7.245   5.951  0.8404  0.2493 -0.2135
 3675SOL     OW11994   1.177   5.472   5.984  0.2455  1.0287 -0.2260
 3675SOL    HW111995   1.138   5.560   5.990  0.6291  1.0778  2.4242
 3675SOL    HW211996   1.199   5.449   6.074 -0.2941 -2.0262 -0.7754
 3676SOL     OW11997   0.771   0.973   2.653  0.0513 -0.2745 -0.0938
 3676SOL    HW111998   0.743   0.966   2.561  0.0785  1.1613 -0.2216
 3676SOL    HW211999   0.850   0.918   2.657 -1.1639 -2.1224 -0.3816
 3677SOL     OW12000   1.289   5.774   1.893  0.2062  0.5498 -0.2965
 3677SOL    HW112001   1.324   5.843   1.949 -0.1089 -0.9790  1.9403
 3677SOL    HW212002   1.353   5.764   1.823  0.7913  2.3297 -0.0696
 3678SOL     OW12003   1.298   0.683   0.664  0.6501 -0.2708  0.0202
 3678SOL    HW112004   1.233   0.737   0.618 -1.4846 -1.6997  1.2192
 3678SOL    HW212005   1.316   0.611   0.604 -0.1673 -0.7715  0.3760
 3679SOL     OW12006   6.150   4.691   0.173 -0.4963  0.1715  0.0147
 3679SOL    HW112007   6.146   4.596   0.171 -1.6378  0.0886  2.6147
 3679SOL    HW212008   6.212   4.714   0.103  1.1391 -2.5584  0.4241
 3680SOL     OW12009   5.341   3.662   6.016 -0.0403  0.2949 -0.8338
 3680SOL    HW112010   5.435   3.675   5.998  0.6037 -2.3717  0.0584
 3680SOL    HW212011   5.340   3.624   6.104 -1.8654 -0.9456 -1.3631
 3681SOL     OW12012   5.742   4.772   6.611 -0.3135 -0.0867 -0.2309
 3681SOL    HW112013   5.783   4.840   6.664 -0.6295  0.9387 -1.2686
 3681SOL    HW212014   5.794   4.694   6.628  0.7824  0.6929  0.0787
 3682SOL     OW12015   1.079   5.772   2.219  0.3629  0.1353  0.1999
 3682SOL    HW112016   1.123   5.778   2.304 -0.1710  1.3456  0.4186
 3682SOL    HW212017   1.106   5.852   2.173 -1.7483  1.0685  0.4471
 3683SOL     OW12018   6.332   1.471   4.543 -0.3570  0.3131  0.1986
 3683SOL    HW112019   6.291   1.553   4.572 -0.2731  0.4760 -0.1320
 3683SOL    HW212020   6.274   1.438   4.475  0.7607  1.2823 -1.2957
 3684SOL     OW12021   5.189   2.164   2.234  0.6284 -0.1487  0.2205
 3684SOL    HW112022   5.207   2.187   2.325  1.9356  2.8566 -0.6794
 3684SOL    HW212023   5.269   2.188   2.187  0.7505 -3.3957 -1.5612
 3685SOL     OW12024   2.858   7.188   3.330  0.0030 -0.5074  0.1135
 3685SOL    HW112025   2.865   7.282   3.311 -0.6480 -0.3728  0.4854
 3685SOL    HW212026   2.806   7.153   3.257  0.1542 -0.5540  0.0298
 3686SOL     OW12027   5.512   2.641   5.676  0.0632 -0.2189 -0.0372
 3686SOL    HW112028   5.475   2.728   5.678 -0.4138 -0.3772 -1.3511
 3686SOL    HW212029   5.499   2.607   5.765  0.6660  1.1923  0.6123
 3687SOL     OW12030   6.617   4.200   5.039  0.0196  0.3416  0.3481
 3687SOL    HW112031   6.592   4.291   5.051  0.4903  0.7609 -1.5243
 3687SOL    HW212032   6.669   4.200   4.958 -0.8644 -1.7422 -0.2845
 3688SOL     OW12033   7.103   3.489   6.229 -0.0845 -0.1593 -0.3907
 3688SOL    HW112034   7.074   3.427   6.297 -0.9566 -0.0593 -0.6628
 3688SOL    HW212035   7.177   3.445   6.188 -1.0209 -1.3003 -0.9484
 3689SOL     OW12036   5.678   2.225   0.403 -0.0650 -0.6242 -0.1781
 3689SOL    HW112037   5.734   2.242   0.327  0.1512 -0.1851  0.0795
 3689SOL    HW212038   5.607   2.171   0.368 -1.3249  1.5981 -1.2453
 3690SOL     OW12039   3.819   0.438   6.791 -0.2194  0.3708  0.3580
 3690SOL    HW112040   3.731   0.400   6.799  1.2358 -3.2864  0.9673
 3690SOL    HW212041   3.839   0.432   6.697  0.1524 -0.8507  0.5026
 3691SOL     OW12042   5.862   3.919   2.230  0.0883 -0.2498  0.2784
 3691SOL    HW112043   5.935   3.876   2.186  0.5823 -0.8984  1.6803
 3691SOL    HW212044   5.801   3.940   2.159  0.9213 -1.0947 -0.7344
 3692SOL     OW12045   2.349   5.214   2.142  0.2730  0.5041 -0.1133
 3692SOL    HW112046   2.433   5.215   2.187  0.4367  0.2794 -0.4082
 3692SOL    HW212047   2.366   5.261   2.060 -0.0981  1.1833  0.1859
 3693SOL     OW12048   1.994   7.223   2.339 -0.2543  0.2130  0.1732
 3693SOL    HW112049   1.983   7.285   2.411  0.5620 -1.2894  1.6583
 3693SOL    HW212050   2.086   7.228   2.316  0.2900 -1.7458  1.6279
 3694SOL     OW12051   3.826   1.173   5.095 -0.4242 -0.0653 -0.3124
 3694SOL    HW112052   3.904   1.196   5.146 -0.5177 -2.2487  0.9178
 3694SOL    HW212053   3.858   1.115   5.026 -1.0895 -2.2956  1.1656
 3695SOL     OW12054   7.202   2.178   6.929 -0.1376  0.2969 -0.2939
 3695SOL    HW112055   7.147   2.133   6.865  2.6623 -1.1627 -1.8342
 3695SOL    HW212056   7.238   2.108   6.984  1.1816  1.0380 -0.1745
 3696SOL     OW12057   6.214   7.264   3.583 -0.6756  0.3185  0.0307
 3696SOL    HW112058   6.308   7.259   3.562 -0.6027 -0.4742  0.5042
 3696SOL    HW212059   6.172   7.285   3.500 -0.0221  1.3809 -0.0489
 3697SOL     OW12060   2.678   2.486   5.090 -0.7005  0.3493  0.3132
 3697SOL    HW112061   2.616   2.510   5.021  0.5017  1.3577 -0.4568
 3697SOL    HW212062   2.668   2.391   5.100 -1.3431  0.2862 -0.8006
 3698SOL     OW12063   2.146   5.457   1.094 -0.0022 -0.0344 -0.0781
 3698SOL    HW112064   2.064   5.408   1.083  0.2372 -0.2705 -0.8734
 3698SOL    HW212065   2.214   5.397   1.063  0.7684 -0.7154  2.6405
 3699SOL     OW12066   5.651   1.508   1.767  0.1745 -0.2852 -0.1215
 3699SOL    HW112067   5.639   1.465   1.682 -1.2417  0.1382 -0.1710
 3699SOL    HW212068   5.634   1.601   1.748  1.4944  0.0681  0.3162
 3700SOL     OW12069   6.018   0.764   0.945  0.3753  0.2327 -0.1845
 3700SOL    HW112070   5.967   0.726   1.017  0.5961  2.2001  1.0870
 3700SOL    HW212071   5.997   0.708   0.869 -2.0661 -0.2563  0.7422
 3701SOL     OW12072   6.492   1.286   1.728  0.6843 -0.0434  0.2885
 3701SOL    HW112073   6.531   1.329   1.652  0.5058  0.7551  0.6383
 3701SOL    HW212074   6.401   1.269   1.702  0.5527  0.4623  0.4138
 3702SOL     OW12075   0.830   6.781   0.482 -0.3186 -0.4634  0.0400
 3702SOL    HW112076   0.878   6.833   0.546  0.2560  0.3167 -0.9793
 3702SOL    HW212077   0.895   6.720   0.446 -0.0163  0.6126 -1.3591
 3703SOL     OW12078   3.768   0.688   5.725  0.4442 -0.2736 -0.4157
 3703SOL    HW112079   3.859   0.669   5.703  0.3982 -0.7302 -0.2104
 3703SOL    HW212080   3.724   0.603   5.722  0.4187 -0.3698  1.3665
 3704SOL     OW12081   2.087   0.281   0.583 -0.7434 -0.0146  0.5964
 3704SOL    HW112082   2.098   0.360   0.530  2.0448 -1.1649 -0.7036
 3704SOL    HW212083   2.009   0.239   0.548 -0.4054  0.5445 -0.8879
 3705SOL     OW12084   5.275   5.814   3.702 -0.0880  0.1544  0.0698
 3705SOL    HW112085   5.319   5.775   3.627 -2.5366  0.5464 -1.6636
 3705SOL    HW212086   5.245   5.899   3.672 -1.7986  0.0174  1.2088
 3706SOL     OW12087   3.749   4.811   4.910 -0.0385  0.2150 -0.1222
 3706SOL    HW112088   3.694   4.762   4.848 -1.0005 -1.0034  1.5990
 3706SOL    HW212089   3.742   4.762   4.992 -1.2572  3.3814  1.8423
 3707SOL     OW12090   6.351   3.075   3.013 -0.0131 -0.5081 -0.1647
 3707SOL    HW112091   6.340   2.992   2.967 -1.5569 -0.3715 -0.1093
 3707SOL    HW212092   6.334   3.142   2.947 -1.0350 -0.2922  0.3043
 3708SOL     OW12093   3.388   6.989   5.580 -0.0719  0.0401  0.0119
 3708SOL    HW112094   3.308   6.941   5.602  0.1629 -0.7879 -0.8931
 3708SOL    HW212095   3.411   6.959   5.492  1.9737 -0.7658  0.7608
 3709SOL     OW12096   2.857   0.739   1.357 -0.6513 -0.5373 -0.8039
 3709SOL    HW112097   2.845   0.833   1.371 -0.9170 -0.4775 -1.3816
 3709SOL    HW212098   2.941   0.719   1.397 -0.4641  0.0032 -0.9204
 3710SOL     OW12099   5.447   5.559   6.333 -0.0071 -0.3925  0.1361
 3710SOL    HW112100   5.457   5.569   6.428  0.2072 -1.7825  0.2742
 3710SOL    HW212101   5.405   5.474   6.322 -1.3503  0.3738 -0.9709
 3711SOL     OW12102   4.969   3.160   0.851  0.2904 -0.0755 -0.0412
 3711SOL    HW112103   5.043   3.105   0.879  0.6125  1.0995  1.5730
 3711SOL    HW212104   4.984   3.174   0.758 -0.0325 -3.0056 -0.6335
 3712SOL     OW12105   1.154   5.677   6.405  0.0027 -0.3180  0.3776
 3712SOL    HW112106   1.152   5.593   6.451 -0.4977  0.1506  1.2483
 3712SOL    HW212107   1.114   5.738   6.466 -1.8424  0.1044 -1.1803
 3713SOL     OW12108   5.144   1.128   1.185  0.1714  0.1238 -1.0057
 3713SOL    HW112109   5.161   1.164   1.272 -1.5922  0.8281 -0.9123
 3713SOL    HW212110   5.196   1.181   1.126  1.5898 -0.5220 -0.3728
 3714SOL     OW12111   3.734   5.387   3.255  0.6258 -0.3677 -0.0064
 3714SOL    HW112112   3.742   5.374   3.349  0.4086  0.0840  0.0769
 3714SOL    HW212113   3.719   5.299   3.220  1.4641 -0.6418  0.2955
 3715SOL     OW12114   2.032   3.844   0.437 -0.1882 -0.7982  0.4566
 3715SOL    HW112115   2.046   3.933   0.469 -0.2982 -1.0842  1.3537
 3715SOL    HW212116   1.977   3.854   0.360  3.3046  0.2371 -2.1130
 3716SOL     OW12117   1.654   5.173   3.537  0.0147 -0.5162 -0.0930
 3716SOL    HW112118   1.697   5.237   3.594 -0.5443 -0.5618  0.3981
 3716SOL    HW212119   1.663   5.090   3.584 -1.9138 -0.2794  0.7809
 3717SOL     OW12120   2.078   5.654   3.960  0.3306 -0.1222  0.2661
 3717SOL    HW112121   2.122   5.569   3.955  0.8860  0.1399  0.5249
 3717SOL    HW212122   2.087   5.691   3.872  1.9927  0.5735  0.6878
 3718SOL     OW12123   3.522   6.315   1.366 -0.1662 -0.0603  0.0169
 3718SOL    HW112124   3.584   6.249   1.336 -0.7332 -0.5013 -0.2061
 3718SOL    HW212125   3.498   6.364   1.287 -1.3622 -0.9713 -0.2176
 3719SOL     OW12126   0.633   0.507   0.070  0.2206  0.2106 -0.4671
 3719SOL    HW112127   0.700   0.491   0.136 -1.1688  0.8596  1.1791
 3719SOL    HW212128   0.671   0.574   0.013  0.8402  0.8556  0.6700
 3720SOL     OW12129   2.385   5.562   6.194 -0.1857 -0.3030  0.2674
 3720SOL    HW112130   2.461   5.535   6.245  0.5754 -2.0904 -1.6478
 3720SOL    HW212131   2.353   5.641   6.238  1.5463 -0.6402  2.2969
 3721SOL     OW12132   2.489   2.108   3.650  0.3308  0.8834 -0.0262
 3721SOL    HW112133   2.401   2.140   3.665  0.6386  1.5724  0.3499
 3721SOL    HW212134   2.486   2.015   3.675  0.4372  1.5893  2.9816
 3722SOL     OW12135   6.839   0.273   1.015  0.0187  0.3165 -0.2356
 3722SOL    HW112136   6.822   0.365   0.995  0.0701  0.4705  0.4265
 3722SOL    HW212137   6.833   0.229   0.930  0.2683  0.9714 -0.6034
 3723SOL     OW12138   4.611   4.880   2.482  0.2278 -0.1190 -0.0190
 3723SOL    HW112139   4.523   4.893   2.446  0.4473  1.5700 -0.0354
 3723SOL    HW212140   4.635   4.791   2.455 -1.6104 -0.7520  0.3194
 3724SOL     OW12141   4.004   0.086   1.381 -0.6374  0.0856 -0.1754
 3724SOL    HW112142   3.964   0.059   1.299  1.1487  0.3114 -1.1711
 3724SOL    HW212143   4.074   0.146   1.355  0.8959 -0.9508  1.3895
 3725SOL     OW12144   0.361   0.110   7.235  0.4209 -0.5538 -0.3498
 3725SOL    HW112145   0.383   0.195   7.271  2.1197 -1.1076 -0.0129
 3725SOL    HW212146   0.351   0.053   7.311 -1.2761 -0.5793 -0.5343
 3726SOL     OW12147   6.041   0.183   3.416  0.0541 -0.5476  0.4714
 3726SOL    HW112148   6.005   0.186   3.505  0.0018 -0.2947  0.4402
 3726SOL    HW212149   5.970   0.215   3.360  0.3868  0.1275  0.4300
 3727SOL     OW12150   6.470   6.816   2.705 -0.0539 -0.1392 -0.5431
 3727SOL    HW112151   6.455   6.723   2.685 -0.0383  0.0618 -1.5001
 3727SOL    HW212152   6.382   6.851   2.720 -0.1679 -0.0201 -1.4709
 3728SOL     OW12153   6.833   0.587   2.222 -0.8734 -0.5784  0.4300
 3728SOL    HW112154   6.738   0.597   2.227 -0.7630  1.4015 -0.5167
 3728SOL    HW212155   6.867   0.666   2.264  0.3872 -1.4183  1.0606
 3729SOL     OW12156   4.706   4.973   6.620  0.2924 -0.0845  0.4398
 3729SOL    HW112157   4.704   4.880   6.600 -0.6452 -0.2638  1.3125
 3729SOL    HW212158   4.649   5.013   6.553 -2.7495 -0.6734  2.4812
 3730SOL     OW12159   3.862   0.751   3.246 -0.8031 -0.3281  0.6597
 3730SOL    HW112160   3.862   0.772   3.339 -1.6078  1.0007  0.3978
 3730SOL    HW212161   3.953   0.727   3.226 -0.3532  0.5806  1.5437
 3731SOL     OW12162   4.683   7.185   1.187  0.6335  0.1718 -0.0759
 3731SOL    HW112163   4.637   7.101   1.192  1.3340 -0.2671 -0.6611
 3731SOL    HW212164   4.658   7.232   1.266 -3.4630  1.3614 -1.8311
 3732SOL     OW12165   3.996   5.453   6.169  0.3416 -0.6996  0.2241
 3732SOL    HW112166   3.943   5.388   6.123  0.9310 -1.3949  0.5238
 3732SOL    HW212167   3.964   5.450   6.259 -0.1467 -0.0259  0.0832
 3733SOL     OW12168   1.344   4.649   2.406 -0.2548  0.2635 -0.3497
 3733SOL    HW112169   1.253   4.630   2.380 -0.5402  0.5145  0.4453
 3733SOL    HW212170   1.378   4.564   2.434 -0.2777  0.1870 -0.5508
 3734SOL     OW12171   0.999   6.759   2.451 -0.4931  0.2410 -0.7273
 3734SOL    HW112172   1.051   6.690   2.409  0.6442  0.9186 -0.4648
 3734SOL    HW212173   1.049   6.782   2.530  0.0704  2.5244 -1.6615
 3735SOL     OW12174   6.923   3.712   3.231 -0.3901 -0.0505 -0.4703
 3735SOL    HW112175   6.967   3.638   3.272  0.9484  0.5659 -0.7530
 3735SOL    HW212176   6.884   3.676   3.151 -1.0284 -0.7530  0.1467
 3736SOL     OW12177   4.345   4.044   6.017  0.1531 -0.5313  0.1111
 3736SOL    HW112178   4.349   4.133   6.053 -1.1663 -0.1967 -0.4912
 3736SOL    HW212179   4.278   4.049   5.949 -0.0325 -2.0233  0.1430
 3737SOL     OW12180   6.077   5.282   3.034 -0.0994  0.9455 -0.1892
 3737SOL    HW112181   6.056   5.341   3.107 -0.8959  1.4861 -0.8446
 3737SOL    HW212182   6.002   5.288   2.976 -0.5823 -1.3742  0.1250
 3738SOL     OW12183   3.373   6.837   6.904 -0.5226  0.5021  0.2662
 3738SOL    HW112184   3.290   6.791   6.890 -1.6214  1.7820  2.1301
 3738SOL    HW212185   3.372   6.862   6.996  1.4424  1.5429  0.0628
 3739SOL     OW12186   2.203   1.390   5.268 -0.3567  0.7696 -0.0858
 3739SOL    HW112187   2.124   1.406   5.319 -0.6340 -0.0411 -0.2456
 3739SOL    HW212188   2.256   1.333   5.324 -0.4854  0.2076 -0.5263
 3740SOL     OW12189   2.197   0.137   0.060  0.3466  0.2190  0.3315
 3740SOL    HW112190   2.185   0.055   0.011 -1.7717 -0.1747  1.4174
 3740SOL    HW212191   2.290   0.157   0.049  0.6428 -1.6205 -1.0590
 3741SOL     OW12192   2.324   1.180   6.865  0.1616  0.2476 -0.9026
 3741SOL    HW112193   2.347   1.087   6.858 -1.7648 -0.1936 -2.0261
 3741SOL    HW212194   2.283   1.188   6.951  1.7984  0.4421 -0.1057
 3742SOL     OW12195   6.120   5.861   2.307 -0.3304 -0.0311  0.0963
 3742SOL    HW112196   6.197   5.804   2.302 -0.6838 -0.6855  1.6804
 3742SOL    HW212197   6.156   5.948   2.326  0.0930 -0.0773 -0.4727
 3743SOL     OW12198   0.184   4.770   2.042 -0.6679  0.4175 -0.3812
 3743SOL    HW112199   0.215   4.706   1.978 -1.5580 -0.3879 -0.0225
 3743SOL    HW212200   0.263   4.819   2.066  0.5166 -1.9515  0.9336
 3744SOL     OW12201   3.918   4.367   2.738 -0.1068 -0.4803  0.1384
 3744SOL    HW112202   4.012   4.350   2.730  0.0944  0.0725  1.1706
 3744SOL    HW212203   3.913   4.453   2.778 -1.0517 -0.6704  0.4417
 3745SOL     OW12204   1.019   1.206   1.110 -0.3657  0.1351 -0.4223
 3745SOL    HW112205   1.099   1.228   1.157 -0.1022 -0.4159 -0.6008
 3745SOL    HW212206   1.049   1.162   1.030 -0.7284  2.3942 -1.9070
 3746SOL     OW12207   1.548   3.465   2.851  0.3420 -0.4088  0.0967
 3746SOL    HW112208   1.493   3.443   2.776 -1.8239  0.9753  1.1646
 3746SOL    HW212209   1.566   3.559   2.841 -1.5961  0.2799  2.1577
 3747SOL     OW12210   5.811   1.193   2.548  0.1789  0.3642  0.0409
 3747SOL    HW112211   5.877   1.174   2.481  0.0986  2.1253 -0.5924
 3747SOL    HW212212   5.807   1.113   2.601  2.6740  0.1236 -0.0234
 3748SOL     OW12213   5.068   4.034   2.984  0.4421 -0.3561  0.0815
 3748SOL    HW112214   4.997   4.097   2.999 -1.0796 -1.5336 -1.6553
 3748SOL    HW212215   5.133   4.083   2.934  0.3534  0.4651  0.7605
 3749SOL     OW12216   2.268   4.969   2.263  0.1463  0.5193  0.7500
 3749SOL    HW112217   2.326   4.973   2.339  0.6885 -0.6837  0.4288
 3749SOL    HW212218   2.325   4.993   2.189 -0.4356  1.9356  0.7181
 3750SOL     OW12219   4.299   4.606   0.654 -0.5786 -0.3600 -0.0346
 3750SOL    HW112220   4.206   4.622   0.669 -0.8320 -0.3575 -1.4653
 3750SOL    HW212221   4.335   4.692   0.632 -0.6579 -0.6550 -1.4221
 3751SOL     OW12222   0.711   4.956   3.289  0.3735  0.0273 -0.5306
 3751SOL    HW112223   0.785   4.907   3.254  0.9158  1.0553 -0.8640
 3751SOL    HW212224   0.651   4.966   3.215  0.5236  0.3526 -0.6079
 3752SOL     OW12225   4.905   4.772   3.724  0.6271 -0.6465 -0.4314
 3752SOL    HW112226   4.892   4.748   3.632 -1.2988  1.7145 -0.8655
 3752SOL    HW212227   4.827   4.737   3.769  0.1769  0.5645 -0.2361
 3753SOL     OW12228   1.297   5.542   1.180  0.5047 -0.0638 -0.2531
 3753SOL    HW112229   1.376   5.589   1.206  1.2305 -0.2471 -1.9847
 3753SOL    HW212230   1.294   5.551   1.085  0.2841 -2.8815 -0.5977
 3754SOL     OW12231   6.823   2.301   2.933  0.3708  0.2243 -0.3786
 3754SOL    HW112232   6.893   2.277   2.994  0.7286 -2.2317 -1.6273
 3754SOL    HW212233   6.836   2.243   2.858 -1.9462  0.9498 -1.4268
 3755SOL     OW12234   3.203   6.443   4.584  0.2006 -0.5521 -0.2134
 3755SOL    HW112235   3.287   6.398   4.594 -0.3015 -1.3621  0.5026
 3755SOL    HW212236   3.145   6.377   4.547 -0.0298  0.1285 -1.1098
 3756SOL     OW12237   3.151   1.974   0.263 -0.5217  0.4107  0.1329
 3756SOL    HW112238   3.217   2.009   0.322 -0.6402  2.2581 -0.7618
 3756SOL    HW212239   3.143   2.039   0.193 -2.7752 -0.0829 -0.1663
 3757SOL     OW12240   1.387   3.671   1.998  0.2907  0.3147 -0.4567
 3757SOL    HW112241   1.322   3.741   1.987 -0.6386 -0.2656  1.0235
 3757SOL    HW212242   1.337   3.596   2.030  1.5358 -0.5105 -0.3545
 3758SOL     OW12243   2.072   1.881   5.403  0.1835 -0.3807 -0.2198
 3758SOL    HW112244   2.097   1.972   5.394  1.0831 -0.6356 -0.3537
 3758SOL    HW212245   2.111   1.853   5.486  1.1700 -1.0395 -0.8857
 3759SOL     OW12246   2.310   6.374   0.600  0.0624  0.4617  0.6275
 3759SOL    HW112247   2.340   6.452   0.552  2.1881 -0.0906  0.9709
 3759SOL    HW212248   2.250   6.409   0.666  0.3893  1.7369  0.2857
 3760SOL     OW12249   4.049   2.002   5.369  0.1025  0.3700 -0.6072
 3760SOL    HW112250   4.005   2.015   5.285 -0.3976 -2.6408 -0.9139
 3760SOL    HW212251   4.040   1.909   5.387  0.4791  0.8508  2.6772
 3761SOL     OW12252   1.209   6.023   4.269 -0.1804 -0.1562 -0.1687
 3761SOL    HW112253   1.227   6.091   4.334  0.9526  1.0334 -1.6700
 3761SOL    HW212254   1.294   5.983   4.252 -0.5669 -0.8382 -0.5082
 3762SOL     OW12255   3.424   0.043   3.011  0.2286  0.2335 -0.2625
 3762SOL    HW112256   3.447   0.010   2.924 -0.9520  0.7034 -0.7684
 3762SOL    HW212257   3.460   0.132   3.013  1.1196 -0.1231  0.1173
 3763SOL     OW12258   3.747   6.812   0.135 -0.0406 -0.3745  0.0575
 3763SOL    HW112259   3.804   6.802   0.211 -0.8016 -0.3566  0.6558
 3763SOL    HW212260   3.794   6.772   0.063 -0.3321 -2.6857  1.0532
 3764SOL     OW12261   3.698   2.407   4.698 -0.0721  0.6413 -0.1405
 3764SOL    HW112262   3.780   2.442   4.661  0.2971  0.1530  0.2045
 3764SOL    HW212263   3.692   2.318   4.663 -0.8330  0.9211 -0.7382
 3765SOL     OW12264   1.593   4.301   5.780  0.1508 -0.3032 -0.2229
 3765SOL    HW112265   1.544   4.345   5.850  2.0743 -0.0733  1.0426
 3765SOL    HW212266   1.648   4.369   5.743 -1.0996 -0.3234 -2.3152
 3766SOL     OW12267   5.713   6.032   4.930 -0.6438  0.2743 -0.6637
 3766SOL    HW112268   5.767   6.006   4.855 -0.6520 -0.3547 -0.4555
 3766SOL    HW212269   5.768   6.093   4.979 -0.1505 -0.2756 -0.5122
 3767SOL     OW12270   6.018   6.711   0.817  0.1500  0.6358 -0.3565
 3767SOL    HW112271   6.082   6.750   0.876  1.0956 -0.5515 -0.5685
 3767SOL    HW212272   5.935   6.720   0.863  0.5745  1.5022  0.2718
 3768SOL     OW12273   7.147   0.960   0.344  0.4970  0.1705  0.6036
 3768SOL    HW112274   7.173   0.947   0.253 -2.2352  0.2792 -0.3078
 3768SOL    HW212275   7.086   0.888   0.362 -2.6227  2.6049  0.6814
 3769SOL     OW12276   0.108   3.514   2.616 -0.0081  0.5952  0.4719
 3769SOL    HW112277   0.108   3.556   2.530 -1.1763  1.4252  0.8475
 3769SOL    HW212278   0.023   3.471   2.621  0.1692  0.3117  1.0911
 3770SOL     OW12279   7.301   3.399   3.234  0.2069 -0.0862  0.1957
 3770SOL    HW112280   7.335   3.332   3.293  1.1211 -0.7998 -1.0737
 3770SOL    HW212281   7.375   3.418   3.175 -0.2305  1.5932  0.1401
 3771SOL     OW12282   1.379   4.408   6.849 -0.0856  0.0105 -0.2801
 3771SOL    HW112283   1.371   4.312   6.856  1.9137 -0.2450 -0.7753
 3771SOL    HW212284   1.409   4.435   6.936  1.1518 -0.0818 -0.6549
 3772SOL     OW12285   3.961   0.025   6.729  0.0183  0.0812 -0.5070
 3772SOL    HW112286   3.937   0.090   6.795 -0.3845 -0.4232 -0.1472
 3772SOL    HW212287   4.017  -0.037   6.776  0.2730  0.0787 -0.8088
 3773SOL     OW12288   2.443   4.338   3.561 -0.1828  0.2261  0.3410
 3773SOL    HW112289   2.361   4.292   3.577  0.1477 -0.6251 -0.3350
 3773SOL    HW212290   2.421   4.431   3.568 -1.3446  0.0277 -0.5159
 3774SOL     OW12291   2.244   6.945   7.007  0.6415  1.0171 -0.2700
 3774SOL    HW112292   2.206   6.918   6.923  0.0795  1.5025 -0.1831
 3774SOL    HW212293   2.296   6.870   7.035 -1.8971 -0.5855  0.5913
 3775SOL     OW12294   5.374   6.126   2.692  0.0170  0.0845  0.0975
 3775SOL    HW112295   5.304   6.182   2.656 -1.1775 -0.9894  0.6935
 3775SOL    HW212296   5.378   6.149   2.784  1.0831  0.7622 -0.1006
 3776SOL     OW12297   5.235   6.312   6.501 -0.5895  0.6072 -0.0344
 3776SOL    HW112298   5.212   6.219   6.497 -2.4085  1.0509 -1.9234
 3776SOL    HW212299   5.216   6.338   6.591 -0.9974 -0.6457  0.2558
 3777SOL     OW12300   3.351   5.886   1.795 -0.1359  0.4285 -0.5662
 3777SOL    HW112301   3.377   5.978   1.785 -1.2224  0.7896 -0.2779
 3777SOL    HW212302   3.295   5.869   1.719  0.1118 -0.0111 -0.6493
 3778SOL     OW12303   6.620   5.363   1.852  0.3709  0.2444  0.2036
 3778SOL    HW112304   6.607   5.357   1.947 -1.0250 -0.6905 -0.0178
 3778SOL    HW212305   6.662   5.281   1.828 -2.3458 -1.0923 -0.3902
 3779SOL     OW12306   5.503   4.971   6.019 -0.5656  0.6325 -0.2322
 3779SOL    HW112307   5.513   4.900   6.083 -0.0123  1.4435  0.6103
 3779SOL    HW212308   5.420   4.952   5.975 -0.2471 -0.7428 -0.3085
 3780SOL     OW12309   4.751   6.641   3.605  0.4481 -0.1616 -0.5155
 3780SOL    HW112310   4.822   6.601   3.554  0.6420 -0.5222  0.0303
 3780SOL    HW212311   4.717   6.570   3.659 -0.2023  0.0588 -0.6249
 3781SOL     OW12312   0.461   3.617   3.556  0.2314 -0.2612 -0.5406
 3781SOL    HW112313   0.396   3.663   3.609  0.3900 -0.1658 -0.4263
 3781SOL    HW212314   0.515   3.687   3.519  0.7990 -0.3738  0.0547
 3782SOL     OW12315   6.238   2.906   1.054 -0.0476 -0.2905 -0.0377
 3782SOL    HW112316   6.272   2.994   1.068 -0.8223  0.2501 -1.3397
 3782SOL    HW212317   6.159   2.903   1.108  0.5970 -0.5955  0.8942
 3783SOL     OW12318   4.826   5.274   1.641 -0.2588  0.4632  0.4608
 3783SOL    HW112319   4.753   5.281   1.580 -1.2053 -0.4647  1.4478
 3783SOL    HW212320   4.893   5.226   1.593 -0.8379  0.0843  0.0143
 3784SOL     OW12321   6.613   4.341   2.115 -0.4935  0.1079  0.3693
 3784SOL    HW112322   6.525   4.377   2.128 -0.9317 -0.1793 -1.4942
 3784SOL    HW212323   6.605   4.248   2.136 -0.7052  0.0345 -0.0249
 3785SOL     OW12324   6.551   1.652   5.709 -0.3788  0.5709  0.0997
 3785SOL    HW112325   6.461   1.665   5.739  0.3642  1.4301  2.0652
 3785SOL    HW212326   6.541   1.605   5.626 -2.6045  0.0245  0.6039
 3786SOL     OW12327   6.409   6.083   1.630 -0.0954 -0.3899 -0.2081
 3786SOL    HW112328   6.461   6.042   1.699  0.0808 -1.2625 -0.8419
 3786SOL    HW212329   6.321   6.089   1.667  0.3409  0.7186  0.7160
 3787SOL     OW12330   1.091   4.273   4.270 -0.0171  0.5237  0.5434
 3787SOL    HW112331   1.117   4.214   4.341 -2.3799 -1.1838  0.0884
 3787SOL    HW212332   1.085   4.216   4.193  1.6511  2.1847 -0.9165
 3788SOL     OW12333   1.085   4.166   7.111 -0.1272 -0.2618 -0.1533
 3788SOL    HW112334   1.102   4.179   7.204  1.0469 -2.0813 -0.0739
 3788SOL    HW212335   1.165   4.127   7.076 -1.2064 -1.4047 -1.5197
 3789SOL     OW12336   4.368   1.884   6.994  0.0676 -0.8017  0.0962
 3789SOL    HW112337   4.380   1.929   7.078  0.4090 -0.6137 -0.0478
 3789SOL    HW212338   4.444   1.825   6.988  0.3271 -0.4323 -0.3147
 3790SOL     OW12339   0.690   3.321   4.764  0.1477 -0.5235 -0.4394
 3790SOL    HW112340   0.728   3.291   4.681  1.9356  0.1974  0.0687
 3790SOL    HW212341   0.720   3.257   4.828 -3.1194 -2.4220 -0.5822
 3791SOL     OW12342   2.512   6.226   6.194 -0.4970 -0.0540  0.3975
 3791SOL    HW112343   2.549   6.142   6.220 -0.7707 -0.6227 -0.9624
 3791SOL    HW212344   2.588   6.282   6.181 -0.2747 -0.2929  0.6454
 3792SOL     OW12345   5.693   1.600   6.735  0.4844 -0.3565  0.0708
 3792SOL    HW112346   5.604   1.593   6.701  0.1522 -0.7431  0.9881
 3792SOL    HW212347   5.694   1.681   6.785  0.8450 -0.0189 -0.4639
 3793SOL     OW12348   6.856   4.614   6.612  0.5059  0.4733 -0.4590
 3793SOL    HW112349   6.913   4.661   6.673 -0.2364  1.5233 -0.5514
 3793SOL    HW212350   6.878   4.522   6.625  2.9711  0.8754 -1.2102
 3794SOL     OW12351   0.157   0.170   4.157 -0.3329 -0.1981  0.0305
 3794SOL    HW112352   0.194   0.178   4.245  1.0719  0.0733 -0.5519
 3794SOL    HW212353   0.233   0.175   4.099 -1.4035  1.9277 -1.3313
 3795SOL     OW12354   1.178   6.618   0.067 -0.0125  0.0510  0.2067
 3795SOL    HW112355   1.116   6.688   0.085 -0.0315 -0.6210  3.1180
 3795SOL    HW212356   1.258   6.643   0.113  0.9940 -0.4616 -1.1683
 3796SOL     OW12357   2.156   2.497   6.000 -0.3344  0.0389  0.3888
 3796SOL    HW112358   2.182   2.471   5.911  0.6238 -1.2042  0.9959
 3796SOL    HW212359   2.222   2.559   6.027  0.8453 -1.4827  1.1301
 3797SOL     OW12360   3.385   6.839   4.935  0.3721  0.4050  0.2754
 3797SOL    HW112361   3.445   6.898   4.981 -0.1643 -0.5266  2.2655
 3797SOL    HW212362   3.328   6.805   5.003  0.8742 -2.6854 -0.6899
 3798SOL     OW12363   2.158   0.279   3.515 -0.3131  0.1214 -0.1023
 3798SOL    HW112364   2.140   0.367   3.482 -0.0068  0.4336  0.5290
 3798SOL    HW212365   2.159   0.223   3.438 -1.2997  0.5385 -0.4281
 3799SOL     OW12366   4.832   0.986   6.922  0.3229  0.0247  0.3589
 3799SOL    HW112367   4.828   1.073   6.882  1.1606  0.2364  0.7311
 3799SOL    HW212368   4.861   1.002   7.011 -1.1097 -0.4855  0.9498
 3800SOL     OW12369   3.878   2.860   5.965 -0.5108  0.1425 -0.0469
 3800SOL    HW112370   3.833   2.785   6.004  1.0086 -2.0554 -2.2347
 3800SOL    HW212371   3.825   2.882   5.888 -0.3001  0.5460 -0.0786
 3801SOL     OW12372   4.944   0.266   4.859  0.4204  0.1972 -0.2826
 3801SOL    HW112373   5.020   0.324   4.864  0.2466  0.3328  1.0342
 3801SOL    HW212374   4.877   0.310   4.910  0.2746 -1.1377  0.7242
 3802SOL     OW12375   6.579   7.221   2.324 -0.3379 -0.4007 -0.0725
 3802SOL    HW112376   6.627   7.151   2.280 -0.2443 -0.6971  0.4919
 3802SOL    HW212377   6.491   7.215   2.288 -0.0065  0.0314 -0.9801
 3803SOL     OW12378   6.031   3.420   1.411 -0.5610  0.1553 -0.3925
 3803SOL    HW112379   6.100   3.486   1.416 -1.6055  1.2174  0.4936
 3803SOL    HW212380   5.988   3.424   1.496 -1.3333 -0.9099 -0.7196
 3804SOL     OW12381   5.129   4.355   0.335 -0.4152  0.2102  0.4658
 3804SOL    HW112382   5.140   4.327   0.425  0.0903  0.1405  0.3857
 3804SOL    HW212383   5.037   4.336   0.314 -0.8042  1.1288  1.2700
 3805SOL     OW12384   6.105   0.820   1.790 -0.1740  0.3916  0.0777
 3805SOL    HW112385   6.017   0.842   1.821  0.0820  0.4869  0.7537
 3805SOL    HW212386   6.164   0.863   1.853  0.3594 -1.8955  1.2254
 3806SOL     OW12387   5.316   6.776   4.910  0.2003  0.1062 -0.2459
 3806SOL    HW112388   5.280   6.696   4.871 -1.1988  1.3232 -1.5618
 3806SOL    HW212389   5.289   6.773   5.001 -2.3579  0.4188 -0.9305
 3807SOL     OW12390   5.917   7.333   0.910  0.5350  0.0341 -0.0779
 3807SOL    HW112391   5.900   7.239   0.919  3.0570 -0.4731  0.2622
 3807SOL    HW212392   5.899   7.369   0.997  1.5926 -0.5470  0.4047
 3808SOL     OW12393   0.582   0.457   0.807 -0.0293  0.4000 -0.3168
 3808SOL    HW112394   0.627   0.404   0.740  0.6071 -0.2366  0.5924
 3808SOL    HW212395   0.496   0.415   0.816  0.2176 -0.0713 -0.0978
 3809SOL     OW12396   3.172   5.420   0.249  0.3180 -0.1506  0.6459
 3809SOL    HW112397   3.185   5.381   0.163 -0.2871  0.7685  0.1096
 3809SOL    HW212398   3.078   5.443   0.251  0.6693  1.4392  0.8184
 3810SOL     OW12399   0.700   0.198   6.255 -0.7656 -0.2331  0.0696
 3810SOL    HW112400   0.774   0.147   6.286 -1.3785 -1.8188 -0.9509
 3810SOL    HW212401   0.700   0.276   6.310  3.6901  1.5732 -1.9991
 3811SOL     OW12402   0.594   4.947   1.353  0.7121  0.2657 -0.5533
 3811SOL    HW112403   0.614   5.037   1.377 -0.1301  0.1536  0.6976
 3811SOL    HW212404   0.501   4.936   1.374  1.6113 -2.0183  3.3728
 3812SOL     OW12405   5.565   4.712   0.253 -0.3136 -0.0679  0.9545
 3812SOL    HW112406   5.552   4.803   0.278 -0.8313  0.0261  0.3612
 3812SOL    HW212407   5.660   4.701   0.249 -0.1967  1.2568 -1.8914
 3813SOL     OW12408   5.661   2.871   2.213 -0.3038  0.1480 -0.0083
 3813SOL    HW112409   5.643   2.860   2.120 -0.5747  0.0646  0.0545
 3813SOL    HW212410   5.756   2.857   2.220  0.0943  2.2332 -0.5739
 3814SOL     OW12411   0.634   2.344   1.840 -0.0412  0.3832 -0.1538
 3814SOL    HW112412   0.584   2.272   1.802  2.3940 -0.8239 -1.2889
 3814SOL    HW212413   0.617   2.338   1.934  0.0693 -1.6727 -0.2252
 3815SOL     OW12414   1.056   2.314   5.676 -0.3434  0.1233  0.5230
 3815SOL    HW112415   1.039   2.405   5.652 -0.9501  0.7998  3.2193
 3815SOL    HW212416   0.970   2.274   5.684 -0.1510 -0.1951  1.0694
 3816SOL     OW12417   2.831   1.021   2.444  0.3311  0.0244  0.2338
 3816SOL    HW112418   2.822   1.015   2.349  0.1919  1.4682  0.1272
 3816SOL    HW212419   2.748   0.988   2.479 -0.5092  1.5303 -0.2539
 3817SOL     OW12420   0.789   0.266   2.660 -0.5651 -0.2842 -1.4436
 3817SOL    HW112421   0.860   0.210   2.629  0.7533  0.8131 -0.5546
 3817SOL    HW212422   0.779   0.243   2.753 -1.0164 -0.0608 -1.4351
 3818SOL     OW12423   3.080   2.794   1.537  0.3138 -0.2715 -1.1679
 3818SOL    HW112424   3.171   2.793   1.567 -0.1008  1.3137  0.2827
 3818SOL    HW212425   3.049   2.705   1.552  1.9345 -1.1900 -2.8579
 3819SOL     OW12426   0.355   4.544   0.320  0.4575 -0.6399  0.3737
 3819SOL    HW112427   0.337   4.551   0.226  0.7782 -0.5462  0.3200
 3819SOL    HW212428   0.424   4.478   0.327  1.7147  0.6377  0.3927
 3820SOL     OW12429   1.450   3.712   2.313 -0.0096 -0.5109  0.0744
 3820SOL    HW112430   1.361   3.743   2.330  1.2775  3.0119  1.4666
 3820SOL    HW212431   1.460   3.720   2.218 -1.1024 -0.6861 -0.0651
 3821SOL     OW12432   6.747   4.244   0.672  0.1118 -1.0380  0.3339
 3821SOL    HW112433   6.765   4.170   0.613 -0.7892 -1.7086  0.8732
 3821SOL    HW212434   6.652   4.254   0.670  0.2424  0.2359  0.1364
 3822SOL     OW12435   1.542   1.143   1.483 -0.4168  0.3912  0.2191
 3822SOL    HW112436   1.503   1.220   1.525 -2.0123  0.8407 -1.8684
 3822SOL    HW212437   1.477   1.074   1.497  1.6467 -1.1047  3.3291
 3823SOL     OW12438   6.051   3.743   0.593 -0.1831  0.0092 -0.3753
 3823SOL    HW112439   6.011   3.794   0.522  0.7247 -1.6749 -2.2254
 3823SOL    HW212440   6.032   3.652   0.571  2.3794 -0.7219  0.0231
 3824SOL     OW12441   6.019   3.509   5.565  0.1844 -0.0545  0.0471
 3824SOL    HW112442   5.925   3.490   5.571  0.2314 -0.2109  0.2791
 3824SOL    HW212443   6.061   3.439   5.614  0.4527 -0.2332 -0.4258
 3825SOL     OW12444   5.048   0.953   6.352 -0.1086 -0.1300  0.3689
 3825SOL    HW112445   4.953   0.946   6.339  0.0897 -0.0525 -1.2963
 3825SOL    HW212446   5.069   1.043   6.325  0.6178 -0.5713 -0.5601
 3826SOL     OW12447   4.772   6.044   3.821 -0.0320 -0.7553  0.1894
 3826SOL    HW112448   4.856   6.044   3.866  0.0502  1.8666  0.1586
 3826SOL    HW212449   4.794   6.028   3.729  0.4492 -0.1995  0.1999
 3827SOL     OW12450   0.163   2.694   3.925  0.3468  0.0650 -0.1353
 3827SOL    HW112451   0.206   2.659   4.003  0.6985  0.7954  0.0059
 3827SOL    HW212452   0.181   2.630   3.856 -0.7392 -1.0678  0.5753
 3828SOL     OW12453   4.683   6.642   0.424 -0.3667 -0.6372  0.1940
 3828SOL    HW112454   4.661   6.700   0.352 -0.9719 -0.6331  0.3770
 3828SOL    HW212455   4.599   6.620   0.464 -0.0920 -1.1519  0.5026
 3829SOL     OW12456   5.284   4.495   4.499  0.6966  0.0233  0.3143
 3829SOL    HW112457   5.214   4.552   4.533 -0.9238 -0.9515 -1.2161
 3829SOL    HW212458   5.288   4.423   4.562 -0.6306 -0.5720 -0.2353
 3830SOL     OW12459   4.811   2.472   5.070 -0.1100  0.2837  0.2460
 3830SOL    HW112460   4.816   2.472   5.166 -0.7502 -0.4829  0.2900
 3830SOL    HW212461   4.902   2.460   5.042 -0.0033 -0.1875  0.7709
 3831SOL     OW12462   0.378   0.232   4.006  0.1769  0.4742  0.3830
 3831SOL    HW112463   0.365   0.327   4.007 -0.4288  0.4160 -0.4499
 3831SOL    HW212464   0.387   0.211   3.913 -0.5531 -0.3889  0.4942
 3832SOL     OW12465   3.436   1.549   6.330 -0.6685 -0.2228  0.5117
 3832SOL    HW112466   3.411   1.472   6.280  0.0727  0.1308 -0.4331
 3832SOL    HW212467   3.506   1.589   6.279  1.9737 -1.2340  3.0404
 3833SOL     OW12468   3.064   4.916   2.040  0.2619  0.1237  0.3297
 3833SOL    HW112469   2.996   4.887   1.979  0.6028 -1.8765  0.8049
 3833SOL    HW212470   3.146   4.896   1.994  0.5190 -1.3046  1.3559
 3834SOL     OW12471   7.223   4.658   0.975 -0.1635 -0.5808  0.1114
 3834SOL    HW112472   7.176   4.621   1.049  0.9905 -0.2716  1.0407
 3834SOL    HW212473   7.179   4.624   0.898 -2.2300  0.1329  0.9170
 3835SOL     OW12474   4.153   1.139   1.941  0.3543  1.2180  0.6132
 3835SOL    HW112475   4.167   1.053   1.902  1.1867 -0.1071  3.5412
 3835SOL    HW212476   4.080   1.177   1.891 -0.5646 -1.5041 -0.2686
 3836SOL     OW12477   6.774   4.301   2.998 -0.0811 -0.6495  0.2599
 3836SOL    HW112478   6.792   4.378   2.945  1.6663 -1.1406  0.0772
 3836SOL    HW212479   6.708   4.252   2.948 -0.3455  0.1489 -0.1849
 3837SOL     OW12480   6.299   2.536   3.918 -0.4966 -0.7632  0.3957
 3837SOL    HW112481   6.255   2.590   3.983 -0.4975 -1.6512  1.1610
 3837SOL    HW212482   6.252   2.554   3.836 -0.3419  0.5485  0.5746
 3838SOL     OW12483   1.795   0.609   0.974 -0.5655 -0.8319 -0.1332
 3838SOL    HW112484   1.805   0.677   1.040 -1.2516 -0.7425 -0.1184
 3838SOL    HW212485   1.748   0.652   0.902  1.0176 -0.6417 -1.1117
 3839SOL     OW12486   5.423   0.896   5.667 -0.3733  0.2559  0.4406
 3839SOL    HW112487   5.391   0.825   5.723  0.5720  0.0182  0.6982
 3839SOL    HW212488   5.501   0.859   5.625  0.0992  1.1254  0.5380
 3840SOL     OW12489   4.946   4.527   5.879 -0.1529 -0.0638  0.3815
 3840SOL    HW112490   4.993   4.576   5.946 -0.2536 -0.3166  0.6384
 3840SOL    HW212491   5.000   4.538   5.800  1.5290 -2.1233  1.1442
 3841SOL     OW12492   4.749   7.153   6.470  0.2891  0.7275 -0.0646
 3841SOL    HW112493   4.737   7.073   6.521  0.2579  0.8015  0.0418
 3841SOL    HW212494   4.689   7.216   6.508 -0.4434  0.4976 -0.8120
 3842SOL     OW12495   3.731   4.491   4.693  0.0872 -0.1207  0.0622
 3842SOL    HW112496   3.708   4.447   4.775 -0.0495  1.2029  0.7559
 3842SOL    HW212497   3.725   4.422   4.627 -1.3786 -0.8524  0.9109
 3843SOL     OW12498   1.625   4.102   0.559  0.7284  0.4601 -0.1141
 3843SOL    HW112499   1.666   4.152   0.630 -0.0819  1.4567 -0.3305
 3843SOL    HW212500   1.532   4.120   0.567  0.4815 -0.5136 -0.6114
 3844SOL     OW12501   7.166   0.006   1.978 -0.1151  0.2386 -0.3791
 3844SOL    HW112502   7.177  -0.081   2.016  1.6089  0.2301 -0.8110
 3844SOL    HW212503   7.160  -0.009   1.883  0.6825  0.6040 -0.4977
 3845SOL     OW12504   7.339   5.720   0.127 -0.5447  0.4853 -0.0532
 3845SOL    HW112505   7.321   5.789   0.064 -0.1816  1.6520  1.0672
 3845SOL    HW212506   7.408   5.667   0.086  0.8000  2.1303 -0.0272
 3846SOL     OW12507   5.587   7.232   0.049  0.0776 -0.4247  0.7268
 3846SOL    HW112508   5.632   7.294   0.106  0.3004  0.5457 -0.4631
 3846SOL    HW212509   5.657   7.186   0.003 -0.0646  1.0512 -1.0930
 3847SOL     OW12510   2.983   2.484   5.937 -0.1870  0.4380 -0.0895
 3847SOL    HW112511   3.012   2.562   5.983  0.8574 -0.4624  0.8476
 3847SOL    HW212512   2.921   2.442   5.996  0.3908 -0.1979  0.0876
 3848SOL     OW12513   4.947   2.887   6.314 -0.3143  0.0736  0.4438
 3848SOL    HW112514   4.952   2.876   6.409  0.9213  1.4317  0.5706
 3848SOL    HW212515   5.037   2.880   6.284 -0.4436  1.4893 -0.3915
 3849SOL     OW12516   1.324   0.309   7.296  0.5694 -0.0299  0.2145
 3849SOL    HW112517   1.240   0.312   7.343  0.2312 -0.1876 -0.3615
 3849SOL    HW212518   1.359   0.398   7.303 -0.1966  0.3407 -0.5060
 3850SOL     OW12519   5.838   1.377   3.634 -0.3667  0.5974 -0.2791
 3850SOL    HW112520   5.752   1.342   3.610 -0.1302 -0.7810  0.8062
 3850SOL    HW212521   5.821   1.470   3.653 -1.6691  0.2978  0.1411
 3851SOL     OW12522   0.636   3.352   6.175 -0.2049 -0.1456  0.4826
 3851SOL    HW112523   0.624   3.331   6.082 -1.4185 -0.7087  0.7481
 3851SOL    HW212524   0.556   3.398   6.199 -0.4601 -1.1127  1.5526
 3852SOL     OW12525   4.716   1.263   2.075 -0.0616  0.3898 -0.3566
 3852SOL    HW112526   4.647   1.284   2.012  0.1214 -1.9384 -1.4161
 3852SOL    HW212527   4.710   1.169   2.088  1.4029  0.4644  1.3980
 3853SOL     OW12528   1.338   1.142   2.415  0.0036  0.2541 -0.2407
 3853SOL    HW112529   1.316   1.048   2.416  0.6016  0.0562 -2.1052
 3853SOL    HW212530   1.386   1.156   2.496  0.7544 -1.2941 -0.3732
 3854SOL     OW12531   5.226   3.182   7.130 -0.1994  0.0879  0.3685
 3854SOL    HW112532   5.286   3.250   7.099 -0.3994  1.2616  2.3836
 3854SOL    HW212533   5.281   3.104   7.140  0.0671 -0.0805 -1.8015
 3855SOL     OW12534   3.195   3.330   6.622  0.5415  0.0702 -0.4217
 3855SOL    HW112535   3.265   3.361   6.564 -0.0712 -1.3727 -2.0522
 3855SOL    HW212536   3.226   3.245   6.653  0.5178  0.4871  0.8037
 3856SOL     OW12537   5.200   2.095   4.616 -0.2796  0.2697  0.1978
 3856SOL    HW112538   5.266   2.028   4.633 -1.1183 -0.1687  1.9389
 3856SOL    HW212539   5.161   2.070   4.532  1.0732 -0.0010 -0.3858
 3857SOL     OW12540   5.583   0.596   0.670 -0.0224  0.9154  0.2790
 3857SOL    HW112541   5.565   0.587   0.764  1.4655 -1.3796  0.4258
 3857SOL    HW212542   5.587   0.506   0.638 -0.3685  1.6551 -1.9867
 3858SOL     OW12543   7.019   3.300   2.630  0.6024 -0.3301  0.4078
 3858SOL    HW112544   6.988   3.369   2.690 -0.2811 -1.0035  0.7487
 3858SOL    HW212545   6.951   3.294   2.564  0.9645 -0.4742  0.0470
 3859SOL     OW12546   0.649   3.129   2.402  0.4387  0.1009 -0.3515
 3859SOL    HW112547   0.658   3.209   2.349  2.0004 -0.7578 -1.4525
 3859SOL    HW212548   0.555   3.124   2.421  0.3491  2.4733  0.2134
 3860SOL     OW12549   7.194   6.761   4.629  0.6218  0.1724  0.0707
 3860SOL    HW112550   7.271   6.738   4.578  0.1422 -0.5459 -0.3526
 3860SOL    HW212551   7.120   6.744   4.570  0.0298 -1.0713  1.1073
 3861SOL     OW12552   1.993   1.521   5.419 -0.2036 -0.1395  0.0224
 3861SOL    HW112553   1.921   1.568   5.378  0.3317 -0.3464 -1.1906
 3861SOL    HW212554   1.958   1.433   5.437  0.0004 -0.5462 -1.4322
 3862SOL     OW12555   6.535   3.856   0.055  0.2134  0.2931 -0.0814
 3862SOL    HW112556   6.451   3.888   0.020 -0.5810 -1.5985 -0.0330
 3862SOL    HW212557   6.570   3.801  -0.015  0.0551 -1.1590  0.9605
 3863SOL     OW12558   0.793   1.636   4.820  0.0873  0.5308  0.0323
 3863SOL    HW112559   0.707   1.613   4.783  0.3022 -0.3449  0.0556
 3863SOL    HW212560   0.832   1.694   4.755  0.2546 -0.5952 -0.9136
 3864SOL     OW12561   1.306   1.821   1.465  0.0245  0.4497  0.3550
 3864SOL    HW112562   1.253   1.895   1.437 -0.0648  0.4948  0.6382
 3864SOL    HW212563   1.274   1.747   1.412 -0.6459  0.3733  0.8524
 3865SOL     OW12564   2.195   0.167   1.200  0.5072  0.1076 -0.6948
 3865SOL    HW112565   2.246   0.245   1.180 -1.4526  1.8600  0.7328
 3865SOL    HW212566   2.119   0.173   1.142  0.3608 -0.8064 -0.6133
 3866SOL     OW12567   0.898   5.874   6.328  0.1214  0.4123 -0.1008
 3866SOL    HW112568   0.978   5.924   6.340 -0.1177  1.2864 -1.8455
 3866SOL    HW212569   0.874   5.846   6.417  0.6606  2.7856  0.8761
 3867SOL     OW12570   6.611   6.879   3.661 -0.1668  0.2513  0.6792
 3867SOL    HW112571   6.669   6.940   3.707  0.5724 -0.4821  0.7383
 3867SOL    HW212572   6.611   6.909   3.570 -0.1136  0.5660  0.7811
 3868SOL     OW12573   6.825   1.845   3.134 -0.1053  0.3441  0.2917
 3868SOL    HW112574   6.802   1.758   3.103 -1.2751  1.3578 -1.9017
 3868SOL    HW212575   6.860   1.890   3.057  0.5604  1.7936  1.3913
 3869SOL     OW12576   6.840   2.728   2.609  0.9192 -0.0725  0.0916
 3869SOL    HW112577   6.776   2.663   2.580 -2.0374  2.2002  0.9549
 3869SOL    HW212578   6.873   2.767   2.529 -1.7140  1.2176 -0.4812
 3870SOL     OW12579   6.992   4.676   5.893 -0.6675  0.4054  0.4200
 3870SOL    HW112580   6.983   4.581   5.894  0.9044  0.2091 -0.6031
 3870SOL    HW212581   6.958   4.705   5.978 -2.2752 -0.9282  0.2793
 3871SOL     OW12582   0.989   5.525   2.817 -0.1427  0.2672 -0.6095
 3871SOL    HW112583   0.911   5.564   2.854  0.6871  1.5901 -0.2018
 3871SOL    HW212584   1.031   5.480   2.890 -0.2530 -0.0141 -0.7164
 3872SOL     OW12585   0.845   2.117   5.512  0.5125  0.2870  0.1068
 3872SOL    HW112586   0.897   2.070   5.447  1.5128  0.5942  0.6595
 3872SOL    HW212587   0.790   2.176   5.460  2.1874  1.4361 -0.4607
 3873SOL     OW12588   2.740   1.834   5.477 -0.1009  0.5167  0.1390
 3873SOL    HW112589   2.786   1.766   5.428  1.1149  1.9557 -0.7885
 3873SOL    HW212590   2.657   1.844   5.431 -0.1697 -0.1291  0.1089
 3874SOL     OW12591   3.651   3.556   3.232  0.4228  0.0365  0.2974
 3874SOL    HW112592   3.594   3.505   3.290  0.6776 -1.2594 -0.5540
 3874SOL    HW212593   3.739   3.542   3.267  0.7822 -2.1012 -1.2912
 3875SOL     OW12594   4.918   6.803   7.261  0.1382  0.3782 -0.6557
 3875SOL    HW112595   4.907   6.727   7.318 -0.9332  1.3704  0.5262
 3875SOL    HW212596   4.966   6.866   7.314 -0.6690  1.2290 -0.9192
 3876SOL     OW12597   7.128   5.134   5.414 -0.1960 -0.1042 -0.4046
 3876SOL    HW112598   7.092   5.142   5.326  2.4248  1.1690 -1.4783
 3876SOL    HW212599   7.218   5.103   5.400  0.3395  0.2769  1.8261
 3877SOL     OW12600   3.914   6.790   3.013  0.0357 -0.2142 -0.2511
 3877SOL    HW112601   3.949   6.755   3.095  0.4832 -0.4384 -0.5368
 3877SOL    HW212602   3.906   6.884   3.029  1.4999 -0.0375 -0.4378
 3878SOL     OW12603   3.224   5.296   0.027  0.2556 -0.2123 -0.1684
 3878SOL    HW112604   3.317   5.298   0.002  0.5435 -1.7149  0.6414
 3878SOL    HW212605   3.181   5.249  -0.044  0.1101  0.4610 -0.5306
 3879SOL     OW12606   2.731   3.293   4.282 -0.2725  0.5407 -0.3792
 3879SOL    HW112607   2.649   3.260   4.245  1.4402 -2.5896 -1.8310
 3879SOL    HW212608   2.764   3.355   4.217 -1.1425  1.3193 -0.0931
 3880SOL     OW12609   6.949   0.719   2.871 -0.4595  0.0811  0.1679
 3880SOL    HW112610   6.922   0.653   2.807  0.1439 -0.5069  0.5092
 3880SOL    HW212611   7.022   0.765   2.829 -0.1719 -0.1944  0.3601
 3881SOL     OW12612   2.554   3.052   1.331 -0.0273 -0.4302 -0.4365
 3881SOL    HW112613   2.536   3.141   1.300 -1.8395 -1.2964 -2.1247
 3881SOL    HW212614   2.639   3.058   1.373  0.0865  2.0146 -0.8534
 3882SOL     OW12615   0.581   4.382   0.266 -0.6419 -0.0467 -0.1507
 3882SOL    HW112616   0.603   4.319   0.334  0.3679  0.3015 -0.1355
 3882SOL    HW212617   0.665   4.413   0.234 -1.1168  0.8362 -0.5850
 3883SOL     OW12618   0.008   0.278   1.689 -0.6613  0.7339  0.7352
 3883SOL    HW112619   0.052   0.348   1.641 -2.2984  0.7865 -0.8001
 3883SOL    HW212620   0.030   0.198   1.641 -1.5398  0.6603  0.4364
 3884SOL     OW12621   6.805   1.417   4.087 -0.3968 -0.2725 -0.1199
 3884SOL    HW112622   6.885   1.469   4.090 -0.5869  0.0167 -0.0227
 3884SOL    HW212623   6.735   1.480   4.071 -0.6769 -0.4413  0.3916
 3885SOL     OW12624   5.963   7.069   3.023 -0.0266  0.1324 -0.1245
 3885SOL    HW112625   6.039   7.125   3.035 -0.2096  0.2646  0.4119
 3885SOL    HW212626   5.906   7.088   3.097  0.4014 -1.5526  0.6935
 3886SOL     OW12627   4.141   1.106   0.469  0.1602 -0.4601  0.1636
 3886SOL    HW112628   4.162   1.188   0.514 -0.8323 -0.5017  0.7391
 3886SOL    HW212629   4.220   1.085   0.419  1.3001 -0.4216  1.8909
 3887SOL     OW12630   3.382   2.905   4.667 -0.4285  0.0927 -0.0261
 3887SOL    HW112631   3.398   2.830   4.609 -1.7868 -0.3390  0.1237
 3887SOL    HW212632   3.325   2.962   4.616 -0.2875  0.5013  0.2734
 3888SOL     OW12633   1.803   3.785   3.249  0.4804 -0.4994  0.1456
 3888SOL    HW112634   1.769   3.797   3.160  1.0205  2.5670  0.2256
 3888SOL    HW212635   1.731   3.742   3.296 -0.1929 -1.2976 -1.5267
 3889SOL     OW12636   4.982   1.672   2.108 -0.4082 -0.5530 -0.0266
 3889SOL    HW112637   4.969   1.612   2.182 -1.6661  0.6886  0.8111
 3889SOL    HW212638   4.988   1.758   2.148  2.6410 -0.1650 -1.1106
 3890SOL     OW12639   2.723   2.067   6.169  0.0712  0.0592  0.0080
 3890SOL    HW112640   2.795   2.086   6.108  2.1641 -2.3252  1.5249
 3890SOL    HW212641   2.712   1.973   6.163 -2.4874  0.2735  0.4243
 3891SOL     OW12642   5.959   4.794   1.178  0.3023  0.2699  0.0182
 3891SOL    HW112643   5.969   4.715   1.125  0.5467  0.9282 -0.9553
 3891SOL    HW212644   6.029   4.852   1.147 -0.2528  1.0956  0.2870
 3892SOL     OW12645   3.434   3.152   6.267 -0.4794  0.1078  0.5635
 3892SOL    HW112646   3.397   3.074   6.227 -0.4407  0.9241 -1.1607
 3892SOL    HW212647   3.358   3.207   6.287 -0.4410  1.8129 -3.0376
 3893SOL     OW12648   4.649   3.259   1.143  0.3853 -0.3957 -0.7697
 3893SOL    HW112649   4.662   3.165   1.152 -0.3094 -0.3965  0.4716
 3893SOL    HW212650   4.556   3.272   1.162  1.1781  0.9281  3.3023
 3894SOL     OW12651   2.264   4.664   0.335 -0.2967  0.6087  0.0283
 3894SOL    HW112652   2.337   4.662   0.396  1.0186 -0.8006 -1.5092
 3894SOL    HW212653   2.251   4.573   0.310 -0.7784  1.1347 -1.7905
 3895SOL     OW12654   4.913   1.483   4.662  0.3569 -0.1250  0.1503
 3895SOL    HW112655   4.991   1.532   4.636  1.0123 -0.6569  1.0578
 3895SOL    HW212656   4.845   1.513   4.603  1.6572 -0.9421 -1.8788
 3896SOL     OW12657   3.930   0.753   4.948 -0.1608 -0.2317  0.2303
 3896SOL    HW112658   3.898   0.693   4.881  0.4765  0.0442 -0.3389
 3896SOL    HW212659   3.995   0.702   4.997  0.3289 -0.0388 -0.2079
 3897SOL     OW12660   2.148   1.236   0.510  0.2678 -0.5511  0.0244
 3897SOL    HW112661   2.090   1.162   0.530 -0.1484  0.1907  1.7126
 3897SOL    HW212662   2.236   1.197   0.508 -0.0808 -1.3537 -0.7330
 3898SOL     OW12663   2.175   0.156   3.781  0.1573 -0.0588 -0.5152
 3898SOL    HW112664   2.138   0.193   3.862  0.3887  0.0722 -0.4702
 3898SOL    HW212665   2.161   0.224   3.715  0.5440  0.0925 -0.4421
 3899SOL     OW12666   5.352   5.684   2.049 -0.5569 -0.5294  0.2858
 3899SOL    HW112667   5.417   5.684   1.979 -1.5070  0.2373 -0.6266
 3899SOL    HW212668   5.278   5.633   2.014 -0.6316 -1.0454  1.1454
 3900SOL     OW12669   6.360   3.091   6.817  0.0374 -0.1303  0.2666
 3900SOL    HW112670   6.294   3.063   6.880  1.1820 -0.2197  1.4887
 3900SOL    HW212671   6.328   3.061   6.732 -1.5320 -0.0450  0.7995
 3901SOL     OW12672   1.976   3.726   2.610  0.5805 -0.1822  0.0711
 3901SOL    HW112673   1.922   3.655   2.644  0.3286 -0.2095 -0.3733
 3901SOL    HW212674   2.015   3.690   2.530  1.3262 -0.1898  0.4292
 3902SOL     OW12675   1.679   6.282   0.532  0.6454 -0.1130 -0.0948
 3902SOL    HW112676   1.750   6.232   0.572  1.6709 -1.0228 -2.8102
 3902SOL    HW212677   1.664   6.356   0.592  2.9245 -0.6623  1.2497
 3903SOL     OW12678   5.551   7.059   3.320 -0.1257 -0.2232 -0.6827
 3903SOL    HW112679   5.508   7.002   3.383 -0.0189 -0.4131 -0.7804
 3903SOL    HW212680   5.480   7.108   3.278 -0.2821 -0.8062 -1.1138
 3904SOL     OW12681   5.394   5.964   0.371  0.6295  0.4735 -0.2553
 3904SOL    HW112682   5.417   5.961   0.464  0.3174  0.7660 -0.1678
 3904SOL    HW212683   5.464   5.915   0.328  0.3571 -0.3368  0.2128
 3905SOL     OW12684   0.147   7.354   3.892  0.3829  0.1605  0.1010
 3905SOL    HW112685   0.129   7.265   3.861 -0.4014  0.6699 -1.0182
 3905SOL    HW212686   0.241   7.364   3.884  0.2005  0.5664 -3.2591
 3906SOL     OW12687   5.357   3.347   3.010  0.0276  0.2823 -0.3658
 3906SOL    HW112688   5.427   3.305   2.960 -0.3243 -0.1317 -0.5177
 3906SOL    HW212689   5.365   3.440   2.989 -0.2612  0.0915 -1.3903
 3907SOL     OW12690   6.103   1.909   4.978  0.2690  0.1352  0.0463
 3907SOL    HW112691   6.104   1.815   4.962  0.8637  0.3152 -1.1302
 3907SOL    HW212692   6.021   1.925   5.025 -0.9446 -0.6819 -1.6829
 3908SOL     OW12693   6.566   0.566   6.165  0.0230  0.3665  0.1058
 3908SOL    HW112694   6.584   0.621   6.241  2.2268  1.2396 -0.9631
 3908SOL    HW212695   6.477   0.587   6.140  0.1628  2.0035  0.9001
 3909SOL     OW12696   1.527   5.344   5.921 -0.1435  0.1921  0.8479
 3909SOL    HW112697   1.479   5.393   5.988 -0.5503 -0.2865  0.9158
 3909SOL    HW212698   1.610   5.321   5.962 -0.9054 -1.2144  1.6614
 3910SOL     OW12699   0.304   0.387   5.120  0.2089  0.4130 -0.2690
 3910SOL    HW112700   0.260   0.362   5.202  0.0840  1.2378 -0.0788
 3910SOL    HW212701   0.376   0.325   5.112 -0.5084 -0.4658 -0.1763
 3911SOL     OW12702   4.165   3.145   0.828 -0.5099  0.0074  0.6535
 3911SOL    HW112703   4.199   3.157   0.916  1.2228  0.5076 -0.0334
 3911SOL    HW212704   4.154   3.050   0.819  3.0896 -0.4876  0.1651
 3912SOL     OW12705   1.195   3.630   4.974 -0.1808  0.3322  0.2254
 3912SOL    HW112706   1.132   3.566   5.010  0.7051 -0.3841  0.5396
 3912SOL    HW212707   1.281   3.592   4.993  0.3583  0.2758 -2.0069
 3913SOL     OW12708   1.566   6.064   5.924  0.3236 -0.7107 -0.5282
 3913SOL    HW112709   1.508   6.115   5.981  0.1247  0.6575 -1.9150
 3913SOL    HW212710   1.640   6.122   5.906  1.7163 -2.0934  0.4446
 3914SOL     OW12711   1.380   6.378   3.077 -0.9560  0.1538  0.0601
 3914SOL    HW112712   1.309   6.397   3.016 -1.2864  0.4241  0.5262
 3914SOL    HW212713   1.344   6.397   3.163 -0.0292  1.2079  0.2382
 3915SOL     OW12714   0.725   3.990   6.778 -0.2421 -0.0787 -0.0521
 3915SOL    HW112715   0.632   3.967   6.779 -0.0307 -1.0542 -0.8598
 3915SOL    HW212716   0.764   3.930   6.715  1.0747 -0.1835  0.8180
 3916SOL     OW12717   1.372   2.688   0.241 -0.2886  0.7845 -0.4464
 3916SOL    HW112718   1.372   2.694   0.145 -0.0444  4.0917 -0.3748
 3916SOL    HW212719   1.314   2.759   0.269 -0.0664  0.1389  1.8837
 3917SOL     OW12720   0.428   7.321   7.022  0.0131  0.4858  0.9899
 3917SOL    HW112721   0.398   7.366   7.101 -0.0348  0.0571  1.2188
 3917SOL    HW212722   0.514   7.286   7.044 -0.6613 -0.9868  1.3941
 3918SOL     OW12723   5.560   2.630   0.979 -0.1107 -0.1899  0.0784
 3918SOL    HW112724   5.642   2.671   0.951 -0.9989  0.8380 -1.1327
 3918SOL    HW212725   5.541   2.566   0.910 -1.5366  1.3029 -1.0208
 3919SOL     OW12726   0.856   2.802   1.547 -0.4903  0.0989  0.4227
 3919SOL    HW112727   0.918   2.730   1.535 -0.9143 -0.0258 -1.1589
 3919SOL    HW212728   0.798   2.772   1.617 -1.9908 -2.0807 -1.5966
 3920SOL     OW12729   4.434   2.741   2.912  0.0408 -0.2343 -0.4007
 3920SOL    HW112730   4.517   2.788   2.906 -0.1204  0.2845  1.1427
 3920SOL    HW212731   4.457   2.656   2.948 -0.1058 -0.0432  0.1509
 3921SOL     OW12732   3.024   7.245   5.196 -0.2562 -0.2899 -0.0037
 3921SOL    HW112733   3.000   7.278   5.110 -1.0308  1.3613  0.8103
 3921SOL    HW212734   2.980   7.160   5.202 -1.9213  0.5044 -0.4516
 3922SOL     OW12735   1.962   1.649   3.134 -0.0976 -0.1095 -0.4464
 3922SOL    HW112736   1.902   1.724   3.131  1.1195  0.8711 -0.7250
 3922SOL    HW212737   1.990   1.645   3.226 -0.5891 -0.5856 -0.3102
 3923SOL     OW12738   1.594   2.082   4.919 -0.1002 -0.4250  0.1419
 3923SOL    HW112739   1.679   2.077   4.876  0.7904  0.0654  1.7885
 3923SOL    HW212740   1.605   2.147   4.988 -1.7313 -0.5549  0.5728
 3924SOL     OW12741   3.643   5.539   1.916 -0.4298  0.7997 -0.0035
 3924SOL    HW112742   3.718   5.560   1.971  0.1755 -0.2856 -0.3946
 3924SOL    HW212743   3.660   5.585   1.833  1.1559 -1.4689 -1.0490
 3925SOL     OW12744   7.158   5.223   7.312  0.1095  0.2778  0.1395
 3925SOL    HW112745   7.244   5.261   7.293 -0.1916  1.6098  1.2794
 3925SOL    HW212746   7.112   5.291   7.360 -1.6560 -0.3650 -0.5641
 3926SOL     OW12747   4.613   5.865   6.998 -0.0966 -0.1094  0.5077
 3926SOL    HW112748   4.611   5.778   6.959  0.1841  0.3941 -0.6951
 3926SOL    HW212749   4.522   5.894   6.997 -0.0313  0.0962 -0.2734
 3927SOL     OW12750   7.199   1.871   4.249 -0.5178  0.3143 -0.0485
 3927SOL    HW112751   7.115   1.829   4.270 -0.6994 -0.1440 -1.5266
 3927SOL    HW212752   7.175   1.957   4.216 -0.5838 -0.4101 -2.0302
 3928SOL     OW12753   6.924   3.043   6.411  0.6064  0.5491  0.1135
 3928SOL    HW112754   6.852   3.091   6.451  1.5420  0.7371  1.6258
 3928SOL    HW212755   6.986   3.028   6.482  1.7557 -0.2133 -1.0020
 3929SOL     OW12756   2.243   0.832   6.927 -0.3406  0.6686  0.0105
 3929SOL    HW112757   2.260   0.909   6.981  0.0458  0.2560  0.4821
 3929SOL    HW212758   2.305   0.839   6.855  1.1910 -0.2895  1.1772
 3930SOL     OW12759   1.433   1.130   6.180 -0.4302  0.0796  0.3137
 3930SOL    HW112760   1.375   1.070   6.133  0.8049 -0.6171 -0.3707
 3930SOL    HW212761   1.479   1.178   6.110  0.1263  0.3205  0.8360
 3931SOL     OW12762   3.526   5.258   2.330  0.1098 -0.1599  0.4277
 3931SOL    HW112763   3.474   5.289   2.256 -0.9906  0.1429  1.2987
 3931SOL    HW212764   3.478   5.181   2.361  1.2767 -1.0813  0.0426
 3932SOL     OW12765   4.448   0.243   0.899 -0.2784  0.3162  0.3027
 3932SOL    HW112766   4.419   0.295   0.824  0.4112  0.9031  0.4300
 3932SOL    HW212767   4.513   0.183   0.863 -1.3594 -0.7590  0.0822
 3933SOL     OW12768   6.993   3.372   2.069 -0.0882 -0.1182 -0.2286
 3933SOL    HW112769   7.087   3.390   2.072 -0.1334  0.1878 -0.5610
 3933SOL    HW212770   6.983   3.310   1.996  0.1900 -2.3256  1.5077
 3934SOL     OW12771   3.748   3.337   0.992  0.1801 -0.2757 -0.5424
 3934SOL    HW112772   3.838   3.330   1.024  0.6737 -1.5328 -2.0504
 3934SOL    HW212773   3.754   3.388   0.912  0.0182 -2.4779 -2.0647
 3935SOL     OW12774   3.350   0.658   2.427  0.2722 -0.7397  0.0106
 3935SOL    HW112775   3.436   0.675   2.466 -0.0674 -0.0745  0.4693
 3935SOL    HW212776   3.358   0.569   2.390  1.9395  0.1599 -2.0357
 3936SOL     OW12777   7.002   6.018   0.376  0.4628  0.7495 -0.1999
 3936SOL    HW112778   6.937   6.067   0.426  0.4617  1.0170 -0.4568
 3936SOL    HW212779   7.013   5.936   0.424 -0.9998  0.1451 -0.8362
 3937SOL     OW12780   5.248   4.967   4.011 -0.0398 -0.1341  0.5663
 3937SOL    HW112781   5.247   5.007   3.923  1.0798 -0.5369  0.3431
 3937SOL    HW212782   5.200   5.029   4.066  0.5856  0.9131 -0.0226
 3938SOL     OW12783   5.689   6.108   0.002 -0.4134 -0.0797 -0.5570
 3938SOL    HW112784   5.595   6.112  -0.014 -0.3315  0.6226 -0.8857
 3938SOL    HW212785   5.717   6.026  -0.038 -1.0030 -0.6584  0.1882
 3939SOL     OW12786   5.697   5.111   0.284 -0.2140 -0.8876 -0.5976
 3939SOL    HW112787   5.707   5.198   0.322  1.7089 -0.9883 -0.7946
 3939SOL    HW212788   5.687   5.126   0.190  0.4887 -0.8746 -0.6774
 3940SOL     OW12789   6.356   4.487   4.182  0.3891 -0.4389  0.6000
 3940SOL    HW112790   6.288   4.424   4.207 -0.3453 -0.7930 -2.0294
 3940SOL    HW212791   6.437   4.436   4.185  0.5692 -0.1437  3.2627
 3941SOL     OW12792   4.852   4.979   0.959 -0.5887  0.3156  0.4685
 3941SOL    HW112793   4.784   4.930   0.912  1.3236  0.9181 -3.2627
 3941SOL    HW212794   4.909   5.014   0.890  0.3827  4.5938  3.0735
 3942SOL     OW12795   6.662   2.487   5.196  0.3734 -0.4670  0.0405
 3942SOL    HW112796   6.616   2.523   5.120  0.6626 -1.9614 -0.8793
 3942SOL    HW212797   6.692   2.564   5.244 -0.5894  0.5230 -0.8758
 3943SOL     OW12798   2.822   2.005   2.484  0.3298 -0.4884  0.1283
 3943SOL    HW112799   2.749   2.039   2.536  0.1578 -1.9882  0.9330
 3943SOL    HW212800   2.839   1.919   2.521  1.6711 -0.6954 -0.9024
 3944SOL     OW12801   4.461   1.270   1.958  0.2587  0.3015  0.1143
 3944SOL    HW112802   4.430   1.193   2.005 -0.3504  0.0935 -0.6085
 3944SOL    HW212803   4.454   1.246   1.865 -1.8738  1.9034 -0.2350
 3945SOL     OW12804   3.365   2.559   0.191  0.2817  0.0139  0.1167
 3945SOL    HW112805   3.308   2.482   0.190  0.6816 -0.2772 -0.3914
 3945SOL    HW212806   3.447   2.529   0.153  0.6755  0.5144  0.5515
 3946SOL     OW12807   4.753   3.352   1.950 -0.9499 -0.0104 -0.0175
 3946SOL    HW112808   4.760   3.438   1.992  1.3572 -0.9210  1.7002
 3946SOL    HW212809   4.833   3.344   1.898 -0.8870 -1.2944  0.2417
 3947SOL     OW12810   4.888   5.201   4.497  0.0349 -0.0270 -0.2767
 3947SOL    HW112811   4.889   5.284   4.451  1.7760 -0.6779 -1.5399
 3947SOL    HW212812   4.895   5.224   4.589  0.6491  1.2299 -0.6227
 3948SOL     OW12813   5.251   1.545   1.255 -0.5010 -0.5240 -0.1594
 3948SOL    HW112814   5.175   1.592   1.221  0.0530  0.5378  0.0341
 3948SOL    HW212815   5.319   1.612   1.264 -0.1972 -1.0373  1.6993
 3949SOL     OW12816   5.412   3.526   6.298 -0.1506  0.2215  0.9661
 3949SOL    HW112817   5.502   3.544   6.326  0.1604  0.6708 -0.2598
 3949SOL    HW212818   5.422   3.459   6.230 -0.4149  2.2722 -1.2567
 3950SOL     OW12819   7.263   5.278   1.389 -0.5426 -0.1400 -0.0815
 3950SOL    HW112820   7.312   5.199   1.410 -1.1913 -0.0666  1.8445
 3950SOL    HW212821   7.215   5.299   1.469 -1.3717  1.4889 -0.9596
 3951SOL     OW12822   1.763   5.689   5.727  0.6989 -0.8924  0.1855
 3951SOL    HW112823   1.687   5.735   5.764  0.0386 -1.7614 -0.0515
 3951SOL    HW212824   1.784   5.738   5.647  0.9272 -0.1508  0.6880
 3952SOL     OW12825   6.829   0.850   1.945 -0.2498  0.1542 -0.2164
 3952SOL    HW112826   6.817   0.937   1.906  1.5658  0.4266 -0.2522
 3952SOL    HW212827   6.905   0.814   1.900  0.2919 -0.5953  1.2353
 3953SOL     OW12828   1.783   4.600   5.618  0.1123  0.3723 -0.1714
 3953SOL    HW112829   1.706   4.628   5.666 -0.0341  0.0038 -0.1876
 3953SOL    HW212830   1.749   4.566   5.535  0.1701 -0.9305  0.3116
 3954SOL     OW12831   1.028   5.497   1.734  0.1945 -0.2557 -0.0579
 3954SOL    HW112832   0.993   5.409   1.724  0.3098 -0.2967 -0.1088
 3954SOL    HW212833   1.098   5.502   1.669  1.0816 -0.5825  0.8408
 3955SOL     OW12834   4.285   6.977   3.382 -0.1348  0.3497 -0.3362
 3955SOL    HW112835   4.272   6.994   3.289  1.8305 -1.0540 -0.9190
 3955SOL    HW212836   4.214   6.918   3.406  1.9163 -3.2546 -2.2315
 3956SOL     OW12837   3.487   4.831   3.864  0.1089  0.5279  0.1969
 3956SOL    HW112838   3.427   4.905   3.871  0.3456  0.8869 -1.2458
 3956SOL    HW212839   3.574   4.871   3.863  0.3649  0.0645  1.4556
 3957SOL     OW12840   2.563   1.900   5.952 -0.8135  0.6285  0.1232
 3957SOL    HW112841   2.625   1.918   5.882 -1.1462  0.6180 -0.1772
 3957SOL    HW212842   2.477   1.898   5.909 -0.8519 -1.3925  0.1574
 3958SOL     OW12843   1.398   0.680   4.780 -0.1440 -0.5817 -0.6257
 3958SOL    HW112844   1.421   0.710   4.868  1.0226  0.0148 -1.1140
 3958SOL    HW212845   1.341   0.605   4.795  1.2998 -1.5022  0.6811
 3959SOL     OW12846   2.874   4.493   6.696  0.1143 -0.2820  0.2173
 3959SOL    HW112847   2.862   4.583   6.726 -0.9233  0.1534 -1.3604
 3959SOL    HW212848   2.906   4.501   6.607  1.5579 -1.5187  0.5802
 3960SOL     OW12849   1.274   4.799   3.765 -0.2728  0.3821 -0.4340
 3960SOL    HW112850   1.218   4.746   3.708 -0.6049 -0.4926  0.6577
 3960SOL    HW212851   1.363   4.782   3.735 -0.5408  1.5254 -1.9788
 3961SOL     OW12852   5.226   2.872   6.268  0.1321 -0.4494 -0.3003
 3961SOL    HW112853   5.213   2.796   6.212  0.4605 -0.5436 -0.2498
 3961SOL    HW212854   5.290   2.926   6.222 -0.4423  0.0205 -0.5553
 3962SOL     OW12855   0.885   2.914   2.473  0.4087  0.4010 -0.1449
 3962SOL    HW112856   0.884   2.834   2.420  0.3504  0.6565 -0.5260
 3962SOL    HW212857   0.802   2.957   2.453 -0.5729 -0.5011  1.6852
 3963SOL     OW12858   5.542   1.045   5.055  0.0198 -0.3259  0.0393
 3963SOL    HW112859   5.475   1.059   5.121 -0.0637 -0.2490 -0.0625
 3963SOL    HW212860   5.531   1.117   4.993  1.6179  0.9730  1.1827
 3964SOL     OW12861   5.268   4.907   4.372  0.1266  0.0023 -0.0227
 3964SOL    HW112862   5.199   4.949   4.423  0.5269  2.4751 -1.3368
 3964SOL    HW212863   5.349   4.933   4.415  0.3638 -0.1937 -0.3465
 3965SOL     OW12864   4.173   4.472   3.941 -0.0462  0.0248  0.2962
 3965SOL    HW112865   4.105   4.454   3.877 -1.5780  1.5022  1.4130
 3965SOL    HW212866   4.246   4.508   3.890 -0.8486  0.2236 -0.7165
 3966SOL     OW12867   5.920   0.666   4.081  0.4751  0.0092  0.5413
 3966SOL    HW112868   5.985   0.596   4.086 -0.5717 -1.0676 -0.3616
 3966SOL    HW212869   5.879   0.654   3.995 -0.5823  0.9596  0.8969
 3967SOL     OW12870   2.849   0.171   4.110  0.0979 -0.3887  0.7478
 3967SOL    HW112871   2.822   0.163   4.201  0.8134 -0.5337  0.9528
 3967SOL    HW212872   2.802   0.248   4.077 -0.0647 -0.2639  1.2718
 3968SOL     OW12873   7.298   3.174   1.008 -0.2604 -0.3483  0.0857
 3968SOL    HW112874   7.363   3.158   1.076 -0.3580 -0.0626  0.2488
 3968SOL    HW212875   7.286   3.089   0.965 -0.8099 -0.7332  0.9651
 3969SOL     OW12876   6.159   2.365   5.397 -0.2770 -0.1291  0.3535
 3969SOL    HW112877   6.200   2.310   5.463  1.0570 -0.6013 -0.8065
 3969SOL    HW212878   6.204   2.449   5.405 -0.3354 -0.0872  0.2470
 3970SOL     OW12879   5.420   6.773   0.994  0.7830  0.2675  0.1478
 3970SOL    HW112880   5.374   6.847   1.034  0.2772  0.1940 -0.2854
 3970SOL    HW212881   5.450   6.806   0.909 -0.0618 -0.2123 -0.3624
 3971SOL     OW12882   6.070   7.031   3.338 -0.0814  0.1160 -0.1466
 3971SOL    HW112883   6.099   7.002   3.424 -1.5995 -1.5875 -0.1320
 3971SOL    HW212884   6.042   7.122   3.351  3.5464  1.3503  0.1396
 3972SOL     OW12885   2.622   1.036   2.752 -0.4123 -0.1222 -0.0854
 3972SOL    HW112886   2.606   1.031   2.658  0.2306  0.2401 -0.2184
 3972SOL    HW212887   2.549   0.988   2.791 -0.7005 -0.2492 -0.7646
 3973SOL     OW12888   7.140   0.618   1.929 -0.6940  0.2982 -0.2033
 3973SOL    HW112889   7.189   0.644   1.851  1.7406 -0.1621  1.0600
 3973SOL    HW212890   7.191   0.545   1.966 -1.4843  0.7958  2.0461
 3974SOL     OW12891   5.904   0.916   1.923 -0.0547  0.0048 -0.2984
 3974SOL    HW112892   5.912   1.001   1.967  1.4342  0.4565 -1.3689
 3974SOL    HW212893   5.815   0.916   1.888 -0.6056  0.4499  1.0207
 3975SOL     OW12894   2.032   6.549   3.750  0.1192  0.1764  0.5043
 3975SOL    HW112895   2.076   6.504   3.822  1.5871  0.8695  0.0845
 3975SOL    HW212896   2.043   6.490   3.675  0.5316  0.4370  0.3539
 3976SOL     OW12897   7.043   4.960   1.451  0.3902 -0.5726  0.4168
 3976SOL    HW112898   6.999   5.015   1.387 -1.4338 -2.8830 -0.4429
 3976SOL    HW212899   7.127   5.004   1.466 -0.2986  1.5492 -1.3694
 3977SOL     OW12900   4.420   1.024   5.334  0.7242 -0.0085 -0.5346
 3977SOL    HW112901   4.397   1.117   5.329  0.3581  0.0028  0.9564
 3977SOL    HW212902   4.419   0.994   5.243 -0.6747  1.0823 -0.9154
 3978SOL     OW12903   4.080   6.332   6.001 -0.1504  0.4877 -0.2570
 3978SOL    HW112904   4.141   6.391   6.046  0.6370 -0.2877 -0.2778
 3978SOL    HW212905   4.024   6.298   6.071  2.0381 -1.8932  0.5002
 3979SOL     OW12906   7.200   1.520   5.875  0.4884  0.2791  0.2388
 3979SOL    HW112907   7.136   1.461   5.916 -0.7003 -0.3741 -2.3477
 3979SOL    HW212908   7.283   1.473   5.881 -0.7044 -2.7384 -3.3399
 3980SOL     OW12909   4.259   6.939   1.446  0.2803  0.5897 -0.1398
 3980SOL    HW112910   4.169   6.935   1.476  0.0744 -0.1262 -0.8180
 3980SOL    HW212911   4.299   6.858   1.478  0.0949 -0.1237 -1.6329
 3981SOL     OW12912   6.706   3.230   4.629 -0.0691 -0.6368 -0.3321
 3981SOL    HW112913   6.786   3.265   4.669  0.4406 -2.1421  0.0390
 3981SOL    HW212914   6.667   3.305   4.584  1.5564  0.1445 -0.5292
 3982SOL     OW12915   1.540   1.127   2.733 -0.3553 -0.0962  0.1338
 3982SOL    HW112916   1.609   1.083   2.783 -1.7574 -3.2434 -0.4902
 3982SOL    HW212917   1.586   1.194   2.682  1.5860  0.8025  2.8672
 3983SOL     OW12918   4.380   6.795   1.823 -0.0012  0.3260  0.3326
 3983SOL    HW112919   4.424   6.712   1.842  1.6229  0.6475 -1.6940
 3983SOL    HW212920   4.382   6.842   1.906 -0.1870 -1.2818  1.3083
 3984SOL     OW12921   5.887   3.483   1.061 -0.5721 -0.4754 -0.3778
 3984SOL    HW112922   5.889   3.388   1.061  0.4573 -0.4656 -1.5786
 3984SOL    HW212923   5.799   3.505   1.029 -0.7441 -1.0121 -0.2805
 3985SOL     OW12924   7.230   2.017   1.798  0.6666  0.1081  0.0824
 3985SOL    HW112925   7.155   2.040   1.854 -2.7300 -1.5826 -3.2559
 3985SOL    HW212926   7.247   1.925   1.818  1.3458  0.2673  0.2554
 3986SOL     OW12927   5.107   3.548   6.556  0.0673  0.1292 -0.1653
 3986SOL    HW112928   5.198   3.543   6.585  0.0633 -1.1523 -0.3140
 3986SOL    HW212929   5.056   3.539   6.636  0.0406  2.4988  0.1404
 3987SOL     OW12930   2.473   6.481   0.144 -0.2541  0.0074 -0.0238
 3987SOL    HW112931   2.543   6.419   0.122 -0.1318  0.3075 -0.5106
 3987SOL    HW212932   2.494   6.559   0.093 -0.6178  0.3146  0.2886
 3988SOL     OW12933   0.509   2.209   0.665 -0.1779 -0.0265  0.1073
 3988SOL    HW112934   0.544   2.121   0.651  0.0464 -0.0436  0.7446
 3988SOL    HW212935   0.576   2.254   0.717  0.7190  1.2270 -1.9811
 3989SOL     OW12936   6.163   6.099   4.807 -0.3748  0.3977 -0.5561
 3989SOL    HW112937   6.236   6.118   4.748 -1.1580 -0.4369 -1.8369
 3989SOL    HW212938   6.086   6.102   4.751 -1.0396 -1.5219  0.1836
 3990SOL     OW12939   4.948   3.390   3.067  0.1660  0.4972 -0.0658
 3990SOL    HW112940   4.875   3.431   3.021 -0.4245 -0.9994 -0.5080
 3990SOL    HW212941   5.005   3.464   3.092 -1.7982  1.7845  0.8922
 3991SOL     OW12942   0.619   4.404   5.534  0.3836 -0.7370  0.1592
 3991SOL    HW112943   0.697   4.451   5.503 -0.8618  0.8747 -0.6857
 3991SOL    HW212944   0.588   4.356   5.457 -0.3231 -0.1045  0.0330
 3992SOL     OW12945   0.506   7.027   1.159 -0.3935 -0.8724 -0.2191
 3992SOL    HW112946   0.531   6.946   1.202 -0.2628 -0.2141  0.9890
 3992SOL    HW212947   0.571   7.091   1.189 -2.1585  0.3694  1.2286
 3993SOL     OW12948   0.302   4.419   6.242  0.5749  0.1192  0.0429
 3993SOL    HW112949   0.275   4.351   6.181 -0.8051  1.2752 -0.6873
 3993SOL    HW212950   0.225   4.474   6.254  2.1172  2.7144 -0.9505
 3994SOL     OW12951   3.592   3.191   5.833 -0.2749  0.1773  0.2652
 3994SOL    HW112952   3.643   3.117   5.868  2.1671  1.6331  0.0517
 3994SOL    HW212953   3.571   3.164   5.744  1.1789 -0.0577 -0.0466
 3995SOL     OW12954   5.669   6.747   2.556  0.4648 -0.6707 -0.1019
 3995SOL    HW112955   5.706   6.698   2.483 -0.5330 -1.5403 -0.0465
 3995SOL    HW212956   5.682   6.691   2.632  0.9893 -0.0191  0.2994
 3996SOL     OW12957   4.884   7.109   5.951 -0.3937 -0.0010 -0.3221
 3996SOL    HW112958   4.964   7.158   5.971  0.1460 -0.4679 -1.2983
 3996SOL    HW212959   4.907   7.018   5.968 -1.4496  0.0434  1.6623
 3997SOL     OW12960   6.928   3.679   2.675  0.3169 -0.4063 -0.0399
 3997SOL    HW112961   6.851   3.729   2.704  0.5144 -0.4469  0.5605
 3997SOL    HW212962   6.934   3.697   2.581 -0.7734 -0.8743 -0.2183
 3998SOL     OW12963   1.883   4.498   6.824  0.2293  0.6012 -0.5493
 3998SOL    HW112964   1.800   4.544   6.815  1.1264  2.1628 -1.1345
 3998SOL    HW212965   1.937   4.531   6.752  1.0418 -1.1269 -0.7817
 3999SOL     OW12966   4.445   0.572   5.613  0.2008 -0.3739 -0.0513
 3999SOL    HW112967   4.398   0.656   5.617 -0.0481 -0.5326  0.5201
 3999SOL    HW212968   4.405   0.520   5.683 -0.1751 -1.2451 -0.8920
 4000SOL     OW12969   6.880   4.145   4.585 -0.5453  0.5808  0.6142
 4000SOL    HW112970   6.952   4.083   4.594  0.6831  1.1692 -3.2691
 4000SOL    HW212971   6.808   4.094   4.549  0.3921  1.1633 -2.3623
 4001SOL     OW12972   6.174   3.950   3.759 -0.1769 -0.3232 -0.0001
 4001SOL    HW112973   6.246   4.012   3.753 -0.0280 -0.6204 -1.6764
 4001SOL    HW212974   6.203   3.885   3.823  1.4146 -0.8548 -1.1984
 4002SOL     OW12975   6.802   2.053   4.366  0.2497 -0.5667 -0.3777
 4002SOL    HW112976   6.828   1.979   4.421 -1.9162 -0.9655  0.2267
 4002SOL    HW212977   6.851   2.041   4.285  1.4483 -1.5305  0.4487
 4003SOL     OW12978   5.050   6.703   0.912 -0.0631  0.0791 -0.3505
 4003SOL    HW112979   5.112   6.659   0.970 -0.8697  0.0650  0.5246
 4003SOL    HW212980   4.979   6.640   0.900 -0.8198  0.7801  0.2282
 4004SOL     OW12981   1.254   4.213   4.701  0.1450  0.6966 -0.2004
 4004SOL    HW112982   1.276   4.298   4.741 -0.9619  0.2814  1.3529
 4004SOL    HW212983   1.333   4.160   4.713  1.7184  2.0655 -3.1324
 4005SOL     OW12984   4.918   4.140   0.463 -0.1326 -0.2153  0.2656
 4005SOL    HW112985   4.896   4.189   0.384  0.4556  0.5963  0.5956
 4005SOL    HW212986   4.873   4.188   0.533  1.1334  0.3776  0.7023
 4006SOL     OW12987   6.770   0.412   6.030 -0.6635  0.1901 -0.5947
 4006SOL    HW112988   6.703   0.464   6.075 -1.3022  1.2175 -2.6061
 4006SOL    HW212989   6.827   0.478   5.989  1.7784 -0.6397  1.2227
 4007SOL     OW12990   2.790   3.050   3.562  0.1628  0.3683  0.0457
 4007SOL    HW112991   2.728   3.109   3.519 -0.5546  0.0578  0.6282
 4007SOL    HW212992   2.819   3.098   3.640 -0.9695 -0.2965  0.9113
 4008SOL     OW12993   5.052   2.959   4.418 -0.1136 -0.4318  0.2918
 4008SOL    HW112994   5.103   3.020   4.365 -1.0108 -0.3113 -0.4460
 4008SOL    HW212995   5.101   2.877   4.413  1.2336  0.2474  1.4896
 4009SOL     OW12996   5.680   7.281   6.296  0.1848 -0.4589  0.2619
 4009SOL    HW112997   5.601   7.235   6.268 -0.2733  0.5449 -0.1416
 4009SOL    HW212998   5.716   7.227   6.366 -1.5641 -0.2956  1.3567
 4010SOL     OW12999   4.680   1.838   1.383  0.2225  0.0533 -0.6190
 4010SOL    HW113000   4.684   1.928   1.416  0.6321 -0.1457 -0.1229
 4010SOL    HW213001   4.765   1.800   1.405  0.7911  0.1059 -2.4882
 4011SOL     OW13002   5.186   4.372   0.063 -0.1160  0.0279 -0.4206
 4011SOL    HW113003   5.181   4.346   0.155 -1.5742 -0.9440 -0.7302
 4011SOL    HW213004   5.108   4.426   0.049  0.4026  0.6555 -0.9549
 4012SOL     OW13005   2.680   2.237   6.380 -0.2013 -0.0324 -0.9907
 4012SOL    HW113006   2.688   2.202   6.292  1.8647  1.4167 -1.4509
 4012SOL    HW213007   2.722   2.172   6.436 -1.0375 -0.6954 -1.1089
 4013SOL     OW13008   4.866   0.049   5.264 -0.2944  0.2027 -0.4984
 4013SOL    HW113009   4.798   0.021   5.202 -0.8711 -0.1437  0.2625
 4013SOL    HW213010   4.848   0.142   5.279 -0.0830  0.3144 -0.9356
 4014SOL     OW13011   6.966   1.762   5.894 -0.8631 -0.5217 -0.1801
 4014SOL    HW113012   6.971   1.721   5.808 -0.4364  0.4956 -0.6523
 4014SOL    HW213013   7.057   1.780   5.917 -1.0915  1.1790 -0.5005
 4015SOL     OW13014   0.016   0.687   4.559  0.1038  0.5457  0.6809
 4015SOL    HW113015  -0.016   0.663   4.473 -0.2571 -0.9404  1.1996
 4015SOL    HW213016   0.112   0.681   4.552  0.0376 -1.5722  0.8766
 4016SOL     OW13017   0.475   5.292   5.118 -0.4252  0.0559  0.4139
 4016SOL    HW113018   0.494   5.202   5.144  1.9778 -0.0216 -1.3250
 4016SOL    HW213019   0.536   5.345   5.169  0.9552  0.3029 -1.4082
 4017SOL     OW13020   5.616   0.674   3.283 -0.0514 -0.3322  0.6094
 4017SOL    HW113021   5.659   0.640   3.361 -1.2373 -0.0746  1.3956
 4017SOL    HW213022   5.589   0.763   3.306 -0.8837 -0.4364  0.0951
 4018SOL     OW13023   4.215   2.068   1.979 -1.1412 -0.1714  0.3745
 4018SOL    HW113024   4.241   2.028   2.062 -2.2936 -0.2582  0.7015
 4018SOL    HW213025   4.296   2.069   1.927 -1.0223 -2.8670  0.3624
 4019SOL     OW13026   1.753   4.302   3.553 -0.0926 -0.1565  0.5338
 4019SOL    HW113027   1.832   4.339   3.514 -0.2172 -1.5368 -1.1500
 4019SOL    HW213028   1.762   4.208   3.542 -1.8880 -0.3609  0.4565
 4020SOL     OW13029   6.525   5.131   5.888 -0.3631  0.2078  0.2349
 4020SOL    HW113030   6.603   5.173   5.924 -0.2675  0.4760 -0.2868
 4020SOL    HW213031   6.530   5.041   5.920  0.6728 -0.0465 -0.5772
 4021SOL     OW13032   4.818   4.913   6.946  0.3095 -0.4095  0.4294
 4021SOL    HW113033   4.739   4.949   6.907  0.8711  0.3286 -0.0503
 4021SOL    HW213034   4.881   4.985   6.943  0.7314 -0.7081  1.6135
 4022SOL     OW13035   6.983   4.862   0.234 -0.5647  0.2010  0.3123
 4022SOL    HW113036   6.993   4.909   0.317  1.7065  0.3350  0.0230
 4022SOL    HW213037   6.905   4.809   0.245  0.7455 -1.2928  3.3006
 4023SOL     OW13038   4.526   0.237   3.444  0.2443  0.1220 -0.4333
 4023SOL    HW113039   4.600   0.178   3.456  1.0030  0.7000 -1.9613
 4023SOL    HW213040   4.462   0.186   3.394  0.0645 -0.0223 -0.0608
 4024SOL     OW13041   0.785   1.899   6.031 -0.3683 -0.0624  0.7383
 4024SOL    HW113042   0.822   1.813   6.015 -2.1544 -0.7154 -0.1166
 4024SOL    HW213043   0.818   1.954   5.959 -1.1140 -0.6537 -0.0669
 4025SOL     OW13044   5.591   2.437   7.144  0.5192 -0.1149  0.1154
 4025SOL    HW113045   5.593   2.497   7.070 -0.7659 -1.8162 -1.3895
 4025SOL    HW213046   5.500   2.440   7.175  0.8052 -0.1618  0.9945
 4026SOL     OW13047   4.897   5.197   1.968  0.2815  0.2245  0.1324
 4026SOL    HW113048   4.880   5.206   1.874  0.8690 -0.0696 -0.0051
 4026SOL    HW213049   4.853   5.273   2.007  1.3507  1.2169 -0.5348
 4027SOL     OW13050   5.379   0.546   1.231 -0.0080 -0.5249 -0.4803
 4027SOL    HW113051   5.353   0.466   1.277  0.5919  0.4273  1.6260
 4027SOL    HW213052   5.322   0.614   1.267  1.8884  0.6408  0.4614
 4028SOL     OW13053   4.720   4.673   3.420  0.6500 -0.2150  0.5558
 4028SOL    HW113054   4.634   4.632   3.429  0.9159 -0.3769  2.9197
 4028SOL    HW213055   4.739   4.668   3.326 -2.1509  0.3605 -0.1578
 4029SOL     OW13056   0.628   0.539   0.498  0.1978  0.2537  0.1905
 4029SOL    HW113057   0.599   0.611   0.443 -0.2805 -0.9496 -1.2074
 4029SOL    HW213058   0.548   0.488   0.515  0.6555 -0.3665  0.5197
 4030SOL     OW13059   1.139   1.601   0.076  0.3508 -0.5810  0.3324
 4030SOL    HW113060   1.092   1.555   0.146 -1.7540 -1.3676 -1.4598
 4030SOL    HW213061   1.134   1.694   0.100  0.4878 -0.8976  1.6485
 4031SOL     OW13062   4.715   2.730   0.966  0.4064 -0.5510  0.8350
 4031SOL    HW113063   4.634   2.689   0.935  0.3104 -0.1300  0.5176
 4031SOL    HW213064   4.709   2.821   0.935  0.5762 -0.2734  1.6081
 4032SOL     OW13065   1.212   0.224   5.517  0.0862  0.2530 -0.1669
 4032SOL    HW113066   1.146   0.235   5.585 -0.2042  1.0078 -0.5546
 4032SOL    HW213067   1.161   0.219   5.435  0.5263  2.0612 -0.6002
 4033SOL     OW13068   1.348   6.294   0.163  0.2671 -0.1380  0.2185
 4033SOL    HW113069   1.369   6.376   0.207 -2.2387  1.5929 -1.5472
 4033SOL    HW213070   1.253   6.290   0.164  0.2429 -1.7270 -2.0394
 4034SOL     OW13071   2.232   5.860   4.680  0.4457  0.1763 -0.3407
 4034SOL    HW113072   2.161   5.917   4.710  0.3704  1.0028 -1.9973
 4034SOL    HW213073   2.279   5.911   4.614 -0.7754 -2.2751 -3.3467
 4035SOL     OW13074   2.174   2.137   3.046  0.5438 -0.3560  0.3037
 4035SOL    HW113075   2.165   2.133   3.141  0.0050 -1.1133  0.2243
 4035SOL    HW213076   2.268   2.129   3.031  0.6226 -0.3186  0.7666
 4036SOL     OW13077   2.184   5.401   7.196  0.1390  0.1114 -0.0370
 4036SOL    HW113078   2.165   5.390   7.103 -0.6577  0.1567  0.1145
 4036SOL    HW213079   2.129   5.337   7.240  1.1550 -0.5114  0.3623
 4037SOL     OW13080   6.620   6.875   2.952 -0.5294 -0.1914 -0.5139
 4037SOL    HW113081   6.621   6.788   2.992  0.6920 -0.3406 -0.8358
 4037SOL    HW213082   6.573   6.864   2.870 -1.4574 -0.2682  0.0110
 4038SOL     OW13083   1.271   1.207   3.920 -0.0559  0.0611  0.5634
 4038SOL    HW113084   1.285   1.126   3.969 -3.2208 -1.4690 -0.8112
 4038SOL    HW213085   1.244   1.271   3.987  3.2148  0.3653  1.7784
 4039SOL     OW13086   1.031   1.952   3.479 -0.3537 -0.1680  0.1175
 4039SOL    HW113087   0.990   2.031   3.513 -2.1357 -1.1603  0.3984
 4039SOL    HW213088   1.013   1.954   3.385  0.3013  0.1372 -0.0090
 4040SOL     OW13089   5.997   5.033   3.142  0.2738  0.0486  0.2788
 4040SOL    HW113090   6.051   5.111   3.146 -0.4265  0.6603 -1.3271
 4040SOL    HW213091   5.951   5.040   3.058 -1.5609 -0.9131  1.1520
 4041SOL     OW13092   2.339   5.061   5.136  0.6666 -0.3876  0.3487
 4041SOL    HW113093   2.284   5.018   5.071  1.1362  0.0130 -0.3152
 4041SOL    HW213094   2.280   5.077   5.210 -0.4606  1.1457 -0.8228
 4042SOL     OW13095   6.312   4.946   3.299 -0.3368  0.1322  0.0631
 4042SOL    HW113096   6.279   4.860   3.273 -0.6747  0.7330 -1.6265
 4042SOL    HW213097   6.331   4.991   3.216  0.5949  1.3951  0.9195
 4043SOL     OW13098   5.653   3.481   1.884 -0.1353  0.4386  0.1053
 4043SOL    HW113099   5.722   3.536   1.921 -1.4334  1.4060  1.2059
 4043SOL    HW213100   5.673   3.393   1.916  0.9488  0.5681 -0.1684
 4044SOL     OW13101   2.211   0.430   1.535 -0.0406 -0.2374  0.4479
 4044SOL    HW113102   2.216   0.361   1.601 -2.8185 -0.5779  0.4282
 4044SOL    HW213103   2.165   0.389   1.461 -1.2167  1.4204  0.2027
 4045SOL     OW13104   5.717   3.765   5.245  0.1543 -0.1470  0.0138
 4045SOL    HW113105   5.665   3.813   5.182 -1.1798 -2.8278 -1.0602
 4045SOL    HW213106   5.801   3.750   5.201  1.2560  2.4918  1.0083
 4046SOL     OW13107   2.469   1.334   6.381  0.4946 -0.1760 -0.3323
 4046SOL    HW113108   2.541   1.280   6.413 -0.2480 -0.7287  0.4718
 4046SOL    HW213109   2.396   1.314   6.440 -0.3713  0.2420 -1.2265
 4047SOL     OW13110   1.304   3.164   2.502  0.2996  0.2174 -0.2555
 4047SOL    HW113111   1.387   3.118   2.509  0.6126  1.0603  2.7535
 4047SOL    HW213112   1.255   3.114   2.436  2.2620 -1.7180 -0.3730
 4048SOL     OW13113   6.225   4.282   5.328 -0.1457  0.4852 -0.1490
 4048SOL    HW113114   6.203   4.298   5.236  0.1872 -0.1093 -0.3358
 4048SOL    HW213115   6.184   4.198   5.348  1.2307 -0.2588 -0.2775
 4049SOL     OW13116   3.787   4.095   0.699 -0.0463  0.5301 -0.0611
 4049SOL    HW113117   3.718   4.105   0.634 -1.6245 -0.3513  1.3969
 4049SOL    HW213118   3.762   4.155   0.769  2.7326  3.0809 -1.0240
 4050SOL     OW13119   3.502   6.089   0.338  0.0803  0.6704  0.5196
 4050SOL    HW113120   3.447   6.050   0.270  0.3256  0.8778  0.1942
 4050SOL    HW213121   3.536   6.169   0.297  0.5617  0.5839  0.7383
 4051SOL     OW13122   6.148   5.409   1.406  0.3632  0.1748  0.0203
 4051SOL    HW113123   6.078   5.468   1.434  0.3789  0.4561 -0.5350
 4051SOL    HW213124   6.208   5.464   1.357  0.7918 -0.1421  0.1852
 4052SOL     OW13125   6.681   5.202   0.822  0.1508  0.0069 -0.6589
 4052SOL    HW113126   6.760   5.248   0.848 -0.8201  1.4213 -0.0519
 4052SOL    HW213127   6.643   5.257   0.753  1.2544 -2.2576 -3.3022
 4053SOL     OW13128   1.972   1.993   1.357 -0.2371  0.8218 -0.1250
 4053SOL    HW113129   1.973   2.014   1.451  0.4434  0.2792  0.0056
 4053SOL    HW213130   2.040   1.926   1.348 -0.0629  1.1173 -1.0651
 4054SOL     OW13131   5.443   2.565   2.843 -0.0154 -0.2595 -0.5728
 4054SOL    HW113132   5.535   2.571   2.869 -0.1063 -2.1389  0.3460
 4054SOL    HW213133   5.440   2.606   2.757  1.4725  0.7697 -0.1735
 4055SOL     OW13134   0.259   5.293   1.472 -0.2322 -0.4526 -0.4117
 4055SOL    HW113135   0.233   5.246   1.393  1.2875  0.5701 -1.5633
 4055SOL    HW213136   0.248   5.385   1.451  1.5785 -0.0992  0.0153
 4056SOL     OW13137   5.455   3.363   4.787  0.2342 -0.4094  0.5492
 4056SOL    HW113138   5.379   3.416   4.762  0.0425 -0.8094  0.2660
 4056SOL    HW213139   5.471   3.307   4.710  2.1594  1.1652 -0.2977
 4057SOL     OW13140   3.870   3.213   0.504 -0.2790  0.6352  0.4177
 4057SOL    HW113141   3.961   3.187   0.512 -0.4619 -0.3796 -0.5565
 4057SOL    HW213142   3.828   3.179   0.584  0.1561  0.9792  0.7972
 4058SOL     OW13143   3.747   5.818   2.693 -0.0660  0.7026  0.2059
 4058SOL    HW113144   3.748   5.735   2.741  1.0387  0.9600  0.6598
 4058SOL    HW213145   3.727   5.884   2.758 -0.1152  0.8835  0.0096
 4059SOL     OW13146   2.766   4.201   3.971  0.2182 -0.2139 -0.1388
 4059SOL    HW113147   2.765   4.217   3.877 -0.1841  0.4182 -0.0313
 4059SOL    HW213148   2.757   4.106   3.980 -1.3899 -0.1422 -0.7020
 4060SOL     OW13149   1.204   1.875   5.525 -0.1305 -0.4477  0.7621
 4060SOL    HW113150   1.290   1.887   5.484  0.3472  0.3844  1.9449
 4060SOL    HW213151   1.142   1.913   5.462  0.1611 -2.4185 -0.8080
 4061SOL     OW13152   3.637   0.315   5.381 -0.4664 -0.2930  0.0004
 4061SOL    HW113153   3.666   0.380   5.317 -2.5623  1.3107  0.5997
 4061SOL    HW213154   3.544   0.304   5.364 -0.7224 -1.1101  1.6957
 4062SOL     OW13155   5.356   0.225   2.379  0.9719 -0.1608 -0.0533
 4062SOL    HW113156   5.316   0.215   2.293  2.4145 -1.7645 -0.5921
 4062SOL    HW213157   5.405   0.308   2.373 -0.0104  0.4238 -0.2854
 4063SOL     OW13158   1.408   7.179   2.906 -0.2908 -0.0713  0.2051
 4063SOL    HW113159   1.441   7.091   2.923  0.6776  0.4085  0.9462
 4063SOL    HW213160   1.319   7.178   2.941  0.1294 -0.4263  1.3108
 4064SOL     OW13161   5.643   4.343   2.078  0.9400  0.0443 -0.3434
 4064SOL    HW113162   5.634   4.434   2.049 -0.0161  0.0013 -0.2205
 4064SOL    HW213163   5.696   4.349   2.158 -1.8315  0.9027  1.5755
 4065SOL     OW13164   6.389   3.138   0.489  0.6257  0.1893 -0.3312
 4065SOL    HW113165   6.379   3.165   0.580 -0.0110 -1.5454  0.1662
 4065SOL    HW213166   6.412   3.045   0.494 -3.1313 -1.0430 -1.8894
 4066SOL     OW13167   5.384   4.937   2.237  0.6633 -0.4563 -0.3330
 4066SOL    HW113168   5.370   4.843   2.242 -1.9652 -0.0857  0.4580
 4066SOL    HW213169   5.350   4.962   2.151 -0.1147 -0.0372  0.0856
 4067SOL     OW13170   4.242   0.896   3.789 -0.5876  0.2944  0.6700
 4067SOL    HW113171   4.252   0.838   3.714 -0.7480  0.2984  0.6463
 4067SOL    HW213172   4.202   0.976   3.754 -2.6269 -0.4773  1.0924
 4068SOL     OW13173   4.351   3.751   3.973 -0.2427 -0.6136  0.0109
 4068SOL    HW113174   4.370   3.680   4.034  0.3500 -0.7280 -0.3003
 4068SOL    HW213175   4.356   3.830   4.027 -0.9853 -0.8101  0.3749
 4069SOL     OW13176   1.294   2.313   5.179  0.3967  0.3050  0.2642
 4069SOL    HW113177   1.265   2.233   5.134  0.1182  0.8076 -0.4732
 4069SOL    HW213178   1.235   2.320   5.254 -0.7545  0.7498 -0.6407
 4070SOL     OW13179   3.034   2.748   0.569 -0.2745 -0.5253  0.0523
 4070SOL    HW113180   2.994   2.830   0.538 -2.2196 -1.4109  0.0958
 4070SOL    HW213181   3.128   2.764   0.563 -0.5525  2.2901  1.5752
 4071SOL     OW13182   3.406   1.263   2.270 -0.1589  0.0404  0.0286
 4071SOL    HW113183   3.416   1.354   2.297  0.5992 -0.6164  2.0845
 4071SOL    HW213184   3.364   1.220   2.344 -1.6026 -1.0808 -1.3732
 4072SOL     OW13185   4.221   4.966   3.659 -0.3508 -0.1304  0.1750
 4072SOL    HW113186   4.146   5.016   3.627 -0.4541 -0.7226 -0.5608
 4072SOL    HW213187   4.297   5.008   3.620 -0.4384 -0.5379 -0.4556
 4073SOL     OW13188   5.159   5.845   2.785 -0.0404  0.2609  0.1930
 4073SOL    HW113189   5.204   5.848   2.701  2.0460 -0.2517  1.2025
 4073SOL    HW213190   5.229   5.857   2.849 -1.2977 -1.0225  1.9115
 4074SOL     OW13191   3.054   5.207   6.911  0.8930 -0.6094  0.7261
 4074SOL    HW113192   3.070   5.192   6.818  0.6954 -1.2156  0.7854
 4074SOL    HW213193   2.974   5.158   6.930  0.9206 -0.4745  1.2147
 4075SOL     OW13194   6.753   2.989   3.864  0.5226 -0.2627  0.0678
 4075SOL    HW113195   6.804   2.993   3.945  0.1745 -0.0428  0.2829
 4075SOL    HW213196   6.695   2.913   3.875  3.2370 -2.7863 -1.6686
 4076SOL     OW13197   0.438   3.616   2.729 -0.3489  0.3184  0.1023
 4076SOL    HW113198   0.470   3.527   2.715  1.1343  0.7316  0.7337
 4076SOL    HW213199   0.410   3.616   2.821 -0.6535  0.4326  0.0119
 4077SOL     OW13200   2.824   3.709   1.689  0.3448  0.5583 -0.3019
 4077SOL    HW113201   2.792   3.632   1.736  0.7814  0.6972  0.2271
 4077SOL    HW213202   2.919   3.707   1.700  0.2958  1.6343  0.4513
 4078SOL     OW13203   3.849   1.908   3.618 -0.2821  0.0572 -0.2549
 4078SOL    HW113204   3.799   1.911   3.537  0.1174  0.1012 -0.5000
 4078SOL    HW213205   3.807   1.839   3.670  2.3807 -3.6382 -2.4602
 4079SOL     OW13206   0.746   1.817   1.681 -0.2146 -0.1228 -0.0357
 4079SOL    HW113207   0.731   1.867   1.602 -0.0862 -0.3436 -0.2013
 4079SOL    HW213208   0.688   1.741   1.672 -0.6831  0.1797  0.3833
 4080SOL     OW13209   2.456   3.419   7.267 -0.1980  0.0302 -0.0446
 4080SOL    HW113210   2.539   3.386   7.300 -0.2739  0.0914  0.2107
 4080SOL    HW213211   2.390   3.362   7.307 -0.3059  0.2590  0.1048
 4081SOL     OW13212   2.709   4.742   5.161 -0.2685 -0.1713  0.0117
 4081SOL    HW113213   2.749   4.815   5.208  1.4005  0.1588 -1.7729
 4081SOL    HW213214   2.661   4.784   5.089  2.8715 -0.7473 -2.6587
 4082SOL     OW13215   6.737   2.397   4.814 -0.5379  0.2873 -0.0180
 4082SOL    HW113216   6.744   2.470   4.753 -0.4510  0.1698 -0.1508
 4082SOL    HW213217   6.806   2.412   4.878 -0.7820  0.5375  0.1895
 4083SOL     OW13218   3.156   6.901   7.184  0.0597 -0.4805  0.1256
 4083SOL    HW113219   3.135   6.918   7.276  0.8250 -2.2750  0.6723
 4083SOL    HW213220   3.106   6.822   7.163  0.1365 -0.2565 -0.9109
 4084SOL     OW13221   2.207   5.403   5.371  0.1899  0.7739 -0.1411
 4084SOL    HW113222   2.301   5.410   5.387  1.1242  0.4997 -4.3869
 4084SOL    HW213223   2.195   5.316   5.333 -1.6298  1.1426 -0.5126
 4085SOL     OW13224   7.017   7.024   2.922  0.6050 -0.1100  0.1496
 4085SOL    HW113225   6.923   7.035   2.932  0.6621  0.2527  0.3206
 4085SOL    HW213226   7.047   7.108   2.887  0.8505 -0.2610 -0.0062
 4086SOL     OW13227   3.435   1.039   7.179  0.1043 -0.3459  0.6389
 4086SOL    HW113228   3.416   0.990   7.259  0.4467 -2.1763 -0.3559
 4086SOL    HW213229   3.478   1.119   7.210 -1.3333 -0.1805  2.3657
 4087SOL     OW13230   6.774   3.614   3.918  0.2589  0.4331 -0.5915
 4087SOL    HW113231   6.860   3.618   3.960 -0.8382  2.0108  1.7003
 4087SOL    HW213232   6.751   3.521   3.921  0.5675  0.3628  1.7468
 4088SOL     OW13233   2.722   2.611   6.919 -0.1726 -0.3140  0.3405
 4088SOL    HW113234   2.679   2.575   6.841  1.6673 -0.3549 -0.7080
 4088SOL    HW213235   2.695   2.703   6.921  1.6058  0.3567 -1.8113
 4089SOL     OW13236   4.310   5.221   5.907 -0.1011 -0.2796 -0.2445
 4089SOL    HW113237   4.359   5.299   5.881  0.4686 -0.4646  0.2672
 4089SOL    HW213238   4.376   5.152   5.910 -0.8002 -1.0953 -1.9769
 4090SOL     OW13239   0.836   7.135   6.699 -0.0460 -0.4365 -0.3297
 4090SOL    HW113240   0.881   7.220   6.696  2.2096 -1.5989 -1.6352
 4090SOL    HW213241   0.795   7.133   6.786  0.1844  1.8019 -0.1052
 4091SOL     OW13242   2.400   3.115   3.781  0.2410 -0.4964 -0.4503
 4091SOL    HW113243   2.374   3.206   3.763 -1.7921 -1.3274 -2.1576
 4091SOL    HW213244   2.329   3.080   3.835  1.6175 -0.7731  1.2444
 4092SOL     OW13245   3.314   6.880   1.079  0.1145 -0.6444  0.1252
 4092SOL    HW113246   3.278   6.828   1.007  0.0697  2.0324 -1.9145
 4092SOL    HW213247   3.257   6.860   1.154 -0.3988 -2.8220 -0.7698
 4093SOL     OW13248   1.634   0.161   4.718  0.2884 -0.7546  0.3547
 4093SOL    HW113249   1.645   0.254   4.701 -0.2525 -0.6757  0.4116
 4093SOL    HW213250   1.567   0.157   4.787 -0.3852 -1.2151 -0.3037
 4094SOL     OW13251   4.812   2.363   0.755 -0.2404 -0.0961  0.1348
 4094SOL    HW113252   4.719   2.377   0.772 -0.2118  0.0957  0.1391
 4094SOL    HW213253   4.831   2.418   0.678 -0.0075  0.3074  0.4739
 4095SOL     OW13254   1.064   4.004   0.583  0.7075 -0.4476  0.5257
 4095SOL    HW113255   1.155   3.979   0.600  0.8567  0.6505  1.4409
 4095SOL    HW213256   1.052   4.086   0.631 -0.1600  0.5315 -1.2812
 4096SOL     OW13257   1.270   4.448   0.657  0.6582 -0.4947 -0.2830
 4096SOL    HW113258   1.345   4.501   0.629 -0.9780  1.0427 -2.1003
 4096SOL    HW213259   1.232   4.497   0.730  0.6177 -0.5258 -0.2833
 4097SOL     OW13260   4.300   2.504   5.308  0.5232 -0.2649 -0.2745
 4097SOL    HW113261   4.262   2.573   5.363 -0.2027  0.7249 -1.9552
 4097SOL    HW213262   4.393   2.503   5.331  0.8473  2.2799 -1.2070
 4098SOL     OW13263   5.862   2.621   1.814  0.2326 -0.1234  0.0016
 4098SOL    HW113264   5.791   2.566   1.779 -0.5997  0.4108  0.8078
 4098SOL    HW213265   5.824   2.709   1.817  1.3818  0.4207 -0.7916
 4099SOL     OW13266   2.241   2.966   5.008 -0.4461  0.4724  0.1605
 4099SOL    HW113267   2.228   2.892   5.067 -0.9322  0.1908 -0.2882
 4099SOL    HW213268   2.323   3.006   5.036  1.8083 -2.3800 -1.8442
 4100SOL     OW13269   5.918   6.501   7.375 -0.4743  0.5278 -0.3267
 4100SOL    HW113270   5.966   6.539   7.301 -0.0547  0.9593  0.1673
 4100SOL    HW213271   5.827   6.495   7.344 -0.5604  1.9917 -0.3943
 4101SOL     OW13272   7.256   1.576   0.665 -0.7992 -0.0922 -0.0319
 4101SOL    HW113273   7.213   1.590   0.580 -0.9370  0.1575  0.0783
 4101SOL    HW213274   7.245   1.659   0.712  2.3955  1.0753 -1.1099
 4102SOL     OW13275   4.523   0.225   5.855 -0.3167 -0.1713  0.2218
 4102SOL    HW113276   4.588   0.208   5.923  0.0641 -0.8125 -0.2862
 4102SOL    HW213277   4.557   0.179   5.778 -0.7346  0.5473 -0.4012
 4103SOL     OW13278   1.999   5.509   5.507 -0.1262 -0.2238  0.1426
 4103SOL    HW113279   2.009   5.594   5.550 -0.1116 -0.5474  0.7905
 4103SOL    HW213280   2.079   5.499   5.455 -0.0524  0.0847  0.1921
 4104SOL     OW13281   4.486   3.251   0.849  0.0756  0.0301  0.0821
 4104SOL    HW113282   4.558   3.297   0.891 -1.3479  0.9982  1.5759
 4104SOL    HW213283   4.433   3.217   0.921 -0.7253 -1.0789 -0.9764
 4105SOL     OW13284   5.344   2.563   3.784  0.4821  0.1482  0.0882
 4105SOL    HW113285   5.388   2.631   3.734 -0.2615 -0.1568 -1.0086
 4105SOL    HW213286   5.387   2.481   3.757  0.5733  0.0536  0.5082
 4106SOL     OW13287   3.337   5.834   4.705 -0.3867 -0.1956  0.0600
 4106SOL    HW113288   3.261   5.792   4.747 -0.2758 -1.1616 -0.6653
 4106SOL    HW213289   3.315   5.833   4.611  0.1184  0.3774 -0.0673
 4107SOL     OW13290   3.361   2.003   1.566 -0.0289 -0.2520 -0.4222
 4107SOL    HW113291   3.392   2.086   1.529  2.0932 -0.6557  0.3204
 4107SOL    HW213292   3.436   1.968   1.614 -0.9954 -2.4176 -0.3601
 4108SOL     OW13293   0.197   1.289   6.369 -0.7714 -0.1760  0.0012
 4108SOL    HW113294   0.237   1.228   6.307 -1.3135 -0.1524 -0.3776
 4108SOL    HW213295   0.184   1.238   6.449 -1.0996 -0.5212 -0.2700
 4109SOL     OW13296   4.104   2.482   0.590  0.7907  0.0997  0.0229
 4109SOL    HW113297   4.158   2.429   0.649 -0.2645 -1.7282 -0.5584
 4109SOL    HW213298   4.066   2.418   0.530 -1.6358  1.3403  0.1290
 4110SOL     OW13299   4.612   2.257   5.616  0.3423 -0.0860  0.2621
 4110SOL    HW113300   4.679   2.194   5.589 -0.7214 -1.2754  0.3011
 4110SOL    HW213301   4.661   2.335   5.642  1.7692 -1.3327  1.4393
 4111SOL     OW13302   4.492   3.971   5.545 -0.6923 -0.2679  0.2269
 4111SOL    HW113303   4.446   3.888   5.560 -1.5390  0.1322 -0.0857
 4111SOL    HW213304   4.488   3.984   5.451 -3.3062  1.6058  0.4733
 4112SOL     OW13305   2.846   6.134   2.742 -0.2478  0.6139 -0.1407
 4112SOL    HW113306   2.864   6.153   2.834  0.6219 -0.0650 -0.1541
 4112SOL    HW213307   2.863   6.216   2.696 -1.4873  1.2018  0.3749
 4113SOL     OW13308   4.780   1.334   2.534 -0.0808  0.0795  0.8553
 4113SOL    HW113309   4.807   1.395   2.602 -1.5474  0.7208  0.8957
 4113SOL    HW213310   4.862   1.295   2.503  0.6250 -0.2145  2.9287
 4114SOL     OW13311   1.549   3.067   1.622  0.0847 -0.2906 -0.7289
 4114SOL    HW113312   1.582   2.979   1.603  1.8323  0.1394  0.1477
 4114SOL    HW213313   1.545   3.071   1.717  0.9081  0.8744 -0.7230
 4115SOL     OW13314   7.186   2.382   4.949 -0.4209 -0.5716  0.1514
 4115SOL    HW113315   7.219   2.444   5.014 -2.4964 -0.8980  1.6067
 4115SOL    HW213316   7.132   2.435   4.891  1.5990 -0.2416 -1.5324
 4116SOL     OW13317   4.299   1.724   0.337 -0.5209 -0.0667 -0.2005
 4116SOL    HW113318   4.286   1.810   0.378  1.1490 -0.5240  1.4649
 4116SOL    HW213319   4.252   1.663   0.394  0.9157 -0.5789  0.5022
 4117SOL     OW13320   1.884   4.215   6.001  0.0041 -0.1476 -0.0306
 4117SOL    HW113321   1.789   4.222   5.996 -0.0750 -0.8525  0.3349
 4117SOL    HW213322   1.900   4.158   6.077  0.6089 -2.2121 -1.6105
 4118SOL     OW13323   0.817   6.881   6.560 -0.0057  0.3700  0.3619
 4118SOL    HW113324   0.726   6.893   6.534  0.3421 -0.0714 -1.1733
 4118SOL    HW213325   0.841   6.963   6.602 -0.4778  1.3872 -1.2457
 4119SOL     OW13326   4.466   0.871   3.968  0.3429 -0.5336  0.5740
 4119SOL    HW113327   4.462   0.793   4.024  1.4212 -0.9373  0.1123
 4119SOL    HW213328   4.388   0.866   3.913 -0.3529 -0.5096  1.5279
 4120SOL     OW13329   2.718   2.578   3.779 -0.4372  0.2257 -0.2083
 4120SOL    HW113330   2.716   2.578   3.875  1.6319 -1.0103 -0.1241
 4120SOL    HW213331   2.808   2.600   3.757 -1.5061  3.4247 -1.9951
 4121SOL     OW13332   0.532   3.609   3.231 -0.1299  0.1155 -0.2034
 4121SOL    HW113333   0.609   3.560   3.258 -1.5829 -2.4296 -0.3823
 4121SOL    HW213334   0.482   3.622   3.311 -0.4198  0.0789 -0.3763
 4122SOL     OW13335   6.480   2.604   0.985  0.3634 -0.0651 -0.0065
 4122SOL    HW113336   6.394   2.612   0.944  0.3221  0.2499  0.1346
 4122SOL    HW213337   6.464   2.617   1.078  0.6294  0.4938 -0.0344
 4123SOL     OW13338   7.184   6.305   1.091  0.0032 -0.0318 -0.1244
 4123SOL    HW113339   7.101   6.258   1.085  0.1446 -0.2222 -0.6743
 4123SOL    HW213340   7.241   6.261   1.027  0.6325 -0.1213  0.4890
 4124SOL     OW13341   7.059   6.201   2.242  0.1557 -0.6252  0.0220
 4124SOL    HW113342   6.991   6.168   2.183 -0.2540 -0.9609  0.6715
 4124SOL    HW213343   7.098   6.274   2.194  0.2160 -1.2408 -0.8976
 4125SOL     OW13344   2.503   3.969   6.299 -0.1750  0.1117 -0.2846
 4125SOL    HW113345   2.512   4.049   6.351 -1.6968  0.8606 -1.1025
 4125SOL    HW213346   2.425   3.984   6.244  0.9389 -0.9116 -2.2763
 4126SOL     OW13347   0.502   5.752   0.659 -0.3598  0.0602 -0.2943
 4126SOL    HW113348   0.452   5.729   0.737 -0.2425 -0.0746 -0.2579
 4126SOL    HW213349   0.449   5.819   0.616 -0.7599 -0.3596 -0.4609
 4127SOL     OW13350   1.977   0.913   0.277 -0.2058 -0.2489  0.2154
 4127SOL    HW113351   1.944   0.891   0.190 -1.9601  0.7257  0.5859
 4127SOL    HW213352   2.071   0.892   0.273 -0.5794 -1.9017 -1.3183
 4128SOL     OW13353   5.032   6.865   3.538  0.3628 -0.1826  0.1895
 4128SOL    HW113354   5.059   6.956   3.528 -1.2566  0.2097 -1.2513
 4128SOL    HW213355   5.100   6.824   3.592  1.7428  1.5761 -0.1502
 4129SOL     OW13356   6.786   5.439   3.641 -0.1372  0.2907 -0.1612
 4129SOL    HW113357   6.845   5.510   3.616  0.5215 -0.4376 -0.7231
 4129SOL    HW213358   6.747   5.468   3.724  0.2770  1.2094 -0.2824
 4130SOL     OW13359   2.086   0.319   5.864  0.3677 -0.7638 -0.2921
 4130SOL    HW113360   2.027   0.259   5.818 -1.3159  1.4114 -1.1743
 4130SOL    HW213361   2.045   0.330   5.950  0.2388 -0.3271 -0.4053
 4131SOL     OW13362   5.813   5.052   1.844 -0.0973 -0.3403 -0.2847
 4131SOL    HW113363   5.779   4.968   1.875 -0.1631  0.3795  1.7413
 4131SOL    HW213364   5.738   5.111   1.846  0.2306  0.0929 -0.3993
 4132SOL     OW13365   1.923   0.627   2.115  0.2012  0.0741  0.1598
 4132SOL    HW113366   1.908   0.564   2.045  1.6799 -0.3515  0.2026
 4132SOL    HW213367   2.016   0.646   2.112 -0.0139  1.3960  0.8940
 4133SOL     OW13368   6.368   6.377   5.531  0.3991 -0.3013 -0.4937
 4133SOL    HW113369   6.397   6.404   5.444  1.4684 -0.3574 -0.1666
 4133SOL    HW213370   6.449   6.360   5.579 -0.1986 -1.3237  0.1828
 4134SOL     OW13371   5.421   2.068   2.077  0.2863  0.5334  0.0712
 4134SOL    HW113372   5.457   2.101   2.159  1.5859  2.2462 -1.1124
 4134SOL    HW213373   5.450   2.131   2.011  1.2160 -1.9548 -2.0603
 4135SOL     OW13374   2.700   4.726   1.417 -0.0523 -0.0693  0.2871
 4135SOL    HW113375   2.739   4.669   1.351 -2.4517 -0.9294 -0.5005
 4135SOL    HW213376   2.652   4.666   1.475 -0.1381  0.9057  1.2540
 4136SOL     OW13377   3.353   1.260   5.959  0.4532  0.1019  0.7054
 4136SOL    HW113378   3.393   1.335   6.004  0.4416  1.1557 -0.9330
 4136SOL    HW213379   3.274   1.240   6.009  0.4070  1.2628  1.1219
 4137SOL     OW13380   2.920   3.020   0.854 -0.1119 -0.1976 -0.1338
 4137SOL    HW113381   2.871   3.096   0.821  0.1867  0.3249  0.5999
 4137SOL    HW213382   3.009   3.053   0.867 -0.0125 -0.6400  0.3156
 4138SOL     OW13383   2.479   2.149   6.049  0.0424 -0.5905  0.2926
 4138SOL    HW113384   2.562   2.102   6.050  0.4599  0.1208  1.3344
 4138SOL    HW213385   2.433   2.120   6.128 -0.5372 -0.6844 -0.0703
 4139SOL     OW13386   2.757   5.373   2.637 -0.5153 -0.1103  0.0424
 4139SOL    HW113387   2.762   5.402   2.546  0.0513  0.4713  0.2517
 4139SOL    HW213388   2.774   5.279   2.632 -1.9718 -0.3782 -0.5987
 4140SOL     OW13389   0.928   6.015   6.808  0.0193  0.1128 -0.6699
 4140SOL    HW113390   1.012   6.061   6.805 -0.3734  0.8288 -1.2291
 4140SOL    HW213391   0.876   6.058   6.740 -0.8705 -0.1806 -0.1797
 4141SOL     OW13392   5.872   5.493   3.165 -0.2554  0.5071 -0.0802
 4141SOL    HW113393   5.790   5.444   3.173  0.3249 -0.6871 -1.1947
 4141SOL    HW213394   5.898   5.481   3.074  0.7137  1.6159  0.0297
 4142SOL     OW13395   2.540   2.775   5.504  0.2799 -0.2304  0.5375
 4142SOL    HW113396   2.525   2.759   5.597 -1.3104 -0.1378  0.3143
 4142SOL    HW213397   2.595   2.702   5.476  0.8548 -0.2103  1.5570
 4143SOL     OW13398   1.965   4.712   2.549 -0.2999 -0.3572  0.0902
 4143SOL    HW113399   1.909   4.639   2.523  0.2522 -0.7930  0.1066
 4143SOL    HW213400   2.051   4.689   2.516 -0.8218  2.2560 -3.7871
 4144SOL     OW13401   5.153   0.290   0.409  0.0660  0.7841 -0.2840
 4144SOL    HW113402   5.085   0.225   0.425  0.3937  0.5129  0.0043
 4144SOL    HW213403   5.193   0.263   0.326  1.7582 -0.7533  0.9554
 4145SOL     OW13404   6.473   2.987   2.387  1.3899  0.5855  0.2188
 4145SOL    HW113405   6.407   3.045   2.423  0.5281 -1.1342  1.5774
 4145SOL    HW213406   6.510   2.942   2.463  1.0428 -1.5989 -0.8270
 4146SOL     OW13407   6.031   2.322   5.872 -0.1287  0.0972 -0.2435
 4146SOL    HW113408   6.085   2.348   5.798  1.0154 -1.4152  0.0075
 4146SOL    HW213409   6.039   2.394   5.934 -1.6893  1.7212 -1.8173
 4147SOL     OW13410   2.713   6.314   6.755 -0.4722  0.6282  0.4763
 4147SOL    HW113411   2.718   6.258   6.832 -0.4292  0.0715  0.0734
 4147SOL    HW213412   2.768   6.270   6.689 -3.0634 -0.6646 -0.9635
 4148SOL     OW13413   2.128   3.802   0.047 -0.1705 -0.8081 -0.0182
 4148SOL    HW113414   2.133   3.745  -0.030 -4.5179 -0.6111 -0.7165
 4148SOL    HW213415   2.094   3.746   0.116  1.0449 -0.3200  1.0139
 4149SOL     OW13416   2.352   1.788   0.596  0.0657 -0.4582 -0.5952
 4149SOL    HW113417   2.437   1.747   0.582 -0.8519 -3.1200  0.7781
 4149SOL    HW213418   2.350   1.806   0.690 -0.8031 -0.3012 -0.6388
 4150SOL     OW13419   5.032   7.062   1.839  0.0548  0.4722 -0.1466
 4150SOL    HW113420   4.976   7.139   1.850  0.2956  0.6687 -0.2928
 4150SOL    HW213421   4.974   6.987   1.854 -0.7203  0.5906 -2.2724
 4151SOL     OW13422   7.009   4.081   6.739 -0.4907 -0.1187  0.4061
 4151SOL    HW113423   6.941   4.099   6.804 -0.2440 -1.8126  1.1574
 4151SOL    HW213424   6.974   4.008   6.688  0.1682 -0.0616 -0.1365
 4152SOL     OW13425   2.392   4.182   2.184 -0.3067 -0.1697 -0.1763
 4152SOL    HW113426   2.412   4.199   2.276  0.4050 -0.2199 -0.3151
 4152SOL    HW213427   2.377   4.087   2.180  2.5961 -0.7146 -0.5968
 4153SOL     OW13428   5.882   4.538   6.692  0.0415  0.1609  0.2824
 4153SOL    HW113429   5.927   4.454   6.694 -0.1924  0.0452  0.8342
 4153SOL    HW213430   5.805   4.525   6.748 -0.2725  0.5815 -0.0476
 4154SOL     OW13431   5.541   1.013   4.216 -0.1147  0.5980 -0.4577
 4154SOL    HW113432   5.538   0.952   4.142 -1.0172  0.0755 -0.0070
 4154SOL    HW213433   5.603   0.973   4.277 -0.2949  0.4011 -0.4008
 4155SOL     OW13434   0.966   3.960   5.591  0.2596  0.1999 -0.3406
 4155SOL    HW113435   0.904   3.999   5.529 -0.1790 -0.2127 -0.1661
 4155SOL    HW213436   0.972   3.868   5.566  1.4007  0.3928 -0.8363
 4156SOL     OW13437   6.069   0.211   1.244 -0.6654  0.1508 -0.7915
 4156SOL    HW113438   6.010   0.214   1.320  1.5446 -0.3556  1.0662
 4156SOL    HW213439   6.094   0.119   1.237 -0.8597  0.1908 -2.1959
 4157SOL     OW13440   0.112   2.844   0.700  0.4483 -0.1352 -0.7304
 4157SOL    HW113441   0.076   2.765   0.660 -2.3813  0.9087 -0.4711
 4157SOL    HW213442   0.165   2.883   0.630 -0.1412 -1.0103 -1.7068
 4158SOL     OW13443   1.790   4.045   4.278  0.0651  0.3435  0.7062
 4158SOL    HW113444   1.857   3.978   4.270 -0.6039 -0.1330 -1.6806
 4158SOL    HW213445   1.808   4.106   4.206 -1.5036  0.6921  0.5713
 4159SOL     OW13446   5.123   7.206   6.004 -0.6060 -1.1951 -0.3798
 4159SOL    HW113447   5.150   7.297   5.987 -1.3508 -0.7828  0.5352
 4159SOL    HW213448   5.180   7.177   6.075 -0.4042 -1.4253 -0.6359
 4160SOL     OW13449   3.376   3.725   0.432  0.4871  0.1516  0.2072
 4160SOL    HW113450   3.330   3.808   0.417  1.0174  0.4179  0.0098
 4160SOL    HW213451   3.421   3.708   0.349  0.8217 -0.0545  0.4292
 4161SOL     OW13452   0.457   2.062   1.972 -0.0437 -0.3595 -0.3251
 4161SOL    HW113453   0.412   1.985   1.937  0.3041 -1.0462  0.6938
 4161SOL    HW213454   0.524   2.026   2.030 -0.6656  0.7391  1.1248
 4162SOL     OW13455   4.837   7.243   3.024  0.4153 -0.6664 -0.6231
 4162SOL    HW113456   4.899   7.202   2.963 -0.3590 -0.8336 -1.3251
 4162SOL    HW213457   4.864   7.335   3.027  0.7955 -0.7685 -0.7946
 4163SOL     OW13458   4.419   1.992   4.385  0.7047 -0.5408 -0.0354
 4163SOL    HW113459   4.336   2.036   4.404  1.7343  0.2667  3.2839
 4163SOL    HW213460   4.458   2.044   4.315  0.0251  1.4035  0.9364
 4164SOL     OW13461   5.853   1.477   6.258  0.4791 -0.0240  0.1508
 4164SOL    HW113462   5.869   1.399   6.204  2.4762  0.8132 -0.5311
 4164SOL    HW213463   5.932   1.486   6.312  0.3812  1.6681  0.0446
 4165SOL     OW13464   5.622   1.458   5.024 -0.3204 -0.1881 -0.1783
 4165SOL    HW113465   5.559   1.390   5.045 -0.8396 -0.0858 -1.3120
 4165SOL    HW213466   5.578   1.513   4.959  0.1048  1.2169  0.6846
 4166SOL     OW13467   0.409   0.531   1.411  0.2737 -0.0806 -0.7127
 4166SOL    HW113468   0.481   0.594   1.423  0.2320  0.3375 -2.3322
 4166SOL    HW213469   0.426   0.492   1.325 -0.2385 -1.6102 -0.1535
 4167SOL     OW13470   7.208   1.396   7.259 -0.1762 -0.4819 -0.0147
 4167SOL    HW113471   7.285   1.346   7.232 -0.5430 -0.4800 -1.1447
 4167SOL    HW213472   7.180   1.441   7.179 -1.4058 -0.5624  0.3571
 4168SOL     OW13473   1.252   4.474   4.238 -0.3725  0.6862  0.6917
 4168SOL    HW113474   1.327   4.461   4.179 -2.2806  2.0155 -2.2642
 4168SOL    HW213475   1.218   4.386   4.254 -0.0878  0.3139 -0.6469
 4169SOL     OW13476   5.918   6.671   2.101  0.2656 -0.3324 -0.5193
 4169SOL    HW113477   5.858   6.687   2.029 -0.1504  0.9478  0.0937
 4169SOL    HW213478   5.983   6.611   2.064 -1.0010 -1.2328 -1.3829
 4170SOL     OW13479   3.175   4.196   0.813 -0.1447 -0.2827  0.1293
 4170SOL    HW113480   3.210   4.281   0.787  1.5125 -0.8359  0.4106
 4170SOL    HW213481   3.143   4.157   0.732  0.2287  0.1045 -0.2082
 4171SOL     OW13482   3.290   0.925   5.984 -0.1905  0.2335 -0.4156
 4171SOL    HW113483   3.378   0.962   5.984 -0.8407  1.8477  0.2693
 4171SOL    HW213484   3.282   0.882   6.070  0.1406 -0.5109 -0.7433
 4172SOL     OW13485   7.247   4.598   6.065 -0.0574 -0.1363 -0.1308
 4172SOL    HW113486   7.213   4.686   6.054  0.4133  0.3115  1.6921
 4172SOL    HW213487   7.232   4.556   5.980 -1.2855  1.3313 -0.6904
 4173SOL     OW13488   6.910   1.892   2.547  0.2191  0.7095 -0.1712
 4173SOL    HW113489   6.999   1.922   2.528  0.5015 -0.2419 -0.4561
 4173SOL    HW213490   6.916   1.796   2.540 -0.7829  0.6263  0.0061
 4174SOL     OW13491   3.620   0.355   0.601 -0.1352  0.2159  0.2351
 4174SOL    HW113492   3.633   0.426   0.538 -1.1538 -0.5040 -0.8135
 4174SOL    HW213493   3.564   0.292   0.556  1.5568 -1.7657  0.7464
 4175SOL     OW13494   2.166   5.122   5.358  0.2425 -0.0011  0.4503
 4175SOL    HW113495   2.071   5.121   5.348  0.2802 -1.0030  0.1015
 4175SOL    HW213496   2.181   5.079   5.442  0.3859  0.2322  0.5442
 4176SOL     OW13497   1.523   1.629   2.474  0.3698 -0.0998 -0.3460
 4176SOL    HW113498   1.618   1.625   2.489  0.3138 -0.7941 -0.1502
 4176SOL    HW213499   1.514   1.678   2.392  0.8304  1.0320  0.2633
 4177SOL     OW13500   3.353   3.651   4.796  0.4408  0.1418  0.8937
 4177SOL    HW113501   3.354   3.573   4.852 -1.3695  0.8281  1.9851
 4177SOL    HW213502   3.442   3.686   4.802  0.1426  0.6577  4.1000
 4178SOL     OW13503   1.610   5.541   6.543 -0.5138  0.0783  0.1023
 4178SOL    HW113504   1.544   5.602   6.512 -0.8323  0.2040  0.9970
 4178SOL    HW213505   1.666   5.524   6.467 -0.2592  1.6872 -0.0980
 4179SOL     OW13506   4.154   5.089   3.267 -0.3713  0.2663  0.4120
 4179SOL    HW113507   4.209   5.015   3.291 -2.0370 -1.1232  0.1245
 4179SOL    HW213508   4.117   5.120   3.349  0.0422  0.5602  0.4906
 4180SOL     OW13509   3.217   5.879   4.180 -0.0697  0.2757  0.4571
 4180SOL    HW113510   3.174   5.959   4.150 -2.5802 -1.2554 -0.3498
 4180SOL    HW213511   3.228   5.826   4.101 -2.2541 -1.8057  1.4128
 4181SOL     OW13512   3.771   5.539   5.087 -0.4844  0.6739  0.3284
 4181SOL    HW113513   3.776   5.522   4.993 -0.4838  0.5196  0.3559
 4181SOL    HW213514   3.787   5.454   5.128  1.8915  1.1389  0.5239
 4182SOL     OW13515   1.399   1.427   3.597 -0.2931  0.5336  0.1450
 4182SOL    HW113516   1.315   1.440   3.642 -0.8686  0.7160 -0.9373
 4182SOL    HW213517   1.407   1.503   3.539  0.6658  0.5548  0.2955
 4183SOL     OW13518   5.156   6.803   4.648 -0.3137 -0.6940  0.0531
 4183SOL    HW113519   5.076   6.750   4.644 -0.1263 -1.3371  2.7072
 4183SOL    HW213520   5.124   6.893   4.657 -0.6424 -0.4666 -2.5896
 4184SOL     OW13521   1.844   6.928   3.233 -0.1881  0.3276 -0.7201
 4184SOL    HW113522   1.927   6.898   3.272 -0.8607 -0.1096  0.4173
 4184SOL    HW213523   1.845   7.023   3.246 -0.0515  0.2745 -0.3350
 4185SOL     OW13524   0.631   4.211   4.742 -0.0691 -0.1632 -0.1860
 4185SOL    HW113525   0.580   4.171   4.671 -0.0652  0.9984 -0.8551
 4185SOL    HW213526   0.706   4.250   4.699  0.5529 -0.4518  0.6099
 4186SOL     OW13527   0.686   2.889   4.927  0.5240  0.5501 -0.0302
 4186SOL    HW113528   0.758   2.860   4.872  0.2345  1.2411 -0.7923
 4186SOL    HW213529   0.675   2.819   4.992 -0.0941 -1.0239 -1.7270
 4187SOL     OW13530   2.329   3.177   0.339 -0.3278  0.1805  0.1466
 4187SOL    HW113531   2.271   3.101   0.349  0.2444 -0.1480  1.0504
 4187SOL    HW213532   2.363   3.169   0.250  1.1939 -1.6983  0.8324
 4188SOL     OW13533   4.899   4.771   2.733  0.3053  0.7078 -0.3631
 4188SOL    HW113534   4.811   4.809   2.736 -0.1364 -0.0117 -2.2349
 4188SOL    HW213535   4.886   4.678   2.753  0.9712  0.9689  1.4237
 4189SOL     OW13536   1.562   4.716   5.700 -0.1558  0.1113  0.4869
 4189SOL    HW113537   1.526   4.790   5.652  2.1837  0.5234 -0.7821
 4189SOL    HW213538   1.512   4.713   5.781 -1.1975  2.2425 -0.0181
 4190SOL     OW13539   1.197   3.637   3.444 -0.5781  0.6083 -0.5680
 4190SOL    HW113540   1.219   3.672   3.531 -2.7775  0.1668  0.2408
 4190SOL    HW213541   1.249   3.557   3.437  0.5567  1.2828 -0.2096
 4191SOL     OW13542   7.307   4.168   6.301  0.3914 -0.5514  0.6405
 4191SOL    HW113543   7.243   4.226   6.258  0.4425 -1.4430 -0.6817
 4191SOL    HW213544   7.341   4.221   6.373 -0.6358  0.5382  0.3765
 4192SOL     OW13545   1.207   1.137   6.971 -0.4618 -0.5110 -0.2349
 4192SOL    HW113546   1.179   1.220   7.009  1.6655  0.5762 -0.8597
 4192SOL    HW213547   1.233   1.083   7.046 -1.1090 -0.3367  0.1243
 4193SOL     OW13548   0.813   3.057   3.542 -0.4298  0.1736  0.1690
 4193SOL    HW113549   0.766   3.115   3.602 -0.9036 -0.7361  0.7090
 4193SOL    HW213550   0.905   3.082   3.551 -0.5851  0.5769  0.6854
 4194SOL     OW13551   3.576   6.644   3.586 -0.6550 -0.2082  0.2200
 4194SOL    HW113552   3.628   6.648   3.506  0.0011  1.3271  0.6847
 4194SOL    HW213553   3.637   6.611   3.652  0.4480  3.3742  1.2030
 4195SOL     OW13554   1.766   6.013   6.493  0.1269 -0.3566 -0.2731
 4195SOL    HW113555   1.706   6.036   6.422  0.3630  1.5011  0.0891
 4195SOL    HW213556   1.786   6.096   6.536 -1.0142 -1.5349  2.8117
 4196SOL     OW13557   6.303   0.287   3.529 -0.7091 -0.4718 -0.4121
 4196SOL    HW113558   6.283   0.315   3.618 -1.1504 -1.2900 -0.2496
 4196SOL    HW213559   6.220   0.257   3.493 -0.2339 -1.6836 -0.5412
 4197SOL     OW13560   4.302   0.884   1.095  0.3249  0.2283 -0.2267
 4197SOL    HW113561   4.388   0.856   1.128  1.0035  1.7139 -0.6521
 4197SOL    HW213562   4.266   0.806   1.053 -0.4620 -1.7272  3.5892
 4198SOL     OW13563   4.807   5.646   6.497  0.1444 -0.2048 -0.0747
 4198SOL    HW113564   4.809   5.741   6.489 -1.4836 -0.1938 -0.8248
 4198SOL    HW213565   4.857   5.627   6.576 -0.1980  1.3392  0.5344
 4199SOL     OW13566   1.257   7.375   6.905  0.3094 -0.3995  0.4703
 4199SOL    HW113567   1.346   7.372   6.939  0.5747  2.2939  0.2659
 4199SOL    HW213568   1.231   7.467   6.913 -2.1413 -0.9312 -0.2807
 4200SOL     OW13569   6.035   4.568   1.057 -0.4078 -0.2195 -0.1745
 4200SOL    HW113570   5.996   4.491   1.015 -0.7282 -0.8278  1.1925
 4200SOL    HW213571   6.127   4.566   1.028 -0.1885 -1.6287  0.4962
 4201SOL     OW13572   7.021   7.369   0.331  0.1634  0.0947 -0.4399
 4201SOL    HW113573   7.009   7.430   0.259 -1.8763 -0.9892 -1.0873
 4201SOL    HW213574   6.934   7.357   0.368  0.7694 -1.1924  0.6902
 4202SOL     OW13575   6.038   5.695   3.314  0.1038 -0.3117 -0.2478
 4202SOL    HW113576   5.973   5.726   3.377  0.8497  0.4139  0.1798
 4202SOL    HW213577   5.989   5.636   3.257 -1.0687  0.6577 -0.2913
 4203SOL     OW13578   3.778   4.623   1.431 -0.3514  0.3860  0.1521
 4203SOL    HW113579   3.688   4.613   1.402  0.1374 -0.1237 -1.2509
 4203SOL    HW213580   3.788   4.718   1.446 -0.6159  0.6872 -1.4429
 4204SOL     OW13581   3.916   5.153   0.586 -0.5281  0.4038  0.0182
 4204SOL    HW113582   3.914   5.182   0.495  1.0788  0.6886  0.0344
 4204SOL    HW213583   3.921   5.235   0.637  2.4957  0.2803  0.1325
 4205SOL     OW13584   2.338   2.281   4.057 -0.1014 -0.3216 -0.7297
 4205SOL    HW113585   2.417   2.307   4.009 -0.0426  1.8822  0.4681
 4205SOL    HW213586   2.319   2.193   4.024  3.0683 -1.1227 -0.7997
 4206SOL     OW13587   6.890   0.060   1.748  0.6028  0.0623  0.0041
 4206SOL    HW113588   6.971   0.107   1.729  1.2824  0.5806  3.4945
 4206SOL    HW213589   6.831   0.128   1.782 -0.6098 -0.6586 -0.5878
 4207SOL     OW13590   0.649   5.637   6.026  0.2445 -0.5559 -0.2409
 4207SOL    HW113591   0.742   5.623   6.046  0.5312 -0.0571 -1.1930
 4207SOL    HW213592   0.647   5.718   5.977 -0.8203 -0.0119  0.6490
 4208SOL     OW13593   1.002   2.884   5.709  0.8076  0.0175  0.1531
 4208SOL    HW113594   1.043   2.864   5.793 -0.7355 -2.4467  0.4178
 4208SOL    HW213595   0.937   2.952   5.730 -1.5602 -2.5263  1.6592
 4209SOL     OW13596   5.448   2.013   5.357  0.0967 -0.2814 -0.3240
 4209SOL    HW113597   5.431   2.025   5.264 -2.8644  0.7931  0.2643
 4209SOL    HW213598   5.415   1.925   5.377 -0.6900  0.0867  0.0005
 4210SOL     OW13599   1.626   3.506   5.260 -0.7300 -0.2245 -0.5585
 4210SOL    HW113600   1.721   3.494   5.258 -0.8012 -0.7933 -0.6397
 4210SOL    HW213601   1.591   3.423   5.230 -1.2213  1.0026 -3.7851
 4211SOL     OW13602   6.612   7.294   5.838 -0.1518 -0.0725 -0.0070
 4211SOL    HW113603   6.656   7.264   5.917  1.7955  3.2470  0.3324
 4211SOL    HW213604   6.522   7.312   5.866 -0.3061 -1.6767  0.6544
 4212SOL     OW13605   0.107   6.049   1.353  0.2264  0.0005  0.7096
 4212SOL    HW113606   0.169   5.976   1.350  1.8910  1.3392  1.2900
 4212SOL    HW213607   0.031   6.018   1.303  1.0603 -1.9519  0.5827
 4213SOL     OW13608   3.729   6.122   5.976 -0.1412  0.1233  0.9821
 4213SOL    HW113609   3.723   6.028   5.993  0.7278  0.0500  0.8832
 4213SOL    HW213610   3.748   6.129   5.883 -2.3152  0.4671  0.5030
 4214SOL     OW13611   5.129   0.404   6.831  0.4595  0.0324 -0.5190
 4214SOL    HW113612   5.177   0.374   6.753  2.9697  0.2805  0.8291
 4214SOL    HW213613   5.069   0.333   6.852 -0.2726 -0.0427 -2.6314
 4215SOL     OW13614   2.496   0.975   5.451 -0.3909  0.2013  0.2541
 4215SOL    HW113615   2.482   0.916   5.377  1.1017  0.9043 -0.6343
 4215SOL    HW213616   2.444   0.937   5.522  1.0761 -2.6221 -0.0328
 4216SOL     OW13617   7.373   1.418   3.448 -0.5415 -0.1262 -0.2519
 4216SOL    HW113618   7.328   1.346   3.403 -1.3218  0.4167 -0.3727
 4216SOL    HW213619   7.367   1.396   3.541 -1.0376 -0.0829 -0.2693
 4217SOL     OW13620   2.150   6.900   4.180  0.5223  0.0885  0.1760
 4217SOL    HW113621   2.117   6.981   4.220  0.3917  0.2482 -0.2425
 4217SOL    HW213622   2.245   6.907   4.186  0.6225  1.3243 -1.8244
 4218SOL     OW13623   7.241   2.456   6.897  0.5882 -0.7289  0.3030
 4218SOL    HW113624   7.227   2.362   6.899 -0.9794 -0.5094  1.9232
 4218SOL    HW213625   7.336   2.467   6.904  0.6899 -2.1779  1.5611
 4219SOL     OW13626   5.932   3.617   1.959 -0.4349 -0.1746 -0.7180
 4219SOL    HW113627   5.988   3.684   1.999 -0.6238  0.0347 -0.8027
 4219SOL    HW213628   5.878   3.665   1.897 -0.1206 -0.5051 -1.2522
 4220SOL     OW13629   3.141   1.521   6.915 -0.5007  0.0679  0.1594
 4220SOL    HW113630   3.225   1.546   6.954  0.8286 -2.2699 -1.0323
 4220SOL    HW213631   3.105   1.456   6.976  0.9370 -2.5643 -1.6087
 4221SOL     OW13632   4.216   3.858   3.491 -0.0376  0.0534  1.1419
 4221SOL    HW113633   4.124   3.878   3.506 -0.3099 -0.7782  0.6208
 4221SOL    HW213634   4.224   3.851   3.395  0.0839 -2.0700  1.2622
 4222SOL     OW13635   1.185   4.556   2.660 -0.2391 -0.0256  0.0961
 4222SOL    HW113636   1.221   4.626   2.715 -1.4060  1.3250 -0.7914
 4222SOL    HW213637   1.262   4.508   2.629  0.8593  2.5490 -1.4884
 4223SOL     OW13638   3.715   5.674   1.429  0.5010  0.5843  0.1495
 4223SOL    HW113639   3.702   5.759   1.472 -2.3821 -0.7821  2.3380
 4223SOL    HW213640   3.767   5.623   1.491  1.2561  0.3618 -0.6483
 4224SOL     OW13641   5.265   5.889   6.688 -0.0530 -0.4487 -0.3930
 4224SOL    HW113642   5.332   5.824   6.668 -0.8624 -1.5329  0.3109
 4224SOL    HW213643   5.308   5.950   6.748  0.7268 -0.2866 -1.0963
 4225SOL     OW13644   6.827   5.288   1.585  0.3018 -0.8512 -0.4958
 4225SOL    HW113645   6.866   5.365   1.546 -1.2034 -0.3262 -1.0276
 4225SOL    HW213646   6.794   5.237   1.511 -2.1524 -0.0748 -0.0303
 4226SOL     OW13647   3.226   3.061   0.649 -0.7329  0.5153  0.0791
 4226SOL    HW113648   3.259   2.972   0.663  0.4715  1.1678  1.6263
 4226SOL    HW213649   3.173   3.054   0.570  2.1214 -0.8564 -1.8851
 4227SOL     OW13650   1.521   1.555   1.965  0.0194  0.2687 -0.3925
 4227SOL    HW113651   1.441   1.607   1.974  1.0565  1.9648 -0.6221
 4227SOL    HW213652   1.576   1.605   1.905  0.6672 -1.6215 -1.4684
 4228SOL     OW13653   5.636   6.792   0.390  0.3723 -0.0718 -0.0598
 4228SOL    HW113654   5.659   6.718   0.334 -0.0777 -0.1775 -0.1073
 4228SOL    HW213655   5.711   6.852   0.382 -0.1909  0.4644 -1.6988
 4229SOL     OW13656   1.917   5.520   7.380 -0.5551  0.1786 -0.1880
 4229SOL    HW113657   1.979   5.451   7.355  0.0741  1.3233 -1.9530
 4229SOL    HW213658   1.832   5.475   7.385 -0.0458 -0.8689 -0.5019
 4230SOL     OW13659   4.676   3.423   1.515  0.0696  0.4033  0.6194
 4230SOL    HW113660   4.737   3.375   1.459 -0.7772 -0.1897  0.1812
 4230SOL    HW213661   4.602   3.364   1.525 -1.6422  2.1248 -1.0582
 4231SOL     OW13662   2.329   1.720   5.345  0.2160  0.0260  0.1925
 4231SOL    HW113663   2.277   1.707   5.266 -0.4378  0.2993  0.5688
 4231SOL    HW213664   2.278   1.678   5.414  1.2099 -1.0027  0.3341
 4232SOL     OW13665   3.911   6.987   5.580 -0.2897 -0.0443  0.4013
 4232SOL    HW113666   3.880   7.078   5.582 -0.6605 -0.1788  0.7397
 4232SOL    HW213667   3.833   6.934   5.595 -0.1345 -0.4389 -0.1572
 4233SOL     OW13668   4.107   3.368   5.737 -0.0448 -0.5717  0.3097
 4233SOL    HW113669   4.140   3.289   5.779  0.4436 -0.7172 -0.3405
 4233SOL    HW213670   4.113   3.351   5.643  2.6260  1.1897  0.0324
 4234SOL     OW13671   0.849   2.255   2.042 -0.1435 -0.3755 -0.6540
 4234SOL    HW113672   0.849   2.213   2.129  1.4032  0.3344 -0.2640
 4234SOL    HW213673   0.793   2.199   1.988 -2.0438 -0.2442  1.0586
 4235SOL     OW13674   6.951   4.740   6.175 -0.5713  0.2941 -0.0887
 4235SOL    HW113675   6.956   4.780   6.262  0.5547  0.0885 -0.0400
 4235SOL    HW213676   6.925   4.649   6.192 -0.7606  0.3640 -0.0023
 4236SOL     OW13677   2.934   4.453   3.656  0.0985 -0.5774 -0.8470
 4236SOL    HW113678   2.855   4.458   3.710  0.5232 -1.5845 -0.1048
 4236SOL    HW213679   3.004   4.485   3.713  0.1172  1.2705 -1.8214
 4237SOL     OW13680   6.835   1.855   7.241 -0.0044  0.1926 -0.2973
 4237SOL    HW113681   6.888   1.858   7.320  2.5173 -0.5046 -1.8281
 4237SOL    HW213682   6.744   1.853   7.272  0.8837 -0.3536  2.5353
 4238SOL     OW13683   4.113   7.374   2.476 -0.0867  0.0472 -0.3404
 4238SOL    HW113684   4.079   7.444   2.420 -2.0839  1.0494  1.9330
 4238SOL    HW213685   4.072   7.295   2.441  0.0051  0.3996 -1.2876
 4239SOL     OW13686   1.624   5.528   2.840 -0.0852 -0.1667 -0.0024
 4239SOL    HW113687   1.652   5.463   2.776 -0.0453 -0.1401 -0.0129
 4239SOL    HW213688   1.700   5.539   2.897 -0.8658 -1.8413  1.4318
 4240SOL     OW13689   6.211   0.102   0.219 -0.2973 -0.2890 -0.2359
 4240SOL    HW113690   6.145   0.050   0.174  1.0304  0.2893 -3.0988
 4240SOL    HW213691   6.282   0.041   0.237 -0.3067 -0.2661 -0.1233
 4241SOL     OW13692   6.304   0.866   2.734  0.2690  0.0951 -0.5085
 4241SOL    HW113693   6.256   0.884   2.815 -0.0922  0.0063 -0.7054
 4241SOL    HW213694   6.377   0.810   2.762  0.7836  0.9492 -0.0632
 4242SOL     OW13695   2.546   4.674   1.055 -0.2540 -0.5430 -0.1085
 4242SOL    HW113696   2.521   4.648   0.967  0.8850 -0.9450 -0.3395
 4242SOL    HW213697   2.608   4.745   1.042 -0.6678 -0.0865  0.4003
 4243SOL     OW13698   6.069   3.367   4.671  0.0969  0.4718  0.4415
 4243SOL    HW113699   5.985   3.386   4.712 -0.2456  0.3049 -0.1661
 4243SOL    HW213700   6.127   3.343   4.744 -0.8473 -1.1324  0.7267
 4244SOL     OW13701   2.274   3.788   1.577 -0.5796 -1.0359  0.0070
 4244SOL    HW113702   2.259   3.694   1.584 -1.8764 -1.0106 -1.7065
 4244SOL    HW213703   2.235   3.824   1.657 -0.8298 -1.8842  0.2875
 4245SOL     OW13704   1.601   5.745   2.217 -0.7210  0.1783 -0.4128
 4245SOL    HW113705   1.689   5.752   2.181 -1.2144  0.8744 -1.5423
 4245SOL    HW213706   1.577   5.653   2.205  0.3586 -0.3682  1.2194
 4246SOL     OW13707   2.541   2.399   5.999  0.3493  0.0224 -0.1903
 4246SOL    HW113708   2.483   2.464   6.038  1.0715  0.3138  0.4267
 4246SOL    HW213709   2.501   2.315   6.021 -0.0663  0.2269 -0.1501
 4247SOL     OW13710   7.272   2.082   5.377  0.3701 -0.5908 -0.5553
 4247SOL    HW113711   7.265   1.999   5.423  1.9406 -0.4149  0.0796
 4247SOL    HW213712   7.274   2.059   5.284  0.1943 -1.2171 -0.4015
 4248SOL     OW13713   6.163   4.219   5.651  0.2618  0.8812  0.2005
 4248SOL    HW113714   6.243   4.265   5.624 -0.0139  0.7245 -0.8990
 4248SOL    HW213715   6.132   4.175   5.572  0.1674 -0.6886  1.0790
 4249SOL     OW13716   4.921   7.042   0.235  0.1583  0.0828 -0.3508
 4249SOL    HW113717   4.985   7.000   0.293  0.1987  1.0693  0.3298
 4249SOL    HW213718   4.952   7.019   0.147  1.9109  1.1439 -0.0682
 4250SOL     OW13719   7.085   0.351   5.742  0.1539 -0.5493  0.4633
 4250SOL    HW113720   7.138   0.428   5.764 -0.3850 -0.1948  0.5307
 4250SOL    HW213721   7.084   0.349   5.646  0.0996 -0.4267  0.4611
 4251SOL     OW13722   2.975   4.490   1.634  0.6682  0.6703 -0.1868
 4251SOL    HW113723   2.990   4.516   1.725 -1.5831  1.2024  0.0914
 4251SOL    HW213724   2.913   4.417   1.640 -0.0365  1.1519 -1.3021
 4252SOL     OW13725   5.750   1.133   4.827  0.4708 -0.6197 -0.0262
 4252SOL    HW113726   5.755   1.211   4.772  1.1569 -0.7297 -0.1206
 4252SOL    HW213727   5.656   1.113   4.831  0.2212  0.5564  0.4792
 4253SOL     OW13728   5.910   2.933   7.030 -0.3255 -0.2431 -0.4103
 4253SOL    HW113729   5.875   2.885   7.105  1.1272 -1.0164 -0.1768
 4253SOL    HW213730   5.857   3.012   7.025 -0.3205 -0.0572  1.6130
 4254SOL     OW13731   2.893   0.904   2.200 -0.0388 -0.0008  0.0805
 4254SOL    HW113732   2.802   0.927   2.181 -0.0327  0.2035  0.2974
 4254SOL    HW213733   2.886   0.838   2.270  0.0222  0.9505  1.0056
 4255SOL     OW13734   7.238   2.421   3.510 -0.2162 -0.3028 -0.0497
 4255SOL    HW113735   7.330   2.435   3.485 -0.0541 -0.7141  0.2939
 4255SOL    HW213736   7.194   2.396   3.429 -0.4570  1.8176 -0.6352
 4256SOL     OW13737   4.076   3.626   6.334  0.3162 -0.4772  0.2133
 4256SOL    HW113738   4.012   3.599   6.400 -1.5249  1.8622 -0.4505
 4256SOL    HW213739   4.110   3.710   6.366  0.4251  0.0063 -1.0908
 4257SOL     OW13740   5.946   7.300   3.374  0.6471  0.2489  0.2551
 4257SOL    HW113741   5.963   7.391   3.396  1.4598 -0.3049  2.0464
 4257SOL    HW213742   5.869   7.276   3.425 -0.3676  0.2662 -1.2021
 4258SOL     OW13743   4.516   6.607   1.971  0.0397  0.3778  0.1647
 4258SOL    HW113744   4.489   6.543   2.037  1.1788 -0.3406 -0.0428
 4258SOL    HW213745   4.601   6.638   2.002  0.5542  0.0868 -0.9189
 4259SOL     OW13746   2.184   4.435   5.745 -0.1904 -0.1184  0.2522
 4259SOL    HW113747   2.137   4.486   5.679  0.5798  0.0950 -0.1496
 4259SOL    HW213748   2.201   4.351   5.702  2.3780  0.8109 -0.7728
 4260SOL     OW13749   2.867   1.590   7.077  0.2061  0.0603  0.3979
 4260SOL    HW113750   2.938   1.541   7.120 -0.2218 -1.1514 -0.2299
 4260SOL    HW213751   2.912   1.662   7.032  0.8481  0.2882  1.3564
 4261SOL     OW13752   0.873   2.408   1.569 -0.4763 -0.3879 -0.3298
 4261SOL    HW113753   0.921   2.467   1.512  0.1156 -0.3092  0.2380
 4261SOL    HW213754   0.846   2.463   1.643  1.1703 -1.0677  0.8337
 4262SOL     OW13755   2.806   4.254   3.489  0.4176 -0.0110 -0.0361
 4262SOL    HW113756   2.850   4.326   3.533  1.8584 -0.3825 -0.8173
 4262SOL    HW213757   2.848   4.247   3.404  1.4905 -2.7953  0.6033
 4263SOL     OW13758   1.120   4.317   1.999 -0.3190 -0.0259  0.0109
 4263SOL    HW113759   1.111   4.357   1.913 -1.6346 -0.3801 -0.0450
 4263SOL    HW213760   1.188   4.369   2.043  0.5395  0.0046 -1.3094
 4264SOL     OW13761   3.815   6.518   7.160 -0.1911 -0.1006 -0.1087
 4264SOL    HW113762   3.754   6.452   7.194 -0.3129 -1.4507 -2.6986
 4264SOL    HW213763   3.767   6.559   7.089  0.8366  1.0200 -0.1679
 4265SOL     OW13764   5.692   7.127   3.833 -0.2844  0.4093 -0.2381
 4265SOL    HW113765   5.649   7.062   3.777  0.3642 -0.0932 -0.1595
 4265SOL    HW213766   5.647   7.209   3.813 -0.0477  0.2481 -1.5265
 4266SOL     OW13767   6.762   7.112   5.274  0.1791  0.0102  0.8361
 4266SOL    HW113768   6.827   7.102   5.204 -0.6275  0.2111  0.0486
 4266SOL    HW213769   6.810   7.088   5.353  1.5861  1.3389  0.4481
 4267SOL     OW13770   2.186   0.123   3.300 -0.3560 -0.6040  0.2869
 4267SOL    HW113771   2.112   0.133   3.241 -0.2551  0.4075  0.3155
 4267SOL    HW213772   2.263   0.120   3.243 -0.1581  1.3958  0.3488
 4268SOL     OW13773   4.505   4.031   1.753 -0.0199 -0.4631  0.4707
 4268SOL    HW113774   4.561   4.089   1.703 -0.9883  1.3905  1.4164
 4268SOL    HW213775   4.504   4.069   1.841 -1.2177 -1.5443  0.9532
 4269SOL     OW13776   1.954   3.784   1.887  0.2939 -0.2594  0.3927
 4269SOL    HW113777   1.933   3.729   1.811  1.4240  1.0302 -0.9205
 4269SOL    HW213778   1.879   3.773   1.945  0.3062 -2.8755  0.0643
 4270SOL     OW13779   4.792   2.474   4.598 -0.0900 -0.2562  0.3047
 4270SOL    HW113780   4.749   2.453   4.682  0.6633  1.0188  1.0443
 4270SOL    HW213781   4.771   2.400   4.541 -0.9378 -0.9755  1.5010
 4271SOL     OW13782   0.111   3.531   0.618 -0.2127  0.2215 -0.0541
 4271SOL    HW113783   0.190   3.556   0.667  1.2469 -2.7422 -0.6155
 4271SOL    HW213784   0.065   3.471   0.676 -0.2507 -0.6724 -0.9769
 4272SOL     OW13785   1.369   4.936   2.915 -0.1441 -0.5924  0.4185
 4272SOL    HW113786   1.431   4.884   2.863  0.2500 -0.4936  0.7843
 4272SOL    HW213787   1.293   4.879   2.924 -1.3530  0.3607 -2.5403
 4273SOL     OW13788   1.185   0.183   3.318  0.6889  0.1644  0.5191
 4273SOL    HW113789   1.218   0.146   3.236 -0.4638 -0.8665  0.4838
 4273SOL    HW213790   1.256   0.168   3.381  0.9020 -0.6414  0.1121
 4274SOL     OW13791   6.024   6.436   0.811  0.0608 -0.0057  0.1895
 4274SOL    HW113792   6.013   6.527   0.784 -1.9734 -0.3863 -0.3982
 4274SOL    HW213793   5.983   6.431   0.898  0.4681 -0.3000  0.3703
 4275SOL     OW13794   0.713   3.100   3.811  0.5604  0.0654 -0.2411
 4275SOL    HW113795   0.697   3.043   3.886  0.6728  0.0218 -0.2502
 4275SOL    HW213796   0.774   3.166   3.844 -1.4840  1.6928  0.5076
 4276SOL     OW13797   3.649   2.589   6.385  0.7404  0.3951  0.2108
 4276SOL    HW113798   3.587   2.532   6.430  1.0850  0.7896  1.2066
 4276SOL    HW213799   3.714   2.611   6.452  1.3995  0.7939 -0.5511
 4277SOL     OW13800   3.408   5.212   1.832  0.3927  0.2231 -0.1956
 4277SOL    HW113801   3.471   5.239   1.899  0.6584 -0.1959 -0.2718
 4277SOL    HW213802   3.392   5.119   1.850  0.0770  0.2371 -0.4021
 4278SOL     OW13803   6.244   7.224   4.248  0.7645 -0.2499  0.1570
 4278SOL    HW113804   6.249   7.129   4.247  1.2038 -0.2289  0.1208
 4278SOL    HW213805   6.294   7.252   4.171 -1.2667 -0.0636 -1.1577
 4279SOL     OW13806   4.168   0.282   3.619 -0.3076  0.2299 -0.0005
 4279SOL    HW113807   4.177   0.376   3.634 -1.1597  0.2388  0.4855
 4279SOL    HW213808   4.090   0.257   3.668  0.6007 -0.9664  0.8759
 4280SOL     OW13809   7.270   3.519   0.380 -0.3513 -0.0758  0.6931
 4280SOL    HW113810   7.366   3.514   0.379 -0.4015 -2.5404 -1.3943
 4280SOL    HW213811   7.246   3.508   0.472  1.3389  1.0563  1.3218
 4281SOL     OW13812   3.864   5.460   5.755  0.0591  0.6203  0.0351
 4281SOL    HW113813   3.933   5.395   5.741  0.0513  0.5219  0.4391
 4281SOL    HW213814   3.794   5.411   5.797 -0.3486  0.6728 -0.5757
 4282SOL     OW13815   3.693   4.997   3.900  0.3037  0.1636 -0.2113
 4282SOL    HW113816   3.711   4.993   3.994 -0.8079  0.9965  0.0637
 4282SOL    HW213817   3.718   5.086   3.875 -0.5012  0.3405 -0.4318
 4283SOL     OW13818   5.166   6.973   0.367 -0.1347 -0.2614 -0.4333
 4283SOL    HW113819   5.226   6.898   0.361  1.5181  0.9216  0.5851
 4283SOL    HW213820   5.205   7.039   0.310 -1.5465 -0.0992 -1.2692
 4284SOL     OW13821   2.448   5.273   6.275  0.3922  0.2943  0.2646
 4284SOL    HW113822   2.470   5.239   6.362  1.2491  1.0231  0.3560
 4284SOL    HW213823   2.392   5.348   6.293  1.5952  1.2234  0.2814
 4285SOL     OW13824   1.914   6.122   3.236 -0.2721  0.2256  0.1403
 4285SOL    HW113825   1.967   6.202   3.240  0.5373 -0.1361 -2.0494
 4285SOL    HW213826   1.847   6.134   3.304  0.7846  2.0420  0.9264
 4286SOL     OW13827   0.469   5.144   2.474 -0.5862 -0.5532  0.1378
 4286SOL    HW113828   0.553   5.186   2.496 -0.4421 -0.2062 -1.0071
 4286SOL    HW213829   0.432   5.119   2.559  0.5131 -0.3982  0.6841
 4287SOL     OW13830   4.158   5.768   6.227  0.4641 -0.0428 -0.1826
 4287SOL    HW113831   4.170   5.862   6.239  1.3847 -0.1830  0.1032
 4287SOL    HW213832   4.081   5.760   6.171  0.8349  0.9137 -0.8604
 4288SOL     OW13833   1.235   5.997   0.290  0.2212  0.0866  0.3618
 4288SOL    HW113834   1.255   5.933   0.358  1.4411 -0.6674 -0.6709
 4288SOL    HW213835   1.233   6.081   0.336 -1.2474 -0.6312  1.7082
 4289SOL     OW13836   3.582   3.519   2.485 -0.5854 -0.2837  0.2073
 4289SOL    HW113837   3.582   3.440   2.539 -1.8437 -0.7196 -0.3773
 4289SOL    HW213838   3.515   3.502   2.419  0.1720  0.6678 -0.8487
 4290SOL     OW13839   5.470   3.772   0.877 -0.4500  0.2819 -0.0972
 4290SOL    HW113840   5.507   3.820   0.951  0.5478  0.1408 -0.5029
 4290SOL    HW213841   5.423   3.699   0.918  0.3866  0.0030  0.3930
 4291SOL     OW13842   0.150   4.699   5.346  0.3597 -0.2517 -0.3200
 4291SOL    HW113843   0.193   4.714   5.262  1.9569  0.0989  0.5351
 4291SOL    HW213844   0.182   4.613   5.374  0.2500 -0.1380  0.1658
 4292SOL     OW13845   6.988   2.576   3.581  0.2440  0.1211  0.5302
 4292SOL    HW113846   7.048   2.651   3.583  1.3596 -0.6897 -0.5370
 4292SOL    HW213847   7.013   2.522   3.656  0.6918 -0.0934  0.2281
 4293SOL     OW13848   6.677   3.799   2.491  0.0385 -0.3293 -0.0536
 4293SOL    HW113849   6.667   3.759   2.578  2.0157  0.7122  0.7104
 4293SOL    HW213850   6.650   3.890   2.503  0.9511 -0.0098 -0.3407
 4294SOL     OW13851   0.984   7.334   2.442 -0.0098 -0.2564 -0.7264
 4294SOL    HW113852   0.892   7.324   2.416  0.1188  0.6607 -1.5925
 4294SOL    HW213853   1.033   7.333   2.360  0.5103  1.6220 -0.5009
 4295SOL     OW13854   1.514   6.942   5.475 -0.5605  0.1802 -0.0151
 4295SOL    HW113855   1.595   6.991   5.494 -0.5013 -0.0403  0.2997
 4295SOL    HW213856   1.536   6.889   5.398 -0.1528 -0.4701  0.5382
 4296SOL     OW13857   5.492   5.715   1.780 -0.9463 -0.1285 -0.1267
 4296SOL    HW113858   5.478   5.787   1.719 -1.2994  1.2157  1.4799
 4296SOL    HW213859   5.518   5.642   1.725  1.1887  1.6812 -1.6879
 4297SOL     OW13860   4.530   6.672   5.469  0.2211 -0.9081 -0.1517
 4297SOL    HW113861   4.451   6.621   5.485 -0.9352  0.7290 -0.3437
 4297SOL    HW213862   4.502   6.763   5.477  2.5269 -0.2526  1.8190
 4298SOL     OW13863   0.472   2.438   3.295 -0.6780  0.1796 -0.0976
 4298SOL    HW113864   0.519   2.378   3.353 -2.0612 -2.0411 -1.1344
 4298SOL    HW213865   0.501   2.414   3.207 -0.8336  1.4702 -0.5278
 4299SOL     OW13866   0.286   1.641   1.432 -0.5912  0.3735 -0.0221
 4299SOL    HW113867   0.238   1.724   1.432 -1.1650  0.1245 -2.5400
 4299SOL    HW213868   0.255   1.596   1.354  2.3750 -0.6268 -0.7536
 4300SOL     OW13869   5.148   1.648   2.911 -0.2560 -0.4860 -0.3478
 4300SOL    HW113870   5.071   1.670   2.963 -0.4425 -0.5983 -0.5705
 4300SOL    HW213871   5.168   1.728   2.862  2.4932  1.1202  2.9671
 4301SOL     OW13872   1.728   2.938   5.174 -0.9855 -0.4204 -0.0069
 4301SOL    HW113873   1.659   3.001   5.154 -0.4085  0.0917 -0.4359
 4301SOL    HW213874   1.772   2.923   5.090  0.8924  1.0539  0.6611
 4302SOL     OW13875   5.575   1.321   1.242 -0.1287  0.3282 -0.5410
 4302SOL    HW113876   5.618   1.237   1.262 -0.2020  0.0681 -1.4318
 4302SOL    HW213877   5.646   1.385   1.241 -0.3856  0.9301  3.2338
 4303SOL     OW13878   4.122   1.351   2.435 -0.1607  0.2557 -0.3072
 4303SOL    HW113879   4.197   1.407   2.456  0.3522 -0.5531  0.0392
 4303SOL    HW213880   4.076   1.338   2.518  0.1519 -0.4529 -0.2382
 4304SOL     OW13881   0.169   0.010   0.069  0.6463  0.2561  0.2946
 4304SOL    HW113882   0.077  -0.010   0.089  1.2108 -0.9732  1.9251
 4304SOL    HW213883   0.171   0.105   0.059 -0.8025  0.3024  0.2264
 4305SOL     OW13884   3.121   5.383   5.445  0.0169  0.0216 -0.2616
 4305SOL    HW113885   3.206   5.390   5.402  0.6900 -1.1114  0.8340
 4305SOL    HW213886   3.085   5.472   5.441  0.9823  0.3938 -1.2534
 4306SOL     OW13887   2.751   3.476   2.370 -0.5088 -0.2627 -0.3499
 4306SOL    HW113888   2.689   3.409   2.342 -0.7366  0.4254 -1.5347
 4306SOL    HW213889   2.807   3.431   2.435 -2.2048 -0.8906  0.7448
 4307SOL     OW13890   0.141   2.843   6.516 -0.3995  0.4409 -0.0466
 4307SOL    HW113891   0.100   2.854   6.602 -0.3646 -0.0669  0.0349
 4307SOL    HW213892   0.110   2.918   6.466 -0.0379  1.0105  0.5555
 4308SOL     OW13893   6.824   5.454   6.809 -0.1453 -0.2493 -0.2374
 4308SOL    HW113894   6.781   5.378   6.772 -1.5548  0.6714 -0.5617
 4308SOL    HW213895   6.861   5.423   6.892 -0.5206 -1.3202 -0.4623
 4309SOL     OW13896   0.832   0.664   3.686 -0.2210  0.3804  0.5023
 4309SOL    HW113897   0.824   0.672   3.591  2.8370 -1.0305  0.0129
 4309SOL    HW213898   0.926   0.654   3.702 -0.6884 -0.1479  3.6284
 4310SOL     OW13899   0.611   1.815   3.864  0.2160  0.0601 -0.2740
 4310SOL    HW113900   0.573   1.804   3.951 -1.5627  0.3539 -0.9747
 4310SOL    HW213901   0.619   1.910   3.853  0.0998  0.0368 -0.5674
 4311SOL     OW13902   4.717   1.348   3.370 -0.5907  0.2497  0.5351
 4311SOL    HW113903   4.754   1.265   3.337 -0.2039  0.7824 -0.4285
 4311SOL    HW213904   4.630   1.324   3.401 -0.1548 -0.6862  1.0890
 4312SOL     OW13905   2.999   7.173   2.264  0.1931  0.1982 -0.2682
 4312SOL    HW113906   2.945   7.194   2.188  0.6515 -1.6037 -1.1477
 4312SOL    HW213907   2.938   7.132   2.326 -0.1570  1.5661  0.3340
 4313SOL     OW13908   1.817   2.816   2.475 -0.3694  0.5851 -0.5463
 4313SOL    HW113909   1.893   2.757   2.473 -0.8084  0.0344 -1.5440
 4313SOL    HW213910   1.806   2.837   2.568  1.1027  0.8195 -0.4094
 4314SOL     OW13911   3.032   3.205   3.973 -0.0652 -0.2847 -0.0435
 4314SOL    HW113912   2.957   3.239   3.924  1.1468  2.1084 -0.3624
 4314SOL    HW213913   3.055   3.124   3.928 -1.3266 -0.1223 -1.0565
 4315SOL     OW13914   5.321   7.131   3.110 -0.5881  0.1538 -0.2188
 4315SOL    HW113915   5.340   7.218   3.073  1.0080  0.2691  0.7899
 4315SOL    HW213916   5.237   7.142   3.154  0.0913  1.5252  0.8139
 4316SOL     OW13917   2.714   0.749   0.061 -0.2736  0.0596  0.5822
 4316SOL    HW113918   2.809   0.745   0.056 -0.2669 -1.6586  1.4150
 4316SOL    HW213919   2.693   0.723   0.151 -1.5588 -0.8127  0.0609
 4317SOL     OW13920   3.128   6.000   1.982  0.4886  0.1414  0.1658
 4317SOL    HW113921   3.186   5.966   1.914  0.5267  1.0730 -0.2712
 4317SOL    HW213922   3.066   6.057   1.936 -1.9987 -2.2284  0.3359
 4318SOL     OW13923   3.001   6.908   2.730  0.2195  0.1140 -0.4439
 4318SOL    HW113924   3.033   6.889   2.819  1.7129 -1.2744 -1.2261
 4318SOL    HW213925   2.921   6.855   2.723 -0.0835  0.4770  0.1661
 4319SOL     OW13926   3.206   6.304   5.859  0.2275 -0.0297 -0.0248
 4319SOL    HW113927   3.243   6.278   5.944 -1.3554  0.2491  0.7790
 4319SOL    HW213928   3.112   6.290   5.868 -0.4508  3.4361 -0.4258
 4320SOL     OW13929   0.239   0.809   0.110  0.5664  0.0313  0.3403
 4320SOL    HW113930   0.218   0.784   0.200 -0.7332  1.5414  0.5065
 4320SOL    HW213931   0.311   0.872   0.119  1.1476 -0.6139  0.2345
 4321SOL     OW13932   0.189   6.894   0.827  0.2027 -0.5298  0.3244
 4321SOL    HW113933   0.212   6.821   0.885  1.2638  0.8764  1.7438
 4321SOL    HW213934   0.155   6.961   0.885 -0.4070  0.2650 -0.9170
 4322SOL     OW13935   1.531   3.402   2.311 -0.3837  0.4918  0.3534
 4322SOL    HW113936   1.494   3.482   2.275  0.6943  0.4804 -0.8506
 4322SOL    HW213937   1.622   3.424   2.331 -0.4799 -0.0082  1.4833
 4323SOL     OW13938   4.934   6.946   5.071  0.1516  0.1597  0.7985
 4323SOL    HW113939   4.992   6.877   5.103  0.5970  0.5771  0.9077
 4323SOL    HW213940   4.868   6.956   5.140 -2.0580 -2.5719 -0.7128
 4324SOL     OW13941   5.428   2.409   1.731  0.3194  0.2645  0.1034
 4324SOL    HW113942   5.386   2.368   1.656  1.2365 -0.1355 -0.1941
 4324SOL    HW213943   5.443   2.337   1.792  0.6483  0.3956  0.1760
 4325SOL     OW13944   7.142   5.316   0.677  0.7021 -0.2615 -0.8143
 4325SOL    HW113945   7.179   5.229   0.660 -0.1796 -0.8536  0.1477
 4325SOL    HW213946   7.047   5.304   0.674  0.5202  0.2511  1.0220
 4326SOL     OW13947   6.831   4.189   6.385  0.2194  0.3177 -0.3197
 4326SOL    HW113948   6.858   4.220   6.299 -0.4911  0.8568 -0.3639
 4326SOL    HW213949   6.885   4.112   6.402  0.5767  0.3916 -1.1116
 4327SOL     OW13950   1.257   3.043   5.136  0.4531  0.3173  0.5982
 4327SOL    HW113951   1.212   3.089   5.065  4.0956  2.0724 -0.7832
 4327SOL    HW213952   1.231   2.951   5.125 -2.5204  1.1407 -0.1484
 4328SOL     OW13953   4.912   0.923   1.144  0.2603 -0.1763  0.0990
 4328SOL    HW113954   4.992   0.975   1.142  1.2613 -1.6539  0.2498
 4328SOL    HW213955   4.877   0.936   1.233 -0.0484  0.9711 -0.1663
 4329SOL     OW13956   0.109   4.719   2.861 -0.5658 -0.0044 -0.6172
 4329SOL    HW113957   0.128   4.643   2.807 -1.2135  0.8279 -2.1070
 4329SOL    HW213958   0.023   4.701   2.900  0.2746 -0.9695  0.8647
 4330SOL     OW13959   3.954   1.608   3.810  0.2398  0.3990 -0.3887
 4330SOL    HW113960   3.910   1.530   3.774 -1.6065  0.9256  0.6236
 4330SOL    HW213961   3.999   1.576   3.888 -0.6926  0.3695  0.1461
 4331SOL     OW13962   7.188   2.131   5.088  0.2928  0.2321 -0.2400
 4331SOL    HW113963   7.266   2.085   5.058  1.1861  1.6269 -0.1031
 4331SOL    HW213964   7.189   2.214   5.042 -1.5259 -0.0082 -0.7959
 4332SOL     OW13965   1.512   7.145   2.149 -0.1303  0.5090  0.1020
 4332SOL    HW113966   1.599   7.162   2.185 -0.1926 -2.6507  2.1171
 4332SOL    HW213967   1.529   7.104   2.064  0.2692  1.6078 -0.3570
 4333SOL     OW13968   4.962   2.901   6.579 -0.1475  0.6339 -0.2425
 4333SOL    HW113969   4.915   2.841   6.637 -0.7475  1.0595 -0.2700
 4333SOL    HW213970   5.029   2.941   6.635  1.7641 -1.6638 -0.7543
 4334SOL     OW13971   6.642   4.453   3.979  0.2305 -0.0933 -0.4090
 4334SOL    HW113972   6.656   4.402   4.059  0.7860 -2.0036 -1.6442
 4334SOL    HW213973   6.693   4.533   3.992 -0.5058  0.1113  1.5364
 4335SOL     OW13974   0.944   0.407   1.698  0.3769 -0.5552  0.5241
 4335SOL    HW113975   0.894   0.378   1.621 -1.1500 -0.1406  1.3166
 4335SOL    HW213976   0.928   0.501   1.702  1.8745 -0.2800  0.3675
 4336SOL     OW13977   1.746   5.467   6.308 -0.5729 -0.0388  0.3385
 4336SOL    HW113978   1.816   5.449   6.245 -1.1330  0.2658 -0.3991
 4336SOL    HW213979   1.749   5.394   6.369  0.4728  0.0419  0.3981
 4337SOL     OW13980   4.824   7.233   0.932 -0.0999 -0.1360  0.3140
 4337SOL    HW113981   4.786   7.171   0.870  1.1949 -0.3440 -0.3106
 4337SOL    HW213982   4.769   7.225   1.011 -1.3254 -0.3948 -0.5356
 4338SOL     OW13983   3.782   4.303   2.233  0.5136 -0.2812  0.0823
 4338SOL    HW113984   3.819   4.260   2.310  0.6121  2.5978  1.7810
 4338SOL    HW213985   3.689   4.280   2.236  0.7404 -1.2447  0.2783
 4339SOL     OW13986   4.775   2.014   0.862 -0.5101  0.5671 -0.4482
 4339SOL    HW113987   4.772   2.109   0.874  0.2513  0.6382 -0.7976
 4339SOL    HW213988   4.717   1.980   0.931  1.3640  1.1309  1.5208
 4340SOL     OW13989   1.088   3.094   3.573 -0.3777 -0.1654  0.1315
 4340SOL    HW113990   1.147   3.054   3.509 -0.2631 -0.2093  0.2647
 4340SOL    HW213991   1.120   3.064   3.657  0.4889  1.2251  0.3153
 4341SOL     OW13992   5.674   3.595   0.423  0.0843 -0.2408 -0.4089
 4341SOL    HW113993   5.633   3.646   0.492  0.3060  1.1471 -1.2608
 4341SOL    HW213994   5.750   3.647   0.397 -1.1175  0.3486 -3.0832
 4342SOL     OW13995   6.668   2.288   1.781 -0.1718 -0.0584  0.2037
 4342SOL    HW113996   6.651   2.362   1.722  0.7434  2.0470  2.4154
 4342SOL    HW213997   6.586   2.275   1.828 -0.3428 -0.4849 -0.2089
 4343SOL     OW13998   6.045   4.257   1.263  0.1884  0.5111 -0.5345
 4343SOL    HW113999   5.973   4.299   1.310 -0.4008 -1.3392  0.3022
 4343SOL    HW214000   6.008   4.235   1.177  0.0502  0.4387 -0.4570
 4344SOL     OW14001   5.991   7.242   6.378 -0.4574 -1.1686 -0.6161
 4344SOL    HW114002   5.917   7.181   6.372 -1.9067  0.4346 -0.1539
 4344SOL    HW214003   5.983   7.295   6.298  0.8893 -1.6548 -1.1042
 4345SOL     OW14004   2.312   2.177   2.329 -0.2841  0.3304 -0.5178
 4345SOL    HW114005   2.268   2.096   2.356 -0.8129  0.9530  0.5023
 4345SOL    HW214006   2.364   2.150   2.253  0.8883 -1.3652  0.8013
 4346SOL     OW14007   0.728   5.758   2.657  0.1913 -0.2111 -0.0539
 4346SOL    HW114008   0.709   5.680   2.708  0.3960 -0.4071 -0.2745
 4346SOL    HW214009   0.807   5.794   2.696  1.3035 -1.2729 -1.2452
 4347SOL     OW14010   1.817   0.955   0.884  0.1073 -0.1688  0.2388
 4347SOL    HW114011   1.912   0.969   0.893  0.0132  0.2395  0.6954
 4347SOL    HW214012   1.794   1.001   0.804  0.2861 -0.1894  0.1740
 4348SOL     OW14013   3.190   3.072   6.753 -0.2556 -0.1754  0.1144
 4348SOL    HW114014   3.147   3.017   6.818  1.4916  2.0603  3.4206
 4348SOL    HW214015   3.284   3.064   6.773  0.3881  0.4944 -2.2989
 4349SOL     OW14016   6.484   3.485   1.876  0.1695  0.1749  0.6245
 4349SOL    HW114017   6.401   3.504   1.919  0.1960 -1.6963  1.6238
 4349SOL    HW214018   6.477   3.393   1.851  1.6119  0.2186 -0.0510
 4350SOL     OW14019   0.775   1.947   0.309 -0.2270 -0.4376  0.4849
 4350SOL    HW114020   0.749   2.017   0.249 -0.3989 -0.4460  0.5513
 4350SOL    HW214021   0.853   1.981   0.353 -1.0437  0.2282  1.4551
 4351SOL     OW14022   1.602   0.339   6.580  0.2492  0.2891 -0.6703
 4351SOL    HW114023   1.668   0.376   6.639  0.3084 -1.6708  0.5645
 4351SOL    HW214024   1.523   0.333   6.634  1.1494 -4.7878  0.6067
 4352SOL     OW14025   0.802   4.968   3.019 -0.0918 -0.2841 -0.0669
 4352SOL    HW114026   0.848   4.895   2.979  0.7973  0.4722 -0.4837
 4352SOL    HW214027   0.838   5.045   2.975  0.3431  0.5338  1.6198
 4353SOL     OW14028   6.988   7.157   4.015 -0.7165 -0.1736  0.3520
 4353SOL    HW114029   7.053   7.144   4.084 -3.0443 -0.4954  2.6807
 4353SOL    HW214030   6.960   7.068   3.991 -0.9085 -0.0297  0.0390
 4354SOL     OW14031   5.701   3.229   0.097  0.6269  1.2926  0.2029
 4354SOL    HW114032   5.689   3.141   0.060  2.0387  0.9046  0.5977
 4354SOL    HW214033   5.795   3.237   0.108  0.4420  2.5124  1.0397
 4355SOL     OW14034   5.703   2.110   1.258  0.0007 -0.2196 -0.0843
 4355SOL    HW114035   5.768   2.157   1.311  0.3115 -0.7987  0.0545
 4355SOL    HW214036   5.649   2.179   1.220 -0.6335  0.2016  1.4877
 4356SOL     OW14037   4.087   6.178   3.300  0.5899  0.1744 -0.5879
 4356SOL    HW114038   4.026   6.132   3.358  0.9710  1.2512  0.7252
 4356SOL    HW214039   4.172   6.170   3.344  1.1629 -0.1963 -1.7358
 4357SOL     OW14040   2.516   5.366   3.471  0.4219  0.5040  0.3126
 4357SOL    HW114041   2.489   5.331   3.386 -0.1676 -0.4806  0.8776
 4357SOL    HW214042   2.564   5.446   3.450  1.0893 -0.2035 -0.9909
 4358SOL     OW14043   0.317   2.577   1.882  0.0589 -0.6823  0.3929
 4358SOL    HW114044   0.305   2.605   1.791  0.5033  0.3758  0.6461
 4358SOL    HW214045   0.362   2.493   1.876  0.5854 -0.3528 -0.3620
 4359SOL     OW14046   0.079   4.938   3.834  0.1515  0.2627 -0.1439
 4359SOL    HW114047   0.140   4.872   3.865 -2.0553 -1.4789  0.7323
 4359SOL    HW214048   0.039   4.974   3.913 -1.2351  0.0663 -0.7235
 4360SOL     OW14049   3.233   7.099   3.567 -0.2209 -0.2655 -0.4414
 4360SOL    HW114050   3.305   7.072   3.510 -0.3097  0.4484 -0.9114
 4360SOL    HW214051   3.224   7.028   3.630 -0.0587 -1.0394 -1.2678
 4361SOL     OW14052   4.285   7.240   1.097 -0.5113  0.2631  0.0729
 4361SOL    HW114053   4.235   7.293   1.036 -1.9896  2.9732  3.2874
 4361SOL    HW214054   4.375   7.270   1.087 -0.6332  0.2999 -1.0370
 4362SOL     OW14055   0.303   6.666   2.124 -0.5879 -0.0851 -0.3616
 4362SOL    HW114056   0.223   6.660   2.072 -0.8420 -1.8694  0.1673
 4362SOL    HW214057   0.374   6.657   2.061 -0.8416  0.0082 -0.6609
 4363SOL     OW14058   1.097   1.649   0.744  0.2198 -0.4789 -0.3268
 4363SOL    HW114059   1.163   1.710   0.778  0.8017 -0.3968 -1.5147
 4363SOL    HW214060   1.079   1.590   0.816  0.8316  0.1362  0.3545
 4364SOL     OW14061   0.655   6.520   1.371  1.0920 -0.4262 -0.2035
 4364SOL    HW114062   0.641   6.445   1.428 -2.2242  0.5459  0.4454
 4364SOL    HW214063   0.636   6.487   1.283  1.9411 -0.8670 -0.2326
 4365SOL     OW14064   5.127   0.521   0.998 -0.2625  0.4686 -0.1468
 4365SOL    HW114065   5.074   0.560   0.929  0.4368  0.2107 -0.8465
 4365SOL    HW214066   5.217   0.525   0.966 -0.0950 -1.1767 -0.0118
 4366SOL     OW14067   2.693   2.119   3.416 -0.2873  0.0707 -0.2132
 4366SOL    HW114068   2.614   2.086   3.459 -0.3864  0.0496 -0.4133
 4366SOL    HW214069   2.661   2.174   3.345 -0.1398  1.9434  1.1021
 4367SOL     OW14070   6.973   3.657   4.694 -0.0211 -0.3552 -0.2546
 4367SOL    HW114071   6.936   3.572   4.717  3.5239 -1.7784  0.7509
 4367SOL    HW214072   6.995   3.697   4.778  1.1316  0.1998 -0.8031
 4368SOL     OW14073   4.881   5.547   5.955 -0.1983  0.6805 -0.0355
 4368SOL    HW114074   4.872   5.556   5.860 -0.7977  2.2400  0.1425
 4368SOL    HW214075   4.843   5.627   5.990 -0.5554 -0.1561  1.5637
 4369SOL     OW14076   6.870   5.373   4.759 -0.1962 -0.4247 -0.5616
 4369SOL    HW114077   6.911   5.419   4.833  1.1330  0.3499 -1.7176
 4369SOL    HW214078   6.914   5.288   4.756 -1.8686 -1.4090  0.8905
 4370SOL     OW14079   2.140   6.268   4.995 -0.0609 -0.8331  0.1580
 4370SOL    HW114080   2.203   6.309   4.936 -1.0336 -1.9654 -1.7748
 4370SOL    HW214081   2.193   6.238   5.069  1.1878  0.7313 -0.0426
 4371SOL     OW14082   6.392   5.612   7.361 -0.4344  0.2664  0.4951
 4371SOL    HW114083   6.374   5.556   7.286 -3.2261  0.8730  0.5947
 4371SOL    HW214084   6.328   5.683   7.354 -1.2037  0.0403  3.7307
 4372SOL     OW14085   1.262   6.466   3.301  0.2278 -0.2982  0.3974
 4372SOL    HW114086   1.180   6.427   3.332  0.0411 -0.5535 -0.3821
 4372SOL    HW214087   1.328   6.438   3.365 -0.3617  0.3153  1.3045
 4373SOL     OW14088   4.686   0.480   0.382  0.0196 -0.7617  0.4672
 4373SOL    HW114089   4.599   0.506   0.351 -0.1016  1.2041  2.2095
 4373SOL    HW214090   4.726   0.435   0.308 -0.8310  2.1514 -1.9524
 4374SOL     OW14091   2.819   5.682   4.752  0.3178 -0.2814  0.1281
 4374SOL    HW114092   2.870   5.739   4.694 -0.2130  0.1238  0.0493
 4374SOL    HW214093   2.730   5.686   4.716  0.2372 -1.0104  0.2387
 4375SOL     OW14094   1.398   2.192   6.479  0.2957  0.7574 -0.0733
 4375SOL    HW114095   1.351   2.111   6.497  1.3145 -0.1003 -1.0927
 4375SOL    HW214096   1.446   2.174   6.398  2.2937  1.5730  0.8474
 4376SOL     OW14097   2.487   2.095   5.535 -0.8864  0.3020  0.9785
 4376SOL    HW114098   2.480   2.035   5.460 -0.5203  0.1532  1.0601
 4376SOL    HW214099   2.480   2.182   5.496  0.5346  0.2815  0.5924
 4377SOL     OW14100   2.417   7.283   1.842  0.2470  0.5584 -0.0119
 4377SOL    HW114101   2.461   7.339   1.778  1.4658 -0.3514  0.0055
 4377SOL    HW214102   2.336   7.257   1.799  1.1473 -0.2256 -1.3024
 4378SOL     OW14103   5.241   1.322   4.242 -0.6854  0.4770 -0.2350
 4378SOL    HW114104   5.246   1.417   4.254 -0.0283  0.5722 -1.2125
 4378SOL    HW214105   5.296   1.304   4.166 -2.3013 -0.4651 -1.2351
 4379SOL     OW14106   6.088   1.631   5.043 -0.2070 -0.5509 -0.4791
 4379SOL    HW114107   5.998   1.611   5.067 -0.5638  0.1333 -1.1943
 4379SOL    HW214108   6.141   1.586   5.108 -1.0839 -0.0639  0.5986
 4380SOL     OW14109   2.630   5.516   2.311  0.7091 -0.0661  0.2129
 4380SOL    HW114110   2.646   5.525   2.405  1.7058  1.1103 -0.0506
 4380SOL    HW214111   2.544   5.556   2.297  0.9325  0.5081  0.4927
 4381SOL     OW14112   4.098   2.684   5.511 -0.2079  0.0400  0.1093
 4381SOL    HW114113   4.182   2.659   5.549 -0.1932  1.0420  0.8036
 4381SOL    HW214114   4.060   2.744   5.576 -0.1118  1.9732 -1.5018
 4382SOL     OW14115   0.317   2.065   6.394 -1.0817 -0.1579  0.4447
 4382SOL    HW114116   0.321   2.056   6.489  0.5539  0.1239  0.4205
 4382SOL    HW214117   0.408   2.073   6.366 -1.3539 -2.3186 -1.3508
 4383SOL     OW14118   4.320   2.193   2.956  0.2229 -0.1795  0.2260
 4383SOL    HW114119   4.241   2.241   2.979  0.9070  0.5500  1.1167
 4383SOL    HW214120   4.291   2.129   2.890 -0.7546  1.2866 -0.8390
 4384SOL     OW14121   2.782   5.091   6.947  0.0695  0.3100  0.0368
 4384SOL    HW114122   2.792   5.014   7.005  0.7026  0.1973 -0.2149
 4384SOL    HW214123   2.704   5.071   6.895  1.1562 -0.9309 -1.1801
 4385SOL     OW14124   1.591   0.713   2.389  0.2634 -0.5265  0.1485
 4385SOL    HW114125   1.582   0.765   2.310  1.6321 -0.5465 -0.0436
 4385SOL    HW214126   1.671   0.663   2.376  1.0540  0.1688  1.9201
 4386SOL     OW14127   5.927   2.948   5.954  0.5459  0.5503 -0.5506
 4386SOL    HW114128   6.002   2.994   5.992  0.8081 -0.4573  0.1929
 4386SOL    HW214129   5.966   2.885   5.893  0.2629  0.5256 -0.7068
 4387SOL     OW14130   2.649   6.025   1.248  0.1071  0.1763 -0.2348
 4387SOL    HW114131   2.642   6.116   1.218  1.0933  0.7599  1.2343
 4387SOL    HW214132   2.643   6.030   1.343 -1.4917 -1.4917 -0.1965
 4388SOL     OW14133   6.771   2.674   3.147  0.2695  0.1890  0.1642
 4388SOL    HW114134   6.756   2.594   3.197  2.2679 -0.3495 -0.0103
 4388SOL    HW214135   6.795   2.643   3.059  2.6978  0.8433  0.5227
 4389SOL     OW14136   6.687   3.836   4.048 -0.2831 -1.0617  0.3504
 4389SOL    HW114137   6.686   3.792   4.132  3.3630 -0.4970  0.8608
 4389SOL    HW214138   6.708   3.767   3.985 -0.5463 -1.0773  0.2821
 4390SOL     OW14139   1.752   2.849   0.619 -0.4296 -0.2553  0.8503
 4390SOL    HW114140   1.778   2.783   0.554  1.0470  0.8276  0.2931
 4390SOL    HW214141   1.791   2.930   0.588  0.4682  0.2816  3.1824
 4391SOL     OW14142   4.249   2.111   6.912  0.2432  0.1846  0.0632
 4391SOL    HW114143   4.308   2.119   6.836 -0.2390 -1.4524 -0.5392
 4391SOL    HW214144   4.273   2.027   6.951 -1.2886 -0.2415  0.1383
 4392SOL     OW14145   3.945   2.927   3.814 -0.3130 -0.3811  0.4393
 4392SOL    HW114146   4.018   2.945   3.754 -1.2547 -0.9761 -0.9325
 4392SOL    HW214147   3.924   3.012   3.852 -0.1229  0.1400 -0.5783
 4393SOL     OW14148   0.353   5.773   0.024  0.1809  0.4965  0.1320
 4393SOL    HW114149   0.348   5.780   0.120  1.3121  2.1420  0.1162
 4393SOL    HW214150   0.291   5.838  -0.008 -1.8112 -1.5066 -0.3407
 4394SOL     OW14151   1.571   2.324   2.665 -0.4671 -0.1213 -0.1474
 4394SOL    HW114152   1.561   2.417   2.689  0.8819  0.3843 -1.4109
 4394SOL    HW214153   1.551   2.277   2.746 -0.1305  1.3221  0.8294
 4395SOL     OW14154   3.689   2.494   3.023  0.2368 -0.0671  0.0833
 4395SOL    HW114155   3.783   2.498   3.001  0.4105 -1.0812  0.5822
 4395SOL    HW214156   3.652   2.436   2.957 -0.3769  1.6123 -1.1180
 4396SOL     OW14157   3.539   4.516   4.431  0.0947  0.1479  0.5067
 4396SOL    HW114158   3.618   4.465   4.413 -1.1969 -1.3674 -1.2247
 4396SOL    HW214159   3.571   4.594   4.477  2.5282 -0.6262  0.2722
 4397SOL     OW14160   5.876   6.239   5.028 -0.3689 -0.1053 -0.1070
 4397SOL    HW114161   5.942   6.294   4.986 -0.7427  0.1862 -0.3223
 4397SOL    HW214162   5.840   6.294   5.097 -0.2809 -0.3190  0.1115
 4398SOL     OW14163   2.918   7.262   4.152 -0.5248 -0.3463  0.2182
 4398SOL    HW114164   2.988   7.326   4.162  1.1985 -1.7417 -2.0836
 4398SOL    HW214165   2.939   7.193   4.215 -0.5007 -0.2136  0.3564
 4399SOL     OW14166   6.147   6.136   5.613 -0.1484  0.3973 -0.0980
 4399SOL    HW114167   6.170   6.229   5.606 -0.8607  0.5777 -0.1308
 4399SOL    HW214168   6.216   6.099   5.668 -0.8077  1.3155  1.4394
 4400SOL     OW14169   6.141   4.977   0.203 -0.0703 -0.3777 -0.1614
 4400SOL    HW114170   6.135   4.881   0.198  1.2188 -0.5412  1.0321
 4400SOL    HW214171   6.082   5.001   0.275  1.4098 -0.5274  1.1431
 4401SOL     OW14172   2.314   2.459   1.371  0.0017  0.4634  0.3582
 4401SOL    HW114173   2.294   2.378   1.324 -0.7340  1.0730 -0.4475
 4401SOL    HW214174   2.392   2.440   1.422 -0.0217 -0.6760 -0.0083
 4402SOL     OW14175   5.345   5.524   2.648  0.6051 -0.0741  0.1549
 4402SOL    HW114176   5.286   5.451   2.629 -0.0272  0.7057 -0.9734
 4402SOL    HW214177   5.308   5.598   2.601  2.5039  0.4357 -0.6474
 4403SOL     OW14178   3.948   0.013   3.551  0.3311  0.0584 -0.2265
 4403SOL    HW114179   3.999  -0.009   3.629  0.4980 -1.3327 -0.6957
 4403SOL    HW214180   3.886   0.080   3.580  1.0729  0.2985  0.8432
 4404SOL     OW14181   0.401   2.938   5.051  0.1170 -0.2451  0.3654
 4404SOL    HW114182   0.436   2.919   5.138  1.3208 -0.7201 -0.2101
 4404SOL    HW214183   0.432   2.867   4.996 -1.3735 -0.4303 -0.2931
 4405SOL     OW14184   0.835   3.056   4.156 -0.4666 -0.1500 -0.2430
 4405SOL    HW114185   0.806   2.979   4.205  1.5841 -2.0843 -1.8717
 4405SOL    HW214186   0.930   3.056   4.164 -0.2486  0.9266 -2.0974
 4406SOL     OW14187   0.107   0.475   0.464  0.5236 -0.3870  0.4014
 4406SOL    HW114188   0.049   0.508   0.395  1.5902 -0.9738 -0.8088
 4406SOL    HW214189   0.073   0.515   0.544  0.3065  1.7434 -0.6704
 4407SOL     OW14190   2.844   1.358   0.668 -0.5000 -0.4549 -0.0733
 4407SOL    HW114191   2.883   1.388   0.750  0.4758 -0.2859 -0.5841
 4407SOL    HW214192   2.905   1.292   0.635 -0.2330  0.3615 -1.2715
 4408SOL     OW14193   5.815   3.230   3.140  0.2150 -0.0794 -0.0300
 4408SOL    HW114194   5.727   3.268   3.135  0.2574  0.2092  1.1210
 4408SOL    HW214195   5.830   3.216   3.233  1.1745 -0.6597 -0.2530
 4409SOL     OW14196   4.951   6.437   1.283  0.6107  0.0289 -0.3753
 4409SOL    HW114197   4.995   6.511   1.324  0.5481  1.2424 -2.3620
 4409SOL    HW214198   4.877   6.418   1.340  0.3622  1.8025 -0.0563
 4410SOL     OW14199   2.394   2.992   1.883 -0.6725 -0.0400  0.1906
 4410SOL    HW114200   2.442   3.066   1.921 -2.1743  0.8994  0.3278
 4410SOL    HW214201   2.419   2.992   1.790 -0.3839  0.4015  0.2660
 4411SOL     OW14202   2.201   0.460   4.622 -0.1496  0.2924  0.0005
 4411SOL    HW114203   2.169   0.431   4.708 -3.2221  1.5090 -0.6127
 4411SOL    HW214204   2.247   0.384   4.587  1.8821 -0.0142  2.9499
 4412SOL     OW14205   0.243   0.075   2.107 -0.3333 -0.0167  0.3556
 4412SOL    HW114206   0.163   0.116   2.074 -0.2141 -0.1636 -0.1243
 4412SOL    HW214207   0.251  -0.005   2.056  0.6399  0.4698 -0.2796
 4413SOL     OW14208   7.102   0.725   4.413  0.2305  0.0076  0.4064
 4413SOL    HW114209   7.174   0.665   4.398 -0.1365 -0.6366  1.1667
 4413SOL    HW214210   7.093   0.772   4.330  2.7675  1.5026  0.8729
 4414SOL     OW14211   4.545   0.635   1.733 -0.0503  0.0025 -0.2495
 4414SOL    HW114212   4.600   0.564   1.699 -1.3061 -0.2136 -2.0135
 4414SOL    HW214213   4.510   0.601   1.815  0.6686 -0.7588 -0.2444
 4415SOL     OW14214   5.220   6.325   2.848 -0.0905  0.0894 -0.1905
 4415SOL    HW114215   5.142   6.311   2.902  0.5254 -1.0039  0.4462
 4415SOL    HW214216   5.283   6.260   2.879  0.5763 -0.0142 -1.6797
 4416SOL     OW14217   6.167   0.092   3.887 -0.1084 -0.5187  0.4163
 4416SOL    HW114218   6.090   0.073   3.833 -0.8092  0.1006  1.1761
 4416SOL    HW214219   6.218   0.011   3.885  0.6226 -0.0967 -2.3133
 4417SOL     OW14220   3.922   4.176   1.552  0.2537 -0.6990 -0.0635
 4417SOL    HW114221   3.991   4.221   1.502 -0.2600  0.6697  0.4029
 4417SOL    HW214222   3.910   4.093   1.507 -0.3115  0.5404 -2.3423
 4418SOL     OW14223   6.833   0.139   2.064 -0.3466 -0.5575  0.9053
 4418SOL    HW114224   6.854   0.204   2.131 -1.3734 -1.3410  2.0048
 4418SOL    HW214225   6.914   0.132   2.012  0.2611  0.5076  1.6675
 4419SOL     OW14226   7.342   2.030   1.521 -0.4531 -0.5591  0.1031
 4419SOL    HW114227   7.273   2.063   1.463 -0.4524 -0.1624  0.3251
 4419SOL    HW214228   7.303   2.033   1.608  0.0034  0.1188  0.2892
 4420SOL     OW14229   5.744   3.877   4.272 -0.0289 -0.1001 -0.1579
 4420SOL    HW114230   5.740   3.799   4.217 -0.2678  1.4945 -2.5362
 4420SOL    HW214231   5.653   3.892   4.298 -0.1298 -0.0384 -0.5472
 4421SOL     OW14232   5.564   5.418   1.377 -0.2654 -0.3032  0.4691
 4421SOL    HW114233   5.488   5.414   1.318 -0.4230  0.6879  0.5978
 4421SOL    HW214234   5.633   5.372   1.329  0.1031  1.9034 -1.2746
 4422SOL     OW14235   2.377   5.505   4.191  0.2261 -0.2169 -0.7696
 4422SOL    HW114236   2.415   5.423   4.223 -1.0441 -0.2758  0.6604
 4422SOL    HW214237   2.342   5.483   4.105  0.5180 -0.9947 -0.7013
 4423SOL     OW14238   3.921   7.226   1.554 -0.1632 -0.1437 -0.1740
 4423SOL    HW114239   3.962   7.289   1.495 -1.2686  0.9407  0.1728
 4423SOL    HW214240   3.895   7.278   1.630 -0.7167 -1.1067  0.3149
 4424SOL     OW14241   5.452   3.276   1.416  0.5121 -0.1377  0.4874
 4424SOL    HW114242   5.402   3.195   1.423  0.8371 -0.4866 -0.8960
 4424SOL    HW214243   5.504   3.279   1.496  1.0977 -1.7302  0.2002
 4425SOL     OW14244   6.978   6.722   6.055 -0.4896 -0.1719  0.5689
 4425SOL    HW114245   7.059   6.673   6.039 -0.7528 -0.4539  0.0917
 4425SOL    HW214246   7.001   6.785   6.124  0.0325 -0.5062  0.7016
 4426SOL     OW14247   4.021   4.709   2.660  0.3625  0.0900 -0.1163
 4426SOL    HW114248   3.999   4.663   2.741  0.3205 -0.8605 -0.6501
 4426SOL    HW214249   3.950   4.687   2.600 -0.9488  2.8092  0.3117
 4427SOL     OW14250   0.231   3.423   4.979  0.0067 -0.2484 -0.5896
 4427SOL    HW114251   0.209   3.455   5.066  2.0580 -0.1258 -0.0562
 4427SOL    HW214252   0.249   3.330   4.991  1.0681 -0.0672 -0.7061
 4428SOL     OW14253   3.079   2.740   6.045 -0.5960 -0.3871 -0.4122
 4428SOL    HW114254   3.045   2.791   6.118  0.6555  0.5040 -0.4248
 4428SOL    HW214255   3.090   2.803   5.974 -1.3537 -1.1526 -1.2345
 4429SOL     OW14256   1.994   4.560   1.930  0.3859  0.1477 -0.4193
 4429SOL    HW114257   1.909   4.525   1.958  1.2937 -1.5160  0.4250
 4429SOL    HW214258   1.972   4.635   1.876 -1.6142  0.2027  0.3690
 4430SOL     OW14259   0.544   0.557   4.352 -0.3794 -0.6010  0.3265
 4430SOL    HW114260   0.576   0.615   4.283  1.1099 -0.2524  1.2615
 4430SOL    HW214261   0.479   0.502   4.309  0.0048  0.0796 -1.1839
 4431SOL     OW14262   1.437   1.662   6.914 -0.0594  0.0931  0.0341
 4431SOL    HW114263   1.470   1.751   6.928 -1.4523  0.8082 -1.0212
 4431SOL    HW214264   1.444   1.648   6.820  1.9171 -1.6857  0.3669
 4432SOL     OW14265   5.846   0.808   5.362 -0.1253 -0.4795  0.9906
 4432SOL    HW114266   5.804   0.879   5.314 -1.1239  0.6248  3.3780
 4432SOL    HW214267   5.921   0.849   5.405  1.7829 -1.8160 -0.8316
 4433SOL     OW14268   3.524   3.581   3.492  0.0789  0.3050  0.2194
 4433SOL    HW114269   3.525   3.628   3.576 -1.2705  1.1685 -0.2202
 4433SOL    HW214270   3.434   3.591   3.460  0.2854 -0.9461 -0.8203
 4434SOL     OW14271   7.252   2.522   4.127 -0.1852 -0.1224  0.4653
 4434SOL    HW114272   7.327   2.463   4.135 -0.7474 -1.1000 -0.9871
 4434SOL    HW214273   7.192   2.495   4.196  1.1189  1.2632  2.2398
 4435SOL     OW14274   5.260   6.178   1.626  0.4880  0.0454 -0.7071
 4435SOL    HW114275   5.251   6.152   1.717  0.9050  0.1570 -0.6308
 4435SOL    HW214276   5.172   6.203   1.599  0.1834 -0.8832 -0.6115
 4436SOL     OW14277   0.432   1.568   2.184 -0.1633 -0.2605 -0.2465
 4436SOL    HW114278   0.382   1.539   2.108 -0.0121 -1.6687  0.1610
 4436SOL    HW214279   0.366   1.583   2.252 -0.1074 -1.6528  0.1453
 4437SOL     OW14280   4.176   3.872   5.533  0.5900 -0.1829  0.1538
 4437SOL    HW114281   4.208   3.782   5.533 -2.6402 -1.4806 -0.4646
 4437SOL    HW214282   4.206   3.908   5.449  1.0181 -1.0351 -0.0740
 4438SOL     OW14283   1.270   3.738   2.789  0.1120 -0.3659  0.8382
 4438SOL    HW114284   1.265   3.665   2.852 -2.1706 -2.3311 -1.3676
 4438SOL    HW214285   1.185   3.781   2.797 -0.4303 -0.9658 -1.1248
 4439SOL     OW14286   3.372   2.366   6.786 -0.4577 -0.5677 -0.5936
 4439SOL    HW114287   3.286   2.348   6.747 -1.3926  2.5363 -0.2080
 4439SOL    HW214288   3.404   2.280   6.815 -3.2220 -1.8699 -1.1267
 4440SOL     OW14289   6.525   5.786   1.173 -0.2505  0.7201 -0.2691
 4440SOL    HW114290   6.561   5.874   1.157  0.1126  0.4904 -0.7224
 4440SOL    HW214291   6.602   5.731   1.186 -0.5001  0.7264  1.4861
 4441SOL     OW14292   1.416   2.122   7.139  0.3724 -0.8078  0.0805
 4441SOL    HW114293   1.367   2.199   7.111  1.3070 -1.2056 -3.0021
 4441SOL    HW214294   1.467   2.153   7.214  0.6773  1.6431 -1.0221
 4442SOL     OW14295   3.132   0.707   1.397  1.0959  0.2405 -0.0567
 4442SOL    HW114296   3.104   0.629   1.446  0.5794  0.4352 -0.0351
 4442SOL    HW214297   3.186   0.756   1.458  0.4308  0.4981  0.3339
 4443SOL     OW14298   3.130   6.979   3.293 -0.4318  0.2462 -0.3400
 4443SOL    HW114299   3.089   6.912   3.239 -1.1469  0.4591 -0.0663
 4443SOL    HW214300   3.220   6.948   3.305 -0.0790  0.4523 -2.1003
 4444SOL     OW14301   6.401   1.422   6.665 -0.1175  0.1014  0.6199
 4444SOL    HW114302   6.374   1.415   6.756  0.4587  1.7692  0.9519
 4444SOL    HW214303   6.410   1.516   6.650 -1.5785 -0.0381 -1.5720
 4445SOL     OW14304   3.072   6.152   3.752 -0.3406 -0.3591 -0.0614
 4445SOL    HW114305   2.979   6.142   3.774 -0.0924  0.8573  1.7172
 4445SOL    HW214306   3.082   6.246   3.734  0.9059 -0.1262  1.6573
 4446SOL     OW14307   3.289   0.497   5.058 -0.1457 -0.1095  0.0892
 4446SOL    HW114308   3.294   0.523   4.966 -3.7327 -0.7475 -0.4602
 4446SOL    HW214309   3.257   0.407   5.056  1.4758 -0.7946  2.0046
 4447SOL     OW14310   6.774   1.869   3.399  0.2136  0.3694 -0.7147
 4447SOL    HW114311   6.697   1.816   3.379 -0.0412  0.6721 -0.5361
 4447SOL    HW214312   6.821   1.876   3.316  0.0903  0.1259 -0.8076
 4448SOL     OW14313   2.268   7.324   2.962 -0.0849 -0.5857 -0.4870
 4448SOL    HW114314   2.174   7.331   2.980  0.2999  0.1783  1.4288
 4448SOL    HW214315   2.307   7.400   3.005  1.5725 -1.6014 -0.0904
 4449SOL     OW14316   1.745   1.780   1.293  0.7096 -0.0652 -0.4954
 4449SOL    HW114317   1.786   1.848   1.239  0.2020  0.3795 -0.3259
 4449SOL    HW214318   1.700   1.723   1.231  1.2022 -0.2958 -0.6443
 4450SOL     OW14319   6.266   5.071   2.822  0.4698 -0.3850 -0.0937
 4450SOL    HW114320   6.235   5.161   2.834  0.3537 -0.6846  2.6514
 4450SOL    HW214321   6.217   5.038   2.747 -0.3035  1.4960 -0.4651
 4451SOL     OW14322   4.796   6.195   6.444 -0.1390  0.4886 -0.0611
 4451SOL    HW114323   4.805   6.183   6.539 -0.5499  1.5319  0.1173
 4451SOL    HW214324   4.765   6.110   6.413  1.2478 -0.2754  0.5438
 4452SOL     OW14325   4.193   2.193   6.447 -0.3297  0.0906  0.4560
 4452SOL    HW114326   4.107   2.192   6.489 -0.9334  0.1552 -0.7297
 4452SOL    HW214327   4.218   2.101   6.439  0.3250  0.1156  1.9749
 4453SOL     OW14328   6.516   2.101   6.661  0.1975  0.0082  0.1067
 4453SOL    HW114329   6.497   2.178   6.715  1.2420  0.1906  0.2187
 4453SOL    HW214330   6.603   2.118   6.625 -0.9247  0.4480 -2.6172
 4454SOL     OW14331   1.113   6.307   6.763 -0.2873  0.1072  0.3012
 4454SOL    HW114332   1.081   6.348   6.683 -0.7409 -1.4398 -0.3594
 4454SOL    HW214333   1.049   6.330   6.829  0.9246  2.7558  0.6811
 4455SOL     OW14334   7.310   1.347   3.720 -0.0089  0.5086  0.3455
 4455SOL    HW114335   7.301   1.361   3.815  1.5339  0.6145  0.5057
 4455SOL    HW214336   7.372   1.274   3.713  1.2762  1.6234 -0.5585
 4456SOL     OW14337   6.272   4.643   3.249 -0.6743  0.4082  0.0072
 4456SOL    HW114338   6.332   4.577   3.214  0.1866  1.3029 -0.2534
 4456SOL    HW214339   6.195   4.637   3.193 -0.3211  0.1033 -0.4582
 4457SOL     OW14340   4.321   6.711   0.033 -0.2914 -0.5786 -0.1779
 4457SOL    HW114341   4.315   6.685  -0.059 -1.6507  0.0107 -0.2817
 4457SOL    HW214342   4.383   6.784   0.034 -0.2232 -0.6297 -0.6256
 4458SOL     OW14343   2.920   3.389   1.432  0.0472  0.3233 -0.0378
 4458SOL    HW114344   2.883   3.442   1.503  1.4886  1.9756 -0.4676
 4458SOL    HW214345   3.015   3.402   1.439  0.2263  0.4489 -2.2026
 4459SOL     OW14346   3.919   5.903   0.497 -0.2770 -0.0032  0.2391
 4459SOL    HW114347   3.936   5.990   0.461  1.0943 -1.1107 -2.0041
 4459SOL    HW214348   3.826   5.887   0.479  0.2916 -0.4447 -2.9608
 4460SOL     OW14349   0.728   5.524   3.659 -0.2954  0.4263  0.0896
 4460SOL    HW114350   0.741   5.565   3.574 -1.3347  0.3804 -0.1032
 4460SOL    HW214351   0.793   5.453   3.661 -0.2853  0.4007 -0.6867
 4461SOL     OW14352   6.218   4.941   0.816  0.0579  0.1160  0.5984
 4461SOL    HW114353   6.311   4.958   0.831  0.0785  1.4375 -0.8426
 4461SOL    HW214354   6.176   4.970   0.897  0.7689  0.9123  0.7023
 4462SOL     OW14355   2.052   0.244   2.974  0.2881  0.0410  0.0302
 4462SOL    HW114356   1.976   0.243   2.915  0.2107  1.6927  0.0583
 4462SOL    HW214357   2.126   0.219   2.918 -0.0576 -0.2025 -0.3270
 4463SOL     OW14358   1.983   2.217   6.815  0.6837  0.4819 -0.6551
 4463SOL    HW114359   1.938   2.148   6.766  0.0945 -0.9349  1.7381
 4463SOL    HW214360   2.071   2.182   6.830  0.5413  0.4679  0.1531
 4464SOL     OW14361   1.980   6.435   0.628  0.1557 -0.0238 -0.6311
 4464SOL    HW114362   1.949   6.453   0.539  0.3508  0.4443 -0.6109
 4464SOL    HW214363   1.925   6.492   0.684 -0.0914 -0.4504 -0.4324
 4465SOL     OW14364   0.552   2.266   1.128  0.2736  0.1210  0.3720
 4465SOL    HW114365   0.491   2.329   1.089  0.3316 -0.0729 -0.0444
 4465SOL    HW214366   0.500   2.217   1.191  0.5227  1.4409  1.6655
 4466SOL     OW14367   3.718   5.117   2.930  0.3678 -0.2341 -0.0018
 4466SOL    HW114368   3.800   5.152   2.895  0.3622 -1.5094 -1.3912
 4466SOL    HW214369   3.650   5.166   2.885  0.3568 -0.2559 -0.0088
 4467SOL     OW14370   5.873   1.098   0.906 -0.2228  0.6114 -0.5769
 4467SOL    HW114371   5.816   1.043   0.960 -0.6922  0.4705 -1.2140
 4467SOL    HW214372   5.961   1.064   0.922 -0.3524  0.5775  0.1074
 4468SOL     OW14373   5.047   4.914   2.953  0.1032 -0.6567  0.0579
 4468SOL    HW114374   5.038   4.846   2.886 -0.5717 -2.3709  1.7914
 4468SOL    HW214375   4.957   4.947   2.965  0.3907  0.4524 -0.6125
 4469SOL     OW14376   2.691   2.537   3.227  0.2902 -0.2698 -0.0513
 4469SOL    HW114377   2.753   2.563   3.295 -0.4466  0.5630  0.3184
 4469SOL    HW214378   2.606   2.570   3.258  0.0128  0.5632 -1.6040
 4470SOL     OW14379   6.989   6.453   4.604  0.7275  0.1092 -0.4329
 4470SOL    HW114380   7.081   6.427   4.616  0.0430 -2.3227  0.1498
 4470SOL    HW214381   6.951   6.446   4.691 -0.4961 -1.1137 -1.0384
 4471SOL     OW14382   4.155   7.211   3.699  0.5119 -0.2283 -0.0497
 4471SOL    HW114383   4.226   7.151   3.676 -0.2402 -1.0925 -0.1948
 4471SOL    HW214384   4.120   7.176   3.781  1.7854  1.5880  1.3604
 4472SOL     OW14385   4.595   2.727   3.242  0.2791 -0.1330  0.1128
 4472SOL    HW114386   4.640   2.797   3.193  1.1726 -0.9275 -0.2479
 4472SOL    HW214387   4.581   2.659   3.177  1.0281 -1.0046  0.8371
 4473SOL     OW14388   6.912   3.976   2.921 -0.2265  0.2183 -0.0747
 4473SOL    HW114389   6.967   4.054   2.930  1.9177 -1.2833  0.8440
 4473SOL    HW214390   6.970   3.911   2.880 -1.7334 -1.1050 -0.2045
 4474SOL     OW14391   6.256   5.004   4.330  0.6715  0.0859 -0.0081
 4474SOL    HW114392   6.223   5.040   4.248 -1.4538  0.1917  0.8283
 4474SOL    HW214393   6.281   4.914   4.309 -0.5137 -0.1174 -0.6424
 4475SOL     OW14394   0.488   2.683   4.529 -0.0676 -0.1249 -0.0884
 4475SOL    HW114395   0.471   2.693   4.435  0.5007  0.5268 -0.1269
 4475SOL    HW214396   0.456   2.765   4.567 -0.9599 -0.6760  0.3900
 4476SOL     OW14397   5.499   5.006   4.471 -0.1131  0.1424 -0.1731
 4476SOL    HW114398   5.594   4.996   4.477 -0.1081  0.3001  0.0154
 4476SOL    HW214399   5.487   5.075   4.406 -0.0584  0.9782  0.6777
 4477SOL     OW14400   0.235   2.426   4.904 -0.5794 -0.7223 -0.0636
 4477SOL    HW114401   0.318   2.460   4.870  0.2755 -1.8428  0.8179
 4477SOL    HW214402   0.168   2.477   4.859  0.5864  0.3867 -0.6126
 4478SOL     OW14403   7.270   5.983   0.933  0.0026 -0.6217 -0.2118
 4478SOL    HW114404   7.198   5.982   0.870 -0.0942 -0.0319 -0.1203
 4478SOL    HW214405   7.335   6.042   0.895  0.3680 -1.0358 -0.2216
 4479SOL     OW14406   3.674   1.344   6.100 -0.0047 -0.2024 -0.5468
 4479SOL    HW114407   3.724   1.423   6.119  0.4079 -0.6177  0.1496
 4479SOL    HW214408   3.602   1.374   6.044 -1.3618  1.1534  1.7572
 4480SOL     OW14409   4.452   5.177   5.243  0.5882  0.0752 -1.1411
 4480SOL    HW114410   4.437   5.153   5.334 -0.0927  3.0329 -0.3513
 4480SOL    HW214411   4.377   5.142   5.196  0.0217  0.0209 -0.2298
 4481SOL     OW14412   6.207   2.809   5.350  0.6376 -0.3029  0.3592
 4481SOL    HW114413   6.182   2.802   5.258  1.6710 -2.3633  0.1582
 4481SOL    HW214414   6.129   2.841   5.395 -0.2114 -0.2931 -1.0874
 4482SOL     OW14415   6.057   1.122   1.223 -0.3323  0.8535 -0.3653
 4482SOL    HW114416   6.133   1.077   1.260 -0.4725 -1.3268 -2.5242
 4482SOL    HW214417   6.053   1.093   1.132 -2.8179  2.2015 -0.7876
 4483SOL     OW14418   4.798   6.514   2.876 -0.0441 -0.1244  0.0370
 4483SOL    HW114419   4.812   6.457   2.800  0.5937  0.7825 -0.5513
 4483SOL    HW214420   4.783   6.454   2.949 -0.5210 -1.0197 -0.7743
 4484SOL     OW14421   1.203   1.958   6.416  0.1387 -0.1799 -0.9301
 4484SOL    HW114422   1.236   1.871   6.392 -1.0215 -0.9851  0.1950
 4484SOL    HW214423   1.199   2.006   6.334  0.8369 -1.1847 -1.5781
 4485SOL     OW14424   1.832   5.115   1.167  0.2269 -0.2415 -0.0448
 4485SOL    HW114425   1.916   5.075   1.190  0.4313 -0.1598 -0.6240
 4485SOL    HW214426   1.799   5.152   1.249  0.7596 -0.2699  0.1844
 4486SOL     OW14427   5.101   3.678   3.642 -0.2259 -0.5617  0.2805
 4486SOL    HW114428   5.074   3.636   3.724 -1.9453 -0.4419 -0.1677
 4486SOL    HW214429   5.194   3.695   3.653 -0.4631 -0.3021  2.3254
 4487SOL     OW14430   3.781   7.205   3.411  0.0093  0.0519 -0.2420
 4487SOL    HW114431   3.741   7.163   3.487 -0.6341  1.0648 -0.0092
 4487SOL    HW214432   3.845   7.267   3.447  1.1639 -0.8870 -0.5909
 4488SOL     OW14433   2.880   3.808   1.106 -0.1312  0.1076 -0.5261
 4488SOL    HW114434   2.792   3.824   1.072 -1.0054  0.2640  1.6358
 4488SOL    HW214435   2.912   3.894   1.133 -0.7085 -0.3126  1.7222
 4489SOL     OW14436   4.449   2.969   4.251  0.4781  0.4102  0.2783
 4489SOL    HW114437   4.538   2.944   4.227 -0.4983 -0.7953 -2.5111
 4489SOL    HW214438   4.410   2.890   4.288  0.1113  0.4580  0.0089
 4490SOL     OW14439   1.254   4.726   5.650  0.2037  0.4248 -0.0817
 4490SOL    HW114440   1.179   4.701   5.596  0.3433 -0.6436  0.1943
 4490SOL    HW214441   1.219   4.731   5.739  0.4709 -0.2372  0.0729
 4491SOL     OW14442   4.110   6.902   1.710 -0.3813 -0.4866 -0.5045
 4491SOL    HW114443   4.180   6.962   1.737 -1.0392  0.3869 -0.6923
 4491SOL    HW214444   4.068   6.946   1.637 -1.6611 -0.5963  0.1353
 4492SOL     OW14445   5.142   3.966   1.245 -0.6769  0.2633 -0.9393
 4492SOL    HW114446   5.154   3.874   1.223  0.6439  0.3462 -0.7037
 4492SOL    HW214447   5.231   3.997   1.264 -1.1845  1.4116 -0.3475
 4493SOL     OW14448   5.474   5.076   2.727 -0.9836  0.1277  0.1213
 4493SOL    HW114449   5.395   5.108   2.771 -1.7089 -0.8541 -0.4009
 4493SOL    HW214450   5.491   4.992   2.770 -0.6253  0.0201 -0.2364
 4494SOL     OW14451   6.539   4.392   4.690 -0.2072  0.1025 -0.0249
 4494SOL    HW114452   6.591   4.430   4.620 -0.8833 -0.2246 -0.7201
 4494SOL    HW214453   6.472   4.340   4.645 -0.4424 -0.3943  0.8648
 4495SOL     OW14454   4.523   3.954   1.252  0.4168 -0.2652  0.1958
 4495SOL    HW114455   4.527   3.895   1.327  0.4486  0.8415  1.0876
 4495SOL    HW214456   4.600   4.010   1.262 -0.0729  0.4770 -0.1734
 4496SOL     OW14457   2.935   2.264   1.521  0.3040 -0.1289 -0.2345
 4496SOL    HW114458   2.973   2.351   1.509  0.2833 -0.2233 -1.0152
 4496SOL    HW214459   2.958   2.217   1.441 -0.5797 -0.5085 -0.2751
 4497SOL     OW14460   1.530   2.286   5.726 -0.9337 -0.0353  0.4610
 4497SOL    HW114461   1.586   2.267   5.651 -1.1591  0.7259  0.0935
 4497SOL    HW214462   1.483   2.204   5.742 -0.6722 -0.2844 -0.0426
 4498SOL     OW14463   6.320   3.760   7.228 -0.0414  0.3126  0.0149
 4498SOL    HW114464   6.277   3.766   7.313  0.5750 -0.1172  0.3663
 4498SOL    HW214465   6.410   3.738   7.248  0.1156  0.2125 -0.7545
 4499SOL     OW14466   6.455   2.479   0.629 -0.4534  0.4740  0.1540
 4499SOL    HW114467   6.540   2.519   0.614 -1.0044  1.2562 -1.0358
 4499SOL    HW214468   6.430   2.509   0.717 -0.0875  1.3540 -0.0288
 4500SOL     OW14469   5.379   6.088   6.830 -0.4553 -0.3220 -0.4728
 4500SOL    HW114470   5.309   6.144   6.864 -0.1455  0.2867 -0.8240
 4500SOL    HW214471   5.430   6.145   6.772  1.1886 -0.3479  0.8712
 4501SOL     OW14472   3.527   2.233   4.924  0.1434 -0.3568 -0.3385
 4501SOL    HW114473   3.478   2.312   4.945  0.0185 -0.4753 -0.1829
 4501SOL    HW214474   3.511   2.174   4.998 -0.6241 -0.9259 -0.9300
 4502SOL     OW14475   1.100   0.566   2.772  0.6269  0.0812 -0.3531
 4502SOL    HW114476   1.041   0.561   2.697  3.1668 -1.8115 -2.4176
 4502SOL    HW214477   1.102   0.476   2.807  0.6954  0.5948  1.0284
 4503SOL     OW14478   3.290   6.407   7.079 -0.2239 -0.0154 -0.2969
 4503SOL    HW114479   3.364   6.350   7.061  1.2259  1.5399  0.5085
 4503SOL    HW214480   3.285   6.413   7.174 -0.0417  1.5384 -0.3594
 4504SOL     OW14481   4.447   4.502   1.636  0.1878 -0.3163 -0.1679
 4504SOL    HW114482   4.457   4.558   1.559 -2.0908  1.3857  0.6388
 4504SOL    HW214483   4.356   4.474   1.634  1.0792 -3.5820 -0.1571
 4505SOL     OW14484   2.403   0.919   2.102  0.4624 -0.7472 -0.0249
 4505SOL    HW114485   2.332   0.924   2.038  1.1573  0.7287 -0.7310
 4505SOL    HW214486   2.367   0.866   2.173 -1.0545 -0.7226 -0.7224
 4506SOL     OW14487   5.247   3.568   5.770 -0.3654  0.2235  0.4294
 4506SOL    HW114488   5.274   3.545   5.859  0.7383  2.3211  0.7092
 4506SOL    HW214489   5.167   3.620   5.782 -0.8885 -0.4778  0.0788
 4507SOL     OW14490   4.110   6.867   7.372  0.6966 -0.0872  0.0810
 4507SOL    HW114491   4.180   6.803   7.382  1.1220  0.7173  4.4078
 4507SOL    HW214492   4.039   6.820   7.329  1.9801 -2.5956  0.5489
 4508SOL     OW14493   0.577   3.154   5.708  0.2165 -0.0645 -0.0239
 4508SOL    HW114494   0.538   3.173   5.622  1.8343  0.8190 -0.5926
 4508SOL    HW214495   0.671   3.160   5.694  0.5127  1.3694  2.1090
 4509SOL     OW14496   3.737   6.606   2.957 -0.0550  0.0349  0.2582
 4509SOL    HW114497   3.777   6.692   2.974 -0.9546  0.7338 -0.9759
 4509SOL    HW214498   3.808   6.553   2.923  0.0052  1.0717 -1.3331
 4510SOL     OW14499   2.002   4.015   3.667 -0.6154  0.2506 -0.2468
 4510SOL    HW114500   1.968   4.062   3.590 -0.5581  2.1668  0.8352
 4510SOL    HW214501   1.971   3.925   3.656 -1.1871  0.6385 -2.1530
 4511SOL     OW14502   0.129   1.546   6.112  0.3079  0.2218  0.2652
 4511SOL    HW114503   0.177   1.544   6.029  0.8819 -1.9103  0.5943
 4511SOL    HW214504   0.111   1.454   6.132 -0.5347  0.7395  2.1006
 4512SOL     OW14505   2.514   1.846   2.158  0.0476  0.4790  0.1715
 4512SOL    HW114506   2.600   1.858   2.117  0.2114  0.0194  0.3759
 4512SOL    HW214507   2.534   1.825   2.249 -0.3101  1.3582  0.4592
 4513SOL     OW14508   0.647   3.173   1.970  0.1198 -0.1634  0.2209
 4513SOL    HW114509   0.708   3.112   2.011 -1.3289 -2.1403 -0.4073
 4513SOL    HW214510   0.692   3.203   1.891  0.1449 -1.9876 -0.5034
 4514SOL     OW14511   0.907   6.746   6.329 -0.3266 -0.3373 -0.4113
 4514SOL    HW114512   0.879   6.799   6.404 -1.8199  0.2981 -1.3868
 4514SOL    HW214513   0.974   6.798   6.287 -0.7513  0.1236 -0.5269
 4515SOL     OW14514   3.440   3.347   2.988 -0.0621 -0.1756  0.1864
 4515SOL    HW114515   3.475   3.258   2.991 -0.9135 -0.5063  0.6582
 4515SOL    HW214516   3.410   3.357   2.898  0.6177 -0.1240 -0.0447
 4516SOL     OW14517   0.364   4.787   5.123  0.0339  0.5233 -0.1646
 4516SOL    HW114518   0.326   4.862   5.078  1.8278  2.2977  1.1344
 4516SOL    HW214519   0.375   4.721   5.055 -1.5659  1.4038 -1.3504
 4517SOL     OW14520   4.885   4.249   5.186  0.0184 -0.0609 -0.2744
 4517SOL    HW114521   4.908   4.329   5.234  0.5457 -1.1080  1.3143
 4517SOL    HW214522   4.969   4.212   5.160 -0.1956 -0.3650 -0.5366
 4518SOL     OW14523   3.992   1.291   3.075 -0.1267 -0.2722  0.6071
 4518SOL    HW114524   4.069   1.251   3.114 -0.1432 -0.5407  0.3722
 4518SOL    HW214525   3.925   1.286   3.143 -0.5692 -2.0091  0.0966
 4519SOL     OW14526   6.591   0.433   1.169 -0.0304 -0.3386  0.2019
 4519SOL    HW114527   6.498   0.455   1.167 -0.1968 -1.0075  0.3415
 4519SOL    HW214528   6.617   0.449   1.259  0.4383  1.6009 -0.2449
 4520SOL     OW14529   4.703   4.038   7.198 -0.0459  0.0398 -0.6458
 4520SOL    HW114530   4.705   4.051   7.293 -0.4095  1.6141 -0.8211
 4520SOL    HW214531   4.610   4.042   7.176  0.0914  0.4261 -1.1582
 4521SOL     OW14532   2.036   0.721   1.335  0.5137  0.4997  0.5164
 4521SOL    HW114533   2.045   0.634   1.297  0.9570  0.6559  0.2551
 4521SOL    HW214534   1.993   0.707   1.419 -1.0061  0.1932 -0.2671
 4522SOL     OW14535   1.271   5.705   4.341 -0.3579  0.0035  0.3110
 4522SOL    HW114536   1.343   5.765   4.325 -0.2617 -0.4636 -1.2725
 4522SOL    HW214537   1.200   5.761   4.375 -0.5971  1.2683 -2.0002
 4523SOL     OW14538   5.111   3.585   2.713  0.2359 -0.1766  0.5218
 4523SOL    HW114539   5.157   3.539   2.783  0.5983  2.3023  2.0184
 4523SOL    HW214540   5.091   3.671   2.749 -0.1546  0.9887 -2.2046
 4524SOL     OW14541   0.903   5.593   2.141  0.1677  0.3945  0.1492
 4524SOL    HW114542   0.955   5.661   2.183 -0.0198  1.8487 -1.8285
 4524SOL    HW214543   0.902   5.617   2.048 -0.8724 -1.6923 -0.4530
 4525SOL     OW14544   5.501   5.706   4.314 -0.3044  0.3608 -0.0344
 4525SOL    HW114545   5.529   5.734   4.401  0.1332  0.6558 -0.2660
 4525SOL    HW214546   5.410   5.736   4.307 -0.3059  0.4350  0.2750
 4526SOL     OW14547   4.974   5.159   6.963  0.1843  0.0239  0.0696
 4526SOL    HW114548   5.044   5.197   6.909  0.2172 -0.7405 -0.4391
 4526SOL    HW214549   4.953   5.228   7.027  0.4057  0.7983 -0.6735
 4527SOL     OW14550   1.851   2.234   2.850  0.2835 -0.3070  0.1382
 4527SOL    HW114551   1.810   2.148   2.859 -0.8848  0.1884 -0.2247
 4527SOL    HW214552   1.781   2.290   2.816  0.7018  1.0290  1.3645
 4528SOL     OW14553   3.303   0.261   7.110  0.5533 -0.0268 -0.6085
 4528SOL    HW114554   3.344   0.213   7.181  0.1065  0.9906  0.3678
 4528SOL    HW214555   3.367   0.260   7.039  1.9402  0.8576  0.6000
 4529SOL     OW14556   3.369   2.455   4.949  0.4065 -0.3709 -0.1945
 4529SOL    HW114557   3.352   2.489   4.861 -2.2550 -1.0321 -0.0202
 4529SOL    HW214558   3.396   2.532   4.998  0.8756  0.2228 -1.3341
 4530SOL     OW14559   6.687   6.516   0.857  0.4691  0.2727  0.2555
 4530SOL    HW114560   6.739   6.592   0.881  0.9488 -0.2505  0.9336
 4530SOL    HW214561   6.661   6.531   0.766  1.9048  0.5013 -0.1404
 4531SOL     OW14562   2.692   1.390   0.304 -0.2182 -0.3217  0.2063
 4531SOL    HW114563   2.661   1.394   0.395 -0.0441  0.6689  0.2391
 4531SOL    HW214564   2.776   1.437   0.306 -1.0522  1.3266 -0.7851
 4532SOL     OW14565   5.562   6.975   6.670  0.9386 -0.1981 -0.1767
 4532SOL    HW114566   5.655   6.983   6.694  1.2421 -0.4993 -1.1764
 4532SOL    HW214567   5.550   6.882   6.650  0.2467 -0.2783  0.5854
 4533SOL     OW14568   1.241   5.000   5.286 -0.1089  0.0329  0.2773
 4533SOL    HW114569   1.305   4.934   5.262  1.0724  0.3977  2.1806
 4533SOL    HW214570   1.156   4.959   5.271  0.5732 -0.9786 -0.9245
 4534SOL     OW14571   4.790   4.273   0.656  0.2484  0.5294  0.5354
 4534SOL    HW114572   4.761   4.329   0.727  0.3481  3.9547 -1.9029
 4534SOL    HW214573   4.873   4.235   0.688 -0.3739  0.8418  2.6726
 4535SOL     OW14574   6.372   2.386   3.081 -0.0358  0.0614 -0.2385
 4535SOL    HW114575   6.308   2.373   3.151 -0.1217  0.0927 -0.3116
 4535SOL    HW214576   6.382   2.300   3.041  2.2232 -0.6866  1.7043
 4536SOL     OW14577   3.187   4.180   6.063 -0.0958  0.7517  0.1569
 4536SOL    HW114578   3.150   4.143   6.143 -0.6892  0.0596 -0.4193
 4536SOL    HW214579   3.145   4.130   5.992  0.5503  1.2291 -0.5765
 4537SOL     OW14580   4.623   7.060   6.911  0.1876  0.7682  0.9825
 4537SOL    HW114581   4.588   7.130   6.856  0.3883  2.1139  2.5170
 4537SOL    HW214582   4.677   7.008   6.851  0.3238  2.1165 -0.1153
 4538SOL     OW14583   6.723   6.700   6.851  0.8815  0.1108 -0.2070
 4538SOL    HW114584   6.781   6.638   6.895 -0.3836 -0.1775  1.1233
 4538SOL    HW214585   6.749   6.786   6.885  0.2317 -0.0638  0.7516
 4539SOL     OW14586   5.206   4.300   1.993  0.0595 -0.8582  1.0257
 4539SOL    HW114587   5.173   4.212   1.974 -0.9407 -0.5947  1.4967
 4539SOL    HW214588   5.280   4.285   2.052  0.3836 -1.4141  0.5016
 4540SOL     OW14589   1.505   2.653   1.344  0.2438  0.6904  0.2272
 4540SOL    HW114590   1.582   2.656   1.400 -0.0273  0.9786  0.5968
 4540SOL    HW214591   1.535   2.614   1.262  0.4669 -0.5212  0.8584
 4541SOL     OW14592   7.107   2.221   6.641 -0.1417  0.1192  0.5330
 4541SOL    HW114593   7.085   2.139   6.598 -0.2023 -0.3838  1.4918
 4541SOL    HW214594   7.043   2.284   6.609  0.2925 -0.0418 -0.6957
 4542SOL     OW14595   5.763   3.460   5.646 -0.2350  0.4001 -0.1115
 4542SOL    HW114596   5.673   3.464   5.678 -0.5612 -0.1226 -0.9156
 4542SOL    HW214597   5.802   3.388   5.695 -0.4535  0.2101 -0.2104
 4543SOL     OW14598   1.372   3.228   2.038  0.6138 -0.4520 -0.2036
 4543SOL    HW114599   1.400   3.262   1.953  0.9000  0.3493  0.2059
 4543SOL    HW214600   1.444   3.172   2.067  0.4164 -0.9105 -0.5891
 4544SOL     OW14601   5.150   5.018   6.191 -0.5636  0.2260 -0.4272
 4544SOL    HW114602   5.075   5.014   6.250 -0.0691 -0.6534  0.1621
 4544SOL    HW214603   5.118   4.982   6.108 -0.2491 -2.2750  0.4564
 4545SOL     OW14604   6.213   3.647   6.243 -0.0243  0.2118  0.2038
 4545SOL    HW114605   6.302   3.639   6.277  0.4153  1.1323 -0.6600
 4545SOL    HW214606   6.200   3.568   6.190 -0.3092 -0.6788  1.5454
 4546SOL     OW14607   0.306   0.798   5.673  0.1292 -0.5029  0.4249
 4546SOL    HW114608   0.387   0.747   5.662  1.4276  1.9122 -4.7637
 4546SOL    HW214609   0.244   0.757   5.613 -0.4916  0.9523  0.0174
 4547SOL     OW14610   0.779   4.681   0.895  0.2831  0.2605  0.3806
 4547SOL    HW114611   0.828   4.759   0.868  1.0581 -0.3338  0.0143
 4547SOL    HW214612   0.714   4.714   0.957  0.9599  1.1291  0.6630
 4548SOL     OW14613   4.052   5.811   0.743 -0.9748  0.0259 -0.0468
 4548SOL    HW114614   4.002   5.833   0.665 -1.1348  0.1203  0.0794
 4548SOL    HW214615   3.990   5.763   0.798 -1.2486  1.0237  0.5544
 4549SOL     OW14616   0.570   4.991   0.746  0.6244  0.5856 -0.5339
 4549SOL    HW114617   0.561   4.951   0.660  1.8291 -1.4998  0.2492
 4549SOL    HW214618   0.501   5.058   0.749  0.6366  0.7839 -3.1212
 4550SOL     OW14619   0.503   3.792   5.917 -0.1025  0.2293 -0.2372
 4550SOL    HW114620   0.588   3.834   5.929 -0.9690  1.5090  1.9275
 4550SOL    HW214621   0.488   3.797   5.822  1.9845  0.4033 -0.6142
 4551SOL     OW14622   4.663   6.354   3.732  0.1802  0.2568  0.3162
 4551SOL    HW114623   4.743   6.308   3.706  1.0725  1.2873  1.1721
 4551SOL    HW214624   4.606   6.347   3.656  0.4212 -1.9308  0.2713
 4552SOL     OW14625   3.513   0.139   4.615 -0.0072 -0.0900  0.6478
 4552SOL    HW114626   3.602   0.104   4.613  0.1241  0.1282  2.0225
 4552SOL    HW214627   3.485   0.138   4.523  1.7039  0.6025  0.0815
 4553SOL     OW14628   0.595   6.796   3.252  0.0582  0.2362  0.2780
 4553SOL    HW114629   0.640   6.870   3.211  2.0445 -0.5798  0.8897
 4553SOL    HW214630   0.508   6.796   3.211  0.7563  1.5671 -1.3459
 4554SOL     OW14631   4.147   0.568   0.525  0.2922 -0.1938 -0.1492
 4554SOL    HW114632   4.221   0.626   0.543 -1.6872  3.2368 -2.0985
 4554SOL    HW214633   4.089   0.579   0.600 -0.0652  0.3797 -0.5011
 4555SOL     OW14634   0.189   1.324   0.535 -0.2003  0.1188 -0.0533
 4555SOL    HW114635   0.237   1.399   0.569 -0.4049 -0.0553  0.6255
 4555SOL    HW214636   0.120   1.308   0.599 -1.9768  1.1433 -1.6078
 4556SOL     OW14637   5.540   4.503   0.672  0.0234 -0.0950  0.2994
 4556SOL    HW114638   5.531   4.549   0.755  0.5033 -0.8629  0.7825
 4556SOL    HW214639   5.609   4.551   0.626  1.1959 -0.8770  1.1933
 4557SOL     OW14640   1.495   5.982   2.353  0.0870  0.2554 -0.2687
 4557SOL    HW114641   1.411   5.949   2.384 -1.0973  2.5372 -0.8258
 4557SOL    HW214642   1.533   5.909   2.304 -1.9381 -0.5932 -0.6724
 4558SOL     OW14643   3.667   6.964   6.110  0.2452 -0.4270  0.4214
 4558SOL    HW114644   3.747   7.016   6.110 -0.7452  1.1715  1.3627
 4558SOL    HW214645   3.596   7.028   6.121 -1.3212 -1.6008 -1.9610
 4559SOL     OW14646   2.737   5.384   5.161 -0.2191  0.2052  0.0153
 4559SOL    HW114647   2.772   5.453   5.104  1.2874 -0.8102 -0.3849
 4559SOL    HW214648   2.646   5.375   5.135 -0.6385  2.4791  0.5495
 4560SOL     OW14649   1.626   1.666   1.088  0.4709 -0.2875  0.2211
 4560SOL    HW114650   1.553   1.724   1.066  0.5263  0.5724  2.1040
 4560SOL    HW214651   1.594   1.578   1.067 -0.2501  0.2642 -1.0677
 4561SOL     OW14652   3.618   1.610   4.499  0.2553 -0.3852 -0.2275
 4561SOL    HW114653   3.594   1.700   4.480 -1.2970 -0.4922  0.9937
 4561SOL    HW214654   3.690   1.590   4.439 -1.4602  0.6269 -2.7571
 4562SOL     OW14655   5.147   4.116   7.330 -0.8777  0.0611  0.0937
 4562SOL    HW114656   5.198   4.073   7.399 -1.2863 -0.4217  0.1038
 4562SOL    HW214657   5.162   4.209   7.343 -0.2760 -0.0601  0.3129
 4563SOL     OW14658   1.200   1.418   2.415 -0.0556 -0.5548 -0.4241
 4563SOL    HW114659   1.219   1.436   2.507 -2.3056 -0.8593  0.1601
 4563SOL    HW214660   1.209   1.323   2.406  0.7172 -0.4619 -0.6701
 4564SOL     OW14661   2.381   1.886   2.983  0.6147  0.6425  0.2093
 4564SOL    HW114662   2.453   1.909   3.042  0.7966 -0.0600  0.2776
 4564SOL    HW214663   2.344   1.807   3.022  0.6265  0.2748 -0.5211
 4565SOL     OW14664   2.690   5.003   4.351  0.2637 -0.8265  0.0346
 4565SOL    HW114665   2.677   5.075   4.412  1.0891  0.4480 -1.2469
 4565SOL    HW214666   2.781   5.012   4.322 -0.1187 -1.3801 -1.4079
 4566SOL     OW14667   1.896   0.115   3.239  0.0088  0.0494 -0.4215
 4566SOL    HW114668   1.830   0.174   3.205  0.2566  0.7688  0.3184
 4566SOL    HW214669   1.854   0.029   3.240 -0.4029  0.2269 -1.3542
 4567SOL     OW14670   5.978   0.862   4.261  0.1335 -0.5161 -0.0684
 4567SOL    HW114671   5.934   0.797   4.206  1.1017 -0.9107 -0.4030
 4567SOL    HW214672   5.982   0.822   4.348  0.9907 -1.0522 -0.3404
 4568SOL     OW14673   2.504   3.823   1.780 -0.3419 -0.0832  0.1294
 4568SOL    HW114674   2.456   3.843   1.699  0.9996  0.1282 -0.6457
 4568SOL    HW214675   2.444   3.849   1.850 -2.1584 -1.7073 -0.7347
 4569SOL     OW14676   6.460   6.287   0.579 -0.2414 -0.0835 -0.4135
 4569SOL    HW114677   6.532   6.301   0.640 -0.3389 -0.2156 -0.2679
 4569SOL    HW214678   6.382   6.315   0.627 -0.4748 -1.3102 -0.0326
 4570SOL     OW14679   3.673   1.161   2.103  0.3034 -0.6961 -0.0674
 4570SOL    HW114680   3.588   1.181   2.063  1.1197 -1.6108 -2.4845
 4570SOL    HW214681   3.657   1.083   2.156 -0.8669  0.6599  1.6623
 4571SOL     OW14682   2.573   2.287   2.354  0.4043  0.1130  0.0486
 4571SOL    HW114683   2.549   2.300   2.262 -1.0564 -0.5205  0.3028
 4571SOL    HW214684   2.668   2.275   2.354  0.4204  0.1755 -1.3711
 4572SOL     OW14685   3.527   1.681   6.846  0.7988 -0.3531  0.1609
 4572SOL    HW114686   3.617   1.684   6.880  0.6680 -2.2372  0.8021
 4572SOL    HW214687   3.532   1.626   6.769  0.1863 -0.5355  0.2434
 4573SOL     OW14688   1.934   0.293   0.289  0.1115  0.0034 -0.2470
 4573SOL    HW114689   1.973   0.371   0.328 -1.7838  0.8555  0.0106
 4573SOL    HW214690   1.919   0.234   0.362  0.9769 -0.3679 -0.3601
 4574SOL     OW14691   4.921   2.451   6.033  0.5641 -0.0895 -0.2536
 4574SOL    HW114692   4.947   2.529   6.082 -1.4841 -1.4422  3.3125
 4574SOL    HW214693   4.914   2.482   5.942  2.3517  3.1720  0.5518
 4575SOL     OW14694   0.372   3.271   1.983 -0.3968 -0.2547  0.2465
 4575SOL    HW114695   0.339   3.265   1.893 -0.1215  0.2877  0.1022
 4575SOL    HW214696   0.465   3.248   1.976 -0.1328  0.7750  0.2196
 4576SOL     OW14697   2.342   1.720   1.995  0.2176  0.0262 -0.2747
 4576SOL    HW114698   2.392   1.774   2.056 -0.4713 -1.7483  2.0083
 4576SOL    HW214699   2.380   1.632   2.003 -3.0536 -1.4043  1.5293
 4577SOL     OW14700   7.063   2.812   4.185 -0.3176 -0.2285  0.8052
 4577SOL    HW114701   7.147   2.781   4.151 -0.7616 -0.7337  0.1672
 4577SOL    HW214702   7.031   2.740   4.239 -0.8627 -0.4740  0.1553
 4578SOL     OW14703   1.175   1.133   5.874 -0.0563  0.4153  0.5928
 4578SOL    HW114704   1.143   1.157   5.961 -0.1630  2.2233  0.0826
 4578SOL    HW214705   1.095   1.117   5.823  0.0084 -1.5972  1.0253
 4579SOL     OW14706   2.586   5.653   3.118 -0.0746  0.1079 -0.4743
 4579SOL    HW114707   2.634   5.628   3.197 -0.2942 -0.4090 -0.5019
 4579SOL    HW214708   2.604   5.747   3.108  2.1414 -0.3544 -1.3226
 4580SOL     OW14709   1.593   2.123   3.670  0.3711 -0.2865 -0.2626
 4580SOL    HW114710   1.498   2.131   3.676  0.4476  0.0756  0.5983
 4580SOL    HW214711   1.607   2.031   3.646 -0.2057 -0.2405 -0.7898
 4581SOL     OW14712   5.484   6.155   6.494  0.1259  0.0528  0.6389
 4581SOL    HW114713   5.549   6.087   6.509  0.9002  0.7346  0.4834
 4581SOL    HW214714   5.411   6.110   6.452  1.2695 -0.4231 -0.9707
 4582SOL     OW14715   4.487   4.254   6.718 -0.2554  0.7434  0.2656
 4582SOL    HW114716   4.469   4.189   6.787  0.1564  1.1722  0.7841
 4582SOL    HW214717   4.448   4.216   6.639 -0.3229  0.0244  0.6342
 4583SOL     OW14718   0.763   3.655   5.204  0.1198  0.4999 -0.2073
 4583SOL    HW114719   0.782   3.595   5.132 -3.0628 -1.0506  0.0361
 4583SOL    HW214720   0.769   3.742   5.165  0.9837 -0.1683 -1.6512
 4584SOL     OW14721   6.416   7.311   3.390 -0.0198 -0.4909  0.2654
 4584SOL    HW114722   6.393   7.235   3.337  0.5920 -1.2445  1.0463
 4584SOL    HW214723   6.511   7.318   3.382  0.1140 -0.7873  1.4709
 4585SOL     OW14724   4.885   6.523   7.298  0.2294  0.5829  0.0933
 4585SOL    HW114725   4.884   6.532   7.202  1.2188  1.8684  0.1737
 4585SOL    HW214726   4.977   6.511   7.319 -0.1259 -1.1807  0.8010
 4586SOL     OW14727   0.799   3.280   3.148 -0.0922 -0.5152 -0.3974
 4586SOL    HW114728   0.723   3.247   3.100  0.1316 -1.6431 -0.0226
 4586SOL    HW214729   0.764   3.350   3.203 -0.8976 -1.1350 -0.0974
 4587SOL     OW14730   5.799   4.501   5.181  0.0913  0.5821  0.4224
 4587SOL    HW114731   5.863   4.568   5.158  0.5063 -0.2669 -1.0602
 4587SOL    HW214732   5.833   4.460   5.261  1.3858  0.2113 -0.2826
 4588SOL     OW14733   2.420   4.924   2.506 -0.2040 -0.5094 -0.0295
 4588SOL    HW114734   2.408   4.843   2.555  1.8119  0.3979  2.1791
 4588SOL    HW214735   2.405   4.993   2.571  0.7746  0.7993 -1.1404
 4589SOL     OW14736   4.995   2.860   7.013 -0.6573 -0.1843  0.0370
 4589SOL    HW114737   5.059   2.913   6.965  0.1878  0.3719  1.6886
 4589SOL    HW214738   4.922   2.920   7.029 -1.1137 -0.4867 -0.8700
 4590SOL     OW14739   5.868   0.325   5.827  0.0307 -0.2048  0.2167
 4590SOL    HW114740   5.856   0.419   5.843  0.7094  0.1037 -0.9623
 4590SOL    HW214741   5.933   0.298   5.891  1.1326  0.5298 -0.5550
 4591SOL     OW14742   5.363   3.254   6.814 -0.0060  0.1275 -0.5488
 4591SOL    HW114743   5.416   3.322   6.771  0.6265 -0.0572 -0.0688
 4591SOL    HW214744   5.277   3.261   6.772 -0.2786  1.9441  0.2021
 4592SOL     OW14745   1.255   5.328   1.363 -0.4070  0.4465 -0.2210
 4592SOL    HW114746   1.160   5.338   1.373 -0.9078  1.8380 -4.3736
 4592SOL    HW214747   1.277   5.385   1.289  3.6661 -0.0816  0.3715
 4593SOL     OW14748   3.845   6.378   5.845  0.1236  0.9899 -0.0970
 4593SOL    HW114749   3.874   6.467   5.823  2.2431  0.3758 -0.0404
 4593SOL    HW214750   3.918   6.341   5.895 -0.9332 -0.6202  0.3222
 4594SOL     OW14751   3.446   4.169   7.171  0.1006 -0.4808 -0.5514
 4594SOL    HW114752   3.473   4.229   7.102  0.0799 -0.9490 -0.9805
 4594SOL    HW214753   3.351   4.180   7.177  0.1128 -0.3835 -0.5496
 4595SOL     OW14754   2.569   4.804   3.253  0.2219  0.1104 -0.2446
 4595SOL    HW114755   2.550   4.723   3.206 -1.8772  0.2544  0.2738
 4595SOL    HW214756   2.652   4.787   3.297 -0.2877 -1.8464  0.0452
 4596SOL     OW14757   6.945   7.197   1.033  0.1101 -0.1619 -0.3873
 4596SOL    HW114758   6.895   7.209   1.113 -0.5451 -0.3599 -0.7649
 4596SOL    HW214759   7.015   7.262   1.039 -0.0301 -0.0632  0.2650
 4597SOL     OW14760   3.082   0.522   2.950 -0.2470 -0.3668  0.1800
 4597SOL    HW114761   3.024   0.453   2.983 -1.1938  0.2644 -0.1251
 4597SOL    HW214762   3.137   0.545   3.025 -0.5087 -0.8513  0.5249
 4598SOL     OW14763   1.831   4.966   2.979  0.2595 -0.5659 -0.0578
 4598SOL    HW114764   1.857   4.907   3.049 -0.9647  0.8743  1.7103
 4598SOL    HW214765   1.911   5.015   2.957  0.7402 -1.2996  0.0354
 4599SOL     OW14766   6.829   0.359   1.734  0.0051  0.3377 -0.4981
 4599SOL    HW114767   6.823   0.393   1.824 -0.2020  1.6366 -0.9789
 4599SOL    HW214768   6.922   0.337   1.724  0.1670  0.8523 -0.1869
 4600SOL     OW14769   6.907   6.413   7.138 -0.3716 -0.4051  0.0201
 4600SOL    HW114770   6.976   6.471   7.169  1.2431 -2.1016 -0.2670
 4600SOL    HW214771   6.896   6.435   7.046  0.2964 -0.6212 -0.1103
 4601SOL     OW14772   2.826   5.079   6.578  1.0411 -0.3816 -0.3503
 4601SOL    HW114773   2.758   5.068   6.645  0.9297 -0.6351 -0.5044
 4601SOL    HW214774   2.789   5.143   6.517  1.7569  1.0395  0.6357
 4602SOL     OW14775   2.568   6.903   6.094  0.0139 -0.0073  0.6314
 4602SOL    HW114776   2.559   6.966   6.022 -0.2199 -1.2426 -0.4703
 4602SOL    HW214777   2.623   6.948   6.158 -1.3847  1.8933  0.6029
 4603SOL     OW14778   2.212   5.008   5.621  0.1491  0.1032 -0.1895
 4603SOL    HW114779   2.296   5.011   5.666  0.6468  1.1936 -1.1620
 4603SOL    HW214780   2.147   5.023   5.690  0.8935  1.8016  0.1923
 4604SOL     OW14781   6.626   7.208   2.692 -0.0464 -0.0210 -0.2286
 4604SOL    HW114782   6.540   7.173   2.669  0.2338 -0.6617 -0.3328
 4604SOL    HW214783   6.683   7.179   2.621  0.7223 -1.5310  0.9567
 4605SOL     OW14784   4.467   1.970   3.824 -0.3300  0.2173 -0.2882
 4605SOL    HW114785   4.563   1.968   3.828 -0.2757  1.2038 -0.8228
 4605SOL    HW214786   4.444   1.896   3.767  0.0060 -0.9341  1.0007
 4606SOL     OW14787   5.832   5.785   6.953 -0.1541 -0.0375  0.1645
 4606SOL    HW114788   5.895   5.746   7.014 -1.6290 -1.1478  1.0658
 4606SOL    HW214789   5.817   5.717   6.888 -0.3294  0.2509 -0.0955
 4607SOL     OW14790   4.542   0.390   4.580 -0.2720  0.1694 -0.0864
 4607SOL    HW114791   4.527   0.388   4.674 -0.9932  2.7823 -0.0497
 4607SOL    HW214792   4.625   0.438   4.570  0.0826 -0.5578 -0.7884
 4608SOL     OW14793   6.082   1.159   5.479 -0.1937 -0.2296  0.1419
 4608SOL    HW114794   6.128   1.216   5.418 -0.4704  0.2126  0.3419
 4608SOL    HW214795   5.989   1.175   5.462 -0.2750 -0.5102  0.3031
 4609SOL     OW14796   1.258   5.406   5.116 -0.5814  0.2597  0.7692
 4609SOL    HW114797   1.304   5.474   5.166  0.0574  0.6140 -0.2715
 4609SOL    HW214798   1.274   5.429   5.024  1.5959 -2.5016  0.3058
 4610SOL     OW14799   3.743   5.088   0.972 -0.0263  0.0118  0.4789
 4610SOL    HW114800   3.680   5.045   1.030 -0.5226 -0.2867 -0.2590
 4610SOL    HW214801   3.718   5.180   0.973  0.6794  0.1998  1.6186
 4611SOL     OW14802   4.341   6.709   1.555 -0.1838  0.1760 -0.3311
 4611SOL    HW114803   4.320   6.616   1.557 -0.1749  0.1675 -0.5628
 4611SOL    HW214804   4.338   6.737   1.646 -1.2007  0.1843 -0.3656
 4612SOL     OW14805   6.945   3.999   2.356 -0.4273  0.2897  1.2173
 4612SOL    HW114806   6.881   4.015   2.286  0.3103  0.4675  0.5741
 4612SOL    HW214807   6.953   3.903   2.359  1.1946  0.2980 -0.5119
 4613SOL     OW14808   5.239   3.196   0.500 -0.2790 -0.0792 -0.5247
 4613SOL    HW114809   5.225   3.180   0.407 -0.9373  0.5656 -0.5530
 4613SOL    HW214810   5.164   3.250   0.526  0.4690  0.6588  0.1371
 4614SOL     OW14811   3.344   6.351   1.844 -0.0460  0.1527 -0.4813
 4614SOL    HW114812   3.387   6.272   1.809 -0.5230  0.3954 -1.6501
 4614SOL    HW214813   3.339   6.335   1.938 -2.5030 -2.4049 -0.9254
 4615SOL     OW14814   5.684   1.241   6.357  0.1737  0.4456  0.1016
 4615SOL    HW114815   5.592   1.266   6.366  0.0059  0.0565 -0.5252
 4615SOL    HW214816   5.722   1.258   6.444 -0.7921 -0.6305  0.7658
 4616SOL     OW14817   0.667   2.446   2.362  0.0638  0.0732  0.0390
 4616SOL    HW114818   0.714   2.529   2.371  0.7339 -0.2661 -0.3055
 4616SOL    HW214819   0.672   2.425   2.269 -1.5596  0.4823 -0.1823
 4617SOL     OW14820   0.504   3.181   5.984 -0.0413 -0.2689  0.3790
 4617SOL    HW114821   0.569   3.111   5.993 -1.0505 -1.4227 -0.8001
 4617SOL    HW214822   0.511   3.209   5.893 -0.9802 -0.2101  0.3129
 4618SOL     OW14823   2.456   1.482   2.041  0.9390 -0.1484 -0.0274
 4618SOL    HW114824   2.526   1.422   2.016  0.7974  0.3789 -1.7574
 4618SOL    HW214825   2.473   1.501   2.134  2.2846 -1.0791 -0.0608
 4619SOL     OW14826   1.616   0.851   0.451  0.3490  0.2315 -0.1247
 4619SOL    HW114827   1.694   0.896   0.485 -0.2770  0.9564  0.3687
 4619SOL    HW214828   1.647   0.763   0.430  1.1338  0.2771  0.7772
 4620SOL     OW14829   0.793   4.371   5.755 -0.0730  0.1528 -0.1069
 4620SOL    HW114830   0.724   4.374   5.689 -1.0420 -3.3108  0.5686
 4620SOL    HW214831   0.780   4.289   5.801  3.9686 -0.2918  0.6779
 4621SOL     OW14832   6.063   4.679   5.531  0.1949  0.2945 -0.1556
 4621SOL    HW114833   6.133   4.668   5.466 -0.6679  0.2197 -1.0870
 4621SOL    HW214834   6.039   4.772   5.524  2.3382  1.1701  2.4161
 4622SOL     OW14835   6.208   3.925   0.050 -0.0183 -0.1323 -0.3151
 4622SOL    HW114836   6.240   3.862   0.114  0.0938 -1.1163 -1.3020
 4622SOL    HW214837   6.125   3.956   0.086 -0.2969 -1.1826 -0.0037
 4623SOL     OW14838   1.809   2.435   0.154 -0.5084 -0.5389 -0.3604
 4623SOL    HW114839   1.739   2.431   0.220 -0.3773 -0.5600 -0.2213
 4623SOL    HW214840   1.802   2.524   0.118  2.8259  1.6391  3.4732
 4624SOL     OW14841   2.766   5.806   6.402 -0.4631  0.1622  0.0651
 4624SOL    HW114842   2.764   5.816   6.498  0.7953  2.9289 -0.1067
 4624SOL    HW214843   2.857   5.824   6.378 -0.9177  0.2125 -1.7240
 4625SOL     OW14844   2.092   2.535   1.091 -0.0893  0.4697  0.3037
 4625SOL    HW114845   2.087   2.587   1.171 -1.4615  1.3745 -0.3207
 4625SOL    HW214846   2.021   2.472   1.098  0.2656  0.0519  0.1400
 4626SOL     OW14847   0.431   6.924   0.595 -0.5235 -0.4656  0.0380
 4626SOL    HW114848   0.376   6.936   0.673  1.1282  2.1514  0.9275
 4626SOL    HW214849   0.378   6.959   0.523 -0.5726  0.7787  0.6617
 4627SOL     OW14850   2.477   6.213   2.367 -0.2298  0.6766  0.6621
 4627SOL    HW114851   2.489   6.256   2.282  1.1019 -1.3650 -0.2474
 4627SOL    HW214852   2.564   6.213   2.406 -0.3237 -0.6560  0.8918
 4628SOL     OW14853   0.508   0.032   1.383 -0.1670 -0.4919  0.0884
 4628SOL    HW114854   0.562  -0.009   1.450 -0.6134  1.2004  1.5659
 4628SOL    HW214855   0.557   0.110   1.357 -0.0328 -1.0783 -1.5437
 4629SOL     OW14856   2.565   0.014   0.176  0.5867  0.4175 -0.0442
 4629SOL    HW114857   2.658   0.020   0.196  0.8732 -0.6587 -0.9399
 4629SOL    HW214858   2.531  -0.052   0.236  1.0609 -1.4347 -1.7315
 4630SOL     OW14859   0.979   6.145   5.362 -0.1463  0.3911  0.8238
 4630SOL    HW114860   1.008   6.126   5.452  0.6049  1.8031  0.9097
 4630SOL    HW214861   0.971   6.059   5.321  2.6559 -0.1761  1.2895
 4631SOL     OW14862   7.202   2.791   3.583 -0.6373  0.1495  0.3949
 4631SOL    HW114863   7.278   2.764   3.636  0.1033 -0.2137 -0.8197
 4631SOL    HW214864   7.225   2.878   3.550 -0.2608 -0.4072 -0.8528
 4632SOL     OW14865   2.069   5.224   6.600 -0.4260 -0.5569 -0.0912
 4632SOL    HW114866   2.045   5.316   6.611 -1.4498 -0.4805 -2.4326
 4632SOL    HW214867   2.083   5.214   6.506  2.6104 -2.1479  0.4248
 4633SOL     OW14868   3.471   2.076   5.124 -0.4369  0.7296  0.1132
 4633SOL    HW114869   3.401   2.060   5.060  1.0666  0.7607 -1.6140
 4633SOL    HW214870   3.429   2.131   5.191 -1.3463  3.4074 -2.4191
 4634SOL     OW14871   3.702   6.429   6.818 -0.2433 -0.2703  0.1779
 4634SOL    HW114872   3.657   6.416   6.735  0.3899  0.5570 -0.3130
 4634SOL    HW214873   3.755   6.508   6.805 -0.1810 -0.0863  1.3860
 4635SOL     OW14874   1.076   1.284   4.541 -0.1607 -0.2259 -0.4458
 4635SOL    HW114875   1.084   1.361   4.597 -0.5571 -0.9989  0.6948
 4635SOL    HW214876   0.986   1.255   4.552 -0.1306 -0.6266 -1.1742
 4636SOL     OW14877   0.184   2.253   5.173  0.1671 -0.2478  0.1580
 4636SOL    HW114878   0.218   2.333   5.132 -1.6030 -0.1260 -1.1661
 4636SOL    HW214879   0.089   2.263   5.171 -0.3179 -3.5013 -2.6042
 4637SOL     OW14880   5.035   2.773   4.905 -0.2500  0.6306  0.7114
 4637SOL    HW114881   4.999   2.826   4.835 -1.6736 -0.1383  0.8192
 4637SOL    HW214882   4.958   2.735   4.949  0.6531 -2.7834 -0.3420
 4638SOL     OW14883   1.068   2.355   6.442  0.0764  0.0445  0.5052
 4638SOL    HW114884   0.981   2.325   6.468 -0.1548  1.6927  1.7855
 4638SOL    HW214885   1.067   2.350   6.346 -1.4384  0.0442  0.4923
 4639SOL     OW14886   6.982   1.005   2.247  0.1739  0.2453 -0.0915
 4639SOL    HW114887   7.021   1.049   2.171 -1.6926  3.1783  0.4805
 4639SOL    HW214888   6.904   0.962   2.211  0.7723 -0.7211 -0.2621
 4640SOL     OW14889   5.824   5.399   2.902 -0.2913  0.0374  0.1332
 4640SOL    HW114890   5.730   5.409   2.892 -0.2707  1.5417  1.1761
 4640SOL    HW214891   5.860   5.436   2.821 -0.5811 -0.9757 -0.4818
 4641SOL     OW14892   0.823   5.135   1.962 -0.5211  0.5214 -0.1592
 4641SOL    HW114893   0.808   5.131   1.867  0.8816  1.4198 -0.4540
 4641SOL    HW214894   0.913   5.166   1.970 -0.5283  0.1871  1.4813
 4642SOL     OW14895   0.593   0.731   1.426 -0.6491 -0.5534  0.5627
 4642SOL    HW114896   0.673   0.679   1.412 -0.8236 -0.7616  0.3113
 4642SOL    HW214897   0.607   0.810   1.374 -0.1446 -0.0846  1.3906
 4643SOL     OW14898   0.214   3.591   2.371 -0.5425  0.1840  0.0484
 4643SOL    HW114899   0.299   3.629   2.349 -0.3740 -0.0658  0.2642
 4643SOL    HW214900   0.205   3.516   2.312  0.4647 -1.2422  1.6147
 4644SOL     OW14901   5.647   6.018   6.151 -0.4446  0.4633  0.0340
 4644SOL    HW114902   5.563   6.064   6.152 -0.0693  1.2348  2.5252
 4644SOL    HW214903   5.637   5.947   6.215  0.8003  0.5982  0.4132
 4645SOL     OW14904   4.914   3.558   1.601 -0.3713 -0.4772  0.5748
 4645SOL    HW114905   4.829   3.536   1.562 -0.4347 -1.1221  1.0647
 4645SOL    HW214906   4.936   3.482   1.655  1.5875 -1.3201 -1.2539
 4646SOL     OW14907   0.629   0.534   2.852  0.5362 -0.1488 -0.3430
 4646SOL    HW114908   0.540   0.532   2.817 -0.2316  2.3726  1.1878
 4646SOL    HW214909   0.637   0.454   2.903 -1.3968  0.2020  0.5966
 4647SOL     OW14910   4.379   7.028   3.629  0.5241 -0.4992  0.6741
 4647SOL    HW114911   4.334   7.014   3.546  1.6776  2.8822 -0.6802
 4647SOL    HW214912   4.439   6.954   3.637 -0.4486 -1.4979 -0.8817
 4648SOL     OW14913   0.988   1.576   6.547 -0.5667 -0.5549 -0.1893
 4648SOL    HW114914   0.946   1.660   6.530 -1.5492 -1.0624 -0.3289
 4648SOL    HW214915   1.074   1.583   6.505 -0.3414  0.6341  0.4339
 4649SOL     OW14916   1.934   1.097   1.173 -0.3876 -0.5025 -0.1924
 4649SOL    HW114917   1.913   1.149   1.096 -0.2438 -0.5074 -0.2356
 4649SOL    HW214918   1.877   1.131   1.242  0.4327  0.4243  0.0551
 4650SOL     OW14919   3.347   6.668   2.361 -0.3206 -0.1762  0.6622
 4650SOL    HW114920   3.379   6.583   2.390  1.5009  0.6725  1.3141
 4650SOL    HW214921   3.307   6.707   2.440  1.5411  0.7391  1.2068
 4651SOL     OW14922   1.346   4.956   1.279  0.3076  0.1261 -0.2984
 4651SOL    HW114923   1.391   4.896   1.221  1.4232  2.5645 -2.1189
 4651SOL    HW214924   1.294   5.012   1.222 -0.3889  1.1631  1.2560
 4652SOL     OW14925   1.206   1.410   0.652 -0.0910 -0.3772  0.3942
 4652SOL    HW114926   1.250   1.415   0.567 -0.7759 -0.3045  0.0426
 4652SOL    HW214927   1.211   1.499   0.687  0.3498 -0.4473  0.5139
 4653SOL     OW14928   6.146   0.430   2.475 -0.5061  0.1636  0.9334
 4653SOL    HW114929   6.131   0.335   2.467 -0.4167  0.2701 -1.1001
 4653SOL    HW214930   6.058   0.468   2.470 -0.5035  0.2104  1.2557
 4654SOL     OW14931   1.908   6.185   3.648 -0.3399 -0.4809 -0.0616
 4654SOL    HW114932   1.915   6.090   3.657 -0.6490 -0.5977 -0.9615
 4654SOL    HW214933   1.994   6.212   3.618 -0.6137 -0.6420 -1.0286
 4655SOL     OW14934   2.120   2.904   2.501  0.2096  0.0815 -0.0661
 4655SOL    HW114935   2.085   2.913   2.590  0.3232 -0.5481  0.0403
 4655SOL    HW214936   2.085   2.981   2.454  0.7247  0.8001  0.6989
 4656SOL     OW14937   4.126   3.626   0.633 -0.1129 -0.1271  0.0368
 4656SOL    HW114938   4.034   3.650   0.643 -0.1272  0.3687 -1.1032
 4656SOL    HW214939   4.156   3.608   0.722 -0.8727  1.3112  0.6193
 4657SOL     OW14940   1.847   1.331   0.251  0.1455 -0.3880 -0.1941
 4657SOL    HW114941   1.833   1.417   0.212  1.1059 -0.3546 -0.5111
 4657SOL    HW214942   1.923   1.296   0.203 -2.0774 -2.7496 -2.2866
 4658SOL     OW14943   3.496   2.556   1.701  0.6336 -0.4874 -0.4964
 4658SOL    HW114944   3.506   2.462   1.718  0.7216 -0.3398  0.2782
 4658SOL    HW214945   3.583   2.585   1.674  0.9682 -0.3334  0.7250
 4659SOL     OW14946   4.206   7.059   3.108 -0.0714 -0.0151  0.0100
 4659SOL    HW114947   4.234   7.040   3.018 -0.4562  0.6212 -0.2533
 4659SOL    HW214948   4.112   7.074   3.101 -0.8012 -3.3309  1.0732
 4660SOL     OW14949   4.255   5.677   1.857 -0.2786  0.0372 -0.0544
 4660SOL    HW114950   4.260   5.748   1.793 -1.0137  0.0049 -0.1510
 4660SOL    HW214951   4.278   5.599   1.808  0.4644  0.1909  0.0357
 4661SOL     OW14952   2.373   6.218   1.820  0.8020 -0.3462  0.4361
 4661SOL    HW114953   2.392   6.311   1.831  1.9318 -0.6750  1.4156
 4661SOL    HW214954   2.417   6.195   1.738 -1.9324  0.5780 -1.4507
 4662SOL     OW14955   6.940   1.723   4.116  0.2734 -0.2021 -0.0898
 4662SOL    HW114956   6.861   1.777   4.113 -1.3652 -2.4967 -2.2711
 4662SOL    HW214957   6.942   1.688   4.206 -1.9248 -1.0057 -0.2795
 4663SOL     OW14958   2.305   5.489   2.620 -0.4441  0.1765  0.4004
 4663SOL    HW114959   2.293   5.548   2.694 -2.0469  1.3647 -0.7443
 4663SOL    HW214960   2.318   5.547   2.545 -0.0269 -0.9786 -0.4546
 4664SOL     OW14961   0.657   0.222   0.674  0.4166  0.2382  0.1894
 4664SOL    HW114962   0.600   0.180   0.610 -0.3284 -0.4886  1.3032
 4664SOL    HW214963   0.701   0.150   0.719  0.0601  0.6692  1.2700
 4665SOL     OW14964   2.235   5.457   3.410 -0.1774  0.4139  0.2959
 4665SOL    HW114965   2.308   5.424   3.463  0.0225  1.1412  0.4755
 4665SOL    HW214966   2.248   5.552   3.407 -1.1742  0.5583  0.4112
 4666SOL     OW14967   4.094   5.568   6.666  0.1206  0.1692  0.3664
 4666SOL    HW114968   4.029   5.637   6.652 -1.2068 -0.9752  0.7129
 4666SOL    HW214969   4.130   5.551   6.579 -0.9769 -0.0673 -0.0522
 4667SOL     OW14970   3.674   5.742   5.231 -0.8525 -0.1083 -0.0825
 4667SOL    HW114971   3.687   5.665   5.176  0.9167  1.4369 -1.9839
 4667SOL    HW214972   3.579   5.756   5.230 -0.9198 -0.3284 -2.5729
 4668SOL     OW14973   5.892   0.607   0.764 -0.4976  0.1283  0.2930
 4668SOL    HW114974   5.965   0.552   0.736 -0.4932  0.9057 -1.3330
 4668SOL    HW214975   5.863   0.651   0.684 -2.4506  0.1970  0.9867
 4669SOL     OW14976   1.959   6.408   4.582 -0.3456  0.7963  0.4523
 4669SOL    HW114977   1.883   6.456   4.615 -0.5182  0.0290  1.2255
 4669SOL    HW214978   1.933   6.379   4.495 -1.0473  0.3380  0.8008
 4670SOL     OW14979   2.275   2.856   5.489  0.9196  0.0877 -0.2351
 4670SOL    HW114980   2.360   2.811   5.488  1.0848  0.3654 -2.1387
 4670SOL    HW214981   2.228   2.819   5.415 -1.2391 -1.0797  1.5897
 4671SOL     OW14982   3.985   2.769   3.519  0.0274  0.7827  0.3558
 4671SOL    HW114983   4.073   2.767   3.557 -0.4715  0.3569  1.5238
 4671SOL    HW214984   3.953   2.857   3.536 -0.2716  0.5313  1.1194
 4672SOL     OW14985   3.072   5.097   6.646 -0.6182  0.3223 -0.4523
 4672SOL    HW114986   2.980   5.100   6.620 -1.0419  0.8950  1.0108
 4672SOL    HW214987   3.083   5.009   6.683 -0.8312  0.5749  0.2206
 4673SOL     OW14988   2.644   3.959   2.961 -0.7598  0.3317 -0.1043
 4673SOL    HW114989   2.697   3.889   3.000 -0.9701  0.1125 -0.2124
 4673SOL    HW214990   2.700   4.037   2.967  0.5723 -0.3407 -2.3795
 4674SOL     OW14991   0.666   5.093   1.706  0.3234  0.3190 -0.1717
 4674SOL    HW114992   0.578   5.131   1.710 -0.3904 -1.3000  0.4562
 4674SOL    HW214993   0.663   5.019   1.767  2.0636  0.1016 -0.2971
 4675SOL     OW14994   5.442   5.267   2.089 -0.0407  0.7170  0.1821
 4675SOL    HW114995   5.435   5.200   2.157  0.2019  0.1321 -0.3632
 4675SOL    HW214996   5.474   5.345   2.135 -3.2449  1.4474  1.4564
 4676SOL     OW14997   1.599   6.608   1.982 -0.0535  0.2402  0.6549
 4676SOL    HW114998   1.595   6.648   2.069  0.1992 -0.2724  0.9090
 4676SOL    HW214999   1.531   6.652   1.932 -0.2151  0.5269  1.1190
 4677SOL     OW15000   4.124   4.768   6.255  0.3138  0.2272 -0.4528
 4677SOL    HW115001   4.131   4.674   6.242  0.8892  0.3043 -0.7381
 4677SOL    HW215002   4.112   4.778   6.349  0.0241 -0.1419 -0.4477
 4678SOL     OW15003   6.327   1.521   5.916 -0.3835 -1.0915  0.1269
 4678SOL    HW115004   6.388   1.472   5.972  0.8529  0.1774 -0.0498
 4678SOL    HW215005   6.344   1.489   5.828  0.5563 -0.2402 -0.0123
 4679SOL     OW15006   1.308   4.770   4.906  0.6460  0.0131  0.3808
 4679SOL    HW115007   1.252   4.778   4.983 -0.8252  2.8632 -0.8159
 4679SOL    HW215008   1.354   4.854   4.901  0.7673 -0.1245 -1.7604
 4680SOL     OW15009   2.484   6.147   3.806  0.1336 -0.0346  0.2568
 4680SOL    HW115010   2.461   6.121   3.895  0.0099  0.7744  0.4687
 4680SOL    HW215011   2.497   6.242   3.811 -1.4289  0.2885 -0.9061
 4681SOL     OW15012   2.125   3.755   3.189  0.0050  0.1758  0.8787
 4681SOL    HW115013   2.081   3.754   3.104 -1.8243  1.1665  1.7650
 4681SOL    HW215014   2.217   3.771   3.167 -0.7703  3.2388 -0.8608
 4682SOL     OW15015   0.082   2.508   4.362 -0.0112 -0.1040  0.7602
 4682SOL    HW115016   0.063   2.448   4.434 -1.3409  0.2361  0.7057
 4682SOL    HW215017   0.151   2.464   4.312  0.8547 -0.4040  2.1486
 4683SOL     OW15018   0.234   2.879   4.288  0.3596 -0.0552  0.0114
 4683SOL    HW115019   0.325   2.865   4.263 -0.2095 -3.5369 -0.6731
 4683SOL    HW215020   0.184   2.856   4.209 -1.1585  0.5760  0.7421
 4684SOL     OW15021   6.956   5.371   2.394 -0.6911 -0.1071  0.0387
 4684SOL    HW115022   6.999   5.439   2.342 -1.2480 -0.1736 -0.5291
 4684SOL    HW215023   6.947   5.297   2.333  0.5035 -0.9428  0.8374
 4685SOL     OW15024   1.268   0.580   1.898  0.0436 -0.0701  0.3961
 4685SOL    HW115025   1.240   0.521   1.968  0.7525 -0.2227  0.5598
 4685SOL    HW215026   1.285   0.523   1.824 -1.6383  0.1801 -0.2365
 4686SOL     OW15027   6.519   1.236   2.476  0.2040  0.3594 -0.5620
 4686SOL    HW115028   6.578   1.309   2.457 -1.6370  2.4055  1.1705
 4686SOL    HW215029   6.432   1.275   2.478 -0.7886 -1.7673  1.0800
 4687SOL     OW15030   3.330   5.060   5.997 -0.5331 -0.3712 -0.1544
 4687SOL    HW115031   3.368   5.106   6.071 -0.3603 -1.6004  0.5639
 4687SOL    HW215032   3.359   5.108   5.920 -1.4366  1.4716  0.5799
 4688SOL     OW15033   4.324   4.057   5.316  0.0959  1.0462 -0.1003
 4688SOL    HW115034   4.371   4.125   5.267 -0.3633  0.6565 -1.0895
 4688SOL    HW215035   4.281   4.004   5.250 -1.1572  0.9548  0.7584
 4689SOL     OW15036   3.394   6.047   5.946 -0.1408  0.0091  0.0741
 4689SOL    HW115037   3.461   6.089   5.893 -0.7345  1.4307  0.4143
 4689SOL    HW215038   3.423   5.956   5.953  0.9976  0.2663 -0.9710
 4690SOL     OW15039   5.700   3.576   6.380  0.1813 -0.3852 -0.0054
 4690SOL    HW115040   5.723   3.568   6.472  0.0561  0.7937  0.1455
 4690SOL    HW215041   5.774   3.539   6.333 -0.0198 -1.5522  0.5728
 4691SOL     OW15042   5.739   1.897   3.468 -0.3969 -0.5888 -0.1813
 4691SOL    HW115043   5.790   1.944   3.402  0.9189  0.1383  1.2550
 4691SOL    HW215044   5.686   1.965   3.510 -0.1699 -0.7740  0.4222
 4692SOL     OW15045   0.997   6.902   0.710  0.1831 -0.5559  0.1984
 4692SOL    HW115046   1.076   6.954   0.725 -0.2677  0.0520  0.4960
 4692SOL    HW215047   1.028   6.822   0.668  0.9819 -0.4167  0.5199
 4693SOL     OW15048   2.329   5.608   4.657 -0.1146  0.4012 -0.4365
 4693SOL    HW115049   2.368   5.610   4.570  2.0782  0.2830  0.4741
 4693SOL    HW215050   2.306   5.699   4.675 -0.6341  0.4160 -1.1532
 4694SOL     OW15051   2.054   2.661   3.186 -0.0389 -0.0623 -0.3629
 4694SOL    HW115052   2.032   2.754   3.195 -0.2988 -0.1799  0.2497
 4694SOL    HW215053   2.002   2.631   3.112 -1.3146 -0.1368  0.5441
 4695SOL     OW15054   6.364   0.376   2.266  0.1550 -0.2685 -0.4153
 4695SOL    HW115055   6.308   0.300   2.254 -1.0303  0.5973 -0.6230
 4695SOL    HW215056   6.306   0.451   2.251  1.1904  0.6825  0.1435
 4696SOL     OW15057   6.880   2.387   0.677 -0.2687 -0.3592 -0.6863
 4696SOL    HW115058   6.966   2.400   0.717 -0.6362  0.8861 -0.2689
 4696SOL    HW215059   6.837   2.323   0.733 -0.4961  0.8038  0.4978
 4697SOL     OW15060   3.068   5.949   6.685  0.4397  0.7704 -0.3396
 4697SOL    HW115061   3.115   5.914   6.761 -0.1721  1.9988  0.6484
 4697SOL    HW215062   2.997   5.888   6.670  1.5093 -0.3586 -0.9711
 4698SOL     OW15063   0.105   1.140   4.347  0.0535 -0.6238 -0.0120
 4698SOL    HW115064   0.076   1.220   4.391  0.9996  0.5670 -1.4431
 4698SOL    HW215065   0.197   1.131   4.372 -0.4591 -2.2519  1.4725
 4699SOL     OW15066   7.109   3.352   0.986 -0.2349 -0.1740  0.0326
 4699SOL    HW115067   7.186   3.299   1.006  0.5742  0.6673 -0.7420
 4699SOL    HW215068   7.046   3.291   0.948  1.8157 -0.1614 -3.7868
 4700SOL     OW15069   1.164   3.770   1.482  0.0987 -0.4807  0.2834
 4700SOL    HW115070   1.180   3.852   1.530  1.8239  0.0755 -1.1319
 4700SOL    HW215071   1.103   3.795   1.413  2.7779  0.4336 -1.9506
 4701SOL     OW15072   3.201   6.005   4.442  0.0181 -0.0190  0.0292
 4701SOL    HW115073   3.190   5.968   4.355  1.0297  1.2321 -0.6682
 4701SOL    HW215074   3.292   6.034   4.444 -1.0358  3.9243 -0.1513
 4702SOL     OW15075   5.260   1.262   3.842  0.7442  0.0093  0.4598
 4702SOL    HW115076   5.295   1.256   3.753 -0.7978 -2.7717 -0.0805
 4702SOL    HW215077   5.180   1.312   3.833  0.1808 -0.9331  0.0949
 4703SOL     OW15078   0.667   3.415   3.605 -0.1273  0.5919  0.0694
 4703SOL    HW115079   0.596   3.480   3.599 -0.2520  0.3816 -0.9241
 4703SOL    HW215080   0.712   3.422   3.521 -0.6122 -1.1312 -0.3598
 4704SOL     OW15081   1.116   4.350   6.148  0.5589  0.4724  0.0613
 4704SOL    HW115082   1.031   4.393   6.140 -0.5136 -1.4810  0.3623
 4704SOL    HW215083   1.116   4.284   6.079  1.7549  0.3241  0.1906
 4705SOL     OW15084   1.434   0.824   2.962 -0.4216  0.1113 -0.0093
 4705SOL    HW115085   1.422   0.885   3.035 -1.5936 -1.5255  1.2475
 4705SOL    HW215086   1.523   0.839   2.932 -0.2805  1.5846  1.0459
 4706SOL     OW15087   4.887   2.891   2.643  0.1596  0.1493 -0.4861
 4706SOL    HW115088   4.938   2.926   2.569 -0.3233  0.8654 -0.4950
 4706SOL    HW215089   4.849   2.969   2.683 -1.5905 -0.4279 -0.9740
 4707SOL     OW15090   3.737   7.329   3.849  0.5592  0.4846 -0.3941
 4707SOL    HW115091   3.663   7.305   3.904  0.1980 -2.2416 -1.8591
 4707SOL    HW215092   3.702   7.393   3.787 -0.3653 -0.1331 -0.5332
 4708SOL     OW15093   1.064   0.313   2.926  0.4479  0.2756  0.6042
 4708SOL    HW115094   1.008   0.260   2.869 -2.4676  0.3614  3.1468
 4708SOL    HW215095   1.125   0.250   2.966  1.6499  0.0326 -1.4444
 4709SOL     OW15096   1.760   2.184   4.501 -0.2633 -0.2910  0.7210
 4709SOL    HW115097   1.735   2.118   4.437  0.0565 -0.0448  0.3290
 4709SOL    HW215098   1.703   2.259   4.482  1.6483  0.8444 -1.1819
 4710SOL     OW15099   4.686   5.668   1.726 -0.1569  0.2809 -0.1240
 4710SOL    HW115100   4.760   5.702   1.676  1.1076  1.0216  2.0919
 4710SOL    HW215101   4.634   5.745   1.749  0.1273  0.1757  0.9396
 4711SOL     OW15102   1.436   2.335   2.123  0.2269 -0.7974  0.1191
 4711SOL    HW115103   1.432   2.430   2.129 -1.4459 -0.8312 -0.0184
 4711SOL    HW215104   1.415   2.304   2.211  0.4276 -1.0350  0.0839
 4712SOL     OW15105   4.352   3.331   5.461  0.6062  0.4229 -0.7649
 4712SOL    HW115106   4.267   3.287   5.465  0.3569  0.7136 -2.3764
 4712SOL    HW215107   4.394   3.308   5.544 -0.5923 -0.6345 -0.4155
 4713SOL     OW15108   1.831   5.113   0.089 -0.5556  0.4842  0.0667
 4713SOL    HW115109   1.769   5.139   0.157 -1.5037  0.6776 -0.8586
 4713SOL    HW215110   1.867   5.029   0.120 -1.0344  0.5265  0.7522
 4714SOL     OW15111   4.976   2.783   3.158  0.6689  0.5544 -0.2057
 4714SOL    HW115112   4.890   2.818   3.136  1.1401  2.5126  0.7327
 4714SOL    HW215113   4.959   2.702   3.205 -0.6268  0.5755 -0.6178
 4715SOL     OW15114   3.146   6.704   4.326 -0.1104 -0.5269 -0.3280
 4715SOL    HW115115   3.203   6.738   4.395  0.1780  0.0080 -0.8167
 4715SOL    HW215116   3.206   6.678   4.256 -0.4236 -0.5931 -0.5757
 4716SOL     OW15117   3.044   5.162   3.966  0.1866 -0.2919  0.5005
 4716SOL    HW115118   2.959   5.189   3.932 -0.4146 -1.8266  0.6891
 4716SOL    HW215119   3.087   5.244   3.991 -1.5493  0.4805  1.1410
 4717SOL     OW15120   1.850   5.881   2.787  0.7901 -0.2013  0.0164
 4717SOL    HW115121   1.868   5.859   2.878  2.1197 -1.6684 -0.5578
 4717SOL    HW215122   1.936   5.890   2.746  0.3586  4.1738 -0.3662
 4718SOL     OW15123   3.171   1.179   1.886  0.0278  0.0408 -0.2173
 4718SOL    HW115124   3.169   1.160   1.792  0.6570  0.8489 -0.4055
 4718SOL    HW215125   3.097   1.238   1.900  0.4277  0.5866 -0.3677
 4719SOL     OW15126   2.466   3.962   3.788 -0.1057  0.9012  0.5063
 4719SOL    HW115127   2.420   3.981   3.870  0.6988  0.0786  1.1738
 4719SOL    HW215128   2.556   3.991   3.804  0.2860 -0.1471  0.2683
 4720SOL     OW15129   6.146   3.126   1.785 -0.5162 -0.8220  0.1643
 4720SOL    HW115130   6.117   3.215   1.765 -1.6676 -1.4017 -0.8181
 4720SOL    HW215131   6.193   3.135   1.868  0.2655  0.8649 -0.4050
 4721SOL     OW15132   5.258   2.728   0.390  0.5892 -0.0176 -0.4556
 4721SOL    HW115133   5.170   2.749   0.358  0.2037 -0.5267  0.2491
 4721SOL    HW215134   5.289   2.808   0.432 -0.2317 -0.3314  0.8037
 4722SOL     OW15135   0.524   1.038   2.791 -0.0542 -0.0567  0.0877
 4722SOL    HW115136   0.598   1.021   2.733  0.0169  1.7030 -0.3707
 4722SOL    HW215137   0.480   1.114   2.754 -0.3753  0.7443  1.9857
 4723SOL     OW15138   3.055   0.194   3.857 -0.2493 -0.9394 -0.1060
 4723SOL    HW115139   3.125   0.256   3.880  0.7365 -2.0019 -0.1577
 4723SOL    HW215140   3.029   0.155   3.940 -0.8377 -0.5098 -0.0809
 4724SOL     OW15141   5.253   2.569   2.569  0.7690  0.1084  0.4096
 4724SOL    HW115142   5.346   2.592   2.561  0.4516  1.2963 -0.1358
 4724SOL    HW215143   5.209   2.653   2.584 -0.1992 -0.4689  0.9097
 4725SOL     OW15144   4.147   1.028   2.631 -0.2033  0.4609 -0.3016
 4725SOL    HW115145   4.192   1.010   2.548 -2.8872 -3.2553 -1.1636
 4725SOL    HW215146   4.206   0.993   2.698  1.3219  2.1928 -0.6423
 4726SOL     OW15147   3.336   2.783   1.649 -0.2304 -0.3025  0.6474
 4726SOL    HW115148   3.389   2.706   1.668 -2.2429 -2.2222 -1.0190
 4726SOL    HW215149   3.352   2.842   1.723  1.8040 -2.0368  1.6953
 4727SOL     OW15150   2.234   1.555   5.579 -0.2209 -0.6556 -0.0183
 4727SOL    HW115151   2.153   1.561   5.529 -0.4715  0.2771  0.4689
 4727SOL    HW215152   2.231   1.468   5.619  0.2065 -1.6019 -1.9497
 4728SOL     OW15153   5.058   0.992   5.157  0.4213  0.3252 -0.1075
 4728SOL    HW115154   5.112   1.016   5.233 -0.8905 -0.2796  1.0630
 4728SOL    HW215155   4.970   1.024   5.180 -0.7685 -2.8524  0.2076
 4729SOL     OW15156   2.841   3.617   4.692  0.3888 -0.0989  0.0761
 4729SOL    HW115157   2.902   3.661   4.632 -0.4666 -1.2470 -1.7423
 4729SOL    HW215158   2.755   3.628   4.652 -0.3161 -0.3542  1.4596
 4730SOL     OW15159   0.510   0.120   0.431 -0.8575 -0.3019  0.1367
 4730SOL    HW115160   0.432   0.172   0.412 -0.8621 -1.1972 -2.7368
 4730SOL    HW215161   0.477   0.044   0.479 -1.5873 -0.1426 -0.1013
 4731SOL     OW15162   0.143   4.045   5.701 -0.1742 -0.1406 -0.3751
 4731SOL    HW115163   0.099   3.964   5.726 -1.9969  1.0872  0.7185
 4731SOL    HW215164   0.081   4.089   5.643 -0.1452  1.3377  0.6326
 4732SOL     OW15165   2.268   1.187   0.077  0.2692 -0.1076  0.9563
 4732SOL    HW115166   2.325   1.247   0.126 -0.5645  0.2128  1.5543
 4732SOL    HW215167   2.237   1.124   0.142  1.2251 -1.2804  0.3102
 4733SOL     OW15168   6.615   3.859   1.636  0.2304  0.2496  0.5313
 4733SOL    HW115169   6.532   3.906   1.640 -0.1613 -0.1983 -1.3032
 4733SOL    HW215170   6.646   3.873   1.546  0.6488 -1.9686  0.2610
 4734SOL     OW15171   3.442   3.144   0.776 -0.3279  0.5336 -0.1254
 4734SOL    HW115172   3.364   3.138   0.722 -0.3595  1.0397 -0.1356
 4734SOL    HW215173   3.417   3.201   0.849  0.5497  2.1468 -1.0344
 4735SOL     OW15174   5.371   3.958   3.486 -0.0120  0.1144  0.3706
 4735SOL    HW115175   5.346   4.003   3.405 -0.1890 -1.2320 -0.3741
 4735SOL    HW215176   5.398   3.871   3.456  1.7410  0.1978  1.5746
 4736SOL     OW15177   6.142   6.111   5.088  0.7326  0.0563  0.1966
 4736SOL    HW115178   6.151   6.197   5.130  1.1252  0.5682 -0.9033
 4736SOL    HW215179   6.153   6.129   4.995 -0.9706 -0.9279 -0.2301
 4737SOL     OW15180   3.965   3.597   5.621 -0.1099 -0.4823  0.0555
 4737SOL    HW115181   4.000   3.516   5.659 -2.1791 -1.7050 -0.4952
 4737SOL    HW215182   3.910   3.635   5.689  1.2146  0.7634  0.4802
 4738SOL     OW15183   6.169   4.935   0.533  0.1614  0.1241  0.3286
 4738SOL    HW115184   6.238   4.869   0.540  1.5824  1.5786  0.7557
 4738SOL    HW215185   6.158   4.968   0.622 -1.9533 -0.8767  0.4859
 4739SOL     OW15186   0.344   6.941   2.636  0.6731  0.3454 -0.5708
 4739SOL    HW115187   0.340   6.849   2.610  0.3674  0.0704  0.4012
 4739SOL    HW215188   0.326   6.940   2.730 -0.3141  1.4973 -0.7250
 4740SOL     OW15189   5.090   6.893   4.050  0.7227  0.3983  0.2474
 4740SOL    HW115190   5.028   6.820   4.048 -0.6011  1.4871  0.6736
 4740SOL    HW215191   5.040   6.967   4.084  1.8206  1.7284 -0.9109
 4741SOL     OW15192   2.211   4.414   0.273 -0.1039  0.5751  0.2812
 4741SOL    HW115193   2.238   4.323   0.283 -0.1964  0.5489  0.2959
 4741SOL    HW215194   2.134   4.409   0.216 -1.5179  0.4298  2.1303
 4742SOL     OW15195   1.488   2.920   7.350  0.0943  0.0048  0.9692
 4742SOL    HW115196   1.526   2.927   7.438 -2.5091  1.4903  2.1151
 4742SOL    HW215197   1.478   3.011   7.322 -0.8271 -0.3986 -0.0542
 4743SOL     OW15198   7.296   2.803   4.641  0.1174  0.3664 -0.0531
 4743SOL    HW115199   7.272   2.729   4.585  1.7253  1.0130 -1.6933
 4743SOL    HW215200   7.378   2.837   4.603  0.1246  2.1742  1.4215
 4744SOL     OW15201   3.059   1.839   2.200 -0.2619  0.6901 -0.1984
 4744SOL    HW115202   3.133   1.790   2.163 -0.1927  0.3158  0.4248
 4744SOL    HW215203   3.082   1.852   2.292 -1.1512  0.2267  0.1012
 4745SOL     OW15204   4.621   0.930   3.218  0.0785  0.1602 -0.4165
 4745SOL    HW115205   4.655   0.842   3.202 -0.9903 -0.5089  0.7466
 4745SOL    HW215206   4.527   0.922   3.201  0.2496  1.6497 -2.4055
 4746SOL     OW15207   4.691   3.595   2.691  0.1870  0.3335  0.0197
 4746SOL    HW115208   4.598   3.599   2.668  0.1876  0.0891 -0.0270
 4746SOL    HW215209   4.728   3.676   2.654  0.3632 -0.4690 -1.6559
 4747SOL     OW15210   0.557   2.191   2.749  0.0509 -0.3765  0.2961
 4747SOL    HW115211   0.581   2.282   2.767  0.0238 -0.4410  0.6508
 4747SOL    HW215212   0.616   2.139   2.804 -0.5171 -0.5519  0.7460
 4748SOL     OW15213   0.354   4.111   5.845  0.5214  0.1834  0.1159
 4748SOL    HW115214   0.279   4.089   5.789 -1.8021  0.5889  2.8261
 4748SOL    HW215215   0.429   4.074   5.799 -1.1996  0.1908 -3.0463
 4749SOL     OW15216   0.866   1.040   2.901  0.4789 -0.1512  0.2369
 4749SOL    HW115217   0.901   0.951   2.905  0.5343 -0.0989  1.2471
 4749SOL    HW215218   0.804   1.039   2.828  1.7989 -0.5253 -0.9186
 4750SOL     OW15219   0.568   6.404   5.061  0.2825  0.5692  0.0251
 4750SOL    HW115220   0.655   6.399   5.023  0.5914 -0.0249  0.7753
 4750SOL    HW215221   0.529   6.319   5.044  0.1711  0.5356  0.4308
 4751SOL     OW15222   3.560   7.047   1.675 -0.1668 -0.2841  0.4931
 4751SOL    HW115223   3.547   7.139   1.652  0.2011 -0.1508  0.7879
 4751SOL    HW215224   3.490   7.000   1.630 -2.1427  0.4660  2.5840
 4752SOL     OW15225   5.483   4.785   0.543 -0.1851  0.2833  0.2670
 4752SOL    HW115226   5.482   4.828   0.457 -2.3112 -2.2329 -1.0983
 4752SOL    HW215227   5.573   4.755   0.555 -0.0097  0.0953 -1.4029
 4753SOL     OW15228   0.765   2.909   0.362 -0.1419 -0.6930 -0.0671
 4753SOL    HW115229   0.773   2.841   0.296  2.1876 -1.1637  0.5851
 4753SOL    HW215230   0.727   2.984   0.316 -0.0240 -1.5134 -1.5361
 4754SOL     OW15231   5.021   3.838   2.813  0.4434 -0.7111  0.4041
 4754SOL    HW115232   4.929   3.858   2.796  0.1146 -2.9681 -0.8552
 4754SOL    HW215233   5.044   3.896   2.886 -1.7068  0.5158  0.2176
 4755SOL     OW15234   4.610   5.204   1.478 -0.6445  0.5012  0.3187
 4755SOL    HW115235   4.517   5.220   1.490 -0.6014  0.7969  0.2510
 4755SOL    HW215236   4.615   5.112   1.450 -1.0257  0.8470 -0.9596
 4756SOL     OW15237   6.140   0.414   4.474  0.0628 -0.1965  0.7175
 4756SOL    HW115238   6.105   0.363   4.546  0.2233  0.3925  1.2193
 4756SOL    HW215239   6.234   0.420   4.492 -0.1807  1.7741  1.6508
 4757SOL     OW15240   0.355   1.170   6.652 -0.6485  0.1988 -0.6465
 4757SOL    HW115241   0.393   1.258   6.650 -1.3692  0.5016 -1.7185
 4757SOL    HW215242   0.261   1.185   6.663 -0.5856 -0.5165  1.3034
 4758SOL     OW15243   3.362   1.778   4.210  0.0198 -0.1614  0.2132
 4758SOL    HW115244   3.427   1.815   4.270  1.4266  1.1949 -2.0034
 4758SOL    HW215245   3.390   1.688   4.197 -0.2063 -0.4221  1.4226
 4759SOL     OW15246   1.580   6.269   6.136  0.2817 -0.5212  0.0868
 4759SOL    HW115247   1.507   6.329   6.122 -0.4326 -1.2544  0.6427
 4759SOL    HW215248   1.636   6.282   6.059 -0.0435  0.5721  0.0081
 4760SOL     OW15249   1.830   6.300   2.927 -0.4136 -0.1835  0.7420
 4760SOL    HW115250   1.743   6.277   2.960  0.5513 -0.8537  3.0609
 4760SOL    HW215251   1.863   6.365   2.989  0.3016  0.9615 -0.7879
 4761SOL     OW15252   5.181   2.600   1.363  0.5289 -0.4728 -0.1940
 4761SOL    HW115253   5.231   2.622   1.285  0.7287  0.3072  0.1425
 4761SOL    HW215254   5.098   2.646   1.352  0.6683 -0.1197  0.1735
 4762SOL     OW15255   0.826   3.515   5.943 -0.8289  0.4021  0.2795
 4762SOL    HW115256   0.860   3.603   5.929  0.2376 -0.0305  0.0192
 4762SOL    HW215257   0.734   3.520   5.921 -0.9019  1.5789  0.7966
 4763SOL     OW15258   1.038   0.541   4.371 -0.1741  0.1513 -0.2765
 4763SOL    HW115259   1.009   0.467   4.424  0.7193 -0.0550 -0.0569
 4763SOL    HW215260   1.110   0.580   4.421 -0.6130  1.1562 -0.4005
 4764SOL     OW15261   3.906   2.917   0.544  0.6158  0.2674 -0.0093
 4764SOL    HW115262   3.899   2.832   0.587 -2.6772  0.8267  0.8861
 4764SOL    HW215263   3.815   2.940   0.523  1.5569  2.8017 -1.8060
 4765SOL     OW15264   1.507   3.122   6.787  0.4353  0.3801 -0.1806
 4765SOL    HW115265   1.576   3.171   6.833  0.6226  1.0188 -1.1202
 4765SOL    HW215266   1.521   3.143   6.695 -0.9413  0.4103 -0.3908
 4766SOL     OW15267   3.383   0.361   5.975 -0.0185  0.1774  0.4021
 4766SOL    HW115268   3.358   0.406   5.894 -0.2284 -0.4523  0.1119
 4766SOL    HW215269   3.421   0.430   6.029  1.0913  0.4199 -0.6283
 4767SOL     OW15270   3.413   3.235   1.668 -0.1532  0.9105 -0.1387
 4767SOL    HW115271   3.443   3.303   1.728 -0.8385  1.0083  0.1068
 4767SOL    HW215272   3.359   3.282   1.604 -0.8309  0.5683  0.1755
 4768SOL     OW15273   6.582   5.701   2.142 -0.4319  0.2473 -0.3681
 4768SOL    HW115274   6.599   5.653   2.223  1.9672  1.8623  0.1720
 4768SOL    HW215275   6.511   5.652   2.100  0.7453 -2.7677  0.9056
 4769SOL     OW15276   3.938   5.845   2.486  0.0305 -0.3322  0.3185
 4769SOL    HW115277   4.004   5.779   2.465  1.2691  0.6682  0.8968
 4769SOL    HW215278   3.899   5.816   2.568 -0.8369 -1.3433 -0.4340
 4770SOL     OW15279   6.615   1.063   0.104 -0.1631 -0.1635 -0.0367
 4770SOL    HW115280   6.556   1.029   0.037  0.5989 -0.7835 -0.4102
 4770SOL    HW215281   6.689   1.002   0.104  1.3044  1.5356 -0.7792
 4771SOL     OW15282   6.900   6.574   5.583  0.1769 -0.1841 -0.5852
 4771SOL    HW115283   6.953   6.514   5.636 -0.6259 -1.4498 -1.1525
 4771SOL    HW215284   6.852   6.516   5.524  0.2098  1.1208 -1.9321
 4772SOL     OW15285   2.077   3.039   2.976 -0.4079 -0.0017 -0.1266
 4772SOL    HW115286   2.139   3.043   3.049 -1.8704 -0.1003  1.1439
 4772SOL    HW215287   1.991   3.048   3.016 -1.2711 -0.3855 -1.8087
 4773SOL     OW15288   0.208   2.114   2.918 -0.1746 -0.0203 -0.5065
 4773SOL    HW115289   0.260   2.139   2.841  2.5823 -2.1415  0.5074
 4773SOL    HW215290   0.188   2.021   2.904  1.2765 -0.7388  1.7087
 4774SOL     OW15291   4.968   5.956   6.075  0.1655 -0.1994  0.3417
 4774SOL    HW115292   4.945   6.024   6.012 -1.1261  0.3326  1.3246
 4774SOL    HW215293   4.905   5.886   6.058 -0.6353  0.2185  1.4097
 4775SOL     OW15294   3.219   7.124   1.806  0.1648 -0.6825 -0.3706
 4775SOL    HW115295   3.272   7.138   1.727  0.2234 -1.7020 -0.5220
 4775SOL    HW215296   3.200   7.031   1.806 -0.5360 -0.5499  0.3918
 4776SOL     OW15297   2.884   1.746   2.551 -0.7212 -0.1359 -0.1818
 4776SOL    HW115298   2.896   1.695   2.471  1.4601  1.3750 -0.8969
 4776SOL    HW215299   2.948   1.711   2.612  1.3192  2.0727 -0.9207
 4777SOL     OW15300   3.491   5.749   5.662 -0.1217 -0.3769 -0.2364
 4777SOL    HW115301   3.489   5.842   5.639  0.3005  0.3636  2.3835
 4777SOL    HW215302   3.404   5.717   5.642 -0.0330  0.3524 -1.9471
 4778SOL     OW15303   5.026   5.505   2.095 -0.1623 -0.4431 -0.1720
 4778SOL    HW115304   5.071   5.435   2.143 -1.4425 -0.2849  1.3208
 4778SOL    HW215305   4.933   5.483   2.101 -0.6578  1.7354  0.9769
 4779SOL     OW15306   1.207   5.652   2.690  0.3709 -0.2756 -0.0551
 4779SOL    HW115307   1.214   5.610   2.605  0.6770  0.6680 -0.5176
 4779SOL    HW215308   1.128   5.616   2.729 -0.4106  0.1048 -1.2257
 4780SOL     OW15309   2.170   0.541   3.763  0.5219 -0.1394  0.0421
 4780SOL    HW115310   2.158   0.616   3.821  1.7445  1.4951 -1.7011
 4780SOL    HW215311   2.087   0.492   3.770 -0.5125  1.6361  0.8441
 4781SOL     OW15312   2.984   4.984   0.102 -0.2466 -0.0895 -0.1456
 4781SOL    HW115313   3.041   4.930   0.047 -0.2449 -0.3570  0.1141
 4781SOL    HW215314   2.967   5.062   0.050  0.2305 -0.0773 -0.2942
 4782SOL     OW15315   7.076   5.908   2.417  0.4644  0.3483 -0.0173
 4782SOL    HW115316   6.987   5.912   2.380  0.1233  1.9253  0.8414
 4782SOL    HW215317   7.097   6.000   2.436  1.9138 -0.1023  0.6701
 4783SOL     OW15318   3.059   4.054   2.124 -0.1741  0.0210 -0.5103
 4783SOL    HW115319   3.021   3.969   2.147  0.0276  0.4473  1.6360
 4783SOL    HW215320   3.074   4.097   2.209 -0.2075  2.1797 -1.5293
 4784SOL     OW15321   1.624   2.822   4.372  0.2381 -0.2684 -0.1169
 4784SOL    HW115322   1.581   2.888   4.317  1.2296  1.1454  0.7509
 4784SOL    HW215323   1.608   2.739   4.326 -2.0115  0.3904 -0.6442
 4785SOL     OW15324   6.372   1.051   2.306  0.3397  0.2868 -0.6086
 4785SOL    HW115325   6.371   1.132   2.255  4.0602 -0.3122 -1.9486
 4785SOL    HW215326   6.438   1.066   2.374 -0.0950 -1.0782  0.1515
 4786SOL     OW15327   6.033   1.341   0.079 -0.2034  0.9448 -0.0742
 4786SOL    HW115328   6.042   1.245   0.073 -1.9994  0.5480  2.2999
 4786SOL    HW215329   6.118   1.371   0.109  0.8002  0.3007 -2.0719
 4787SOL     OW15330   4.127   1.335   4.190 -0.2623 -0.2674 -0.0711
 4787SOL    HW115331   4.168   1.248   4.190  0.0349 -0.2334  3.3057
 4787SOL    HW215332   4.042   1.322   4.231  0.2418  1.1727  1.5254
 4788SOL     OW15333   2.539   6.848   2.848  0.3031  0.9239  0.1962
 4788SOL    HW115334   2.587   6.879   2.925  1.1452 -0.8356  0.4151
 4788SOL    HW215335   2.463   6.802   2.885 -0.6272  2.1445 -0.1152
 4789SOL     OW15336   2.702   4.218   7.350 -0.4759 -0.7055  0.3764
 4789SOL    HW115337   2.637   4.162   7.393 -1.1422 -0.5641 -0.4106
 4789SOL    HW215338   2.710   4.181   7.262  1.1110 -1.2026  0.6864
 4790SOL     OW15339   3.684   6.990   6.719  0.1681 -0.0403 -0.2097
 4790SOL    HW115340   3.606   7.007   6.666  0.3440  0.1499 -0.4050
 4790SOL    HW215341   3.688   6.894   6.724  1.0090 -0.1193 -1.8281
 4791SOL     OW15342   3.725   1.476   0.308  0.2477  0.2268  0.4603
 4791SOL    HW115343   3.671   1.502   0.233 -0.5717 -0.0510  0.9377
 4791SOL    HW215344   3.800   1.431   0.269 -0.5106 -0.5232 -0.1860
 4792SOL     OW15345   3.593   0.735   2.040 -0.0694  0.6687 -0.3799
 4792SOL    HW115346   3.658   0.690   2.094 -2.0559 -2.2822 -0.2043
 4792SOL    HW215347   3.550   0.796   2.099 -0.1461 -0.3116  0.6209
 4793SOL     OW15348   0.707   5.448   3.197 -0.6119 -0.0100  0.6295
 4793SOL    HW115349   0.698   5.443   3.102  0.3826  1.9736  0.3785
 4793SOL    HW215350   0.771   5.381   3.219  1.0923  1.1701 -0.4687
 4794SOL     OW15351   6.434   1.155   5.965 -0.3974  0.5934  0.6915
 4794SOL    HW115352   6.396   1.076   6.003  1.9388 -1.4799 -0.9078
 4794SOL    HW215353   6.459   1.129   5.876  1.9288  2.6312  0.6277
 4795SOL     OW15354   0.921   3.841   2.522 -0.5032  0.2639  0.0289
 4795SOL    HW115355   0.906   3.889   2.441  1.3885 -1.5946 -1.5358
 4795SOL    HW215356   0.864   3.764   2.515 -2.2180  1.2690  1.7193
 4796SOL     OW15357   5.863   6.091   2.599  0.0269 -1.0182 -0.0525
 4796SOL    HW115358   5.872   6.003   2.636 -0.4747 -0.6489  0.9693
 4796SOL    HW215359   5.771   6.096   2.571 -0.4514 -0.1929  1.5795
 4797SOL     OW15360   3.362   2.267   3.295  0.0293  0.1092 -0.3713
 4797SOL    HW115361   3.339   2.360   3.291 -2.1766 -0.3192  0.9061
 4797SOL    HW215362   3.378   2.250   3.388  0.7089 -0.7483 -0.6297
 4798SOL     OW15363   2.855   3.119   6.024 -0.3109 -0.4665 -0.1836
 4798SOL    HW115364   2.763   3.094   6.026 -0.2615 -0.7103 -0.8307
 4798SOL    HW215365   2.855   3.214   6.029 -0.5981 -0.4613 -0.3115
 4799SOL     OW15366   6.154   3.594   3.141  0.2180  0.2762 -0.3424
 4799SOL    HW115367   6.114   3.527   3.197  0.6692 -0.6221 -1.0663
 4799SOL    HW215368   6.201   3.545   3.074  1.0108  1.3214 -0.5886
 4800SOL     OW15369   1.587   6.963   5.998  0.2125 -0.8123 -0.2479
 4800SOL    HW115370   1.662   6.948   6.055  0.5609 -0.6648 -0.6672
 4800SOL    HW215371   1.624   6.984   5.913 -0.2175  2.2694  0.2183
 4801SOL     OW15372   2.200   6.625   6.132 -0.0049  0.0040  0.4181
 4801SOL    HW115373   2.110   6.602   6.156  0.3191 -1.7021  0.0825
 4801SOL    HW215374   2.220   6.569   6.057  1.7136 -0.4363  1.1652
 4802SOL     OW15375   2.134   3.664   6.520  0.0029 -0.1843 -0.7184
 4802SOL    HW115376   2.188   3.735   6.554  1.1777 -1.2137 -0.3472
 4802SOL    HW215377   2.056   3.665   6.576  0.7722 -0.2450  0.3977
 4803SOL     OW15378   2.277   0.020   7.164  0.7241  0.5478  0.2564
 4803SOL    HW115379   2.341   0.084   7.196  0.2868  0.6122  1.0249
 4803SOL    HW215380   2.284  -0.053   7.225 -0.1321  0.6760  0.5195
 4804SOL     OW15381   6.102   2.330   1.073  0.5104 -0.3725 -0.4470
 4804SOL    HW115382   6.057   2.413   1.056  0.4253 -0.5283 -0.9891
 4804SOL    HW215383   6.170   2.352   1.137 -0.8587 -0.2799  1.0557
 4805SOL     OW15384   3.938   1.794   4.496  0.0027  0.9278  0.4802
 4805SOL    HW115385   4.025   1.832   4.492  0.3674  0.1233  0.5847
 4805SOL    HW215386   3.889   1.838   4.426  1.0144  0.1090 -0.7860
 4806SOL     OW15387   3.134   6.555   5.769  0.2918 -0.2527  0.2890
 4806SOL    HW115388   3.139   6.474   5.820  0.4461 -0.3686  0.0894
 4806SOL    HW215389   3.084   6.615   5.824  2.7074  0.5420  1.7701
 4807SOL     OW15390   3.949   2.284   4.416  0.1328  0.1854 -0.3422
 4807SOL    HW115391   3.973   2.360   4.469  0.2475 -0.6435  0.8257
 4807SOL    HW215392   3.892   2.319   4.349  0.2920  1.3287  0.0984
 4808SOL     OW15393   2.501   5.523   1.418 -0.6608  0.7143  0.2899
 4808SOL    HW115394   2.508   5.454   1.352 -2.0095 -0.9649  1.8070
 4808SOL    HW215395   2.560   5.592   1.386  1.0415 -1.2497 -1.1354
 4809SOL     OW15396   0.005   2.199   6.628  0.9275 -0.5570  0.4047
 4809SOL    HW115397  -0.090   2.211   6.627  0.5792 -1.7012 -3.9460
 4809SOL    HW215398   0.040   2.288   6.621  0.0188 -0.2198 -0.1064
 4810SOL     OW15399   3.029   3.867   7.237  0.4236 -1.0541  0.0850
 4810SOL    HW115400   2.997   3.846   7.325 -0.7760 -1.2534 -0.3902
 4810SOL    HW215401   2.958   3.917   7.196  1.8273  0.9646 -0.0358
 4811SOL     OW15402   3.673   6.026   2.508 -0.3136 -0.2298  0.1040
 4811SOL    HW115403   3.724   6.093   2.552  0.3781 -0.0309 -0.9604
 4811SOL    HW215404   3.724   5.946   2.519 -0.4600 -0.3100  0.2077
 4812SOL     OW15405   2.385   0.138   3.125 -0.3352  0.3620  0.0434
 4812SOL    HW115406   2.465   0.132   3.178  0.2806  1.0101 -0.7786
 4812SOL    HW215407   2.403   0.209   3.064 -0.4298 -1.3094 -2.0159
 4813SOL     OW15408   4.639   6.360   4.574 -0.4436  0.0627  0.3436
 4813SOL    HW115409   4.578   6.324   4.638 -1.6680 -0.0614 -0.8323
 4813SOL    HW215410   4.621   6.454   4.574 -2.0159 -0.1636 -1.2801
 4814SOL     OW15411   3.393   2.246   1.867  0.3363 -0.2804  0.3034
 4814SOL    HW115412   3.432   2.212   1.948 -0.1999 -2.2734 -0.2179
 4814SOL    HW215413   3.467   2.250   1.805  0.7183  1.1061  0.8224
 4815SOL     OW15414   4.077   5.189   3.980 -0.0208  0.3858 -0.5251
 4815SOL    HW115415   3.991   5.200   3.940  0.0167  0.9241 -0.4684
 4815SOL    HW215416   4.060   5.184   4.074 -0.1382 -1.1876 -0.6086
 4816SOL     OW15417   1.058   6.814   1.336 -0.0336  0.6836  0.1274
 4816SOL    HW115418   1.024   6.726   1.322 -0.3981  0.9938 -1.0472
 4816SOL    HW215419   1.143   6.800   1.377 -0.7143 -0.1612  1.2910
 4817SOL     OW15420   5.738   0.342   1.876 -0.6424 -0.1318 -0.4471
 4817SOL    HW115421   5.766   0.316   1.964  0.0076 -0.4692 -0.7478
 4817SOL    HW215422   5.708   0.433   1.887 -1.2125 -0.3949  0.2474
 4818SOL     OW15423   2.239   6.403   5.371  0.7003 -0.2663  0.1659
 4818SOL    HW115424   2.275   6.431   5.287 -1.7650 -1.1897 -1.3026
 4818SOL    HW215425   2.314   6.366   5.418  2.0206 -0.4852 -1.9648
 4819SOL     OW15426   5.610   6.195   2.523  0.6694 -0.2284  0.2287
 4819SOL    HW115427   5.606   6.165   2.432 -1.2950  0.2107  0.1235
 4819SOL    HW215428   5.538   6.150   2.566 -0.4611  1.9598  0.7815
 4820SOL     OW15429   4.609   5.453   6.541 -0.7529  0.2034  0.4636
 4820SOL    HW115430   4.666   5.529   6.531 -1.5766  1.3674  3.4161
 4820SOL    HW215431   4.565   5.445   6.456  0.9177  1.6815 -0.6128
 4821SOL     OW15432   3.529   0.677   1.766 -0.3513 -0.0602  0.3911
 4821SOL    HW115433   3.530   0.720   1.852 -0.8474 -2.0730  1.4749
 4821SOL    HW215434   3.581   0.597   1.778 -0.4446 -0.3988 -1.1932
 4822SOL     OW15435   1.320   2.412   1.094 -0.0197 -0.0235 -0.0501
 4822SOL    HW115436   1.324   2.450   1.006  0.5843 -0.9143 -0.4266
 4822SOL    HW215437   1.298   2.485   1.151 -0.5986  0.5350 -0.9654
 4823SOL     OW15438   6.017   2.637   1.368  0.3579  0.3161 -0.4204
 4823SOL    HW115439   5.991   2.701   1.435 -3.8204 -0.2442 -1.2091
 4823SOL    HW215440   6.041   2.690   1.292  0.6490  0.9368  0.0975
 4824SOL     OW15441   1.186   4.176   5.945  0.3018  0.1917 -0.1084
 4824SOL    HW115442   1.269   4.209   5.980  0.6540 -1.1996  0.4396
 4824SOL    HW215443   1.182   4.211   5.856  0.7082  1.5636  0.3775
 4825SOL     OW15444   3.475   4.126   3.907 -0.5327  0.3299 -0.1405
 4825SOL    HW115445   3.553   4.091   3.864 -0.1171 -1.1358  1.6548
 4825SOL    HW215446   3.508   4.176   3.981 -1.2614  1.3859 -0.5022
 4826SOL     OW15447   1.883   2.762   4.110 -0.4484 -0.4572 -0.2011
 4826SOL    HW115448   1.954   2.730   4.054  1.4172  1.8608  0.6089
 4826SOL    HW215449   1.871   2.694   4.176  1.2807 -0.8224 -0.2082
 4827SOL     OW15450   0.794   1.339   1.507  0.1072  0.7160  0.4139
 4827SOL    HW115451   0.773   1.251   1.538 -1.2460  0.7317 -0.4149
 4827SOL    HW215452   0.865   1.325   1.444  0.5979  0.3443  1.0322
 4828SOL     OW15453   4.293   5.201   1.573 -0.5962  0.1945  0.2496
 4828SOL    HW115454   4.253   5.130   1.623 -1.5386  1.1692  0.9186
 4828SOL    HW215455   4.292   5.276   1.633  1.3427  0.5213 -0.0533
 4829SOL     OW15456   5.365   5.538   4.824 -0.2877  0.0426 -0.3973
 4829SOL    HW115457   5.399   5.555   4.912  0.2524  2.0377 -0.9317
 4829SOL    HW215458   5.310   5.461   4.834 -0.9519  0.7300  1.8870
 4830SOL     OW15459   6.168   5.379   0.901 -0.4097 -0.4853  0.1044
 4830SOL    HW115460   6.143   5.467   0.872  0.9277  0.4651  1.6143
 4830SOL    HW215461   6.092   5.346   0.948 -0.5086  0.3740  0.5578
 4831SOL     OW15462   2.430   3.887   4.270 -0.0791 -0.5106 -0.0291
 4831SOL    HW115463   2.492   3.870   4.199  0.8272  1.9186  0.1029
 4831SOL    HW215464   2.364   3.817   4.261  1.0033 -1.3548 -2.0759
 4832SOL     OW15465   4.512   3.979   0.295  0.0298 -0.1303  0.3472
 4832SOL    HW115466   4.525   4.041   0.366 -0.9138 -0.8916  1.2186
 4832SOL    HW215467   4.439   3.924   0.324 -0.7801 -0.0933 -1.4613
 4833SOL     OW15468   5.408   4.667   1.918 -0.4704  0.3327  0.2397
 4833SOL    HW115469   5.423   4.588   1.865 -1.0659  0.0370  0.4977
 4833SOL    HW215470   5.327   4.704   1.883  0.1410  1.1889 -0.2949
 4834SOL     OW15471   6.728   4.097   4.071 -0.3335  0.1825 -0.5846
 4834SOL    HW115472   6.659   4.159   4.049 -1.0865 -1.2958 -2.7862
 4834SOL    HW215473   6.685   4.011   4.072  1.1497 -0.6043 -0.3475
 4835SOL     OW15474   6.758   3.122   4.351 -0.2268 -0.4504 -0.5764
 4835SOL    HW115475   6.743   3.033   4.383  0.2919 -0.3753 -0.1096
 4835SOL    HW215476   6.753   3.177   4.429 -0.4774 -0.0760 -0.8524
 4836SOL     OW15477   2.745   5.709   2.837  0.4567 -0.4598 -0.0811
 4836SOL    HW115478   2.677   5.663   2.886  1.0829 -0.6648  0.6062
 4836SOL    HW215479   2.779   5.774   2.898  1.9993 -1.4400  0.1434
 4837SOL     OW15480   2.732   0.472   7.322  0.1090 -0.2301 -0.3672
 4837SOL    HW115481   2.796   0.455   7.253 -1.1748 -0.2802 -1.5913
 4837SOL    HW215482   2.736   0.567   7.335 -1.0627  0.0739 -1.9894
 4838SOL     OW15483   3.186   1.969   5.377 -0.0556 -0.0673 -0.3356
 4838SOL    HW115484   3.107   1.961   5.323 -0.4411 -0.9608  0.3380
 4838SOL    HW215485   3.153   1.989   5.464  0.2889 -2.4777  0.4225
 4839SOL     OW15486   6.229   5.950   7.211  0.1032  0.4882  0.2098
 4839SOL    HW115487   6.250   6.044   7.206 -0.9488  0.6939 -0.8479
 4839SOL    HW215488   6.136   5.946   7.188  0.1074 -0.8113  0.3839
 4840SOL     OW15489   6.256   4.229   7.260 -0.1626 -0.5719  0.3721
 4840SOL    HW115490   6.348   4.224   7.286  0.2425 -1.7467 -1.1693
 4840SOL    HW215491   6.212   4.162   7.313 -0.2815  0.4194  1.5730
 4841SOL     OW15492   3.602   6.185   2.306  0.4747 -0.1693  0.1510
 4841SOL    HW115493   3.625   6.154   2.393  1.7221  2.0108  0.6683
 4841SOL    HW215494   3.664   6.256   2.288 -1.0895  0.8557 -1.6194
 4842SOL     OW15495   6.100   3.712   4.622 -0.2076  0.4310 -0.2229
 4842SOL    HW115496   6.084   3.718   4.527  3.7588  0.8562 -1.0136
 4842SOL    HW215497   6.188   3.677   4.630  0.4568  2.4148  3.2817
 4843SOL     OW15498   1.558   3.163   6.027 -0.1737 -0.1934  0.4088
 4843SOL    HW115499   1.485   3.132   5.973 -1.8205  2.8353  0.7054
 4843SOL    HW215500   1.629   3.101   6.008 -1.3285 -0.5944 -3.4958
 4844SOL     OW15501   0.273   4.222   0.812 -0.5377 -0.0400  0.1353
 4844SOL    HW115502   0.245   4.135   0.782  3.5917 -1.9876  1.2044
 4844SOL    HW215503   0.302   4.267   0.733  1.7387 -1.5860  0.0126
 4845SOL     OW15504   5.408   6.033   0.922  0.4873  0.2883 -0.4797
 4845SOL    HW115505   5.434   5.958   0.975 -2.2280 -0.8671 -0.6361
 4845SOL    HW215506   5.399   6.105   0.984  1.1133 -0.0269 -0.0123
 4846SOL     OW15507   7.222   4.816   0.078  0.3727 -0.0641  0.3021
 4846SOL    HW115508   7.285   4.809   0.150  0.4238  2.1391  0.5562
 4846SOL    HW215509   7.138   4.828   0.121  0.1606 -0.3564 -0.0244
 4847SOL     OW15510   2.578   2.681   2.285 -0.7856 -0.0694 -0.3606
 4847SOL    HW115511   2.595   2.617   2.354  1.8122 -2.2140 -2.7277
 4847SOL    HW215512   2.559   2.763   2.332  2.0030 -1.0543  2.9416
 4848SOL     OW15513   3.846   2.239   6.697  0.3318  0.2719 -0.4574
 4848SOL    HW115514   3.888   2.165   6.740  2.3847  2.2611  1.2498
 4848SOL    HW215515   3.866   2.227   6.604  0.8338 -1.1774 -0.1828
 4849SOL     OW15516   4.936   3.128   5.241  0.1347  0.1289 -0.2266
 4849SOL    HW115517   5.003   3.195   5.253  1.6668 -1.0731 -1.5196
 4849SOL    HW215518   4.973   3.049   5.280 -1.5904 -0.0491  1.1841
 4850SOL     OW15519   4.763   2.874   6.047  0.0227  0.4441 -0.2441
 4850SOL    HW115520   4.839   2.865   6.105 -1.1436  1.5675  1.5850
 4850SOL    HW215521   4.797   2.856   5.959  2.5170  1.4157  0.4252
 4851SOL     OW15522   5.126   4.427   0.946 -0.5244  0.5891  1.0927
 4851SOL    HW115523   5.178   4.357   0.985  0.0497 -0.3486 -1.1409
 4851SOL    HW215524   5.175   4.507   0.966  1.9525 -0.2581 -0.9145
 4852SOL     OW15525   2.787   0.389   5.224  0.2727  0.1515  0.3272
 4852SOL    HW115526   2.830   0.309   5.256 -2.2063 -1.0873  0.7733
 4852SOL    HW215527   2.708   0.397   5.276 -0.6729  1.6731 -1.2248
 4853SOL     OW15528   4.827   2.646   2.714  0.7533  0.0038  0.0320
 4853SOL    HW115529   4.854   2.612   2.629  1.6847 -0.6528  0.5756
 4853SOL    HW215530   4.858   2.736   2.716  0.7263  0.0203 -0.3181
 4854SOL     OW15531   1.419   3.861   3.037 -0.9997  0.0485  0.1357
 4854SOL    HW115532   1.467   3.833   2.959  0.0522  0.3356  0.6620
 4854SOL    HW215533   1.412   3.782   3.091  1.1462  0.4848  1.1937
 4855SOL     OW15534   1.407   0.009   4.873 -0.0126 -0.3318 -0.0982
 4855SOL    HW115535   1.313   0.023   4.878  0.1910  1.8609 -1.2607
 4855SOL    HW215536   1.425  -0.008   4.781  1.0351  2.4661 -0.4934
 4856SOL     OW15537   6.708   2.793   2.845 -0.0740 -0.3121  0.0115
 4856SOL    HW115538   6.655   2.718   2.871 -0.5166 -0.2702 -0.7348
 4856SOL    HW215539   6.765   2.759   2.775 -0.3472  0.0611 -0.3995
 4857SOL     OW15540   3.456   2.134   6.878  0.1997 -0.4824  0.2120
 4857SOL    HW115541   3.541   2.127   6.923  0.2319  1.1338  0.4549
 4857SOL    HW215542   3.449   2.052   6.829  0.9765 -1.5380  1.7611
 4858SOL     OW15543   7.109   3.613   5.304  0.2183 -0.3548  0.3387
 4858SOL    HW115544   7.195   3.643   5.277  0.2707  0.6779  1.6073
 4858SOL    HW215545   7.061   3.601   5.222  1.6291 -1.1970 -0.3944
 4859SOL     OW15546   0.518   0.168   1.077 -0.4698 -0.0598  0.4397
 4859SOL    HW115547   0.503   0.110   1.002 -1.7256  2.1644 -1.1492
 4859SOL    HW215548   0.603   0.208   1.060 -0.5948  0.1838  0.3874
 4860SOL     OW15549   6.061   2.263   2.838  0.6000  0.1784  0.5148
 4860SOL    HW115550   5.990   2.201   2.852 -0.3957  1.1647 -0.0561
 4860SOL    HW215551   6.072   2.307   2.922  0.4947  0.0550  0.5924
 4861SOL     OW15552   6.035   6.512   1.553  0.0113  0.2227 -0.2303
 4861SOL    HW115553   5.979   6.589   1.544  0.6780  0.6208 -1.1011
 4861SOL    HW215554   6.069   6.496   1.465 -0.5888 -1.4417 -0.1993
 4862SOL     OW15555   3.891   3.473   3.958  0.3403  0.0757  0.1338
 4862SOL    HW115556   3.923   3.418   3.887 -0.4059  2.0813 -1.8782
 4862SOL    HW215557   3.795   3.465   3.953  0.2792  0.1680  0.9843
 4863SOL     OW15558   5.288   3.642   4.716  0.3151  0.3105 -0.0477
 4863SOL    HW115559   5.226   3.614   4.783  1.3369 -0.9891  0.3940
 4863SOL    HW215560   5.245   3.620   4.633 -0.5814  1.1340  0.1749
 4864SOL     OW15561   6.512   7.071   6.288  0.0884 -0.5364  0.0297
 4864SOL    HW115562   6.603   7.056   6.262  1.1467 -1.0472  3.4854
 4864SOL    HW215563   6.513   7.158   6.329 -1.0186 -0.4873 -0.0127
 4865SOL     OW15564   7.080   1.627   3.158  0.1802  0.2618 -0.7010
 4865SOL    HW115565   7.167   1.592   3.135 -0.3749 -0.2357 -2.1686
 4865SOL    HW215566   7.095   1.720   3.172  1.1630 -0.0207  0.3403
 4866SOL     OW15567   2.087   7.099   1.429  0.2415 -0.5268 -0.4024
 4866SOL    HW115568   1.998   7.090   1.397  0.0570 -0.3026  0.0389
 4866SOL    HW215569   2.099   7.194   1.440  0.3329 -0.5901  0.0916
 4867SOL     OW15570   6.729   4.920   5.815  0.0429  0.3952  0.0071
 4867SOL    HW115571   6.819   4.940   5.838  0.0373  0.9344 -0.4079
 4867SOL    HW215572   6.703   4.991   5.755 -0.6509  0.2489  0.1214
 4868SOL     OW15573   1.367   6.150   3.738  0.3399 -0.4059  0.5202
 4868SOL    HW115574   1.422   6.071   3.742  0.2971 -0.3930  2.1774
 4868SOL    HW215575   1.277   6.116   3.744  0.3684 -0.1974  3.2551
 4869SOL     OW15576   5.378   2.223   4.905 -1.0308 -0.0092  0.0006
 4869SOL    HW115577   5.420   2.149   4.861 -0.8727  0.6708 -1.0289
 4869SOL    HW215578   5.345   2.186   4.987 -0.7712 -1.1705 -0.3906
 4870SOL     OW15579   3.637   5.147   3.180  0.0000 -0.1230 -0.2901
 4870SOL    HW115580   3.550   5.114   3.158 -0.1096  1.1319 -1.9859
 4870SOL    HW215581   3.695   5.110   3.113  0.4957  0.2939 -0.1042
 4871SOL     OW15582   2.355   6.773   2.608 -0.1137 -0.8794 -0.2529
 4871SOL    HW115583   2.408   6.851   2.626 -0.8757  0.4635 -3.1816
 4871SOL    HW215584   2.271   6.792   2.651  0.3946 -1.1399  0.9011
 4872SOL     OW15585   6.610   1.635   4.017  1.0146  0.2517 -0.2874
 4872SOL    HW115586   6.525   1.624   4.059  1.5827  0.6379  1.0433
 4872SOL    HW215587   6.598   1.604   3.928 -0.7337  1.0458 -0.3704
 4873SOL     OW15588   2.964   2.001   5.540  0.2281 -0.3823 -0.2725
 4873SOL    HW115589   2.886   1.946   5.534  0.0099 -0.0456 -0.6430
 4873SOL    HW215590   3.006   1.976   5.622 -0.8314  0.1639  0.4489
 4874SOL     OW15591   4.171   5.956   7.205  0.3523 -0.5536  0.2171
 4874SOL    HW115592   4.171   5.935   7.298  0.2349 -0.4826  0.2347
 4874SOL    HW215593   4.249   5.914   7.170 -0.7906 -2.5524 -0.0976
 4875SOL     OW15594   4.486   2.362   1.125 -0.3118  0.3227  0.0645
 4875SOL    HW115595   4.516   2.407   1.046 -2.1833  0.4084 -0.6564
 4875SOL    HW215596   4.540   2.399   1.195  2.0874 -0.4599 -1.2409
 4876SOL     OW15597   3.912   3.306   3.569  1.1156  0.6523 -0.2778
 4876SOL    HW115598   3.932   3.217   3.540 -0.9111 -0.4605  1.4442
 4876SOL    HW215599   3.969   3.321   3.644  1.1944  0.6496 -0.3377
 4877SOL     OW15600   1.997   0.087   2.162 -0.2231 -0.1312 -0.5373
 4877SOL    HW115601   1.976  -0.002   2.189  0.8207 -0.5875 -1.2091
 4877SOL    HW215602   1.917   0.119   2.121 -0.8569 -0.4725  0.3970
 4878SOL     OW15603   2.780   3.288   6.319 -0.8411 -0.5159  0.1267
 4878SOL    HW115604   2.863   3.330   6.296 -0.4663 -0.6675  1.1563
 4878SOL    HW215605   2.713   3.351   6.292 -0.2666  1.3622  2.6735
 4879SOL     OW15606   5.193   7.267   4.544 -0.0406 -0.0057 -0.1792
 4879SOL    HW115607   5.139   7.339   4.513  1.2854  1.4255  0.6829
 4879SOL    HW215608   5.249   7.306   4.611  3.8885 -0.7125 -2.7034
 4880SOL     OW15609   5.568   0.241   6.564  0.0095 -0.0263 -0.0713
 4880SOL    HW115610   5.587   0.302   6.635 -0.9168 -1.8797  1.9013
 4880SOL    HW215611   5.617   0.162   6.586 -0.3314 -0.6820 -1.5143
 4881SOL     OW15612   6.958   6.891   3.959 -0.2719  0.4260  0.3235
 4881SOL    HW115613   6.981   6.815   3.905  1.4969  0.8229  0.4729
 4881SOL    HW215614   6.862   6.888   3.965 -0.5176  0.2621 -2.6442
 4882SOL     OW15615   2.770   3.479   0.876  0.4152 -0.0410  0.2994
 4882SOL    HW115616   2.755   3.564   0.834  0.8088  0.3977  1.0371
 4882SOL    HW215617   2.835   3.496   0.944 -1.3280 -0.4033  2.1465
 4883SOL     OW15618   2.362   1.364   5.009 -0.3026 -0.3813 -0.1353
 4883SOL    HW115619   2.315   1.382   5.091 -0.6551  2.4179 -0.8266
 4883SOL    HW215620   2.454   1.382   5.030 -0.2457 -0.7397 -0.0788
 4884SOL     OW15621   7.241   6.988   5.190  0.9665 -0.2723  0.2102
 4884SOL    HW115622   7.280   6.936   5.119  1.8205 -1.3439  1.4087
 4884SOL    HW215623   7.246   6.930   5.266 -0.5265  0.6090  1.0049
 4885SOL     OW15624   5.351   6.009   5.194 -0.2933 -0.0257  0.1560
 4885SOL    HW115625   5.400   6.086   5.221 -0.7160  0.5219 -0.5916
 4885SOL    HW215626   5.306   5.980   5.274  0.2392  0.2190  0.5484
 4886SOL     OW15627   2.902   7.348   5.637 -0.1602 -0.0179  0.1007
 4886SOL    HW115628   2.888   7.259   5.605 -0.6175  0.6943 -1.7586
 4886SOL    HW215629   2.994   7.350   5.661  0.0972 -0.7160 -0.7758
 4887SOL     OW15630   6.324   3.971   6.854 -0.2782  0.5283 -0.2683
 4887SOL    HW115631   6.359   3.886   6.883 -0.1829  0.6223 -0.1105
 4887SOL    HW215632   6.306   3.958   6.761  0.8382  0.6924 -0.5253
 4888SOL     OW15633   5.270   3.068   2.213  0.1299  0.2453 -0.4630
 4888SOL    HW115634   5.209   3.113   2.272  2.0268  0.0564  1.7646
 4888SOL    HW215635   5.267   3.121   2.133 -1.1069  1.6671  0.4457
 4889SOL     OW15636   2.236   6.499   0.866  0.1064  0.0206  0.1339
 4889SOL    HW115637   2.173   6.555   0.821  0.8197  0.0661 -0.8581
 4889SOL    HW215638   2.308   6.558   0.890  1.0370 -0.4778 -1.2552
 4890SOL     OW15639   0.484   4.303   3.397 -0.0364 -0.2018  0.6313
 4890SOL    HW115640   0.469   4.356   3.319 -1.6911  0.0455  1.0898
 4890SOL    HW215641   0.564   4.339   3.435 -0.1255  0.7583 -0.0550
 4891SOL     OW15642   6.741   1.330   6.200 -0.9338 -0.3564 -0.2708
 4891SOL    HW115643   6.773   1.250   6.158  0.2166 -0.1532  0.1581
 4891SOL    HW215644   6.819   1.386   6.206 -0.3489 -1.2423  4.1276
 4892SOL     OW15645   4.005   4.524   4.714 -0.0917 -0.0128 -0.4492
 4892SOL    HW115646   3.913   4.521   4.691 -0.1967 -0.0502 -0.0434
 4892SOL    HW215647   4.005   4.538   4.809  0.3171 -0.0658 -0.4396
 4893SOL     OW15648   6.402   6.630   0.557  0.6216  0.3997 -0.1530
 4893SOL    HW115649   6.416   6.691   0.629  0.3672 -0.7887  0.9359
 4893SOL    HW215650   6.468   6.561   0.570  0.2290 -0.0990 -0.7350
 4894SOL     OW15651   3.167   6.331   0.563  0.6497  0.0857  0.0457
 4894SOL    HW115652   3.108   6.397   0.526 -1.2079 -0.8476  1.2096
 4894SOL    HW215653   3.170   6.261   0.498 -0.0214 -0.1351  0.2535
 4895SOL     OW15654   7.199   0.800   3.898  0.3850  0.0918 -0.4945
 4895SOL    HW115655   7.193   0.850   3.979  0.1654 -1.5732  0.5472
 4895SOL    HW215656   7.211   0.867   3.830  2.5799  1.4404  1.0772
 4896SOL     OW15657   0.943   3.356   0.504 -0.1403 -0.2730  0.3590
 4896SOL    HW115658   0.974   3.443   0.529  0.9915  0.5223 -3.2860
 4896SOL    HW215659   0.988   3.297   0.565  1.5884  1.4902  0.9084
 4897SOL     OW15660   6.274   6.125   6.401  0.0019 -0.1570 -0.0845
 4897SOL    HW115661   6.221   6.078   6.337  0.4633 -0.5457 -0.1785
 4897SOL    HW215662   6.221   6.125   6.480 -0.1717 -0.4741 -0.2010
 4898SOL     OW15663   2.437   5.000   6.490 -0.1744 -0.0689  0.0036
 4898SOL    HW115664   2.461   5.091   6.507 -0.5170  0.0835 -0.3050
 4898SOL    HW215665   2.511   4.964   6.442 -0.0559  0.0610  0.0888
 4899SOL     OW15666   6.287   4.597   0.987  0.0804 -0.1397 -0.0556
 4899SOL    HW115667   6.322   4.682   0.962 -2.1777  0.6691 -0.7605
 4899SOL    HW215668   6.277   4.550   0.904 -0.5161 -0.3077  0.1038
 4900SOL     OW15669   5.802   4.041   6.768  0.1964  0.3289 -0.5240
 4900SOL    HW115670   5.886   4.001   6.745  1.3462  1.2722  1.7556
 4900SOL    HW215671   5.764   3.982   6.833  1.1012  1.9407  1.5737
 4901SOL     OW15672   3.191   1.359   2.804  0.0546  0.6623  0.2354
 4901SOL    HW115673   3.143   1.310   2.871  0.2688  0.3126  0.1335
 4901SOL    HW215674   3.173   1.451   2.824 -1.9173  0.5310 -0.7035
 4902SOL     OW15675   0.440   5.199   6.530  0.4180 -0.0327 -0.2023
 4902SOL    HW115676   0.429   5.262   6.459  0.7582  1.0699  0.6935
 4902SOL    HW215677   0.430   5.251   6.610 -1.0520 -1.4299  0.5874
 4903SOL     OW15678   5.602   7.362   1.526  0.5441  0.4115 -0.1742
 4903SOL    HW115679   5.687   7.319   1.518  0.3311 -0.0184 -0.1836
 4903SOL    HW215680   5.603   7.402   1.613  0.3847 -0.4337  0.2310
 4904SOL     OW15681   6.931   5.102   6.194 -0.2240  0.4164 -0.0828
 4904SOL    HW115682   6.873   5.087   6.268  2.0278  0.6803  1.8752
 4904SOL    HW215683   6.979   5.020   6.183  0.5500  0.8775 -0.2330
 4905SOL     OW15684   5.159   6.757   6.638 -0.1772 -0.0235 -0.4416
 4905SOL    HW115685   5.079   6.705   6.648 -0.2254  0.2051  0.4666
 4905SOL    HW215686   5.155   6.792   6.549 -0.0102 -1.7788 -1.1878
 4906SOL     OW15687   6.547   4.190   2.888 -0.5094 -0.8525 -0.2608
 4906SOL    HW115688   6.549   4.113   2.830  0.1887 -1.5476  0.6624
 4906SOL    HW215689   6.506   4.158   2.968  1.3134 -0.7348  0.7648
 4907SOL     OW15690   1.418   4.020   3.693 -0.0160  0.0639  0.4856
 4907SOL    HW115691   1.468   4.067   3.759 -1.4595  0.4701  1.3473
 4907SOL    HW215692   1.337   4.071   3.683 -0.3690 -0.6693 -0.6882
 4908SOL     OW15693   1.995   1.912   2.158  0.4460 -0.4917  0.3453
 4908SOL    HW115694   2.078   1.949   2.130  0.2958  1.6071  2.3325
 4908SOL    HW215695   2.018   1.832   2.205  1.1599 -0.8520 -0.5932
 4909SOL     OW15696   5.312   3.656   2.162  0.6829 -0.0682 -0.1622
 4909SOL    HW115697   5.342   3.565   2.175 -0.0958 -0.2076  0.7431
 4909SOL    HW215698   5.379   3.694   2.105  2.3230 -0.5296  1.3491
 4910SOL     OW15699   6.964   6.987   3.228  0.1122 -0.1851 -0.0904
 4910SOL    HW115700   6.919   7.066   3.198 -1.2178 -0.2570  1.5506
 4910SOL    HW215701   7.028   6.968   3.159 -2.0638  0.1706 -2.3707
 4911SOL     OW15702   2.263   1.577   6.735  0.1387  0.2772  0.2130
 4911SOL    HW115703   2.206   1.501   6.743 -1.3561  1.4908  1.6786
 4911SOL    HW215704   2.280   1.585   6.641 -1.1609 -0.8013 -0.1392
 4912SOL     OW15705   3.092   1.412   4.875  0.6546  0.6609  0.3682
 4912SOL    HW115706   3.042   1.482   4.918  0.8840 -0.1500  2.0497
 4912SOL    HW215707   3.049   1.331   4.905  1.5965  0.0230  0.0275
 4913SOL     OW15708   0.723   4.824   5.343 -0.0861 -0.0004  0.0248
 4913SOL    HW115709   0.660   4.756   5.320 -0.7463  0.3611  0.7297
 4913SOL    HW215710   0.780   4.783   5.408 -0.5564  0.1557  0.5363
 4914SOL     OW15711   1.494   3.221   4.284 -0.6552  0.1975  0.4605
 4914SOL    HW115712   1.496   3.192   4.192 -1.1909  2.5084 -0.3463
 4914SOL    HW215713   1.581   3.199   4.318 -0.3112 -0.3492 -0.6981
 4915SOL     OW15714   2.924   0.332   2.405  0.5959 -0.1893  0.2651
 4915SOL    HW115715   2.846   0.278   2.392 -0.6654  1.0273  2.3461
 4915SOL    HW215716   2.997   0.274   2.379 -0.9310 -1.2531 -2.0279
 4916SOL     OW15717   0.638   2.090   4.138 -0.4695  0.5954 -0.1556
 4916SOL    HW115718   0.667   2.181   4.145 -1.0009  0.7351  0.3372
 4916SOL    HW215719   0.685   2.055   4.062 -1.2845  1.6816 -1.2142
 4917SOL     OW15720   7.150   0.416   1.419  0.0485 -0.0788  0.5148
 4917SOL    HW115721   7.093   0.428   1.342 -2.0284  1.2407  2.1324
 4917SOL    HW215722   7.237   0.443   1.390 -0.9118  1.4984 -1.0838
 4918SOL     OW15723   0.962   1.399   3.017 -0.5568  0.2644  0.4081
 4918SOL    HW115724   0.996   1.327   3.069 -0.6589  0.6076  0.9581
 4918SOL    HW215725   0.996   1.384   2.929  0.7601  0.4366  0.8772
 4919SOL     OW15726   0.335   4.918   5.891  0.6473 -0.0538  0.3088
 4919SOL    HW115727   0.337   4.879   5.978  3.4351  1.0376  0.8125
 4919SOL    HW215728   0.357   5.010   5.904  1.3190  0.0977 -1.5663
 4920SOL     OW15729   4.494   2.341   7.002  0.5037  0.1953 -0.0153
 4920SOL    HW115730   4.508   2.392   7.082  0.0389 -1.2385  1.0229
 4920SOL    HW215731   4.564   2.276   7.003  0.0353 -0.3177 -0.3629
 4921SOL     OW15732   4.718   1.281   4.311  0.4767  0.3711  0.4437
 4921SOL    HW115733   4.676   1.198   4.285  0.4827 -0.0359  1.6548
 4921SOL    HW215734   4.811   1.265   4.299  0.4819  0.1813  0.7338
 4922SOL     OW15735   3.410   5.613   1.622 -0.1664 -0.1896 -0.0478
 4922SOL    HW115736   3.363   5.530   1.614  0.8385 -1.0305  2.0545
 4922SOL    HW215737   3.402   5.636   1.715  0.4272  1.5514 -0.3965
 4923SOL     OW15738   5.198   3.478   1.948  0.0603  0.6312 -0.3779
 4923SOL    HW115739   5.241   3.554   1.908  2.2272 -0.4178 -0.2086
 4923SOL    HW215740   5.268   3.435   1.997 -0.9070 -1.8658 -1.0517
 4924SOL     OW15741   0.954   0.854   4.371  0.2621  0.3676  0.2313
 4924SOL    HW115742   0.928   0.931   4.321 -1.1560 -0.2729 -0.0671
 4924SOL    HW215743   0.970   0.787   4.304 -0.8033 -0.2493  0.5602
 4925SOL     OW15744   2.863   1.096   3.686 -0.5553 -0.0822  0.5752
 4925SOL    HW115745   2.838   1.110   3.595 -1.7131  1.5771  1.1010
 4925SOL    HW215746   2.804   1.028   3.717 -0.1141 -0.6998  0.0833
 4926SOL     OW15747   5.078   6.035   5.283 -0.4520 -0.0214  0.0989
 4926SOL    HW115748   5.097   5.941   5.283 -1.9500 -0.3549 -0.8995
 4926SOL    HW215749   5.092   6.062   5.193 -1.5666  0.3660  0.0259
 4927SOL     OW15750   3.593   1.693   3.942  0.1056 -0.4166 -0.0384
 4927SOL    HW115751   3.600   1.606   3.981  1.9353 -0.7027 -0.8937
 4927SOL    HW215752   3.669   1.740   3.975  1.6565 -0.6153 -2.9642
 4928SOL     OW15753   0.339   3.991   6.703  0.0954 -0.1050 -0.3324
 4928SOL    HW115754   0.395   3.946   6.639  1.0647 -0.6672  0.8689
 4928SOL    HW215755   0.250   3.965   6.680  0.3227  0.4405 -2.0038
 4929SOL     OW15756   6.348   3.595   4.604 -0.4266  0.0118 -0.0971
 4929SOL    HW115757   6.416   3.660   4.587 -0.4176 -0.3698 -1.6285
 4929SOL    HW215758   6.353   3.580   4.699 -0.1730  1.9398  0.2536
 4930SOL     OW15759   6.838   0.332   3.237  0.3722  0.5206 -0.4047
 4930SOL    HW115760   6.887   0.406   3.201  1.8758 -1.3769 -2.5025
 4930SOL    HW215761   6.869   0.324   3.327 -1.0286  3.3471  0.4367
 4931SOL     OW15762   5.791   7.094   0.936 -0.4937  0.0295  0.1177
 4931SOL    HW115763   5.717   7.058   0.984 -0.2765 -1.3331 -0.5142
 4931SOL    HW215764   5.780   7.061   0.847 -0.3335  1.6630 -0.5450
 4932SOL     OW15765   7.379   2.218   0.197 -0.1283  0.6240 -0.0692
 4932SOL    HW115766   7.292   2.204   0.235 -0.1116 -0.1557 -0.3001
 4932SOL    HW215767   7.365   2.212   0.102  0.1405  0.7460 -0.1182
 4933SOL     OW15768   4.848   3.893   0.534 -0.0761 -0.1765 -0.1358
 4933SOL    HW115769   4.863   3.987   0.535  0.0204 -0.1900  0.7701
 4933SOL    HW215770   4.868   3.866   0.444  1.0541  0.4908 -0.1065
 4934SOL     OW15771   0.627   0.853   6.197 -0.5946 -0.2061  0.1250
 4934SOL    HW115772   0.701   0.807   6.157  0.8359  2.4152 -0.4510
 4934SOL    HW215773   0.654   0.945   6.200 -2.0259  0.2786  4.0784
 4935SOL     OW15774   1.241   2.135   2.735  0.1018 -0.0740 -0.0875
 4935SOL    HW115775   1.222   2.212   2.789 -2.3580  0.3155 -1.3654
 4935SOL    HW215776   1.175   2.071   2.761 -0.4443 -0.2646 -1.8326
 4936SOL     OW15777   4.028   6.792   4.199 -0.4202 -0.6811  0.6059
 4936SOL    HW115778   3.965   6.735   4.244 -1.9584  1.6253  1.5374
 4936SOL    HW215779   3.990   6.879   4.203  2.2656  0.6423  0.0577
 4937SOL     OW15780   2.897   5.530   2.195  0.2269 -0.0637 -0.3008
 4937SOL    HW115781   2.806   5.538   2.222  0.2031 -0.1020 -0.3677
 4937SOL    HW215782   2.910   5.602   2.133  1.3424  2.4186  2.6064
 4938SOL     OW15783   4.611   4.659   0.492  0.1788  0.4062 -0.5610
 4938SOL    HW115784   4.583   4.749   0.509 -0.7265  0.1513 -0.6561
 4938SOL    HW215785   4.606   4.650   0.397  0.0091  0.1726 -0.5289
 4939SOL     OW15786   2.353   6.760   1.410 -0.3678  0.4550  0.2269
 4939SOL    HW115787   2.382   6.669   1.405  1.1569  0.8326  1.2418
 4939SOL    HW215788   2.263   6.755   1.441 -0.4385 -0.7097 -0.1086
 4940SOL     OW15789   6.168   6.881   7.209 -0.1623  0.0260 -0.5163
 4940SOL    HW115790   6.181   6.960   7.156 -0.7633  0.1352 -0.5175
 4940SOL    HW215791   6.252   6.836   7.208  0.3278  0.9155 -0.1099
 4941SOL     OW15792   0.237   3.447   4.037  0.4063  0.1978  0.4946
 4941SOL    HW115793   0.240   3.455   3.942 -0.9319 -2.2263  0.1741
 4941SOL    HW215794   0.326   3.422   4.062  0.7209  0.6789 -0.1271
 4942SOL     OW15795   0.567   5.976   2.600 -0.4711  0.0655  0.1297
 4942SOL    HW115796   0.612   6.014   2.525  0.8949  0.7735  1.2603
 4942SOL    HW215797   0.621   5.902   2.627 -0.0440  0.7939  1.3674
 4943SOL     OW15798   0.547   6.389   2.252 -0.0441  0.0226 -0.4563
 4943SOL    HW115799   0.476   6.333   2.282  0.0657  0.1498  0.0380
 4943SOL    HW215800   0.540   6.388   2.156 -1.0555  0.4865 -0.3929
 4944SOL     OW15801   0.549   3.513   5.929  0.3038 -0.3550  0.1436
 4944SOL    HW115802   0.543   3.605   5.905 -0.7636 -0.5967 -0.6367
 4944SOL    HW215803   0.488   3.502   6.002  0.5740 -0.4078  0.3636
 4945SOL     OW15804   5.711   3.256   2.049  0.0685  0.0016  0.5189
 4945SOL    HW115805   5.763   3.188   2.005  2.1086  2.5180 -1.2452
 4945SOL    HW215806   5.627   3.255   2.002  0.4856 -0.5473 -0.2503
 4946SOL     OW15807   3.637   0.235   1.964 -0.0941  0.2435 -0.0694
 4946SOL    HW115808   3.675   0.165   1.912 -0.6393 -0.6953  0.7787
 4946SOL    HW215809   3.578   0.280   1.903 -0.6531 -0.7840 -0.2995
 4947SOL     OW15810   3.367   5.402   4.297 -0.2915  0.0077 -0.2575
 4947SOL    HW115811   3.383   5.318   4.253  0.7852 -0.0758  0.2464
 4947SOL    HW215812   3.410   5.467   4.242  0.5677 -0.0268  0.3514
 4948SOL     OW15813   0.476   4.196   1.051  0.3260 -0.5127 -0.2386
 4948SOL    HW115814   0.441   4.216   0.964 -0.1615 -0.7316 -0.0985
 4948SOL    HW215815   0.446   4.107   1.068 -1.1071  0.1587  0.9049
 4949SOL     OW15816   4.050   4.964   0.304 -0.4001 -0.1388 -0.6723
 4949SOL    HW115817   3.989   5.000   0.240 -3.1880 -0.5579  1.5413
 4949SOL    HW215818   3.997   4.902   0.355  1.1520  1.3196  3.0452
 4950SOL     OW15819   0.235   7.288   0.303  0.7496  0.1952  0.4191
 4950SOL    HW115820   0.236   7.366   0.358 -0.6506 -0.0649  0.8519
 4950SOL    HW215821   0.226   7.321   0.214 -0.7829  0.5137  0.6776
 4951SOL     OW15822   2.937   0.704   6.784 -0.1508 -0.5752  0.1276
 4951SOL    HW115823   2.983   0.686   6.866  0.1689 -0.1919  0.0300
 4951SOL    HW215824   2.844   0.696   6.807 -0.0944  0.3678  0.7361
 4952SOL     OW15825   2.459   0.171   6.682  0.2502  0.4643 -0.0394
 4952SOL    HW115826   2.372   0.132   6.692 -0.2520  1.5813  0.1886
 4952SOL    HW215827   2.456   0.250   6.737  2.1434 -0.5980  1.7236
 4953SOL     OW15828   5.789   0.313   2.152 -0.1128  0.3154  0.9387
 4953SOL    HW115829   5.706   0.284   2.192 -0.1262  0.4471  1.0116
 4953SOL    HW215830   5.841   0.234   2.144 -0.3885  0.1711  0.5501
 4954SOL     OW15831   5.559   1.084   5.776 -0.1578  0.4213  0.0280
 4954SOL    HW115832   5.539   1.172   5.744 -0.8526  0.1317 -0.3663
 4954SOL    HW215833   5.494   1.028   5.734  0.0813 -0.2389  0.5174
 4955SOL     OW15834   1.835   7.080   1.320  0.1611 -0.5231  0.1855
 4955SOL    HW115835   1.799   7.167   1.336 -2.1277 -1.4172  0.2283
 4955SOL    HW215836   1.838   7.072   1.224 -0.3548 -0.6779  0.1823
 4956SOL     OW15837   0.013   2.935   2.776  1.1210 -0.0187 -0.0416
 4956SOL    HW115838  -0.038   2.861   2.743  0.3409  0.3259  0.3613
 4956SOL    HW215839   0.100   2.899   2.791  0.5500 -1.0741  0.9130
 4957SOL     OW15840   3.292   0.002   2.064  0.1671 -0.5867  0.3551
 4957SOL    HW115841   3.311  -0.020   1.973  1.3159  0.2893  0.3548
 4957SOL    HW215842   3.243   0.085   2.059 -2.2393 -1.9086  0.4476
 4958SOL     OW15843   0.186   7.068   1.421  0.6480 -0.1560  0.5327
 4958SOL    HW115844   0.218   7.109   1.341  2.0505 -0.1309  1.0956
 4958SOL    HW215845   0.172   6.976   1.396 -2.1362  0.4493 -0.6187
 4959SOL     OW15846   3.339   1.114   3.649 -0.4029 -0.2598  0.4502
 4959SOL    HW115847   3.278   1.043   3.628 -1.0146  0.6443 -1.0048
 4959SOL    HW215848   3.324   1.133   3.741 -2.1622 -0.2176  0.1753
 4960SOL     OW15849   6.107   7.181   4.823  0.1569 -0.0902  0.2473
 4960SOL    HW115850   6.032   7.152   4.875 -0.6398 -0.4486 -1.0405
 4960SOL    HW215851   6.078   7.171   4.732  0.3706  3.2711 -0.3306
 4961SOL     OW15852   3.673   0.401   4.476 -0.1857  0.1865  0.0880
 4961SOL    HW115853   3.680   0.489   4.439 -0.4385 -0.5312 -1.7356
 4961SOL    HW215854   3.583   0.395   4.507 -0.0749  0.6640  0.5288
 4962SOL     OW15855   5.716   2.411   6.199  0.0153 -0.0492  0.1774
 4962SOL    HW115856   5.741   2.334   6.250 -1.0938 -1.2132 -0.9787
 4962SOL    HW215857   5.643   2.450   6.248 -0.1439 -0.3635  0.1890
 4963SOL     OW15858   0.686   3.640   0.459  0.4255 -0.7185  0.4687
 4963SOL    HW115859   0.759   3.702   0.454 -1.2129  1.4467  1.4366
 4963SOL    HW215860   0.627   3.679   0.524 -3.4000 -0.2623 -2.8839
 4964SOL     OW15861   2.904   6.969   7.371  0.1772  0.3811 -0.1148
 4964SOL    HW115862   2.901   6.896   7.433  1.6046  0.9302  0.6297
 4964SOL    HW215863   2.876   6.930   7.288  4.7066 -2.1521 -0.7697
 4965SOL     OW15864   4.516   6.552   3.384  0.4761  0.0610 -0.3947
 4965SOL    HW115865   4.566   6.596   3.316  1.0911 -0.0904 -0.0444
 4965SOL    HW215866   4.574   6.483   3.416 -0.6501 -1.3925 -1.3111
 4966SOL     OW15867   6.325   2.572   5.475  0.0209 -0.4623 -0.3893
 4966SOL    HW115868   6.279   2.656   5.474 -0.4145 -0.7046 -0.9447
 4966SOL    HW215869   6.416   2.595   5.497 -0.2827  0.0559  0.3895
 4967SOL     OW15870   1.345   2.400   4.735 -0.6915  0.1507 -0.7050
 4967SOL    HW115871   1.283   2.434   4.671 -0.1956 -0.2463 -1.4120
 4967SOL    HW215872   1.370   2.314   4.702 -2.2025 -1.1315  1.2472
 4968SOL     OW15873   6.370   4.537   3.492  0.1956 -0.0314 -0.6606
 4968SOL    HW115874   6.363   4.560   3.585  0.6788  0.8306 -0.8302
 4968SOL    HW215875   6.316   4.601   3.447  2.6417  1.7588 -1.2588
 4969SOL     OW15876   3.038   2.340   2.597  0.0668  0.2901  0.4202
 4969SOL    HW115877   2.947   2.315   2.582  0.1955 -0.7122  1.2167
 4969SOL    HW215878   3.046   2.428   2.558 -1.3272  0.5391  0.6596
 4970SOL     OW15879   3.377   6.638   0.601 -0.2476 -1.0292 -0.6799
 4970SOL    HW115880   3.393   6.719   0.649  1.3024 -1.3448 -0.5953
 4970SOL    HW215881   3.301   6.656   0.547 -1.5285 -0.3668  1.2235
 4971SOL     OW15882   5.087   2.388   4.698 -0.6057  0.6451 -0.2629
 4971SOL    HW115883   5.010   2.409   4.645  0.5934  0.2520 -2.2576
 4971SOL    HW215884   5.134   2.321   4.647  1.1588  1.0284  0.7672
 4972SOL     OW15885   4.140   5.458   2.324  0.2280  0.1151 -0.2799
 4972SOL    HW115886   4.207   5.503   2.376 -0.6920  0.7105  0.4316
 4972SOL    HW215887   4.157   5.484   2.234 -0.7239  2.5555  0.1751
 4973SOL     OW15888   5.942   3.671   2.780  0.3387  0.8888 -0.2339
 4973SOL    HW115889   5.880   3.600   2.801 -0.5211  1.9696  1.0449
 4973SOL    HW215890   5.986   3.641   2.700 -0.7506 -0.6031 -0.3269
 4974SOL     OW15891   3.686   3.472   6.152  0.9458  0.3844  0.0901
 4974SOL    HW115892   3.719   3.447   6.066 -0.8229  0.1692 -0.5729
 4974SOL    HW215893   3.746   3.540   6.182  1.8226  0.1870 -1.1234
 4975SOL     OW15894   1.053   5.613   5.751 -0.3622 -0.0201  0.5425
 4975SOL    HW115895   1.016   5.535   5.709 -0.1582  1.3593 -2.4825
 4975SOL    HW215896   1.144   5.615   5.722 -0.0624  0.8034  1.4779
 4976SOL     OW15897   6.156   0.865   4.037  0.2022  0.0010 -0.2932
 4976SOL    HW115898   6.086   0.855   4.102 -1.2736  0.8823 -1.6996
 4976SOL    HW215899   6.196   0.950   4.058  0.3249 -0.1230 -0.0082
 4977SOL     OW15900   5.119   2.582   3.968 -0.1301  0.1446  0.0388
 4977SOL    HW115901   5.195   2.598   3.913 -0.6485 -0.8399 -1.0150
 4977SOL    HW215902   5.079   2.503   3.931 -1.0429  0.0102  1.2452
 4978SOL     OW15903   3.547   1.932   1.778 -0.3807  0.2367  0.6091
 4978SOL    HW115904   3.567   2.007   1.835 -1.0364  0.4577  0.5611
 4978SOL    HW215905   3.535   1.859   1.839  0.1121  0.1997  0.6670
 4979SOL     OW15906   3.524   6.264   5.728  0.2721 -1.3130 -0.0309
 4979SOL    HW115907   3.527   6.347   5.775  1.7574 -0.6920 -1.1191
 4979SOL    HW215908   3.449   6.273   5.668  0.1928 -0.9110  0.1240
 4980SOL     OW15909   0.854   3.172   5.635  0.3044 -0.0663  0.4834
 4980SOL    HW115910   0.916   3.185   5.564  0.2496 -0.3425  0.3842
 4980SOL    HW215911   0.895   3.214   5.711  2.0799 -2.8841  1.2255
 4981SOL     OW15912   1.078   2.467   2.207 -0.6327  0.3201 -0.0254
 4981SOL    HW115913   1.073   2.443   2.115 -1.1885 -0.0371  0.0890
 4981SOL    HW215914   1.158   2.518   2.215 -0.7391  0.6117 -0.7635
 4982SOL     OW15915   1.038   6.467   3.908  0.4738 -0.0046 -0.5122
 4982SOL    HW115916   1.032   6.499   3.818  0.7758 -1.9079 -1.2494
 4982SOL    HW215917   1.128   6.438   3.917 -0.0563 -1.6926 -0.2917
 4983SOL     OW15918   4.676   3.712   3.843 -0.3597 -0.1193 -0.3999
 4983SOL    HW115919   4.587   3.684   3.821 -0.2395 -0.4923 -0.4265
 4983SOL    HW215920   4.732   3.659   3.787 -0.1265  0.2428 -0.5102
 4984SOL     OW15921   2.338   4.617   6.364  0.4563  0.3456  0.5441
 4984SOL    HW115922   2.366   4.633   6.454  0.3903  2.3159  0.2629
 4984SOL    HW215923   2.341   4.522   6.354  5.1920  0.1859  1.1276
 4985SOL     OW15924   5.675   7.262   2.500  0.1803  0.0138 -0.3051
 4985SOL    HW115925   5.643   7.174   2.518  0.3705  0.2080  1.0859
 4985SOL    HW215926   5.615   7.320   2.548  1.6979  0.4643  1.1618
 4986SOL     OW15927   1.917   0.124   1.176  0.7778 -0.3870 -0.6157
 4986SOL    HW115928   1.873   0.080   1.104 -0.3555  0.6991 -0.6122
 4986SOL    HW215929   1.855   0.119   1.249  0.3900  1.5985 -0.7507
 4987SOL     OW15930   5.844   2.332   3.620  0.2716  0.2729 -0.1479
 4987SOL    HW115931   5.770   2.356   3.676 -0.1254  0.5432 -0.7779
 4987SOL    HW215932   5.877   2.250   3.657 -0.8528 -0.2874 -0.3362
 4988SOL     OW15933   6.470   0.899   3.827  0.2166 -0.3743 -0.2492
 4988SOL    HW115934   6.503   0.902   3.917 -1.5201  3.2297  0.4397
 4988SOL    HW215935   6.376   0.880   3.836  0.2881 -1.4766 -1.4649
 4989SOL     OW15936   6.993   4.791   2.993 -0.0801  0.0481  0.1553
 4989SOL    HW115937   7.015   4.849   2.921 -0.5128  0.9372  0.7223
 4989SOL    HW215938   6.945   4.719   2.952 -0.7778  0.8051 -0.3969
 4990SOL     OW15939   0.628   1.193   5.435 -0.1218 -0.2465 -0.1714
 4990SOL    HW115940   0.624   1.247   5.513 -0.8183  0.7384 -0.8690
 4990SOL    HW215941   0.601   1.106   5.464 -0.6791  0.1828  0.6169
 4991SOL     OW15942   1.506   5.140   1.719 -0.9052  0.2854 -0.2867
 4991SOL    HW115943   1.430   5.190   1.747 -1.3216 -0.8305  0.6218
 4991SOL    HW215944   1.510   5.155   1.625 -1.2573  1.6752 -0.1153
 4992SOL     OW15945   7.115   5.288   5.651  0.1007 -0.0547 -0.3056
 4992SOL    HW115946   7.022   5.287   5.630 -0.3233 -2.3328  1.2414
 4992SOL    HW215947   7.156   5.238   5.580  0.1108  0.6791 -0.8222
 4993SOL     OW15948   6.400   1.135   0.480 -0.1865  0.0106  0.3309
 4993SOL    HW115949   6.354   1.214   0.508  0.1789 -0.2165  1.6503
 4993SOL    HW215950   6.474   1.166   0.430  0.3051  0.5544  1.3681
 4994SOL     OW15951   6.136   5.660   0.159 -0.0492 -0.3391 -0.1170
 4994SOL    HW115952   6.172   5.738   0.117  0.3232  1.0410  2.5290
 4994SOL    HW215953   6.207   5.626   0.213  0.1154 -3.1988 -1.9287
 4995SOL     OW15954   4.382   1.174   3.924 -0.1982 -0.3984  0.3477
 4995SOL    HW115955   4.287   1.180   3.921 -0.1424  0.8936  0.5665
 4995SOL    HW215956   4.402   1.086   3.893 -1.4318 -0.4361 -0.3926
 4996SOL     OW15957   2.223   1.774   3.584 -0.1619  0.6321 -0.1264
 4996SOL    HW115958   2.223   1.782   3.680 -0.0145 -0.4311 -0.0252
 4996SOL    HW215959   2.185   1.687   3.568  1.5239  0.0093 -0.9522
 4997SOL     OW15960   2.100   3.245   1.209 -0.4266 -0.3947  0.1134
 4997SOL    HW115961   2.148   3.252   1.126  0.1200  0.0555  0.4563
 4997SOL    HW215962   2.127   3.323   1.258 -0.5155 -0.8123  0.8291
 4998SOL     OW15963   2.353   3.858   7.110 -0.1293  0.4734  0.1303
 4998SOL    HW115964   2.407   3.808   7.171  0.6364 -0.0966 -0.9820
 4998SOL    HW215965   2.339   3.798   7.036 -2.8168  0.3655  0.6243
 4999SOL     OW15966   3.671   2.086   1.348 -0.3372  0.0942 -0.1554
 4999SOL    HW115967   3.690   2.023   1.280  1.0435 -0.1821  0.4478
 4999SOL    HW215968   3.751   2.090   1.400 -2.0972 -1.6358  3.0095
 5000SOL     OW15969   3.504   0.954   2.178  0.3798 -0.2980  0.0920
 5000SOL    HW115970   3.458   0.957   2.262 -0.4437 -3.0563 -0.1768
 5000SOL    HW215971   3.441   0.989   2.115  0.8377  1.3479  0.4768
 5001SOL     OW15972   1.582   3.128   2.208 -0.4505  0.0626 -0.0210
 5001SOL    HW115973   1.677   3.130   2.222 -0.3140  1.0069 -0.9806
 5001SOL    HW215974   1.549   3.204   2.255 -0.4259  1.1146 -1.6382
 5002SOL     OW15975   6.852   5.170   7.228  0.1277 -0.3095 -0.4246
 5002SOL    HW115976   6.823   5.082   7.252  1.0557 -0.3224  0.7712
 5002SOL    HW215977   6.938   5.178   7.268  0.1729  1.0477 -0.7501
 5003SOL     OW15978   0.514   6.768   5.822  0.1700  0.1960  0.4539
 5003SOL    HW115979   0.571   6.724   5.759 -0.1307 -0.7130  0.7848
 5003SOL    HW215980   0.534   6.861   5.813  0.2670  0.0721 -0.8458
 5004SOL     OW15981   1.737   2.002   0.477 -0.7079  0.4615  0.0466
 5004SOL    HW115982   1.789   1.950   0.537 -1.1445  2.8139  2.6878
 5004SOL    HW215983   1.801   2.056   0.431 -0.5448  0.8746  0.7412
 5005SOL     OW15984   1.284   3.053   1.331  0.5524  0.0041 -0.7084
 5005SOL    HW115985   1.376   3.082   1.326  0.2746  0.7855 -1.8653
 5005SOL    HW215986   1.234   3.134   1.340  0.0267 -0.5072  1.6651
 5006SOL     OW15987   0.252   2.793   2.755  0.4864 -0.2242 -0.0021
 5006SOL    HW115988   0.328   2.740   2.779  1.0197 -0.0498 -1.2387
 5006SOL    HW215989   0.239   2.775   2.662  0.8641  2.0057 -0.5423
 5007SOL     OW15990   3.841   0.796   1.012  0.4750  0.1876 -0.2253
 5007SOL    HW115991   3.830   0.859   1.084  2.3937  0.9428 -0.5447
 5007SOL    HW215992   3.895   0.727   1.048 -0.4218 -0.5741 -0.3115
 5008SOL     OW15993   0.946   3.845   0.822  0.0982  0.3059  0.2415
 5008SOL    HW115994   0.984   3.881   0.742  0.5553 -1.2893 -0.2964
 5008SOL    HW215995   0.863   3.892   0.833 -0.4538 -0.1611 -1.7226
 5009SOL     OW15996   7.262   3.773   6.483  0.1736  0.6388 -0.4548
 5009SOL    HW115997   7.284   3.697   6.536  0.7274  1.2501  0.2036
 5009SOL    HW215998   7.299   3.754   6.397 -2.9454 -1.5561 -1.5149
 5010SOL     OW15999   5.203   3.611   7.238 -0.1138 -0.5818  0.0529
 5010SOL    HW116000   5.145   3.659   7.179 -1.1220 -1.9063 -0.0774
 5010SOL    HW216001   5.248   3.549   7.180  1.6172  0.5546  0.1162
 5011SOL     OW16002   5.128   0.446   2.396 -0.3441  0.0082 -0.2271
 5011SOL    HW116003   5.130   0.419   2.304 -2.1541 -2.5499  0.3730
 5011SOL    HW216004   5.104   0.539   2.394  0.1723  0.1313 -2.3215
 5012SOL     OW16005   5.127   3.401   0.648 -0.1724  0.2461  0.2499
 5012SOL    HW116006   5.203   3.459   0.637 -0.2490  0.4191  0.6324
 5012SOL    HW216007   5.052   3.461   0.648 -0.2095  0.2069  1.2875
 5013SOL     OW16008   1.547   1.126   7.083  0.2974  0.2131 -0.6276
 5013SOL    HW116009   1.576   1.205   7.128  0.5725  0.2415 -0.8502
 5013SOL    HW216010   1.599   1.056   7.121  0.3969  0.2100 -0.7701
 5014SOL     OW16011   6.388   0.288   6.011  0.6149 -0.2033 -0.3680
 5014SOL    HW116012   6.367   0.377   5.984  0.3877 -0.1820 -0.1400
 5014SOL    HW216013   6.334   0.275   6.090  2.6750  0.4218  1.2289
 5015SOL     OW16014   6.137   5.354   5.060  0.7419  0.4623  0.3085
 5015SOL    HW116015   6.056   5.404   5.057 -0.4116 -1.2318  1.1609
 5015SOL    HW216016   6.182   5.375   4.979 -1.0263  0.7057 -0.6605
 5016SOL     OW16017   6.953   1.105   7.102 -0.8727  0.0527 -0.3055
 5016SOL    HW116018   6.894   1.094   7.027 -1.2055 -0.4400  0.0164
 5016SOL    HW216019   6.898   1.144   7.170 -1.4401 -2.3333  0.7024
 5017SOL     OW16020   5.012   3.735   6.973  0.2176 -0.5631 -0.2895
 5017SOL    HW116021   5.021   3.757   6.880 -0.3971  0.1854 -0.1844
 5017SOL    HW216022   5.056   3.807   7.019  1.5423 -1.5199 -0.0122
 5018SOL     OW16023   2.639   4.275   0.915 -0.0238 -0.1178 -0.1510
 5018SOL    HW116024   2.673   4.362   0.896  0.0357 -0.1921 -0.3824
 5018SOL    HW216025   2.625   4.275   1.010  0.2917  0.0305 -0.1045
 5019SOL     OW16026   6.514   0.249   1.877  0.1429 -0.5540 -0.4902
 5019SOL    HW116027   6.542   0.169   1.921 -0.4180 -1.4631 -1.7266
 5019SOL    HW216028   6.580   0.314   1.901  0.4713 -1.3169  0.7334
 5020SOL     OW16029   4.884   5.414   5.439  0.2202 -1.4018  0.0890
 5020SOL    HW116030   4.816   5.391   5.377  0.7608 -0.9125 -0.7034
 5020SOL    HW216031   4.867   5.506   5.460 -0.8615 -1.9618  1.8547
 5021SOL     OW16032   3.091   1.469   1.718  0.6336 -0.1767 -0.0040
 5021SOL    HW116033   3.061   1.551   1.680 -2.8129 -0.5494  1.5611
 5021SOL    HW216034   3.125   1.419   1.644 -0.1711  1.4411 -1.5254
 5022SOL     OW16035   5.433   4.341   1.268 -0.5046 -0.0325 -0.6627
 5022SOL    HW116036   5.432   4.247   1.284 -0.6404 -0.3126 -2.2314
 5022SOL    HW216037   5.347   4.361   1.231 -0.3210  0.6421 -0.7490
 5023SOL     OW16038   1.098   2.508   0.203  0.1403 -0.0947 -0.2577
 5023SOL    HW116039   1.118   2.504   0.110 -1.5902 -0.9883 -0.6364
 5023SOL    HW216040   1.123   2.597   0.230 -0.6608  0.6632 -1.9050
 5024SOL     OW16041   2.876   2.788   0.240 -0.4297  0.3045  0.4893
 5024SOL    HW116042   2.794   2.820   0.203  0.2937 -0.3805 -1.9222
 5024SOL    HW216043   2.875   2.694   0.220  1.5908  0.5486 -1.0475
 5025SOL     OW16044   6.847   6.383   6.856  0.3341  0.6192  0.5738
 5025SOL    HW116045   6.942   6.378   6.855  0.3148  0.0738 -0.5124
 5025SOL    HW216046   6.819   6.296   6.887  0.1894  0.3824 -0.1950
 5026SOL     OW16047   1.196   1.768   6.739  0.6065  0.0808  0.3525
 5026SOL    HW116048   1.135   1.725   6.678 -0.3340  0.3393  1.0941
 5026SOL    HW216049   1.273   1.787   6.685 -0.4383  0.8718 -0.9403
 5027SOL     OW16050   5.579   4.265   1.714 -0.1533  0.1546 -0.2653
 5027SOL    HW116051   5.632   4.345   1.714 -2.0627  1.5055 -0.5185
 5027SOL    HW216052   5.489   4.297   1.724 -0.9399 -2.0172  0.0162
 5028SOL     OW16053   5.726   7.016   0.695 -0.2614 -0.1655  0.4765
 5028SOL    HW116054   5.752   7.034   0.604  1.7572 -2.0517  0.5858
 5028SOL    HW216055   5.662   6.945   0.688 -2.8118  1.9612  0.4396
 5029SOL     OW16056   6.241   4.077   0.633  1.2119 -0.7213 -0.2468
 5029SOL    HW116057   6.188   4.058   0.555  1.0773 -2.1405  0.1631
 5029SOL    HW216058   6.197   4.030   0.704  1.2473  0.6739  0.7362
 5030SOL     OW16059   4.652   3.483   4.341 -0.0152  0.1044 -0.6953
 5030SOL    HW116060   4.667   3.450   4.430  1.5760 -1.0141 -1.3404
 5030SOL    HW216061   4.609   3.411   4.296  0.5443  0.0938 -1.2246
 5031SOL     OW16062   6.866   5.729   2.083 -0.3527 -0.2569  0.2068
 5031SOL    HW116063   6.889   5.642   2.050  1.1762 -1.1665  3.2223
 5031SOL    HW216064   6.771   5.729   2.088 -0.3807 -1.8928  0.3491
 5032SOL     OW16065   4.561   1.980   3.271  0.0069 -0.0807 -0.1235
 5032SOL    HW116066   4.616   2.056   3.254  1.4740 -1.0801 -0.0695
 5032SOL    HW216067   4.615   1.925   3.328 -0.6015 -1.6133 -0.9758
 5033SOL     OW16068   2.391   5.710   4.378 -0.0999  0.1553 -0.5139
 5033SOL    HW116069   2.347   5.780   4.330 -2.7190 -0.2651  1.0925
 5033SOL    HW216070   2.384   5.634   4.320  0.9013  0.6852 -1.3704
 5034SOL     OW16071   6.593   5.692   3.569 -0.0418  0.3530  0.2066
 5034SOL    HW116072   6.673   5.728   3.607 -0.0391 -0.7642  1.3068
 5034SOL    HW216073   6.563   5.627   3.632 -1.6408  0.5049 -0.3531
 5035SOL     OW16074   6.047   1.001   0.014  0.7458 -0.0881 -0.1246
 5035SOL    HW116075   6.020   0.987  -0.077  1.0441 -0.3234 -0.1756
 5035SOL    HW216076   6.065   0.913   0.047 -1.1963 -0.2251  0.7342
 5036SOL     OW16077   6.856   7.119   2.197  0.0123  0.4061  0.3936
 5036SOL    HW116078   6.810   7.171   2.131  0.6038  0.3115 -0.0969
 5036SOL    HW216079   6.847   7.029   2.166 -0.1759  0.3103  0.7293
 5037SOL     OW16080   1.676   5.424   6.829 -0.2001 -0.7407 -0.0073
 5037SOL    HW116081   1.755   5.473   6.851 -0.8632  0.4918 -0.3381
 5037SOL    HW216082   1.651   5.455   6.742  0.1745 -2.7220 -0.8984
 5038SOL     OW16083   2.101   3.213   2.226 -0.2612  0.2403  0.2401
 5038SOL    HW116084   2.047   3.218   2.306 -1.9182 -1.9676 -0.6298
 5038SOL    HW216085   2.040   3.234   2.155  1.1497  2.0105 -0.5190
 5039SOL     OW16086   1.806   6.130   5.567  0.3746  0.5571 -0.4760
 5039SOL    HW116087   1.885   6.183   5.568 -0.2434  1.5365 -1.2152
 5039SOL    HW216088   1.747   6.176   5.506 -1.2916  0.6711  1.1166
 5040SOL     OW16089   1.400   3.593   1.418 -0.1064  0.0166  0.1624
 5040SOL    HW116090   1.344   3.654   1.466  1.3686  1.5016  0.0990
 5040SOL    HW216091   1.378   3.507   1.453 -0.7562  0.8113  1.7907
 5041SOL     OW16092   5.524   6.855   1.278 -0.3325  0.4914 -0.0609
 5041SOL    HW116093   5.485   6.939   1.255  0.2444  0.2461 -2.0941
 5041SOL    HW216094   5.571   6.872   1.361  0.9683  2.5721 -1.1428
 5042SOL     OW16095   1.755   3.182   4.416 -0.3403 -0.5175  0.3829
 5042SOL    HW116096   1.802   3.205   4.336 -0.7547 -1.3152 -0.0989
 5042SOL    HW216097   1.812   3.119   4.460  0.4864  0.8653  1.3766
 5043SOL     OW16098   4.335   5.058   0.219  0.3903  0.3591 -0.2821
 5043SOL    HW116099   4.240   5.060   0.235  0.2552  1.1385 -1.1245
 5043SOL    HW216100   4.354   4.966   0.203  0.1285 -0.1206  1.8446
 5044SOL     OW16101   0.137   2.500   7.195 -0.1306 -0.1281 -0.0591
 5044SOL    HW116102   0.102   2.503   7.284 -0.3257 -0.9599 -0.0976
 5044SOL    HW216103   0.160   2.408   7.181  1.5778  0.2920 -0.2340
 5045SOL     OW16104   1.138   3.017   4.146  0.9108  0.1196  0.3262
 5045SOL    HW116105   1.196   2.942   4.139  3.2415  1.8764 -0.5910
 5045SOL    HW216106   1.169   3.064   4.223 -1.2924 -0.3964  1.6053
 5046SOL     OW16107   5.342   2.805   7.301  0.3484 -0.7021 -0.2837
 5046SOL    HW116108   5.310   2.715   7.303 -0.5766 -0.4094  3.0960
 5046SOL    HW216109   5.401   2.812   7.376 -0.6590  1.8021  0.4006
 5047SOL     OW16110   2.559   5.664   4.042  0.2388 -0.3074  0.0075
 5047SOL    HW116111   2.509   5.604   4.097  2.2799 -0.8038  1.4345
 5047SOL    HW216112   2.495   5.698   3.980 -1.1992 -3.4520 -0.4641
 5048SOL     OW16113   1.722   7.335   4.544 -0.2001 -0.5768  0.2864
 5048SOL    HW116114   1.650   7.348   4.483  0.2645 -0.2121 -0.1998
 5048SOL    HW216115   1.698   7.386   4.621 -0.0048  0.3737 -0.2651
 5049SOL     OW16116   1.907   5.297   5.637 -0.1187  0.1743  0.1462
 5049SOL    HW116117   1.888   5.220   5.582 -0.0413 -0.1840  0.6201
 5049SOL    HW216118   1.931   5.365   5.574  0.4430 -0.3707 -0.2363
 5050SOL     OW16119   6.280   4.115   2.080 -0.6103 -0.3315  0.3222
 5050SOL    HW116120   6.286   4.024   2.050 -0.4526 -0.8334  1.7718
 5050SOL    HW216121   6.205   4.115   2.140  0.8651 -0.1068  2.2414
 5051SOL     OW16122   5.423   2.500   5.911 -0.3630 -0.2826  0.4442
 5051SOL    HW116123   5.334   2.470   5.892 -0.9362  1.8609 -0.5728
 5051SOL    HW216124   5.477   2.422   5.896 -1.8922 -1.2493 -0.4705
 5052SOL     OW16125   4.358   3.546   4.215  0.3429  0.2392  0.0222
 5052SOL    HW116126   4.269   3.514   4.199 -0.9136  3.3808 -0.0857
 5052SOL    HW216127   4.363   3.555   4.310  1.3618 -1.8217  0.2158
 5053SOL     OW16128   2.704   2.907   6.920 -0.1741  0.0778 -0.5769
 5053SOL    HW116129   2.732   2.959   6.844 -0.7102 -0.4186 -1.1221
 5053SOL    HW216130   2.751   2.946   6.994  1.0400  0.0131 -1.2900
 5054SOL     OW16131   1.625   3.819   4.636 -0.0657 -0.0363 -0.1132
 5054SOL    HW116132   1.551   3.850   4.582  0.1688 -1.1106 -1.0816
 5054SOL    HW216133   1.584   3.787   4.716 -0.6346 -0.2767 -0.4905
 5055SOL     OW16134   4.361   2.503   4.896 -0.6090  0.0558  1.0200
 5055SOL    HW116135   4.330   2.420   4.860 -0.3687  0.5736 -0.4813
 5055SOL    HW216136   4.285   2.541   4.940 -2.2047  1.1773 -2.3676
 5056SOL     OW16137   0.271   5.641   5.974 -0.4121  0.6039  0.3377
 5056SOL    HW116138   0.311   5.602   6.052 -1.1590  0.1665  0.5117
 5056SOL    HW216139   0.229   5.567   5.929  2.5944  0.2052 -2.1673
 5057SOL     OW16140   3.765   0.393   3.420 -0.3254 -0.7267 -0.6085
 5057SOL    HW116141   3.730   0.314   3.379  0.7639 -0.9871 -1.0806
 5057SOL    HW216142   3.768   0.458   3.350  0.9717 -0.9913 -0.8276
 5058SOL     OW16143   5.194   2.119   5.481  0.1369 -0.5608  0.1847
 5058SOL    HW116144   5.172   2.208   5.509 -0.2200 -0.9346  1.1278
 5058SOL    HW216145   5.289   2.118   5.477  0.1436 -0.1324  0.1349
 5059SOL     OW16146   4.119   1.439   3.945  0.3494  0.0311 -0.0308
 5059SOL    HW116147   4.107   1.348   3.916 -2.7043 -0.0117  1.0050
 5059SOL    HW216148   4.128   1.433   4.040  4.1467  0.6192 -0.2336
 5060SOL     OW16149   4.217   1.353   0.237 -0.2120  0.1911  0.3960
 5060SOL    HW116150   4.224   1.258   0.254  0.3542  0.1813  0.1506
 5060SOL    HW216151   4.274   1.392   0.304  1.4943  0.1969 -0.9732
 5061SOL     OW16152   4.810   3.292   5.535 -0.0624  0.4436 -0.0397
 5061SOL    HW116153   4.817   3.202   5.504  1.0546  1.2564 -2.4024
 5061SOL    HW216154   4.891   3.307   5.583  1.1363  0.9716 -2.0971
 5062SOL     OW16155   0.860   1.735   3.861 -0.4544 -0.1565  0.3145
 5062SOL    HW116156   0.775   1.766   3.828  0.2804 -0.9230 -2.5491
 5062SOL    HW216157   0.919   1.741   3.786  1.9937  0.0325  2.1359
 5063SOL     OW16158   2.669   7.298   7.163 -0.9433 -0.0626 -0.1181
 5063SOL    HW116159   2.727   7.281   7.237  0.0065 -0.6076 -0.9520
 5063SOL    HW216160   2.671   7.393   7.152 -0.7128 -0.0221  0.2522
 5064SOL     OW16161   0.962   4.708   7.235  0.0297  0.2536  0.0868
 5064SOL    HW116162   0.908   4.664   7.169 -0.9027 -0.2705  1.1703
 5064SOL    HW216163   0.910   4.706   7.315  0.7601  1.6665  0.6492
 5065SOL     OW16164   3.544   1.046   0.183 -0.3371  0.2358 -0.1645
 5065SOL    HW116165   3.560   1.103   0.108  0.7658 -0.1563 -0.2475
 5065SOL    HW216166   3.587   1.090   0.256  0.3030 -0.3520 -0.1788
 5066SOL     OW16167   4.451   6.664   6.065 -0.5731  0.0910  0.4023
 5066SOL    HW116168   4.412   6.664   5.978  1.9897 -1.3415 -0.8529
 5066SOL    HW216169   4.514   6.736   6.064  1.4910 -1.6253 -0.0123
 5067SOL     OW16170   2.393   2.411   3.515 -0.1886 -0.2266 -0.3352
 5067SOL    HW116171   2.420   2.495   3.550 -0.2076 -0.4965  0.3490
 5067SOL    HW216172   2.412   2.416   3.421 -0.2420  0.5507 -0.3089
 5068SOL     OW16173   3.236   7.137   5.332  0.1143 -0.3048 -0.0342
 5068SOL    HW116174   3.193   7.199   5.274  0.1086  1.2807  1.5732
 5068SOL    HW216175   3.182   7.137   5.412  2.5986  1.2811  1.8053
 5069SOL     OW16176   7.190   0.410   2.241 -0.5106 -0.2240  0.2510
 5069SOL    HW116177   7.223   0.481   2.186 -0.5735 -1.3001 -1.2413
 5069SOL    HW216178   7.117   0.449   2.290 -0.1689  0.8773 -0.0966
 5070SOL     OW16179   7.332   1.833   3.298 -0.2366 -0.0412 -0.1639
 5070SOL    HW116180   7.267   1.897   3.268  2.6040  2.3852 -1.6640
 5070SOL    HW216181   7.324   1.760   3.237 -0.9939  0.5877 -0.8341
 5071SOL     OW16182   0.280   5.461   3.378 -0.6271 -0.7026 -0.8194
 5071SOL    HW116183   0.224   5.538   3.370 -1.6422 -1.1940  1.1146
 5071SOL    HW216184   0.363   5.495   3.413 -0.4983 -0.2965 -1.4933
 5072SOL     OW16185   4.894   2.037   7.263 -0.3951  0.4182  0.1925
 5072SOL    HW116186   4.841   2.100   7.312 -2.4670 -0.1232 -1.2026
 5072SOL    HW216187   4.853   1.952   7.281  0.0332 -0.0373 -0.8585
 5073SOL     OW16188   1.543   6.589   3.019 -0.3572 -0.1542  0.9633
 5073SOL    HW116189   1.487   6.512   3.034 -0.6553 -0.1789 -0.2062
 5073SOL    HW216190   1.572   6.614   3.107 -0.1191 -1.7018  1.3585
 5074SOL     OW16191   4.965   3.513   6.800 -0.3953 -0.0498  0.4000
 5074SOL    HW116192   5.005   3.441   6.848 -0.6012 -0.5388 -0.1606
 5074SOL    HW216193   4.959   3.584   6.864 -1.4689 -0.9633  1.3504
 5075SOL     OW16194   2.646   0.174   7.170 -0.2288 -0.1674  0.3630
 5075SOL    HW116195   2.588   0.233   7.123 -0.3500 -0.6184 -0.0549
 5075SOL    HW216196   2.725   0.226   7.187  0.5944 -0.5345 -1.9836
 5076SOL     OW16197   1.882   1.550   2.387 -0.0955  0.1490 -0.3019
 5076SOL    HW116198   1.879   1.506   2.302 -1.3995 -1.4806  0.5211
 5076SOL    HW216199   1.876   1.479   2.450 -0.4045  1.4082  1.1376
 5077SOL     OW16200   6.624   5.217   2.546  0.6625  0.3786  0.1733
 5077SOL    HW116201   6.533   5.204   2.519  1.3222  0.2406 -2.1772
 5077SOL    HW216202   6.643   5.309   2.527  1.3850  0.0750 -0.6730
 5078SOL     OW16203   0.677   6.313   1.534  0.0497  0.7694 -0.4389
 5078SOL    HW116204   0.612   6.262   1.582 -0.1471  2.0735  0.7666
 5078SOL    HW216205   0.738   6.248   1.499 -0.3461 -0.3206  0.7985
 5079SOL     OW16206   4.876   6.318   2.049  0.1179  0.2578 -0.1706
 5079SOL    HW116207   4.844   6.240   2.095  1.3151 -0.5656 -0.6679
 5079SOL    HW216208   4.971   6.310   2.053  0.2506  1.5355 -0.5329
 5080SOL     OW16209   4.279   5.240   2.087  0.1835 -0.2484 -0.5061
 5080SOL    HW116210   4.205   5.245   2.026  0.5529  1.1816 -0.8682
 5080SOL    HW216211   4.243   5.193   2.163 -1.3364  1.0082 -0.3867
 5081SOL     OW16212   7.361   7.340   2.639  0.2436 -0.0514  0.3198
 5081SOL    HW116213   7.452   7.367   2.627 -0.5287  2.5863 -0.3773
 5081SOL    HW216214   7.330   7.321   2.551 -0.5737  1.7432  0.1820
 5082SOL     OW16215   4.029   4.597   0.476  0.1706  0.4494  0.4969
 5082SOL    HW116216   4.013   4.628   0.565  2.7050  1.5298  0.6570
 5082SOL    HW216217   3.962   4.639   0.423 -1.1395  0.0842  1.8202
 5083SOL     OW16218   5.911   2.074   1.039 -0.2718  0.2847  0.2184
 5083SOL    HW116219   5.853   2.017   0.988  1.5294 -2.4254  0.9730
 5083SOL    HW216220   5.872   2.076   1.126 -0.7352  0.8879  0.0078
 5084SOL     OW16221   1.310   4.975   6.711 -0.3172 -0.1451 -0.2682
 5084SOL    HW116222   1.257   5.042   6.756  1.4150  0.1218  1.4914
 5084SOL    HW216223   1.245   4.911   6.681 -1.6532 -0.2790  2.5547
 5085SOL     OW16224   2.407   0.032   4.154  0.0367 -0.5341  0.5142
 5085SOL    HW116225   2.432   0.060   4.242 -1.0339 -0.2029  0.7283
 5085SOL    HW216226   2.441   0.100   4.096  0.9605 -0.8805  0.6466
 5086SOL     OW16227   6.198   5.718   4.260 -0.1223 -0.7518  0.4906
 5086SOL    HW116228   6.185   5.804   4.300  0.4484 -0.1965 -0.4734
 5086SOL    HW216229   6.273   5.730   4.202 -0.8286 -1.5578 -0.6192
 5087SOL     OW16230   3.915   0.370   2.109 -0.5721 -0.6838 -0.0538
 5087SOL    HW116231   3.824   0.398   2.094 -0.3863 -0.0498 -0.0172
 5087SOL    HW216232   3.968   0.432   2.059 -0.1119 -0.4950  0.6571
 5088SOL     OW16233   5.441   4.972   3.425 -0.2655 -0.6355  0.1586
 5088SOL    HW116234   5.507   4.931   3.370  1.0304  1.1867  0.2713
 5088SOL    HW216235   5.377   5.008   3.364  0.6917  0.5818 -0.1778
 5089SOL     OW16236   6.048   1.926   5.653  0.8460 -0.1121 -0.0734
 5089SOL    HW116237   6.001   1.858   5.702 -1.0134  0.5208 -0.8938
 5089SOL    HW216238   6.119   1.953   5.711 -1.2296  0.5653  2.2942
 5090SOL     OW16239   2.800   5.851   6.689  0.1329  0.1750 -0.1640
 5090SOL    HW116240   2.819   5.757   6.683  0.8369  0.2390  0.7908
 5090SOL    HW216241   2.772   5.863   6.780 -0.1868  0.8612 -0.3479
 5091SOL     OW16242   5.644   2.116   4.487  0.7830  0.1846 -0.1474
 5091SOL    HW116243   5.685   2.035   4.518  1.7825  0.8726  0.3855
 5091SOL    HW216244   5.717   2.169   4.457  0.1768  1.0576 -0.0931
 5092SOL     OW16245   4.007   4.981   2.840 -0.0957 -0.7138 -0.4713
 5092SOL    HW116246   3.991   5.023   2.755 -2.3313 -1.5029 -0.5037
 5092SOL    HW216247   4.008   4.888   2.821 -1.4739 -0.9408  0.4531
 5093SOL     OW16248   2.844   1.567   0.045  0.0801 -0.2177 -0.2925
 5093SOL    HW116249   2.821   1.481   0.011  0.5622 -0.4737  0.0274
 5093SOL    HW216250   2.907   1.550   0.115 -0.0029  0.3781 -0.0621
 5094SOL     OW16251   5.862   7.345   2.956  0.0331  0.1829 -0.3947
 5094SOL    HW116252   5.835   7.388   3.037 -1.0586  0.1592 -0.7408
 5094SOL    HW216253   5.832   7.254   2.965  0.1853  0.0997 -0.6974
 5095SOL     OW16254   6.679   7.101   1.979 -0.2232  0.0992  0.0087
 5095SOL    HW116255   6.640   7.055   2.053 -3.4482 -1.7447 -2.5531
 5095SOL    HW216256   6.698   7.033   1.914  0.6841  1.7841 -1.6198
 5096SOL     OW16257   0.178   4.928   4.974  0.1294  0.2190  0.0591
 5096SOL    HW116258   0.095   4.945   5.017 -0.5657 -1.7748 -0.4079
 5096SOL    HW216259   0.161   4.854   4.917  2.4593 -0.9195  0.7113
 5097SOL     OW16260   7.377   4.741   7.143  0.1548  0.2450 -0.0790
 5097SOL    HW116261   7.379   4.832   7.112  0.1468 -0.0382 -0.9125
 5097SOL    HW216262   7.284   4.720   7.152  0.1381  0.0852 -0.5912
 5098SOL     OW16263   1.650   5.371   0.068 -0.3827 -0.7158 -0.2250
 5098SOL    HW116264   1.642   5.352   0.162  1.3670 -1.0809 -0.1049
 5098SOL    HW216265   1.560   5.376   0.036 -1.0020 -1.4648  1.2994
 5099SOL     OW16266   2.395   2.538   6.908  0.4553 -0.4391  0.5041
 5099SOL    HW116267   2.402   2.488   6.989 -1.3721  1.1196  1.7210
 5099SOL    HW216268   2.405   2.629   6.935  1.5877  0.0232 -1.3277
 5100SOL     OW16269   4.132   6.614   6.391  0.1659 -0.1031 -0.0131
 5100SOL    HW116270   4.091   6.543   6.442 -0.0248 -0.2211 -0.3309
 5100SOL    HW216271   4.198   6.649   6.450 -0.3328  0.0332  0.4784
 5101SOL     OW16272   4.553   1.069   4.266  0.0472 -0.0809 -0.4983
 5101SOL    HW116273   4.470   1.053   4.222  0.6038 -0.4104 -1.4448
 5101SOL    HW216274   4.537   1.043   4.357 -1.5418  1.9331 -0.1241
 5102SOL     OW16275   6.507   0.150   5.519  0.3652  0.3763  0.3562
 5102SOL    HW116276   6.559   0.107   5.587  0.7357 -2.0445 -1.3145
 5102SOL    HW216277   6.501   0.241   5.547  2.3412 -0.0534  2.4857
 5103SOL     OW16278   1.859   7.075   1.022 -0.1332 -0.2603  0.7772
 5103SOL    HW116279   1.947   7.111   1.007 -0.1369  0.0182  1.3782
 5103SOL    HW216280   1.844   7.016   0.949 -0.0444  0.8061 -0.1156
 5104SOL     OW16281   2.352   0.788   4.989 -0.2971  0.0931  0.7230
 5104SOL    HW116282   2.369   0.743   4.906 -0.9121 -0.7954  1.0601
 5104SOL    HW216283   2.362   0.881   4.968  1.1706 -0.1809  0.0399
 5105SOL     OW16284   6.592   5.384   2.172  0.2576 -0.4569 -0.3843
 5105SOL    HW116285   6.662   5.377   2.237 -0.4403 -1.0172  0.3314
 5105SOL    HW216286   6.519   5.425   2.220 -0.2831 -0.9294 -0.7881
 5106SOL     OW16287   3.308   4.709   3.681 -0.4141  0.0761  0.4665
 5106SOL    HW116288   3.241   4.771   3.709 -0.8676  0.4294 -1.2759
 5106SOL    HW216289   3.384   4.730   3.735 -0.7407  1.7866  0.3313
 5107SOL     OW16290   3.529   5.694   3.717 -0.4441  0.1387  0.2176
 5107SOL    HW116291   3.547   5.745   3.638 -2.1204 -0.8244 -0.8625
 5107SOL    HW216292   3.614   5.662   3.746  0.1658  0.0790 -1.5236
 5108SOL     OW16293   1.932   3.488   4.131 -0.1076  0.0777  0.4538
 5108SOL    HW116294   1.837   3.493   4.142 -0.0460  1.1487  0.5960
 5108SOL    HW216295   1.968   3.522   4.213  0.3858  0.6563  0.0145
 5109SOL     OW16296   0.605   6.233   0.552  0.2654  0.0196  0.0573
 5109SOL    HW116297   0.578   6.303   0.492  0.2776 -0.8160 -0.9557
 5109SOL    HW216298   0.563   6.154   0.517 -0.1863 -0.4141  1.4755
 5110SOL     OW16299   0.290   2.022   6.673  0.8388 -0.3173  0.0770
 5110SOL    HW116300   0.380   2.020   6.706  1.2018  0.4879 -0.8266
 5110SOL    HW216301   0.246   2.087   6.728  0.6350 -1.1494  0.9175
 5111SOL     OW16302   0.469   2.818   1.905 -0.0307 -0.0933  0.0447
 5111SOL    HW116303   0.431   2.731   1.919  2.0876 -1.1238 -0.2941
 5111SOL    HW216304   0.544   2.821   1.963  0.9120  0.8598 -1.1734
 5112SOL     OW16305   6.680   5.042   3.227 -0.6832 -0.1530 -0.1400
 5112SOL    HW116306   6.682   5.122   3.279 -1.2793 -0.6992  0.7359
 5112SOL    HW216307   6.634   5.067   3.147  0.7888  0.8564 -0.7242
 5113SOL     OW16308   6.959   1.545   6.277  0.5313 -0.4384 -0.1479
 5113SOL    HW116309   6.991   1.482   6.342 -1.6407 -0.8450  0.5970
 5113SOL    HW216310   7.029   1.548   6.211  1.4486 -2.3458  0.6447
 5114SOL     OW16311   5.898   0.570   2.172  0.5124  0.5170  0.4660
 5114SOL    HW116312   5.918   0.582   2.265  1.7980 -0.6135  0.3687
 5114SOL    HW216313   5.865   0.480   2.165 -0.8757  1.0339  0.0016
 5115SOL     OW16314   2.689   3.255   4.545  0.1630  0.7210  0.5597
 5115SOL    HW116315   2.749   3.181   4.553  2.5774  2.6181  1.3014
 5115SOL    HW216316   2.701   3.287   4.456 -1.4120 -0.1212 -0.0025
 5116SOL     OW16317   2.946   0.781   1.955  0.1811  0.2440  0.2013
 5116SOL    HW116318   2.964   0.835   2.033  0.3476 -1.5904  1.5066
 5116SOL    HW216319   2.851   0.770   1.955  0.1248  0.7155 -0.1968
 5117SOL     OW16320   4.621   1.266   3.798  0.0375 -0.0138  0.0046
 5117SOL    HW116321   4.530   1.279   3.823  0.7927  0.1071  3.0713
 5117SOL    HW216322   4.633   1.171   3.797  0.2976 -0.0229  1.5596
 5118SOL     OW16323   0.607   7.102   2.264 -0.1335 -0.2692 -0.6417
 5118SOL    HW116324   0.645   7.027   2.309  2.3101  0.3209 -1.5388
 5118SOL    HW216325   0.581   7.068   2.178 -1.4042 -0.6017 -0.1443
 5119SOL     OW16326   5.422   6.220   3.990  0.0392  0.1312  0.4245
 5119SOL    HW116327   5.346   6.267   4.025  0.2697  0.7477  0.1128
 5119SOL    HW216328   5.408   6.129   4.016 -2.1179 -0.2807 -1.7078
 5120SOL     OW16329   6.127   1.000   0.967 -0.0368 -0.2635 -0.9829
 5120SOL    HW116330   6.214   0.994   1.007 -0.4291  0.9279  0.1153
 5120SOL    HW216331   6.095   0.910   0.968 -0.1582 -0.2810  1.7840
 5121SOL     OW16332   6.647   0.874   2.794 -0.0251 -0.6612  0.6626
 5121SOL    HW116333   6.642   0.964   2.760 -0.7372 -1.2877 -1.0136
 5121SOL    HW216334   6.704   0.880   2.870 -1.1072  1.4415  1.3726
 5122SOL     OW16335   5.061   2.506   2.159  0.1613  0.5086  0.4363
 5122SOL    HW116336   5.043   2.504   2.065  1.1640  3.3966  0.0796
 5122SOL    HW216337   5.153   2.477   2.165 -0.2711 -0.8772  0.7125
 5123SOL     OW16338   0.768   7.298   4.135 -0.2488  0.1634  0.1229
 5123SOL    HW116339   0.690   7.246   4.115 -0.0631 -0.6319  1.3646
 5123SOL    HW216340   0.789   7.342   4.053 -2.1016  0.5330 -0.1914
 5124SOL     OW16341   4.862   1.749   7.294 -0.2992 -0.1917  0.2770
 5124SOL    HW116342   4.846   1.684   7.363 -2.6122  1.8417  1.8314
 5124SOL    HW216343   4.873   1.697   7.215  0.7993 -2.5631  1.8769
 5125SOL     OW16344   1.430   4.650   0.063 -0.8177  0.1180  0.3880
 5125SOL    HW116345   1.477   4.570   0.038  0.4636  0.6312  1.0873
 5125SOL    HW216346   1.373   4.623   0.135 -0.2171 -0.1229  0.7779
 5126SOL     OW16347   3.790   3.780   1.495  0.6272 -0.2799  0.2138
 5126SOL    HW116348   3.699   3.787   1.465  1.0322 -0.7653 -1.1780
 5126SOL    HW216349   3.782   3.768   1.590 -0.6832  1.4952  0.4002
 5127SOL     OW16350   6.742   5.408   6.464 -0.4748  0.0318 -0.1903
 5127SOL    HW116351   6.661   5.409   6.515  0.8034  0.7385  1.9562
 5127SOL    HW216352   6.737   5.486   6.409 -0.7765  0.7189  0.7774
 5128SOL     OW16353   6.887   3.858   6.594 -0.1330 -0.4471  0.3061
 5128SOL    HW116354   6.849   3.779   6.631  2.3234 -2.0651 -0.3648
 5128SOL    HW216355   6.955   3.826   6.533  0.7178  2.1636 -0.2690
 5129SOL     OW16356   1.081   1.863   4.554  0.1854 -0.1847  0.1389
 5129SOL    HW116357   1.115   1.950   4.574  0.9410 -0.7711  1.5455
 5129SOL    HW216358   0.988   1.869   4.575  0.3638  0.1060  0.8731
 5130SOL     OW16359   6.171   5.854   5.409 -0.1782 -0.2107  0.0375
 5130SOL    HW116360   6.230   5.930   5.407  0.8597 -0.9631  0.9445
 5130SOL    HW216361   6.108   5.871   5.339 -1.1453  2.4084  1.4167
 5131SOL     OW16362   4.395   1.177   2.754 -0.0669 -0.1544  0.2140
 5131SOL    HW116363   4.445   1.250   2.791  0.7681 -1.1591  1.1527
 5131SOL    HW216364   4.462   1.118   2.718 -0.6334 -0.9633  0.4411
 5132SOL     OW16365   4.604   1.257   5.593  0.2284 -0.0104 -0.3043
 5132SOL    HW116366   4.646   1.186   5.545  0.4638  0.3371 -0.6208
 5132SOL    HW216367   4.642   1.252   5.681  0.0604 -0.4264 -0.2513
 5133SOL     OW16368   4.183   2.092   3.602 -0.4197 -0.1077 -0.2006
 5133SOL    HW116369   4.193   2.121   3.511 -0.7986 -0.7921 -0.4688
 5133SOL    HW216370   4.247   2.143   3.651  0.2910 -0.2514 -0.9608
 5134SOL     OW16371   3.367   5.755   3.918 -0.5064 -0.0201  0.1652
 5134SOL    HW116372   3.427   5.724   3.850 -0.6768  0.9841 -0.4689
 5134SOL    HW216373   3.410   5.732   4.000  0.5588  0.3062 -0.2807
 5135SOL     OW16374   6.141   3.559   6.545 -0.7109  0.0085 -0.0955
 5135SOL    HW116375   6.212   3.495   6.535  0.9338  1.9360 -1.4897
 5135SOL    HW216376   6.170   3.616   6.616 -1.5239  0.0268  0.2265
 5136SOL     OW16377   4.864   2.145   4.626  0.4345  0.4004  0.2378
 5136SOL    HW116378   4.878   2.121   4.534 -0.2764 -1.1569  0.5062
 5136SOL    HW216379   4.770   2.139   4.639  0.6803 -1.4645  1.5632
 5137SOL     OW16380   0.331   4.235   5.538 -0.3675  0.5848  0.6469
 5137SOL    HW116381   0.306   4.143   5.527 -0.1545  0.1985  2.9623
 5137SOL    HW216382   0.420   4.240   5.501 -0.7687  0.1251 -0.4173
 5138SOL     OW16383   6.097   1.060   5.879  0.0968  0.2099  0.0777
 5138SOL    HW116384   6.089   0.974   5.919  0.4085 -0.4743 -1.2696
 5138SOL    HW216385   6.095   1.122   5.952 -0.6868 -0.9001  1.0244
 5139SOL     OW16386   2.979   6.731   2.301 -0.0426 -0.2693  0.0708
 5139SOL    HW116387   2.964   6.694   2.388  0.6772  0.8666  0.7090
 5139SOL    HW216388   2.925   6.810   2.299 -0.3198 -0.4693 -0.6522
 5140SOL     OW16389   4.348   2.867   5.869  0.7661  0.0241 -0.2188
 5140SOL    HW116390   4.255   2.888   5.862  0.7272 -0.5832 -2.0405
 5140SOL    HW216391   4.351   2.795   5.932 -0.0820 -0.3952 -0.6370
 5141SOL     OW16392   3.536   7.360   0.850  0.5223  0.4964 -0.3261
 5141SOL    HW116393   3.459   7.312   0.821 -0.1550  0.4615  1.3987
 5141SOL    HW216394   3.504   7.448   0.870  0.8948  0.4674  0.4568
 5142SOL     OW16395   0.356   0.809   6.036  0.0437  0.3185  0.2796
 5142SOL    HW116396   0.353   0.851   6.122  0.1377  2.2845 -0.6109
 5142SOL    HW216397   0.270   0.826   5.998 -0.2682 -1.2056  0.2569
 5143SOL     OW16398   4.756   5.291   3.754 -0.3250 -0.4929  0.6035
 5143SOL    HW116399   4.690   5.334   3.700 -0.2817  0.5121  1.3120
 5143SOL    HW216400   4.803   5.233   3.694 -1.0494 -0.2966 -0.1668
 5144SOL     OW16401   4.297   3.675   7.012  0.2616 -0.2517  0.2244
 5144SOL    HW116402   4.299   3.580   7.013  1.4190 -0.2716 -0.9847
 5144SOL    HW216403   4.293   3.700   7.104  0.5026 -1.4691  0.5793
 5145SOL     OW16404   0.985   2.177   3.813 -0.1965  0.0264 -0.0492
 5145SOL    HW116405   1.030   2.254   3.848  0.0457  0.7206 -1.8020
 5145SOL    HW216406   1.043   2.103   3.835 -0.1295  0.4068  1.1020
 5146SOL     OW16407   5.696   5.774   4.633 -0.0189 -0.4131 -0.6568
 5146SOL    HW116408   5.606   5.739   4.634  0.0621 -0.6270  0.6902
 5146SOL    HW216409   5.684   5.869   4.627 -0.3145 -0.4705 -1.0689
 5147SOL     OW16410   2.013   1.943   4.617  0.3300  0.0163 -0.2905
 5147SOL    HW116411   2.105   1.938   4.642 -0.1511 -1.4253  1.4225
 5147SOL    HW216412   1.985   1.852   4.607 -1.1028  0.3862  0.0985
 5148SOL     OW16413   1.606   3.452   0.663 -0.6286  0.2234  0.0572
 5148SOL    HW116414   1.553   3.530   0.681 -1.7630  0.3617 -3.3012
 5148SOL    HW216415   1.693   3.486   0.640 -1.1783  0.5835 -1.6034
 5149SOL     OW16416   0.448   2.094   5.913  0.1742  0.4307 -0.1269
 5149SOL    HW116417   0.356   2.087   5.939  0.1438 -0.5261 -0.4544
 5149SOL    HW216418   0.449   2.167   5.851 -0.2776  0.7503  0.2277
 5150SOL     OW16419   4.475   0.072   5.270 -0.2233  0.6245 -0.4520
 5150SOL    HW116420   4.508   0.130   5.202 -1.4508  0.6790 -1.0275
 5150SOL    HW216421   4.493  -0.016   5.238 -1.2824  0.6394 -1.1170
 5151SOL     OW16422   4.606   3.741   4.294  0.0283 -0.1076  0.7997
 5151SOL    HW116423   4.674   3.677   4.315  0.2816 -1.1813 -2.6955
 5151SOL    HW216424   4.524   3.698   4.319  0.3706 -0.6295  1.0368
 5152SOL     OW16425   4.615   4.612   2.848 -0.2079  0.1913  0.2082
 5152SOL    HW116426   4.602   4.548   2.918  0.1349  0.9697  1.0055
 5152SOL    HW216427   4.655   4.563   2.777 -0.1726 -0.5299  0.7175
 5153SOL     OW16428   3.399   1.753   5.451  0.5846 -0.1578 -0.5130
 5153SOL    HW116429   3.305   1.734   5.454  0.6904 -0.5984  0.0821
 5153SOL    HW216430   3.404   1.839   5.409 -0.0083 -0.5920 -1.5083
 5154SOL     OW16431   3.470   6.407   3.729 -0.3737  0.3192  0.0052
 5154SOL    HW116432   3.459   6.373   3.640  0.3846 -1.1397  0.4443
 5154SOL    HW216433   3.556   6.449   3.727  0.4982 -1.3535  0.5062
 5155SOL     OW16434   0.539   5.051   6.888 -0.1987  0.4793 -0.1370
 5155SOL    HW116435   0.526   5.143   6.913 -1.5988  0.3290 -0.2220
 5155SOL    HW216436   0.453   5.022   6.860  0.6179 -0.3029 -2.0035
 5156SOL     OW16437   4.441   1.578   0.185  0.8021 -0.3944 -1.0178
 5156SOL    HW116438   4.468   1.617   0.102 -0.8913 -0.1490 -1.4941
 5156SOL    HW216439   4.398   1.650   0.232  1.7540 -0.5262  0.0914
 5157SOL     OW16440   6.599   3.383   4.391 -0.1274  0.1896 -0.1346
 5157SOL    HW116441   6.522   3.378   4.335  0.8308 -0.0337 -1.4663
 5157SOL    HW216442   6.673   3.394   4.331  0.7388  2.2130  1.1835
 5158SOL     OW16443   1.698   0.279   3.155 -0.0468  0.2072 -0.2809
 5158SOL    HW116444   1.602   0.285   3.157 -0.1318  0.3935  3.7944
 5158SOL    HW216445   1.728   0.367   3.177  1.0107 -0.1699 -0.1942
 5159SOL     OW16446   2.355   0.241   5.887  0.3872  0.2546  0.0500
 5159SOL    HW116447   2.265   0.236   5.855  0.6385  0.8819 -0.7664
 5159SOL    HW216448   2.346   0.277   5.976 -0.1561  0.4011 -0.0608
 5160SOL     OW16449   5.527   0.046   2.687 -0.0036 -0.6482  0.4305
 5160SOL    HW116450   5.434   0.041   2.707  0.3051 -1.6231  1.8131
 5160SOL    HW216451   5.544   0.139   2.675 -1.4039 -0.5679 -1.2641
 5161SOL     OW16452   5.839   4.806   3.588  0.5119 -0.3285 -0.4514
 5161SOL    HW116453   5.788   4.759   3.523  2.0614 -0.3371 -1.7298
 5161SOL    HW216454   5.792   4.793   3.670 -1.0889 -0.9489 -1.4306
 5162SOL     OW16455   2.196   4.077   5.604 -0.4697  0.3384 -0.0917
 5162SOL    HW116456   2.160   4.050   5.520  0.1394 -1.2835  0.1147
 5162SOL    HW216457   2.123   4.073   5.665 -0.7921  0.9849 -0.4313
 5163SOL     OW16458   2.139   2.927   0.328  0.5124 -0.0627  0.0398
 5163SOL    HW116459   2.120   2.845   0.282 -0.5376  0.4378 -0.4690
 5163SOL    HW216460   2.150   2.902   0.419 -1.0111 -0.6479  0.0935
 5164SOL     OW16461   7.377   3.700   6.225  0.1924 -0.2931 -0.0801
 5164SOL    HW116462   7.400   3.790   6.247 -0.6915 -0.3966  1.4466
 5164SOL    HW216463   7.309   3.708   6.158  0.8875  0.1168 -0.7604
 5165SOL     OW16464   5.021   3.887   6.753  0.0100 -0.4532  0.3671
 5165SOL    HW116465   4.955   3.849   6.694 -0.3645 -0.1272  0.5714
 5165SOL    HW216466   5.001   3.980   6.754  1.3563 -0.1230 -0.6876
 5166SOL     OW16467   0.581   5.097   4.416  0.3142  0.2564 -0.0432
 5166SOL    HW116468   0.608   5.172   4.470  2.1132 -0.1650 -0.2819
 5166SOL    HW216469   0.527   5.044   4.474  2.6568 -0.4783  1.6127
 5167SOL     OW16470   6.880   6.086   0.119  0.2689 -0.2710  0.4136
 5167SOL    HW116471   6.910   6.050   0.203  2.6110  0.9786  0.2098
 5167SOL    HW216472   6.879   6.181   0.133 -3.1524 -0.1541  0.1480
 5168SOL     OW16473   5.884   6.903   7.197 -0.4293 -0.0034 -0.3396
 5168SOL    HW116474   5.833   6.827   7.172  1.3474 -0.8427 -1.5558
 5168SOL    HW216475   5.974   6.883   7.170  0.0190  2.7153 -1.2023
 5169SOL     OW16476   7.369   5.125   0.834  0.6652  0.2939  0.1621
 5169SOL    HW116477   7.326   5.209   0.819  0.4242 -0.1366 -1.8342
 5169SOL    HW216478   7.421   5.109   0.755  1.3328 -1.0647  0.8321
 5170SOL     OW16479   4.088   3.902   2.017  0.3392 -0.0315 -0.4887
 5170SOL    HW116480   4.015   3.935   1.965  0.0927  1.1977  0.5817
 5170SOL    HW216481   4.077   3.942   2.103  2.7968  0.9754 -0.5433
 5171SOL     OW16482   6.182   6.956   5.736  0.2041 -0.4690 -0.6000
 5171SOL    HW116483   6.185   7.050   5.717  0.7028 -0.2440  0.5227
 5171SOL    HW216484   6.096   6.943   5.776  0.6234 -0.2272  0.4317
 5172SOL     OW16485   5.765   0.232   0.528 -0.1169 -0.3256 -0.3612
 5172SOL    HW116486   5.847   0.279   0.539 -0.2570 -0.1851  0.1435
 5172SOL    HW216487   5.761   0.174   0.604 -1.5360  1.2864  0.8932
 5173SOL     OW16488   5.860   0.916   4.675 -0.4221  0.2537 -0.4175
 5173SOL    HW116489   5.872   0.868   4.757 -0.5691  2.5990  1.0750
 5173SOL    HW216490   5.867   1.009   4.700  0.2191  1.0580 -3.1790
 5174SOL     OW16491   6.349   6.485   1.305  0.1713 -0.5870 -0.5686
 5174SOL    HW116492   6.359   6.575   1.274  1.4337 -0.8334 -0.9423
 5174SOL    HW216493   6.433   6.444   1.286 -0.0138 -1.5530  0.5829
 5175SOL     OW16494   7.303   1.756   2.009  0.0030 -0.1966 -0.3739
 5175SOL    HW116495   7.356   1.786   2.083 -0.3962  0.2892 -0.2788
 5175SOL    HW216496   7.213   1.763   2.040 -0.1151 -1.7289 -0.2602
 5176SOL     OW16497   3.454   6.348   0.554  0.5810  0.1337 -0.2060
 5176SOL    HW116498   3.361   6.323   0.553  1.1573 -2.2945 -1.2085
 5176SOL    HW216499   3.453   6.444   0.560 -1.9123  0.0965  2.2249
 5177SOL     OW16500   7.025   6.253   6.426  0.4311  0.2371  0.0114
 5177SOL    HW116501   7.014   6.278   6.335 -1.2564  0.9110  0.3445
 5177SOL    HW216502   6.987   6.326   6.475  2.2234  0.3648  1.3039
 5178SOL     OW16503   3.448   6.980   1.994 -0.7453 -0.0586 -0.1812
 5178SOL    HW116504   3.385   7.047   1.967  1.3832  1.8315 -0.7864
 5178SOL    HW216505   3.402   6.930   2.061 -3.6160 -0.1764 -2.0619
 5179SOL     OW16506   3.206   2.020   1.809  0.3410  0.2257 -0.1369
 5179SOL    HW116507   3.227   2.104   1.850  1.4446  0.2071 -0.6330
 5179SOL    HW216508   3.273   2.008   1.742 -0.0296 -0.8706 -0.3414
 5180SOL     OW16509   1.873   3.362   6.685  0.4444  0.0836 -0.4125
 5180SOL    HW116510   1.893   3.299   6.617  0.2710  1.5054 -1.8308
 5180SOL    HW216511   1.800   3.322   6.734 -2.2360  0.6639 -3.5606
 5181SOL     OW16512   6.561   0.913   5.332  0.6020 -0.0111 -0.4381
 5181SOL    HW116513   6.549   0.825   5.295 -0.5138  0.2469 -0.7285
 5181SOL    HW216514   6.523   0.972   5.266  1.0634  0.6740 -0.1066
 5182SOL     OW16515   2.056   3.382   1.754  0.2733 -0.2914  0.5281
 5182SOL    HW116516   2.016   3.297   1.734  1.7880 -0.8947 -0.0791
 5182SOL    HW216517   2.081   3.374   1.847  0.8778 -0.7273  0.3377
 5183SOL     OW16518   7.195   3.751   5.993 -0.1487 -0.5441  0.2501
 5183SOL    HW116519   7.140   3.678   5.964 -2.2424  0.5497  1.2599
 5183SOL    HW216520   7.134   3.814   6.031  1.9168  0.1888  2.6379
 5184SOL     OW16521   5.416   0.529   2.392 -0.1582  0.0441  0.5644
 5184SOL    HW116522   5.322   0.546   2.383 -0.4434 -1.5743  0.0712
 5184SOL    HW216523   5.453   0.558   2.309 -0.4611 -0.6202  0.1819
 5185SOL     OW16524   4.472   5.504   1.480 -0.2906 -0.4691  0.2032
 5185SOL    HW116525   4.565   5.516   1.459 -0.3311  1.7396  0.9675
 5185SOL    HW216526   4.439   5.445   1.412  2.0985 -3.1290  1.1681
 5186SOL     OW16527   5.830   5.604   4.810  0.2300 -0.2094 -0.0452
 5186SOL    HW116528   5.864   5.558   4.733  0.3336 -0.7553  0.3122
 5186SOL    HW216529   5.780   5.677   4.775 -2.4774 -2.2705 -0.7925
 5187SOL     OW16530   0.381   1.452   6.770 -0.3079  0.9796  0.3956
 5187SOL    HW116531   0.448   1.489   6.712  0.8010  0.5792  1.3723
 5187SOL    HW216532   0.402   1.489   6.856  0.6444 -1.5726  1.3490
 5188SOL     OW16533   7.148   6.587   5.470 -0.4434 -0.4489 -0.1355
 5188SOL    HW116534   7.200   6.538   5.534 -0.6494  0.0258  0.4158
 5188SOL    HW216535   7.101   6.521   5.421  1.3992 -0.9488 -1.3084
 5189SOL     OW16536   0.442   3.406   3.838  0.1410  0.0678  0.6416
 5189SOL    HW116537   0.448   3.311   3.832  0.4217  0.1710 -1.5461
 5189SOL    HW216538   0.532   3.436   3.845  0.0909  0.1940  0.7464
 5190SOL     OW16539   5.478   2.120   0.975 -0.2592 -0.4901  0.2295
 5190SOL    HW116540   5.387   2.140   0.956 -0.5393 -0.8561  1.1465
 5190SOL    HW216541   5.497   2.041   0.924  0.1462  0.6816 -1.5126
 5191SOL     OW16542   1.075   2.318   1.094 -0.1604  0.0160  0.2004
 5191SOL    HW116543   1.170   2.325   1.109  0.2621 -2.0968 -1.0761
 5191SOL    HW216544   1.037   2.325   1.182  1.4334 -1.9523  1.1218
 5192SOL     OW16545   6.679   4.522   4.490 -0.1269  0.3637 -0.6162
 5192SOL    HW116546   6.760   4.499   4.445  0.0025 -0.0024 -0.2037
 5192SOL    HW216547   6.679   4.618   4.491  0.2896  0.3655 -0.6360
 5193SOL     OW16548   3.148   6.091   7.286 -0.2504 -0.3705 -0.1725
 5193SOL    HW116549   3.064   6.117   7.249  0.4939  1.3666 -0.7361
 5193SOL    HW216550   3.206   6.081   7.210 -0.1165 -2.3899  0.1303
 5194SOL     OW16551   0.487   4.587   1.295 -0.2853 -0.0651 -0.3146
 5194SOL    HW116552   0.520   4.677   1.299 -0.1259  0.0187 -2.5392
 5194SOL    HW216553   0.395   4.596   1.271 -0.1953 -0.4868 -0.8427
 5195SOL     OW16554   4.102   0.360   6.149  0.2286  0.2601 -0.4379
 5195SOL    HW116555   4.039   0.425   6.180  1.3931  2.0035 -1.5766
 5195SOL    HW216556   4.048   0.289   6.114 -1.0787  0.2590  1.4216
 5196SOL     OW16557   2.864   3.148   1.358  0.2514  0.4195 -0.0747
 5196SOL    HW116558   2.873   3.236   1.395  1.8481  0.5399 -0.6889
 5196SOL    HW216559   2.950   3.127   1.323  0.3783 -2.0503  1.4512
 5197SOL     OW16560   4.322   4.902   4.627  0.1071  0.1465  0.0362
 5197SOL    HW116561   4.249   4.956   4.656  0.1322 -0.4939  1.3661
 5197SOL    HW216562   4.309   4.818   4.671  0.9457 -0.3964 -0.7143
 5198SOL     OW16563   6.295   0.880   0.543 -0.1684  0.0064  0.5954
 5198SOL    HW116564   6.310   0.968   0.511 -0.1170  0.0805  0.8239
 5198SOL    HW216565   6.374   0.857   0.591  0.9276 -1.1472 -1.6040
 5199SOL     OW16566   1.283   2.016   3.060 -0.0395 -0.1056 -0.0243
 5199SOL    HW116567   1.330   2.046   3.138 -0.7783  0.4613  0.2152
 5199SOL    HW216568   1.228   2.090   3.035 -0.4411 -0.5828 -0.5886
 5200SOL     OW16569   0.299   6.320   0.638 -0.5062  0.2338 -0.1168
 5200SOL    HW116570   0.366   6.338   0.572  1.1837 -0.2732  1.3714
 5200SOL    HW216571   0.278   6.406   0.675  2.0100  0.1478  1.8118
 5201SOL     OW16572   6.348   5.195   1.828  0.3455  0.1084 -0.5017
 5201SOL    HW116573   6.437   5.169   1.805  1.2969  2.3875  0.3831
 5201SOL    HW216574   6.344   5.188   1.924 -0.8471 -1.0798 -0.5928
 5202SOL     OW16575   0.509   4.893   6.512 -0.5558  0.3214 -0.3328
 5202SOL    HW116576   0.604   4.903   6.524 -0.3105 -1.0720 -0.9365
 5202SOL    HW216577   0.493   4.800   6.525 -1.9111  0.5919  0.0703
 5203SOL     OW16578   0.900   0.367   1.415 -0.0439  0.5379 -0.0594
 5203SOL    HW116579   0.819   0.365   1.364  1.0994 -0.1641 -1.9284
 5203SOL    HW216580   0.918   0.275   1.436 -0.7561  0.8388  2.1485
 5204SOL     OW16581   7.314   4.223   1.388  0.1839 -0.7364 -0.0998
 5204SOL    HW116582   7.286   4.199   1.300 -1.4847 -0.4353  0.3202
 5204SOL    HW216583   7.285   4.151   1.444  1.0809 -0.8437  0.2576
 5205SOL     OW16584   6.805   3.526   4.201  0.3368 -0.2594 -0.0194
 5205SOL    HW116585   6.875   3.534   4.267  0.6755 -0.8414 -0.2978
 5205SOL    HW216586   6.747   3.599   4.219  0.6185 -0.2021  0.7046
 5206SOL     OW16587   3.774   6.312   1.859  0.3546  0.4264  0.5136
 5206SOL    HW116588   3.711   6.359   1.915  0.9334  0.9437  0.7429
 5206SOL    HW216589   3.792   6.373   1.788  0.4361  0.1956  0.3376
 5207SOL     OW16590   5.923   5.041   1.587  0.0883 -0.1104  0.0220
 5207SOL    HW116591   6.008   5.084   1.585 -0.3469  0.7714 -0.1494
 5207SOL    HW216592   5.892   5.052   1.677  0.5120 -1.1778  0.3167
 5208SOL     OW16593   1.846   5.856   5.537  0.1946  0.0492  0.8091
 5208SOL    HW116594   1.802   5.941   5.539  0.4366  0.1696  1.0885
 5208SOL    HW216595   1.923   5.870   5.482 -0.1870 -0.1984  0.2035
 5209SOL     OW16596   2.450   5.771   6.783  0.3880 -0.0622 -0.0726
 5209SOL    HW116597   2.433   5.856   6.740 -0.8975 -0.2258  0.0732
 5209SOL    HW216598   2.448   5.708   6.711 -1.3356 -0.2816  0.1245
 5210SOL     OW16599   0.046   6.673   1.015 -0.5052  0.2280  0.2731
 5210SOL    HW116600   0.102   6.596   1.007  0.2643  0.5169  2.3252
 5210SOL    HW216601   0.017   6.691   0.925  1.8474 -0.5370 -0.7209
 5211SOL     OW16602   3.149   0.631   1.803  0.1881 -0.4874 -0.5195
 5211SOL    HW116603   3.076   0.666   1.854 -1.0728 -0.9130 -1.9922
 5211SOL    HW216604   3.110   0.567   1.744  1.9899 -1.9210 -0.2424
 5212SOL     OW16605   4.382   7.096   4.223  0.0697 -0.3549  0.4426
 5212SOL    HW116606   4.298   7.101   4.177  0.7123  2.7178 -0.6834
 5212SOL    HW216607   4.359   7.096   4.316 -1.1778 -2.5472  0.1961
 5213SOL     OW16608   4.283   6.749   4.299 -0.1261  0.0735 -0.1567
 5213SOL    HW116609   4.294   6.806   4.375  0.9322  0.5294 -0.6233
 5213SOL    HW216610   4.208   6.784   4.252 -0.1755  0.3892  0.1587
 5214SOL     OW16611   0.413   6.627   4.932 -0.3348  0.0894  0.2288
 5214SOL    HW116612   0.390   6.708   4.978  1.8297 -0.5455  2.6352
 5214SOL    HW216613   0.475   6.583   4.990  0.7777 -1.9394 -2.2938
 5215SOL     OW16614   2.053   2.445   6.608 -0.4653  0.1135  0.5045
 5215SOL    HW116615   1.979   2.494   6.572 -0.1685  0.6449  0.6076
 5215SOL    HW216616   2.024   2.416   6.694  0.6512  3.3476  2.1080
 5216SOL     OW16617   5.251   0.857   2.925  0.0206 -0.1899 -0.3303
 5216SOL    HW116618   5.283   0.858   2.834 -1.5580  2.2738 -0.9760
 5216SOL    HW216619   5.160   0.829   2.918  0.0225 -0.4332  0.5666
 5217SOL     OW16620   6.667   3.598   6.476  0.3002  0.7014 -0.8148
 5217SOL    HW116621   6.724   3.563   6.408  0.5227  1.3250 -0.9570
 5217SOL    HW216622   6.580   3.596   6.438  0.3293  0.4066 -0.8629
 5218SOL     OW16623   1.106   3.043   2.360 -0.1933  0.3147  0.0323
 5218SOL    HW116624   1.047   2.986   2.409  0.2324  0.5932  0.9061
 5218SOL    HW216625   1.156   2.985   2.304 -1.6954  0.1322 -1.1754
 5219SOL     OW16626   3.071   1.951   3.902 -0.2778  0.3790  0.2091
 5219SOL    HW116627   3.054   1.879   3.962  1.5192  0.3601  0.7483
 5219SOL    HW216628   3.010   1.937   3.829  1.1761 -2.6759 -0.5433
 5220SOL     OW16629   5.928   0.558   5.952  1.1484  0.3014  0.4692
 5220SOL    HW116630   5.998   0.618   5.976  0.1025  1.5892  0.4034
 5220SOL    HW216631   5.854   0.582   6.008 -0.5054  1.6320 -2.0833
 5221SOL     OW16632   4.164   0.520   5.913 -0.2642  0.3362  0.1601
 5221SOL    HW116633   4.144   0.452   5.977 -0.5567  0.9889  0.7757
 5221SOL    HW216634   4.259   0.513   5.900 -0.3293 -0.3530  0.0192
 5222SOL     OW16635   0.936   6.310   2.324  0.2519  0.3410  0.1035
 5222SOL    HW116636   0.868   6.257   2.366  0.7400 -0.9580 -0.7122
 5222SOL    HW216637   1.014   6.256   2.326  1.1244  1.5577  0.4103
 5223SOL     OW16638   7.058   5.329   0.235 -0.1661 -0.3269  0.4821
 5223SOL    HW116639   6.973   5.372   0.221  0.7443  1.4578  0.2048
 5223SOL    HW216640   7.119   5.378   0.181  0.8140 -2.5657 -0.5450
 5224SOL     OW16641   6.776   2.213   0.937  0.1514  0.0522  0.4948
 5224SOL    HW116642   6.760   2.305   0.957  1.2594  0.4210 -0.2543
 5224SOL    HW216643   6.852   2.190   0.990  0.8965  0.0430 -0.5472
 5225SOL     OW16644   4.023   4.751   2.288 -0.0818 -0.4863  0.1992
 5225SOL    HW116645   4.020   4.719   2.197 -1.0666 -1.8722  0.6856
 5225SOL    HW216646   4.109   4.723   2.320  0.0277 -0.5288 -0.1227
 5226SOL     OW16647   1.016   1.538   3.319  0.6528 -0.3540  0.1668
 5226SOL    HW116648   1.052   1.496   3.242  0.0230 -1.1816  0.3027
 5226SOL    HW216649   1.074   1.611   3.337  1.8473 -1.2254 -0.0291
 5227SOL     OW16650   5.541   1.297   0.864  0.4318  0.7896 -0.1919
 5227SOL    HW116651   5.479   1.336   0.925  0.2228  0.2382 -0.0456
 5227SOL    HW216652   5.614   1.268   0.919 -0.0443 -0.2932 -0.0993
 5228SOL     OW16653   4.494   4.381   4.233 -0.5768  0.3431  0.2991
 5228SOL    HW116654   4.551   4.305   4.219  0.5910  1.2647 -0.1856
 5228SOL    HW216655   4.418   4.346   4.279 -0.9730 -1.4756 -1.5515
 5229SOL     OW16656   1.964   5.217   1.877  0.6671  0.1614  0.0673
 5229SOL    HW116657   2.035   5.158   1.855  1.8427  1.1563  1.0754
 5229SOL    HW216658   2.006   5.302   1.891 -0.9043  1.1416 -0.8270
 5230SOL     OW16659   4.920   1.086   4.486 -0.5900  0.4833 -0.0754
 5230SOL    HW116660   4.936   1.138   4.407  0.1080 -0.3103 -0.4749
 5230SOL    HW216661   4.985   1.119   4.549 -0.9131  0.8761  0.0550
 5231SOL     OW16662   0.590   6.971   4.350  0.7714  0.4402  0.1157
 5231SOL    HW116663   0.518   6.922   4.309  0.2332  0.8647  0.5294
 5231SOL    HW216664   0.558   7.062   4.352  0.7373  0.4197  1.5416
 5232SOL     OW16665   1.489   4.093   5.622  0.6866 -0.4315  0.4585
 5232SOL    HW116666   1.505   4.166   5.682 -2.0352 -0.5652  1.5140
 5232SOL    HW216667   1.397   4.070   5.637  0.2723 -1.4068 -2.7974
 5233SOL     OW16668   2.029   0.489   3.391 -0.1832 -0.2523 -0.2019
 5233SOL    HW116669   1.964   0.558   3.404 -0.1263 -0.1242 -0.5794
 5233SOL    HW216670   1.978   0.407   3.393 -0.4464 -0.1166 -1.0983
 5234SOL     OW16671   1.910   3.393   5.623 -0.4459  0.5425  0.6883
 5234SOL    HW116672   1.972   3.391   5.696  0.9953 -2.3477 -0.4156
 5234SOL    HW216673   1.848   3.322   5.642 -0.7613  0.5266 -0.3085
 5235SOL     OW16674   1.260   2.587   0.862  0.5926 -0.4517  0.1964
 5235SOL    HW116675   1.229   2.621   0.946 -0.2520 -0.0821 -0.2529
 5235SOL    HW216676   1.309   2.659   0.823  1.4144 -0.7924  0.5876
 5236SOL     OW16677   4.186   2.173   1.328 -0.3383  0.4879 -0.0030
 5236SOL    HW116678   4.268   2.134   1.296  0.3423  1.1569  0.8754
 5236SOL    HW216679   4.126   2.166   1.254  0.3909 -0.3643 -0.5379
 5237SOL     OW16680   0.767   2.654   4.520  0.1079 -0.6919 -0.4605
 5237SOL    HW116681   0.779   2.567   4.480  0.2636 -0.6163 -0.5794
 5237SOL    HW216682   0.674   2.658   4.541 -0.0725 -0.5511 -1.2398
 5238SOL     OW16683   4.864   4.061   3.939 -0.1441  0.1422  0.4172
 5238SOL    HW116684   4.823   3.985   3.979 -0.9844 -0.3175 -1.2099
 5238SOL    HW216685   4.885   4.033   3.850  0.1422  1.6001  0.0014
 5239SOL     OW16686   0.914   2.161   5.975 -0.2449  0.5021  0.0416
 5239SOL    HW116687   0.961   2.078   5.968 -2.1022 -0.6480  0.4992
 5239SOL    HW216688   0.907   2.192   5.885 -1.3303 -0.9356 -0.4149
 5240SOL     OW16689   4.678   5.468   0.179 -1.0454  0.1438 -0.1197
 5240SOL    HW116690   4.675   5.498   0.089  1.0012  0.9044  0.0226
 5240SOL    HW216691   4.749   5.404   0.182 -0.3950  0.8807  1.1400
 5241SOL     OW16692   1.954   2.356   3.106 -0.5925 -0.0024  0.7720
 5241SOL    HW116693   2.009   2.287   3.069 -0.1756 -0.0677  1.5021
 5241SOL    HW216694   1.893   2.379   3.035  0.9686  0.7480 -0.3872
 5242SOL     OW16695   4.813   1.523   0.053 -0.1803  0.0360  0.0865
 5242SOL    HW116696   4.892   1.492   0.097 -0.2544 -1.1278 -0.5736
 5242SOL    HW216697   4.743   1.506   0.116  0.0196  0.6497  0.4889
 5243SOL     OW16698   1.096   1.324   1.649  0.5673  0.1531 -0.1433
 5243SOL    HW116699   1.026   1.384   1.675  0.4847  0.1710 -0.4037
 5243SOL    HW216700   1.115   1.274   1.728 -0.3495 -0.4707 -0.3063
 5244SOL     OW16701   2.920   1.846   0.345  0.0945  0.0338  0.4657
 5244SOL    HW116702   2.862   1.888   0.282 -0.4674 -0.5712  0.5749
 5244SOL    HW216703   3.007   1.879   0.322 -0.3190  1.2620  0.5597
 5245SOL     OW16704   6.742   1.474   2.153  0.6905 -0.1591  0.1803
 5245SOL    HW116705   6.775   1.387   2.129  2.4640 -0.3008  2.7439
 5245SOL    HW216706   6.676   1.494   2.086  2.6601 -1.9540 -2.5189
 5246SOL     OW16707   6.415   7.336   0.263 -0.0595 -0.0242 -0.4274
 5246SOL    HW116708   6.400   7.293   0.179  1.8399 -0.1014 -0.7751
 5246SOL    HW216709   6.495   7.296   0.297  0.7070  1.8458  0.1429
 5247SOL     OW16710   3.811   3.664   5.223 -0.7605  0.0817 -0.2868
 5247SOL    HW116711   3.745   3.599   5.247  0.2832 -1.3226 -1.0592
 5247SOL    HW216712   3.888   3.640   5.274  0.1948 -0.4310 -1.9011
 5248SOL     OW16713   6.121   3.080   4.167  0.2201 -0.6733 -0.1287
 5248SOL    HW116714   6.207   3.090   4.126  0.2021 -0.6107 -0.1507
 5248SOL    HW216715   6.141   3.065   4.259  0.2892 -1.5050 -0.2721
 5249SOL     OW16716   5.514   1.757   4.317  0.5929 -0.4191  0.1786
 5249SOL    HW116717   5.457   1.791   4.247  1.8294  0.3728 -0.4779
 5249SOL    HW216718   5.468   1.779   4.398 -0.5882 -0.8401 -0.3518
 5250SOL     OW16719   3.099   5.742   3.868  0.4320 -0.2214 -0.0200
 5250SOL    HW116720   3.194   5.742   3.883  0.2984 -1.3963  0.9446
 5250SOL    HW216721   3.069   5.826   3.904  1.0530 -0.0098  0.0204
 5251SOL     OW16722   2.568   2.549   0.128 -0.1068 -0.1478  0.9438
 5251SOL    HW116723   2.575   2.454   0.124 -2.5132 -0.3639 -1.9985
 5251SOL    HW216724   2.486   2.565   0.176 -0.0351  0.3946  0.8898
 5252SOL     OW16725   2.951   1.380   3.002  0.1007  0.6189  0.2941
 5252SOL    HW116726   2.912   1.315   2.943 -0.3244  0.2037  1.0124
 5252SOL    HW216727   2.898   1.374   3.082  0.3890  1.4814  0.5597
 5253SOL     OW16728   3.354   0.178   0.634  0.1156  0.2325  0.2367
 5253SOL    HW116729   3.384   0.199   0.545  2.5039  0.4468  1.0188
 5253SOL    HW216730   3.336   0.084   0.630  1.3061 -0.0035 -0.2295
 5254SOL     OW16731   2.870   0.880   4.475 -0.2682 -0.4226 -0.3302
 5254SOL    HW116732   2.937   0.907   4.412 -0.9503 -0.8089 -1.2464
 5254SOL    HW216733   2.901   0.796   4.509  0.0907 -0.2226 -0.1588
 5255SOL     OW16734   3.940   6.828   6.311  0.2188  0.4632 -0.4767
 5255SOL    HW116735   3.872   6.789   6.256  1.0617  1.4798 -2.3333
 5255SOL    HW216736   3.983   6.754   6.353 -0.6777 -0.3245 -0.9150
 5256SOL     OW16737   0.455   2.492   4.747 -0.1717 -0.3262 -0.2091
 5256SOL    HW116738   0.523   2.435   4.711 -1.4164 -0.8761 -1.8165
 5256SOL    HW216739   0.455   2.569   4.689 -1.7925 -0.9479 -1.1113
 5257SOL     OW16740   0.736   6.244   3.528 -0.6690  0.0306  0.5245
 5257SOL    HW116741   0.654   6.291   3.547 -1.5762 -1.1238 -0.3713
 5257SOL    HW216742   0.804   6.300   3.564 -1.8423  1.0863  1.2060
 5258SOL     OW16743   6.888   1.053   6.614  0.2309 -0.0717  0.2387
 5258SOL    HW116744   6.966   1.096   6.578  0.2659 -0.0099  0.3856
 5258SOL    HW216745   6.814   1.100   6.574  0.2582 -0.8138 -0.7156
 5259SOL     OW16746   3.888   6.737   7.301 -0.1043  0.3153  0.1086
 5259SOL    HW116747   3.902   6.661   7.245  3.8191  0.8812  0.0345
 5259SOL    HW216748   3.860   6.806   7.242  2.7057  0.5580 -1.0868
 5260SOL     OW16749   3.994   5.322   1.980 -0.0064 -0.8281  0.0702
 5260SOL    HW116750   3.971   5.404   2.024 -0.7105 -2.1838  2.4302
 5260SOL    HW216751   3.935   5.317   1.905  0.0922  0.8198 -0.1445
 5261SOL     OW16752   2.126   3.258   5.791  0.6038 -0.0064 -0.2318
 5261SOL    HW116753   2.145   3.238   5.883  0.8886 -1.7478 -0.6358
 5261SOL    HW216754   2.036   3.226   5.778  0.1486  1.2261 -0.3138
 5262SOL     OW16755   1.092   6.702   3.666  0.4806  0.1250 -0.2178
 5262SOL    HW116756   1.174   6.714   3.617  0.0001  1.6150 -0.7081
 5262SOL    HW216757   1.105   6.753   3.746  0.3508 -0.3685  0.1240
 5263SOL     OW16758   4.305   2.763   1.112  0.2538  0.4863  0.3300
 5263SOL    HW116759   4.280   2.790   1.024  0.8799  0.9863  0.2963
 5263SOL    HW216760   4.254   2.820   1.170 -0.0568  0.2501  0.2894
 5264SOL     OW16761   6.444   5.329   5.592  0.2874  0.7951 -0.2965
 5264SOL    HW116762   6.527   5.352   5.551  0.7611  1.8118  1.1558
 5264SOL    HW216763   6.405   5.412   5.617 -0.3177  0.2489  0.6407
 5265SOL     OW16764   1.590   5.404   5.657  0.5587  0.3463  0.4527
 5265SOL    HW116765   1.586   5.408   5.753  0.4793 -0.5309  0.4972
 5265SOL    HW216766   1.681   5.383   5.638  0.1671 -1.5512  0.4520
 5266SOL     OW16767   5.116   1.244   6.321  0.4944  0.0646  0.2097
 5266SOL    HW116768   5.119   1.339   6.331  2.3556  0.1881 -0.9028
 5266SOL    HW216769   5.208   1.217   6.318  0.1075 -2.1236  3.0275
 5267SOL     OW16770   7.267   6.056   5.887  0.0044  0.0981  0.0713
 5267SOL    HW116771   7.267   5.970   5.929  1.3284 -1.1225 -2.2048
 5267SOL    HW216772   7.175   6.083   5.886 -0.7305 -2.2132 -0.8781
 5268SOL     OW16773   3.863   0.398   6.506 -0.4799 -0.3619 -0.0853
 5268SOL    HW116774   3.867   0.331   6.437  1.1848 -0.7272  0.3218
 5268SOL    HW216775   3.856   0.481   6.459  0.1883 -0.6394 -0.6865
 5269SOL     OW16776   0.711   0.273   5.382 -0.0988 -0.6577  0.3513
 5269SOL    HW116777   0.800   0.308   5.375 -0.1449 -0.9172 -2.4504
 5269SOL    HW216778   0.696   0.266   5.476  0.6215  4.9687  1.1893
 5270SOL     OW16779   6.375   3.783   5.892  0.3655  0.5335  0.1514
 5270SOL    HW116780   6.281   3.770   5.880  0.6136 -1.5372  0.1267
 5270SOL    HW216781   6.406   3.818   5.808 -0.4797  2.0230  0.4299
 5271SOL     OW16782   2.263   0.825   0.993 -0.3391  0.1964 -0.7774
 5271SOL    HW116783   2.341   0.806   0.939 -0.0378 -2.2229  0.4003
 5271SOL    HW216784   2.280   0.781   1.076 -3.0055 -0.5073 -0.5121
 5272SOL     OW16785   2.730   0.194   6.188  0.5697  0.1886 -0.0297
 5272SOL    HW116786   2.676   0.146   6.125 -0.0089  1.9428 -0.9310
 5272SOL    HW216787   2.679   0.192   6.269 -1.9409  3.3568 -1.3040
 5273SOL     OW16788   1.973   6.340   5.263 -0.0884  0.0973 -0.7179
 5273SOL    HW116789   2.048   6.337   5.322 -0.8053  0.2721  0.2239
 5273SOL    HW216790   2.010   6.324   5.176  0.9352 -0.5193 -0.1828
 5274SOL     OW16791   6.895   0.577   5.650 -0.1932 -0.0341 -0.2610
 5274SOL    HW116792   6.850   0.500   5.617  0.5174  0.1204 -1.6466
 5274SOL    HW216793   6.979   0.578   5.604  0.3882  0.8175  0.7534
 5275SOL     OW16794   5.642   4.219   4.318 -0.2662 -0.4719  0.1025
 5275SOL    HW116795   5.649   4.250   4.408  1.0031  2.4365 -0.8916
 5275SOL    HW216796   5.549   4.196   4.308 -0.2529 -1.8335  2.3582
 5276SOL     OW16797   2.395   4.811   4.073  0.5296 -0.2163  0.3363
 5276SOL    HW116798   2.396   4.725   4.115  0.3138  0.1342  1.0839
 5276SOL    HW216799   2.391   4.873   4.146  0.0600  0.4108 -0.2099
 5277SOL     OW16800   5.541   3.810   6.671  0.2640 -0.1955 -0.7378
 5277SOL    HW116801   5.554   3.732   6.725  1.1488  0.7150  0.4072
 5277SOL    HW216802   5.463   3.852   6.707  0.4822  0.0717 -0.5698
 5278SOL     OW16803   5.427   6.341   2.024 -0.1172 -0.0731 -0.1538
 5278SOL    HW116804   5.493   6.338   2.093 -0.7798 -1.1860  0.4711
 5278SOL    HW216805   5.437   6.258   1.978  0.1948  0.5785 -1.3044
 5279SOL     OW16806   5.526   5.655   0.442 -0.6143  0.5507  0.0764
 5279SOL    HW116807   5.469   5.650   0.519 -0.8561 -1.3244 -0.1698
 5279SOL    HW216808   5.493   5.587   0.384  1.0853  0.2841 -0.6299
 5280SOL     OW16809   0.749   0.342   1.010 -0.4655  0.0043  0.0333
 5280SOL    HW116810   0.830   0.390   1.024 -0.2474 -0.4473  0.3304
 5280SOL    HW216811   0.715   0.376   0.926 -0.1342  0.4122  0.0613
 5281SOL     OW16812   4.235   6.487   6.195 -0.6840  0.1872 -0.4908
 5281SOL    HW116813   4.295   6.555   6.165 -1.0471 -0.3400 -2.5437
 5281SOL    HW216814   4.176   6.531   6.256  2.7669  0.3904  3.1303
 5282SOL     OW16815   4.177   1.041   6.832  0.1349  0.0705  0.5685
 5282SOL    HW116816   4.186   0.956   6.875  1.6657 -0.4196 -0.6467
 5282SOL    HW216817   4.237   1.098   6.880  0.0282  0.1482  0.6094
 5283SOL     OW16818   7.235   5.896   3.405  0.0871 -0.7237 -0.6597
 5283SOL    HW116819   7.228   5.844   3.486  1.8310 -0.7056 -0.4538
 5283SOL    HW216820   7.163   5.865   3.350 -1.2477 -0.6159  0.9457
 5284SOL     OW16821   4.316   6.138   0.493  0.0466  0.0874 -0.3066
 5284SOL    HW116822   4.270   6.067   0.449  0.5567 -2.0607  2.3398
 5284SOL    HW216823   4.250   6.179   0.548  0.4641 -0.6712  0.7958
 5285SOL     OW16824   1.530   3.050   5.622  0.5056  0.5255  0.3859
 5285SOL    HW116825   1.492   3.036   5.535 -1.3948  0.4087  1.1687
 5285SOL    HW216826   1.534   3.145   5.632 -0.7851  0.5673  0.7355
 5286SOL     OW16827   4.390   5.988   6.588 -0.2106 -0.1604  0.3750
 5286SOL    HW116828   4.331   6.024   6.655 -0.9626 -1.4840  0.4665
 5286SOL    HW216829   4.381   5.893   6.598  1.3418 -0.3833 -0.1622
 5287SOL     OW16830   2.054   4.444   5.336  0.0079 -0.0495  0.0109
 5287SOL    HW116831   2.078   4.501   5.409 -0.1633  0.9060 -0.6551
 5287SOL    HW216832   1.964   4.416   5.356  0.8899 -2.0178  1.5080
 5288SOL     OW16833   3.631   6.963   5.705  0.0030 -0.0715 -1.2322
 5288SOL    HW116834   3.549   6.982   5.659 -1.0649  1.1624  1.0307
 5288SOL    HW216835   3.644   7.037   5.764  0.9300 -1.7982  0.9009
 5289SOL     OW16836   1.095   1.890   6.979 -0.2785 -0.1252 -0.1790
 5289SOL    HW116837   1.063   1.958   6.920  0.6578  1.4389  1.0452
 5289SOL    HW216838   1.131   1.823   6.921 -1.0157  0.5129 -1.4089
 5290SOL     OW16839   4.695   1.260   5.851 -0.1290 -0.2371 -0.0060
 5290SOL    HW116840   4.615   1.273   5.902 -0.2001 -1.8673  0.3716
 5290SOL    HW216841   4.751   1.207   5.908  2.2463  2.7267  0.7139
 5291SOL     OW16842   4.390   2.369   5.753  0.1396  0.1178 -0.1554
 5291SOL    HW116843   4.456   2.390   5.819 -0.8266  1.9926  0.2892
 5291SOL    HW216844   4.422   2.289   5.711  1.5349 -0.2727  1.5485
 5292SOL     OW16845   0.622   2.797   2.589  0.0324  0.3998 -0.0428
 5292SOL    HW116846   0.663   2.710   2.588 -0.5365  0.1253  0.0593
 5292SOL    HW216847   0.553   2.791   2.523  1.1825  1.3770 -1.3917
 5293SOL     OW16848   7.333   4.691   2.164 -0.3108 -0.8021 -0.3586
 5293SOL    HW116849   7.339   4.742   2.245 -0.7124 -0.7553 -0.3590
 5293SOL    HW216850   7.421   4.695   2.127 -0.5081  0.4620 -0.7139
 5294SOL     OW16851   4.780   5.439   2.145  0.0007 -0.2107 -0.3088
 5294SOL    HW116852   4.772   5.382   2.221  0.8741 -1.0645 -0.8346
 5294SOL    HW216853   4.691   5.447   2.111  0.2230 -4.5924 -2.5765
 5295SOL     OW16854   0.207   5.880   6.076  0.2447 -0.1653 -0.8250
 5295SOL    HW116855   0.237   5.794   6.047  0.8281 -0.0646 -0.5290
 5295SOL    HW216856   0.286   5.925   6.105 -0.0226  0.5472 -1.1557
 5296SOL     OW16857   0.929   4.337   7.360  0.3927 -0.0341  0.4941
 5296SOL    HW116858   0.847   4.303   7.324  0.2500 -0.6655  1.3761
 5296SOL    HW216859   0.911   4.429   7.379  0.9228  0.7429 -2.3380
 5297SOL     OW16860   6.262   5.626   4.764 -0.0460  0.2107 -0.3589
 5297SOL    HW116861   6.228   5.699   4.712 -1.0126 -0.8794 -1.3196
 5297SOL    HW216862   6.203   5.621   4.839  1.5524  2.0039  1.1218
 5298SOL     OW16863   0.594   0.772   5.893 -0.1230 -0.0567  0.4335
 5298SOL    HW116864   0.530   0.800   5.959 -0.7937  0.6994 -0.5077
 5298SOL    HW216865   0.674   0.819   5.916  0.3771 -1.6276  2.1054
 5299SOL     OW16866   5.064   7.321   4.051 -0.0852  0.2435  0.2662
 5299SOL    HW116867   5.030   7.392   3.996  0.6543  1.6296  1.5290
 5299SOL    HW216868   5.060   7.243   3.995 -0.8271  1.2908 -1.1936
 5300SOL     OW16869   2.091   4.402   2.600  0.0556 -0.1508 -0.0451
 5300SOL    HW116870   2.097   4.443   2.514  2.0302 -0.9864 -0.3646
 5300SOL    HW216871   2.017   4.342   2.594  0.2436 -0.2775 -1.2021
 5301SOL     OW16872   3.974   5.754   1.859 -0.5579  0.6768 -0.2658
 5301SOL    HW116873   3.960   5.820   1.791 -1.4423  1.6852  0.8465
 5301SOL    HW216874   4.069   5.756   1.875 -0.5177  1.3621 -0.5471
 5302SOL     OW16875   0.878   6.533   6.027  0.3763  0.8779  0.3406
 5302SOL    HW116876   0.927   6.610   6.000 -0.6943  1.7994  0.9356
 5302SOL    HW216877   0.793   6.567   6.054  0.1171 -0.4364  1.2682
 5303SOL     OW16878   5.617   5.165   7.078  0.0551 -0.2166 -0.1933
 5303SOL    HW116879   5.679   5.113   7.026  0.2629 -0.3876  0.2252
 5303SOL    HW216880   5.531   5.140   7.043  0.1835 -0.4489 -0.3500
 5304SOL     OW16881   6.572   1.439   0.811  0.5165  0.6667  0.2698
 5304SOL    HW116882   6.572   1.345   0.828 -0.8438  0.7103  0.6202
 5304SOL    HW216883   6.659   1.468   0.837  0.8910 -0.4630  0.3394
 5305SOL     OW16884   1.850   2.180   5.210 -0.1724  0.5785 -0.1931
 5305SOL    HW116885   1.890   2.241   5.272 -0.2846  0.3134  0.1490
 5305SOL    HW216886   1.907   2.182   5.134  1.8692 -1.5175  1.1305
 5306SOL     OW16887   4.782   6.849   3.427 -0.3053 -0.1526 -0.1836
 5306SOL    HW116888   4.746   6.793   3.496 -2.2501  1.6837  0.4022
 5306SOL    HW216889   4.876   6.833   3.431 -0.7712 -3.8373 -0.5499
 5307SOL     OW16890   5.742   4.785   4.139  0.1535 -0.0716 -0.4334
 5307SOL    HW116891   5.653   4.820   4.130  0.3716  0.8801  0.8026
 5307SOL    HW216892   5.792   4.830   4.071  0.2264  1.4236  0.5483
 5308SOL     OW16893   5.672   1.636   2.454  0.8110 -0.1712  0.3634
 5308SOL    HW116894   5.611   1.562   2.463  2.0524 -1.6728 -2.3716
 5308SOL    HW216895   5.615   1.713   2.452 -1.0903 -1.4786 -1.6973
 5309SOL     OW16896   3.951   2.500   2.359  0.6908  0.4208  0.5964
 5309SOL    HW116897   3.984   2.588   2.379  3.8593 -0.7706  1.1795
 5309SOL    HW216898   4.028   2.452   2.330 -0.6311 -2.6118  1.7313
 5310SOL     OW16899   4.587   4.485   3.975  0.0562  0.4052 -0.4377
 5310SOL    HW116900   4.577   4.433   4.054 -0.8512 -2.9502 -2.5463
 5310SOL    HW216901   4.669   4.455   3.937  0.0198  1.2783 -1.2445
 5311SOL     OW16902   4.972   2.741   0.873 -0.4893  0.0949  0.0327
 5311SOL    HW116903   4.982   2.793   0.793  2.3895 -0.8224 -0.3353
 5311SOL    HW216904   4.878   2.736   0.888 -0.9810  3.5639 -1.0850
 5312SOL     OW16905   1.013   2.338   3.345  0.5492  0.2591 -0.2126
 5312SOL    HW116906   1.107   2.333   3.325  1.1992  1.1744  2.2720
 5312SOL    HW216907   0.997   2.262   3.402 -0.4625 -0.3891 -1.3069
 5313SOL     OW16908   6.433   3.728   5.332 -0.0377 -0.1995 -0.1797
 5313SOL    HW116909   6.385   3.669   5.390 -0.2855 -0.4318 -0.6148
 5313SOL    HW216910   6.421   3.814   5.371 -0.8613 -0.2475 -0.3103
 5314SOL     OW16911   2.891   6.988   6.504  0.3156  0.4410 -0.4736
 5314SOL    HW116912   2.906   6.902   6.542 -2.9462  1.2361  3.3243
 5314SOL    HW216913   2.967   7.040   6.531 -0.1254 -0.0402  1.9131
 5315SOL     OW16914   5.691   1.760   3.067  0.1614  0.4271  0.2883
 5315SOL    HW116915   5.721   1.673   3.038 -1.1548 -0.7367  2.2370
 5315SOL    HW216916   5.624   1.784   3.003 -0.2426 -0.5011  0.3427
 5316SOL     OW16917   5.190   5.390   5.499  0.0084  0.4579 -0.5628
 5316SOL    HW116918   5.096   5.405   5.487 -0.5555 -2.4592 -0.4544
 5316SOL    HW216919   5.218   5.462   5.556 -1.8203  2.1736 -1.6675
 5317SOL     OW16920   6.522   2.224   0.550  0.1712  0.5464 -0.1271
 5317SOL    HW116921   6.442   2.211   0.499  1.0672  0.6360 -1.6376
 5317SOL    HW216922   6.533   2.319   0.554  1.5024  0.5631 -2.2037
 5318SOL     OW16923   3.742   3.909   4.217 -0.1806 -0.2794  0.2063
 5318SOL    HW116924   3.785   3.995   4.217  0.5335 -0.5787 -1.7397
 5318SOL    HW216925   3.810   3.849   4.248 -0.8532 -0.1214  2.1187
 5319SOL     OW16926   1.877   0.528   6.978  0.1191 -0.2904 -0.7747
 5319SOL    HW116927   1.959   0.516   7.025  0.5363  0.8116 -1.1949
 5319SOL    HW216928   1.819   0.572   7.040  0.7389  1.3594 -1.3046
 5320SOL     OW16929   3.952   1.513   1.843 -0.0702  0.5388 -0.2529
 5320SOL    HW116930   3.868   1.556   1.860 -0.3338  0.0724 -0.3608
 5320SOL    HW216931   4.000   1.523   1.926 -0.7062 -0.2643  0.2237
 5321SOL     OW16932   1.146   6.157   2.385 -0.1174 -0.5026 -0.1696
 5321SOL    HW116933   1.141   6.102   2.463 -1.2621 -0.4277 -0.1771
 5321SOL    HW216934   1.231   6.202   2.393  0.7218 -2.0498 -0.0483
 5322SOL     OW16935   1.860   4.899   5.649  0.5359 -0.1298 -0.2926
 5322SOL    HW116936   1.848   4.959   5.724  0.7587 -2.1054  1.4060
 5322SOL    HW216937   1.790   4.834   5.659 -0.3990  0.3849 -2.7347
 5323SOL     OW16938   7.019   4.270   0.709 -0.4696  0.2870 -0.1916
 5323SOL    HW116939   7.022   4.230   0.796  1.5998  3.0651  1.1896
 5323SOL    HW216940   6.926   4.278   0.689 -0.9801 -1.4228  1.2553
 5324SOL     OW16941   5.341   4.402   1.783 -0.0392 -0.6528  0.7439
 5324SOL    HW116942   5.296   4.398   1.699  0.5762  0.5674  0.3497
 5324SOL    HW216943   5.276   4.369   1.846 -0.2242 -2.3846 -0.2874
 5325SOL     OW16944   1.099   1.496   5.620 -0.2615  0.1500 -0.3644
 5325SOL    HW116945   1.025   1.472   5.565  0.2938 -2.3667 -0.1467
 5325SOL    HW216946   1.082   1.452   5.704  1.3075 -0.2890 -0.2353
 5326SOL     OW16947   6.513   2.803   4.472  0.4156  0.1904 -0.5934
 5326SOL    HW116948   6.462   2.804   4.553  2.9523  0.7653  1.1233
 5326SOL    HW216949   6.477   2.876   4.421 -0.9464  0.0982  0.1786
 5327SOL     OW16950   4.657   0.003   2.055  0.3528  0.2116 -0.3080
 5327SOL    HW116951   4.581  -0.020   2.001  0.3193  1.5957 -0.8953
 5327SOL    HW216952   4.625   0.072   2.113  1.6590  2.3768 -2.0354
 5328SOL     OW16953   5.493   0.105   7.299 -0.2656  0.1734  0.2071
 5328SOL    HW116954   5.401   0.078   7.294 -0.4595  0.7077  0.8232
 5328SOL    HW216955   5.539   0.026   7.329 -0.0841 -0.9603 -2.7564
 5329SOL     OW16956   0.151   3.470   2.141  0.0788 -0.5611  0.0069
 5329SOL    HW116957   0.228   3.422   2.110  1.4300  0.6792  1.2823
 5329SOL    HW216958   0.130   3.530   2.070  0.1673 -1.0078 -0.4067
 5330SOL     OW16959   4.115   0.838   4.731  0.5355 -0.1547 -0.2251
 5330SOL    HW116960   4.039   0.813   4.784  0.2653 -1.8496 -1.3309
 5330SOL    HW216961   4.175   0.764   4.739  0.3638 -0.5996 -2.4478
 5331SOL     OW16962   3.279   5.208   3.065  0.1394 -1.0444  0.4085
 5331SOL    HW116963   3.321   5.242   3.144 -0.1931 -1.2047  0.6607
 5331SOL    HW216964   3.289   5.278   3.000 -1.1335 -0.1388  1.1169
 5332SOL     OW16965   5.917   3.219   6.664 -0.1123 -0.2620 -0.6124
 5332SOL    HW116966   5.917   3.124   6.652 -0.3352 -0.0152 -2.9960
 5332SOL    HW216967   5.943   3.254   6.579  2.1388  1.7959  0.7973
 5333SOL     OW16968   1.545   3.757   2.794  0.0779  0.3237 -0.4721
 5333SOL    HW116969   1.450   3.766   2.786  0.0578  0.5226 -0.0481
 5333SOL    HW216970   1.573   3.723   2.709 -0.7720 -3.0992  0.4733
 5334SOL     OW16971   2.351   5.885   3.034  0.2130 -0.0243  0.6167
 5334SOL    HW116972   2.324   5.932   3.113 -0.1457  0.1372  0.3962
 5334SOL    HW216973   2.446   5.873   3.046  0.3663  1.0101  0.5430
 5335SOL     OW16974   5.503   3.711   0.600  0.4149  0.1165  0.1582
 5335SOL    HW116975   5.442   3.781   0.576 -0.5152 -0.5366  0.5313
 5335SOL    HW216976   5.506   3.714   0.696  0.7492 -0.0503  0.1550
 5336SOL     OW16977   5.215   1.980   1.607 -0.1377  0.4641  0.4040
 5336SOL    HW116978   5.237   1.941   1.523 -1.4005  0.1471  0.2055
 5336SOL    HW216979   5.244   1.915   1.672 -1.2953 -0.3632  0.1124
 5337SOL     OW16980   5.638   6.522   7.269 -0.2787  0.7160 -0.1679
 5337SOL    HW116981   5.636   6.606   7.224  1.7222  0.6272 -0.5105
 5337SOL    HW216982   5.567   6.472   7.230 -1.1107  2.0190 -0.3820
 5338SOL     OW16983   1.706   1.512   3.716 -0.2539 -0.2624  0.0276
 5338SOL    HW116984   1.795   1.482   3.732  0.3935  0.3442 -2.1946
 5338SOL    HW216985   1.673   1.454   3.647 -1.0989  0.3681 -0.1129
 5339SOL     OW16986   2.684   3.348   6.925 -0.3820 -0.0101 -0.6859
 5339SOL    HW116987   2.696   3.440   6.950 -1.0265  0.0553 -0.5835
 5339SOL    HW216988   2.592   3.330   6.946 -1.0100  0.0745 -3.0571
 5340SOL     OW16989   2.331   3.360   4.380  0.2144 -0.4222 -0.1807
 5340SOL    HW116990   2.369   3.446   4.397 -1.1497  0.3852 -1.0739
 5340SOL    HW216991   2.259   3.352   4.443 -1.9691  0.6771 -2.3954
 5341SOL     OW16992   2.662   1.937   5.084  0.3290  0.0587  0.3324
 5341SOL    HW116993   2.667   1.842   5.091  1.1796 -0.0072 -0.8239
 5341SOL    HW216994   2.748   1.963   5.049 -0.4064  1.0816 -0.8112
 5342SOL     OW16995   5.876   1.441   4.904 -0.3057  0.3732 -0.1360
 5342SOL    HW116996   5.786   1.453   4.936  0.4103 -1.0535  2.7350
 5342SOL    HW216997   5.884   1.505   4.833 -3.9001 -0.2030 -1.2721
 5343SOL     OW16998   4.055   6.054   4.697 -0.1476 -0.0547  0.2705
 5343SOL    HW116999   4.144   6.019   4.709  0.6336  2.0357  0.9807
 5343SOL    HW217000   4.010   6.033   4.779 -0.3847 -1.2297 -0.1388
 5344SOL     OW17001   2.952   3.616   3.344 -0.0005 -0.3399 -0.4648
 5344SOL    HW117002   2.900   3.539   3.368 -1.8697  1.0358  0.1509
 5344SOL    HW217003   2.938   3.625   3.250  0.6734 -1.0405 -0.6439
 5345SOL     OW17004   3.545   3.025   2.260 -0.5463 -1.1906  0.1697
 5345SOL    HW117005   3.628   2.986   2.234  0.4828  0.4635  0.8270
 5345SOL    HW217006   3.483   2.999   2.191  0.6430 -1.9928 -0.6218
 5346SOL     OW17007   1.127   2.920   5.432  0.1423 -0.0298  0.4487
 5346SOL    HW117008   1.079   2.861   5.374 -2.1804  2.3042 -0.1623
 5346SOL    HW217009   1.075   2.923   5.512  0.1861  1.1939  0.4480
 5347SOL     OW17010   0.985   0.557   4.665 -0.4118  0.1687 -0.1228
 5347SOL    HW117011   1.081   0.555   4.659 -0.3468  1.3640  0.2845
 5347SOL    HW217012   0.962   0.649   4.656 -1.4063  0.1169  1.4045
 5348SOL     OW17013   7.076   4.403   6.408 -0.0017  0.2733 -0.0584
 5348SOL    HW117014   6.991   4.422   6.369  0.1319 -0.2374 -0.6128
 5348SOL    HW217015   7.057   4.387   6.500 -0.5226  0.0231 -0.2087
 5349SOL     OW17016   4.663   0.988   3.762  0.5214 -0.1471  0.2201
 5349SOL    HW117017   4.737   0.965   3.706 -1.5578 -2.2911 -1.8371
 5349SOL    HW217018   4.671   0.929   3.837  0.4904 -0.8939 -0.3556
 5350SOL     OW17019   3.234   4.725   6.944 -0.4985 -0.6106  0.7740
 5350SOL    HW117020   3.146   4.750   6.916 -0.6642 -0.7950  1.1186
 5350SOL    HW217021   3.249   4.640   6.904 -0.0351 -0.0956 -0.1913
 5351SOL     OW17022   3.196   6.673   6.529 -0.3071  0.4001 -0.6690
 5351SOL    HW117023   3.181   6.579   6.520 -0.3386  0.4366 -1.0133
 5351SOL    HW217024   3.113   6.707   6.563 -0.5659  0.4118 -1.2959
 5352SOL     OW17025   5.671   5.678   2.712 -0.4159  0.0275 -0.6727
 5352SOL    HW117026   5.633   5.695   2.626  0.3095  1.0705 -0.8038
 5352SOL    HW217027   5.756   5.637   2.693 -0.5449 -0.3592 -0.4313
 5353SOL     OW17028   1.145   5.227   7.293 -0.5016  0.5808  0.2612
 5353SOL    HW117029   1.178   5.138   7.282 -1.6873 -0.0222  1.3757
 5353SOL    HW217030   1.222   5.282   7.284  0.2419 -0.5389 -0.5313
 5354SOL     OW17031   0.228   0.565   2.352  0.3644 -0.1775  0.3043
 5354SOL    HW117032   0.190   0.652   2.340  0.4098 -0.1211  0.5682
 5354SOL    HW217033   0.285   0.553   2.276  3.7470  1.7731  2.2557
 5355SOL     OW17034   7.041   3.209   1.834 -0.5153 -0.2660  0.6715
 5355SOL    HW117035   6.991   3.197   1.753  0.3908 -0.2054  0.0789
 5355SOL    HW217036   7.105   3.277   1.811 -0.8538  0.4322  1.7372
 5356SOL     OW17037   2.727   4.336   6.293 -0.3620  0.0690  0.0368
 5356SOL    HW117038   2.646   4.293   6.320 -0.1073 -2.0649 -2.2723
 5356SOL    HW217039   2.791   4.265   6.285  1.4798  1.5604  0.6892
 5357SOL     OW17040   4.106   0.191   6.546 -0.3616 -0.4651 -0.0778
 5357SOL    HW117041   4.088   0.283   6.567  2.8504 -0.0401  1.3877
 5357SOL    HW217042   4.069   0.142   6.620  0.5272 -0.0484  0.6578
 5358SOL     OW17043   6.585   2.808   3.591 -0.1378 -0.2237 -0.0057
 5358SOL    HW117044   6.615   2.899   3.583 -0.3202 -0.1029  0.6474
 5358SOL    HW217045   6.655   2.756   3.553  0.3496  0.1336  0.4034
 5359SOL     OW17046   4.122   1.690   6.378 -0.5024  0.0399 -0.2474
 5359SOL    HW117047   4.099   1.761   6.438  2.3428  0.4699  0.4828
 5359SOL    HW217048   4.188   1.639   6.424  1.9948  0.5118 -2.9664
 5360SOL     OW17049   2.865   4.747   3.055 -0.5143  0.0462 -0.3174
 5360SOL    HW117050   2.863   4.679   3.123  2.2490  0.0276 -0.1542
 5360SOL    HW217051   2.775   4.750   3.023 -1.2480 -2.0751  1.2469
 5361SOL     OW17052   5.602   4.102   4.030 -0.1357  0.8883  0.0117
 5361SOL    HW117053   5.633   4.107   4.121  0.7555 -1.4812 -0.0937
 5361SOL    HW217054   5.527   4.162   4.027  0.7692  2.2316  1.8669
 5362SOL     OW17055   2.455   0.178   0.005 -0.0501 -0.5973 -0.0610
 5362SOL    HW117056   2.490   0.123   0.075  0.7208  2.3295  2.0444
 5362SOL    HW217057   2.524   0.179  -0.062  0.1424 -1.7060  0.1120
 5363SOL     OW17058   6.357   3.050   2.729  0.1094 -0.6370 -0.1044
 5363SOL    HW117059   6.310   3.022   2.651  0.3847  0.8817 -0.8548
 5363SOL    HW217060   6.370   2.970   2.780 -1.0549 -1.4770 -1.0728
 5364SOL     OW17061   4.101   5.429   0.485  0.1474  0.2892 -0.0232
 5364SOL    HW117062   4.067   5.458   0.569 -1.6907  2.2048 -1.3532
 5364SOL    HW217063   4.028   5.382   0.444  1.4318 -1.7900 -0.0742
 5365SOL     OW17064   0.366   6.451   4.464  0.0373  1.1004 -0.8266
 5365SOL    HW117065   0.388   6.435   4.556 -1.6400  1.4348 -0.3322
 5365SOL    HW217066   0.429   6.517   4.435  1.2071  0.2726 -0.2138
 5366SOL     OW17067   2.197   3.459   1.337  0.3094  0.1590  0.0237
 5366SOL    HW117068   2.199   3.549   1.304  0.4216  0.2495  0.2814
 5366SOL    HW217069   2.251   3.461   1.415  0.7721 -0.2599 -0.2830
 5367SOL     OW17070   6.232   7.241   2.993  0.2297 -0.0217 -0.2066
 5367SOL    HW117071   6.246   7.308   3.059 -0.5521 -0.3636  0.3275
 5367SOL    HW217072   6.299   7.175   3.011  1.0342  0.6347 -0.7699
 5368SOL     OW17073   0.474   6.068   6.358 -0.0444  0.1302  0.1006
 5368SOL    HW117074   0.439   6.063   6.447 -0.3727  0.0759 -0.0325
 5368SOL    HW217075   0.544   6.133   6.364 -0.6115  0.7378  0.2212
 5369SOL     OW17076   7.192   2.040   0.966  0.0266 -0.1122  0.3385
 5369SOL    HW117077   7.202   1.969   0.903  0.0901 -1.3168  1.6432
 5369SOL    HW217078   7.256   2.106   0.939 -1.0278  0.1350 -1.7433
 5370SOL     OW17079   6.796   6.026   4.739  0.7502 -0.3037  0.4867
 5370SOL    HW117080   6.860   6.008   4.807  0.1124 -0.0357  1.1768
 5370SOL    HW217081   6.712   6.002   4.779  0.4879 -1.4819 -0.6912
 5371SOL     OW17082   2.969   0.040   6.135  0.0951  0.0407  0.4964
 5371SOL    HW117083   2.944  -0.019   6.206  0.0886 -1.2148 -0.5118
 5371SOL    HW217084   2.886   0.076   6.104 -0.0211 -0.3923  0.2985
 5372SOL     OW17085   3.766   6.338   5.385 -0.6177  0.2527  0.1355
 5372SOL    HW117086   3.675   6.332   5.413 -0.3960  1.8227  1.3117
 5372SOL    HW217087   3.799   6.248   5.391 -1.5967 -0.0483  1.4166
 5373SOL     OW17088   2.396   5.824   7.209 -0.1634 -0.6397  0.6669
 5373SOL    HW117089   2.323   5.836   7.269 -0.7951  1.8240 -0.4448
 5373SOL    HW217090   2.360   5.772   7.137 -1.3372  1.7035 -0.5427
 5374SOL     OW17091   2.283   2.520   3.801  0.0836 -0.1701  0.1255
 5374SOL    HW117092   2.283   2.505   3.706  1.2182  0.2661  0.0352
 5374SOL    HW217093   2.348   2.458   3.835  0.7155  0.6485  0.4345
 5375SOL     OW17094   4.344   0.437   2.304  0.6198  0.3021 -0.4675
 5375SOL    HW117095   4.398   0.402   2.233  0.5888  0.4961 -0.5882
 5375SOL    HW217096   4.358   0.377   2.377 -0.2291 -0.5464 -0.9855
 5376SOL     OW17097   5.806   4.942   1.331 -0.1800 -0.1268 -0.4103
 5376SOL    HW117098   5.867   4.892   1.277  0.5653  0.9604 -0.6073
 5376SOL    HW217099   5.846   4.944   1.418 -1.7122 -2.4711  0.4483
 5377SOL     OW17100   2.987   6.385   5.237  0.1681 -0.3954 -0.2233
 5377SOL    HW117101   2.905   6.359   5.195  1.0408 -0.9700 -1.6344
 5377SOL    HW217102   3.034   6.435   5.171  1.3467 -0.8358  0.2457
 5378SOL     OW17103   0.525   0.018   1.844  0.5263  0.5460  0.7242
 5378SOL    HW117104   0.574   0.030   1.925  1.6086  0.3374  0.1147
 5378SOL    HW217105   0.539  -0.074   1.820  0.7138  0.7540 -0.0081
 5379SOL     OW17106   4.813   7.188   1.966  0.2071 -0.3017 -0.0003
 5379SOL    HW117107   4.764   7.260   2.006  0.7951 -0.6717  1.4558
 5379SOL    HW217108   4.754   7.113   1.970  0.1566 -0.2710 -0.1351
 5380SOL     OW17109   1.684   0.243   5.478  0.3117  0.0633 -0.1991
 5380SOL    HW117110   1.595   0.277   5.489  0.7864  1.3764 -0.2215
 5380SOL    HW217111   1.683   0.158   5.521 -1.1908 -0.3479 -0.9708
 5381SOL     OW17112   2.419   1.683   3.195 -0.3037 -0.0480  0.3465
 5381SOL    HW117113   2.481   1.641   3.254  0.7037 -0.8552 -1.2236
 5381SOL    HW217114   2.393   1.614   3.134 -1.3571  0.7402 -0.1292
 5382SOL     OW17115   4.041   6.765   2.648  0.6102 -0.3097 -0.3109
 5382SOL    HW117116   3.954   6.805   2.641  0.9084  0.5633  0.8102
 5382SOL    HW217117   4.023   6.673   2.670 -0.0281 -0.1812 -0.2870
 5383SOL     OW17118   3.673   0.305   3.971  0.2934 -0.1451 -0.2326
 5383SOL    HW117119   3.703   0.252   4.045  1.8430 -0.0175 -0.7156
 5383SOL    HW217120   3.670   0.394   4.004  1.4222 -0.0235 -0.4102
 5384SOL     OW17121   0.129   5.282   6.234  0.4806  0.2195  0.2339
 5384SOL    HW117122   0.129   5.198   6.188 -2.3800  1.6461 -2.7668
 5384SOL    HW217123   0.054   5.277   6.293 -1.5277  1.5176 -2.0441
 5385SOL     OW17124   1.320   4.110   4.990  0.0783  0.0104  0.0738
 5385SOL    HW117125   1.378   4.179   4.957  1.6149 -1.1341  0.2476
 5385SOL    HW217126   1.347   4.098   5.082 -0.6882 -0.2880  0.2677
 5386SOL     OW17127   4.184   3.610   3.223  0.2145  0.0006 -0.4834
 5386SOL    HW117128   4.230   3.567   3.150 -0.3244  1.1606 -1.5566
 5386SOL    HW217129   4.220   3.699   3.225  1.8020 -0.5923  2.1359
 5387SOL     OW17130   3.754   1.319   4.559 -0.7487 -0.6023  0.0895
 5387SOL    HW117131   3.810   1.385   4.599 -1.8774 -0.5236  1.6267
 5387SOL    HW217132   3.670   1.364   4.546 -0.7837 -1.0108 -1.2137
 5388SOL     OW17133   1.824   2.094   4.743 -0.0826 -0.2236  0.0320
 5388SOL    HW117134   1.878   2.025   4.706  1.3472  0.6228  0.4841
 5388SOL    HW217135   1.798   2.147   4.668 -1.7450 -1.5490 -0.4173
 5389SOL     OW17136   6.004   4.266   6.192 -0.4391  0.1933  0.8718
 5389SOL    HW117137   5.952   4.301   6.265 -0.8867 -0.2747  0.7853
 5389SOL    HW217138   5.980   4.173   6.189 -1.4960  0.4960 -0.7662
 5390SOL     OW17139   0.948   0.715   2.039  0.8712 -0.4752  0.2223
 5390SOL    HW117140   0.973   0.756   1.956  0.1658 -1.3255 -0.4450
 5390SOL    HW217141   0.955   0.621   2.021  0.1896 -0.6745  0.9484
 5391SOL     OW17142   3.317   3.017   1.796  0.0633  0.1202  0.0947
 5391SOL    HW117143   3.341   3.088   1.736  0.0484 -0.0570 -0.1219
 5391SOL    HW217144   3.231   3.042   1.829  0.1920  0.3576  0.2603
 5392SOL     OW17145   4.294   4.650   5.943 -0.2205  0.8491  0.2175
 5392SOL    HW117146   4.302   4.742   5.971 -0.1267  0.9534 -0.1465
 5392SOL    HW217147   4.340   4.601   6.011 -0.3090  1.0673  0.4384
 5393SOL     OW17148   3.371   0.951   5.007 -0.3068  0.2160 -0.0577
 5393SOL    HW117149   3.436   0.910   5.065  0.2778 -0.0487 -0.8862
 5393SOL    HW217150   3.338   1.026   5.058  1.3438  0.9208  0.0446
 5394SOL     OW17151   4.051   4.422   2.445  0.0095  0.0412 -0.0309
 5394SOL    HW117152   4.005   4.341   2.465  1.9319 -0.7059  1.6830
 5394SOL    HW217153   4.106   4.400   2.370  1.3011 -0.6141  1.0634
 5395SOL     OW17154   7.345   4.459   4.452  0.7047 -0.3786 -0.0708
 5395SOL    HW117155   7.303   4.544   4.467  2.8144  1.0042 -1.4723
 5395SOL    HW217156   7.278   4.395   4.474 -1.2462  1.6454  0.2187
 5396SOL     OW17157   3.134   6.277   6.867  0.7424  0.0967 -0.0960
 5396SOL    HW117158   3.150   6.330   6.945  1.3560 -0.5613  0.2402
 5396SOL    HW217159   3.220   6.266   6.827  0.4234  0.4996 -0.9305
 5397SOL     OW17160   0.880   6.972   4.196  0.5387 -0.2751 -1.2038
 5397SOL    HW117161   0.808   7.018   4.238  0.1690 -1.0412 -0.9872
 5397SOL    HW217162   0.938   6.947   4.269 -0.5947 -2.4733 -0.9861
 5398SOL     OW17163   3.160   5.996   5.483 -0.1346 -0.5891  0.5061
 5398SOL    HW117164   3.181   6.090   5.486 -1.7940 -0.1958  0.5860
 5398SOL    HW217165   3.157   5.976   5.389  0.6265 -0.6853  0.4904
 5399SOL     OW17166   6.785   0.914   3.054 -0.2708  0.8626  0.1893
 5399SOL    HW117167   6.818   0.980   3.115 -0.5273  2.5841 -1.4716
 5399SOL    HW217168   6.864   0.873   3.018 -0.0873 -1.2663  2.6670
 5400SOL     OW17169   2.576   0.186   5.720  0.2739 -0.3533 -0.3688
 5400SOL    HW117170   2.512   0.247   5.759  0.6013  0.6629 -1.3572
 5400SOL    HW217171   2.568   0.201   5.625  1.3240 -0.8935 -0.5538
 5401SOL     OW17172   6.176   5.831   4.606  0.5619  0.4208 -0.3083
 5401SOL    HW117173   6.154   5.903   4.665  2.0538  0.5733  0.1128
 5401SOL    HW217174   6.092   5.801   4.571 -0.5096 -0.3676  2.6838
 5402SOL     OW17175   2.070   0.662   6.780 -0.0740 -0.7102 -0.3669
 5402SOL    HW117176   2.001   0.631   6.839 -1.4960  0.3503 -1.3978
 5402SOL    HW217177   2.094   0.748   6.814 -0.6292 -0.2627 -1.0630
 5403SOL     OW17178   7.103   4.090   2.001 -0.1340 -0.2980  0.1062
 5403SOL    HW117179   7.025   4.097   1.947  1.8383  0.6760 -2.8639
 5403SOL    HW217180   7.097   4.162   2.063 -0.6544  1.0708 -1.4733
 5404SOL     OW17181   6.253   3.828   4.849 -0.2345  0.4203 -0.0467
 5404SOL    HW117182   6.257   3.753   4.910 -0.4964  0.7166  0.3365
 5404SOL    HW217183   6.178   3.810   4.793 -2.3926  1.9637  2.1414
 5405SOL     OW17184   5.745   5.165   4.173 -0.2260 -0.0419 -0.7020
 5405SOL    HW117185   5.753   5.255   4.141 -0.1653  0.0279 -0.4938
 5405SOL    HW217186   5.792   5.112   4.108  1.1723  0.2555  0.0223
 5406SOL     OW17187   0.446   1.204   1.471 -0.2736 -0.1866  0.5526
 5406SOL    HW117188   0.530   1.171   1.503 -1.0858 -0.9378  2.0162
 5406SOL    HW217189   0.417   1.137   1.409 -1.1422 -1.5324  2.2887
 5407SOL     OW17190   5.660   1.819   5.946  0.4660  0.1161 -0.4069
 5407SOL    HW117191   5.653   1.853   5.857  2.2445  0.5006 -0.4301
 5407SOL    HW217192   5.661   1.724   5.935  0.6119  0.1595 -0.7918
 5408SOL     OW17193   1.853   3.362   2.058 -0.3572 -0.6703 -0.3844
 5408SOL    HW117194   1.768   3.404   2.068 -0.2847 -0.5105 -0.4374
 5408SOL    HW217195   1.843   3.301   1.985 -0.7068 -1.3679  0.2287
 5409SOL     OW17196   4.603   2.571   4.008  0.6723 -0.1621 -0.1916
 5409SOL    HW117197   4.571   2.583   4.097 -0.6177  1.8377 -0.8368
 5409SOL    HW217198   4.691   2.610   4.008  0.8328 -0.5172  0.2708
 5410SOL     OW17199   1.091   6.862   3.060 -0.4943 -0.1547  0.1372
 5410SOL    HW117200   1.048   6.914   2.991  0.2780  1.7666  1.0420
 5410SOL    HW217201   1.182   6.854   3.030 -0.4627 -0.4467  0.3127
 5411SOL     OW17202   3.717   6.526   3.769 -0.5473 -0.1302 -0.2670
 5411SOL    HW117203   3.806   6.511   3.738  0.3739  2.1490  0.9786
 5411SOL    HW217204   3.727   6.541   3.863 -2.2056  0.4594 -0.1561
 5412SOL     OW17205   6.290   2.218   5.605 -0.6569 -0.2769  0.4205
 5412SOL    HW117206   6.291   2.138   5.554 -0.2251 -1.1818  1.8034
 5412SOL    HW217207   6.374   2.220   5.650 -0.0155  1.7395 -0.7151
 5413SOL     OW17208   6.910   2.458   0.235  0.0395 -0.3104  0.0479
 5413SOL    HW117209   6.946   2.545   0.254 -0.9165 -0.3209  2.0861
 5413SOL    HW217210   6.853   2.473   0.159  1.3165  0.4381 -0.8107
 5414SOL     OW17211   0.172   1.147   3.766 -0.6224 -0.1241  0.5741
 5414SOL    HW117212   0.189   1.118   3.856  0.7009  0.8328  0.6776
 5414SOL    HW217213   0.257   1.179   3.735 -1.6208  2.2381 -0.0060
 5415SOL     OW17214   4.420   5.652   6.127  0.2518  0.1074 -0.5509
 5415SOL    HW117215   4.338   5.687   6.161  0.7238 -0.1344  0.9173
 5415SOL    HW217216   4.485   5.720   6.147  0.6829 -0.3873 -0.2359
 5416SOL     OW17217   6.186   0.483   5.823 -0.0772  0.2464 -0.0273
 5416SOL    HW117218   6.168   0.408   5.766 -0.5506  0.5910 -0.3435
 5416SOL    HW217219   6.101   0.526   5.832 -0.0406  0.1439  1.0282
 5417SOL     OW17220   5.834   3.997   1.210  0.1887 -0.3721  0.5942
 5417SOL    HW117221   5.825   4.059   1.282 -0.3992  0.2881 -0.0332
 5417SOL    HW217222   5.892   3.929   1.244 -0.6183 -0.4345  1.9295
 5418SOL     OW17223   6.609   2.998   7.370  0.6257  0.1574 -0.2778
 5418SOL    HW117224   6.672   2.943   7.417  0.5891  0.7430  0.4683
 5418SOL    HW217225   6.608   3.081   7.418 -0.8754  0.0880 -0.1415
 5419SOL     OW17226   0.547   5.576   6.275  0.0963 -0.1938  0.1717
 5419SOL    HW117227   0.598   5.597   6.196 -0.1251  0.1705  0.1273
 5419SOL    HW217228   0.484   5.647   6.283  1.5387  0.9802  1.9179
 5420SOL     OW17229   6.594   4.168   4.447  0.0892 -0.3085  0.0456
 5420SOL    HW117230   6.518   4.218   4.476  0.9677  0.9815  0.1825
 5420SOL    HW217231   6.559   4.107   4.381 -1.2119 -0.4356  0.8224
 5421SOL     OW17232   1.594   3.498   6.683 -0.5910 -0.0999 -0.0863
 5421SOL    HW117233   1.550   3.578   6.655  0.4226  0.2406 -0.7509
 5421SOL    HW217234   1.676   3.498   6.635  0.2530 -0.5985  1.3183
 5422SOL     OW17235   2.132   1.502   3.597 -0.4204  0.5325 -0.5711
 5422SOL    HW117236   2.164   1.471   3.512 -0.6833 -0.1620 -0.4178
 5422SOL    HW217237   2.208   1.495   3.655 -0.6804 -0.5607 -0.3509
 5423SOL     OW17238   0.314   7.141   0.776 -0.3430  0.1770 -0.1531
 5423SOL    HW117239   0.254   7.068   0.764  0.1040 -0.0894 -0.8853
 5423SOL    HW217240   0.316   7.156   0.870 -2.8519  1.3026 -0.2106
 5424SOL     OW17241   1.783   3.927   3.938  0.3008  0.3907 -0.0734
 5424SOL    HW117242   1.778   3.878   4.019 -0.9799 -0.5575 -0.7016
 5424SOL    HW217243   1.877   3.939   3.923  0.5699 -0.0959  1.1270
 5425SOL     OW17244   5.071   7.043   2.281 -0.6431 -0.2327  0.0282
 5425SOL    HW117245   5.118   7.050   2.364 -0.5512  2.2427 -0.1719
 5425SOL    HW217246   5.140   7.049   2.214 -0.8203 -1.1999 -0.2592
 5426SOL     OW17247   6.561   1.849   5.252 -0.1463 -0.1188 -0.2315
 5426SOL    HW117248   6.468   1.829   5.252 -0.1527 -0.3722  1.9394
 5426SOL    HW217249   6.603   1.772   5.290  1.2195 -0.7998 -2.8609
 5427SOL     OW17250   5.228   2.645   7.094  0.5292 -0.0044 -0.5968
 5427SOL    HW117251   5.170   2.718   7.114  0.8380  0.3484 -0.9682
 5427SOL    HW217252   5.201   2.615   7.007  0.0757 -0.6599 -0.2383
 5428SOL     OW17253   1.389   3.090   6.246 -0.2619  0.0348 -0.2604
 5428SOL    HW117254   1.311   3.059   6.199  0.8885  0.4581 -2.6181
 5428SOL    HW217255   1.429   3.152   6.185  2.5177 -1.0236  0.3834
 5429SOL     OW17256   4.790   7.021   4.004 -0.2696 -0.0666  0.3489
 5429SOL    HW117257   4.792   7.038   3.910 -2.2135 -0.4767  0.1901
 5429SOL    HW217258   4.802   6.926   4.011 -3.6770 -0.6329  0.1814
 5430SOL     OW17259   1.355   5.981   5.408 -0.5495  0.0060 -0.0609
 5430SOL    HW117260   1.331   6.006   5.498  2.0283 -0.0793  0.7126
 5430SOL    HW217261   1.270   5.971   5.364 -1.9751 -0.9998  2.6209
 5431SOL     OW17262   2.056   0.097   6.115  0.1683  0.3349  0.5467
 5431SOL    HW117263   2.145   0.128   6.132  0.0147  1.1437 -0.0260
 5431SOL    HW217264   2.004   0.177   6.108 -0.7641 -0.1444  1.6274
 5432SOL     OW17265   1.120   7.301   6.296  0.1908  0.1535  0.4591
 5432SOL    HW117266   1.104   7.277   6.205 -0.1364  0.3105  0.4757
 5432SOL    HW217267   1.206   7.344   6.295  0.1118  0.3033  0.2016
 5433SOL     OW17268   3.657   2.786   6.145  0.0082  0.3693  0.0769
 5433SOL    HW117269   3.662   2.716   6.211 -0.4104  0.7944  0.5720
 5433SOL    HW217270   3.651   2.867   6.196 -3.0032  0.5662 -0.3814
 5434SOL     OW17271   6.489   2.262   6.885 -0.2977 -0.5228  0.2526
 5434SOL    HW117272   6.440   2.222   6.956 -1.8949 -0.6354 -0.8718
 5434SOL    HW217273   6.565   2.301   6.928 -1.7684  0.3772  2.1934
 5435SOL     OW17274   3.286   2.917   6.211 -0.1968 -0.1432 -0.1087
 5435SOL    HW117275   3.192   2.899   6.220 -0.5272 -0.2836 -3.0530
 5435SOL    HW217276   3.312   2.867   6.134  2.0275  0.9494 -0.1177
 5436SOL     OW17277   7.375   2.957   6.706 -0.5919  0.5086  0.4222
 5436SOL    HW117278   7.408   3.035   6.752 -0.7878  0.5319  0.5294
 5436SOL    HW217279   7.287   2.983   6.678 -0.3819  0.5812 -0.1857
 5437SOL     OW17280   0.071   7.323   3.586 -0.4377  0.4453  0.0662
 5437SOL    HW117281   0.068   7.396   3.648 -0.6726 -0.7996  1.5804
 5437SOL    HW217282   0.154   7.278   3.606 -1.2586 -0.8847  0.6092
 5438SOL     OW17283   6.211   0.313   3.065  0.2638 -0.9110 -0.2191
 5438SOL    HW117284   6.234   0.346   3.152 -0.9559 -1.9532  0.5324
 5438SOL    HW217285   6.233   0.220   3.068  1.8603 -0.6373 -1.6581
 5439SOL     OW17286   4.959   1.467   1.201  1.0239  0.2007 -0.4300
 5439SOL    HW117287   4.916   1.408   1.263  1.8866  0.7521  0.7377
 5439SOL    HW217288   4.964   1.417   1.120 -1.9324  0.1555 -0.7199
 5440SOL     OW17289   0.070   1.881   7.271  0.0425 -0.0250  0.0336
 5440SOL    HW117290   0.006   1.810   7.280  0.4384 -0.2591  1.2343
 5440SOL    HW217291   0.058   1.914   7.182 -1.4140 -0.3799  0.0797
 5441SOL     OW17292   4.996   6.253   2.979 -0.5856 -0.0098 -0.3451
 5441SOL    HW117293   4.930   6.251   2.910  1.3258 -0.8561 -2.2529
 5441SOL    HW217294   5.014   6.161   2.998 -1.1054  0.2099  1.3543
 5442SOL     OW17295   3.834   3.276   1.331  0.3586 -0.8868 -0.0068
 5442SOL    HW117296   3.880   3.276   1.248  0.9531 -0.6021  0.3160
 5442SOL    HW217297   3.903   3.275   1.397 -0.0610  0.4662  0.4975
 5443SOL     OW17298   1.095   1.332   6.352  0.0952  0.2777  0.1457
 5443SOL    HW117299   1.052   1.351   6.435  0.8990 -3.8346  1.7291
 5443SOL    HW217300   1.188   1.332   6.372  0.5682  2.3291 -1.6303
 5444SOL     OW17301   1.712   6.574   0.200 -0.1473 -0.1863  0.5899
 5444SOL    HW117302   1.799   6.569   0.239 -0.2019  1.7325  1.0518
 5444SOL    HW217303   1.698   6.667   0.184 -0.1653 -0.7583 -4.0259
 5445SOL     OW17304   1.746   2.039   6.819 -0.0710  0.4116 -0.1978
 5445SOL    HW117305   1.731   1.953   6.778 -1.5374  1.2384 -1.4764
 5445SOL    HW217306   1.740   2.101   6.747  0.4585  1.6540  0.8028
 5446SOL     OW17307   4.280   1.233   7.038  0.2323 -0.1888  0.3229
 5446SOL    HW117308   4.222   1.229   7.115 -0.1169  0.1579  0.0809
 5446SOL    HW217309   4.364   1.203   7.071  0.7701  2.2915  1.4979
 5447SOL     OW17310   5.132   4.015   0.367  0.0105 -0.6045 -0.4756
 5447SOL    HW117311   5.098   3.928   0.347  0.1480 -1.0827  1.1764
 5447SOL    HW217312   5.059   4.061   0.409 -0.0017  0.0088 -1.1580
 5448SOL     OW17313   5.210   2.732   4.415 -0.5229  0.1171  0.2386
 5448SOL    HW117314   5.126   2.686   4.409 -1.7884  1.9106  2.4252
 5448SOL    HW217315   5.267   2.672   4.463 -0.7068 -0.8934 -0.7660
 5449SOL     OW17316   1.936   4.168   2.630  0.2777 -0.0037  0.2434
 5449SOL    HW117317   1.992   4.188   2.705 -0.6453  1.0981  0.6561
 5449SOL    HW217318   1.862   4.120   2.667 -0.2633  0.6889  0.0600
 5450SOL     OW17319   4.228   7.189   1.368  0.0927 -0.0615  0.1932
 5450SOL    HW117320   4.261   7.198   1.278  0.4564 -0.2362  0.3094
 5450SOL    HW217321   4.239   7.096   1.389 -0.2864 -0.0812  0.3052
 5451SOL     OW17322   5.001   5.049   0.729 -0.0531  0.3794  0.0738
 5451SOL    HW117323   5.024   5.058   0.637  0.0778 -0.1590  0.0499
 5451SOL    HW217324   4.990   5.139   0.760 -0.5695  0.5539 -0.5852
 5452SOL     OW17325   5.915   1.786   6.574 -0.1137  0.1151  0.0398
 5452SOL    HW117326   5.998   1.790   6.527  0.7942  0.0402  1.5697
 5452SOL    HW217327   5.921   1.855   6.640 -0.8766 -0.4747  0.7575
 5453SOL     OW17328   0.107   1.442   4.389  0.2251 -0.0450 -0.1349
 5453SOL    HW117329   0.149   1.496   4.456 -0.7871 -0.8026  1.1568
 5453SOL    HW217330   0.016   1.469   4.389 -0.0485 -0.9338 -0.2981
 5454SOL     OW17331   7.371   6.532   5.302  0.6125  0.4138 -0.2666
 5454SOL    HW117332   7.306   6.579   5.355  1.2321  0.5672  0.3787
 5454SOL    HW217333   7.435   6.501   5.366  1.9623  1.5431 -1.0091
 5455SOL     OW17334   5.689   1.962   7.009  0.1119 -0.5635 -0.2809
 5455SOL    HW117335   5.724   2.048   7.032  1.7733 -1.2225 -0.1926
 5455SOL    HW217336   5.609   1.953   7.061  1.0514  0.0601  1.3337
 5456SOL     OW17337   2.515   1.770   6.194  0.2043  0.1694  0.0631
 5456SOL    HW117338   2.458   1.820   6.136  0.4918 -0.1616 -0.5159
 5456SOL    HW217339   2.573   1.722   6.135 -0.2476 -1.0684  0.5778
 5457SOL     OW17340   3.016   0.507   1.519 -0.1403  0.3226  0.1599
 5457SOL    HW117341   2.957   0.469   1.454 -0.3232  0.1529  0.4236
 5457SOL    HW217342   2.974   0.489   1.603 -0.4727  1.5214  0.2646
 5458SOL     OW17343   4.017   5.095   3.508 -0.2119 -0.1164  0.5787
 5458SOL    HW117344   3.973   5.012   3.487  1.2084 -1.0382  1.1025
 5458SOL    HW217345   3.946   5.154   3.532 -1.5089 -0.4128 -2.0967
 5459SOL     OW17346   2.384   1.217   5.372 -0.1279  0.5293 -0.5279
 5459SOL    HW117347   2.457   1.174   5.416 -1.4522 -0.7965  0.4740
 5459SOL    HW217348   2.353   1.153   5.309 -2.2766 -0.1797  1.1421
 5460SOL     OW17349   7.086   5.077   4.192 -0.1964  0.8993  0.1006
 5460SOL    HW117350   7.179   5.059   4.180  0.0884  2.0092  0.5629
 5460SOL    HW217351   7.051   4.995   4.230  0.6877  0.6498  0.3995
 5461SOL     OW17352   5.450   3.156   6.379 -0.4985 -0.2097 -0.0158
 5461SOL    HW117353   5.459   3.200   6.294  0.1766 -0.4337 -0.0728
 5461SOL    HW217354   5.372   3.194   6.418 -0.0031  0.9675 -0.1098
 5462SOL     OW17355   1.350   2.976   5.844  0.2250 -0.0771  0.3307
 5462SOL    HW117356   1.364   2.990   5.750  1.1273 -0.0771  0.4592
 5462SOL    HW217357   1.266   2.929   5.848 -1.4082  2.5785 -0.2785
 5463SOL     OW17358   3.884   1.185   3.615  0.2329 -0.2718 -0.4148
 5463SOL    HW117359   3.847   1.115   3.669 -1.5584  1.5775  0.9165
 5463SOL    HW217360   3.816   1.202   3.549  1.8509 -1.6171 -2.5969
 5464SOL     OW17361   2.329   0.632   4.311 -0.9993  0.0970  0.3151
 5464SOL    HW117362   2.414   0.623   4.355 -1.4738 -1.2805  1.0067
 5464SOL    HW217363   2.269   0.579   4.363 -1.2995 -2.8504 -2.7052
 5465SOL     OW17364   0.839   6.911   3.557  0.0686 -0.2924  0.0541
 5465SOL    HW117365   0.919   6.863   3.538 -0.3028 -1.2086  0.7294
 5465SOL    HW217366   0.862   6.968   3.631  1.0154  1.9743 -1.8581
 5466SOL     OW17367   4.583   3.046   5.902  0.1976  0.2313 -0.7829
 5466SOL    HW117368   4.661   3.015   5.949  0.2052 -2.0420 -2.1108
 5466SOL    HW217369   4.519   2.976   5.914 -1.6686  2.0140  0.2065
 5467SOL     OW17370   3.370   5.236   6.199  0.2473 -0.5493  0.4089
 5467SOL    HW117371   3.352   5.219   6.291 -0.4589  3.2275  1.1447
 5467SOL    HW217372   3.458   5.274   6.198  0.4399 -0.9974 -0.5348
 5468SOL     OW17373   1.590   6.004   1.041  0.4687 -0.3521 -0.0067
 5468SOL    HW117374   1.578   6.074   0.977  0.4315 -1.2385 -1.0194
 5468SOL    HW217375   1.526   5.937   1.014  2.5001 -2.0370 -0.9607
 5469SOL     OW17376   4.989   1.854   4.326 -0.0505  0.2290  0.1349
 5469SOL    HW117377   5.021   1.939   4.358 -1.5738  0.4646  1.1443
 5469SOL    HW217378   5.012   1.792   4.395 -2.2155  0.5117  1.1823
 5470SOL     OW17379   3.254   0.258   6.847  0.1613 -0.3418  0.6394
 5470SOL    HW117380   3.179   0.277   6.789  0.8121 -0.9957 -0.4557
 5470SOL    HW217381   3.215   0.252   6.934 -1.4062 -2.3061 -0.0850
 5471SOL     OW17382   2.501   1.642   4.827 -0.1493  0.2014 -0.2544
 5471SOL    HW117383   2.427   1.617   4.772  0.0412  0.5971 -0.6982
 5471SOL    HW217384   2.462   1.696   4.896 -0.4005 -0.3665  0.0576
 5472SOL     OW17385   0.551   2.923   5.277 -0.0169  0.5487  0.1731
 5472SOL    HW117386   0.573   2.842   5.230  0.2749  0.3759  0.6046
 5472SOL    HW217387   0.626   2.939   5.334  0.0630  1.2992 -0.1347
 5473SOL     OW17388   4.840   4.155   3.003  0.2456  0.4644 -0.0210
 5473SOL    HW117389   4.803   4.211   2.936  0.5930 -0.1597 -0.7459
 5473SOL    HW217390   4.774   4.151   3.072 -0.8520 -0.2704 -1.0844
 5474SOL     OW17391   6.102   3.400   0.315  0.1980  0.0778  0.2654
 5474SOL    HW117392   6.083   3.490   0.288 -1.7369 -0.5317 -0.5403
 5474SOL    HW217393   6.145   3.410   0.400 -2.1217  1.7188  1.3625
 5475SOL     OW17394   4.638   0.086   5.640 -0.2726 -0.0235 -0.1129
 5475SOL    HW117395   4.731   0.068   5.657 -0.1435  2.3103  2.3619
 5475SOL    HW217396   4.639   0.154   5.572  0.0950  2.1678  1.9572
 5476SOL     OW17397   6.466   5.837   3.280  0.5923 -0.2615  0.5442
 5476SOL    HW117398   6.400   5.858   3.214  2.0597 -2.3645 -1.8119
 5476SOL    HW217399   6.418   5.833   3.362 -2.1585 -1.2053 -0.9722
 5477SOL     OW17400   4.299   4.640   4.755 -0.2171 -0.1901  0.5162
 5477SOL    HW117401   4.238   4.621   4.827  0.7426 -0.3751  1.2999
 5477SOL    HW217402   4.343   4.557   4.738  0.4845  0.1567  0.6010
 5478SOL     OW17403   6.878   5.321   0.612 -0.6564 -0.1497 -0.6856
 5478SOL    HW117404   6.801   5.378   0.620 -1.2276 -0.8068 -1.3422
 5478SOL    HW217405   6.874   5.288   0.522  0.3352 -0.2924 -0.6909
 5479SOL     OW17406   6.700   3.368   0.396  0.1316  0.6007  0.7087
 5479SOL    HW117407   6.778   3.320   0.424  1.6758  2.4880 -0.0915
 5479SOL    HW217408   6.640   3.362   0.470  1.4306 -0.0581  1.7602
 5480SOL     OW17409   6.750   3.943   2.149 -0.3619 -0.3303 -0.2421
 5480SOL    HW117410   6.673   3.911   2.195 -0.1087 -0.4948  0.0734
 5480SOL    HW217411   6.738   3.913   2.058  0.4519 -2.4302  0.2746
 5481SOL     OW17412   7.341   0.159   4.546  0.2789 -0.3192 -0.0988
 5481SOL    HW117413   7.305   0.084   4.500 -0.8467 -1.0585  1.8325
 5481SOL    HW217414   7.276   0.228   4.534 -0.6110 -0.8768  1.2908
 5482SOL     OW17415   4.202   6.553   6.756 -0.0236  0.0605 -0.1380
 5482SOL    HW117416   4.159   6.514   6.679  0.2464 -0.5429  0.0092
 5482SOL    HW217417   4.132   6.561   6.821 -0.3514  0.9690 -0.5755
 5483SOL     OW17418   2.479   4.169   2.665  0.2794 -0.6185 -0.1815
 5483SOL    HW117419   2.573   4.168   2.680  0.5300  1.2025 -1.3075
 5483SOL    HW217420   2.458   4.082   2.631  1.3496 -1.3739  1.0057
 5484SOL     OW17421   1.409   0.153   2.472  0.3214 -0.2352 -0.8064
 5484SOL    HW117422   1.401   0.114   2.385  0.3345 -0.3880 -0.7399
 5484SOL    HW217423   1.330   0.206   2.481  0.6041  0.2556 -1.1435
 5485SOL     OW17424   7.052   7.201   4.987  0.1730 -0.3237  0.6895
 5485SOL    HW117425   6.998   7.270   5.026 -1.2728 -0.6336 -0.6299
 5485SOL    HW217426   7.021   7.120   5.027 -0.0533 -0.4620  0.2456
 5486SOL     OW17427   7.173   1.590   3.844 -0.2012  0.6448  0.2163
 5486SOL    HW117428   7.174   1.531   3.769  1.3378  1.7321 -0.6842
 5486SOL    HW217429   7.205   1.537   3.917 -0.3235 -0.0479 -0.2288
 5487SOL     OW17430   4.566   4.640   0.214  0.5144  0.3177  0.3378
 5487SOL    HW117431   4.592   4.550   0.232  0.4729  0.7207  2.7011
 5487SOL    HW217432   4.481   4.632   0.170 -0.4400 -0.8153  2.2545
 5488SOL     OW17433   2.314   3.889   0.541  0.3653  0.1020  0.7140
 5488SOL    HW117434   2.238   3.887   0.483  1.5623  0.7024 -0.9508
 5488SOL    HW217435   2.280   3.863   0.626 -1.3705 -1.3698 -0.3606
 5489SOL     OW17436   0.630   5.846   1.038 -0.1178 -0.0176  0.3751
 5489SOL    HW117437   0.675   5.859   0.954 -0.7076 -0.1754  0.0295
 5489SOL    HW217438   0.700   5.823   1.099  0.2938 -0.1026 -0.1192
 5490SOL     OW17439   1.639   1.153   4.710  0.5846  0.4886 -0.3077
 5490SOL    HW117440   1.592   1.070   4.709 -0.3692  1.0163 -0.7193
 5490SOL    HW217441   1.693   1.151   4.631  1.2089 -0.0960  0.1330
 5491SOL     OW17442   2.554   4.534   4.847  0.2810  0.6643 -0.0088
 5491SOL    HW117443   2.628   4.481   4.818  0.6704  1.2712 -0.1334
 5491SOL    HW217444   2.568   4.545   4.941 -0.1524  0.0036  0.1412
 5492SOL     OW17445   5.528   3.348   0.313 -0.5972  0.6460  0.3998
 5492SOL    HW117446   5.603   3.397   0.347  0.7027 -0.8624 -0.1590
 5492SOL    HW217447   5.565   3.294   0.243 -2.2555 -0.0046 -0.0133
 5493SOL     OW17448   5.754   0.460   4.886 -0.1970  0.1980  0.7112
 5493SOL    HW117449   5.801   0.403   4.947  1.4470  0.0744 -0.5821
 5493SOL    HW217450   5.672   0.480   4.930 -0.6728 -2.7886  1.4230
 5494SOL     OW17451   6.775   1.220   2.056 -0.1709  0.1338 -0.0920
 5494SOL    HW117452   6.735   1.137   2.083  0.5099 -0.4638 -0.8540
 5494SOL    HW217453   6.859   1.195   2.018  0.5031  1.2731  0.5875
 5495SOL     OW17454   3.268   2.078   6.451  0.0669 -0.0655 -0.1084
 5495SOL    HW117455   3.196   2.027   6.490  0.7560 -1.4243 -0.5817
 5495SOL    HW217456   3.257   2.067   6.357 -1.0287  2.4493 -0.3750
 5496SOL     OW17457   5.038   2.058   1.166 -0.1037 -0.1020 -0.5327
 5496SOL    HW117458   5.084   2.137   1.135 -0.1315  1.0542  2.0365
 5496SOL    HW217459   4.950   2.088   1.187 -0.2693 -0.9321  0.0067
 5497SOL     OW17460   3.281   5.134   4.152 -0.1579 -0.3031 -0.4804
 5497SOL    HW117461   3.320   5.106   4.069  1.0097 -2.9028  0.8557
 5497SOL    HW217462   3.203   5.079   4.162  0.0530 -0.4458  0.4326
 5498SOL     OW17463   4.329   0.285   3.101  0.1529 -0.0177  0.0700
 5498SOL    HW117464   4.283   0.320   3.177 -0.8263  0.2917 -0.6382
 5498SOL    HW217465   4.375   0.208   3.134 -3.1592 -2.1229  0.3173
 5499SOL     OW17466   6.762   5.066   6.433  0.2822 -0.0469 -0.2489
 5499SOL    HW117467   6.692   5.071   6.367  0.2858  0.5224 -0.2123
 5499SOL    HW217468   6.783   5.157   6.453 -0.5031 -0.1845  1.3606
 5500SOL     OW17469   2.729   2.136   2.102 -0.2732 -0.2204  0.2099
 5500SOL    HW117470   2.806   2.175   2.142  0.5153 -1.0729 -0.4443
 5500SOL    HW217471   2.735   2.159   2.009 -1.8533  1.3621  0.4324
 5501SOL     OW17472   4.135   3.990   5.075  0.2351  0.6416  0.5812
 5501SOL    HW117473   4.155   3.903   5.042  1.2541  1.2717 -0.5408
 5501SOL    HW217474   4.044   4.005   5.052  0.0650 -0.1001  0.7481
 5502SOL     OW17475   7.009   0.455   1.167 -0.6579 -0.0507  0.6136
 5502SOL    HW117476   7.027   0.495   1.082 -2.3874  0.0927  0.2698
 5502SOL    HW217477   6.954   0.380   1.147 -0.7529 -0.2539  1.5770
 5503SOL     OW17478   3.665   0.004   6.889 -0.2311  0.2418 -0.5428
 5503SOL    HW117479   3.698  -0.068   6.942 -0.6651  0.4803  0.0638
 5503SOL    HW217480   3.721   0.078   6.912  2.1211 -0.5176 -3.2797
 5504SOL     OW17481   1.353   0.808   7.009  0.3064 -0.4523  0.0489
 5504SOL    HW117482   1.300   0.857   7.072 -0.4637  0.1157 -1.0009
 5504SOL    HW217483   1.303   0.729   6.992  0.7038 -0.7904  0.4327
 5505SOL     OW17484   2.023   6.751   7.373 -0.3096  0.0939  0.3813
 5505SOL    HW117485   1.972   6.801   7.310 -0.3677 -0.9285 -0.3988
 5505SOL    HW217486   2.068   6.684   7.321 -2.3868 -2.4698  1.6673
 5506SOL     OW17487   3.074   4.099   2.406  0.2088 -0.3614  0.4181
 5506SOL    HW117488   3.085   4.119   2.499  0.7743 -0.2932  0.3437
 5506SOL    HW217489   3.100   4.007   2.399  0.1726 -0.3640  0.3311
 5507SOL     OW17490   3.753   4.348   4.417  0.0536  0.3105  0.1754
 5507SOL    HW117491   3.830   4.379   4.370 -0.1720  0.0675 -0.3675
 5507SOL    HW217492   3.737   4.261   4.382 -1.9932  1.3265 -1.6773
 5508SOL     OW17493   6.514   4.424   6.742 -0.0683 -0.4422 -0.5129
 5508SOL    HW117494   6.567   4.372   6.681 -0.6522 -0.1072 -1.3292
 5508SOL    HW217495   6.575   4.450   6.811  0.6073 -0.8428 -0.9519
 5509SOL     OW17496   1.779   4.060   0.323  0.0400 -0.2776  0.2216
 5509SOL    HW117497   1.752   3.969   0.312 -0.5700 -0.0093 -0.5974
 5509SOL    HW217498   1.725   4.093   0.394  0.4006 -0.6010  0.6547
 5510SOL     OW17499   1.441   5.869   7.139  0.2495 -0.2528  0.0523
 5510SOL    HW117500   1.366   5.810   7.133 -0.1771  0.3102 -0.1229
 5510SOL    HW217501   1.486   5.860   7.055  1.0383 -1.4513  0.5664
 5511SOL     OW17502   4.649   3.447   4.628  0.2316 -0.0938  0.4540
 5511SOL    HW117503   4.729   3.414   4.668  1.2772  0.7093 -0.8948
 5511SOL    HW217504   4.593   3.370   4.616  1.5206 -0.9525 -0.1710
 5512SOL     OW17505   1.991   1.860   7.065 -0.8080  0.0341 -0.2775
 5512SOL    HW117506   1.954   1.942   7.097  1.1390 -0.0620  2.5168
 5512SOL    HW217507   1.933   1.792   7.098 -1.8351  0.1504 -1.7199
 5513SOL     OW17508   4.543   2.405   2.750 -0.0188  0.2120  0.2144
 5513SOL    HW117509   4.453   2.428   2.773 -0.1816  0.3018 -0.4762
 5513SOL    HW217510   4.544   2.408   2.654 -0.1613 -2.9353  0.0131
 5514SOL     OW17511   4.412   5.459   2.867 -0.6414 -0.2032 -0.2939
 5514SOL    HW117512   4.492   5.410   2.882  1.1825  2.4990 -0.4757
 5514SOL    HW217513   4.377   5.475   2.955 -0.2562 -0.2730 -0.1258
 5515SOL     OW17514   2.521   0.257   4.003 -0.3355 -0.3783  0.3988
 5515SOL    HW117515   2.608   0.272   3.968  0.0780 -0.7856  1.2213
 5515SOL    HW217516   2.463   0.309   3.948  0.7148  2.0346  1.4448
 5516SOL     OW17517   4.732   4.988   2.041 -0.0330 -0.1161 -0.4926
 5516SOL    HW117518   4.774   5.069   2.012 -1.2012  0.9448  0.6422
 5516SOL    HW217519   4.638   5.007   2.038 -0.3095 -1.2543  0.2724
 5517SOL     OW17520   1.895   4.637   4.258 -0.0105 -0.6704 -0.1947
 5517SOL    HW117521   1.960   4.673   4.197 -0.7179 -0.0609 -0.5990
 5517SOL    HW217522   1.947   4.596   4.327  0.8363  1.9121  0.7850
 5518SOL     OW17523   5.012   6.222   3.312  0.7295  0.2080  0.1277
 5518SOL    HW117524   4.956   6.282   3.263  1.3636 -0.0740 -0.9824
 5518SOL    HW217525   4.952   6.157   3.349  0.1091  1.1327  0.8070
 5519SOL     OW17526   6.686   6.002   3.198 -0.2182 -0.0417  0.3908
 5519SOL    HW117527   6.709   5.974   3.109 -0.2719  1.1250 -0.0059
 5519SOL    HW217528   6.633   5.930   3.232 -0.8121 -0.2001 -0.7910
 5520SOL     OW17529   0.966   7.252   7.022 -0.4316  0.0003  0.0965
 5520SOL    HW117530   1.054   7.228   6.990 -0.5517 -0.6272  0.2100
 5520SOL    HW217531   0.961   7.211   7.108 -1.3159 -1.1136 -0.4484
 5521SOL     OW17532   4.350   6.504   3.674 -0.0187  0.3265  0.0871
 5521SOL    HW117533   4.343   6.498   3.579 -0.3824 -0.4544  0.1486
 5521SOL    HW217534   4.280   6.564   3.700 -0.4742 -0.1199 -0.0791
 5522SOL     OW17535   0.161   2.625   6.207 -0.1946  0.1876 -0.3946
 5522SOL    HW117536   0.135   2.533   6.214 -0.9960  0.5046  1.0482
 5522SOL    HW217537   0.080   2.674   6.216  0.1893  1.0584 -1.4116
 5523SOL     OW17538   3.236   6.399   0.020 -0.1246 -0.3487  0.4624
 5523SOL    HW117539   3.170   6.449   0.069  0.1822  0.1607  0.3585
 5523SOL    HW217540   3.299   6.371   0.086  1.9376  2.8770  0.0371
 5524SOL     OW17541   1.491   4.223   7.236  0.6365  0.1429 -0.5830
 5524SOL    HW117542   1.446   4.175   7.165 -0.4786  0.9878 -0.4692
 5524SOL    HW217543   1.456   4.311   7.231  2.4458  0.9055 -0.5842
 5525SOL     OW17544   6.657   6.809   6.617  0.5570  0.2636 -0.2048
 5525SOL    HW117545   6.687   6.758   6.692 -3.7932 -1.8282  0.4297
 5525SOL    HW217546   6.674   6.753   6.542  0.9195  0.4353 -0.2556
 5526SOL     OW17547   6.992   1.983   4.712 -0.1424 -0.1377  0.4663
 5526SOL    HW117548   6.958   1.937   4.635 -2.9110  0.8898  0.9237
 5526SOL    HW217549   7.005   2.073   4.683  1.9626 -0.4221  0.4237
 5527SOL     OW17550   4.570   1.856   2.877 -0.0611  0.2447 -0.3152
 5527SOL    HW117551   4.658   1.862   2.913 -0.2288  0.4910  0.0607
 5527SOL    HW217552   4.538   1.946   2.875 -0.5370  0.0920  0.1483
 5528SOL     OW17553   1.835   7.220   3.274 -0.3496  0.0291 -0.1671
 5528SOL    HW117554   1.835   7.222   3.369  0.3663 -0.3483 -0.1534
 5528SOL    HW217555   1.755   7.172   3.251 -0.0619 -0.6712  0.2692
 5529SOL     OW17556   0.597   5.207   2.910 -0.3020  0.1012  0.3412
 5529SOL    HW117557   0.545   5.167   2.839  3.7221 -2.2664 -1.6430
 5529SOL    HW217558   0.625   5.291   2.874  0.1642 -0.2555 -0.1588
 5530SOL     OW17559   0.492   4.484   3.163  0.0332 -0.0542  0.1121
 5530SOL    HW117560   0.504   4.551   3.096  1.1585 -0.0401  0.3213
 5530SOL    HW217561   0.528   4.404   3.124 -0.5642 -0.3609  0.1753
 5531SOL     OW17562   0.991   2.930   5.050  0.1903 -0.4804 -0.2606
 5531SOL    HW117563   0.954   2.868   5.112 -2.2611  0.8394 -0.2834
 5531SOL    HW217564   1.075   2.892   5.026  0.8036 -1.5746  3.0436
 5532SOL     OW17565   0.535   0.608   5.207 -0.0339 -0.0445 -0.0080
 5532SOL    HW117566   0.629   0.601   5.190 -0.1012  0.6748 -0.7506
 5532SOL    HW217567   0.528   0.614   5.302  0.6918  0.2020  0.0390
 5533SOL     OW17568   4.517   0.937   5.049  0.0417 -0.5081  0.0905
 5533SOL    HW117569   4.509   0.855   5.000 -0.3613 -0.6424  0.3762
 5533SOL    HW217570   4.458   0.997   5.005 -0.9638 -0.8694  0.8914
 5534SOL     OW17571   6.413   0.274   6.638 -0.3020  0.4767 -0.8662
 5534SOL    HW117572   6.378   0.328   6.708 -3.1432 -0.9983 -0.9815
 5534SOL    HW217573   6.507   0.270   6.655 -0.4975  2.4419  1.1783
 5535SOL     OW17574   0.842   4.518   3.038  0.2099  0.8253 -0.0476
 5535SOL    HW117575   0.748   4.531   3.052 -0.0270 -0.3368 -0.4926
 5535SOL    HW217576   0.880   4.522   3.126 -0.1754  1.8139  0.0849
 5536SOL     OW17577   6.305   2.096   4.936  0.3931 -0.5945 -0.0353
 5536SOL    HW117578   6.283   2.188   4.947 -0.7924 -0.9151  0.4592
 5536SOL    HW217579   6.221   2.050   4.943  0.9136 -1.6793 -0.6590
 5537SOL     OW17580   1.672   6.821   6.430 -0.0521  0.3463 -0.2395
 5537SOL    HW117581   1.616   6.891   6.397 -0.3553 -0.6671 -1.9711
 5537SOL    HW217582   1.729   6.799   6.357 -1.7147 -3.0061 -0.7117
 5538SOL     OW17583   6.556   2.186   5.116 -0.1536 -0.7913 -0.3306
 5538SOL    HW117584   6.579   2.222   5.030  1.9288 -0.2022  0.4244
 5538SOL    HW217585   6.522   2.098   5.096 -0.6189 -0.3173 -1.8029
 5539SOL     OW17586   2.988   6.381   4.232 -0.2822  0.7968 -0.0644
 5539SOL    HW117587   3.075   6.404   4.262 -0.8447  2.1590  0.5681
 5539SOL    HW217588   2.995   6.379   4.136  0.3540  1.2072 -0.0261
 5540SOL     OW17589   4.761   7.334   1.689  0.3803 -0.2052  0.1893
 5540SOL    HW117590   4.684   7.391   1.698 -0.5867 -1.3676 -0.4254
 5540SOL    HW217591   4.762   7.282   1.769  0.3503 -0.4036  0.0604
 5541SOL     OW17592   2.514   7.306   4.580  0.5735  0.1532  0.3852
 5541SOL    HW117593   2.487   7.389   4.540  2.0713  0.7954  0.6222
 5541SOL    HW217594   2.455   7.241   4.542 -2.0668  1.5585  1.7880
 5542SOL     OW17595   0.355   6.821   3.170  0.0872  0.5093 -0.0660
 5542SOL    HW117596   0.315   6.836   3.255 -0.1900 -0.7687  0.0420
 5542SOL    HW217597   0.304   6.875   3.109 -0.2608  0.7522  0.4346
 5543SOL     OW17598   5.807   6.421   0.533 -0.2433  0.2244  0.5042
 5543SOL    HW117599   5.736   6.394   0.476  1.3603  0.8522 -1.9772
 5543SOL    HW217600   5.884   6.376   0.498  1.0893  1.8680  1.1879
 5544SOL     OW17601   5.832   0.023   5.060 -0.3281  0.0753 -0.2166
 5544SOL    HW117602   5.857  -0.010   5.146 -1.2091 -0.2572 -0.0807
 5544SOL    HW217603   5.846   0.118   5.066 -1.5770  0.2263  0.7214
 5545SOL     OW17604   3.230   4.648   5.676 -0.5599 -0.7379  0.2431
 5545SOL    HW117605   3.320   4.617   5.682 -0.1835  0.5436  2.7553
 5545SOL    HW217606   3.177   4.574   5.704  0.0102 -0.5516  1.9559
 5546SOL     OW17607   4.195   2.252   2.661 -1.0945  0.0825  0.0101
 5546SOL    HW117608   4.220   2.343   2.680  0.6310 -0.6039  1.2533
 5546SOL    HW217609   4.261   2.221   2.600 -0.5980 -0.8570  0.9842
 5547SOL     OW17610   1.164   1.150   0.634 -0.2198  0.2994  0.3251
 5547SOL    HW117611   1.183   1.244   0.632 -2.1713  0.7421  0.5293
 5547SOL    HW217612   1.147   1.131   0.726  0.8216 -0.4415  0.3913
 5548SOL     OW17613   3.898   2.522   7.285  0.2248  0.2099 -0.0562
 5548SOL    HW117614   3.960   2.580   7.240  0.9293 -0.5736 -0.1209
 5548SOL    HW217615   3.916   2.537   7.378 -0.3303  0.8672 -0.0467
 5549SOL     OW17616   3.855   0.339   4.815  0.5472  0.0833 -0.0560
 5549SOL    HW117617   3.881   0.326   4.723 -0.9356 -0.2722 -0.4425
 5549SOL    HW217618   3.933   0.313   4.865  0.5974 -2.0472 -1.1330
 5550SOL     OW17619   4.667   4.774   6.112 -0.1886  0.1867  0.2421
 5550SOL    HW117620   4.602   4.749   6.046  1.0407  0.7427 -1.2478
 5550SOL    HW217621   4.629   4.851   6.155 -0.2382  0.9687 -1.1230
 5551SOL     OW17622   3.485   5.312   7.309 -0.3088  0.0520  0.1817
 5551SOL    HW117623   3.456   5.247   7.244  0.5483 -3.0088  2.5835
 5551SOL    HW217624   3.570   5.342   7.276  0.0896 -1.3985 -0.1904
 5552SOL     OW17625   5.431   3.000   6.866 -0.6057 -0.3980 -0.1161
 5552SOL    HW117626   5.400   3.090   6.856 -0.5492 -0.0547  2.2286
 5552SOL    HW217627   5.478   3.000   6.950  0.8512 -2.2357 -0.8463
 5553SOL     OW17628   2.117   7.194   6.113 -0.1263  0.5440 -0.2194
 5553SOL    HW117629   2.212   7.183   6.111 -0.0268  1.3215 -0.2160
 5553SOL    HW217630   2.102   7.279   6.071 -1.0174 -0.6576 -2.4841
 5554SOL     OW17631   3.799   1.673   6.912 -0.0397 -0.0133 -0.3040
 5554SOL    HW117632   3.827   1.610   6.979 -1.3656  2.2658  2.6610
 5554SOL    HW217633   3.836   1.756   6.942 -1.1173  1.1999 -2.2015
 5555SOL     OW17634   4.359   4.605   0.059 -0.3048 -0.5200  0.1477
 5555SOL    HW117635   4.298   4.541   0.095  0.1783 -1.7431 -1.1191
 5555SOL    HW217636   4.303   4.677   0.027 -0.9182 -0.6962  0.8027
 5556SOL     OW17637   3.866   2.407   2.831  0.5521  0.2016 -0.0789
 5556SOL    HW117638   3.831   2.469   2.767  1.1090 -0.4150 -0.9928
 5556SOL    HW217639   3.851   2.321   2.793  0.2059 -0.2272  0.9738
 5557SOL     OW17640   3.905   3.461   4.461 -0.4444 -0.5187 -0.1773
 5557SOL    HW117641   3.871   3.524   4.524  0.9081  0.0044  0.0689
 5557SOL    HW217642   3.910   3.509   4.379 -0.6725 -0.7094 -0.3034
 5558SOL     OW17643   0.536   7.199   6.342  0.5945 -0.1843  0.0367
 5558SOL    HW117644   0.517   7.114   6.384  1.4211 -1.5105 -2.1240
 5558SOL    HW217645   0.620   7.226   6.379  0.4199 -0.4048  0.6013
 5559SOL     OW17646   4.916   3.307   4.461  0.1627  0.1019 -0.4190
 5559SOL    HW117647   4.909   3.297   4.556  0.9933 -0.5803 -0.4192
 5559SOL    HW217648   4.877   3.228   4.425  2.0965 -0.8596 -0.5568
 5560SOL     OW17649   4.238   6.541   2.572  0.1787 -0.1227 -0.0641
 5560SOL    HW117650   4.203   6.560   2.485  2.1373 -1.8786 -1.3222
 5560SOL    HW217651   4.321   6.589   2.576 -0.1093  0.3110  1.0386
 5561SOL     OW17652   4.108   6.136   1.727  0.6851  0.0475  0.2227
 5561SOL    HW117653   4.044   6.130   1.798  0.4862  0.7602  0.1173
 5561SOL    HW217654   4.068   6.196   1.664  1.2113  0.0536 -0.1141
 5562SOL     OW17655   5.420   6.431   0.098 -0.5140  0.1243 -0.1735
 5562SOL    HW117656   5.460   6.425   0.012  1.7443 -0.6023  0.8521
 5562SOL    HW217657   5.382   6.344   0.113  2.0290 -0.9059  0.8310
 5563SOL     OW17658   0.683   0.318   3.049 -0.1104 -0.1453 -0.1363
 5563SOL    HW117659   0.737   0.250   3.009  0.7416 -0.9869  2.2624
 5563SOL    HW217660   0.607   0.271   3.082 -1.6124  0.7857 -2.0377
 5564SOL     OW17661   2.884   4.574   6.217  0.5581  0.4659 -0.3171
 5564SOL    HW117662   2.803   4.524   6.220  1.4537 -1.0363 -0.2262
 5564SOL    HW217663   2.900   4.587   6.123  0.4993  0.2778 -0.3535
 5565SOL     OW17664   6.286   0.115   2.330 -0.5217 -0.4155 -0.7326
 5565SOL    HW117665   6.347   0.047   2.358  1.8009  1.8249  0.0429
 5565SOL    HW217666   6.228   0.128   2.406 -0.3535 -0.8791 -0.5242
 5566SOL     OW17667   2.783   0.619   3.046 -0.4706  0.6594 -0.5168
 5566SOL    HW117668   2.769   0.524   3.039  1.9560 -0.0513  2.2543
 5566SOL    HW217669   2.870   0.633   3.009  0.2768  1.2996  1.3565
 5567SOL     OW17670   5.624   0.731   6.359  0.2316 -0.2571 -0.0988
 5567SOL    HW117671   5.600   0.755   6.449  0.0477 -0.6518 -0.0394
 5567SOL    HW217672   5.720   0.731   6.359  0.2328 -0.0033  0.0278
 5568SOL     OW17673   5.671   6.716   4.205 -0.0391 -0.0038  0.0651
 5568SOL    HW117674   5.766   6.706   4.211  0.0682  0.7802 -0.1929
 5568SOL    HW217675   5.656   6.810   4.219 -0.7804 -0.1379  0.1871
 5569SOL     OW17676   5.664   1.110   3.267 -0.7820  0.1028 -0.4228
 5569SOL    HW117677   5.609   1.068   3.201 -2.6234  0.2778  0.9250
 5569SOL    HW217678   5.710   1.037   3.309 -1.3582 -0.2295 -0.3616
 5570SOL     OW17679   2.231   7.367   2.263 -0.3703  0.2176 -0.3785
 5570SOL    HW117680   2.216   7.297   2.200  1.2490  0.0572 -0.6139
 5570SOL    HW217681   2.181   7.441   2.229  0.3988  0.1032 -1.8202
 5571SOL     OW17682   5.591   0.705   2.540 -0.4560  0.2497 -0.0020
 5571SOL    HW117683   5.564   0.683   2.450  0.0160 -1.0994  0.1681
 5571SOL    HW217684   5.544   0.643   2.595  0.4875  0.0239  0.5615
 5572SOL     OW17685   5.899   2.791   6.184 -0.2934  0.1818  0.0545
 5572SOL    HW117686   5.816   2.790   6.231 -0.1084  0.8363  0.4027
 5572SOL    HW217687   5.885   2.849   6.109 -0.1985  0.1756  0.0309
 5573SOL     OW17688   3.267   3.844   7.029 -0.6796  0.3219 -0.2306
 5573SOL    HW117689   3.280   3.837   7.124 -1.2541  0.2466 -0.1525
 5573SOL    HW217690   3.173   3.860   7.019 -0.6269  0.2992 -0.7900
 5574SOL     OW17691   5.463   1.789   6.857  0.1094  0.0557 -0.2083
 5574SOL    HW117692   5.455   1.866   6.800 -0.8311 -0.9781 -1.5272
 5574SOL    HW217693   5.484   1.826   6.943 -2.6853  2.0211 -0.2054
 5575SOL     OW17694   1.402   4.607   2.866  0.3980  0.0294  0.0104
 5575SOL    HW117695   1.408   4.665   2.790  0.6619 -0.7875 -0.6239
 5575SOL    HW217696   1.487   4.615   2.909 -0.2619  1.6174  1.1069
 5576SOL     OW17697   3.744   3.851   0.218  0.2063 -0.2698 -0.1765
 5576SOL    HW117698   3.671   3.800   0.184  1.1870 -0.2265 -2.5022
 5576SOL    HW217699   3.797   3.787   0.266 -0.7308 -0.5270  0.5548
 5577SOL     OW17700   1.299   6.691   4.900  0.3275 -0.5345 -0.3154
 5577SOL    HW117701   1.300   6.773   4.850  1.1829 -0.6077 -0.4342
 5577SOL    HW217702   1.270   6.716   4.988  0.3434 -0.1475 -0.4202
 5578SOL     OW17703   6.052   2.516   2.024 -0.1717  0.4190  0.9647
 5578SOL    HW117704   6.098   2.599   2.011  1.6506 -0.6148  0.5305
 5578SOL    HW217705   5.982   2.517   1.959  0.9119  0.8862 -0.2442
 5579SOL     OW17706   6.795   5.577   4.211 -0.3394  0.8276 -0.6540
 5579SOL    HW117707   6.765   5.581   4.121  0.4215 -0.9860 -1.0209
 5579SOL    HW217708   6.855   5.503   4.214  0.4149  1.4401  1.1272
 5580SOL     OW17709   7.290   2.293   5.716 -0.4244  0.2503 -0.1099
 5580SOL    HW117710   7.231   2.218   5.715  0.0570 -0.1462 -1.2993
 5580SOL    HW217711   7.233   2.369   5.728 -1.0258 -0.2257  0.0636
 5581SOL     OW17712   3.606   5.351   2.745 -0.3396 -0.5494 -0.0352
 5581SOL    HW117713   3.642   5.436   2.718  1.4482 -1.0364  0.6593
 5581SOL    HW217714   3.511   5.363   2.741 -0.1363  1.4398 -0.1010
 5582SOL     OW17715   6.527   5.291   6.179 -0.0772  0.0718 -0.0883
 5582SOL    HW117716   6.452   5.328   6.225  1.4191  2.4716  0.5763
 5582SOL    HW217717   6.534   5.202   6.212 -1.8630  0.2089  0.7576
 5583SOL     OW17718   0.707   7.290   1.581  0.2406  0.2005 -0.4383
 5583SOL    HW117719   0.784   7.244   1.547 -0.8237 -2.4691  0.5206
 5583SOL    HW217720   0.671   7.231   1.648 -2.0963  1.7948 -0.1746
 5584SOL     OW17721   2.935   5.499   1.331  0.0672  0.1284  0.3612
 5584SOL    HW117722   2.891   5.580   1.355  0.1003 -0.1594  1.4463
 5584SOL    HW217723   2.971   5.516   1.244  0.2855  1.3641  0.6711
 5585SOL     OW17724   1.473   6.332   3.424 -0.0520  0.5644 -0.0685
 5585SOL    HW117725   1.562   6.303   3.404  0.3730  0.9817  1.1580
 5585SOL    HW217726   1.428   6.252   3.451 -0.0417  0.3675 -0.6064
 5586SOL     OW17727   0.078   6.659   6.369 -0.0886 -0.2964 -0.0398
 5586SOL    HW117728   0.130   6.738   6.351  1.1881 -1.0578  0.1447
 5586SOL    HW217729   0.093   6.641   6.462 -1.1024 -0.2624  0.1396
 5587SOL     OW17730   4.228   6.681   1.093 -0.5149 -0.2869 -0.1739
 5587SOL    HW117731   4.229   6.771   1.058  1.3370  0.2763  1.1493
 5587SOL    HW217732   4.285   6.685   1.170 -0.4222 -2.6149 -0.0589
 5588SOL     OW17733   4.160   6.675   2.935  0.4456  0.4807 -0.4179
 5588SOL    HW117734   4.119   6.598   2.896  0.3383  0.0692  0.4851
 5588SOL    HW217735   4.089   6.739   2.941  0.6061  0.7777 -1.4555
 5589SOL     OW17736   5.791   2.356   0.170 -0.2828  0.3129  0.5573
 5589SOL    HW117737   5.829   2.314   0.092  0.3409  0.0676  0.9864
 5589SOL    HW217738   5.722   2.412   0.135 -0.1034  0.0996 -0.1661
 5590SOL     OW17739   6.849   6.431   1.784  0.4382 -0.3469 -0.8419
 5590SOL    HW117740   6.869   6.505   1.841 -0.0579  0.4619 -1.6840
 5590SOL    HW217741   6.832   6.470   1.698 -2.2420 -1.1415 -0.7908
 5591SOL     OW17742   2.946   2.240   4.844 -0.2113  0.1934  0.7165
 5591SOL    HW117743   2.882   2.223   4.775  0.5738 -1.8413  0.4154
 5591SOL    HW217744   2.968   2.332   4.835 -0.4128  0.0736 -1.5060
 5592SOL     OW17745   1.575   2.745   6.828  0.4249  0.1968  0.1109
 5592SOL    HW117746   1.639   2.679   6.802  0.0177 -0.4008  0.5953
 5592SOL    HW217747   1.564   2.799   6.750  1.0532 -0.0672 -0.1729
 5593SOL     OW17748   3.751   6.362   4.661 -0.4558 -0.1297 -0.2270
 5593SOL    HW117749   3.820   6.414   4.621 -0.7844 -0.0760 -0.7376
 5593SOL    HW217750   3.791   6.324   4.738  0.6624 -1.4668 -1.4154
 5594SOL     OW17751   6.361   4.306   0.374  0.6743  0.2200  0.5767
 5594SOL    HW117752   6.326   4.218   0.391 -0.7983  1.0932  2.3419
 5594SOL    HW217753   6.414   4.326   0.451  2.5816  0.1988 -0.6541
 5595SOL     OW17754   3.027   2.465   4.472  0.3907  0.3080 -0.0792
 5595SOL    HW117755   2.963   2.465   4.543  0.1733  0.5693 -0.2753
 5595SOL    HW217756   2.976   2.441   4.394  0.9090 -1.6039  0.1049
 5596SOL     OW17757   3.915   1.460   1.278 -0.1209  0.0187 -0.4668
 5596SOL    HW117758   3.913   1.370   1.310  3.7951 -0.9069 -2.2148
 5596SOL    HW217759   3.990   1.500   1.323  0.0621  1.4215 -1.9201
 5597SOL     OW17760   6.689   5.653   6.249 -0.5038 -0.5674  0.1038
 5597SOL    HW117761   6.631   5.696   6.186 -0.3200 -0.8093 -0.2292
 5597SOL    HW217762   6.738   5.589   6.198 -0.7712 -1.1786  0.5956
 5598SOL     OW17763   0.177   6.436   3.065 -0.3383 -0.2252 -0.0762
 5598SOL    HW117764   0.107   6.387   3.023  0.2292 -0.9199 -0.2389
 5598SOL    HW217765   0.166   6.416   3.159 -0.0079 -0.8211 -0.1555
 5599SOL     OW17766   6.549   5.950   6.905 -0.1312  0.0166 -0.4816
 5599SOL    HW117767   6.523   5.976   6.993  1.5458  1.4976 -0.3540
 5599SOL    HW217768   6.529   5.857   6.900  0.7840 -0.3684  1.9021
 5600SOL     OW17769   6.777   5.800   3.785  0.1787  1.0752  0.3436
 5600SOL    HW117770   6.867   5.796   3.818  0.3828 -0.9274 -0.2773
 5600SOL    HW217771   6.735   5.723   3.824 -0.9306  1.3388 -0.3040
 5601SOL     OW17772   0.724   2.081   3.862 -0.0694 -0.4281  0.1416
 5601SOL    HW117773   0.819   2.091   3.859  0.0345 -1.1395  0.8689
 5601SOL    HW217774   0.690   2.170   3.849  0.6446 -0.4058 -1.7979
 5602SOL     OW17775   0.038   5.963   2.730 -0.8372  0.3516 -0.4591
 5602SOL    HW117776   0.065   5.980   2.639  1.6650  0.8877  0.3211
 5602SOL    HW217777  -0.051   5.928   2.722 -1.5715  2.4148 -2.9882
 5603SOL     OW17778   3.750   1.515   7.270  0.1663 -0.0128  0.3257
 5603SOL    HW117779   3.791   1.448   7.323  0.4738 -0.0707  0.0215
 5603SOL    HW217780   3.773   1.598   7.313  2.1965  0.1062 -0.8386
 5604SOL     OW17781   1.963   0.245   5.313 -0.2560  0.6564 -0.2748
 5604SOL    HW117782   1.876   0.206   5.306 -0.0333 -0.7617  3.1580
 5604SOL    HW217783   1.949   0.330   5.354 -0.0534  0.6780 -0.2470
 5605SOL     OW17784   6.736   3.018   4.851 -0.2384  0.1260 -0.0507
 5605SOL    HW117785   6.759   3.089   4.791  1.5602 -1.1661 -0.9332
 5605SOL    HW217786   6.700   2.950   4.796 -0.3470 -0.3430  0.5852
 5606SOL     OW17787   5.492   3.530   4.126 -0.1101 -0.1207 -0.2217
 5606SOL    HW117788   5.568   3.579   4.158  1.0327 -1.0041 -1.4739
 5606SOL    HW217789   5.506   3.522   4.032 -0.9682 -1.6473 -0.2580
 5607SOL     OW17790   3.104   5.203   7.195  0.3663  0.0340  0.1623
 5607SOL    HW117791   3.009   5.191   7.201  0.1161  1.1348 -0.9679
 5607SOL    HW217792   3.119   5.221   7.102  1.8664 -1.4651  0.0894
 5608SOL     OW17793   6.116   4.607   2.867  0.6359  0.0166  0.0067
 5608SOL    HW117794   6.112   4.522   2.911  0.6224  0.2549  0.4743
 5608SOL    HW217795   6.140   4.669   2.936 -0.5148  0.5713 -0.0629
 5609SOL     OW17796   4.372   0.762   3.548 -0.8929 -0.0702 -0.0194
 5609SOL    HW117797   4.400   0.695   3.485 -1.1158  0.0420 -0.2394
 5609SOL    HW217798   4.310   0.816   3.499  0.6625  1.4427 -0.4202
 5610SOL     OW17799   0.021   5.643   1.788 -0.1919  0.0557 -0.2371
 5610SOL    HW117800  -0.015   5.699   1.719 -0.8072  0.3089  0.2807
 5610SOL    HW217801   0.048   5.563   1.743  0.7973  0.7934 -1.0131
 5611SOL     OW17802   6.762   4.658   3.726 -0.1863  0.1894  0.0264
 5611SOL    HW117803   6.731   4.722   3.661 -0.5271  0.7639  0.7463
 5611SOL    HW217804   6.692   4.654   3.791  0.7256  0.6487  1.0721
 5612SOL     OW17805   4.341   2.153   2.408 -0.3355 -0.5192  0.0535
 5612SOL    HW117806   4.430   2.125   2.387 -0.1611 -1.6254  2.0464
 5612SOL    HW217807   4.285   2.082   2.378 -0.8114  0.8987 -2.7583
 5613SOL     OW17808   2.326   1.779   5.748 -0.3082  0.0393  0.0487
 5613SOL    HW117809   2.331   1.734   5.832  1.3008 -2.0193 -1.0352
 5613SOL    HW217810   2.328   1.708   5.683  1.3703  1.6036 -1.7555
 5614SOL     OW17811   7.000   3.653   1.702  0.4817  0.0732 -0.4087
 5614SOL    HW117812   6.933   3.635   1.769  0.6323  0.6712 -0.0943
 5614SOL    HW217813   6.971   3.734   1.661 -0.1698 -0.8117 -1.7978
 5615SOL     OW17814   1.520   3.935   1.049 -0.1124 -0.0805  0.3884
 5615SOL    HW117815   1.522   3.842   1.072 -0.1827 -0.2182 -0.1400
 5615SOL    HW217816   1.531   3.980   1.132 -1.2321 -0.5431  0.8116
 5616SOL     OW17817   4.491   0.694   4.932  0.0718  0.3846 -0.3127
 5616SOL    HW117818   4.493   0.606   4.971  2.3825  0.4715 -0.0804
 5616SOL    HW217819   4.539   0.685   4.850 -0.2323  1.3047 -0.6035
 5617SOL     OW17820   3.338   1.935   3.994 -0.2375  0.3107  0.5333
 5617SOL    HW117821   3.247   1.960   3.980 -0.4316 -1.0740 -0.9314
 5617SOL    HW217822   3.334   1.868   4.063 -0.7486 -1.9382 -1.5366
 5618SOL     OW17823   1.704   2.056   5.904  0.0658 -0.1331 -0.1117
 5618SOL    HW117824   1.769   2.005   5.854  0.9155  0.2389  0.5931
 5618SOL    HW217825   1.733   2.146   5.895 -1.0861  0.1869 -0.8374
 5619SOL     OW17826   7.040   4.380   6.673 -0.3597  0.2419  0.2155
 5619SOL    HW117827   7.049   4.296   6.719 -3.4798 -0.0027  0.6266
 5619SOL    HW217828   7.115   4.432   6.702  0.0981 -1.4177  2.2404
 5620SOL     OW17829   1.675   6.846   0.063 -0.4446 -0.0481 -0.0984
 5620SOL    HW117830   1.728   6.924   0.079 -1.6634  0.8747 -0.4040
 5620SOL    HW217831   1.716   6.804  -0.014  1.4548 -0.8953  1.2975
 5621SOL     OW17832   6.166   0.101   7.258  0.0375  0.4234 -0.0433
 5621SOL    HW117833   6.110   0.170   7.293 -0.8505 -0.0325 -0.5492
 5621SOL    HW217834   6.247   0.147   7.233 -1.2677  1.7068 -2.2982
 5622SOL     OW17835   4.644   0.994   2.058 -0.1676 -0.3332 -0.0811
 5622SOL    HW117836   4.601   0.984   1.973  0.2943  0.4555 -0.4075
 5622SOL    HW217837   4.572   1.010   2.119 -0.4683 -0.5633 -0.3683
 5623SOL     OW17838   2.380   2.808   0.091  0.3163  0.2064  0.3788
 5623SOL    HW117839   2.376   2.741   0.159 -0.6975 -0.3560 -0.2183
 5623SOL    HW217840   2.326   2.774   0.020  2.3039  0.2151 -1.2466
 5624SOL     OW17841   5.404   0.383   0.949  0.3036 -0.0439 -0.7238
 5624SOL    HW117842   5.456   0.371   0.870 -0.6952  2.1431 -1.7842
 5624SOL    HW217843   5.351   0.303   0.954  0.7123 -0.4206 -1.9962
 5625SOL     OW17844   4.372   1.007   6.519 -0.1663 -0.5076  0.1262
 5625SOL    HW117845   4.390   0.962   6.437  2.2631 -1.5831  1.1627
 5625SOL    HW217846   4.455   1.049   6.542 -1.8349  3.1858  0.1145
 5626SOL     OW17847   6.858   6.214   3.230  0.0054 -0.4792  0.5358
 5626SOL    HW117848   6.800   6.138   3.236 -2.5528  1.0357 -2.1301
 5626SOL    HW217849   6.827   6.273   3.299 -0.9974 -0.1177 -0.1970
 5627SOL     OW17850   3.054   6.185   4.568  0.7125 -0.4130  0.7606
 5627SOL    HW117851   3.069   6.109   4.512  0.4978  0.5951 -0.7424
 5627SOL    HW217852   3.107   6.169   4.646  1.8008 -1.4351 -0.1504
 5628SOL     OW17853   3.907   0.535   3.916 -0.6429 -0.0455  0.1183
 5628SOL    HW117854   3.833   0.558   3.973  0.0233 -1.5805  1.7313
 5628SOL    HW217855   3.980   0.522   3.977  1.0390  1.5564 -1.4400
 5629SOL     OW17856   0.361   2.226   5.421 -0.1488 -0.3166 -0.5159
 5629SOL    HW117857   0.340   2.227   5.328  0.0236  3.7706 -0.7069
 5629SOL    HW217858   0.278   2.204   5.464 -0.5617 -0.9402 -1.5933
 5630SOL     OW17859   0.293   2.283   4.636  0.1530  0.8364 -0.0411
 5630SOL    HW117860   0.214   2.299   4.585 -0.0870  1.7000  0.5950
 5630SOL    HW217861   0.310   2.365   4.682 -0.2600 -0.2256  2.1320
 5631SOL     OW17862   3.352   4.279   6.426 -0.6104  0.2708 -0.0270
 5631SOL    HW117863   3.291   4.301   6.356 -0.8998  0.5351  0.3073
 5631SOL    HW217864   3.422   4.344   6.419 -0.3508 -0.0447 -0.4223
 5632SOL     OW17865   1.772   7.316   0.786  0.0451  0.5587  0.5696
 5632SOL    HW117866   1.730   7.395   0.821 -1.3538 -0.5405  1.5362
 5632SOL    HW217867   1.726   7.298   0.704  0.2197  0.6323  0.4553
 5633SOL     OW17868   4.519   5.787   0.541  0.3694 -0.4766  0.2759
 5633SOL    HW117869   4.452   5.841   0.498  0.2151 -1.3738 -0.6602
 5633SOL    HW217870   4.577   5.761   0.470  0.0243 -2.1155  0.5658
 5634SOL     OW17871   2.625   2.934   2.433 -0.2613 -0.1009 -0.1448
 5634SOL    HW117872   2.577   2.970   2.508  1.1355 -0.7844  1.1288
 5634SOL    HW217873   2.716   2.957   2.449  0.1782 -0.9790 -1.2247
 5635SOL     OW17874   5.613   0.579   1.948  0.3935 -0.5105 -0.2861
 5635SOL    HW117875   5.636   0.666   1.980  0.8637 -0.3584 -1.0187
 5635SOL    HW217876   5.555   0.543   2.016  2.6535 -0.8414  1.6124
 5636SOL     OW17877   2.201   0.234   7.001  0.3965 -0.1929 -0.2733
 5636SOL    HW117878   2.231   0.177   7.072  0.9830 -0.1492 -0.4736
 5636SOL    HW217879   2.175   0.174   6.932  3.7012 -0.3274 -1.6144
 5637SOL     OW17880   7.297   6.142   1.649 -0.0611 -0.5842 -0.6409
 5637SOL    HW117881   7.273   6.216   1.593 -0.0322 -0.2234 -0.1858
 5637SOL    HW217882   7.337   6.183   1.726  0.3657 -1.0931 -0.5833
 5638SOL     OW17883   7.202   7.059   4.200 -0.1871 -0.5172  0.0357
 5638SOL    HW117884   7.260   7.131   4.176  1.0267 -1.2174  0.8091
 5638SOL    HW217885   7.230   6.986   4.145  0.6984 -1.2997  1.4878
 5639SOL     OW17886   0.733   5.854   0.740 -0.0813 -0.3843  0.8372
 5639SOL    HW117887   0.703   5.943   0.758 -1.4993 -0.8350  0.8926
 5639SOL    HW217888   0.658   5.812   0.697  1.3064 -0.9576 -1.1051
 5640SOL     OW17889   3.955   6.569   0.867 -0.0424  0.5466  0.2260
 5640SOL    HW117890   3.879   6.514   0.885 -0.7770  0.7819 -1.8230
 5640SOL    HW217891   4.031   6.514   0.889 -0.7461 -1.2091 -1.4417
 5641SOL     OW17892   1.408   1.750   6.332  0.2674 -0.4932 -0.3444
 5641SOL    HW117893   1.472   1.678   6.327  0.9462  0.0088  0.7663
 5641SOL    HW217894   1.452   1.818   6.383  0.2268  1.3647 -2.6113
 5642SOL     OW17895   3.298   2.060   7.127 -0.3117 -0.4903 -0.4963
 5642SOL    HW117896   3.304   2.073   7.033 -0.0930 -0.5870 -0.4972
 5642SOL    HW217897   3.383   2.023   7.152 -0.9201 -1.9963 -0.5158
 5643SOL     OW17898   1.650   3.102   6.375  0.2631 -0.1176  0.1067
 5643SOL    HW117899   1.612   3.177   6.421 -0.0120  1.4324 -2.4032
 5643SOL    HW217900   1.577   3.065   6.325  0.9514 -0.3126 -0.7865
 5644SOL     OW17901   3.898   0.223   0.815  0.2035  0.4266 -0.6811
 5644SOL    HW117902   3.838   0.157   0.781 -0.2546  0.6511 -0.3222
 5644SOL    HW217903   3.842   0.295   0.844  0.7065  1.0822 -1.2821
 5645SOL     OW17904   0.733   5.587   0.440 -0.3645  0.5763  0.1056
 5645SOL    HW117905   0.782   5.646   0.496 -0.2737  0.8536 -0.2604
 5645SOL    HW217906   0.641   5.614   0.451 -0.3725  0.4502  0.3329
 5646SOL     OW17907   5.673   0.655   1.194  0.2352 -0.5304 -0.2448
 5646SOL    HW117908   5.761   0.692   1.195 -0.3169  0.9087 -1.6448
 5646SOL    HW217909   5.628   0.696   1.268  0.3450 -0.2408 -0.3382
 5647SOL     OW17910   2.447   6.904   0.428  0.0025  0.4007 -0.0971
 5647SOL    HW117911   2.392   6.982   0.418 -0.2426  0.0960 -1.2116
 5647SOL    HW217912   2.418   6.866   0.511  0.9811  2.1479  1.1106
 5648SOL     OW17913   2.569   4.386   6.983 -0.6966  0.7645 -0.0222
 5648SOL    HW117914   2.480   4.412   6.958 -0.9831 -0.9449 -0.9503
 5648SOL    HW217915   2.557   4.318   7.049 -0.1171  0.1743 -0.4992
 5649SOL     OW17916   4.564   6.294   5.552 -0.1859  0.0876 -0.3976
 5649SOL    HW117917   4.477   6.263   5.576  0.3593 -0.1672  1.4884
 5649SOL    HW217918   4.558   6.318   5.460 -1.9731 -0.8670 -0.5629
 5650SOL     OW17919   4.838   4.179   1.492  0.5786 -0.0251 -0.7000
 5650SOL    HW117920   4.795   4.148   1.412 -0.2026 -0.2823 -0.1891
 5650SOL    HW217921   4.766   4.202   1.550  1.1314 -0.8030  0.3110
 5651SOL     OW17922   6.123   3.280   3.628 -0.4524  0.4040 -0.9345
 5651SOL    HW117923   6.120   3.185   3.643  0.1604  0.5743  0.4597
 5651SOL    HW217924   6.032   3.305   3.612 -0.5591 -0.4757 -1.7967
 5652SOL     OW17925   0.840   4.446   0.238 -0.1670  0.4240  0.5091
 5652SOL    HW117926   0.870   4.528   0.199 -0.5632  0.7024  0.7907
 5652SOL    HW217927   0.858   4.455   0.331  0.1028  0.0507  0.4986
 5653SOL     OW17928   5.437   0.532   2.711 -0.0452  0.2362  0.5793
 5653SOL    HW117929   5.369   0.465   2.712  0.9076 -0.7759  0.1072
 5653SOL    HW217930   5.389   0.615   2.711 -1.2561 -0.3865  2.4508
 5654SOL     OW17931   5.930   6.943   3.821  0.1349  0.3376 -0.3974
 5654SOL    HW117932   5.983   7.022   3.832 -2.0767  2.0359 -1.1504
 5654SOL    HW217933   5.842   6.969   3.848 -0.3455 -2.4596  1.1380
 5655SOL     OW17934   0.638   0.514   3.502  0.3399 -0.2912  0.3526
 5655SOL    HW117935   0.556   0.537   3.459  0.8244 -1.0799 -1.0630
 5655SOL    HW217936   0.701   0.580   3.472  0.2690  0.2542  1.3557
 5656SOL     OW17937   6.768   6.854   0.657 -0.3667  0.8973  0.1514
 5656SOL    HW117938   6.775   6.776   0.713 -2.5336  0.3501 -0.2594
 5656SOL    HW217939   6.843   6.908   0.683  0.8468 -1.0141  0.9031
 5657SOL     OW17940   5.766   3.869   2.768  0.3547  0.4663 -0.5030
 5657SOL    HW117941   5.744   3.850   2.677  0.3709 -1.0351 -0.2176
 5657SOL    HW217942   5.837   3.809   2.789 -0.9939 -0.6688  1.0951
 5658SOL     OW17943   4.895   4.669   6.806  0.4060  0.1675 -0.0592
 5658SOL    HW117944   4.877   4.759   6.833  0.6342  0.7689 -1.7826
 5658SOL    HW217945   4.931   4.627   6.884  0.2968  1.5648  0.7768
 5659SOL     OW17946   2.154   1.372   3.358  0.1585  0.3894 -0.3453
 5659SOL    HW117947   2.059   1.359   3.353  0.3514 -1.6103  0.2704
 5659SOL    HW217948   2.188   1.331   3.279  0.6527 -0.9839  0.5455
 5660SOL     OW17949   6.786   1.269   0.308 -0.5972 -0.0632  0.1549
 5660SOL    HW117950   6.802   1.181   0.274 -2.3124 -0.5824  0.5913
 5660SOL    HW217951   6.852   1.281   0.376 -0.7145 -1.2632  0.4954
 5661SOL     OW17952   5.556   3.214   4.081 -0.2518 -0.1858 -0.0408
 5661SOL    HW117953   5.497   3.176   4.016  0.0219 -0.5765 -0.0653
 5661SOL    HW217954   5.503   3.279   4.127 -1.4733 -2.2272  1.6223
 5662SOL     OW17955   0.022   4.282   4.250  0.9451  0.6281  0.1676
 5662SOL    HW117956   0.004   4.357   4.306 -0.4198  0.6120 -0.2275
 5662SOL    HW217957  -0.064   4.242   4.234  1.5082 -0.3314 -0.5839
 5663SOL     OW17958   6.290   3.171   1.135 -0.0064 -0.1873  0.1059
 5663SOL    HW117959   6.358   3.217   1.184  0.0737 -1.5901  1.4236
 5663SOL    HW217960   6.209   3.193   1.181 -0.0857 -0.5838  0.1628
 5664SOL     OW17961   0.571   4.067   1.482 -0.3100  0.3708 -0.3425
 5664SOL    HW117962   0.625   3.997   1.519 -1.7099 -0.5792 -0.0125
 5664SOL    HW217963   0.604   4.077   1.392  0.5989  0.0344 -0.0608
 5665SOL     OW17964   4.868   4.601   2.161 -0.3658 -0.3065  0.0506
 5665SOL    HW117965   4.954   4.560   2.159 -0.2597 -0.0882 -1.3372
 5665SOL    HW217966   4.886   4.694   2.178 -0.2884 -0.2138 -0.5044
 5666SOL     OW17967   1.693   3.050   4.776  0.3262 -0.7455  0.0289
 5666SOL    HW117968   1.670   2.965   4.738  0.4627 -1.1462  0.8123
 5666SOL    HW217969   1.759   3.029   4.843  1.6617  0.1647 -0.9463
 5667SOL     OW17970   6.981   2.390   3.338  0.0522  0.1399 -0.0164
 5667SOL    HW117971   6.890   2.365   3.327 -0.0869  0.4149  0.4844
 5667SOL    HW217972   6.983   2.441   3.418  0.6442  0.1583 -0.0334
 5668SOL     OW17973   0.489   0.382   6.849  0.4883 -0.3496 -0.0429
 5668SOL    HW117974   0.427   0.376   6.922 -1.7538 -0.7463 -1.8667
 5668SOL    HW217975   0.515   0.292   6.832 -0.6833 -0.5223 -1.0510
 5669SOL     OW17976   5.057   2.573   5.228  0.1117  0.2200  0.8175
 5669SOL    HW117977   5.126   2.549   5.166  0.9301  1.3106  1.2820
 5669SOL    HW217978   5.058   2.669   5.229 -1.8875  0.2955  0.3233
 5670SOL     OW17979   4.270   2.707   1.713  0.2692 -0.2356  0.3266
 5670SOL    HW117980   4.258   2.653   1.790  0.3440  1.2482  1.4326
 5670SOL    HW217981   4.362   2.734   1.716  0.7275 -1.4883 -1.2165
 5671SOL     OW17982   0.091   2.365   6.306 -0.3485 -0.5423  0.4655
 5671SOL    HW117983   0.157   2.320   6.254 -1.1896 -1.1955 -0.0647
 5671SOL    HW217984   0.104   2.333   6.395  0.7515  0.1769  0.5827
 5672SOL     OW17985   1.275   6.168   1.993  0.4528 -0.3878  0.4563
 5672SOL    HW117986   1.207   6.123   2.044  1.6489  0.0994  2.5688
 5672SOL    HW217987   1.346   6.104   1.986  0.4885 -0.2847 -0.2387
 5673SOL     OW17988   5.864   7.126   4.973  0.3638  0.6770  0.0787
 5673SOL    HW117989   5.845   7.217   4.995 -1.2392  0.2854  0.3857
 5673SOL    HW217990   5.818   7.111   4.890 -0.1328 -0.0991  0.4823
 5674SOL     OW17991   3.040   1.513   6.299  0.1542  0.2171  0.1322
 5674SOL    HW117992   3.073   1.479   6.382  2.7953 -2.6339 -1.8716
 5674SOL    HW217993   2.954   1.472   6.288  0.5029 -0.6899  0.7197
 5675SOL     OW17994   4.869   0.635   1.569  0.2941 -0.0835 -0.9352
 5675SOL    HW117995   4.864   0.722   1.608 -1.6742 -0.3023 -0.5724
 5675SOL    HW217996   4.808   0.639   1.495 -1.4797 -1.7022  0.3349
 5676SOL     OW17997   2.938   2.967   0.446 -0.4691  0.0977  0.4523
 5676SOL    HW117998   2.848   2.997   0.447 -0.5166  0.3651 -2.6110
 5676SOL    HW217999   2.938   2.893   0.385  1.7093  1.5909 -1.5320
 5677SOL     OW18000   5.893   1.715   1.093 -0.1156  0.1274 -0.0714
 5677SOL    HW118001   5.918   1.753   1.009  0.6203 -1.7647 -0.7745
 5677SOL    HW218002   5.810   1.671   1.075  0.7627 -1.5476 -0.2671
 5678SOL     OW18003   0.898   6.630   6.631  0.1053 -0.4057  0.8819
 5678SOL    HW118004   0.836   6.574   6.678  0.3600 -0.8612  0.6801
 5678SOL    HW218005   0.853   6.714   6.623 -0.1989 -0.5166  1.3673
 5679SOL     OW18006   2.871   5.845   5.940 -0.3041  0.5606 -0.0563
 5679SOL    HW118007   2.884   5.776   6.006  0.7968  0.4694 -0.3430
 5679SOL    HW218008   2.950   5.899   5.947 -1.3189  2.0199  0.4193
 5680SOL     OW18009   6.277   2.500   0.164  0.4789  0.5743  0.3124
 5680SOL    HW118010   6.199   2.551   0.143 -0.5089 -0.7188  0.6634
 5680SOL    HW218011   6.275   2.491   0.259  0.8377  0.2238  0.2899
 5681SOL     OW18012   0.738   3.061   6.038  0.0805 -0.2767 -0.4129
 5681SOL    HW118013   0.706   2.976   6.069 -0.5034  0.7389  2.0614
 5681SOL    HW218014   0.758   3.109   6.118  0.6172  1.8383 -1.7436
 5682SOL     OW18015   3.805   4.782   3.756 -0.3188  0.7165 -0.1411
 5682SOL    HW118016   3.762   4.858   3.796 -0.6179 -0.2809  1.5670
 5682SOL    HW218017   3.881   4.765   3.812 -0.5046 -0.4828 -0.2196
 5683SOL     OW18018   6.459   1.855   4.783 -0.2279  0.4257  0.0519
 5683SOL    HW118019   6.397   1.807   4.837 -1.4494  0.8788 -0.9059
 5683SOL    HW218020   6.483   1.932   4.835  0.6358 -0.4568  0.9988
 5684SOL     OW18021   3.314   6.880   1.621 -0.0110  0.1853  0.0779
 5684SOL    HW118022   3.351   6.801   1.662 -1.5521 -0.6952 -0.1362
 5684SOL    HW218023   3.299   6.854   1.530 -0.8798  0.6031  0.0947
 5685SOL     OW18024   1.539   3.681   3.417  0.1664 -0.4649  0.2467
 5685SOL    HW118025   1.482   3.757   3.427  0.8095 -0.0518  0.9156
 5685SOL    HW218026   1.551   3.648   3.506  1.3712 -0.2257  0.1964
 5686SOL     OW18027   0.395   5.788   6.341  0.2009 -0.6096 -0.2362
 5686SOL    HW118028   0.381   5.778   6.435 -0.1295  0.5280 -0.1576
 5686SOL    HW218029   0.417   5.880   6.329  1.1827 -0.9448 -1.1636
 5687SOL     OW18030   6.869   1.935   5.392  0.0877  0.0283  0.1250
 5687SOL    HW118031   6.873   1.842   5.412  3.2839 -0.2697 -1.2592
 5687SOL    HW218032   6.911   1.943   5.306 -0.0232  2.7428  0.2337
 5688SOL     OW18033   5.873   2.856   2.666  0.3969  0.0827  0.0547
 5688SOL    HW118034   5.895   2.935   2.716 -0.6398 -0.3761  1.3223
 5688SOL    HW218035   5.783   2.871   2.636  0.3930 -0.3751 -0.1792
 5689SOL     OW18036   5.831   3.685   5.824  0.5862 -0.3682  0.2501
 5689SOL    HW118037   5.777   3.687   5.903  0.2779 -1.1224  0.0693
 5689SOL    HW218038   5.825   3.594   5.794  1.4430 -0.3045 -0.1265
 5690SOL     OW18039   5.773   1.276   0.002  0.3647  0.3419 -0.2355
 5690SOL    HW118040   5.734   1.347   0.053 -0.2281  0.3032 -0.6245
 5690SOL    HW218041   5.867   1.285   0.016  0.2625  0.8856  0.1289
 5691SOL     OW18042   6.915   3.839   7.181 -0.3311 -0.2598 -0.0182
 5691SOL    HW118043   6.938   3.843   7.274  0.4337  0.5869 -0.2382
 5691SOL    HW218044   6.957   3.760   7.149 -1.3997 -1.0969  0.5527
 5692SOL     OW18045   5.102   3.062   5.935  0.5693 -0.0423 -0.3951
 5692SOL    HW118046   5.161   3.121   5.888  0.3741 -0.8401 -1.7014
 5692SOL    HW218047   5.113   2.978   5.891 -1.4917 -0.2223 -0.6694
 5693SOL     OW18048   4.411   2.523   3.521  0.2580 -0.7534  0.0079
 5693SOL    HW118049   4.485   2.573   3.555  0.9397 -0.8652 -1.2512
 5693SOL    HW218050   4.370   2.484   3.598  1.6820 -0.9358  0.6884
 5694SOL     OW18051   0.438   6.434   0.453  0.5163  0.3575 -0.0971
 5694SOL    HW118052   0.485   6.515   0.433 -0.4097  0.9612  0.1104
 5694SOL    HW218053   0.346   6.455   0.438  0.2009 -0.4592  0.6047
 5695SOL     OW18054   6.881   6.341   3.773 -0.1517 -0.1520  0.1395
 5695SOL    HW118055   6.950   6.368   3.711  0.7945 -1.7660  0.4201
 5695SOL    HW218056   6.826   6.282   3.722 -1.1147  0.8095  0.0396
 5696SOL     OW18057   4.103   1.203   7.259 -0.6534 -0.1697  0.2786
 5696SOL    HW118058   4.014   1.205   7.224 -0.2989  0.1095 -0.6294
 5696SOL    HW218059   4.110   1.117   7.301 -1.0775 -0.5343 -0.3854
 5697SOL     OW18060   3.261   6.232   5.619 -0.3058  0.2894 -0.3863
 5697SOL    HW118061   3.237   6.238   5.711  0.2222 -3.0482  0.0963
 5697SOL    HW218062   3.198   6.288   5.573 -0.9738  1.5119  1.8958
 5698SOL     OW18063   4.831   0.366   2.900 -0.1242  0.0485 -0.0651
 5698SOL    HW118064   4.841   0.285   2.951  0.3654  0.7717  1.0184
 5698SOL    HW218065   4.872   0.346   2.816  1.8111 -0.2047  0.8885
 5699SOL     OW18066   0.964   3.234   0.240 -0.6365 -0.2791 -0.0561
 5699SOL    HW118067   0.959   3.274   0.326  0.0267 -1.7747  0.7263
 5699SOL    HW218068   0.878   3.194   0.226 -0.5611 -0.5146  0.1582
 5700SOL     OW18069   1.815   1.176   1.414  0.3120  0.0693 -0.4070
 5700SOL    HW118070   1.860   1.229   1.480  0.9681 -1.0756  0.1055
 5700SOL    HW218071   1.727   1.164   1.449  0.4107  0.1400 -0.1296
 5701SOL     OW18072   4.302   5.223   0.542  0.4361  0.2462  0.4704
 5701SOL    HW118073   4.375   5.282   0.523  0.6722 -0.4651 -0.8954
 5701SOL    HW218074   4.225   5.279   0.538  0.7932  0.7874  0.8626
 5702SOL     OW18075   3.049   1.024   3.250 -0.7481 -0.2393  0.3226
 5702SOL    HW118076   3.036   1.001   3.158  0.3712 -0.6348  0.2539
 5702SOL    HW218077   3.028   0.943   3.297 -0.0019 -0.4425  0.3133
 5703SOL     OW18078   4.777   2.467   1.785 -0.2285  0.5067 -0.1193
 5703SOL    HW118079   4.855   2.475   1.839  1.0814 -0.0239 -1.8232
 5703SOL    HW218080   4.774   2.549   1.734  0.9205 -0.6134 -2.1143
 5704SOL     OW18081   0.883   6.096   7.279  0.3664 -0.5041 -0.0771
 5704SOL    HW118082   0.864   6.008   7.248 -0.0622  0.8056 -4.2765
 5704SOL    HW218083   0.962   6.087   7.332 -0.4796 -3.5258  0.8294
 5705SOL     OW18084   1.307   2.002   4.200 -0.0592 -0.6375 -0.4158
 5705SOL    HW118085   1.216   2.014   4.226  0.6783 -0.1499  2.1957
 5705SOL    HW218086   1.316   1.908   4.184 -0.9317 -0.7213 -0.4775
 5706SOL     OW18087   5.574   5.474   4.179  0.5062  0.2223  0.4137
 5706SOL    HW118088   5.566   5.562   4.215  1.3044  0.7185 -0.5578
 5706SOL    HW218089   5.544   5.483   4.088  1.6619 -0.2456 -0.0295
 5707SOL     OW18090   0.115   0.523   7.090 -0.2041  0.5440  0.8115
 5707SOL    HW118091   0.200   0.483   7.106 -0.2016  1.0819  2.2853
 5707SOL    HW218092   0.098   0.577   7.168 -1.6808  0.8104  0.3461
 5708SOL     OW18093   3.892   6.114   6.630  0.2507  0.1955 -0.4185
 5708SOL    HW118094   3.956   6.085   6.565 -0.5882 -0.4152 -1.0113
 5708SOL    HW218095   3.838   6.179   6.583  0.0837  0.2822 -0.1110
 5709SOL     OW18096   0.667   7.106   0.932 -0.2221  0.1016  0.0117
 5709SOL    HW118097   0.690   7.041   0.866  0.6701 -1.4523  1.7618
 5709SOL    HW218098   0.583   7.078   0.967  0.9688 -1.2128  1.9911
 5710SOL     OW18099   4.989   0.820   5.534 -0.2210  0.2427 -0.2471
 5710SOL    HW118100   4.922   0.811   5.601 -0.6430 -1.7094 -0.8487
 5710SOL    HW218101   4.967   0.752   5.470  1.8381  0.1128 -0.8867
 5711SOL     OW18102   7.154   0.004   1.002 -0.2560 -0.2938 -0.0064
 5711SOL    HW118103   7.172   0.061   0.927  1.6126 -0.8883 -0.0599
 5711SOL    HW218104   7.188   0.053   1.077 -0.5678 -0.4495  0.2400
 5712SOL     OW18105   0.161   6.744   5.437 -0.5330 -0.3945 -0.5694
 5712SOL    HW118106   0.207   6.783   5.362 -2.0424  2.6548 -0.0833
 5712SOL    HW218107   0.229   6.735   5.504  0.4102 -1.1628 -1.6063
 5713SOL     OW18108   2.560   6.731   1.755 -0.0208 -0.6116  0.7304
 5713SOL    HW118109   2.550   6.826   1.767  0.1752 -0.6270  1.0352
 5713SOL    HW218110   2.602   6.722   1.670  1.3984 -0.3437  1.3725
 5714SOL     OW18111   4.492   3.023   0.720  0.2793 -0.5635  0.1799
 5714SOL    HW118112   4.465   3.037   0.629  1.5107 -1.2489 -0.3112
 5714SOL    HW218113   4.491   3.110   0.759 -1.1125 -0.3676 -0.2223
 5715SOL     OW18114   4.094   2.717   6.823  0.2370  0.7117 -0.5102
 5715SOL    HW118115   4.072   2.804   6.856 -0.2786  0.1275  0.7305
 5715SOL    HW218116   4.010   2.676   6.804  0.4341  0.1359 -0.1654
 5716SOL     OW18117   0.965   6.536   0.405 -0.0891 -0.5660 -0.5551
 5716SOL    HW118118   1.000   6.484   0.333  0.9249 -3.3023  1.7482
 5716SOL    HW218119   0.896   6.482   0.443 -1.1210  1.1357  0.1398
 5717SOL     OW18120   4.236   4.910   2.112 -0.1791  0.2854  0.0704
 5717SOL    HW118121   4.267   4.871   2.030 -1.2977  0.9434 -0.6803
 5717SOL    HW218122   4.150   4.945   2.091  0.6588  2.9691  0.7531
 5718SOL     OW18123   4.517   5.457   3.735  0.0219  0.0021 -0.0344
 5718SOL    HW118124   4.502   5.417   3.649  0.7954 -0.7515  0.1738
 5718SOL    HW218125   4.472   5.541   3.730  0.3395  0.1177 -1.3096
 5719SOL     OW18126   5.960   6.486   6.907 -0.0259 -0.3076  0.1651
 5719SOL    HW118127   5.912   6.428   6.966  0.1370 -0.4019  0.2068
 5719SOL    HW218128   5.980   6.431   6.831 -3.8687  0.8515 -1.9491
 5720SOL     OW18129   1.786   2.965   6.678 -0.1295 -0.3556 -0.1015
 5720SOL    HW118130   1.876   2.935   6.662 -0.9057 -2.5998 -0.5687
 5720SOL    HW218131   1.734   2.922   6.610 -1.4219  2.0339 -0.7578
 5721SOL     OW18132   1.409   2.469   1.864  0.3521  0.2928  0.4199
 5721SOL    HW118133   1.492   2.499   1.827 -0.0152  0.3705 -0.3487
 5721SOL    HW218134   1.435   2.411   1.936  1.0802 -0.7563 -0.6563
 5722SOL     OW18135   7.123   1.686   0.974  0.6860  0.2364 -0.4900
 5722SOL    HW118136   7.117   1.596   0.940 -0.0725  0.3451 -0.6506
 5722SOL    HW218137   7.034   1.720   0.967  0.9490  0.9643 -0.3148
 5723SOL     OW18138   4.766   2.090   1.466 -0.1666 -0.4224 -0.2096
 5723SOL    HW118139   4.830   2.036   1.513  0.8391  0.6746 -0.2945
 5723SOL    HW218140   4.768   2.175   1.510 -1.7429 -0.4161 -0.0725
 5724SOL     OW18141   4.929   7.325   3.727  0.0988  0.2801  0.2723
 5724SOL    HW118142   4.962   7.399   3.778  1.3219  1.1798 -1.6847
 5724SOL    HW218143   4.835   7.340   3.720  0.2546  1.4027  0.3410
 5725SOL     OW18144   3.364   4.477   7.216  0.0115  0.1382 -0.3199
 5725SOL    HW118145   3.385   4.431   7.135 -0.1328 -1.9227  0.7359
 5725SOL    HW218146   3.269   4.489   7.212 -0.1012 -0.6489 -0.1309
 5726SOL     OW18147   1.542   1.788   3.236  0.1686  0.7206  0.2742
 5726SOL    HW118148   1.624   1.818   3.198 -0.2305 -0.4293 -1.6241
 5726SOL    HW218149   1.486   1.768   3.161 -0.8021 -1.3317  1.4528
 5727SOL     OW18150   3.124   6.482   2.499  0.2734  0.7122  0.4170
 5727SOL    HW118151   3.139   6.573   2.473  1.3686  0.3209 -0.4020
 5727SOL    HW218152   3.212   6.445   2.509 -0.1409 -0.5004 -0.1708
 5728SOL     OW18153   0.841   4.613   7.025 -0.5362  0.2631 -0.2812
 5728SOL    HW118154   0.801   4.698   7.007  1.8275  1.8545  1.4670
 5728SOL    HW218155   0.886   4.590   6.944 -1.4812  0.4547 -0.8846
 5729SOL     OW18156   2.840   0.146   3.476 -0.2449 -0.1885 -0.2338
 5729SOL    HW118157   2.873   0.133   3.387 -2.3999 -1.1023 -0.9576
 5729SOL    HW218158   2.840   0.241   3.488 -0.7831  0.0029 -1.5693
 5730SOL     OW18159   0.500   2.757   2.308  0.1104  0.1074 -0.0480
 5730SOL    HW118160   0.480   2.689   2.244  1.1920 -0.0612 -0.2327
 5730SOL    HW218161   0.556   2.819   2.261  0.4336  0.2873  0.5608
 5731SOL     OW18162   2.938   6.115   3.423 -0.5790  0.7862 -0.3136
 5731SOL    HW118163   2.919   6.126   3.329 -1.0977  0.0081 -0.3085
 5731SOL    HW218164   2.928   6.021   3.438 -2.1079  1.0950  0.8664
 5732SOL     OW18165   6.195   6.828   1.445 -0.3186 -0.4056 -0.3595
 5732SOL    HW118166   6.259   6.871   1.501 -0.8451  1.1491 -0.8955
 5732SOL    HW218167   6.131   6.790   1.505  0.0803 -0.3125  0.1221
 5733SOL     OW18168   3.414   0.097   1.197  0.2229  0.1949 -0.1530
 5733SOL    HW118169   3.418   0.130   1.107  0.9631  2.3502  0.6170
 5733SOL    HW218170   3.322   0.079   1.213  0.1652 -0.8732 -1.5498
 5734SOL     OW18171   5.219   3.964   7.102  0.3277  0.4430 -0.2921
 5734SOL    HW118172   5.210   4.037   7.040  0.8606 -0.2892 -1.2457
 5734SOL    HW218173   5.167   3.992   7.177  0.3008  1.6974 -0.7399
 5735SOL     OW18174   0.995   7.149   5.431  0.1347 -0.2623 -0.1458
 5735SOL    HW118175   1.081   7.122   5.399  0.8359  0.8821  0.6871
 5735SOL    HW218176   1.009   7.169   5.523 -1.1704 -0.6321  0.1495
 5736SOL     OW18177   2.403   6.567   0.394  0.5531 -0.2002  0.0126
 5736SOL    HW118178   2.470   6.625   0.430  0.3606  0.2284 -0.3173
 5736SOL    HW218179   2.427   6.556   0.302 -0.9308  1.6052 -0.6593
 5737SOL     OW18180   5.308   2.050   5.101 -0.0865 -0.7730 -0.2729
 5737SOL    HW118181   5.248   1.975   5.100  0.0910 -0.9865  1.6792
 5737SOL    HW218182   5.256   2.122   5.137 -0.2728  0.1341 -2.1869
 5738SOL     OW18183   4.843   3.523   2.331  0.4430 -0.1737 -0.5205
 5738SOL    HW118184   4.905   3.512   2.403 -1.2127 -1.7405  0.7603
 5738SOL    HW218185   4.874   3.463   2.263 -0.2166 -1.8120  0.5581
 5739SOL     OW18186   3.238   0.939   4.769 -0.1541  0.3870 -0.2773
 5739SOL    HW118187   3.283   0.928   4.852  0.9022 -0.0308 -0.8809
 5739SOL    HW218188   3.228   0.850   4.735 -1.3807  0.4822 -0.1979
 5740SOL     OW18189   7.073   3.254   4.162  0.8390  0.1739 -0.3893
 5740SOL    HW118190   7.030   3.262   4.247  1.7710 -2.4080  0.3999
 5740SOL    HW218191   7.166   3.266   4.181  0.9553  0.7242 -1.2557
 5741SOL     OW18192   3.301   6.738   5.466  0.0364 -0.5263  0.0253
 5741SOL    HW118193   3.208   6.757   5.482  0.4080  0.2139  1.4956
 5741SOL    HW218194   3.337   6.719   5.552  1.3230 -0.5185 -0.4868
 5742SOL     OW18195   4.271   0.211   6.327  0.2562 -0.2394 -0.3701
 5742SOL    HW118196   4.249   0.227   6.235 -1.0364 -0.3469 -0.0996
 5742SOL    HW218197   4.188   0.190   6.368  1.2267 -3.5731  0.1654
 5743SOL     OW18198   1.753   7.098   7.120 -0.4812  0.1277  0.3971
 5743SOL    HW118199   1.764   7.019   7.173 -2.6343 -0.3033  0.2717
 5743SOL    HW218200   1.708   7.069   7.041  0.1920  1.2282 -0.4210
 5744SOL     OW18201   6.642   6.559   6.419  0.2908  0.1666 -0.2167
 5744SOL    HW118202   6.600   6.607   6.347 -1.2778 -0.7297  0.0494
 5744SOL    HW218203   6.640   6.468   6.392  1.2232  0.0025  0.2434
 5745SOL     OW18204   6.316   4.939   2.115  0.7113 -0.3938 -0.0901
 5745SOL    HW118205   6.353   4.901   2.196  2.7818 -1.0001 -1.2315
 5745SOL    HW218206   6.339   5.032   2.120 -1.3989  0.1101  1.1451
 5746SOL     OW18207   3.368   3.596   4.070  0.7378  0.6014  0.0307
 5746SOL    HW118208   3.301   3.651   4.030  3.0256  0.7144 -4.1439
 5746SOL    HW218209   3.425   3.657   4.116 -0.0518  0.9185  0.6087
 5747SOL     OW18210   3.739   2.386   3.969 -0.2400 -0.8399 -0.7053
 5747SOL    HW118211   3.673   2.324   3.937 -2.7130  0.9074  0.7311
 5747SOL    HW218212   3.739   2.456   3.904  1.8174 -1.7271 -1.7809
 5748SOL     OW18213   0.044   5.303   0.414 -0.1407 -0.0186 -0.8903
 5748SOL    HW118214   0.040   5.337   0.325 -1.1594  1.0554 -0.4672
 5748SOL    HW218215  -0.038   5.257   0.426  0.2627 -0.7000 -0.7039
 5749SOL     OW18216   7.035   5.961   1.286  0.3881 -0.0077 -0.1495
 5749SOL    HW118217   7.016   6.042   1.333  0.8063 -0.1281  0.2272
 5749SOL    HW218218   6.979   5.895   1.327 -0.8874  0.3272 -1.2662
 5750SOL     OW18219   6.872   6.777   5.412 -0.2886 -0.2678  0.1886
 5750SOL    HW118220   6.875   6.697   5.465 -1.6332 -0.2163  0.3920
 5750SOL    HW218221   6.906   6.750   5.327  1.2664 -0.5205  0.8596
 5751SOL     OW18222   2.656   4.935   2.400 -0.6401  0.2550  0.0649
 5751SOL    HW118223   2.567   4.926   2.435 -1.0523 -0.3616 -1.0724
 5751SOL    HW218224   2.670   4.854   2.351  1.2394 -0.4685  1.6499
 5752SOL     OW18225   1.193   2.810   2.099  0.1284  0.0364 -0.2263
 5752SOL    HW118226   1.131   2.883   2.094 -1.0556 -0.9099  0.0451
 5752SOL    HW218227   1.207   2.783   2.008  1.5422  1.3471 -0.4381
 5753SOL     OW18228   3.900   2.200   1.461 -0.2963  0.6137 -0.3676
 5753SOL    HW118229   3.895   2.270   1.527 -0.1793  0.9985 -0.7683
 5753SOL    HW218230   3.987   2.162   1.473 -1.0741 -0.8022  1.2044
 5754SOL     OW18231   6.301   1.011   6.363  0.2353 -0.2494 -0.1398
 5754SOL    HW118232   6.387   0.967   6.359 -0.1630 -1.1365  0.5911
 5754SOL    HW218233   6.321   1.104   6.352  1.3777 -0.3682  0.6869
 5755SOL     OW18234   4.466   5.520   5.916  0.3712  1.2401  0.0922
 5755SOL    HW118235   4.545   5.557   5.876  2.1292 -0.1885  2.0102
 5755SOL    HW218236   4.447   5.578   5.990  0.7724  0.5427  0.7513
 5756SOL     OW18237   1.148   1.082   4.992  0.1491  0.1973 -0.6331
 5756SOL    HW118238   1.170   1.055   4.903  1.3626 -0.6302 -0.1126
 5756SOL    HW218239   1.105   1.005   5.031  0.1100  0.3638 -0.3410
 5757SOL     OW18240   4.907   3.361   0.162  0.7450  0.2638  0.1355
 5757SOL    HW118241   4.849   3.411   0.104  0.0852 -0.6366 -0.0211
 5757SOL    HW218242   4.995   3.395   0.144  0.4551  0.5503 -0.8134
 5758SOL     OW18243   3.404   6.288   4.233  0.4275 -0.1287 -0.0539
 5758SOL    HW118244   3.449   6.232   4.297  1.0114  0.4471  0.0519
 5758SOL    HW218245   3.324   6.240   4.212  0.8509 -0.9422  0.1296
 5759SOL     OW18246   1.933   2.857   3.720 -0.0304  0.3319 -1.0748
 5759SOL    HW118247   1.902   2.773   3.755  1.8238  0.4465  1.0565
 5759SOL    HW218248   1.853   2.902   3.692 -1.3339 -1.0677  0.2039
 5760SOL     OW18249   3.107   4.101   2.684 -0.6789  0.3242 -0.1912
 5760SOL    HW118250   3.202   4.105   2.701 -0.6788 -1.5895  0.5643
 5760SOL    HW218251   3.071   4.057   2.761 -2.3515  1.9010 -0.0221
 5761SOL     OW18252   0.810   4.076   7.211 -0.2355 -0.2064 -0.0033
 5761SOL    HW118253   0.771   4.161   7.192 -1.1119 -0.6899 -0.4108
 5761SOL    HW218254   0.901   4.085   7.184 -0.3182  0.6030 -0.0361
 5762SOL     OW18255   1.426   3.598   3.191 -0.0583 -0.4014  0.3922
 5762SOL    HW118256   1.468   3.512   3.182 -1.4514 -1.2717  1.6668
 5762SOL    HW218257   1.462   3.634   3.272  1.9123  1.1120 -1.0559
 5763SOL     OW18258   1.993   2.833   5.858  0.8971  0.4170 -0.0940
 5763SOL    HW118259   1.954   2.747   5.838 -0.5717  1.2072 -0.7976
 5763SOL    HW218260   1.944   2.894   5.803  2.9706  1.5369 -0.7734
 5764SOL     OW18261   4.364   7.277   3.386 -0.5635  0.3501 -0.0297
 5764SOL    HW118262   4.334   7.298   3.474  0.0260  1.4310 -0.0741
 5764SOL    HW218263   4.357   7.182   3.381 -1.2959  0.3357  0.9241
 5765SOL     OW18264   6.696   6.565   3.552 -0.3619  0.1252  0.2417
 5765SOL    HW118265   6.787   6.586   3.574 -0.4610  0.9129 -0.0455
 5765SOL    HW218266   6.692   6.470   3.552 -0.1873  0.0411  2.9203
 5766SOL     OW18267   0.215   6.226   4.628 -0.0133 -0.4845  0.5696
 5766SOL    HW118268   0.272   6.301   4.644  1.0245 -1.3304  0.9221
 5766SOL    HW218269   0.205   6.185   4.714 -0.8250 -0.5776  0.4351
 5767SOL     OW18270   5.327   3.342   4.215  0.2030  0.0883 -0.4780
 5767SOL    HW118271   5.382   3.415   4.188 -0.6132  0.0130 -2.5280
 5767SOL    HW218272   5.257   3.382   4.267  1.9092  0.2240  1.8501
 5768SOL     OW18273   2.897   4.105   6.258  0.4527 -0.1515 -0.0068
 5768SOL    HW118274   2.853   4.025   6.287  1.6025 -0.8388 -0.0929
 5768SOL    HW218275   2.990   4.089   6.274  0.6353  1.6591  1.1524
 5769SOL     OW18276   2.950   4.317   0.457 -0.8475 -0.0725 -0.2807
 5769SOL    HW118277   2.863   4.291   0.486 -1.8243  1.3521 -1.7362
 5769SOL    HW218278   2.977   4.248   0.397 -0.9284 -0.5452  0.2136
 5770SOL     OW18279   1.982   1.232   4.402  0.3051 -0.1907 -0.0150
 5770SOL    HW118280   2.056   1.289   4.426  0.2447  0.3227 -0.9746
 5770SOL    HW218281   2.023   1.149   4.379  0.7797  0.4862 -1.8553
 5771SOL     OW18282   2.833   1.803   6.129 -0.0800  0.0589 -0.8463
 5771SOL    HW118283   2.790   1.735   6.077  0.3970 -0.8612 -0.0642
 5771SOL    HW218284   2.919   1.814   6.089  0.0954 -0.2879 -0.5728
 5772SOL     OW18285   2.079   0.997   1.409  0.4527  0.0813  0.0688
 5772SOL    HW118286   2.001   1.048   1.387  0.3851  0.1721  0.5129
 5772SOL    HW218287   2.079   0.924   1.346  0.8226  0.8884 -0.8939
 5773SOL     OW18288   4.359   6.158   2.141 -0.0340  0.6464  0.4401
 5773SOL    HW118289   4.326   6.121   2.059  2.0655  2.2489 -1.2415
 5773SOL    HW218290   4.355   6.085   2.203  1.0421 -1.5752 -1.8802
 5774SOL     OW18291   6.122   7.284   1.313 -0.5756 -0.0705 -0.6017
 5774SOL    HW118292   6.143   7.271   1.405  0.7773  0.2225 -0.8455
 5774SOL    HW218293   6.116   7.196   1.276 -1.0057 -0.1846 -0.2573
 5775SOL     OW18294   4.370   1.515   6.118 -0.5783  0.2176  0.2824
 5775SOL    HW118295   4.461   1.533   6.093 -0.7321 -0.7459 -1.1433
 5775SOL    HW218296   4.376   1.472   6.203  0.3714 -0.4627 -0.1137
 5776SOL     OW18297   1.671   0.511   4.513 -0.1528 -0.0454 -0.0017
 5776SOL    HW118298   1.630   0.499   4.599  0.2085  1.6373  0.4395
 5776SOL    HW218299   1.753   0.556   4.532 -0.5583  1.3146 -1.3098
 5777SOL     OW18300   6.576   3.141   2.114  0.8343  0.2126  0.8035
 5777SOL    HW118301   6.558   3.063   2.061  0.7435  0.9476 -0.2799
 5777SOL    HW218302   6.609   3.107   2.197  1.0253 -0.9681  0.2579
 5778SOL     OW18303   1.358   5.560   3.069  0.4566 -0.0872  0.1628
 5778SOL    HW118304   1.293   5.520   3.012  0.8138 -2.8835  1.5077
 5778SOL    HW218305   1.412   5.614   3.012 -0.7472 -0.7416 -1.6512
 5779SOL     OW18306   3.225   7.297   2.321 -0.5899  0.8901  0.1472
 5779SOL    HW118307   3.269   7.324   2.240  0.1058  0.0509  0.2396
 5779SOL    HW218308   3.142   7.259   2.292 -0.3736  0.6586 -0.1708
 5780SOL     OW18309   3.635   0.146   5.752 -0.0659 -0.5879 -0.0409
 5780SOL    HW118310   3.651   0.074   5.691  2.2856 -1.0568  1.0230
 5780SOL    HW218311   3.551   0.124   5.793 -1.4292 -0.5399 -2.6252
 5781SOL     OW18312   3.270   1.435   5.159  0.2008 -0.4251 -0.7500
 5781SOL    HW118313   3.290   1.493   5.086  0.9107 -0.3925 -0.5371
 5781SOL    HW218314   3.293   1.486   5.237 -3.9018  0.9849 -0.2083
 5782SOL     OW18315   1.001   6.211   1.895 -0.2306 -0.4289  0.2453
 5782SOL    HW118316   1.029   6.302   1.883 -2.8172  0.3927 -0.0645
 5782SOL    HW218317   1.075   6.159   1.864  1.4547  1.5327  0.7682
 5783SOL     OW18318   2.694   4.155   5.547 -0.7806 -0.8037  0.0397
 5783SOL    HW118319   2.657   4.235   5.508 -1.4858  0.2554  2.6370
 5783SOL    HW218320   2.630   4.129   5.613  0.0912 -2.7739  0.1705
 5784SOL     OW18321   0.622   1.173   4.148  0.2742  0.0033  0.3886
 5784SOL    HW118322   0.662   1.260   4.145  0.1940  0.0667  1.0892
 5784SOL    HW218323   0.544   1.180   4.093  1.2675 -0.1497 -1.0889
 5785SOL     OW18324   0.851   4.373   4.616 -0.3570 -0.0233  0.2079
 5785SOL    HW118325   0.832   4.450   4.670  0.5403  0.1054  0.3464
 5785SOL    HW218326   0.924   4.400   4.560 -1.0824 -0.2524 -0.8764
 5786SOL     OW18327   5.383   6.265   2.344  0.3666 -0.0936  0.4312
 5786SOL    HW118328   5.472   6.269   2.308 -0.2493 -0.0351 -1.1710
 5786SOL    HW218329   5.340   6.196   2.294  0.2053 -1.9065  2.9181
 5787SOL     OW18330   2.244   3.404   5.568  0.6782  0.3027  0.4569
 5787SOL    HW118331   2.204   3.441   5.489 -0.6280  0.8898  1.3542
 5787SOL    HW218332   2.230   3.471   5.635 -2.3748 -1.9705  2.3290
 5788SOL     OW18333   5.137   2.715   2.920  0.2691 -0.2252 -0.8307
 5788SOL    HW118334   5.062   2.739   2.975 -0.5712 -2.4345 -0.9018
 5788SOL    HW218335   5.196   2.668   2.980 -0.0021 -1.4192 -1.4620
 5789SOL     OW18336   0.198   6.105   0.521  0.4643 -0.1034  0.4238
 5789SOL    HW118337   0.133   6.054   0.568 -0.3911  0.1412 -0.4631
 5789SOL    HW218338   0.207   6.186   0.572 -2.2696  1.2594 -1.0152
 5790SOL     OW18339   4.149   6.388   0.953 -0.0032  0.2559  0.0913
 5790SOL    HW118340   4.232   6.402   0.909 -0.4055  1.7917 -0.2278
 5790SOL    HW218341   4.169   6.398   1.046  0.4164 -0.7798  0.1276
 5791SOL     OW18342   1.428   2.715   3.482 -0.1986  0.0524 -0.2783
 5791SOL    HW118343   1.335   2.728   3.464 -0.1992 -0.1377 -0.4099
 5791SOL    HW218344   1.438   2.620   3.491 -0.2279  0.1405  0.8867
 5792SOL     OW18345   4.330   5.203   4.365 -0.1537 -0.0973 -0.1072
 5792SOL    HW118346   4.256   5.182   4.423 -1.3059  0.6114 -1.2640
 5792SOL    HW218347   4.317   5.147   4.289 -0.1845  0.8906 -0.8429
 5793SOL     OW18348   6.942   0.590   5.917 -0.0183 -0.1602 -0.1441
 5793SOL    HW118349   6.925   0.684   5.915 -0.4491 -0.2280  0.1024
 5793SOL    HW218350   6.941   0.564   5.825  0.2613  0.1025 -0.2230
 5794SOL     OW18351   6.172   7.087   1.997 -0.0097  0.8163  0.5439
 5794SOL    HW118352   6.115   7.021   2.036  1.1258 -1.9774 -2.1394
 5794SOL    HW218353   6.112   7.154   1.965 -1.5907 -0.6606  0.2651
 5795SOL     OW18354   2.706   6.922   0.376  0.6226 -0.2570  0.1537
 5795SOL    HW118355   2.758   6.842   0.372  1.2708  0.0759  1.4274
 5795SOL    HW218356   2.620   6.894   0.406  0.6295 -0.5744 -0.1257
 5796SOL     OW18357   0.433   5.801   5.743  0.1418 -0.2714  0.4211
 5796SOL    HW118358   0.526   5.824   5.738  0.8684 -2.6633  1.3342
 5796SOL    HW218359   0.419   5.777   5.834 -1.7918  1.4227  0.6395
 5797SOL     OW18360   6.334   7.159   4.506  0.9224 -0.0486 -0.4611
 5797SOL    HW118361   6.332   7.192   4.416  1.8380 -0.9156 -0.8284
 5797SOL    HW218362   6.328   7.237   4.561 -0.6049  0.4259 -1.2544
 5798SOL     OW18363   2.530   1.895   0.190 -0.5036 -0.0856  0.0861
 5798SOL    HW118364   2.541   1.821   0.130 -1.7720  1.6630 -2.4926
 5798SOL    HW218365   2.435   1.904   0.202 -0.5946  2.5057 -1.6808
 5799SOL     OW18366   1.387   5.804   0.419  0.0020  0.0170 -0.0883
 5799SOL    HW118367   1.356   5.741   0.484  0.2885 -2.0582 -1.8650
 5799SOL    HW218368   1.481   5.812   0.437  0.5343 -2.2450 -1.4974
 5800SOL     OW18369   6.786   0.051   5.420  0.2625 -0.0784  0.5144
 5800SOL    HW118370   6.710   0.070   5.365  1.1345 -0.3506 -0.8224
 5800SOL    HW218371   6.763  -0.028   5.468 -0.4697  0.1033  0.4694
 5801SOL     OW18372   3.834   0.994   1.222 -0.3381  0.7546  0.1243
 5801SOL    HW118373   3.747   0.955   1.235 -0.4093  1.0376  0.5570
 5801SOL    HW218374   3.843   1.054   1.296  0.4835  0.2734  0.4216
 5802SOL     OW18375   1.879   1.188   5.116 -0.5294 -0.0008  0.6097
 5802SOL    HW118376   1.844   1.099   5.112  0.4521 -0.3657 -0.5446
 5802SOL    HW218377   1.884   1.207   5.210 -1.7152 -0.7541  0.8563
 5803SOL     OW18378   2.527   6.152   5.307 -0.1953  0.0500  0.0473
 5803SOL    HW118379   2.597   6.087   5.305  1.0737  1.3524 -1.3462
 5803SOL    HW218380   2.470   6.125   5.379  0.7932 -2.0290  0.1057
 5804SOL     OW18381   6.467   6.486   5.996 -0.0359 -0.0807  0.1891
 5804SOL    HW118382   6.481   6.398   6.033  0.2036 -0.1965 -0.1678
 5804SOL    HW218383   6.518   6.544   6.051  0.3425 -0.2558  0.0240
 5805SOL     OW18384   2.994   0.571   5.784  0.1466  0.1589  0.2316
 5805SOL    HW118385   2.951   0.563   5.698  0.6941 -1.8282  0.0799
 5805SOL    HW218386   3.032   0.659   5.784 -1.5149  0.9210 -0.7553
 5806SOL     OW18387   4.775   3.678   7.207  0.1014  0.4092 -0.2740
 5806SOL    HW118388   4.851   3.735   7.216 -0.5175  1.2111 -0.0462
 5806SOL    HW218389   4.768   3.662   7.113 -0.6933  2.0819 -0.5283
 5807SOL     OW18390   3.779   2.555   1.691 -0.1054  0.1915  0.0445
 5807SOL    HW118391   3.794   2.626   1.630 -0.6216  0.5233  0.2999
 5807SOL    HW218392   3.861   2.505   1.691  0.2202  0.7261 -0.2091
 5808SOL     OW18393   4.579   7.118   6.140  0.4202  0.4048  0.7835
 5808SOL    HW118394   4.554   7.134   6.231 -0.6031 -0.5720  0.6938
 5808SOL    HW218395   4.597   7.024   6.136 -0.3346  0.2927 -0.2049
 5809SOL     OW18396   2.709   7.039   0.773 -0.2089  0.0133  0.1277
 5809SOL    HW118397   2.701   6.952   0.734  1.0828  0.6499 -1.6959
 5809SOL    HW218398   2.790   7.035   0.824 -1.2245 -0.4215  1.7993
 5810SOL     OW18399   3.764   7.046   0.843  0.4953 -0.2455  0.3056
 5810SOL    HW118400   3.746   7.086   0.758  1.5307 -1.0409 -0.3184
 5810SOL    HW218401   3.776   6.953   0.823  1.3145 -0.3533  1.2344
 5811SOL     OW18402   7.245   1.248   2.753  0.4789 -0.3675 -0.4442
 5811SOL    HW118403   7.175   1.184   2.767 -0.0549  0.2756 -0.1040
 5811SOL    HW218404   7.308   1.229   2.823 -1.1180  1.3868  1.6141
 5812SOL     OW18405   1.692   2.381   6.862  0.1151  0.5611 -0.1647
 5812SOL    HW118406   1.701   2.319   6.790 -0.0686  0.7086 -0.3189
 5812SOL    HW218407   1.739   2.459   6.833  0.7636  0.3203  0.2380
 5813SOL     OW18408   3.720   1.681   1.887  0.4620  0.4529 -0.2465
 5813SOL    HW118409   3.732   1.743   1.959  0.9304 -1.1686  1.1207
 5813SOL    HW218410   3.749   1.729   1.809  0.1975  2.1555  0.6594
 5814SOL     OW18411   7.247   0.111   7.365 -0.1299  0.1594 -0.0799
 5814SOL    HW118412   7.160   0.134   7.334  0.5940  0.6537 -1.8387
 5814SOL    HW218413   7.275   0.039   7.309  0.5311 -0.1330  0.6025
 5815SOL     OW18414   1.041   1.950   4.262 -0.5499  0.2702  0.5877
 5815SOL    HW118415   1.084   1.891   4.323  0.2653 -1.6362 -1.7059
 5815SOL    HW218416   0.963   1.902   4.233 -0.9375  1.1482  0.1270
 5816SOL     OW18417   0.262   4.647   0.567 -0.2135  0.4220 -0.0883
 5816SOL    HW118418   0.166   4.651   0.564 -0.2357 -0.1263 -0.2186
 5816SOL    HW218419   0.287   4.621   0.479 -0.1161 -2.2472  0.6335
 5817SOL     OW18420   6.531   1.350   7.098  0.2791 -0.3956  0.3279
 5817SOL    HW118421   6.460   1.380   7.155  1.8713  0.9848  1.6995
 5817SOL    HW218422   6.601   1.415   7.111  1.2241 -0.8080 -2.1786
 5818SOL     OW18423   1.390   1.690   7.339  0.0444 -0.4949  0.2193
 5818SOL    HW118424   1.358   1.765   7.288 -0.3544 -1.1914 -0.5691
 5818SOL    HW218425   1.312   1.659   7.386  0.0482 -0.8419 -0.0000
 5819SOL     OW18426   3.773   5.228   3.599  0.0286 -0.0839 -0.0382
 5819SOL    HW118427   3.708   5.160   3.583 -1.1763  1.0275  0.0003
 5819SOL    HW218428   3.779   5.234   3.694  0.1642 -0.1639 -0.0414
 5820SOL     OW18429   6.142   3.438   1.711  0.4661  0.5902 -0.4433
 5820SOL    HW118430   6.188   3.522   1.708  1.2519  0.1624 -0.7857
 5820SOL    HW218431   6.054   3.457   1.678 -0.3310  1.8433  2.1902
 5821SOL     OW18432   4.381   1.147   0.330 -0.7908 -0.1188  0.2113
 5821SOL    HW118433   4.436   1.181   0.401 -1.3318  0.2863  0.4482
 5821SOL    HW218434   4.403   1.054   0.325  0.5317  0.1962 -0.2646
 5822SOL     OW18435   6.768   4.777   1.751  0.3584 -0.3424 -0.2167
 5822SOL    HW118436   6.815   4.695   1.768  1.7825  0.3757 -0.5440
 5822SOL    HW218437   6.703   4.754   1.685  1.0283 -1.1219 -0.6222
 5823SOL     OW18438   1.541   4.341   4.605  0.1733  0.4569 -0.3758
 5823SOL    HW118439   1.605   4.384   4.548  0.4656  0.5070 -0.0091
 5823SOL    HW218440   1.563   4.371   4.693  1.5967 -1.9100  0.1713
 5824SOL     OW18441   3.478   0.988   1.809  0.0687  0.2654 -0.4255
 5824SOL    HW118442   3.448   1.076   1.832 -3.0552  0.0026 -2.9292
 5824SOL    HW218443   3.437   0.931   1.874 -0.4308  0.3952 -0.6254
 5825SOL     OW18444   5.140   2.877   5.735  0.1673 -0.0483  0.5170
 5825SOL    HW118445   5.187   2.883   5.652 -0.2913  2.9763  0.3505
 5825SOL    HW218446   5.184   2.808   5.784  1.7221 -0.5232 -1.4584
 5826SOL     OW18447   5.569   4.804   7.290  0.1769  0.3399 -0.4404
 5826SOL    HW118448   5.493   4.773   7.339  0.2947 -1.3107 -1.2343
 5826SOL    HW218449   5.532   4.836   7.207  0.2430  0.5859 -0.3760
 5827SOL     OW18450   5.200   1.151   1.896  0.3786 -0.2447 -0.0276
 5827SOL    HW118451   5.121   1.180   1.942  0.5201 -1.3936  0.9899
 5827SOL    HW218452   5.258   1.227   1.896  0.0365  0.0322  0.9471
 5828SOL     OW18453   2.350   3.664   1.201  0.0241 -0.7707 -0.3568
 5828SOL    HW118454   2.384   3.619   1.125  0.8310 -0.3672 -0.2448
 5828SOL    HW218455   2.297   3.736   1.165 -0.3547 -1.1364 -0.5314
 5829SOL     OW18456   6.588   3.576   1.639  0.1530 -0.4285 -0.6934
 5829SOL    HW118457   6.543   3.561   1.722 -1.6808 -0.6672 -1.6893
 5829SOL    HW218458   6.601   3.671   1.636  3.1957 -0.6484  1.2793
 5830SOL     OW18459   4.270   4.450   5.450 -0.3029 -0.0417 -0.3047
 5830SOL    HW118460   4.268   4.460   5.546  0.6688  0.3341 -0.3130
 5830SOL    HW218461   4.225   4.528   5.417 -0.5952 -0.1467 -0.1612
 5831SOL     OW18462   6.796   2.318   7.309 -0.3479 -0.1219 -0.2729
 5831SOL    HW118463   6.878   2.272   7.289 -0.2111  0.3762 -0.8838
 5831SOL    HW218464   6.751   2.326   7.225 -1.0012 -0.3352  0.0471
 5832SOL     OW18465   7.082   3.580   7.058 -0.2872  0.5823 -0.0359
 5832SOL    HW118466   7.067   3.486   7.065  0.2405  0.5507  0.7977
 5832SOL    HW218467   7.094   3.595   6.964  1.2490 -0.4598 -0.0444
 5833SOL     OW18468   3.601   4.723   4.610 -0.0693 -0.0968  0.4954
 5833SOL    HW118469   3.648   4.649   4.648 -2.0782 -1.5210  0.3538
 5833SOL    HW218470   3.543   4.753   4.680 -1.0914 -0.3126 -0.2398
 5834SOL     OW18471   3.032   3.486   3.963 -0.2120  0.6331  0.4991
 5834SOL    HW118472   3.052   3.393   3.953 -1.4320  0.4641 -0.6822
 5834SOL    HW218473   3.102   3.531   3.915 -0.6181  0.2247 -0.5059
 5835SOL     OW18474   1.999   5.125   2.304 -0.0167  0.2137  0.4709
 5835SOL    HW118475   2.054   5.200   2.326  0.5496 -0.5981  1.9545
 5835SOL    HW218476   1.910   5.159   2.305  0.3156  1.1288 -0.1096
 5836SOL     OW18477   5.167   4.013   2.650  0.1561  0.0246  0.0901
 5836SOL    HW118478   5.098   4.076   2.627  0.1736  1.0284  2.5580
 5836SOL    HW218479   5.120   3.941   2.692  0.4958  0.1126  0.6213
 5837SOL     OW18480   0.825   2.267   7.017 -0.0238  0.2418  0.2339
 5837SOL    HW118481   0.856   2.349   6.979 -0.9159  0.5603  0.1598
 5837SOL    HW218482   0.809   2.286   7.109 -0.1256  0.1176  0.2432
 5838SOL     OW18483   2.029   3.584   0.187 -0.1808  0.0824  0.4715
 5838SOL    HW118484   2.090   3.515   0.160  0.9786 -0.1926  3.4297
 5838SOL    HW218485   1.944   3.541   0.191 -0.2885 -0.0292 -1.7908
 5839SOL     OW18486   5.998   2.146   6.455 -0.1657 -0.5457 -0.0862
 5839SOL    HW118487   6.029   2.220   6.404  0.1988  0.1432  1.1001
 5839SOL    HW218488   6.034   2.069   6.410  1.0368  0.1004 -0.2509
 5840SOL     OW18489   0.135   1.729   6.915 -0.1866  0.1172  0.1122
 5840SOL    HW118490   0.095   1.739   6.829  0.7605 -1.2504 -0.5133
 5840SOL    HW218491   0.219   1.773   6.909 -0.0747 -0.0667  0.3080
 5841SOL     OW18492   0.212   2.485   3.368 -0.2319  0.8209  0.1067
 5841SOL    HW118493   0.301   2.464   3.338 -0.4524  0.7412 -0.4992
 5841SOL    HW218494   0.159   2.481   3.289 -1.3024 -1.8575  0.8604
 5842SOL     OW18495   2.021   4.346   0.811  0.0923  0.2000  0.6781
 5842SOL    HW118496   2.003   4.292   0.734  1.4161 -1.0599  1.2099
 5842SOL    HW218497   2.031   4.435   0.776  0.7523 -0.3684 -0.6259
 5843SOL     OW18498   5.622   5.310   2.620 -0.1435  0.4225  0.1567
 5843SOL    HW118499   5.578   5.226   2.610 -2.2300  1.6993 -2.9067
 5843SOL    HW218500   5.604   5.336   2.711 -3.3106 -0.4823 -0.0967
 5844SOL     OW18501   4.049   3.292   2.736  0.6849 -0.4505 -0.1725
 5844SOL    HW118502   4.019   3.382   2.733 -0.0880 -0.6957  0.0820
 5844SOL    HW218503   4.096   3.279   2.653 -0.0136 -0.0983 -0.6294
 5845SOL     OW18504   4.793   3.587   0.367  0.3528 -0.0044  0.6257
 5845SOL    HW118505   4.827   3.535   0.294 -0.4309  1.2484 -0.6869
 5845SOL    HW218506   4.849   3.564   0.441  2.6220  0.3091 -0.8871
 5846SOL     OW18507   2.608   2.998   0.874 -0.0611 -0.5142  0.3426
 5846SOL    HW118508   2.700   3.022   0.888 -0.0466 -0.8398  0.8339
 5846SOL    HW218509   2.575   2.979   0.962 -0.4350 -0.9774  0.1041
 5847SOL     OW18510   5.997   1.825   2.899 -1.0789  0.0566  0.0557
 5847SOL    HW118511   6.028   1.763   2.966  3.5222 -1.1096 -2.6853
 5847SOL    HW218512   5.954   1.771   2.834 -1.4020  0.5028 -0.1072
 5848SOL     OW18513   0.869   2.743   4.757  0.2859  0.0492 -0.2792
 5848SOL    HW118514   0.843   2.694   4.680 -1.3852 -0.1150  0.3513
 5848SOL    HW218515   0.927   2.684   4.805 -2.1748 -1.6896  0.7937
 5849SOL     OW18516   5.173   5.325   2.635 -0.4706 -0.6110  0.0200
 5849SOL    HW118517   5.138   5.307   2.722  0.0722  0.1230  0.3966
 5849SOL    HW218518   5.197   5.239   2.600 -0.6378 -0.8990  0.6155
 5850SOL     OW18519   3.669   6.314   7.273 -0.3743  0.0836  0.3359
 5850SOL    HW118520   3.652   6.318   7.367 -0.0803 -0.9211  0.4477
 5850SOL    HW218521   3.698   6.224   7.258  1.7738  0.8319 -0.3508
 5851SOL     OW18522   3.179   5.618   6.611  0.2098  0.5024 -0.2314
 5851SOL    HW118523   3.250   5.667   6.569  1.2861 -1.1059 -0.3613
 5851SOL    HW218524   3.198   5.622   6.705  0.0378  0.7219 -0.2057
 5852SOL     OW18525   0.481   0.062   0.167  0.4204 -0.1006 -0.3998
 5852SOL    HW118526   0.535   0.091   0.241 -0.2109  0.2889 -0.0814
 5852SOL    HW218527   0.498  -0.032   0.160  0.1068 -0.2323  0.5590
 5853SOL     OW18528   0.270   3.651   5.494  0.0818 -0.0058  0.3667
 5853SOL    HW118529   0.262   3.581   5.559  1.1806  0.5395  1.1088
 5853SOL    HW218530   0.362   3.652   5.469  0.0800  1.1128  0.3138
 5854SOL     OW18531   7.376   1.584   1.582 -0.4779  0.6410  0.3401
 5854SOL    HW118532   7.310   1.624   1.527 -0.5282  0.1296  0.0203
 5854SOL    HW218533   7.453   1.576   1.526 -0.7488 -0.5450  0.0956
 5855SOL     OW18534   0.575   6.999   6.533 -0.2822  0.1488 -0.4657
 5855SOL    HW118535   0.495   6.958   6.500 -0.7242  1.0194 -0.5072
 5855SOL    HW218536   0.549   7.039   6.616  0.6013 -1.2523  0.5528
 5856SOL     OW18537   4.496   5.125   0.739  0.3651 -0.1060  0.1194
 5856SOL    HW118538   4.417   5.165   0.701 -0.3755 -0.5965  1.0875
 5856SOL    HW218539   4.546   5.094   0.663 -0.3459  0.2528 -0.5157
 5857SOL     OW18540   0.507   6.159   1.697  0.2349 -0.5579 -0.0235
 5857SOL    HW118541   0.412   6.162   1.690  0.3931  0.1631 -3.0952
 5857SOL    HW218542   0.529   6.066   1.690 -0.1776 -0.5917 -0.9271
 5858SOL     OW18543   3.028   0.334   6.743  0.0713 -0.3968 -0.0351
 5858SOL    HW118544   2.948   0.282   6.749  0.2359 -0.5950  0.5088
 5858SOL    HW218545   3.003   0.410   6.690 -1.1397  0.7434  2.0564
 5859SOL     OW18546   2.018   1.767   2.490 -0.0696 -0.0426  0.0187
 5859SOL    HW118547   2.041   1.727   2.574  0.5298  0.6567  0.2043
 5859SOL    HW218548   1.976   1.697   2.440 -0.0010 -0.5966  0.7247
 5860SOL     OW18549   6.021   2.553   6.020 -0.2622  0.3491  0.2461
 5860SOL    HW118550   6.002   2.603   5.940 -1.0012 -1.2735 -0.6365
 5860SOL    HW218551   5.970   2.597   6.088  1.9105  2.9967  0.3498
 5861SOL     OW18552   6.724   5.100   2.775 -0.3183 -0.3492 -0.4447
 5861SOL    HW118553   6.683   5.160   2.712  0.3875  0.1884 -0.4089
 5861SOL    HW218554   6.735   5.153   2.854  0.9286 -0.3117 -0.6232
 5862SOL     OW18555   0.881   1.047   5.784 -0.1816 -0.3846 -0.6644
 5862SOL    HW118556   0.912   0.983   5.848 -0.3976  0.1057 -0.0576
 5862SOL    HW218557   0.819   1.102   5.832  1.4855  1.5689 -0.5682
 5863SOL     OW18558   2.521   0.732   5.243  0.0656 -0.0683 -0.5629
 5863SOL    HW118559   2.462   0.768   5.177 -1.2036 -0.3163  0.4036
 5863SOL    HW218560   2.607   0.734   5.202 -0.6320  0.1577 -2.0737
 5864SOL     OW18561   5.245   5.641   6.541 -0.3568 -0.7601 -0.6902
 5864SOL    HW118562   5.227   5.555   6.577 -0.2539 -0.4735  0.0652
 5864SOL    HW218563   5.181   5.651   6.470 -1.4211 -0.8247  0.2321
 5865SOL     OW18564   4.677   3.607   0.899 -0.2962  0.0752 -0.3885
 5865SOL    HW118565   4.703   3.698   0.913  0.7818  0.1711 -2.5901
 5865SOL    HW218566   4.610   3.611   0.831 -1.5578 -0.6890  0.7546
 5866SOL     OW18567   2.648   1.676   3.716 -0.2570 -0.0103  0.2898
 5866SOL    HW118568   2.691   1.709   3.637  0.5129 -1.2202  0.1757
 5866SOL    HW218569   2.592   1.748   3.745  0.9711  1.1869 -0.2065
 5867SOL     OW18570   2.580   6.017   4.769  0.3039 -0.3750  0.4786
 5867SOL    HW118571   2.552   5.977   4.852 -3.1403  0.0558 -0.3200
 5867SOL    HW218572   2.632   6.093   4.795 -2.0007  0.6853  2.3891
 5868SOL     OW18573   2.372   1.107   0.488 -0.1009  0.2543  0.2952
 5868SOL    HW118574   2.446   1.168   0.497  1.7919 -1.9161  0.1853
 5868SOL    HW218575   2.400   1.045   0.421 -0.9070 -2.1393  2.0532
 5869SOL     OW18576   1.277   1.378   6.778 -0.5794  0.6869  0.0500
 5869SOL    HW118577   1.196   1.425   6.762 -0.0384  0.4394 -5.1585
 5869SOL    HW218578   1.342   1.447   6.792 -0.8097  1.2690 -1.5245
 5870SOL     OW18579   6.568   2.104   5.373  0.2489  0.1798  0.0801
 5870SOL    HW118580   6.544   2.035   5.312 -0.5400  0.3698  0.1693
 5870SOL    HW218581   6.566   2.062   5.459  0.3972  0.1556  0.0718
 5871SOL     OW18582   1.698   4.870   2.616  0.4015 -0.1631 -0.0871
 5871SOL    HW118583   1.654   4.920   2.548 -1.1883 -0.7317  0.4745
 5871SOL    HW218584   1.756   4.810   2.569 -0.4328 -0.3253 -0.9308
 5872SOL     OW18585   0.045   5.281   5.361 -0.4025 -0.0946  0.1562
 5872SOL    HW118586   0.048   5.195   5.403  1.2772 -0.1799 -0.0316
 5872SOL    HW218587   0.058   5.263   5.268 -4.2013  0.0820 -0.5708
 5873SOL     OW18588   3.565   3.537   0.596 -0.5073 -0.3248 -0.1811
 5873SOL    HW118589   3.481   3.515   0.556 -0.3624  0.2648 -0.8278
 5873SOL    HW218590   3.629   3.525   0.525 -0.1983  0.4211 -0.0369
 5874SOL     OW18591   2.749   4.202   6.638  0.4291  0.1126  0.3468
 5874SOL    HW118592   2.737   4.293   6.664  2.7825  0.0779  1.9020
 5874SOL    HW218593   2.844   4.189   6.641  0.2670 -1.9956 -1.3271
 5875SOL     OW18594   0.953   4.208   1.424 -0.2609 -0.0588  0.6864
 5875SOL    HW118595   0.971   4.156   1.503 -2.5538 -2.6305 -0.3450
 5875SOL    HW218596   1.036   4.208   1.376  0.5118 -0.4745  1.9713
 5876SOL     OW18597   5.525   2.692   1.511 -0.7732 -0.6608  0.1998
 5876SOL    HW118598   5.459   2.695   1.441 -1.9316  1.7819  1.2681
 5876SOL    HW218599   5.508   2.771   1.562  0.5557 -1.9476  2.7894
 5877SOL     OW18600   3.120   6.988   4.528 -0.2589  0.3481 -0.1155
 5877SOL    HW118601   3.093   6.934   4.602 -0.4156  0.8930  0.2321
 5877SOL    HW218602   3.136   7.074   4.566  0.4613  0.4330 -0.5795
 5878SOL     OW18603   1.067   5.319   0.851 -0.5896 -0.4132  0.2152
 5878SOL    HW118604   0.986   5.318   0.799  0.4190 -0.2426 -1.4197
 5878SOL    HW218605   1.054   5.390   0.914 -1.4454  0.0452 -0.4564
 5879SOL     OW18606   1.746   6.730   1.459  1.2777  0.3796 -0.4504
 5879SOL    HW118607   1.699   6.694   1.534  0.0086  2.6003 -0.1194
 5879SOL    HW218608   1.830   6.684   1.460  0.0001 -2.1281  0.2233
 5880SOL     OW18609   1.336   4.943   3.353 -0.3542 -0.1306 -0.2432
 5880SOL    HW118610   1.329   4.848   3.344  1.6827 -0.3083 -0.2742
 5880SOL    HW218611   1.418   4.966   3.310  0.3580  1.3290  1.7238
 5881SOL     OW18612   5.808   1.728   1.404  0.4121  0.7065  0.1577
 5881SOL    HW118613   5.860   1.673   1.462  0.3349  1.5456  1.0632
 5881SOL    HW218614   5.869   1.760   1.338  0.6256  0.1626  0.0948
 5882SOL     OW18615   3.114   0.301   0.386  0.0062  0.4905 -0.2030
 5882SOL    HW118616   3.150   0.337   0.467 -0.9334  0.3638  0.2795
 5882SOL    HW218617   3.112   0.375   0.326  0.7189  0.5833 -0.1307
 5883SOL     OW18618   5.857   1.561   2.287  0.1172  0.0126  0.0907
 5883SOL    HW118619   5.798   1.541   2.215 -0.2980  1.9945 -0.1613
 5883SOL    HW218620   5.800   1.584   2.360  0.4655  2.7179 -0.3786
 5884SOL     OW18621   1.486   2.930   0.697  0.4926 -0.2158 -0.5400
 5884SOL    HW118622   1.506   3.019   0.727  1.9398 -0.7038  0.0507
 5884SOL    HW218623   1.572   2.889   0.686 -0.1489 -1.5083 -0.9054
 5885SOL     OW18624   3.749   1.420   5.758  0.0783 -0.4177  0.2401
 5885SOL    HW118625   3.670   1.474   5.748 -0.1395 -0.3741  1.9875
 5885SOL    HW218626   3.751   1.366   5.678  0.9847  2.9179 -2.2155
 5886SOL     OW18627   4.942   5.592   6.746 -0.4416  0.2943  0.5770
 5886SOL    HW118628   4.992   5.652   6.802  1.5157 -0.6576 -0.0566
 5886SOL    HW218629   4.965   5.505   6.778  0.6793 -0.2767 -1.5940
 5887SOL     OW18630   1.959   2.979   0.973 -0.6367  0.0685  0.2328
 5887SOL    HW118631   1.938   3.058   0.922 -1.5808 -1.5437 -2.0558
 5887SOL    HW218632   2.044   2.951   0.939 -1.2473 -0.9925 -0.4556
 5888SOL     OW18633   6.176   2.007   6.918  0.1859  0.5525  0.4855
 5888SOL    HW118634   6.141   1.922   6.944 -1.8379  1.2006  0.0934
 5888SOL    HW218635   6.229   2.035   6.992  0.6028 -0.8702  0.7609
 5889SOL     OW18636   5.051   4.707   7.129  0.4291 -0.4598 -0.6435
 5889SOL    HW118637   5.000   4.686   7.207 -0.2835  1.0145 -0.6795
 5889SOL    HW218638   5.141   4.684   7.152  0.2976  0.3653  0.7981
 5890SOL     OW18639   0.689   2.548   0.634 -0.2906 -0.0448  0.2938
 5890SOL    HW118640   0.697   2.579   0.724  1.1596 -0.2312  0.2581
 5890SOL    HW218641   0.643   2.618   0.588  1.0356  1.1340  0.6843
 5891SOL     OW18642   0.819   5.179   5.393  0.1510 -0.0359  0.3837
 5891SOL    HW118643   0.872   5.099   5.396 -1.8613 -1.3999  1.5935
 5891SOL    HW218644   0.865   5.241   5.450  2.5564  0.2914 -1.7533
 5892SOL     OW18645   5.574   5.014   1.631  0.2403 -0.6556 -0.1514
 5892SOL    HW118646   5.667   4.997   1.617  0.8398  1.0463  1.3697
 5892SOL    HW218647   5.572   5.078   1.702 -2.0815 -0.2739 -0.4917
 5893SOL     OW18648   0.477   3.870   0.147 -0.2380 -0.0444  0.4876
 5893SOL    HW118649   0.455   3.777   0.151 -1.9649  0.3683  1.4810
 5893SOL    HW218650   0.551   3.875   0.086  0.6200 -2.1804  1.2811
 5894SOL     OW18651   1.829   3.044   2.667  0.3427  0.2246  0.0597
 5894SOL    HW118652   1.775   3.059   2.745  2.0815  0.2362  1.3294
 5894SOL    HW218653   1.901   2.988   2.698  1.6260  1.0391 -1.2917
 5895SOL     OW18654   3.994   6.995   1.491  0.2208  0.3752 -0.0177
 5895SOL    HW118655   3.943   7.074   1.507 -0.6312 -0.4372  1.4865
 5895SOL    HW218656   3.985   6.978   1.397 -3.1298 -0.2770  0.3131
 5896SOL     OW18657   2.218   7.284   3.975 -0.0028 -0.3480 -0.0841
 5896SOL    HW118658   2.162   7.323   3.908 -0.2599 -1.2352 -0.3996
 5896SOL    HW218659   2.273   7.356   4.005  0.5134 -0.0417 -1.6527
 5897SOL     OW18660   2.523   6.472   5.975  0.5730  0.0101  0.1379
 5897SOL    HW118661   2.598   6.529   5.990  0.0012  0.4598  1.4169
 5897SOL    HW218662   2.521   6.414   6.051 -0.5589  0.2253  0.2915
 5898SOL     OW18663   3.581   1.282   3.774  0.2918  0.1020 -0.1321
 5898SOL    HW118664   3.563   1.220   3.704  0.2054  0.0819 -0.0927
 5898SOL    HW218665   3.501   1.281   3.828 -0.2674  1.2717 -0.8887
 5899SOL     OW18666   4.519   5.392   1.104 -0.0794  1.1905 -0.1466
 5899SOL    HW118667   4.563   5.315   1.070 -2.7681 -0.3190 -0.5140
 5899SOL    HW218668   4.474   5.361   1.183  1.8305  3.3733  1.9591
 5900SOL     OW18669   0.291   3.203   4.229 -0.0341  0.3406 -0.0179
 5900SOL    HW118670   0.371   3.154   4.213 -0.8299 -0.6534 -1.0691
 5900SOL    HW218671   0.227   3.168   4.166 -1.8030 -0.0939  1.8831
 5901SOL     OW18672   6.603   2.462   3.754  0.0786  0.0415  0.3555
 5901SOL    HW118673   6.595   2.382   3.807 -0.0533  0.3832  0.8642
 5901SOL    HW218674   6.650   2.523   3.811  1.1161 -0.0056 -0.4202
 5902SOL     OW18675   3.557   5.960   1.271 -0.1099  0.1779  0.1059
 5902SOL    HW118676   3.610   5.963   1.192  0.1395  1.0948  0.2919
 5902SOL    HW218677   3.617   5.987   1.341 -0.2837 -0.7551  0.6381
 5903SOL     OW18678   2.034   4.063   6.583  0.4765  0.2637 -0.3711
 5903SOL    HW118679   2.072   4.149   6.598 -0.8428  1.0703 -1.4689
 5903SOL    HW218680   2.091   4.022   6.517  0.7288  0.5518 -0.3305
 5904SOL     OW18681   0.210   3.461   3.716 -0.0399  0.1742  0.3996
 5904SOL    HW118682   0.293   3.428   3.751  0.0838 -1.1299 -1.0103
 5904SOL    HW218683   0.224   3.555   3.706  1.9651 -0.2484 -1.5191
 5905SOL     OW18684   7.341   3.780   5.510  0.2402 -0.4070  0.2004
 5905SOL    HW118685   7.263   3.813   5.556  0.9894  1.3637  0.2977
 5905SOL    HW218686   7.414   3.803   5.568  1.3753  3.0960 -2.2489
 5906SOL     OW18687   1.131   3.301   3.008 -0.0971  0.1034 -0.6876
 5906SOL    HW118688   1.153   3.253   3.087 -2.5150 -0.2586 -0.1610
 5906SOL    HW218689   1.146   3.239   2.937  0.8545  0.0168 -0.4283
 5907SOL     OW18690   3.087   3.126   5.642  0.1073 -0.2345  0.5295
 5907SOL    HW118691   3.055   3.094   5.726  0.5347 -0.2760  0.6803
 5907SOL    HW218692   3.129   3.050   5.602  0.4291 -0.0655  0.5419
 5908SOL     OW18693   2.113   1.083   3.807  0.1402  0.1647 -0.5050
 5908SOL    HW118694   2.053   1.011   3.825 -0.8168  0.7496 -1.2332
 5908SOL    HW218695   2.129   1.077   3.713 -0.4596  1.2723 -0.6879
 5909SOL     OW18696   3.333   0.352   2.848  0.0864  0.0630  0.3831
 5909SOL    HW118697   3.270   0.386   2.911  0.0727  1.0428 -0.1398
 5909SOL    HW218698   3.413   0.339   2.899 -0.1542  0.0834  0.7701
 5910SOL     OW18699   6.978   6.948   4.334 -0.2258  0.1590  0.0420
 5910SOL    HW118700   7.064   6.986   4.315  0.4625 -2.1673 -1.9793
 5910SOL    HW218701   6.997   6.864   4.377 -1.2396 -1.8006 -3.0233
 5911SOL     OW18702   2.817   0.060   0.656 -0.4170  0.0627  0.4965
 5911SOL    HW118703   2.785  -0.001   0.590 -0.0976 -0.1928  0.5749
 5911SOL    HW218704   2.849   0.135   0.607 -0.4657  0.0079  0.3818
 5912SOL     OW18705   2.844   1.755   0.616 -0.1633 -0.0983 -0.1847
 5912SOL    HW118706   2.788   1.832   0.625 -0.6568 -0.3156 -1.1961
 5912SOL    HW218707   2.927   1.789   0.582  0.1563  0.1554  0.8040
 5913SOL     OW18708   5.610   3.281   6.570 -0.8295 -0.1208 -0.4540
 5913SOL    HW118709   5.632   3.211   6.632 -1.3158 -0.7364 -0.9676
 5913SOL    HW218710   5.555   3.239   6.504  0.2658  0.3487 -1.7162
 5914SOL     OW18711   5.601   4.640   3.779 -0.4816 -0.4185 -0.4050
 5914SOL    HW118712   5.565   4.582   3.712 -0.5989 -0.5811 -0.2035
 5914SOL    HW218713   5.544   4.716   3.777 -0.3824 -0.3496 -0.6075
 5915SOL     OW18714   2.175   1.651   5.102 -0.4370 -0.1721 -0.0188
 5915SOL    HW118715   2.089   1.682   5.074  0.2158  1.2415 -0.5479
 5915SOL    HW218716   2.158   1.565   5.140 -2.1486  0.2858  0.3300
 5916SOL     OW18717   5.997   2.048   5.990  0.1753  0.0860 -0.2641
 5916SOL    HW118718   6.043   2.119   5.946  0.2536 -1.8283 -3.6891
 5916SOL    HW218719   5.908   2.081   6.003  0.5045  1.1860 -0.7009
 5917SOL     OW18720   1.253   3.735   6.097 -0.2797 -0.2545 -0.2544
 5917SOL    HW118721   1.285   3.650   6.067  0.0456 -0.2966  0.1969
 5917SOL    HW218722   1.289   3.798   6.034  0.7617 -0.2936  0.2676
 5918SOL     OW18723   0.534   4.318   6.727 -0.3125 -0.7366  0.1883
 5918SOL    HW118724   0.468   4.324   6.658 -0.4545 -0.2172  0.3639
 5918SOL    HW218725   0.530   4.403   6.772 -0.3896 -1.1590  0.9960
 5919SOL     OW18726   4.616   4.884   5.723  0.0917  0.3789  0.1910
 5919SOL    HW118727   4.609   4.855   5.632 -1.0903  0.0542  0.3649
 5919SOL    HW218728   4.661   4.813   5.768  1.6596  0.9968 -0.3140
 5920SOL     OW18729   3.521   4.822   1.807 -0.0521 -0.4389  0.5492
 5920SOL    HW118730   3.554   4.808   1.896 -1.0939  2.4434  1.5075
 5920SOL    HW218731   3.595   4.858   1.759 -0.5455  2.1633  1.5680
 5921SOL     OW18732   3.213   5.274   1.245 -0.0772 -0.1828 -0.1119
 5921SOL    HW118733   3.161   5.348   1.213  0.6146  0.5742  0.4822
 5921SOL    HW218734   3.283   5.264   1.180 -1.3705 -1.7501 -1.3819
 5922SOL     OW18735   4.245   3.723   4.994 -0.4401 -0.6812 -0.3158
 5922SOL    HW118736   4.185   3.686   4.929 -0.0557  0.5401 -1.4037
 5922SOL    HW218737   4.332   3.704   4.959 -0.2151 -0.6590  0.2262
 5923SOL     OW18738   2.381   6.264   2.944  0.3508 -0.6823 -0.1487
 5923SOL    HW118739   2.371   6.304   2.858 -1.6668  1.3364  0.9257
 5923SOL    HW218740   2.353   6.173   2.932  1.4054 -0.8406 -1.8437
 5924SOL     OW18741   2.788   0.062   2.045 -0.6392  0.0529 -0.0622
 5924SOL    HW118742   2.695   0.043   2.032 -0.6582 -0.3054  0.5953
 5924SOL    HW218743   2.832  -0.022   2.033 -0.6696 -0.3634  2.2914
 5925SOL     OW18744   4.486   0.131   1.348  0.5681 -0.0769 -0.3893
 5925SOL    HW118745   4.476   0.127   1.253  0.9473  1.3190 -0.5069
 5925SOL    HW218746   4.399   0.157   1.380  0.6861  0.3902 -0.4404
 5926SOL     OW18747   7.079   7.240   0.067 -0.1491  0.0755 -0.4210
 5926SOL    HW118748   7.165   7.239   0.024 -0.3206 -0.5935 -0.7782
 5926SOL    HW218749   7.093   7.289   0.148  0.6851 -0.4060 -0.2568
 5927SOL     OW18750   4.586   1.181   6.559 -0.6455 -0.4571  0.2355
 5927SOL    HW118751   4.597   1.247   6.491  1.4478 -0.4343  0.5472
 5927SOL    HW218752   4.629   1.217   6.636  0.2216 -1.9988  0.5253
 5928SOL     OW18753   6.357   3.489   1.100 -0.0036  0.0201  0.2865
 5928SOL    HW118754   6.372   3.481   1.194 -2.3664 -0.0647  0.7092
 5928SOL    HW218755   6.273   3.534   1.092 -0.6996 -1.5023 -1.7599
 5929SOL     OW18756   3.071   5.463   6.956 -0.3006  0.4114  0.1869
 5929SOL    HW118757   3.147   5.520   6.944  0.9045 -1.2297 -0.3927
 5929SOL    HW218758   3.100   5.378   6.922 -1.6023 -0.8505  2.0505
 5930SOL     OW18759   3.175   3.201   5.238  0.1587 -0.0828  0.0492
 5930SOL    HW118760   3.131   3.188   5.154  0.6475  1.9756 -0.5945
 5930SOL    HW218761   3.131   3.141   5.298 -1.1888 -0.5556 -1.3455
 5931SOL     OW18762   5.782   4.265   0.279 -0.0632  1.0935  0.8170
 5931SOL    HW118763   5.718   4.261   0.208  0.5370 -0.9659  0.3310
 5931SOL    HW218764   5.739   4.223   0.353  0.8373 -0.7696  0.3401
 5932SOL     OW18765   5.909   2.839   4.552 -0.3837 -0.4720 -0.0037
 5932SOL    HW118766   5.983   2.781   4.570  0.3651  0.1949 -0.8842
 5932SOL    HW218767   5.907   2.900   4.626 -0.0679 -0.5080  0.0342
 5933SOL     OW18768   5.746   2.193   3.401  0.1347  0.1192 -0.0492
 5933SOL    HW118769   5.776   2.251   3.471 -1.2410 -1.1224  1.6598
 5933SOL    HW218770   5.678   2.244   3.356  0.6209  0.7057 -0.1437
 5934SOL     OW18771   0.264   5.896   4.572 -0.0538  0.2461 -0.4237
 5934SOL    HW118772   0.322   5.956   4.525  0.4042  1.9964  2.1633
 5934SOL    HW218773   0.176   5.925   4.550  0.1099  0.2888 -1.0501
 5935SOL     OW18774   7.213   2.512   5.977 -0.1337 -0.2020 -0.0153
 5935SOL    HW118775   7.255   2.430   6.004  0.5839  0.6776  1.7821
 5935SOL    HW218776   7.142   2.486   5.919 -1.0395 -2.2605  1.8672
 5936SOL     OW18777   5.776   4.327   2.318  0.0457  0.1144  0.2768
 5936SOL    HW118778   5.785   4.412   2.361 -1.7956  1.2099 -1.3457
 5936SOL    HW218779   5.729   4.272   2.382  0.0820  0.7324  0.8413
 5937SOL     OW18780   0.356   5.198   7.073 -0.1778  0.9297 -0.4938
 5937SOL    HW118781   0.295   5.265   7.104 -0.5143  0.8352 -0.9363
 5937SOL    HW218782   0.378   5.225   6.984 -0.6610  0.2296 -0.8393
 5938SOL     OW18783   2.149   6.217   4.677 -0.2239 -0.0547 -0.1250
 5938SOL    HW118784   2.116   6.190   4.763  0.2623  1.0928  0.4532
 5938SOL    HW218785   2.087   6.284   4.649  1.7458  2.5092  1.2074
 5939SOL     OW18786   5.944   0.836   3.130 -0.4828  0.5111 -0.0185
 5939SOL    HW118787   5.933   0.907   3.193 -1.0190 -0.3857  0.9140
 5939SOL    HW218788   6.037   0.813   3.137 -0.3902  0.8708 -0.0525
 5940SOL     OW18789   2.369   5.077   6.038  0.0961  0.3378 -0.2024
 5940SOL    HW118790   2.377   5.000   6.094  1.6286 -0.7692 -1.8193
 5940SOL    HW218791   2.436   5.137   6.071  1.2599 -0.4663 -1.0269
 5941SOL     OW18792   5.203   0.179   4.307 -0.3709 -0.1650  0.2827
 5941SOL    HW118793   5.297   0.183   4.289 -0.5015  3.3808 -0.4954
 5941SOL    HW218794   5.163   0.156   4.223 -0.2563  0.9039 -0.0853
 5942SOL     OW18795   4.492   3.830   6.856 -0.5464 -0.0312  0.0304
 5942SOL    HW118796   4.428   3.803   6.922  0.1465 -2.3183 -0.1473
 5942SOL    HW218797   4.510   3.750   6.806  2.4915  0.5051  0.1008
 5943SOL     OW18798   3.412   6.538   2.133 -0.1386 -0.3039 -0.0601
 5943SOL    HW118799   3.370   6.577   2.210 -0.2924  1.3008 -0.9048
 5943SOL    HW218800   3.388   6.446   2.137  0.4681 -0.4299  2.1996
 5944SOL     OW18801   1.171   4.806   5.917 -0.0853  0.0578 -0.3981
 5944SOL    HW118802   1.192   4.900   5.910  0.7292 -0.0544  0.4055
 5944SOL    HW218803   1.140   4.795   6.006 -0.2165 -0.4381 -0.5022
 5945SOL     OW18804   6.463   4.849   4.657  0.2266 -0.3187 -0.4817
 5945SOL    HW118805   6.534   4.822   4.598 -0.2015  0.6710 -1.4752
 5945SOL    HW218806   6.470   4.788   4.731  3.0107  0.6121  0.1576
 5946SOL     OW18807   5.717   2.165   0.679 -0.8456  0.1671 -0.1858
 5946SOL    HW118808   5.723   2.201   0.590 -0.0914  1.3900  0.3320
 5946SOL    HW218809   5.741   2.238   0.736 -1.3446 -0.5962  1.0320
 5947SOL     OW18810   0.051   5.418   4.461  0.6467  0.2745 -0.0096
 5947SOL    HW118811   0.124   5.379   4.412 -0.7158  0.0549 -1.9846
 5947SOL    HW218812   0.062   5.512   4.450  0.8158  0.2518 -0.0356
 5948SOL     OW18813   2.267   3.052   4.721  0.2491 -0.0932  0.2769
 5948SOL    HW118814   2.262   3.071   4.815 -0.7622 -0.3843  0.2962
 5948SOL    HW218815   2.201   3.109   4.681  0.4936 -0.1545 -0.2307
 5949SOL     OW18816   1.963   5.916   3.053  0.2417 -0.2576 -0.1426
 5949SOL    HW118817   1.915   5.977   3.110  0.4998 -0.8259  0.7049
 5949SOL    HW218818   1.941   5.829   3.087  0.1883 -0.6300 -1.0902
 5950SOL     OW18819   3.909   2.434   2.046 -0.1830 -0.5227  0.8036
 5950SOL    HW118820   3.949   2.483   1.973 -0.6651 -1.0249  0.1857
 5950SOL    HW218821   3.980   2.422   2.109  0.4535 -0.7757  0.0527
 5951SOL     OW18822   1.502   3.658   5.496 -0.4791 -0.8058  0.0838
 5951SOL    HW118823   1.555   3.718   5.548 -0.9561  0.5004 -0.8926
 5951SOL    HW218824   1.563   3.622   5.432 -0.2165 -1.3198  0.6061
 5952SOL     OW18825   5.190   6.271   6.962 -0.0210  0.0053 -0.1088
 5952SOL    HW118826   5.148   6.186   6.975  1.2907 -0.6816 -0.2138
 5952SOL    HW218827   5.245   6.283   7.039 -1.7054  1.7352  0.9288
 5953SOL     OW18828   4.892   3.258   3.622 -0.5231 -0.3228  0.3719
 5953SOL    HW118829   4.810   3.297   3.651 -1.5346 -2.2876  0.2546
 5953SOL    HW218830   4.912   3.191   3.686  1.1371  0.2428  0.5098
 5954SOL     OW18831   1.422   3.425   4.884  0.2785 -0.4120 -0.2102
 5954SOL    HW118832   1.432   3.476   4.803  1.7573 -1.3294 -0.6475
 5954SOL    HW218833   1.508   3.432   4.926 -0.6543  0.5529  1.6128
 5955SOL     OW18834   2.099   1.078   2.534 -0.1495 -0.1147 -0.0851
 5955SOL    HW118835   2.141   1.142   2.592  0.4178 -1.9263  1.6221
 5955SOL    HW218836   2.010   1.071   2.567 -0.2965 -0.0057 -0.4545
 5956SOL     OW18837   1.554   4.827   7.298  0.1861  0.2679  0.1061
 5956SOL    HW118838   1.534   4.913   7.334  1.3254  0.8388 -0.5624
 5956SOL    HW218839   1.510   4.765   7.356 -2.1524  1.3387 -0.4012
 5957SOL     OW18840   1.397   5.978   4.636 -0.0546 -0.5310 -0.0903
 5957SOL    HW118841   1.369   6.065   4.665  0.7850 -0.2027 -0.2399
 5957SOL    HW218842   1.470   5.956   4.694  1.9101  0.2977 -2.0980
 5958SOL     OW18843   1.420   4.453   2.585 -0.5817 -0.4469 -1.2223
 5958SOL    HW118844   1.498   4.466   2.639 -0.6012  1.3759 -1.5745
 5958SOL    HW218845   1.425   4.362   2.556  0.6283 -0.7833 -0.0385
 5959SOL     OW18846   1.824   2.464   2.599  0.0418  0.7207 -0.3545
 5959SOL    HW118847   1.765   2.408   2.548  0.2580 -0.4931  0.7014
 5959SOL    HW218848   1.896   2.483   2.539 -0.0140 -0.1659 -0.7182
 5960SOL     OW18849   4.057   2.130   1.088  0.6207  0.8379 -0.2262
 5960SOL    HW118850   4.012   2.145   1.005  2.0728  0.0392 -1.2011
 5960SOL    HW218851   4.147   2.156   1.071  1.3401 -1.0090  0.5441
 5961SOL     OW18852   6.673   6.277   7.184 -0.5048  0.1166 -0.1358
 5961SOL    HW118853   6.762   6.310   7.166 -0.5066 -0.4971 -1.3382
 5961SOL    HW218854   6.672   6.265   7.279  0.8984 -0.4151 -0.1594
 5962SOL     OW18855   6.993   5.959   6.114  0.3685  0.6444 -0.2562
 5962SOL    HW118856   6.915   5.972   6.169  0.4272 -0.7928  0.2159
 5962SOL    HW218857   6.982   6.021   6.042 -0.6853  1.2062  0.3561
 5963SOL     OW18858   7.077   1.178   2.047 -0.8550 -0.0838 -0.1482
 5963SOL    HW118859   7.108   1.268   2.050 -1.4171  0.1188 -0.3068
 5963SOL    HW218860   7.091   1.151   1.956  0.3021 -0.5233  0.1355
 5964SOL     OW18861   4.013   6.193   2.791 -0.5973 -0.5039  0.4618
 5964SOL    HW118862   4.034   6.102   2.771  1.3777 -0.8227  3.3883
 5964SOL    HW218863   4.002   6.195   2.886 -2.7426  1.9661  0.2734
 5965SOL     OW18864   5.032   6.668   1.462  0.1808 -0.2599 -0.4491
 5965SOL    HW118865   4.942   6.692   1.485  0.0630 -0.8031 -0.3340
 5965SOL    HW218866   5.052   6.593   1.518 -0.2919 -1.9599 -2.4492
 5966SOL     OW18867   7.238   4.899   0.432  0.0937  0.3081  1.0279
 5966SOL    HW118868   7.325   4.861   0.419  0.2621  1.1676 -0.6221
 5966SOL    HW218869   7.179   4.823   0.432  0.7521 -0.2112  1.2260
 5967SOL     OW18870   4.719   3.212   2.407  0.1843  0.2871  0.2611
 5967SOL    HW118871   4.798   3.246   2.449  0.0858  1.5338 -0.5272
 5967SOL    HW218872   4.747   3.193   2.317 -0.4942  1.1283 -0.1406
 5968SOL     OW18873   5.087   4.155   1.629 -0.0426 -0.1518  0.0067
 5968SOL    HW118874   5.135   4.227   1.587  2.5899 -1.2462  0.9108
 5968SOL    HW218875   5.019   4.131   1.566  0.3506  1.7243 -1.2228
 5969SOL     OW18876   4.022   2.384   3.820  0.3558 -0.3892  0.2997
 5969SOL    HW118877   4.110   2.388   3.859  0.4196  1.1832  0.0696
 5969SOL    HW218878   3.978   2.463   3.852 -0.7372 -0.7790 -0.1779
 5970SOL     OW18879   6.786   2.825   4.463 -0.5167  0.4263  0.6596
 5970SOL    HW118880   6.693   2.804   4.471 -0.6873 -0.2476 -2.1414
 5970SOL    HW218881   6.820   2.759   4.404  1.4623  1.5070  0.5202
 5971SOL     OW18882   2.601   5.909   5.344  0.4253  0.5970 -0.3206
 5971SOL    HW118883   2.580   5.818   5.363 -1.7760  0.9148 -0.9233
 5971SOL    HW218884   2.627   5.946   5.428 -3.0033  0.4504  0.9433
 5972SOL     OW18885   1.145   5.214   3.792  0.2120 -0.1820  0.2137
 5972SOL    HW118886   1.207   5.194   3.861  0.9380 -1.9596 -0.9008
 5972SOL    HW218887   1.178   5.168   3.714 -0.3878  1.9852 -1.4350
 5973SOL     OW18888   5.246   5.129   2.893 -0.1750 -0.1245  0.3389
 5973SOL    HW118889   5.165   5.173   2.866 -0.4764 -0.8000  0.1003
 5973SOL    HW218890   5.217   5.041   2.918  0.8085 -1.2440 -2.2147
 5974SOL     OW18891   6.759   7.311   6.062 -0.0720 -0.0049  0.4390
 5974SOL    HW118892   6.741   7.392   6.110  1.0433  0.3389  0.3162
 5974SOL    HW218893   6.840   7.278   6.100  0.3588 -0.1988 -0.6015
 5975SOL     OW18894   1.884   0.885   0.044 -0.8014  0.4270  0.0503
 5975SOL    HW118895   1.912   0.941  -0.029 -1.1601  1.2031  0.4941
 5975SOL    HW218896   1.824   0.823   0.004  2.0244 -1.8237 -1.1038
 5976SOL     OW18897   0.760   4.925   2.391  0.2415  0.0673 -0.6030
 5976SOL    HW118898   0.846   4.919   2.431 -0.6633 -0.1749  1.4165
 5976SOL    HW218899   0.766   5.001   2.333  1.3870  0.9335  0.6072
 5977SOL     OW18900   3.151   3.140   1.481 -0.0286  0.3418 -0.2099
 5977SOL    HW118901   3.139   3.235   1.483  3.1682  0.8528  1.2123
 5977SOL    HW218902   3.116   3.109   1.565  0.1388  0.4601 -0.0966
 5978SOL     OW18903   3.195   2.698   4.475 -0.2721 -0.3404 -0.4851
 5978SOL    HW118904   3.260   2.715   4.407 -1.1349  0.1936 -1.1981
 5978SOL    HW218905   3.131   2.640   4.433 -0.0637 -1.1982  0.3310
 5979SOL     OW18906   0.713   3.131   6.316 -0.5192  0.3408 -0.4036
 5979SOL    HW118907   0.785   3.175   6.363 -0.7370 -0.3838  0.6318
 5979SOL    HW218908   0.663   3.203   6.278  0.3757  0.8915 -0.5956
 5980SOL     OW18909   5.714   4.145   4.984  0.2994 -0.3878  0.3171
 5980SOL    HW118910   5.753   4.232   4.978  0.7496 -0.6518 -0.7841
 5980SOL    HW218911   5.782   4.091   5.024  0.5614 -0.5400 -0.3198
 5981SOL     OW18912   4.926   3.683   5.058 -0.4373 -0.3849  0.0164
 5981SOL    HW118913   4.832   3.665   5.062 -0.2761 -1.1525  0.7263
 5981SOL    HW218914   4.962   3.641   5.137  0.5966 -0.6903 -0.5948
 5982SOL     OW18915   0.125   1.406   3.104  0.1372 -0.4982 -0.3337
 5982SOL    HW118916   0.146   1.397   3.011  1.3963 -0.1422 -0.0998
 5982SOL    HW218917   0.109   1.317   3.134 -1.1291 -0.5443 -1.0641
 5983SOL     OW18918   1.116   1.615   3.917  0.3286  0.0838  0.0732
 5983SOL    HW118919   1.112   1.535   3.865 -1.6937  0.6803 -0.8073
 5983SOL    HW218920   1.025   1.630   3.945  1.1696  0.3122  3.0070
 5984SOL     OW18921   0.517   3.786   1.683  0.2388 -0.0961  0.5498
 5984SOL    HW118922   0.609   3.774   1.658  0.1173  1.0434 -0.5341
 5984SOL    HW218923   0.501   3.880   1.673 -1.4072 -0.4609 -0.5801
 5985SOL     OW18924   2.725   6.261   4.849 -0.6142  0.4401 -0.0394
 5985SOL    HW118925   2.747   6.330   4.787  0.5724  0.0622 -0.0685
 5985SOL    HW218926   2.744   6.300   4.935  1.8011 -0.4020 -0.1333
 5986SOL     OW18927   3.250   6.542   3.516 -0.1472 -0.2719  0.4046
 5986SOL    HW118928   3.284   6.629   3.536  1.1940 -0.2688 -1.6401
 5986SOL    HW218929   3.327   6.485   3.515 -0.8699 -1.2963  0.7032
 5987SOL     OW18930   3.770   0.499   3.144 -0.1605 -0.4913  0.6177
 5987SOL    HW118931   3.851   0.450   3.137  0.1611  0.2129 -0.7635
 5987SOL    HW218932   3.793   0.588   3.120 -1.0605  0.0395  1.5984
 5988SOL     OW18933   5.771   5.786   0.867 -0.1329  0.2419  0.1984
 5988SOL    HW118934   5.691   5.774   0.918 -1.8516  0.4452 -2.2587
 5988SOL    HW218935   5.779   5.881   0.855 -0.9998  0.1330 -1.6233
 5989SOL     OW18936   3.507   6.535   1.058 -0.1100  0.2452 -0.4080
 5989SOL    HW118937   3.546   6.619   1.037 -0.6478  0.7391  0.5163
 5989SOL    HW218938   3.571   6.470   1.029  0.0946  0.9447 -1.5769
 5990SOL     OW18939   4.349   0.448   6.458  0.1857 -0.8390  0.1468
 5990SOL    HW118940   4.326   0.373   6.404 -0.7387 -1.1347  0.9208
 5990SOL    HW218941   4.316   0.524   6.409 -0.4842 -1.0893  0.1978
 5991SOL     OW18942   6.169   5.472   5.532  0.3497 -0.5475  0.8318
 5991SOL    HW118943   6.090   5.473   5.479 -0.1777  1.0226  1.5853
 5991SOL    HW218944   6.228   5.412   5.486 -0.4996 -0.1400 -0.8786
 5992SOL     OW18945   1.836   1.301   1.009  0.4327  0.5665 -0.3295
 5992SOL    HW118946   1.848   1.363   1.080  0.7851  0.7890 -0.5794
 5992SOL    HW218947   1.778   1.346   0.947 -0.8438 -0.0806  0.3581
 5993SOL     OW18948   4.963   2.430   6.802 -0.1335 -0.0326 -0.4807
 5993SOL    HW118949   4.950   2.509   6.751  2.5138  2.2046  1.9532
 5993SOL    HW218950   4.925   2.449   6.887  2.2216 -0.4964  0.7794
 5994SOL     OW18951   0.712   5.454   1.349 -0.0086  0.4944  0.2473
 5994SOL    HW118952   0.643   5.431   1.411  0.4084 -1.9024 -0.0538
 5994SOL    HW218953   0.768   5.515   1.397 -0.9709  0.5337  1.3723
 5995SOL     OW18954   2.335   6.027   4.023 -0.0660  0.2290 -0.2131
 5995SOL    HW118955   2.371   6.099   4.073  0.1126  0.4566 -0.6677
 5995SOL    HW218956   2.253   6.062   3.987 -1.1151 -0.4844  1.3519
 5996SOL     OW18957   6.178   5.478   0.436  0.1078  0.5274  0.1028
 5996SOL    HW118958   6.225   5.406   0.479 -0.6065 -0.0470 -0.0577
 5996SOL    HW218959   6.233   5.501   0.361  0.7768  0.7465  0.6539
 5997SOL     OW18960   4.337   0.118   6.044  0.4200 -0.2867 -0.2068
 5997SOL    HW118961   4.360   0.193   5.989 -0.5467  0.4750  0.3919
 5997SOL    HW218962   4.250   0.091   6.013  0.4956 -0.7669 -0.0078
 5998SOL     OW18963   5.771   2.433   4.742  0.0428  0.4212  0.8739
 5998SOL    HW118964   5.794   2.493   4.671 -3.1008  1.0996  0.2680
 5998SOL    HW218965   5.731   2.489   4.808  0.5180 -0.5554  2.0151
 5999SOL     OW18966   5.010   3.365   1.030  0.1903  0.0755  0.4181
 5999SOL    HW118967   4.943   3.421   1.069  1.6739  2.0107  0.3270
 5999SOL    HW218968   4.962   3.313   0.966 -1.1879  1.7770 -0.0260
 6000SOL     OW18969   2.958   6.526   4.467 -0.4472  0.6181 -0.1849
 6000SOL    HW118970   2.970   6.465   4.394  1.2699 -0.4671  0.9113
 6000SOL    HW218971   3.015   6.600   4.446  2.6156 -1.0687  1.3569
 6001SOL     OW18972   0.117   2.337   0.458 -0.4262 -0.0824 -0.3622
 6001SOL    HW118973   0.025   2.342   0.433 -0.1545  0.7548 -1.2602
 6001SOL    HW218974   0.134   2.244   0.469 -1.0511 -0.3362 -1.4320
 6002SOL     OW18975   5.979   6.020   6.573 -0.4983 -0.0340 -0.0861
 6002SOL    HW118976   6.039   6.091   6.596  0.3221 -0.9006  0.5364
 6002SOL    HW218977   6.005   5.947   6.630  0.0344 -1.5101 -2.0908
 6003SOL     OW18978   6.030   3.191   1.249  0.0886 -0.4534  0.1753
 6003SOL    HW118979   6.039   3.275   1.294  0.3114  0.0991 -0.8838
 6003SOL    HW218980   6.082   3.130   1.303  3.8313  1.0201 -1.4294
 6004SOL     OW18981   0.401   1.453   0.954  0.0675  0.0500  0.2815
 6004SOL    HW118982   0.377   1.539   0.988 -1.2242 -0.2412  0.1730
 6004SOL    HW218983   0.455   1.414   1.022  1.0087  1.1038  0.1554
 6005SOL     OW18984   6.377   2.144   1.419  0.3879 -0.1503  0.0452
 6005SOL    HW118985   6.471   2.159   1.434  0.2929 -0.5977  1.2209
 6005SOL    HW218986   6.337   2.162   1.504 -0.5234 -0.4910 -0.3088
 6006SOL     OW18987   6.415   1.847   1.395  0.0833  0.2835  0.5900
 6006SOL    HW118988   6.395   1.814   1.308  1.4051  0.4293  0.2000
 6006SOL    HW218989   6.332   1.843   1.442 -0.5368 -0.3048 -0.5035
 6007SOL     OW18990   6.691   0.214   5.785  0.3353  0.3558  0.5215
 6007SOL    HW118991   6.703   0.292   5.840 -0.9493  0.0708  1.2569
 6007SOL    HW218992   6.656   0.148   5.845  0.6722 -0.5562 -0.2572
 6008SOL     OW18993   3.861   0.764   0.745  0.7924  0.2098 -0.1043
 6008SOL    HW118994   3.887   0.849   0.709 -2.7327  1.3526 -0.2897
 6008SOL    HW218995   3.855   0.779   0.839  0.8516 -0.0478 -0.0587
 6009SOL     OW18996   6.399   1.924   0.771  0.4010 -0.3106  0.3537
 6009SOL    HW118997   6.312   1.919   0.810 -0.3866  2.0448 -0.9053
 6009SOL    HW218998   6.436   2.006   0.805  1.7277 -0.7520  0.0616
 6010SOL     OW18999   5.415   5.432   3.489 -0.0640  0.1398  0.0522
 6010SOL    HW119000   5.446   5.354   3.535  2.6083 -0.2265 -2.1055
 6010SOL    HW219001   5.337   5.403   3.441 -0.3205 -0.6069  0.9055
 6011SOL     OW19002   1.862   3.157   7.098 -0.0406 -0.0496  0.2501
 6011SOL    HW119003   1.933   3.103   7.134 -0.1505  0.1835  0.8377
 6011SOL    HW219004   1.810   3.097   7.046  0.7883 -0.1465 -0.4751
 6012SOL     OW19005   3.521   5.356   3.519 -0.5700  0.3134  0.1045
 6012SOL    HW119006   3.610   5.337   3.548 -0.9723 -1.9502  0.0658
 6012SOL    HW219007   3.482   5.407   3.590  0.9642  2.0803 -0.2415
 6013SOL     OW19008   5.830   2.514   7.211 -0.4823  0.2111 -0.1160
 6013SOL    HW119009   5.743   2.473   7.215 -0.5696  0.5094  1.9476
 6013SOL    HW219010   5.856   2.505   7.119 -2.0738 -1.1643 -0.4883
 6014SOL     OW19011   4.456   1.716   1.047 -0.2596 -0.0953 -0.0729
 6014SOL    HW119012   4.380   1.722   1.105  0.9845 -0.8310  1.7314
 6014SOL    HW219013   4.516   1.657   1.092  1.7364  1.0871 -1.0289
 6015SOL     OW19014   2.452   5.405   0.294  0.1872  0.3550 -0.2566
 6015SOL    HW119015   2.395   5.451   0.356 -3.0613 -2.2057 -1.0172
 6015SOL    HW219016   2.456   5.464   0.218 -0.4530  1.1107  0.2719
 6016SOL     OW19017   3.403   6.027   2.516 -0.0351  0.2951  0.6368
 6016SOL    HW119018   3.371   5.936   2.513  0.4921  0.1208  0.1862
 6016SOL    HW219019   3.498   6.019   2.510 -0.0564  0.9664 -2.0444
 6017SOL     OW19020   3.488   0.100   7.371 -0.4356 -0.1945  0.6387
 6017SOL    HW119021   3.496   0.008   7.348 -0.2372 -0.2161  0.7940
 6017SOL    HW219022   3.411   0.104   7.429 -0.7955 -0.1737  0.1614
 6018SOL     OW19023   6.381   6.939   5.236 -0.2992 -0.5527  0.3772
 6018SOL    HW119024   6.414   6.865   5.286  1.5114  0.8989  1.4532
 6018SOL    HW219025   6.372   7.009   5.300 -0.3934  0.6235 -0.8917
 6019SOL     OW19026   3.190   6.084   4.776  0.1003 -0.2582  0.0812
 6019SOL    HW119027   3.249   6.159   4.766 -1.7157  1.1037 -0.9438
 6019SOL    HW219028   3.241   6.020   4.825  1.0145  2.4938  3.0884
 6020SOL     OW19029   7.347   5.507   2.800 -0.2134  0.2956  0.0783
 6020SOL    HW119030   7.330   5.576   2.863 -1.9043  1.2842 -1.3660
 6020SOL    HW219031   7.296   5.532   2.722 -0.5052 -2.3250 -0.6756
 6021SOL     OW19032   2.945   3.925   1.850 -0.3858  0.3592  0.0216
 6021SOL    HW119033   2.990   3.985   1.908  0.6096  0.4916 -0.8580
 6021SOL    HW219034   2.991   3.842   1.860 -1.4007 -0.1325  0.8129
 6022SOL     OW19035   5.048   0.137   2.968  1.0709 -0.4927 -0.4426
 6022SOL    HW119036   5.124   0.134   3.025  0.4604 -1.9629  0.3465
 6022SOL    HW219037   5.065   0.072   2.900  0.4658 -0.9594 -0.1634
 6023SOL     OW19038   5.393   5.081   6.955 -0.6164 -0.1668 -0.6431
 6023SOL    HW119039   5.390   4.991   6.987  0.3705  0.2753  0.7780
 6023SOL    HW219040   5.374   5.074   6.861 -1.7925 -1.7073 -0.3274
 6024SOL     OW19041   0.504   0.848   2.144  0.0924  0.3998 -0.0239
 6024SOL    HW119042   0.439   0.814   2.205 -0.3028  0.6951 -0.2770
 6024SOL    HW219043   0.577   0.786   2.150 -0.4484 -0.2706 -0.1621
 6025SOL     OW19044   3.446   6.459   6.473  0.0074  0.9347 -0.6479
 6025SOL    HW119045   3.526   6.408   6.488  1.0225  2.7473  0.4085
 6025SOL    HW219046   3.433   6.507   6.555 -2.1825  0.7118 -0.8069
 6026SOL     OW19047   7.013   0.891   3.361 -0.1748  0.4650  0.5747
 6026SOL    HW119048   7.041   0.799   3.358  1.0140  0.7493  1.8033
 6026SOL    HW219049   7.017   0.920   3.270  2.4191  0.1005  0.4857
 6027SOL     OW19050   7.167   4.321   2.578  0.0570  0.2657  0.0241
 6027SOL    HW119051   7.197   4.351   2.664 -1.1854 -0.8123  0.8695
 6027SOL    HW219052   7.119   4.396   2.542 -0.2455  0.3980  0.6963
 6028SOL     OW19053   0.491   6.357   6.049 -0.8686  0.1213 -0.2521
 6028SOL    HW119054   0.565   6.296   6.052 -0.8249  0.2053  0.4032
 6028SOL    HW219055   0.468   6.373   6.140 -0.0187  2.1376 -0.3456
 6029SOL     OW19056   3.206   6.829   4.756 -0.0286 -0.2070 -0.1338
 6029SOL    HW119057   3.240   6.776   4.683 -0.6912 -1.4086  0.4085
 6029SOL    HW219058   3.285   6.857   4.803  0.3470 -0.4805 -0.5854
 6030SOL     OW19059   0.570   3.804   4.978  0.2549 -0.0993 -0.3174
 6030SOL    HW119060   0.593   3.792   4.886 -1.8693  1.5769 -1.1572
 6030SOL    HW219061   0.482   3.766   4.986 -0.7602  2.1948  0.2735
 6031SOL     OW19062   6.590   4.803   4.950 -0.7017 -0.0863 -0.3355
 6031SOL    HW119063   6.528   4.768   5.014 -1.7049  0.6885 -0.8418
 6031SOL    HW219064   6.561   4.767   4.866 -1.6758  1.7339 -0.8451
 6032SOL     OW19065   3.427   4.374   6.962 -0.9390 -0.7721 -0.0973
 6032SOL    HW119066   3.492   4.370   6.892 -0.2235 -0.6433  0.5517
 6032SOL    HW219067   3.343   4.380   6.916 -0.5991 -2.1728 -0.9624
 6033SOL     OW19068   5.757   2.210   7.052  0.4572 -0.1127 -0.4195
 6033SOL    HW119069   5.816   2.282   7.029 -2.2599  2.0206 -1.3039
 6033SOL    HW219070   5.674   2.253   7.072 -1.3090 -3.0178 -0.9356
 6034SOL     OW19071   0.683   3.521   3.865 -0.8821  0.2260  0.1605
 6034SOL    HW119072   0.714   3.488   3.781  0.0544 -1.4192  1.1017
 6034SOL    HW219073   0.727   3.605   3.876 -0.2283 -0.0178 -0.5370
 6035SOL     OW19074   1.263   3.952   2.270  0.1926 -0.2925 -0.4162
 6035SOL    HW119075   1.280   4.046   2.258  1.2374 -0.3349  0.5288
 6035SOL    HW219076   1.198   3.949   2.340 -0.5977 -0.2552 -1.1361
 6036SOL     OW19077   7.219   5.497   7.112  0.6471 -0.4312 -0.3192
 6036SOL    HW119078   7.176   5.522   7.194  0.4431 -2.0539  0.0862
 6036SOL    HW219079   7.305   5.464   7.139  0.6833 -0.7201 -0.7797
 6037SOL     OW19080   7.229   1.544   2.703 -0.3418 -0.0728 -0.1173
 6037SOL    HW119081   7.150   1.583   2.741 -1.0881 -0.4882 -1.1850
 6037SOL    HW219082   7.296   1.612   2.713 -0.0317 -0.6775  3.2737
 6038SOL     OW19083   5.220   6.234   4.620 -0.2346 -0.2059  0.1056
 6038SOL    HW119084   5.224   6.172   4.693 -0.3557 -0.1312  0.1757
 6038SOL    HW219085   5.299   6.217   4.569 -0.1416 -0.2448  0.2650
 6039SOL     OW19086   1.285   5.892   2.495  0.1648  0.3891 -0.2790
 6039SOL    HW119087   1.329   5.950   2.557  1.5403  0.2013 -1.0436
 6039SOL    HW219088   1.263   5.815   2.547  2.1768 -0.1815 -0.1830
 6040SOL     OW19089   4.634   6.865   1.689  0.6231  0.4806  0.7766
 6040SOL    HW119090   4.588   6.918   1.624  1.1777 -1.3654 -1.2217
 6040SOL    HW219091   4.564   6.831   1.745 -0.2927 -0.5488 -0.9137
 6041SOL     OW19092   1.867   4.143   7.328 -0.1652  0.1943 -0.3748
 6041SOL    HW119093   1.902   4.150   7.417 -1.7489 -0.4611  0.3382
 6041SOL    HW219094   1.934   4.183   7.272  0.8402  0.6525  1.1100
 6042SOL     OW19095   1.594   5.907   1.427  0.3349 -0.5701 -0.4005
 6042SOL    HW119096   1.623   5.996   1.410  0.5506 -0.2006  1.6302
 6042SOL    HW219097   1.675   5.859   1.448  0.1791 -1.1655 -1.1122
 6043SOL     OW19098   0.195   1.967   0.928  0.1994 -0.0506  0.0629
 6043SOL    HW119099   0.117   1.911   0.922 -0.1713  0.6256 -2.0507
 6043SOL    HW219100   0.262   1.920   0.880  1.0881 -0.5147  1.6746
 6044SOL     OW19101   6.829   0.159   6.448 -0.4364  0.3578  0.1115
 6044SOL    HW119102   6.817   0.235   6.391  0.9970  0.3682 -0.2243
 6044SOL    HW219103   6.870   0.093   6.392 -2.7068 -1.1399  0.0759
 6045SOL     OW19104   2.055   6.286   6.789 -0.1757 -0.0820  0.1058
 6045SOL    HW119105   2.046   6.308   6.882 -1.4425  0.0011 -0.0224
 6045SOL    HW219106   2.077   6.369   6.747 -0.6096  0.0811  0.1979
 6046SOL     OW19107   7.042   5.964   5.258 -0.1982  0.0670 -0.5795
 6046SOL    HW119108   7.065   5.877   5.227  1.1527 -0.3816  1.5289
 6046SOL    HW219109   6.975   5.950   5.325  0.8573  0.4972  0.6120
 6047SOL     OW19110   2.586   7.354   2.666  0.3073 -0.0917 -0.1675
 6047SOL    HW119111   2.618   7.376   2.578  0.0204  0.5156 -0.1265
 6047SOL    HW219112   2.495   7.329   2.653 -0.3497  1.9140  0.1724
 6048SOL     OW19113   2.260   5.501   6.499 -0.1690 -0.4839 -0.3144
 6048SOL    HW119114   2.226   5.452   6.424 -0.8164 -1.3633  0.5333
 6048SOL    HW219115   2.202   5.577   6.505 -0.7357 -0.9248 -0.1121
 6049SOL     OW19116   4.180   0.019   0.879  0.6105 -0.0745  0.3859
 6049SOL    HW119117   4.183   0.106   0.919 -1.1532  0.1074  0.2283
 6049SOL    HW219118   4.086   0.003   0.865  1.0099 -1.2745 -1.1765
 6050SOL     OW19119   5.223   3.234   2.625 -0.1438 -0.1225  0.1744
 6050SOL    HW119120   5.303   3.182   2.623 -0.0228  0.0722 -1.3406
 6050SOL    HW219121   5.170   3.195   2.695  0.4885 -1.4500 -0.0588
 6051SOL     OW19122   3.831   4.769   0.339  0.1730 -0.1352 -0.0520
 6051SOL    HW119123   3.755   4.737   0.290  0.1494 -1.1167  0.6016
 6051SOL    HW219124   3.812   4.747   0.430  2.2640 -2.6024 -0.1217
 6052SOL     OW19125   4.407   7.123   6.486 -0.1212 -0.0017 -0.7281
 6052SOL    HW119126   4.421   7.039   6.442 -1.5042 -0.6695  0.0531
 6052SOL    HW219127   4.386   7.184   6.416 -0.7304 -0.6874 -1.1496
 6053SOL     OW19128   2.820   1.361   6.867  0.0233 -0.3476 -0.3116
 6053SOL    HW119129   2.729   1.391   6.860 -0.4728 -1.2208  1.5983
 6053SOL    HW219130   2.856   1.411   6.940  0.5040 -1.3086  0.1223
 6054SOL     OW19131   3.725   1.810   2.947  0.2344 -0.1117 -0.2022
 6054SOL    HW119132   3.784   1.845   3.015 -1.4846  0.8588  0.8645
 6054SOL    HW219133   3.704   1.722   2.976 -0.8573  0.4609  0.8235
 6055SOL     OW19134   4.699   0.125   6.837  0.3443  0.0658 -0.6460
 6055SOL    HW119135   4.619   0.144   6.887  1.1517  0.3520  0.5681
 6055SOL    HW219136   4.687   0.035   6.807  0.7884 -0.9654  1.9972
 6056SOL     OW19137   4.380   2.283   3.439 -0.9966  0.0160  0.1111
 6056SOL    HW119138   4.401   2.239   3.521  0.2042 -0.5938 -0.5042
 6056SOL    HW219139   4.386   2.377   3.459  1.2575 -0.1135  0.2716
 6057SOL     OW19140   2.506   5.380   2.779 -0.8022  0.1575 -0.1889
 6057SOL    HW119141   2.597   5.390   2.751 -1.0660  1.6554 -0.6235
 6057SOL    HW219142   2.455   5.407   2.702 -1.5635  1.6263  0.7855
 6058SOL     OW19143   6.466   1.965   6.412  0.1918  0.2167 -0.2550
 6058SOL    HW119144   6.455   1.982   6.505 -1.4253 -2.0595  0.0510
 6058SOL    HW219145   6.492   1.873   6.408 -1.4462 -0.2304 -2.0815
 6059SOL     OW19146   0.423   0.085   5.905  0.3333  0.3559  0.2641
 6059SOL    HW119147   0.394   0.077   5.996 -0.1621 -3.2557 -0.0839
 6059SOL    HW219148   0.517   0.105   5.912 -0.1693  2.7630  1.4352
 6060SOL     OW19149   4.210   0.296   1.380  1.1063  0.2417 -0.1686
 6060SOL    HW119150   4.263   0.343   1.444 -1.8137  1.6539  1.4020
 6060SOL    HW219151   4.225   0.343   1.298 -0.3759  2.9988  0.9957
 6061SOL     OW19152   1.339   2.877   4.058 -0.5868 -0.0296 -0.0500
 6061SOL    HW119153   1.433   2.885   4.074 -0.1457 -2.2381 -1.1041
 6061SOL    HW219154   1.332   2.810   3.990 -2.9624 -0.3516  0.4232
 6062SOL     OW19155   0.016   0.333   7.287  0.2229  0.4137  0.0793
 6062SOL    HW119156  -0.042   0.257   7.296  0.6324  0.1428  0.4997
 6062SOL    HW219157   0.016   0.352   7.194  1.6156 -1.3079 -0.3362
 6063SOL     OW19158   0.666   3.895   7.343 -0.0988  0.6311  0.5290
 6063SOL    HW119159   0.724   3.962   7.308 -0.0791  1.3607  1.9309
 6063SOL    HW219160   0.724   3.833   7.387 -0.3046  0.9114  1.2017
 6064SOL     OW19161   5.816   4.379   1.379  0.0969 -0.3665 -0.2058
 6064SOL    HW119162   5.820   4.425   1.463 -0.5476  0.5395 -0.6556
 6064SOL    HW219163   5.776   4.442   1.320  1.0585 -0.7919 -1.3430
 6065SOL     OW19164   1.723   2.200   1.309  0.2791  0.6008  0.9226
 6065SOL    HW119165   1.786   2.194   1.380  1.6707 -0.3061 -0.3310
 6065SOL    HW219166   1.654   2.258   1.343 -0.5919 -1.9741  4.0521
 6066SOL     OW19167   4.963   0.730   3.584  0.0593  0.0483 -0.4329
 6066SOL    HW119168   4.975   0.812   3.631  2.6672 -1.0235  0.9267
 6066SOL    HW219169   4.900   0.681   3.637  0.8215 -0.0227  0.4249
 6067SOL     OW19170   1.423   4.891   5.530 -0.2020  0.0244 -0.2344
 6067SOL    HW119171   1.357   4.951   5.494  0.0443  0.3859 -0.0850
 6067SOL    HW219172   1.372   4.815   5.560 -0.6756  0.7375  0.8357
 6068SOL     OW19173   5.125   1.982   5.731 -0.7430 -0.5671 -0.5120
 6068SOL    HW119174   5.133   2.012   5.641  0.6122  1.1516  0.1129
 6068SOL    HW219175   5.049   2.029   5.766  2.4573  4.1987  1.0326
 6069SOL     OW19176   4.371   4.870   6.074 -0.7592 -0.1452  0.5391
 6069SOL    HW119177   4.398   4.960   6.095  0.2311 -0.6590  1.6234
 6069SOL    HW219178   4.347   4.833   6.159 -0.4587 -1.1246  0.2016
 6070SOL     OW19179   2.950   3.674   0.539  0.0952  0.6227  0.0798
 6070SOL    HW119180   2.910   3.651   0.455 -0.7516  0.3297  0.5488
 6070SOL    HW219181   2.910   3.759   0.562 -1.1790 -0.2022  1.0964
 6071SOL     OW19182   1.929   0.373   1.950 -0.1291 -0.3813  0.2614
 6071SOL    HW119183   1.870   0.304   1.979 -1.1282 -0.1954 -1.2116
 6071SOL    HW219184   2.009   0.327   1.923 -0.8423 -0.9986 -0.8597
 6072SOL     OW19185   2.635   0.483   5.416  0.7565  0.1176 -0.4022
 6072SOL    HW119186   2.600   0.566   5.384  0.2364  0.3679  0.7618
 6072SOL    HW219187   2.665   0.502   5.505 -0.0922 -1.1220  0.1767
 6073SOL     OW19188   2.937   3.971   3.234 -0.6356  0.3267  0.4890
 6073SOL    HW119189   2.966   3.934   3.317 -0.8188  0.4572  0.6113
 6073SOL    HW219190   2.906   3.895   3.184  1.9741 -0.1677 -0.5376
 6074SOL     OW19191   2.745   6.217   5.854 -0.0798  0.0439  0.1795
 6074SOL    HW119192   2.821   6.172   5.819  0.7422 -0.6528  2.6670
 6074SOL    HW219193   2.778   6.302   5.883 -0.2506 -0.2385  1.2242
 6075SOL     OW19194   5.683   6.846   3.188 -0.2155  0.1543 -0.5042
 6075SOL    HW119195   5.685   6.927   3.239  0.3405  0.4218 -0.9454
 6075SOL    HW219196   5.773   6.813   3.191  0.0233  0.5958 -1.9677
 6076SOL     OW19197   7.222   3.302   6.444  0.2792 -0.1673 -0.7122
 6076SOL    HW119198   7.222   3.386   6.490 -0.0909 -0.8344  0.5528
 6076SOL    HW219199   7.306   3.300   6.398  0.7237  0.4768  0.0415
 6077SOL     OW19200   3.773   4.738   0.599 -0.3705 -0.3546  0.5383
 6077SOL    HW119201   3.739   4.821   0.633  1.2084 -0.3622  2.3156
 6077SOL    HW219202   3.726   4.671   0.648 -0.7422 -0.4757  0.0157
 6078SOL     OW19203   2.326   0.928   5.680  0.5207 -0.3854  0.1386
 6078SOL    HW119204   2.271   0.853   5.701  2.3029 -1.2118  2.1941
 6078SOL    HW219205   2.272   1.004   5.703 -0.7186 -1.0563 -0.4486
 6079SOL     OW19206   0.299   3.874   3.173 -0.5948 -0.2551  0.5002
 6079SOL    HW119207   0.312   3.781   3.191  2.7304  0.0574  0.2607
 6079SOL    HW219208   0.296   3.914   3.260  1.9875 -0.2344  0.6584
 6080SOL     OW19209   3.657   6.607   5.525 -0.1429  0.1013 -0.6221
 6080SOL    HW119210   3.640   6.515   5.504  1.1591 -1.0106  2.5722
 6080SOL    HW219211   3.579   6.635   5.573  0.4062 -0.1165  0.4305
 6081SOL     OW19212   4.601   5.341   5.657  0.1761 -0.6444  0.0457
 6081SOL    HW119213   4.527   5.345   5.596  1.2497  0.9178 -1.2439
 6081SOL    HW219214   4.619   5.432   5.677 -0.0967 -1.1157  2.7385
 6082SOL     OW19215   3.513   3.246   1.987 -0.3318  0.4125  0.3110
 6082SOL    HW119216   3.577   3.303   2.029 -0.9724  1.7821 -0.4833
 6082SOL    HW219217   3.561   3.167   1.966  0.6443  0.7234  1.2798
 6083SOL     OW19218   5.297   3.684   4.245 -0.3600 -0.1679 -0.5104
 6083SOL    HW119219   5.364   3.751   4.237 -1.4208  0.8498 -1.0524
 6083SOL    HW219220   5.329   3.611   4.192 -0.1944  0.7360 -1.6811
 6084SOL     OW19221   3.410   2.178   4.105 -0.1705  0.3963 -0.2797
 6084SOL    HW119222   3.420   2.085   4.085 -0.3917  0.2537  0.2518
 6084SOL    HW219223   3.324   2.202   4.071 -0.1578  0.3800 -0.3225
 6085SOL     OW19224   6.341   0.687   4.902 -0.8375 -0.5848  0.3525
 6085SOL    HW119225   6.394   0.677   4.982  2.6276  0.1917 -1.6520
 6085SOL    HW219226   6.340   0.600   4.863 -2.3114 -0.9025  1.0104
 6086SOL     OW19227   4.810   2.751   1.440 -0.2882 -0.5844 -0.0561
 6086SOL    HW119228   4.749   2.706   1.382 -1.7404  2.0305 -0.7098
 6086SOL    HW219229   4.861   2.807   1.382 -1.7456  2.0654  1.0487
 6087SOL     OW19230   3.540   3.648   7.225  0.0090 -0.0794  0.1948
 6087SOL    HW119231   3.513   3.739   7.242  0.9524  0.5620 -1.4735
 6087SOL    HW219232   3.601   3.628   7.296  0.3144  0.8396  0.2041
 6088SOL     OW19233   6.425   4.713   2.644  0.2357  0.0075  0.0386
 6088SOL    HW119234   6.431   4.621   2.670  0.3282  0.1397  0.4844
 6088SOL    HW219235   6.489   4.758   2.699 -2.5707  0.9859  2.8014
 6089SOL     OW19236   4.265   2.284   0.972  0.1634  0.3552 -0.3620
 6089SOL    HW119237   4.335   2.327   1.021  0.5667  0.5735 -1.1120
 6089SOL    HW219238   4.296   2.283   0.882  0.1443 -1.4556 -0.3845
 6090SOL     OW19239   6.328   0.805   6.781  0.3761  0.4115 -0.0570
 6090SOL    HW119240   6.271   0.853   6.721  1.6168  1.7438 -0.2396
 6090SOL    HW219241   6.399   0.773   6.725  2.1920  2.7014  0.8027
 6091SOL     OW19242   2.333   1.306   2.721  0.3213 -0.2864  0.1924
 6091SOL    HW119243   2.239   1.324   2.715  0.5366  0.5294 -1.5839
 6091SOL    HW219244   2.340   1.238   2.788 -1.4429  0.1979  0.9399
 6092SOL     OW19245   1.523   5.010   3.745 -0.2206  0.1979  0.5373
 6092SOL    HW119246   1.505   4.989   3.836  1.0864 -0.5276  0.6495
 6092SOL    HW219247   1.611   4.976   3.729  0.5682  2.4208 -0.3151
 6093SOL     OW19248   5.217   1.057   3.146 -0.3155  0.4366  0.2837
 6093SOL    HW119249   5.248   1.116   3.077  0.0101  0.1735  0.1981
 6093SOL    HW219250   5.231   0.969   3.109 -2.2134  0.2961 -0.2302
 6094SOL     OW19251   1.916   5.002   4.888  0.4697 -0.2893  0.0198
 6094SOL    HW119252   1.997   4.968   4.850  1.8435  0.5553  2.0124
 6094SOL    HW219253   1.897   5.081   4.838  0.5047 -0.8231 -0.8611
 6095SOL     OW19254   5.932   1.972   4.345 -1.1468 -0.0870  0.6528
 6095SOL    HW119255   5.901   1.941   4.431  0.4778 -0.2520  1.2032
 6095SOL    HW219256   6.024   1.992   4.358 -1.4193  2.2560 -0.4369
 6096SOL     OW19257   4.433   7.378   0.406 -0.2413  0.0116  0.0852
 6096SOL    HW119258   4.499   7.324   0.448 -0.7230 -0.1697  0.6299
 6096SOL    HW219259   4.359   7.378   0.467 -1.1926 -0.7419 -1.0048
 6097SOL     OW19260   6.559   1.406   0.020  0.1474 -0.6807 -0.7094
 6097SOL    HW119261   6.483   1.427  -0.034  0.8390  0.5879 -1.2582
 6097SOL    HW219262   6.524   1.393   0.108 -0.7079 -0.1813 -0.9642
 6098SOL     OW19263   4.950   1.320   0.653  0.2699 -0.4785 -0.4002
 6098SOL    HW119264   4.891   1.396   0.655  0.3671 -0.4129  0.9986
 6098SOL    HW219265   4.892   1.246   0.634 -0.5161 -0.5726  2.0173
 6099SOL     OW19266   4.305   1.023   4.867  0.0405  0.7034  0.1959
 6099SOL    HW119267   4.263   1.091   4.920 -0.8868 -0.2528  0.7198
 6099SOL    HW219268   4.233   0.972   4.832  0.7409 -0.8425  0.9214
 6100SOL     OW19269   4.954   6.876   4.387  0.2453  0.0488 -0.3059
 6100SOL    HW119270   4.944   6.940   4.458  4.9164  1.0511 -0.2806
 6100SOL    HW219271   4.942   6.928   4.307 -0.6985 -0.1644 -0.3218
 6101SOL     OW19272   4.849   6.942   3.746  0.5878 -0.2038  0.3916
 6101SOL    HW119273   4.870   6.925   3.655 -2.5548  0.0375 -0.5171
 6101SOL    HW219274   4.796   6.866   3.773 -3.2525  2.0909  0.1066
 6102SOL     OW19275   0.497   6.905   3.498  0.2271  0.2295  0.0745
 6102SOL    HW119276   0.511   6.855   3.418 -1.8846 -2.2298  1.0850
 6102SOL    HW219277   0.471   6.992   3.468 -1.1788 -0.8164 -1.9729
 6103SOL     OW19278   2.012   2.512   3.532  0.2021  0.2904  0.2671
 6103SOL    HW119279   2.018   2.441   3.469  0.1706 -0.7066  1.3675
 6103SOL    HW219280   2.055   2.586   3.489 -2.5445  0.6221 -2.2254
 6104SOL     OW19281   1.064   4.724   6.183 -0.5039 -0.3294 -0.0249
 6104SOL    HW119282   0.999   4.720   6.112 -1.4055  1.5826  0.6475
 6104SOL    HW219283   1.031   4.662   6.249 -1.3683  0.2333  0.0801
 6105SOL     OW19284   4.992   1.365   5.027 -0.3253  0.4424  0.4298
 6105SOL    HW119285   4.976   1.445   4.977 -0.3396  1.2040  1.5987
 6105SOL    HW219286   4.929   1.369   5.098  0.9601  0.4009  1.6205
 6106SOL     OW19287   6.641   2.694   4.149  0.4877  0.8787 -0.0294
 6106SOL    HW119288   6.626   2.715   4.056 -1.5101  1.5970  0.3925
 6106SOL    HW219289   6.588   2.759   4.196 -0.3012 -0.8309  1.5544
 6107SOL     OW19290   1.999   0.363   7.371  0.0439 -0.4027 -0.5307
 6107SOL    HW119291   2.079   0.313   7.387  0.4369  0.2556 -0.3767
 6107SOL    HW219292   1.990   0.417   7.450 -1.5448 -1.7470  0.2707
 6108SOL     OW19293   6.924   2.964   1.901  0.2495 -0.1587  0.1494
 6108SOL    HW119294   6.976   3.044   1.895  1.2463 -0.8493 -0.6634
 6108SOL    HW219295   6.971   2.910   1.965  0.7421 -0.9215 -0.8323
 6109SOL     OW19296   5.234   3.932   0.766 -0.4200  0.3015  0.0942
 6109SOL    HW119297   5.304   3.962   0.824 -0.5150  0.9243 -0.1055
 6109SOL    HW219298   5.210   3.846   0.800  0.4839  0.0571  0.1266
 6110SOL     OW19299   1.902   0.799   2.529 -0.4749 -0.0690 -0.1485
 6110SOL    HW119300   1.898   0.829   2.438 -0.0471 -0.1098 -0.1817
 6110SOL    HW219301   1.846   0.861   2.576 -0.5442  0.0698 -0.4070
 6111SOL     OW19302   1.378   5.085   6.056 -0.0516 -0.5410 -0.2724
 6111SOL    HW119303   1.354   5.073   5.964  0.0825  0.5565 -0.4667
 6111SOL    HW219304   1.346   5.006   6.100 -2.7867  0.2138 -0.7362
 6112SOL     OW19305   5.092   4.126   5.040 -0.4211  0.1181  0.5703
 6112SOL    HW119306   5.183   4.153   5.034 -0.3461  0.1738  1.7208
 6112SOL    HW219307   5.095   4.030   5.038 -0.2942  0.1107  1.0910
 6113SOL     OW19308   4.517   6.718   6.764  0.2934 -0.8192  0.3558
 6113SOL    HW119309   4.511   6.622   6.763  1.2501 -0.8886  0.2355
 6113SOL    HW219310   4.586   6.737   6.827  0.3668 -0.2255  0.1001
 6114SOL     OW19311   0.262   1.521   1.914  0.1513  0.0294  0.5270
 6114SOL    HW119312   0.299   1.496   1.829  0.9858 -1.9810  1.4203
 6114SOL    HW219313   0.206   1.596   1.895  0.0457 -0.5880 -1.8494
 6115SOL     OW19314   2.013   3.164   0.277 -0.6412 -0.4753  0.3500
 6115SOL    HW119315   1.992   3.187   0.187 -3.1471  1.0057  1.2290
 6115SOL    HW219316   2.043   3.073   0.272  0.1448 -0.1722 -2.0291
 6116SOL     OW19317   1.922   4.079   6.844 -0.1868  0.3530 -0.1324
 6116SOL    HW119318   1.947   4.062   6.753  0.4578  0.5445  0.0058
 6116SOL    HW219319   1.967   4.010   6.895  2.2664  2.2128  0.4076
 6117SOL     OW19320   5.805   0.119   1.114 -0.5672  0.1763 -0.2063
 6117SOL    HW119321   5.830   0.204   1.079  3.5806 -0.0028  1.6698
 6117SOL    HW219322   5.795   0.134   1.208  1.4177 -1.4813  0.3505
 6118SOL     OW19323   5.695   0.010   0.748 -0.1154  0.2820  0.4738
 6118SOL    HW119324   5.617   0.039   0.796 -0.5622 -0.4716  0.2092
 6118SOL    HW219325   5.755  -0.020   0.816 -0.5301 -0.2613  0.6083
 6119SOL     OW19326   6.189   3.455   0.567 -0.2711 -0.3969 -0.0450
 6119SOL    HW119327   6.136   3.456   0.648  0.8703  1.4348  0.7443
 6119SOL    HW219328   6.270   3.499   0.591 -0.5635  1.8035 -2.6280
 6120SOL     OW19329   5.211   6.643   0.623 -0.4541  0.1077 -0.2406
 6120SOL    HW119330   5.118   6.667   0.627 -0.2383  0.9797 -0.1279
 6120SOL    HW219331   5.255   6.711   0.674  0.1945 -0.6069  0.1722
 6121SOL     OW19332   3.789   1.999   4.339  0.2211  0.4391 -0.4029
 6121SOL    HW119333   3.730   2.007   4.263 -0.2571  2.3745  0.1166
 6121SOL    HW219334   3.858   2.063   4.322  0.0906  0.9159  0.8145
 6122SOL     OW19335   5.568   6.655   3.735  0.1286  0.5670 -0.1081
 6122SOL    HW119336   5.504   6.644   3.805  2.6067  0.6529  2.3648
 6122SOL    HW219337   5.534   6.603   3.662 -3.1994  1.4852  0.6092
 6123SOL     OW19338   2.654   2.192   5.176 -0.3126 -0.1522 -0.1565
 6123SOL    HW119339   2.660   2.102   5.144 -0.0081  0.1824 -1.1010
 6123SOL    HW219340   2.716   2.196   5.249 -1.0598 -0.9588  0.5273
 6124SOL     OW19341   1.310   3.887   1.684 -0.3962 -0.6904  0.0263
 6124SOL    HW119342   1.284   3.881   1.776  0.5335 -0.7413  0.2905
 6124SOL    HW219343   1.388   3.942   1.684 -0.6154 -0.3647 -0.7834
 6125SOL     OW19344   4.917   6.331   5.366 -0.1058 -0.3139  0.1408
 6125SOL    HW119345   5.010   6.340   5.348  0.3950 -0.1858  2.5234
 6125SOL    HW219346   4.912   6.307   5.459 -2.4886  0.7646  0.3671
 6126SOL     OW19347   3.604   6.727   6.258  0.4544  0.4480 -0.1383
 6126SOL    HW119348   3.510   6.722   6.274  0.3846  0.4586 -0.5534
 6126SOL    HW219349   3.616   6.810   6.212  0.9594  1.6390  2.0251
 6127SOL     OW19350   4.598   1.562   1.211  0.3526  0.7637 -0.3628
 6127SOL    HW119351   4.607   1.474   1.249  1.0174  0.9722 -0.0301
 6127SOL    HW219352   4.668   1.613   1.252 -2.3090  2.5134  2.4205
 6128SOL     OW19353   1.426   5.708   6.436  0.1996  0.9969 -0.4810
 6128SOL    HW119354   1.424   5.789   6.487  1.8779 -0.0634  1.4368
 6128SOL    HW219355   1.333   5.688   6.419 -0.3144  2.4295  0.4769
 6129SOL     OW19356   0.297   0.460   4.474 -0.1521  0.1240 -0.0412
 6129SOL    HW119357   0.242   0.384   4.454 -1.0379  0.1617  1.9803
 6129SOL    HW219358   0.370   0.424   4.525 -0.4646  0.5626  0.7455
 6130SOL     OW19359   2.866   6.632   3.994 -0.0808  0.1261  0.3757
 6130SOL    HW119360   2.781   6.594   3.972  0.7381 -2.0678  0.7114
 6130SOL    HW219361   2.852   6.672   4.081 -0.5763 -0.9671  0.8184
 6131SOL     OW19362   4.834   4.639   0.651  0.2694  0.1043  0.4584
 6131SOL    HW119363   4.817   4.565   0.709 -1.1208 -0.0899 -0.1531
 6131SOL    HW219364   4.759   4.641   0.592  0.5843  1.6201  0.0579
 6132SOL     OW19365   6.164   2.721   6.304  0.2452  0.0916  0.1903
 6132SOL    HW119366   6.177   2.809   6.342  1.1385  0.1782 -0.2845
 6132SOL    HW219367   6.082   2.728   6.256  0.6452  0.8725 -0.4014
 6133SOL     OW19368   1.519   4.924   6.873  0.4115  0.7897  0.1880
 6133SOL    HW119369   1.533   5.011   6.911 -1.4149  0.7839  1.0022
 6133SOL    HW219370   1.446   4.937   6.811 -0.5149 -0.3065  1.0047
 6134SOL     OW19371   4.991   5.717   0.057  0.6142 -0.0420  0.3831
 6134SOL    HW119372   5.062   5.778   0.077 -0.2794  1.5227 -0.9388
 6134SOL    HW219373   4.912   5.765   0.080 -0.3471  0.8822 -3.8429
 6135SOL     OW19374   4.825   4.098   2.437  0.2776 -0.2870  0.1127
 6135SOL    HW119375   4.777   4.157   2.379 -1.0540 -0.3875  1.0781
 6135SOL    HW219376   4.788   4.011   2.418  0.3690 -0.4292  0.5859
 6136SOL     OW19377   4.897   4.964   5.663  0.6784  0.1746  0.6113
 6136SOL    HW119378   4.808   4.972   5.698  0.9070 -0.5927  1.3952
 6136SOL    HW219379   4.895   4.882   5.613  1.0149  0.0249  0.8432
 6137SOL     OW19380   2.402   4.127   1.918 -0.2343 -0.6478  0.5886
 6137SOL    HW119381   2.393   4.188   1.991 -3.0685  0.2621 -0.3820
 6137SOL    HW219382   2.354   4.049   1.945 -2.1284  0.0459 -0.5500
 6138SOL     OW19383   5.203   6.003   4.808  0.3638 -0.2975  0.0276
 6138SOL    HW119384   5.227   5.988   4.716  1.6048  0.8375  0.1326
 6138SOL    HW219385   5.285   5.990   4.856  0.0669  0.5318  0.7873
 6139SOL     OW19386   4.515   2.855   6.154  0.1932 -0.4645 -0.0316
 6139SOL    HW119387   4.488   2.764   6.138  0.7296 -0.9453  1.5452
 6139SOL    HW219388   4.600   2.863   6.109  1.3550 -1.5643  1.8231
 6140SOL     OW19389   3.891   3.117   4.394  0.0664 -0.3040  0.4268
 6140SOL    HW119390   3.907   3.105   4.300  0.0132 -1.2752  0.5304
 6140SOL    HW219391   3.913   3.033   4.433 -0.4785 -0.0912  1.2171
 6141SOL     OW19392   2.989   0.318   6.266  0.5208 -0.2023 -0.1995
 6141SOL    HW119393   2.930   0.327   6.340 -0.5332 -0.6037 -0.9657
 6141SOL    HW219394   2.980   0.226   6.239  1.9846 -0.4447  0.0616
 6142SOL     OW19395   0.830   2.602   0.376 -0.1247 -0.4605  0.0211
 6142SOL    HW119396   0.744   2.617   0.415  0.2386 -1.0434  1.0719
 6142SOL    HW219397   0.863   2.524   0.420  0.1963 -1.2988 -1.6476
 6143SOL     OW19398   5.401   5.964   0.642  0.2029 -0.3449 -0.6212
 6143SOL    HW119399   5.394   5.868   0.642 -0.1748 -0.3231 -1.1628
 6143SOL    HW219400   5.387   5.989   0.733  0.1573 -0.7950 -0.5009
 6144SOL     OW19401   6.431   2.908   2.123  0.2788 -0.2810  0.5266
 6144SOL    HW119402   6.400   2.817   2.131  0.9970 -0.8375 -2.0260
 6144SOL    HW219403   6.449   2.935   2.213  0.6085 -2.8871  1.3437
 6145SOL     OW19404   1.839   6.808   3.788  0.0881 -0.1830  0.4068
 6145SOL    HW119405   1.783   6.828   3.713  1.2199  1.9591  0.0547
 6145SOL    HW219406   1.807   6.723   3.819 -1.5594 -0.3139 -1.4010
 6146SOL     OW19407   2.137   2.643   6.366 -0.2624 -0.2016  0.0600
 6146SOL    HW119408   2.093   2.620   6.284 -1.0393 -0.4613  0.5433
 6146SOL    HW219409   2.170   2.560   6.400 -1.0206 -0.2792  0.6255
 6147SOL     OW19410   6.537   1.315   4.600  0.1499  0.4611  0.7830
 6147SOL    HW119411   6.466   1.377   4.580 -0.8506 -0.7508  0.3756
 6147SOL    HW219412   6.538   1.257   4.524  1.1480  0.0587  1.0988
 6148SOL     OW19413   0.139   4.685   6.772  0.4121 -0.1056 -0.4299
 6148SOL    HW119414   0.047   4.706   6.753  0.5198  2.2549  1.1958
 6148SOL    HW219415   0.137   4.652   6.862  1.2089  0.8516 -0.0418
 6149SOL     OW19416   6.060   4.464   4.897 -0.2774  0.4377  0.4585
 6149SOL    HW119417   6.132   4.421   4.943  0.3976  0.2244 -0.7691
 6149SOL    HW219418   5.981   4.428   4.937  0.2170 -2.7811 -1.1423
 6150SOL     OW19419   1.349   4.992   4.596 -0.4148  0.8759  0.1442
 6150SOL    HW119420   1.322   4.900   4.593 -0.8814  0.9023  2.3693
 6150SOL    HW219421   1.341   5.022   4.505  0.2859 -1.4046 -0.7439
 6151SOL     OW19422   6.054   6.637   7.200 -0.2475 -0.3122  0.2356
 6151SOL    HW119423   6.065   6.607   7.110 -1.7466  0.4466 -0.2349
 6151SOL    HW219424   6.075   6.730   7.197 -1.2305 -0.0792  0.4642
 6152SOL     OW19425   0.224   3.724   5.943 -0.1291  0.2500  0.4460
 6152SOL    HW119426   0.319   3.733   5.937 -0.2234  0.8148 -0.4377
 6152SOL    HW219427   0.208   3.699   6.033  0.8789 -0.0932  0.5455
 6153SOL     OW19428   1.614   1.413   5.640 -0.1704  0.4045 -0.1158
 6153SOL    HW119429   1.526   1.377   5.654  0.2643 -1.7596 -2.3264
 6153SOL    HW219430   1.606   1.504   5.666 -3.0646  0.2707 -0.1629
 6154SOL     OW19431   4.919   0.017   5.675  0.1696  0.3367  0.7492
 6154SOL    HW119432   4.962   0.094   5.638  1.1421 -0.4572  0.1946
 6154SOL    HW219433   4.985  -0.052   5.672 -0.3208 -0.2520  2.2485
 6155SOL     OW19434   3.020   1.190   6.807 -0.3097  0.2989  0.2503
 6155SOL    HW119435   3.042   1.172   6.899 -1.7926 -1.6920  0.2964
 6155SOL    HW219436   2.949   1.254   6.811  0.1045  0.7504  0.4507
 6156SOL     OW19437   6.944   4.199   7.094 -0.0942  0.0658  0.3902
 6156SOL    HW119438   6.970   4.145   7.168  1.2086  0.1198  0.0080
 6156SOL    HW219439   6.887   4.142   7.042 -0.0956 -0.3606  0.8493
 6157SOL     OW19440   2.750   0.383   0.282 -0.3091  0.1828  0.3409
 6157SOL    HW119441   2.661   0.416   0.269 -0.3964 -0.1348  0.1256
 6157SOL    HW219442   2.807   0.449   0.243 -0.4898  0.0102 -0.2178
 6158SOL     OW19443   3.256   6.026   0.159  0.0802  0.5775 -0.1911
 6158SOL    HW119444   3.234   5.934   0.174 -2.1994  1.1901  0.5913
 6158SOL    HW219445   3.232   6.041   0.068 -2.1485  1.0104  0.4082
 6159SOL     OW19446   6.159   2.151   0.793  0.0245 -0.4540  0.0926
 6159SOL    HW119447   6.162   2.239   0.755  4.3780  0.4215  1.9520
 6159SOL    HW219448   6.147   2.094   0.717 -2.7237  1.5657 -1.1971
 6160SOL     OW19449   1.760   0.239   0.666  0.2036 -0.3088 -0.1430
 6160SOL    HW119450   1.757   0.218   0.759  1.6325 -0.2076 -0.0421
 6160SOL    HW219451   1.716   0.324   0.659  0.3650 -0.1673  0.5011
 6161SOL     OW19452   2.716   2.988   4.363 -0.9977 -0.4852 -0.0023
 6161SOL    HW119453   2.786   3.005   4.426 -1.3217 -0.8584  0.4651
 6161SOL    HW219454   2.679   3.074   4.343 -1.1234 -0.4025  0.5862
 6162SOL     OW19455   3.166   0.787   0.269  0.3199 -0.3104  0.0846
 6162SOL    HW119456   3.145   0.871   0.310 -2.4803 -0.4411 -0.8639
 6162SOL    HW219457   3.170   0.725   0.342  2.3261  0.5475  0.7800
 6163SOL     OW19458   1.596   0.007   3.026 -0.1678 -0.6731 -0.3505
 6163SOL    HW119459   1.653   0.068   3.072 -1.5073  0.2146  0.1900
 6163SOL    HW219460   1.622  -0.079   3.058  1.7166 -0.4301 -1.0831
 6164SOL     OW19461   5.734   6.461   5.461  0.3956 -0.3923  0.0230
 6164SOL    HW119462   5.693   6.378   5.486  0.3869  0.0314  1.4759
 6164SOL    HW219463   5.725   6.517   5.537  0.5556  0.9110 -0.8790
 6165SOL     OW19464   6.020   4.520   1.848  0.2893  0.1246 -0.6174
 6165SOL    HW119465   6.099   4.475   1.878  0.0641 -0.7763 -1.3363
 6165SOL    HW219466   6.053   4.600   1.805  0.8241 -0.3086 -1.0314
 6166SOL     OW19467   3.387   6.867   2.651  0.1743  0.1439  0.2878
 6166SOL    HW119468   3.393   6.935   2.718  0.5207  0.3947  0.0056
 6166SOL    HW219469   3.465   6.813   2.665 -0.0071 -0.0899  0.3972
 6167SOL     OW19470   5.183   5.888   1.916  0.5849 -0.2169  0.3405
 6167SOL    HW119471   5.231   5.833   1.977 -0.5068 -2.9791 -1.1373
 6167SOL    HW219472   5.092   5.884   1.946  0.1466 -1.0574 -1.0021
 6168SOL     OW19473   6.467   2.739   1.569  0.0062 -0.5967 -0.1174
 6168SOL    HW119474   6.515   2.811   1.530  0.5265 -0.2718  1.0815
 6168SOL    HW219475   6.391   2.780   1.611  1.4253 -0.3973  2.4366
 6169SOL     OW19476   5.250   4.255   2.802 -0.3451 -0.3593 -0.2982
 6169SOL    HW119477   5.281   4.334   2.757  0.3692 -0.7582 -0.5223
 6169SOL    HW219478   5.213   4.201   2.732 -2.0889  0.3308  0.0288
 6170SOL     OW19479   4.756   6.063   0.772 -0.3267  0.0832  0.0392
 6170SOL    HW119480   4.772   6.157   0.764  1.4342 -0.1526  0.3052
 6170SOL    HW219481   4.667   6.050   0.740 -0.2476  1.7054 -0.9152
 6171SOL     OW19482   2.882   2.062   4.276  0.4592 -0.2992 -0.0420
 6171SOL    HW119483   2.825   2.077   4.352  2.0757  1.6774  0.8808
 6171SOL    HW219484   2.825   2.078   4.200 -0.0553  2.7827  0.8488
 6172SOL     OW19485   6.642   4.782   6.888 -0.1442  0.4920  0.0348
 6172SOL    HW119486   6.562   4.749   6.848 -0.7763  0.2546  1.4219
 6172SOL    HW219487   6.702   4.796   6.815 -1.2651  0.1646 -0.9763
 6173SOL     OW19488   3.787   2.952   2.602  0.7274  0.2103 -0.1485
 6173SOL    HW119489   3.872   2.928   2.640  0.5974  0.9471  0.6664
 6173SOL    HW219490   3.770   3.040   2.637  0.3016  0.6764 -1.4661
 6174SOL     OW19491   3.851   2.298   3.307  0.1181 -0.0563  0.3467
 6174SOL    HW119492   3.918   2.292   3.238 -0.8138 -0.1096 -0.5850
 6174SOL    HW219493   3.773   2.260   3.267 -0.7109  0.8224  1.0856
 6175SOL     OW19494   1.068   1.160   6.652  0.1600 -0.0078  0.4864
 6175SOL    HW119495   1.042   1.070   6.630  2.0131 -1.1847  2.7296
 6175SOL    HW219496   0.989   1.212   6.636 -0.3605 -1.5857 -2.9941
 6176SOL     OW19497   2.524   1.905   4.085 -0.9674  0.7232  0.2975
 6176SOL    HW119498   2.433   1.905   4.115 -0.8590 -0.6241  0.6861
 6176SOL    HW219499   2.574   1.871   4.159 -0.2679  0.5798 -0.2281
 6177SOL     OW19500   4.897   4.298   5.983 -0.0998  0.5741  0.1863
 6177SOL    HW119501   4.806   4.287   5.957 -1.0567  1.4403  2.8866
 6177SOL    HW219502   4.921   4.385   5.952 -0.8559  1.1510  1.1766
 6178SOL     OW19503   5.838   2.609   3.456  0.3186 -0.7378  0.4903
 6178SOL    HW119504   5.853   2.515   3.466 -1.3162 -0.9321  1.5250
 6178SOL    HW219505   5.813   2.621   3.365  0.6823 -1.2786  0.3167
 6179SOL     OW19506   1.699   3.499   0.117  0.3757 -0.2899  0.5378
 6179SOL    HW119507   1.714   3.590   0.092 -1.1587 -0.2361 -0.3180
 6179SOL    HW219508   1.662   3.504   0.205 -0.1985 -0.0304  0.2882
 6180SOL     OW19509   4.310   4.362   3.492  0.0521 -0.0868  0.3757
 6180SOL    HW119510   4.311   4.273   3.529  0.8184  0.2722  1.2503
 6180SOL    HW219511   4.230   4.401   3.525  0.0194 -0.2516  0.4918
 6181SOL     OW19512   3.776   2.225   2.123  0.1797 -0.5319  0.2380
 6181SOL    HW119513   3.828   2.299   2.093  0.8007 -0.9734  0.1983
 6181SOL    HW219514   3.691   2.262   2.145  0.2218  0.0561 -0.5550
 6182SOL     OW19515   3.318   3.348   5.638 -0.5285 -0.1769  0.2243
 6182SOL    HW119516   3.262   3.271   5.631 -1.1462  0.2044  0.8727
 6182SOL    HW219517   3.257   3.422   5.640  0.0014  0.2549  0.7718
 6183SOL     OW19518   0.978   1.007   1.308 -0.0811  0.0248 -0.0510
 6183SOL    HW119519   1.032   0.950   1.253  0.9641 -0.3532  1.3052
 6183SOL    HW219520   0.953   1.080   1.251 -1.2887 -1.6532 -1.7658
 6184SOL     OW19521   5.754   1.281   7.097 -0.1331 -0.2352 -0.4438
 6184SOL    HW119522   5.765   1.272   7.192 -1.5958 -1.9641 -0.3947
 6184SOL    HW219523   5.698   1.358   7.087  0.7625  0.4971  0.0223
 6185SOL     OW19524   1.824   4.663   0.050 -0.0214 -0.1823 -0.1072
 6185SOL    HW119525   1.823   4.719  -0.028  0.4903  1.3142  0.9166
 6185SOL    HW219526   1.774   4.585   0.024 -1.3859  1.0432 -1.3822
 6186SOL     OW19527   1.365   4.128   6.784  0.3025 -0.1156  0.0539
 6186SOL    HW119528   1.390   4.120   6.692  0.2658 -2.0949  0.1758
 6186SOL    HW219529   1.279   4.087   6.789  0.3798 -0.1742  0.9991
 6187SOL     OW19530   7.302   6.522   3.582 -0.0255  0.1990 -0.0774
 6187SOL    HW119531   7.345   6.602   3.550  1.8452 -1.2835 -1.5048
 6187SOL    HW219532   7.305   6.530   3.677 -0.9412  2.3181 -0.1579
 6188SOL     OW19533   4.424   2.204   5.089  0.2642  0.4178  0.2563
 6188SOL    HW119534   4.501   2.149   5.077  0.0849  0.5427 -1.7688
 6188SOL    HW219535   4.390   2.179   5.175  1.3471 -1.1545  0.2649
 6189SOL     OW19536   5.650   0.103   2.287  0.8254  0.2734  0.3918
 6189SOL    HW119537   5.670   0.010   2.299 -0.7553 -0.0907  0.4713
 6189SOL    HW219538   5.556   0.109   2.302  0.6217  1.6312 -1.1164
 6190SOL     OW19539   3.539   6.259   3.276 -0.3378  0.3470 -0.0104
 6190SOL    HW119540   3.538   6.180   3.222  1.0432 -0.5460  1.2176
 6190SOL    HW219541   3.593   6.321   3.227  0.0090 -0.0764 -0.1684
 6191SOL     OW19542   1.014   1.467   5.157  0.2528  0.2351 -0.4764
 6191SOL    HW119543   1.049   1.544   5.201  0.7233 -0.6535  0.7520
 6191SOL    HW219544   1.090   1.414   5.137 -0.1868 -0.6948  0.2396
 6192SOL     OW19545   6.115   4.825   1.464 -0.1666 -0.0868  0.9318
 6192SOL    HW119546   6.180   4.813   1.395 -0.7606  1.1406  0.1083
 6192SOL    HW219547   6.070   4.906   1.440 -1.1870 -0.2654  2.1332
 6193SOL     OW19548   2.264   4.708   5.853 -0.4228  0.2057 -0.1977
 6193SOL    HW119549   2.226   4.696   5.940  3.1313 -0.9380  1.4223
 6193SOL    HW219550   2.239   4.628   5.805 -0.2048 -0.4583  0.7602
 6194SOL     OW19551   7.028   3.965   0.858  0.3901  0.3679  0.7365
 6194SOL    HW119552   7.103   4.023   0.870 -0.3767  2.2108 -2.2889
 6194SOL    HW219553   6.959   4.003   0.913  0.6982  0.6223  0.9492
 6195SOL     OW19554   0.063   6.987   1.833  0.0788 -0.0812  0.6108
 6195SOL    HW119555   0.049   7.031   1.749  1.0778  1.4337  1.1923
 6195SOL    HW219556  -0.019   6.941   1.850 -1.0775  1.6373 -0.0100
 6196SOL     OW19557   2.804   2.298   0.691 -0.0544  0.4177  0.0510
 6196SOL    HW119558   2.862   2.357   0.643  0.6270 -0.0717  0.2609
 6196SOL    HW219559   2.786   2.226   0.630 -0.0508  0.3298  0.1527
 6197SOL     OW19560   6.368   6.857   6.974  0.1886  0.6885 -0.6479
 6197SOL    HW119561   6.366   6.891   6.885 -0.4400  0.7521 -0.6139
 6197SOL    HW219562   6.448   6.894   7.012  0.4928  0.6099 -1.2016
 6198SOL     OW19563   6.754   4.811   1.271 -0.5141 -0.0417  0.0594
 6198SOL    HW119564   6.782   4.885   1.218 -2.4861 -1.0872 -2.7328
 6198SOL    HW219565   6.666   4.834   1.300  0.0370 -0.0574  1.8399
 6199SOL     OW19566   5.235   2.640   6.821 -0.2009 -0.3451 -0.2261
 6199SOL    HW119567   5.195   2.721   6.790  0.8884 -0.5872 -2.4362
 6199SOL    HW219568   5.296   2.615   6.752  1.0158 -1.9702  1.3381
 6200SOL     OW19569   2.814   3.242   3.804  0.4471 -0.1073 -0.4822
 6200SOL    HW119570   2.780   3.330   3.789 -1.2003 -0.8872 -1.6719
 6200SOL    HW219571   2.742   3.196   3.848  1.5137 -0.7113  0.7009
 6201SOL     OW19572   4.866   3.493   6.229  0.2786  0.4011 -0.3106
 6201SOL    HW119573   4.775   3.465   6.236  0.1047  0.5916 -1.6406
 6201SOL    HW219574   4.913   3.415   6.200  0.2276  0.7796 -1.4333
 6202SOL     OW19575   0.594   3.841   3.467  0.0403 -0.2698  0.1477
 6202SOL    HW119576   0.546   3.904   3.412 -2.3515 -0.4006  1.9461
 6202SOL    HW219577   0.686   3.854   3.443 -0.5492  2.4412 -1.0248
 6203SOL     OW19578   5.238   7.197   0.206  0.1922 -0.2097 -0.5099
 6203SOL    HW119579   5.268   7.122   0.156  2.0378 -0.8781  1.4393
 6203SOL    HW219580   5.317   7.250   0.218 -0.3128  0.2192  1.1201
 6204SOL     OW19581   4.333   1.820   3.617  0.2047  0.2281  0.0253
 6204SOL    HW119582   4.274   1.884   3.577  0.5347  1.2095  1.0458
 6204SOL    HW219583   4.391   1.794   3.546 -0.3124  0.6126 -0.5565
 6205SOL     OW19584   5.744   0.015   6.641  0.0398 -0.4822 -0.4717
 6205SOL    HW119585   5.719  -0.013   6.729 -1.7121 -0.4654 -0.9377
 6205SOL    HW219586   5.764  -0.067   6.595  0.0285 -0.5644 -0.3332
 6206SOL     OW19587   3.774   0.824   7.035 -0.3395 -0.3386  0.5811
 6206SOL    HW119588   3.735   0.747   7.076  0.1202 -0.5214  0.6740
 6206SOL    HW219589   3.704   0.859   6.979 -0.0069 -1.8604 -0.8767
 6207SOL     OW19590   1.667   4.564   5.007  0.6731 -0.7349  0.5888
 6207SOL    HW119591   1.688   4.548   4.915 -1.6745  1.7871 -0.5218
 6207SOL    HW219592   1.746   4.603   5.044  0.3367  2.4490 -1.6654
 6208SOL     OW19593   0.562   4.380   4.981 -0.1646 -0.1646 -0.3207
 6208SOL    HW119594   0.615   4.382   4.901 -0.9321  0.3387 -0.8345
 6208SOL    HW219595   0.619   4.341   5.047  0.9624  0.6664 -0.7675
 6209SOL     OW19596   6.280   4.525   0.741  0.6496 -0.7478 -0.2027
 6209SOL    HW119597   6.317   4.593   0.684  0.5282  0.0564  0.6544
 6209SOL    HW219598   6.216   4.480   0.686  2.0601 -1.4354 -1.3752
 6210SOL     OW19599   1.022   0.370   2.318  0.3201 -0.7334 -0.1916
 6210SOL    HW119600   0.929   0.350   2.311  0.0602  0.1955  0.3956
 6210SOL    HW219601   1.027   0.464   2.304  0.9915 -0.5298  1.2117
 6211SOL     OW19602   6.202   0.601   3.674 -0.5555 -0.2573 -0.2466
 6211SOL    HW119603   6.207   0.510   3.705  3.5209 -0.6315 -1.4808
 6211SOL    HW219604   6.163   0.594   3.586 -0.8564 -0.6952 -0.0839
 6212SOL     OW19605   1.191   6.869   2.104  0.6098  0.2044  0.1765
 6212SOL    HW119606   1.210   6.921   2.183  0.5947  1.6039 -0.6977
 6212SOL    HW219607   1.098   6.851   2.109  0.6910 -0.0974  0.6930
 6213SOL     OW19608   0.551   4.711   2.667 -0.2311 -0.3899  0.2676
 6213SOL    HW119609   0.527   4.747   2.582 -2.3022  0.1142  1.0190
 6213SOL    HW219610   0.578   4.788   2.718  1.3105 -0.7258  0.0266
 6214SOL     OW19611   2.950   1.064   6.433  0.5597 -0.0019 -0.4851
 6214SOL    HW119612   3.034   1.071   6.479 -0.3131 -1.1549  1.4089
 6214SOL    HW219613   2.963   0.991   6.372  0.5119 -1.2054  0.8890
 6215SOL     OW19614   1.887   0.175   7.188 -0.0113  0.5608 -0.5259
 6215SOL    HW119615   1.856   0.248   7.135  1.3085  1.6003  0.0641
 6215SOL    HW219616   1.884   0.207   7.278 -0.8421 -0.6610 -0.0980
 6216SOL     OW19617   4.049   1.331   6.115  0.5990  0.1290 -0.6264
 6216SOL    HW119618   4.016   1.288   6.037 -0.5198  0.4839 -0.3654
 6216SOL    HW219619   4.106   1.266   6.156  1.7169  0.1599 -2.0524
 6217SOL     OW19620   0.922   1.228   6.965 -0.3007 -0.2175  0.0646
 6217SOL    HW119621   0.913   1.176   7.045 -0.6622 -0.1803  0.0495
 6217SOL    HW219622   0.957   1.167   6.900 -2.9380 -1.0922 -0.6151
 6218SOL     OW19623   6.579   2.161   5.695  0.5073 -0.4533  0.3040
 6218SOL    HW119624   6.556   2.155   5.788 -2.6692 -1.5251 -0.4307
 6218SOL    HW219625   6.589   2.070   5.667 -0.5616 -0.2458 -0.8022
 6219SOL     OW19626   5.928   6.782   3.284  0.1898 -0.3242  0.3018
 6219SOL    HW119627   6.011   6.733   3.285 -0.5566 -1.7312  2.6148
 6219SOL    HW219628   5.953   6.873   3.300  1.3101 -0.7283  0.9487
 6220SOL     OW19629   3.978   0.276   5.629 -0.5458 -0.8158 -0.1332
 6220SOL    HW119630   4.073   0.275   5.642 -0.5369 -0.5672 -0.1624
 6220SOL    HW219631   3.956   0.369   5.627 -0.7991 -0.8745 -0.0640
 6221SOL     OW19632   6.508   6.906   2.446 -0.4303 -0.3464 -0.2157
 6221SOL    HW119633   6.520   6.835   2.509  0.3483 -0.6202 -0.6484
 6221SOL    HW219634   6.541   6.984   2.491 -1.0660 -0.3034  0.1754
 6222SOL     OW19635   1.788   1.455   5.017  0.0996  0.1126 -0.5936
 6222SOL    HW119636   1.812   1.375   5.064  1.9928  0.3146 -1.1161
 6222SOL    HW219637   1.746   1.510   5.083  0.1241 -0.7274  0.1413
 6223SOL     OW19638   1.027   4.425   3.560  0.5440  0.0467  0.6022
 6223SOL    HW119639   1.011   4.401   3.651 -1.3782  0.1915  0.3462
 6223SOL    HW219640   0.944   4.409   3.516  0.7435  2.0680 -0.6747
 6224SOL     OW19641   7.059   2.929   4.482  0.3384  0.3032 -0.7388
 6224SOL    HW119642   6.963   2.925   4.490  0.5279 -0.9275  2.7790
 6224SOL    HW219643   7.084   2.839   4.460  0.7679 -0.6448  2.9281
 6225SOL     OW19644   5.945   2.557   4.185  0.2456 -0.0529  0.0720
 6225SOL    HW119645   5.983   2.480   4.226  0.9454 -0.6911 -1.6730
 6225SOL    HW219646   5.999   2.630   4.215 -0.7550 -0.0963  2.1669
 6226SOL     OW19647   4.658   6.506   0.008  0.2823 -0.3693  0.1610
 6226SOL    HW119648   4.634   6.590   0.048  0.6980 -0.6859  1.1107
 6226SOL    HW219649   4.744   6.522  -0.031 -0.8406  0.4073 -2.1183
 6227SOL     OW19650   3.222   4.398   6.215 -0.2265  0.2656  0.2613
 6227SOL    HW119651   3.224   4.484   6.172 -0.4848  0.4881  0.6789
 6227SOL    HW219652   3.205   4.336   6.145 -2.2595  0.7726  0.2237
 6228SOL     OW19653   2.271   1.882   0.272 -0.3464 -0.3814  0.8025
 6228SOL    HW119654   2.263   1.876   0.368  0.0310 -1.0220  0.7938
 6228SOL    HW219655   2.206   1.819   0.239  0.1312 -0.7993  0.6510
 6229SOL     OW19656   4.476   3.539   6.465 -0.2936  0.6083  0.0150
 6229SOL    HW119657   4.497   3.541   6.372 -0.1769 -2.2455 -0.0890
 6229SOL    HW219658   4.542   3.482   6.504 -1.1243  0.6722  1.6232
 6230SOL     OW19659   6.733   7.055   6.555 -0.0882 -0.8110 -0.2937
 6230SOL    HW119660   6.718   6.961   6.563 -1.0225 -0.7624 -1.2996
 6230SOL    HW219661   6.648   7.094   6.571  0.1090 -0.1863 -0.7398
 6231SOL     OW19662   4.146   1.365   3.357  0.0055  0.0549  0.0408
 6231SOL    HW119663   4.063   1.385   3.401  0.9488  2.0081  1.0636
 6231SOL    HW219664   4.184   1.451   3.338  2.2323 -0.7843  0.4675
 6232SOL     OW19665   6.501   6.335   6.968  0.1104 -0.3661 -0.1947
 6232SOL    HW119666   6.515   6.264   6.905  1.9021  0.1613 -0.4715
 6232SOL    HW219667   6.573   6.325   7.030  1.5476  2.2328 -1.2791
 6233SOL     OW19668   2.341   2.558   5.052 -0.9338 -0.1628 -0.0610
 6233SOL    HW119669   2.399   2.626   5.019  0.9060 -2.1541 -1.1259
 6233SOL    HW219670   2.293   2.601   5.123  0.4684  2.0795 -0.3569
 6234SOL     OW19671   2.699   6.631   0.315  0.0197 -0.4510 -0.2185
 6234SOL    HW119672   2.746   6.554   0.348  0.3844 -1.4359 -2.8531
 6234SOL    HW219673   2.745   6.655   0.235 -1.4025  1.2286 -0.5857
 6235SOL     OW19674   2.483   2.693   2.587  0.0483 -0.1297 -0.0135
 6235SOL    HW119675   2.565   2.646   2.577  0.7195  1.3986 -2.8881
 6235SOL    HW219676   2.509   2.785   2.598 -1.2129  0.3550 -0.7666
 6236SOL     OW19677   4.922   1.936   2.998  0.0141  0.0986 -0.0409
 6236SOL    HW119678   5.016   1.948   3.013  0.4063 -2.7211  0.1506
 6236SOL    HW219679   4.893   2.022   2.968  2.5485  1.1911  0.2945
 6237SOL     OW19680   6.739   4.740   0.379  0.2701 -0.2045 -0.2859
 6237SOL    HW119681   6.764   4.817   0.430  0.4735 -0.9965  0.8651
 6237SOL    HW219682   6.677   4.693   0.436 -0.6740 -0.3479 -1.4089
 6238SOL     OW19683   1.019   6.857   1.756 -0.0229  0.2169  0.1701
 6238SOL    HW119684   0.937   6.900   1.778 -0.3174 -0.7527  0.9974
 6238SOL    HW219685   1.073   6.927   1.718 -0.2345  1.4849  2.0920
 6239SOL     OW19686   0.664   3.439   0.118 -0.3713  0.3447  0.2447
 6239SOL    HW119687   0.701   3.381   0.184 -2.0997 -3.2944 -1.6501
 6239SOL    HW219688   0.594   3.486   0.163  0.5978  0.4220  1.7154
 6240SOL     OW19689   0.280   2.292   1.869 -0.1892 -0.1129  0.2237
 6240SOL    HW119690   0.292   2.204   1.905 -1.1801 -0.0362  0.7876
 6240SOL    HW219691   0.229   2.278   1.789  1.0171 -0.1820 -0.5418
 6241SOL     OW19692   1.788   1.609   2.830  0.3545  0.2849 -0.2432
 6241SOL    HW119693   1.705   1.626   2.873 -0.2139  0.0156 -1.1977
 6241SOL    HW219694   1.772   1.532   2.775  1.1316  0.4219 -0.6882
 6242SOL     OW19695   0.855   1.967   1.949  0.0245 -0.4054  0.0496
 6242SOL    HW119696   0.836   1.963   2.042  1.1064  1.5331  0.4142
 6242SOL    HW219697   0.789   1.911   1.908 -0.5382 -1.1933  1.9454
 6243SOL     OW19698   6.706   2.189   1.432  0.0000 -0.3633  0.0563
 6243SOL    HW119699   6.762   2.116   1.405  1.7989  0.7395  0.5906
 6243SOL    HW219700   6.739   2.214   1.519  1.2968  2.7120 -1.1520
 6244SOL     OW19701   6.021   3.815   6.329  0.3183  0.5950 -0.1913
 6244SOL    HW119702   6.076   3.751   6.284 -1.3503 -1.6760  0.7584
 6244SOL    HW219703   6.081   3.882   6.360  2.2554 -0.7572 -0.8527
 6245SOL     OW19704   6.293   3.631   2.581 -0.2463  0.0494 -0.2617
 6245SOL    HW119705   6.305   3.725   2.593  0.1570  0.1031 -1.0452
 6245SOL    HW219706   6.375   3.600   2.544 -0.3910 -0.6107 -0.0612
 6246SOL     OW19707   3.474   4.763   2.576  0.3951  0.1501  0.5549
 6246SOL    HW119708   3.471   4.790   2.485 -0.3254 -1.6922 -0.0078
 6246SOL    HW219709   3.406   4.815   2.619  0.9944  1.3038  0.1615
 6247SOL     OW19710   4.878   0.615   5.342 -0.1775  0.3312  0.3309
 6247SOL    HW119711   4.910   0.633   5.254 -1.3089 -1.4033 -0.4725
 6247SOL    HW219712   4.785   0.637   5.340  0.0499  1.5556  1.5111
 6248SOL     OW19713   2.044   4.723   4.033  0.1300 -0.2548 -0.3660
 6248SOL    HW119714   2.108   4.664   3.993  0.0658  0.5971 -1.7992
 6248SOL    HW219715   2.020   4.783   3.963 -0.9735  0.5076  0.6262
 6249SOL     OW19716   1.532   3.305   1.090 -0.2240  0.1857 -0.0424
 6249SOL    HW119717   1.623   3.333   1.078 -0.9628  2.8057  0.0423
 6249SOL    HW219718   1.532   3.261   1.175  0.8339  0.8195  0.3010
 6250SOL     OW19719   7.258   7.380   3.930  0.4493  0.0414 -0.9320
 6250SOL    HW119720   7.267   7.304   3.987 -0.0783 -2.8861 -4.3685
 6250SOL    HW219721   7.347   7.398   3.899  0.5965  1.0238 -0.0167
 6251SOL     OW19722   3.675   6.706   6.735  0.2528 -0.5406 -0.2028
 6251SOL    HW119723   3.716   6.677   6.653  0.4207 -0.7233 -0.0550
 6251SOL    HW219724   3.585   6.674   6.728 -0.0733  0.4790 -0.8440
 6252SOL     OW19725   4.095   4.863   6.704 -0.4875  0.3951 -0.7133
 6252SOL    HW119726   4.127   4.882   6.792 -0.0268 -1.0103 -0.5611
 6252SOL    HW219727   4.154   4.913   6.647 -0.0172  0.3452 -0.2818
 6253SOL     OW19728   5.364   4.263   4.294 -0.0907 -0.2521  0.7224
 6253SOL    HW119729   5.356   4.282   4.201  0.8470 -0.5440  0.5714
 6253SOL    HW219730   5.346   4.346   4.338  0.5701  0.1673  0.2211
 6254SOL     OW19731   3.872   1.639   2.645  0.5202  0.0159  0.2083
 6254SOL    HW119732   3.892   1.725   2.681 -0.5841 -1.0501  3.6787
 6254SOL    HW219733   3.905   1.577   2.709 -0.0010 -2.1670 -1.4983
 6255SOL     OW19734   4.004   3.414   4.771 -0.3135 -0.6261 -0.6848
 6255SOL    HW119735   3.954   3.413   4.689  0.0858 -0.0689 -0.9460
 6255SOL    HW219736   4.037   3.325   4.781  0.5739 -0.4336 -1.7242
 6256SOL     OW19737   0.611   4.244   2.780  0.2534  0.1331  0.7070
 6256SOL    HW119738   0.606   4.319   2.720 -1.7074 -1.9502 -2.0280
 6256SOL    HW219739   0.684   4.192   2.747  1.7206  0.8176  2.6980
 6257SOL     OW19740   2.525   0.424   1.859  0.1037  0.4661  0.2311
 6257SOL    HW119741   2.593   0.463   1.803 -1.6085  0.7530 -1.7637
 6257SOL    HW219742   2.443   0.449   1.817 -1.2298 -0.5283  2.1406
 6258SOL     OW19743   3.606   3.384   4.343  0.1382 -0.5112  0.4493
 6258SOL    HW119744   3.553   3.314   4.305 -0.7043  0.7110 -0.6964
 6258SOL    HW219745   3.562   3.465   4.317  1.0357  0.4627  1.8112
 6259SOL     OW19746   2.244   5.595   0.038  0.2297 -0.3505  0.0861
 6259SOL    HW119747   2.222   5.680   0.001  0.0477 -0.2063  0.5240
 6259SOL    HW219748   2.213   5.532  -0.028 -1.0827 -0.1404  0.4689
 6260SOL     OW19749   3.266   3.657   2.110  0.4072  0.2257 -0.1788
 6260SOL    HW119750   3.295   3.601   2.039  2.2018  0.2269  0.5053
 6260SOL    HW219751   3.294   3.611   2.190  0.4552  1.3019  0.4454
 6261SOL     OW19752   6.301   5.236   7.050 -0.4115  1.1759  0.1195
 6261SOL    HW119753   6.232   5.182   7.089  0.2769 -1.3536 -1.8742
 6261SOL    HW219754   6.381   5.204   7.090  0.0518  0.3325 -1.4039
 6262SOL     OW19755   1.337   3.244   3.207  0.3032 -0.3746  0.2000
 6262SOL    HW119756   1.397   3.174   3.236 -2.9977 -2.8099  1.7914
 6262SOL    HW219757   1.314   3.290   3.288 -1.5906 -0.9522  0.0386
 6263SOL     OW19758   4.225   5.702   2.796 -0.0594  0.1679 -0.4558
 6263SOL    HW119759   4.314   5.731   2.776  0.3992 -0.4003  0.6666
 6263SOL    HW219760   4.236   5.642   2.870 -1.1541 -1.5041 -1.5910
 6264SOL     OW19761   4.874   3.435   4.158 -0.0841  0.4836  0.6269
 6264SOL    HW119762   4.849   3.345   4.178 -2.1911  0.3942 -1.7754
 6264SOL    HW219763   4.816   3.488   4.213  1.2983  0.4586  2.1961
 6265SOL     OW19764   2.811   3.233   0.744 -0.0122 -0.0096  0.2579
 6265SOL    HW119765   2.767   3.298   0.798  0.7655 -0.4750  1.4769
 6265SOL    HW219766   2.862   3.284   0.681  0.9927  0.5943  1.5201
 6266SOL     OW19767   4.855   1.008   5.927 -0.1238  0.1773  0.1621
 6266SOL    HW119768   4.828   0.976   5.842  0.2788 -0.2684  0.1964
 6266SOL    HW219769   4.904   0.936   5.966  0.0369  0.5169  0.6079
 6267SOL     OW19770   5.956   0.793   5.777 -0.5485 -0.2053  0.1352
 6267SOL    HW119771   5.912   0.876   5.760 -0.1623 -0.3501 -1.7677
 6267SOL    HW219772   6.000   0.806   5.861  0.9190  2.1265 -0.9032
 6268SOL     OW19773   1.278   7.056   2.274 -0.0924  0.1869 -0.1155
 6268SOL    HW119774   1.289   7.067   2.369  2.3122  0.7341 -0.3924
 6268SOL    HW219775   1.360   7.087   2.237 -1.3944  1.0342 -2.4956
 6269SOL     OW19776   6.280   6.664   0.283 -0.1237 -0.0307 -0.5463
 6269SOL    HW119777   6.259   6.593   0.344  0.3595 -0.4317 -0.8489
 6269SOL    HW219778   6.326   6.729   0.337 -2.7181  1.2295  0.3332
 6270SOL     OW19779   1.627   4.707   1.985 -0.1275  0.2833 -0.2806
 6270SOL    HW119780   1.654   4.619   2.013 -0.9866  0.6085  1.7375
 6270SOL    HW219781   1.543   4.693   1.942 -0.3070  0.1183  0.1172
 6271SOL     OW19782   7.087   0.292   1.682 -0.0133 -0.5057 -0.1507
 6271SOL    HW119783   7.182   0.282   1.690 -0.0869 -2.1566 -1.0502
 6271SOL    HW219784   7.069   0.277   1.590 -1.2946 -1.5397  0.2428
 6272SOL     OW19785   2.223   7.357   0.576 -0.2617  0.3560  0.0744
 6272SOL    HW119786   2.135   7.320   0.584  0.2397 -0.7028  0.8977
 6272SOL    HW219787   2.232   7.374   0.482 -1.1046 -0.1337 -0.1148
 6273SOL     OW19788   1.194   2.897   4.558  0.3514 -0.0952  0.9504
 6273SOL    HW119789   1.099   2.902   4.574  0.2939 -1.5240  1.1836
 6273SOL    HW219790   1.209   2.954   4.483 -0.7518 -0.1194  0.6973
 6274SOL     OW19791   4.254   3.641   0.887 -0.0977  0.0948  0.4112
 6274SOL    HW119792   4.299   3.708   0.938 -0.3937  0.2010  0.5341
 6274SOL    HW219793   4.207   3.589   0.952 -1.1418  0.7364  0.1767
 6275SOL     OW19794   6.583   2.326   2.810 -0.0343  0.2391  1.2062
 6275SOL    HW119795   6.666   2.303   2.851  0.8849 -1.4519 -1.3779
 6275SOL    HW219796   6.526   2.252   2.827 -0.4801  0.6609  1.5708
 6276SOL     OW19797   3.404   4.126   1.566  0.0160  0.0878 -0.0978
 6276SOL    HW119798   3.323   4.133   1.516  0.1084 -0.2945 -0.3028
 6276SOL    HW219799   3.424   4.216   1.591  0.1374  0.3369 -1.0239
 6277SOL     OW19800   0.943   2.960   4.598  0.2950 -0.4934 -0.0484
 6277SOL    HW119801   0.951   3.038   4.654  0.7137 -0.0148 -0.7569
 6277SOL    HW219802   0.890   2.899   4.650 -0.7468  0.5759  0.1930
 6278SOL     OW19803   1.274   5.096   5.019  0.1089 -0.6052  0.4030
 6278SOL    HW119804   1.354   5.064   4.979 -0.5493 -2.0213  0.1388
 6278SOL    HW219805   1.239   5.159   4.956  0.8336 -0.2428  0.3599
 6279SOL     OW19806   5.760   0.245   2.492  0.0618  0.1430 -0.3433
 6279SOL    HW119807   5.734   0.197   2.413  0.2428  0.0022 -0.3180
 6279SOL    HW219808   5.782   0.178   2.555 -0.6586  0.2495  0.0323
 6280SOL     OW19809   1.958   2.364   4.568  0.3903 -0.7889 -0.6279
 6280SOL    HW119810   1.918   2.433   4.515 -0.2284 -0.4331  0.2863
 6280SOL    HW219811   1.903   2.287   4.554 -0.6457 -0.3054  0.6126
 6281SOL     OW19812   4.574   3.494   7.164 -0.2023  0.0828 -0.3746
 6281SOL    HW119813   4.582   3.585   7.191 -2.0148  0.9350 -2.4158
 6281SOL    HW219814   4.661   3.471   7.131  0.3394  0.9467  0.3864
 6282SOL     OW19815   5.214   0.757   2.041 -0.3767  0.0723  0.0639
 6282SOL    HW119816   5.131   0.725   2.005 -0.8932 -0.8430  1.9421
 6282SOL    HW219817   5.267   0.678   2.052 -0.6353  0.1266  2.1990
 6283SOL     OW19818   6.380   3.499   4.924  0.6519  0.4727 -0.0561
 6283SOL    HW119819   6.353   3.416   4.884 -1.0431  0.7541  0.4241
 6283SOL    HW219820   6.476   3.497   4.921  0.6159 -0.5760 -1.9155
 6284SOL     OW19821   5.404   2.542   0.314  0.0511  0.0045  0.0719
 6284SOL    HW119822   5.479   2.542   0.373  0.2017  3.1470  0.0438
 6284SOL    HW219823   5.336   2.590   0.361 -0.5594  0.6760 -1.3969
 6285SOL     OW19824   1.781   0.507   6.724  0.0449  0.2086  0.2696
 6285SOL    HW119825   1.822   0.514   6.810 -0.2125  2.0033  0.2788
 6285SOL    HW219826   1.736   0.591   6.711 -2.9300 -1.2965 -0.1120
 6286SOL     OW19827   0.038   4.344   2.119  0.1299 -0.3115  0.0755
 6286SOL    HW119828  -0.019   4.364   2.045 -1.0148  1.0691  1.2756
 6286SOL    HW219829   0.012   4.406   2.187  2.4196 -0.2809  1.0112
 6287SOL     OW19830   0.229   4.710   6.419 -0.5249  0.3754  0.3740
 6287SOL    HW119831   0.325   4.719   6.424 -0.5696  1.4776 -0.4014
 6287SOL    HW219832   0.199   4.731   6.508 -0.0441 -0.1813  0.6791
 6288SOL     OW19833   1.071   0.517   0.529  0.2165 -0.0864  0.3648
 6288SOL    HW119834   1.039   0.601   0.496  1.1350  0.1764  0.1368
 6288SOL    HW219835   0.992   0.462   0.533 -0.3234  0.6513  0.1303
 6289SOL     OW19836   6.294   1.874   0.471  0.4764 -0.1173 -0.9299
 6289SOL    HW119837   6.220   1.923   0.506  0.8849  1.3070 -1.9653
 6289SOL    HW219838   6.371   1.916   0.509  0.7988 -1.2965 -0.2133
 6290SOL     OW19839   4.436   0.721   4.421 -0.2551 -0.3572 -0.6303
 6290SOL    HW119840   4.366   0.697   4.359 -0.7139 -1.7982  0.3919
 6290SOL    HW219841   4.514   0.727   4.367 -0.1909 -3.7221 -1.1696
 6291SOL     OW19842   4.631   2.990   1.195 -0.2222  0.0659 -0.3512
 6291SOL    HW119843   4.573   2.930   1.243 -0.0035 -1.0002 -1.3966
 6291SOL    HW219844   4.613   2.973   1.103  1.0445  0.4445 -0.6841
 6292SOL     OW19845   6.563   3.992   3.545 -0.1515  0.0828 -0.1140
 6292SOL    HW119846   6.572   3.912   3.494 -0.6878  0.8016 -1.3763
 6292SOL    HW219847   6.477   3.985   3.587 -0.5355  0.3235 -0.8434
 6293SOL     OW19848   1.174   2.079   6.173  0.0042  0.3499 -0.1935
 6293SOL    HW119849   1.149   2.016   6.105  2.1709 -0.9958  0.1894
 6293SOL    HW219850   1.216   2.150   6.125  0.5067 -0.0555 -0.3550
 6294SOL     OW19851   3.551   0.228   2.494  0.0998  0.1216 -0.4488
 6294SOL    HW119852   3.529   0.203   2.404  0.8858  0.3305 -0.7026
 6294SOL    HW219853   3.471   0.210   2.543  0.1460 -1.4571 -0.9046
 6295SOL     OW19854   4.986   1.870   0.895 -1.0270 -0.0936 -0.1583
 6295SOL    HW119855   4.911   1.925   0.871 -1.3536  0.4059  1.8649
 6295SOL    HW219856   4.955   1.818   0.969  0.3138 -0.6065  0.0604
 6296SOL     OW19857   6.714   1.570   3.279 -0.5574 -0.4635 -0.0415
 6296SOL    HW119858   6.808   1.563   3.268 -0.2491 -0.3420  2.1184
 6296SOL    HW219859   6.690   1.495   3.334 -1.5959 -0.0803  0.0610
 6297SOL     OW19860   6.759   3.312   2.799  0.0800 -0.1187  0.3738
 6297SOL    HW119861   6.845   3.337   2.835 -0.0381 -0.3427  0.8106
 6297SOL    HW219862   6.763   3.217   2.792  0.0412 -0.0914 -0.0669
 6298SOL     OW19863   5.704   2.841   1.333  0.6542  0.3550 -0.4044
 6298SOL    HW119864   5.641   2.851   1.261 -1.3007  1.8093  1.4080
 6298SOL    HW219865   5.668   2.771   1.387  0.4058  1.4009  0.8148
 6299SOL     OW19866   5.361   3.462   0.540 -0.2726  0.4285 -0.0777
 6299SOL    HW119867   5.375   3.401   0.468  3.0461 -0.3746  1.0807
 6299SOL    HW219868   5.419   3.535   0.521 -1.5785  1.6086  0.3425
 6300SOL     OW19869   4.103   7.143   4.660  0.5153 -0.0632 -0.1263
 6300SOL    HW119870   4.051   7.064   4.678  0.6870 -0.2733 -0.5271
 6300SOL    HW219871   4.087   7.200   4.735 -0.4263 -0.0552 -0.3259
 6301SOL     OW19872   6.397   0.968   1.043 -0.1576 -0.2541 -0.2096
 6301SOL    HW119873   6.456   1.030   1.000 -0.3584 -0.4106 -0.7122
 6301SOL    HW219874   6.444   0.885   1.044  0.2366 -0.0305  0.7405
 6302SOL     OW19875   3.968   3.709   3.628 -0.8552 -0.4022 -0.3459
 6302SOL    HW119876   3.911   3.712   3.706 -1.7747 -0.9948 -0.9766
 6302SOL    HW219877   3.983   3.801   3.607  0.1601 -0.2092  1.0466
 6303SOL     OW19878   2.484   5.637   6.541  0.6101 -0.5464  0.3392
 6303SOL    HW119879   2.416   5.583   6.500 -0.1951  0.5640  0.1698
 6303SOL    HW219880   2.527   5.682   6.468 -0.2608  0.7827  0.6142
 6304SOL     OW19881   1.947   2.189   1.997 -0.0940  0.1606 -0.1878
 6304SOL    HW119882   1.856   2.164   1.977  0.1008  0.5973 -1.7560
 6304SOL    HW219883   1.992   2.106   2.009 -0.3025 -0.1332 -1.3347
 6305SOL     OW19884   1.198   0.598   6.905 -0.0750  0.2814  0.3136
 6305SOL    HW119885   1.158   0.555   6.829  4.8076 -0.3463 -2.2761
 6305SOL    HW219886   1.227   0.526   6.961  1.0547  0.5115  0.0374
 6306SOL     OW19887   7.277   1.016   3.745 -0.1562 -0.3113 -0.0479
 6306SOL    HW119888   7.246   1.022   3.654 -0.7291  0.6170  0.1835
 6306SOL    HW219889   7.365   1.053   3.743 -0.5440  0.6616 -0.0811
 6307SOL     OW19890   2.805   1.471   4.126  0.2012 -0.2044  0.0496
 6307SOL    HW119891   2.800   1.565   4.144 -0.0921 -0.1689 -0.2141
 6307SOL    HW219892   2.898   1.454   4.110  0.0275  0.4016 -1.8481
 6308SOL     OW19893   6.288   6.389   0.767 -0.1592 -0.5292  0.4865
 6308SOL    HW119894   6.334   6.409   0.848 -0.0595  2.8088 -0.2283
 6308SOL    HW219895   6.196   6.405   0.786 -0.2606 -0.8073  0.2396
 6309SOL     OW19896   7.283   0.478   6.036 -0.5894  0.0656 -0.0867
 6309SOL    HW119897   7.292   0.532   5.958  1.5161 -1.2946 -0.8708
 6309SOL    HW219898   7.372   0.471   6.071 -0.8054 -2.5638  0.1449
 6310SOL     OW19899   2.171   4.544   4.667 -0.9598  0.1468 -0.5185
 6310SOL    HW119900   2.162   4.577   4.757 -0.5818  0.0357 -0.4419
 6310SOL    HW219901   2.124   4.460   4.668  0.2182 -0.5245 -0.0641
 6311SOL     OW19902   2.381   4.999   1.090 -0.0909 -0.1986 -0.7121
 6311SOL    HW119903   2.406   4.970   1.178 -0.9266  0.3591 -0.2855
 6311SOL    HW219904   2.464   5.005   1.043  0.6437  1.6018  0.6686
 6312SOL     OW19905   3.096   1.902   4.470 -0.1631 -0.2866 -0.7083
 6312SOL    HW119906   3.162   1.894   4.539  0.2565  1.5548 -0.8451
 6312SOL    HW219907   3.142   1.943   4.397 -1.1637 -0.0808 -1.2439
 6313SOL     OW19908   6.427   6.717   4.224 -0.8800  0.0688  0.6236
 6313SOL    HW119909   6.350   6.668   4.194 -2.5080  2.9556 -0.2763
 6313SOL    HW219910   6.456   6.766   4.147  1.2695 -0.1163  1.2396
 6314SOL     OW19911   0.497   5.853   3.499  0.1809  0.1381 -0.1003
 6314SOL    HW119912   0.507   5.945   3.475  1.9217  0.2263  0.8132
 6314SOL    HW219913   0.489   5.807   3.415  0.3395  1.0104 -0.6062
 6315SOL     OW19914   1.227   6.550   5.369  0.7820 -0.4565 -0.3828
 6315SOL    HW119915   1.184   6.481   5.420  1.4730  0.5542  1.6956
 6315SOL    HW219916   1.300   6.506   5.324  0.3294 -1.3306 -0.2711
 6316SOL     OW19917   6.995   4.500   3.339  0.1610  0.5945 -0.3494
 6316SOL    HW119918   6.994   4.499   3.243 -0.8551  0.7831 -0.3458
 6316SOL    HW219919   6.910   4.465   3.365  0.0537  1.4257  0.4762
 6317SOL     OW19920   0.004   6.647   6.874 -0.0648 -0.0169 -0.0852
 6317SOL    HW119921   0.041   6.672   6.959 -0.1083  0.9722 -0.3371
 6317SOL    HW219922  -0.028   6.558   6.886  1.6163 -0.6028  0.4011
 6318SOL     OW19923   4.254   0.814   5.421 -0.1491  0.3732  0.2585
 6318SOL    HW119924   4.288   0.746   5.364 -0.8093  2.2494 -2.5964
 6318SOL    HW219925   4.322   0.881   5.423 -1.0206  1.3084 -0.1952
 6319SOL     OW19926   3.670   7.065   4.274  0.6705  0.3795  0.5142
 6319SOL    HW119927   3.606   6.999   4.301 -0.2889  1.3483  0.6895
 6319SOL    HW219928   3.671   7.059   4.179  2.5410 -1.6414  0.5836
 6320SOL     OW19929   5.767   2.784   7.197 -0.0871  0.1751  0.0398
 6320SOL    HW119930   5.792   2.696   7.226  2.6863  0.4396 -1.1678
 6320SOL    HW219931   5.694   2.769   7.136  0.6037 -1.3505 -0.4608
 6321SOL     OW19932   7.017   3.926   4.676 -0.1029 -0.7931  0.6003
 6321SOL    HW119933   7.031   3.848   4.624 -0.0704 -0.4010  0.0086
 6321SOL    HW219934   7.034   3.899   4.766  0.4205 -1.3345  0.3425
 6322SOL     OW19935   4.412   6.905   6.363 -0.6115 -0.1497  0.3152
 6322SOL    HW119936   4.381   6.820   6.396  0.3207 -0.8316 -0.5300
 6322SOL    HW219937   4.438   6.888   6.273  0.4338  0.8418  0.4134
 6323SOL     OW19938   3.622   5.895   0.030  0.1385  0.1360 -0.4219
 6323SOL    HW119939   3.637   5.973  -0.023  0.7376  0.4974  0.2510
 6323SOL    HW219940   3.628   5.926   0.121 -2.1846 -0.2020 -0.0957
 6324SOL     OW19941   6.255   1.136   5.684  0.1353 -0.5850  0.3517
 6324SOL    HW119942   6.208   1.111   5.763 -0.4755  0.6796  0.4122
 6324SOL    HW219943   6.194   1.118   5.613  0.3958 -1.0023  0.2317
 6325SOL     OW19944   7.227   0.413   3.150  0.1511 -0.4652 -0.2517
 6325SOL    HW119945   7.159   0.480   3.148 -1.5804 -2.1631 -0.6342
 6325SOL    HW219946   7.237   0.386   3.059  1.8005  0.1578 -0.2902
 6326SOL     OW19947   6.164   5.175   4.116 -0.0315  0.4193 -0.0332
 6326SOL    HW119948   6.118   5.214   4.041  0.5502  0.0698 -0.5750
 6326SOL    HW219949   6.256   5.198   4.102  0.2373 -0.6452 -0.0413
 6327SOL     OW19950   4.689   1.666   5.591  0.0301  0.1064 -0.0572
 6327SOL    HW119951   4.714   1.758   5.600  3.0552 -0.3500 -2.4525
 6327SOL    HW219952   4.749   1.619   5.648 -1.5451 -0.4795  1.2048
 6328SOL     OW19953   3.343   1.062   6.429 -0.3374  0.5855 -0.4630
 6328SOL    HW119954   3.328   0.973   6.461  1.7358  0.5039  0.4417
 6328SOL    HW219955   3.291   1.117   6.488  0.2284  0.1232  0.5037
 6329SOL     OW19956   7.097   4.531   0.749 -0.6704  0.0763  0.2304
 6329SOL    HW119957   7.055   4.446   0.743 -0.6377  0.1661 -2.4360
 6329SOL    HW219958   7.167   4.528   0.684  2.1728  0.6986  3.0333
 6330SOL     OW19959   3.902   6.749   6.913 -0.0999  1.0542  0.1758
 6330SOL    HW119960   3.829   6.760   6.851 -1.3021  0.2943  1.3905
 6330SOL    HW219961   3.859   6.735   6.997  1.4870  1.0497  1.0124
 6331SOL     OW19962   2.773   1.816   2.032  0.4109  0.0822 -0.7732
 6331SOL    HW119963   2.839   1.830   2.100 -2.1642  3.6882  1.3469
 6331SOL    HW219964   2.809   1.859   1.955  0.9878  1.2140  0.0886
 6332SOL     OW19965   1.634   5.551   3.184 -0.6204 -0.4384 -0.4826
 6332SOL    HW119966   1.573   5.530   3.113  0.4918  0.6177 -1.8182
 6332SOL    HW219967   1.611   5.640   3.209 -1.0352 -0.8264  0.5206
 6333SOL     OW19968   1.709   6.510   4.595  1.1290 -0.2051  0.2945
 6333SOL    HW119969   1.655   6.486   4.520  2.0999 -2.2378  0.1722
 6333SOL    HW219970   1.650   6.557   4.654 -0.4746 -1.3689 -0.3215
 6334SOL     OW19971   6.949   3.722   6.312  0.2577 -0.2706  0.3966
 6334SOL    HW119972   7.013   3.652   6.300  0.7328 -0.0889  1.7400
 6334SOL    HW219973   6.895   3.719   6.232 -0.1373 -2.5537  0.6861
 6335SOL     OW19974   1.302   6.213   4.810  0.0418 -0.7287  0.4986
 6335SOL    HW119975   1.297   6.280   4.742 -0.7365 -0.7014  0.5808
 6335SOL    HW219976   1.356   6.253   4.879 -1.4999  0.3393  1.1269
 6336SOL     OW19977   3.453   0.229   0.930 -0.4828 -0.1485 -0.2981
 6336SOL    HW119978   3.395   0.270   0.866  0.2045 -1.1098 -1.5909
 6336SOL    HW219979   3.474   0.298   0.993  0.1268  1.3002 -2.0372
 6337SOL     OW19980   5.576   3.357   7.236  0.0577  0.2574 -0.3954
 6337SOL    HW119981   5.596   3.313   7.319  0.4123 -0.2584 -0.7467
 6337SOL    HW219982   5.615   3.444   7.244 -0.2205  0.3374  0.1170
 6338SOL     OW19983   2.922   3.576   7.336  0.2577  0.3080 -0.3037
 6338SOL    HW119984   2.997   3.555   7.280  1.3951 -0.0104  1.2840
 6338SOL    HW219985   2.852   3.518   7.305  0.7755  0.3057 -1.5243
 6339SOL     OW19986   0.012   0.077   5.364 -0.1286  0.6448 -0.2957
 6339SOL    HW119987  -0.047   0.014   5.323  0.9781  0.1368 -1.1518
 6339SOL    HW219988   0.020   0.047   5.454 -0.2509  0.0341 -0.4813
 6340SOL     OW19989   3.100   3.809   0.210  0.5062  0.1015 -0.8334
 6340SOL    HW119990   3.067   3.885   0.258  0.0737  0.0588 -1.0577
 6340SOL    HW219991   3.051   3.735   0.245  0.0863  0.0884 -1.4383
 6341SOL     OW19992   0.714   0.778   0.270 -0.0503 -0.2389  0.2093
 6341SOL    HW119993   0.765   0.851   0.236 -0.7874  0.7606  1.1861
 6341SOL    HW219994   0.627   0.815   0.286 -0.1625 -1.0744  1.6527
 6342SOL     OW19995   0.742   5.435   2.311  0.6021 -0.2622 -1.1862
 6342SOL    HW119996   0.678   5.498   2.345 -0.3040 -0.9634 -1.5208
 6342SOL    HW219997   0.787   5.482   2.241  1.6288  0.7898  0.1276
 6343SOL     OW19998   1.132   5.445   6.524 -0.5387 -0.3707 -0.2267
 6343SOL    HW119999   1.217   5.404   6.539  1.0603  2.9051  0.8466
 6343SOL    HW220000   1.068   5.383   6.558  1.4454 -2.7154 -0.5487
 6344SOL     OW20001   2.224   4.812   3.057  0.7377 -0.3033 -0.3533
 6344SOL    HW120002   2.145   4.820   3.111  0.8519  0.4774 -0.2943
 6344SOL    HW220003   2.192   4.788   2.971  0.4441 -0.1234 -0.2946
 6345SOL     OW20004   6.541   2.581   2.954  0.0717  0.1394 -0.0482
 6345SOL    HW120005   6.580   2.509   2.904  1.6203  1.2886 -0.5676
 6345SOL    HW220006   6.482   2.538   3.016  2.7545 -1.8302  1.3510
 6346SOL     OW20007   2.471   3.486   0.645  0.1762 -0.3621  0.5597
 6346SOL    HW120008   2.561   3.494   0.615  0.6442 -1.6009  1.5760
 6346SOL    HW220009   2.419   3.495   0.565  1.2573 -0.9331 -0.2410
 6347SOL     OW20010   5.191   4.340   0.616  0.5848  0.4793 -0.7028
 6347SOL    HW120011   5.111   4.306   0.657  0.2998  1.3222 -0.5313
 6347SOL    HW220012   5.193   4.432   0.642  1.7708  0.4060 -0.4703
 6348SOL     OW20013   0.872   0.838   1.499  0.1414  0.2152 -0.3256
 6348SOL    HW120014   0.876   0.756   1.450  0.7906  0.2482 -0.3422
 6348SOL    HW220015   0.890   0.906   1.434 -2.0728  0.5360 -0.6647
 6349SOL     OW20016   4.540   5.561   5.251  0.2256 -0.0855 -0.7552
 6349SOL    HW120017   4.464   5.515   5.285  0.3226  0.1441 -0.2154
 6349SOL    HW220018   4.603   5.492   5.230  0.6796 -0.1796  0.7943
 6350SOL     OW20019   0.604   1.430   6.555 -0.2438  0.5126 -0.1611
 6350SOL    HW120020   0.531   1.469   6.509 -0.6683 -0.0932 -0.0127
 6350SOL    HW220021   0.626   1.493   6.624 -0.5466  0.7474 -0.2806
 6351SOL     OW20022   5.894   2.474   6.966 -0.5714 -0.5054 -0.1551
 6351SOL    HW120023   5.870   2.516   6.884 -2.2415 -0.9967  0.0568
 6351SOL    HW220024   5.982   2.439   6.949  0.2762  1.7606 -0.7865
 6352SOL     OW20025   0.186   4.635   4.397 -0.3219  0.0530 -0.0245
 6352SOL    HW120026   0.121   4.705   4.403 -1.3777 -0.9712  1.2777
 6352SOL    HW220027   0.135   4.554   4.406  0.7315 -0.9832 -2.5671
 6353SOL     OW20028   0.959   6.704   3.234  0.3850  0.4808 -0.5170
 6353SOL    HW120029   0.990   6.767   3.169 -0.5802  2.4935  0.8277
 6353SOL    HW220030   0.996   6.736   3.317  2.2629 -2.4697 -0.0824
 6354SOL     OW20031   1.431   3.435   6.911 -0.3834 -0.1807  0.0562
 6354SOL    HW120032   1.340   3.405   6.901 -0.5064  0.3954 -0.6784
 6354SOL    HW220033   1.465   3.437   6.822  0.8565 -1.8499  0.4556
 6355SOL     OW20034   3.252   1.924   2.641 -0.4592 -0.2647 -0.4106
 6355SOL    HW120035   3.209   1.853   2.595  0.3342 -0.6699 -0.5500
 6355SOL    HW220036   3.328   1.884   2.682 -1.2350  0.0518  1.4296
 6356SOL     OW20037   0.566   1.958   5.703  0.2778  0.0900  0.0919
 6356SOL    HW120038   0.527   1.983   5.787  1.5639 -2.5103  1.5704
 6356SOL    HW220039   0.661   1.964   5.717  0.5310  0.5547 -1.5200
 6357SOL     OW20040   4.317   1.008   1.460 -0.3320  0.0889 -0.7104
 6357SOL    HW120041   4.229   0.979   1.438 -0.4586 -0.1250  0.0506
 6357SOL    HW220042   4.351   0.942   1.520 -0.0495  0.7049 -0.1731
 6358SOL     OW20043   1.863   4.325   0.516  0.8170 -0.5843  0.2353
 6358SOL    HW120044   1.802   4.351   0.585  1.0561  1.7488 -0.3548
 6358SOL    HW220045   1.871   4.402   0.460  1.0528 -2.2050 -2.1319
 6359SOL     OW20046   3.412   1.197   1.990 -0.0940  0.1025  0.1618
 6359SOL    HW120047   3.406   1.222   2.082  0.0046  2.6513 -0.4580
 6359SOL    HW220048   3.323   1.208   1.956  0.0416 -0.0089 -0.2422
 6360SOL     OW20049   4.874   1.577   0.732 -0.3384  0.0781  0.6774
 6360SOL    HW120050   4.789   1.542   0.755 -1.1500  2.0877  0.9777
 6360SOL    HW220051   4.857   1.669   0.711  1.5648  0.2263 -0.4784
 6361SOL     OW20052   4.348   2.435   6.775 -0.0248 -0.1566 -0.6435
 6361SOL    HW120053   4.382   2.444   6.864 -0.6197 -0.3872 -0.3871
 6361SOL    HW220054   4.407   2.488   6.722  0.0736  0.3544 -0.0467
 6362SOL     OW20055   3.958   6.073   4.433 -0.2072 -0.1118 -0.4331
 6362SOL    HW120056   3.899   5.998   4.440 -1.0886  0.4314 -1.7805
 6362SOL    HW220057   3.995   6.082   4.521 -1.5858 -0.9059  0.2573
 6363SOL     OW20058   6.715   6.384   5.059  0.0523  0.4733  0.0418
 6363SOL    HW120059   6.740   6.430   5.139  0.4907  2.5845 -1.2182
 6363SOL    HW220060   6.670   6.305   5.089 -1.5869  2.1543  2.3846
 6364SOL     OW20061   5.992   2.104   1.943  0.0680 -0.0310  0.3332
 6364SOL    HW120062   6.077   2.069   1.967 -0.4996 -1.0910  0.8953
 6364SOL    HW220063   5.978   2.075   1.853  0.3197  0.1876  0.2231
 6365SOL     OW20064   5.120   2.370   5.557 -0.5050 -0.1630 -0.1453
 6365SOL    HW120065   5.158   2.451   5.523 -0.0871  0.3350  1.4157
 6365SOL    HW220066   5.049   2.399   5.614  0.0332 -0.8439  0.9071
 6366SOL     OW20067   2.907   0.474   2.639 -0.0761  0.1256  0.3021
 6366SOL    HW120068   2.900   0.413   2.712 -1.4615  0.8374  0.7909
 6366SOL    HW220069   2.921   0.418   2.563  0.6435 -0.6703  0.9970
 6367SOL     OW20070   3.847   5.182   6.128  0.2377 -0.2862 -0.3455
 6367SOL    HW120071   3.931   5.136   6.124  0.3717 -0.3662  1.9703
 6367SOL    HW220072   3.803   5.145   6.205 -0.8751  1.4447 -0.0928
 6368SOL     OW20073   1.430   5.973   5.028 -0.0010  0.1058 -0.3148
 6368SOL    HW120074   1.486   5.971   4.951  2.0673  0.4612  1.1196
 6368SOL    HW220075   1.457   6.051   5.076  0.2384 -1.1996  1.8121
 6369SOL     OW20076   0.572   1.760   2.610  0.4073  0.1130 -0.4707
 6369SOL    HW120077   0.621   1.682   2.586  1.3004  0.0412  1.4252
 6369SOL    HW220078   0.571   1.813   2.531 -1.3619 -2.3406 -2.2151
 6370SOL     OW20079   1.765   6.859   2.489  0.1417 -0.0576  0.0493
 6370SOL    HW120080   1.717   6.936   2.458  1.1053  0.7017  0.3913
 6370SOL    HW220081   1.701   6.810   2.540 -0.3810  0.7340  0.1774
 6371SOL     OW20082   1.204   2.292   6.823 -0.4558  0.2487  0.1519
 6371SOL    HW120083   1.234   2.314   6.734  0.5926  1.3492  0.7363
 6371SOL    HW220084   1.196   2.197   6.823  1.4384  0.0425 -0.5875
 6372SOL     OW20085   3.972   6.189   1.043  0.0516  0.0405  0.1158
 6372SOL    HW120086   3.922   6.133   0.984  1.0767  0.0046 -0.7514
 6372SOL    HW220087   4.012   6.254   0.986  2.1396 -0.7842  0.5568
 6373SOL     OW20088   5.177   1.163   4.973  0.3210 -0.6176  0.4879
 6373SOL    HW120089   5.114   1.234   4.988  1.8834  1.0330 -0.3820
 6373SOL    HW220090   5.137   1.086   5.013 -1.7567  0.5986  0.8673
 6374SOL     OW20091   6.249   1.343   2.459  0.3993  0.0297 -0.8259
 6374SOL    HW120092   6.205   1.260   2.480 -2.3457  1.1346 -1.8108
 6374SOL    HW220093   6.202   1.376   2.382  2.7223  1.5865 -1.6783
 6375SOL     OW20094   6.728   4.402   0.365  0.4339 -0.1255  0.2775
 6375SOL    HW120095   6.744   4.314   0.401  1.2631 -1.3340 -2.6834
 6375SOL    HW220096   6.815   4.435   0.343  0.1968  1.8281  1.9814
 6376SOL     OW20097   2.528   4.207   6.423  0.3952 -0.4618 -0.2400
 6376SOL    HW120098   2.450   4.220   6.478  0.7692  0.9340 -0.0000
 6376SOL    HW220099   2.599   4.193   6.485  0.7025  0.4401 -0.3787
 6377SOL     OW20100   0.993   0.379   3.942 -0.2066 -0.6228 -0.0936
 6377SOL    HW120101   0.919   0.419   3.896 -0.3142 -0.5525  0.1385
 6377SOL    HW220102   1.028   0.450   3.996 -2.1829 -1.5104  2.5667
 6378SOL     OW20103   4.833   2.275   4.187 -0.1001  0.5663  0.0244
 6378SOL    HW120104   4.900   2.230   4.135  0.2754  2.0278 -0.8054
 6378SOL    HW220105   4.777   2.318   4.122  0.8334  3.0825  0.7553
 6379SOL     OW20106   1.274   7.291   3.874 -0.0334 -0.4581  0.1042
 6379SOL    HW120107   1.198   7.250   3.916 -0.7842  1.3589  0.6103
 6379SOL    HW220108   1.245   7.381   3.855  2.0252  0.2951  0.3706
 6380SOL     OW20109   4.413   3.610   2.180  0.7922 -0.3275 -0.0634
 6380SOL    HW120110   4.454   3.695   2.196  1.8498 -1.0360  1.2036
 6380SOL    HW220111   4.470   3.547   2.225 -1.7499 -1.3778  1.9456
 6381SOL     OW20112   3.717   5.529   4.117  0.1507  0.1953  0.0731
 6381SOL    HW120113   3.751   5.607   4.074 -0.9543  1.1337  0.8120
 6381SOL    HW220114   3.735   5.457   4.057 -1.0748  1.3928 -1.8259
 6382SOL     OW20115   0.515   3.255   6.617  0.4429  0.5152  0.5911
 6382SOL    HW120116   0.566   3.329   6.586 -0.1024 -0.0048 -1.7592
 6382SOL    HW220117   0.446   3.244   6.552  0.0925 -1.6215  1.2311
 6383SOL     OW20118   0.391   0.418   0.549  0.4672  0.3002  0.6377
 6383SOL    HW120119   0.311   0.457   0.515  0.7247  0.8545  0.6479
 6383SOL    HW220120   0.363   0.369   0.626  0.2253  1.0522  1.0408
 6384SOL     OW20121   6.103   0.782   6.008  0.1268 -1.0009  0.5007
 6384SOL    HW120122   6.196   0.764   6.000  0.5190  1.4332 -1.8255
 6384SOL    HW220123   6.096   0.839   6.084  0.9326  0.5856 -0.5530
 6385SOL     OW20124   4.765   0.481   2.347 -0.0316  0.3998 -0.3857
 6385SOL    HW120125   4.848   0.436   2.332 -0.0487  0.8537 -2.0385
 6385SOL    HW220126   4.785   0.573   2.331 -0.7526  0.5612 -0.3955
 6386SOL     OW20127   0.076   2.542   5.362 -0.5024 -0.6569  0.7022
 6386SOL    HW120128   0.009   2.475   5.359  0.1622 -1.3196 -0.5270
 6386SOL    HW220129   0.130   2.520   5.438  1.7922 -3.7322 -1.5151
 6387SOL     OW20130   2.737   1.078   1.290  0.1074 -0.2044  0.0153
 6387SOL    HW120131   2.730   1.101   1.197 -0.1495  0.9404  0.2970
 6387SOL    HW220132   2.656   1.112   1.329  0.4762 -0.1512  0.7525
 6388SOL     OW20133   3.740   1.051   7.193  0.0627  1.4875  0.1346
 6388SOL    HW120134   3.756   0.962   7.161 -1.4606  0.9207  0.8198
 6388SOL    HW220135   3.786   1.108   7.131 -0.6255  0.3152 -1.5202
 6389SOL     OW20136   6.886   0.263   4.015 -0.1116  0.1566 -0.4346
 6389SOL    HW120137   6.825   0.194   4.040  1.5279 -1.5281 -0.9031
 6389SOL    HW220138   6.962   0.250   4.072  0.3866  1.3373 -0.8000
 6390SOL     OW20139   2.873   5.896   5.125 -0.4883 -0.1777 -0.1311
 6390SOL    HW120140   2.899   5.964   5.063 -0.1042  0.2105  0.4470
 6390SOL    HW220141   2.778   5.887   5.113 -0.4361 -0.0195 -0.6834
 6391SOL     OW20142   5.182   2.286   2.477 -0.0456 -0.2330 -0.6630
 6391SOL    HW120143   5.191   2.324   2.564 -2.1630 -1.2431  0.0668
 6391SOL    HW220144   5.220   2.351   2.418 -0.8950  1.6629  0.7884
 6392SOL     OW20145   1.924   0.783   3.075  0.4988  0.5124  0.5152
 6392SOL    HW120146   2.010   0.746   3.095 -0.0441 -0.4685  1.1419
 6392SOL    HW220147   1.877   0.712   3.030  0.5061  1.5295 -1.1845
 6393SOL     OW20148   0.800   0.374   7.115 -0.3861  0.2284 -0.2816
 6393SOL    HW120149   0.787   0.280   7.099 -0.4635  0.2625 -0.4132
 6393SOL    HW220150   0.773   0.386   7.206 -1.5434  0.3491 -0.6275
 6394SOL     OW20151   2.789   6.193   0.457  0.3066  0.3593 -0.8616
 6394SOL    HW120152   2.705   6.196   0.503  0.1264  0.6626 -1.2067
 6394SOL    HW220153   2.826   6.281   0.468  0.9133  0.0302 -0.1074
 6395SOL     OW20154   4.060   4.514   7.214 -0.3563  0.4857  0.0485
 6395SOL    HW120155   4.096   4.451   7.277 -0.8517  0.6115  0.4620
 6395SOL    HW220156   3.965   4.505   7.222 -0.4727 -1.0336 -2.2264
 6396SOL     OW20157   2.007   0.775   6.048 -0.3191 -0.6533  0.5393
 6396SOL    HW120158   1.998   0.826   6.129  0.2174 -1.7145  1.2936
 6396SOL    HW220159   2.098   0.789   6.021 -1.3178  2.4597 -1.8490
 6397SOL     OW20160   6.494   6.458   5.298 -0.6354 -0.7374  0.5050
 6397SOL    HW120161   6.492   6.395   5.227  2.4932  0.0331 -0.4492
 6397SOL    HW220162   6.583   6.451   5.333 -0.1668  2.9344  0.4597
 6398SOL     OW20163   1.990   7.151   3.935 -0.4957  0.1119 -0.3272
 6398SOL    HW120164   1.925   7.215   3.965  0.9425  2.3803 -1.7153
 6398SOL    HW220165   2.074   7.193   3.953  0.4780 -0.7780 -2.5016
 6399SOL     OW20166   4.641   2.669   2.156 -1.1044 -0.3868  0.4374
 6399SOL    HW120167   4.734   2.676   2.179 -0.7411 -0.1472 -1.0104
 6399SOL    HW220168   4.603   2.615   2.226 -0.2008  0.7474  1.8515
 6400SOL     OW20169   7.262   1.369   1.695 -0.3413  0.0221 -0.9236
 6400SOL    HW120170   7.188   1.374   1.634 -0.7118  1.4490 -0.4065
 6400SOL    HW220171   7.318   1.443   1.670 -0.6171  0.7804  0.5590
 6401SOL     OW20172   0.182   1.658   4.571 -0.3465 -0.0917  0.0155
 6401SOL    HW120173   0.135   1.689   4.494  0.7854  0.2508 -0.5572
 6401SOL    HW220174   0.166   1.725   4.637 -0.1640  0.3247 -0.3605
 6402SOL     OW20175   0.181   3.038   1.582 -0.6075 -0.2968 -0.3461
 6402SOL    HW120176   0.263   3.028   1.629 -1.0783 -1.5089  0.2489
 6402SOL    HW220177   0.181   3.130   1.554  0.1728  0.1640  1.0673
 6403SOL     OW20178   6.241   3.252   3.176 -0.5004  0.1811  0.6759
 6403SOL    HW120179   6.202   3.318   3.119 -1.2139 -0.9525 -0.1944
 6403SOL    HW220180   6.290   3.195   3.117  0.2257  0.0036  1.4277
 6404SOL     OW20181   6.944   1.078   1.341  0.8708  0.2388  0.6353
 6404SOL    HW120182   6.902   0.997   1.371  2.3923 -0.2447  1.5538
 6404SOL    HW220183   6.991   1.053   1.262 -0.7728  0.8634 -0.6054
 6405SOL     OW20184   2.288   3.839   6.696  0.4835  0.1022 -0.2168
 6405SOL    HW120185   2.362   3.896   6.718  1.1652 -0.8422 -0.0099
 6405SOL    HW220186   2.215   3.899   6.682  1.0681  0.9937  0.4582
 6406SOL     OW20187   5.362   1.659   5.121  0.2694 -0.2514  0.1259
 6406SOL    HW120188   5.430   1.725   5.107  1.2860 -1.3352 -0.2595
 6406SOL    HW220189   5.339   1.629   5.034 -0.3565 -0.2571  0.2875
 6407SOL     OW20190   3.228   5.777   0.944 -0.2540  0.7290 -0.1055
 6407SOL    HW120191   3.159   5.777   0.877  0.1019 -0.4417 -0.4861
 6407SOL    HW220192   3.287   5.847   0.916  0.0780  0.0227 -1.2393
 6408SOL     OW20193   3.504   4.527   5.628 -0.1719 -0.5131  0.0831
 6408SOL    HW120194   3.599   4.531   5.617 -0.1029 -0.8562  0.5217
 6408SOL    HW220195   3.491   4.501   5.719 -0.6908 -0.3078  0.0760
 6409SOL     OW20196   2.967   6.075   1.662 -0.4281  0.5492  0.6550
 6409SOL    HW120197   3.025   5.999   1.658 -1.2385 -0.1954  2.2357
 6409SOL    HW220198   3.003   6.135   1.596 -0.3827 -1.5903 -1.4254
 6410SOL     OW20199   3.912   2.732   3.048 -0.1797  0.2919  0.4834
 6410SOL    HW120200   3.883   2.685   3.126 -0.9595  1.9120  1.2200
 6410SOL    HW220201   3.836   2.783   3.021 -0.0247 -0.4605 -1.5610
 6411SOL     OW20202   4.341   5.344   1.313 -0.0142  0.3223  0.4249
 6411SOL    HW120203   4.295   5.283   1.372 -1.2560 -1.1156 -1.9053
 6411SOL    HW220204   4.271   5.397   1.275  0.6179  0.3440 -0.7282
 6412SOL     OW20205   3.882   2.543   5.466 -0.7842 -0.1516  0.4027
 6412SOL    HW120206   3.974   2.569   5.472 -0.7662 -0.3057  0.7769
 6412SOL    HW220207   3.885   2.449   5.445 -0.8522  0.0560 -0.6157
 6413SOL     OW20208   1.513   0.376   2.193  0.2122 -0.1465  0.2428
 6413SOL    HW120209   1.431   0.339   2.225  0.1998  0.6729  1.1955
 6413SOL    HW220210   1.556   0.303   2.148 -1.6496 -0.2658 -1.5206
 6414SOL     OW20211   5.100   5.009   7.167  0.3385  0.1353  0.3209
 6414SOL    HW120212   5.075   5.058   7.089  1.2511 -0.2684 -0.2418
 6414SOL    HW220213   5.081   4.917   7.146 -1.1367  0.1850  1.2774
 6415SOL     OW20214   0.330   6.799   4.653 -0.3727 -0.0251 -0.0396
 6415SOL    HW120215   0.391   6.807   4.727  0.4068 -0.4659 -0.6149
 6415SOL    HW220216   0.386   6.776   4.579 -1.0309  1.3107 -0.9753
 6416SOL     OW20217   3.712   3.517   6.510  0.4038 -0.2138  0.2459
 6416SOL    HW120218   3.681   3.578   6.443  0.4818 -2.4130 -1.9633
 6416SOL    HW220219   3.636   3.503   6.566 -0.1552  0.5120 -0.3109
 6417SOL     OW20220   4.451   4.704   1.417  0.1702 -0.4542 -0.0925
 6417SOL    HW120221   4.513   4.775   1.404 -1.7157  1.8806  2.3984
 6417SOL    HW220222   4.390   4.710   1.343  0.1110  0.4792  0.0238
 6418SOL     OW20223   1.380   0.112   5.985 -0.0068 -0.6023  0.2357
 6418SOL    HW120224   1.291   0.076   5.987 -0.8661  1.3325 -0.8681
 6418SOL    HW220225   1.431   0.050   6.037 -2.0343 -1.6303  1.1423
 6419SOL     OW20226   0.838   3.796   2.961 -0.1988  0.2941 -0.4455
 6419SOL    HW120227   0.821   3.703   2.948  1.2906 -0.0853  0.1138
 6419SOL    HW220228   0.753   3.834   2.982 -0.9827 -0.7725 -1.5564
 6420SOL     OW20229   1.591   3.019   2.507  0.2119  0.0472 -0.2231
 6420SOL    HW120230   1.667   3.038   2.562 -0.5151 -0.2104  0.9138
 6420SOL    HW220231   1.627   2.978   2.428  1.1692 -1.1492  0.8005
 6421SOL     OW20232   2.393   2.805   3.792 -0.3478  0.1899  0.1209
 6421SOL    HW120233   2.435   2.803   3.878 -1.2767  0.4739  0.5963
 6421SOL    HW220234   2.370   2.897   3.779 -0.2164  0.1443 -0.4222
 6422SOL     OW20235   4.403   6.082   3.396  0.6907  0.1404 -0.6449
 6422SOL    HW120236   4.384   6.003   3.346  1.1300 -0.4973  0.1743
 6422SOL    HW220237   4.381   6.060   3.486  0.1197  1.2054 -0.5113
 6423SOL     OW20238   6.210   2.526   4.995  0.1324  0.5424  0.1543
 6423SOL    HW120239   6.302   2.506   4.980 -0.4723 -2.3935 -0.1322
 6423SOL    HW220240   6.169   2.520   4.908 -0.7887 -1.2097  0.6621
 6424SOL     OW20241   5.838   4.533   0.337 -0.7771 -0.2653 -0.0970
 6424SOL    HW120242   5.930   4.534   0.364 -1.4694 -1.0864  2.7032
 6424SOL    HW220243   5.830   4.458   0.278  0.1871 -0.8749  0.5209
 6425SOL     OW20244   7.375   0.375   4.051 -0.3336 -0.1445 -0.7680
 6425SOL    HW120245   7.420   0.433   3.989 -0.3086  2.1614  1.2278
 6425SOL    HW220246   7.436   0.303   4.065 -1.4175 -2.2438 -5.2617
 6426SOL     OW20247   3.977   5.975   3.660 -0.1683 -0.1873 -0.7883
 6426SOL    HW120248   3.977   5.880   3.669 -0.2187 -0.1939 -0.8501
 6426SOL    HW220249   3.948   6.008   3.745  0.1630 -0.2155 -0.6660
 6427SOL     OW20250   7.190   0.688   2.388  0.1327  0.8338  0.0584
 6427SOL    HW120251   7.223   0.656   2.472  0.9532 -1.7941 -1.1574
 6427SOL    HW220252   7.097   0.707   2.405 -0.1503 -1.2658  1.2174
 6428SOL     OW20253   6.843   7.049   0.843 -0.2599 -0.0930 -0.1376
 6428SOL    HW120254   6.880   7.101   0.914  0.3129 -0.7101  0.0322
 6428SOL    HW220255   6.892   7.075   0.765 -0.8184  0.5089 -0.3004
 6429SOL     OW20256   6.464   3.135   4.526 -0.6964  0.1944 -0.4228
 6429SOL    HW120257   6.485   3.183   4.446  0.2048 -1.5721 -1.2857
 6429SOL    HW220258   6.539   3.149   4.583  0.6719 -1.9330 -1.5518
 6430SOL     OW20259   7.049   0.336   6.050  0.2553  0.5757  0.0776
 6430SOL    HW120260   7.132   0.376   6.022  0.6250 -0.4787 -0.4068
 6430SOL    HW220261   6.981   0.386   6.005  0.7637 -0.0956 -1.5384
 6431SOL     OW20262   3.852   3.776   3.882 -0.1898  0.0791  0.2608
 6431SOL    HW120263   3.911   3.817   3.944  2.3190 -2.0117 -0.5851
 6431SOL    HW220264   3.865   3.682   3.894 -1.2145 -0.4271 -1.9605
 6432SOL     OW20265   3.849   3.904   2.917 -0.3364  0.0488 -0.1448
 6432SOL    HW120266   3.943   3.922   2.917 -0.0180 -1.3444  1.2299
 6432SOL    HW220267   3.807   3.990   2.914  0.9905  0.7224  0.1749
 6433SOL     OW20268   6.832   2.692   5.341  0.3145 -0.7943 -0.2084
 6433SOL    HW120269   6.823   2.726   5.430 -2.5727 -2.7622  0.4049
 6433SOL    HW220270   6.836   2.770   5.285 -2.5391  0.6380  1.3421
 6434SOL     OW20271   1.334   1.001   1.796  0.2862  0.2903 -0.0220
 6434SOL    HW120272   1.415   0.987   1.846 -1.0294 -0.4289  2.0303
 6434SOL    HW220273   1.336   0.932   1.728  0.8984 -0.3954  0.6725
 6435SOL     OW20274   0.006   3.009   1.221  0.5136  0.3291  0.2311
 6435SOL    HW120275   0.096   3.043   1.226  1.7048 -2.0418 -2.4639
 6435SOL    HW220276   0.015   2.917   1.243 -1.5555  0.3175  1.2071
 6436SOL     OW20277   5.379   7.180   4.745  0.5267 -0.1510 -0.5424
 6436SOL    HW120278   5.405   7.141   4.661  1.5799 -0.3862 -0.1092
 6436SOL    HW220279   5.445   7.246   4.763 -0.1324  0.4481 -0.2667
 6437SOL     OW20280   6.972   3.805   5.464  0.6358  0.5489  0.5223
 6437SOL    HW120281   7.011   3.731   5.419  0.1806  1.3098 -1.1925
 6437SOL    HW220282   6.899   3.767   5.514  0.8411 -0.2472  0.2254
 6438SOL     OW20283   1.566   6.115   7.276  0.1945 -0.0033 -0.3635
 6438SOL    HW120284   1.657   6.095   7.256  0.3515 -1.5844  1.6986
 6438SOL    HW220285   1.515   6.058   7.219  0.5847 -1.7479  0.9629
 6439SOL     OW20286   1.319   2.236   6.013 -0.0658  0.1248  0.7239
 6439SOL    HW120287   1.360   2.316   5.982 -1.0848  0.0862 -0.8866
 6439SOL    HW220288   1.313   2.180   5.935 -1.1161 -0.7424  1.3835
 6440SOL     OW20289   3.989   4.737   5.969  0.1156  0.0752  0.7917
 6440SOL    HW120290   4.032   4.705   6.049  1.4204 -0.5469 -0.1277
 6440SOL    HW220291   3.942   4.661   5.935 -0.4187  0.3338  0.9422
 6441SOL     OW20292   4.071   1.263   4.816  0.0699 -0.3327 -0.2537
 6441SOL    HW120293   4.119   1.257   4.898 -0.8832  0.8348  0.4225
 6441SOL    HW220294   4.011   1.188   4.818 -0.2193 -0.0955  0.3188
 6442SOL     OW20295   5.663   6.482   4.918  0.0684 -0.0237  0.9565
 6442SOL    HW120296   5.717   6.472   4.840 -1.4003  3.0158 -0.6520
 6442SOL    HW220297   5.723   6.468   4.991  2.3320  0.3178 -0.7282
 6443SOL     OW20298   0.354   5.955   1.030 -0.5832 -0.1349 -0.2724
 6443SOL    HW120299   0.435   5.905   1.029 -1.1138 -1.0277 -0.2148
 6443SOL    HW220300   0.357   6.008   0.950  1.6080  2.4962  1.4119
 6444SOL     OW20301   6.380   6.036   1.346 -0.1323 -0.2155  0.3986
 6444SOL    HW120302   6.370   5.943   1.365  2.1686 -0.3136  1.3462
 6444SOL    HW220303   6.431   6.071   1.418  3.4429  0.7110 -2.3054
 6445SOL     OW20304   5.410   0.942   1.362 -0.2973  0.0659 -0.3434
 6445SOL    HW120305   5.398   1.002   1.436 -0.5975  1.3453 -1.3912
 6445SOL    HW220306   5.482   0.885   1.388  1.2832  2.0864 -0.0245
 6446SOL     OW20307   0.688   0.140   5.966  0.1675  0.3982 -0.2333
 6446SOL    HW120308   0.780   0.117   5.950  1.0165  2.9086  0.5334
 6446SOL    HW220309   0.683   0.156   6.060 -1.4312 -1.0428 -0.0345
 6447SOL     OW20310   4.665   2.746   6.927  0.0068  0.3280 -0.6390
 6447SOL    HW120311   4.582   2.739   6.880 -0.5846  0.3218  0.3770
 6447SOL    HW220312   4.658   2.827   6.977  0.7788  0.5342 -0.8455
 6448SOL     OW20313   2.636   1.076   1.868 -0.0773 -0.0877 -0.3468
 6448SOL    HW120314   2.641   0.994   1.918 -0.9181  0.4997  0.7487
 6448SOL    HW220315   2.542   1.095   1.864  0.1191  0.8781 -0.4941
 6449SOL     OW20316   0.304   3.357   1.429  0.0202 -0.8639  0.1102
 6449SOL    HW120317   0.221   3.321   1.461  0.3922 -0.9672  0.9755
 6449SOL    HW220318   0.293   3.452   1.434 -0.1831 -0.8700 -0.1582
 6450SOL     OW20319   5.578   6.604   3.223  0.1740 -0.4132  0.4263
 6450SOL    HW120320   5.579   6.700   3.226  0.5354 -0.4454  1.6401
 6450SOL    HW220321   5.664   6.580   3.187  0.0811 -0.2896  0.1174
 6451SOL     OW20322   5.829   3.246   3.405  0.5638  0.3077  0.4086
 6451SOL    HW120323   5.754   3.304   3.413  0.9499  1.1113 -1.3800
 6451SOL    HW220324   5.805   3.169   3.457 -1.7293  0.3212 -0.5196
 6452SOL     OW20325   3.857   3.674   6.173  0.3878  0.1786 -0.5729
 6452SOL    HW120326   3.893   3.721   6.097  3.8620  1.3923  1.5551
 6452SOL    HW220327   3.932   3.626   6.208 -1.2837 -0.9911  1.6313
 6453SOL     OW20328   4.948   0.610   0.467 -0.0663  0.3048 -0.4918
 6453SOL    HW120329   4.885   0.543   0.440  2.1254 -1.0455 -2.7281
 6453SOL    HW220330   4.966   0.659   0.386  0.9423  1.3604  0.3369
 6454SOL     OW20331   0.076   3.914   6.604 -0.2474 -0.4244  0.0663
 6454SOL    HW120332  -0.000   3.875   6.561 -0.1236 -1.3778  0.6730
 6454SOL    HW220333   0.062   3.899   6.697  0.2738  0.1539  0.2492
 6455SOL     OW20334   4.378   3.068   3.524  0.6140  0.0308  0.3304
 6455SOL    HW120335   4.357   3.159   3.500  1.2887  0.3356  0.8546
 6455SOL    HW220336   4.394   3.025   3.440 -1.9362 -0.2224 -0.1263
 6456SOL     OW20337   1.117   6.160   6.189 -0.1853  0.3235 -0.1356
 6456SOL    HW120338   1.124   6.253   6.170 -0.7062  1.0140  2.5955
 6456SOL    HW220339   1.107   6.156   6.284  0.4377 -2.5641 -0.1034
 6457SOL     OW20340   4.442   6.012   5.923  0.2016 -0.4534 -0.1921
 6457SOL    HW120341   4.429   6.104   5.900 -0.4808 -0.9355 -1.8705
 6457SOL    HW220342   4.368   5.967   5.883  0.6348 -1.7719  0.4399
 6458SOL     OW20343   0.021   7.152   1.630 -0.2916  0.1646  0.1069
 6458SOL    HW120344   0.016   7.247   1.634 -0.7692  0.1554 -0.1231
 6458SOL    HW220345   0.093   7.134   1.570  0.4402  0.3666  0.9070
 6459SOL     OW20346   6.749   2.472   0.939  0.0443 -0.6462 -0.3649
 6459SOL    HW120347   6.659   2.504   0.936  0.5823  1.0487  0.5768
 6459SOL    HW220348   6.795   2.522   0.872  0.7162 -0.0069  0.5493
 6460SOL     OW20349   7.335   0.103   0.332 -0.0869 -0.1908  0.1212
 6460SOL    HW120350   7.335   0.149   0.248  0.0087  0.3855  0.4298
 6460SOL    HW220351   7.361   0.170   0.395 -0.8549 -0.4372  0.7136
 6461SOL     OW20352   1.661   0.657   5.009  0.6521  0.1788  0.3091
 6461SOL    HW120353   1.698   0.714   4.942  1.5421 -0.9754 -0.2288
 6461SOL    HW220354   1.737   0.630   5.061  0.5968 -2.0509 -0.6653
 6462SOL     OW20355   2.754   5.283   1.247  0.0529 -0.2376  0.1961
 6462SOL    HW120356   2.802   5.298   1.166  0.3063  0.8241  0.5270
 6462SOL    HW220357   2.821   5.288   1.316 -0.3341  0.0407  0.5574
 6463SOL     OW20358   0.747   2.565   2.623 -0.3732 -0.1267  0.0044
 6463SOL    HW120359   0.825   2.540   2.673 -0.3598 -0.9215 -0.4160
 6463SOL    HW220360   0.766   2.539   2.533 -0.2842  1.5475 -0.4982
 6464SOL     OW20361   3.906   5.429   3.044  0.3572 -0.1520 -0.7077
 6464SOL    HW120362   3.969   5.357   3.035 -0.1853 -0.5564 -1.4295
 6464SOL    HW220363   3.852   5.404   3.118 -0.4891 -1.0254 -1.5947
 6465SOL     OW20364   6.000   1.449   0.754  0.4907 -0.4997 -0.0489
 6465SOL    HW120365   6.008   1.526   0.697  1.8027 -0.4322  0.2011
 6465SOL    HW220366   5.982   1.377   0.694  0.3620 -0.1845 -0.3971
 6466SOL     OW20367   5.747   6.380   5.837  0.1578  0.6822  0.4229
 6466SOL    HW120368   5.684   6.332   5.892 -0.4731  2.1303  1.0083
 6466SOL    HW220369   5.812   6.314   5.813  0.3989 -0.0705  2.8196
 6467SOL     OW20370   1.820   1.672   7.144 -0.2234  0.2283  0.1967
 6467SOL    HW120371   1.731   1.644   7.165  0.0287 -0.9490 -0.2488
 6467SOL    HW220372   1.830   1.653   7.050  0.3592  0.7468  0.1450
 6468SOL     OW20373   3.961   2.079   4.137 -0.0135  0.3941 -0.1773
 6468SOL    HW120374   3.994   2.015   4.200 -1.0739  1.2419  1.3156
 6468SOL    HW220375   4.028   2.146   4.132  0.4754 -0.1203 -0.6721
 6469SOL     OW20376   6.980   0.955   6.842 -0.1187 -0.0365 -0.0560
 6469SOL    HW120377   6.927   0.992   6.771 -0.3671  2.5975  1.3849
 6469SOL    HW220378   7.046   1.022   6.860  1.5594 -1.7544  0.5465
 6470SOL     OW20379   3.071   6.770   1.198 -0.3614 -0.3931  0.1915
 6470SOL    HW120380   2.989   6.820   1.198 -0.6207 -0.8112 -0.4650
 6470SOL    HW220381   3.081   6.739   1.108  2.1609  2.2699 -0.6012
 6471SOL     OW20382   2.342   3.463   2.923  0.2269  0.0607 -0.5009
 6471SOL    HW120383   2.307   3.490   2.838 -0.3265  0.9014 -0.0220
 6471SOL    HW220384   2.413   3.524   2.941  1.0119 -0.7436 -0.8079
 6472SOL     OW20385   0.247   2.693   5.946  0.1297 -0.0397 -0.2107
 6472SOL    HW120386   0.251   2.672   6.040  1.0301 -0.7246 -0.3871
 6472SOL    HW220387   0.179   2.760   5.940  2.0356  2.2123  1.3321
 6473SOL     OW20388   0.052   7.300   6.355  0.0177  0.1118  0.1277
 6473SOL    HW120389   0.043   7.389   6.386 -0.8540  0.7270 -1.7087
 6473SOL    HW220390   0.099   7.254   6.424  1.5379  2.2655  0.6254
 6474SOL     OW20391   6.086   6.753   1.763 -0.2382 -0.1103 -0.8264
 6474SOL    HW120392   6.077   6.663   1.794 -0.2398  0.8097  2.1328
 6474SOL    HW220393   6.170   6.782   1.798 -1.1751  1.6500  0.0993
 6475SOL     OW20394   1.924   6.508   1.517  0.3110  0.0332  0.4193
 6475SOL    HW120395   1.981   6.438   1.483  0.9278  0.2478  0.9818
 6475SOL    HW220396   1.891   6.473   1.600 -1.1256 -0.4585 -0.3381
 6476SOL     OW20397   1.046   3.893   4.358 -0.0253  0.1397 -0.2924
 6476SOL    HW120398   1.086   3.950   4.424 -1.9230  0.4484  0.6628
 6476SOL    HW220399   1.111   3.887   4.289  2.0612 -0.2365  1.6124
 6477SOL     OW20400   4.668   1.452   6.491  0.5205  0.6530  0.7986
 6477SOL    HW120401   4.638   1.543   6.491  0.9747  0.8373 -0.7655
 6477SOL    HW220402   4.710   1.441   6.405 -2.1047 -1.8607 -0.3436
 6478SOL     OW20403   3.397   6.291   6.796  0.1454 -0.2789 -0.3831
 6478SOL    HW120404   3.470   6.320   6.851  0.0705  2.4548 -1.5456
 6478SOL    HW220405   3.433   6.219   6.744  1.6893  0.2962 -0.1662
 6479SOL     OW20406   0.015   2.242   4.808  0.1891 -0.7401 -0.1100
 6479SOL    HW120407   0.089   2.273   4.862 -0.5732  0.5223  0.2437
 6479SOL    HW220408  -0.063   2.276   4.852 -0.5465 -1.0740 -1.1193
 6480SOL     OW20409   4.541   1.531   0.490  0.4700  0.1785 -0.7392
 6480SOL    HW120410   4.561   1.537   0.584 -1.2114  0.7206 -0.3730
 6480SOL    HW220411   4.526   1.438   0.475  1.9389 -0.0798 -0.7704
 6481SOL     OW20412   1.629   3.855   5.676 -0.1089 -0.0065 -0.4422
 6481SOL    HW120413   1.704   3.878   5.621 -0.5604 -0.3710 -1.2456
 6481SOL    HW220414   1.566   3.927   5.662 -0.5994 -0.5569 -1.1568
 6482SOL     OW20415   2.894   5.296   1.524  0.1683  0.2422  0.1144
 6482SOL    HW120416   2.854   5.358   1.585  1.1398  1.3236 -0.3035
 6482SOL    HW220417   2.942   5.352   1.462  2.4021 -0.9724  0.6446
 6483SOL     OW20418   5.596   0.404   6.785  0.0026 -0.1689  0.5215
 6483SOL    HW120419   5.650   0.482   6.774  0.3211 -0.6733 -2.2851
 6483SOL    HW220420   5.642   0.351   6.850  0.3555  1.4435  1.6400
 6484SOL     OW20421   0.223   5.599   6.804 -0.0212  0.0228  0.1480
 6484SOL    HW120422   0.292   5.533   6.789  0.0151 -0.0385  0.5803
 6484SOL    HW220423   0.236   5.627   6.895 -0.7818 -0.2397  0.3453
 6485SOL     OW20424   6.561   6.852   5.553  0.7260 -0.3328 -0.2056
 6485SOL    HW120425   6.593   6.777   5.604  1.9446 -0.3543 -0.9420
 6485SOL    HW220426   6.637   6.910   5.547 -0.0319  0.6984 -0.1550
 6486SOL     OW20427   7.240   5.231   6.922 -0.2145 -0.9801  0.2409
 6486SOL    HW120428   7.280   5.316   6.943 -1.0897 -0.4195 -0.2823
 6486SOL    HW220429   7.290   5.168   6.973  0.8576 -0.2225  0.1679
 6487SOL     OW20430   3.264   6.102   3.106 -1.2453  0.1460 -0.0681
 6487SOL    HW120431   3.337   6.058   3.151 -0.6085 -0.5298 -1.6710
 6487SOL    HW220432   3.187   6.079   3.157 -0.3078  1.2629  1.9439
 6488SOL     OW20433   5.812   1.346   0.950 -0.0366  0.0355  0.3003
 6488SOL    HW120434   5.853   1.261   0.933 -1.3710 -0.8526  1.3637
 6488SOL    HW220435   5.859   1.406   0.892 -0.7690 -1.8464 -2.5064
 6489SOL     OW20436   1.176   0.543   4.107  0.4981  0.5888 -0.1134
 6489SOL    HW120437   1.231   0.617   4.132  0.6197  0.3398  0.3724
 6489SOL    HW220438   1.145   0.507   4.190  0.6343 -0.0527 -0.3329
 6490SOL     OW20439   1.856   6.519   6.734 -0.1540 -0.6129  0.4246
 6490SOL    HW120440   1.821   6.531   6.822 -0.4755 -1.4725  0.4255
 6490SOL    HW220441   1.779   6.525   6.677  0.2115  1.2877  0.0439
 6491SOL     OW20442   2.320   6.871   4.639  0.5756 -0.1104  0.4345
 6491SOL    HW120443   2.363   6.911   4.563 -0.5730 -2.0742 -1.3894
 6491SOL    HW220444   2.246   6.928   4.658  0.9793  0.5028  0.1959
 6492SOL     OW20445   5.235   5.788   4.273  0.3126  0.3325 -0.2977
 6492SOL    HW120446   5.224   5.739   4.191  1.0503  0.4611 -0.4811
 6492SOL    HW220447   5.186   5.869   4.259 -1.0267 -0.3768  0.0572
 6493SOL     OW20448   6.080   1.639   5.595 -0.3138  0.6146 -0.8655
 6493SOL    HW120449   5.991   1.674   5.593 -0.2745  1.1374  1.8422
 6493SOL    HW220450   6.075   1.566   5.657  1.0541  0.4330 -0.9504
 6494SOL     OW20451   3.512   3.768   1.332  0.8040 -0.0460 -0.2260
 6494SOL    HW120452   3.466   3.752   1.414  0.1573  0.2971 -0.5170
 6494SOL    HW220453   3.572   3.694   1.323 -0.7986 -1.3565 -0.6300
 6495SOL     OW20454   1.485   2.003   1.971  0.2487  0.0180 -0.0492
 6495SOL    HW120455   1.506   2.034   1.883  0.5554 -0.6487 -0.2172
 6495SOL    HW220456   1.394   2.029   1.985  0.1239 -0.0870 -0.6585
 6496SOL     OW20457   1.887   7.161   4.708 -0.4292 -0.9454  0.4928
 6496SOL    HW120458   1.858   7.130   4.623  2.1682  0.2059 -0.9250
 6496SOL    HW220459   1.828   7.234   4.729 -1.4477 -1.6101 -0.0306
 6497SOL     OW20460   3.815   6.913   2.696  0.4283 -0.0819  0.3419
 6497SOL    HW120461   3.861   6.946   2.773 -0.3293  0.7459  0.4641
 6497SOL    HW220462   3.800   6.991   2.642 -0.2432 -0.4341  0.0074
 6498SOL     OW20463   1.839   0.345   4.375 -0.0292 -0.2075  0.0977
 6498SOL    HW120464   1.855   0.306   4.461 -1.0875 -0.8329  0.0268
 6498SOL    HW220465   1.771   0.411   4.391 -0.0487 -0.1491 -0.2221
 6499SOL     OW20466   3.457   2.680   5.067  0.3047  0.3717 -0.9307
 6499SOL    HW120467   3.402   2.758   5.061  1.8367  1.9863  2.7424
 6499SOL    HW220468   3.547   2.714   5.066  1.0131 -1.0649  2.0263
 6500SOL     OW20469   1.288   6.902   4.701  0.2741  0.0496 -0.0048
 6500SOL    HW120470   1.227   6.906   4.628  0.8524 -2.1930 -0.6949
 6500SOL    HW220471   1.374   6.916   4.661  0.7052 -2.1836 -0.0380
 6501SOL     OW20472   4.564   6.455   7.159 -0.0580  0.4958  0.5437
 6501SOL    HW120473   4.577   6.460   7.253 -0.8029 -1.0801  0.7723
 6501SOL    HW220474   4.469   6.441   7.148  0.2758 -1.5754 -0.2665
 6502SOL     OW20475   5.439   5.016   0.052  0.3015  0.2729 -0.0846
 6502SOL    HW120476   5.481   4.985  -0.029  1.4839 -0.2314  0.7004
 6502SOL    HW220477   5.390   5.094   0.025  0.3873 -0.0835 -1.3527
 6503SOL     OW20478   4.825   5.532   2.926 -0.5827 -0.1598 -0.3999
 6503SOL    HW120479   4.894   5.597   2.911  0.0436 -0.7067  0.0852
 6503SOL    HW220480   4.806   5.538   3.019 -2.8472  1.6005 -0.8753
 6504SOL     OW20481   4.140   5.251   2.765 -0.3234 -0.3838 -0.8045
 6504SOL    HW120482   4.207   5.183   2.758  2.0057  1.8275 -1.7229
 6504SOL    HW220483   4.140   5.274   2.858  0.6388 -0.0490 -0.8701
 6505SOL     OW20484   4.777   1.458   3.026 -0.2201 -0.6391 -0.3033
 6505SOL    HW120485   4.853   1.405   3.051  2.6887  1.7781 -3.1047
 6505SOL    HW220486   4.719   1.396   2.982 -2.6623 -3.6441  5.8983
 6506SOL     OW20487   2.052   0.290   3.969  0.1334 -1.1148  0.2932
 6506SOL    HW120488   1.981   0.267   4.029 -1.7852  3.5543  0.2128
 6506SOL    HW220489   2.114   0.340   4.023  0.4246 -0.2658 -0.8071
 6507SOL     OW20490   0.447   1.173   2.547  0.1116 -0.1694 -0.0801
 6507SOL    HW120491   0.472   1.215   2.465  1.2321 -0.4410  0.0978
 6507SOL    HW220492   0.408   1.090   2.521  1.3041 -0.6746 -0.3387
 6508SOL     OW20493   4.157   6.895   6.908 -0.3925  0.1424  0.2440
 6508SOL    HW120494   4.069   6.856   6.909 -0.6615  0.5207 -2.5366
 6508SOL    HW220495   4.172   6.918   6.817  1.3395  3.0540  1.1579
 6509SOL     OW20496   0.027   1.757   2.727 -0.6897  0.3970  0.0059
 6509SOL    HW120497   0.087   1.798   2.789  1.0085 -2.4260  0.4334
 6509SOL    HW220498   0.050   1.794   2.642 -1.4013  2.5313  0.6812
 6510SOL     OW20499   2.239   2.130   0.579 -0.2503  0.2522  0.0954
 6510SOL    HW120500   2.296   2.053   0.573  0.1605  0.5737 -0.2523
 6510SOL    HW220501   2.299   2.204   0.581 -0.6615  0.6066 -0.3964
 6511SOL     OW20502   5.388   2.986   6.080 -0.5183  0.1720  0.1237
 6511SOL    HW120503   5.365   3.078   6.071  1.0730  0.5434 -0.4104
 6511SOL    HW220504   5.482   2.983   6.064 -0.7014 -1.6725 -0.8589
 6512SOL     OW20505   3.005   5.867   6.320  0.6397 -0.0857  0.0099
 6512SOL    HW120506   3.085   5.918   6.325  0.6684 -0.0950 -0.3411
 6512SOL    HW220507   3.001   5.837   6.229 -1.2196  2.3097 -0.8071
 6513SOL     OW20508   2.969   4.595   7.219 -0.7100  0.4446 -0.2914
 6513SOL    HW120509   2.892   4.614   7.167 -0.6015  1.5997 -0.0610
 6513SOL    HW220510   3.007   4.517   7.179 -0.4073  1.5060 -2.2073
 6514SOL     OW20511   0.688   0.660   6.410  0.5116  0.0394 -0.4200
 6514SOL    HW120512   0.698   0.717   6.486 -3.1165  0.0056  0.2475
 6514SOL    HW220513   0.640   0.712   6.346 -1.6589 -1.7015 -0.3403
 6515SOL     OW20514   4.200   6.481   4.274  0.3705 -0.0956  0.5532
 6515SOL    HW120515   4.226   6.568   4.303 -2.6469  1.1626 -0.1033
 6515SOL    HW220516   4.128   6.496   4.212  0.0624 -3.0339  0.0269
 6516SOL     OW20517   2.978   4.413   1.281 -0.3507 -0.7239 -0.0164
 6516SOL    HW120518   3.028   4.494   1.272 -0.5657 -0.4872  0.9063
 6516SOL    HW220519   2.887   4.441   1.285 -0.4728 -1.0652 -0.3084
 6517SOL     OW20520   4.608   1.459   7.062 -0.4163 -0.1236  0.4126
 6517SOL    HW120521   4.566   1.399   7.124  0.5763  1.4460  2.7560
 6517SOL    HW220522   4.701   1.440   7.070 -0.1668  1.0690  0.4611
 6518SOL     OW20523   1.347   5.263   5.653 -0.1097 -0.0993  0.5821
 6518SOL    HW120524   1.345   5.318   5.731  1.0157  0.6966  0.0832
 6518SOL    HW220525   1.420   5.298   5.601 -0.8742 -0.5596 -0.8593
 6519SOL     OW20526   6.652   4.661   0.122 -0.2420 -0.4455 -0.4495
 6519SOL    HW120527   6.708   4.653   0.200 -2.1508  2.3220  1.3771
 6519SOL    HW220528   6.580   4.601   0.139  0.4072 -1.4922 -1.2216
 6520SOL     OW20529   1.608   7.223   5.447 -0.6885 -0.3304 -0.4027
 6520SOL    HW120530   1.688   7.206   5.398 -0.9853  0.6484 -1.2732
 6520SOL    HW220531   1.539   7.183   5.395 -0.9191  0.0319 -0.3787
 6521SOL     OW20532   1.927   2.186   5.577 -0.8533  0.1720  0.2402
 6521SOL    HW120533   1.971   2.256   5.529 -0.5908  0.5209  0.9786
 6521SOL    HW220534   1.991   2.114   5.578 -1.4235 -0.3900 -1.2086
 6522SOL     OW20535   3.267   2.594   2.808  0.6512  0.5622 -0.4524
 6522SOL    HW120536   3.201   2.649   2.767  1.7736  1.9747 -0.4417
 6522SOL    HW220537   3.300   2.646   2.882  1.5273 -0.2488 -0.2496
 6523SOL     OW20538   3.223   2.755   6.809  0.2887  0.0669  0.1112
 6523SOL    HW120539   3.291   2.754   6.877 -0.2877  0.8311  0.7110
 6523SOL    HW220540   3.145   2.787   6.853 -1.1401 -2.9064  0.0478
 6524SOL     OW20541   3.937   4.417   2.027  0.4091  0.6519  0.0790
 6524SOL    HW120542   3.873   4.373   2.082  0.8221  1.2417  1.0513
 6524SOL    HW220543   3.905   4.404   1.938 -1.3861  1.4465  0.5688
 6525SOL     OW20544   2.054   6.133   1.207  0.2171  0.3684 -0.8497
 6525SOL    HW120545   2.147   6.113   1.220  0.4483  2.1569  0.7885
 6525SOL    HW220546   2.052   6.188   1.128  0.6977  1.0524 -0.3997
 6526SOL     OW20547   6.727   3.732   5.600 -0.1662 -0.0944  0.2607
 6526SOL    HW120548   6.761   3.758   5.685 -0.7379  0.4554  0.3336
 6526SOL    HW220549   6.669   3.658   5.619  2.4904 -2.4481 -0.1018
 6527SOL     OW20550   6.960   7.216   6.738  0.0391 -0.2633  0.0377
 6527SOL    HW120551   6.871   7.241   6.760  0.0643 -1.7322  2.0885
 6527SOL    HW220552   6.951   7.133   6.690  0.3086 -0.6821  0.7017
 6528SOL     OW20553   4.907   4.755   5.285 -0.1648  0.4523 -0.4542
 6528SOL    HW120554   4.852   4.832   5.299 -0.8536  0.0507 -0.8630
 6528SOL    HW220555   4.904   4.740   5.191 -0.9395 -0.7010 -0.2676
 6529SOL     OW20556   3.508   1.541   4.219  0.6326 -0.2806 -0.5436
 6529SOL    HW120557   3.515   1.489   4.299 -0.5601 -2.5659 -1.8245
 6529SOL    HW220558   3.581   1.512   4.165 -1.1241 -2.2701 -2.0546
 6530SOL     OW20559   0.523   5.526   2.070 -0.0998 -0.1285  0.3153
 6530SOL    HW120560   0.603   5.489   2.108  0.0974  0.2101  0.2312
 6530SOL    HW220561   0.452   5.476   2.110 -0.0018  1.2063  2.2601
 6531SOL     OW20562   4.854   6.766   2.991  0.3952 -1.0312 -0.2895
 6531SOL    HW120563   4.839   6.682   2.948  0.3889 -1.5601  0.7169
 6531SOL    HW220564   4.897   6.820   2.924  0.8246 -1.9844 -0.7953
 6532SOL     OW20565   3.207   2.592   1.318  0.3285 -0.5027 -0.0354
 6532SOL    HW120566   3.134   2.646   1.348 -1.7795 -2.2664 -1.6095
 6532SOL    HW220567   3.226   2.535   1.393 -0.7267 -0.7634  0.0599
 6533SOL     OW20568   1.340   6.601   2.514 -0.2314 -0.5006  0.2313
 6533SOL    HW120569   1.276   6.568   2.451 -0.4550  2.0158 -0.9621
 6533SOL    HW220570   1.373   6.682   2.476  1.6832 -0.2950  2.1004
 6534SOL     OW20571   1.114   1.409   3.757  0.2706 -0.1603  0.9542
 6534SOL    HW120572   1.072   1.393   3.673  1.3923 -0.2721  0.4007
 6534SOL    HW220573   1.111   1.325   3.802 -0.1479 -0.1504  0.9514
 6535SOL     OW20574   3.534   6.630   4.864  0.2194  0.2233 -0.0233
 6535SOL    HW120575   3.503   6.610   4.776 -0.4027  1.1738 -0.0391
 6535SOL    HW220576   3.494   6.714   4.885  1.2121  0.5237  0.7571
 6536SOL     OW20577   3.251   5.323   6.465  0.0439 -0.3683 -0.5816
 6536SOL    HW120578   3.295   5.238   6.475 -0.7064 -0.7432 -0.4162
 6536SOL    HW220579   3.254   5.362   6.552 -0.4880 -0.6638 -0.4272
 6537SOL     OW20580   1.749   5.233   2.322  0.0665 -0.5341 -0.1304
 6537SOL    HW120581   1.719   5.265   2.237 -0.4381  0.7726  0.4991
 6537SOL    HW220582   1.753   5.312   2.377  1.9415 -1.0896  0.6127
 6538SOL     OW20583   2.296   1.972   1.083  0.0391 -0.3863 -0.3142
 6538SOL    HW120584   2.250   1.916   1.145 -0.2008  1.4299  1.2327
 6538SOL    HW220585   2.302   1.919   1.003  0.6307 -2.9122  1.3039
 6539SOL     OW20586   5.176   0.705   3.200 -0.2743  0.3961  0.2154
 6539SOL    HW120587   5.239   0.649   3.246 -1.6349 -0.0300  1.6117
 6539SOL    HW220588   5.177   0.673   3.110  2.9264  1.6599 -0.3457
 6540SOL     OW20589   1.671   3.444   3.899 -0.2160  0.6817  0.4838
 6540SOL    HW120590   1.641   3.402   3.979 -0.0928  1.1791  0.7966
 6540SOL    HW220591   1.590   3.473   3.856 -0.3740 -0.8695 -0.3031
 6541SOL     OW20592   4.786   1.348   5.224 -0.1407  0.2271  0.1224
 6541SOL    HW120593   4.748   1.266   5.195 -0.2411  0.4223 -0.3044
 6541SOL    HW220594   4.843   1.324   5.298  0.4067 -0.3201 -0.4662
 6542SOL     OW20595   5.832   5.627   1.146 -0.4210 -0.3452 -0.5906
 6542SOL    HW120596   5.798   5.654   1.061 -2.0055 -1.0265 -0.1962
 6542SOL    HW220597   5.825   5.532   1.146  0.2237 -0.4058  0.0504
 6543SOL     OW20598   5.636   2.946   4.813 -0.2709  0.3732 -0.0201
 6543SOL    HW120599   5.600   2.875   4.867  1.4225 -0.4631  0.0668
 6543SOL    HW220600   5.576   2.953   4.739 -0.9820 -0.5087  0.4554
 6544SOL     OW20601   3.133   5.734   1.226  0.4778  0.2143 -0.3845
 6544SOL    HW120602   3.210   5.774   1.266  0.8775  0.1194 -1.0519
 6544SOL    HW220603   3.156   5.723   1.134  0.7839 -2.4716 -0.0585
 6545SOL     OW20604   6.528   0.706   6.614  0.4130  0.0045  0.5988
 6545SOL    HW120605   6.597   0.741   6.558 -1.7242  2.2146 -0.8420
 6545SOL    HW220606   6.471   0.657   6.554 -0.2849 -0.1723  1.3877
 6546SOL     OW20607   1.890   7.122   6.345  0.2089 -0.4635 -1.1482
 6546SOL    HW120608   1.976   7.150   6.377  0.9014 -1.5931 -1.9597
 6546SOL    HW220609   1.832   7.194   6.368  0.8067 -0.8045  1.8133
 6547SOL     OW20610   1.014   0.423   1.973  0.3186 -0.1405 -0.1015
 6547SOL    HW120611   0.956   0.352   2.002  0.1377  0.6703  1.6469
 6547SOL    HW220612   0.972   0.457   1.894  0.7288 -2.3149 -1.3476
 6548SOL     OW20613   6.453   4.306   0.645 -0.0972  0.3526  0.3490
 6548SOL    HW120614   6.411   4.366   0.705 -3.0397  0.1444 -1.3269
 6548SOL    HW220615   6.393   4.231   0.639  1.4901 -0.9269 -0.6867
 6549SOL     OW20616   0.091   4.584   1.061 -0.1402  0.0749 -0.2787
 6549SOL    HW120617   0.111   4.516   0.996 -1.6800 -1.6410  0.9451
 6549SOL    HW220618   0.004   4.616   1.036  0.0504  0.7297 -0.1215
 6550SOL     OW20619   5.189   1.105   5.858  0.2336 -0.0198 -0.2824
 6550SOL    HW120620   5.139   1.156   5.922 -2.9216 -3.4795  0.3743
 6550SOL    HW220621   5.234   1.038   5.910  2.4770  0.6186 -1.2793
 6551SOL     OW20622   0.699   1.464   4.074  0.1091 -0.6752 -0.4203
 6551SOL    HW120623   0.727   1.443   3.985 -0.3360  1.2803 -1.0518
 6551SOL    HW220624   0.780   1.484   4.121  0.1361  1.9833 -1.4414
 6552SOL     OW20625   1.683   1.753   6.131  0.0382  0.6680 -0.1679
 6552SOL    HW120626   1.688   1.674   6.184  0.1901 -0.4497 -1.7851
 6552SOL    HW220627   1.656   1.822   6.193  1.3883 -0.3058  1.5789
 6553SOL     OW20628   7.361   1.799   0.910 -0.4396  0.2510  0.2960
 6553SOL    HW120629   7.278   1.774   0.953 -0.1479  1.2149  1.4638
 6553SOL    HW220630   7.413   1.718   0.911 -2.4243 -1.3328 -3.3124
 6554SOL     OW20631   5.078   3.783   4.135 -0.7566  0.4986  0.1107
 6554SOL    HW120632   5.075   3.873   4.167  1.6065  0.8480 -0.4466
 6554SOL    HW220633   5.144   3.741   4.189 -0.6392 -0.4325 -0.7250
 6555SOL     OW20634   2.539   5.494   0.629 -0.2919 -0.1731  0.7047
 6555SOL    HW120635   2.565   5.516   0.718 -0.4224  0.0293  0.6937
 6555SOL    HW220636   2.528   5.399   0.630 -3.3520  0.0739  1.7549
 6556SOL     OW20637   6.270   1.966   5.762  0.1725  0.7768 -0.6169
 6556SOL    HW120638   6.321   1.898   5.807 -0.1470 -0.0464 -1.4719
 6556SOL    HW220639   6.295   2.047   5.806 -1.0586 -0.1107  1.8923
 6557SOL     OW20640   3.282   4.572   2.452  0.0113 -0.2300 -0.0782
 6557SOL    HW120641   3.273   4.495   2.508 -3.4180  1.7520  2.4532
 6557SOL    HW220642   3.355   4.622   2.490 -0.9441  0.0878  1.3672
 6558SOL     OW20643   0.944   1.001   0.529 -0.2462 -0.0967 -0.9325
 6558SOL    HW120644   0.888   1.051   0.589  0.2462 -0.6273 -0.0128
 6558SOL    HW220645   1.033   1.017   0.561  0.0294 -0.3110 -1.5909
 6559SOL     OW20646   0.494   4.020   2.565 -0.1804  0.3426 -0.0789
 6559SOL    HW120647   0.547   4.075   2.623 -0.7505 -0.5914  1.3732
 6559SOL    HW220648   0.419   4.075   2.542 -0.8828  0.1441  1.5702
 6560SOL     OW20649   4.103   0.978   6.565  0.1225 -0.2373 -0.0014
 6560SOL    HW120650   4.089   1.021   6.649 -0.3144  3.2696 -1.6535
 6560SOL    HW220651   4.198   0.984   6.551  0.1497 -0.4807  0.0763
 6561SOL     OW20652   7.323   6.015   5.346 -0.1015  0.6021 -0.2561
 6561SOL    HW120653   7.318   6.059   5.431 -0.6679 -2.7983  1.6569
 6561SOL    HW220654   7.233   6.011   5.315 -0.3603 -0.8625  0.5868
 6562SOL     OW20655   4.315   4.353   1.875  0.4949  0.0440  0.2444
 6562SOL    HW120656   4.258   4.279   1.899 -1.9537  1.6924 -0.1645
 6562SOL    HW220657   4.339   4.336   1.784 -1.5459  0.5829 -0.4415
 6563SOL     OW20658   5.371   4.809   5.567  0.0131 -0.0580 -0.8870
 6563SOL    HW120659   5.325   4.770   5.642 -0.8008 -1.3127 -2.0001
 6563SOL    HW220660   5.368   4.903   5.584 -0.0775 -0.3164  0.7017
 6564SOL     OW20661   5.150   6.047   4.272  0.0356 -0.5509  0.0534
 6564SOL    HW120662   5.105   6.127   4.302 -1.1245 -2.1225  2.9365
 6564SOL    HW220663   5.242   6.071   4.270 -0.3769  1.1801 -0.3189
 6565SOL     OW20664   5.667   2.319   1.489  0.0791  0.0883 -0.7195
 6565SOL    HW120665   5.678   2.399   1.541  0.4623  0.6628 -1.6699
 6565SOL    HW220666   5.626   2.257   1.550  2.5342 -0.0198  0.9940
 6566SOL     OW20667   4.907   1.796   4.787 -0.2573 -0.5516  0.7084
 6566SOL    HW120668   4.972   1.750   4.734 -0.1231 -0.9465  1.2035
 6566SOL    HW220669   4.825   1.749   4.770 -0.2345 -0.6150  0.7714
 6567SOL     OW20670   0.185   6.987   6.205  0.2124  0.6763 -0.0574
 6567SOL    HW120671   0.219   7.072   6.177  0.9164  0.0567 -1.1743
 6567SOL    HW220672   0.141   6.953   6.127 -0.5289  0.2364  0.5400
 6568SOL     OW20673   5.473   2.432   6.347  0.5039 -0.3722  0.0427
 6568SOL    HW120674   5.389   2.477   6.345  0.1531 -1.0110 -1.4321
 6568SOL    HW220675   5.453   2.343   6.317  1.8306 -0.2639 -1.2699
 6569SOL     OW20676   0.442   5.201   0.500  0.1635  0.3712  0.1102
 6569SOL    HW120677   0.438   5.107   0.480 -0.5695  0.4003  0.0842
 6569SOL    HW220678   0.441   5.243   0.414 -1.3078  0.4451  0.1358
 6570SOL     OW20679   3.638   5.395   0.391 -0.7811  0.3237  0.2107
 6570SOL    HW120680   3.635   5.299   0.392  2.3520  0.1198  1.5851
 6570SOL    HW220681   3.595   5.419   0.310 -3.3512 -2.0883  0.6853
 6571SOL     OW20682   5.430   4.969   0.746  0.5192  0.5475  0.0341
 6571SOL    HW120683   5.466   4.921   0.821  0.1068  0.8472  0.4293
 6571SOL    HW220684   5.413   4.901   0.681 -1.7354 -0.1623  1.2315
 6572SOL     OW20685   0.088   1.741   4.332 -0.8082 -0.0528 -0.0927
 6572SOL    HW120686   0.009   1.732   4.279 -0.6396  0.2317 -0.3901
 6572SOL    HW220687   0.124   1.826   4.309 -0.4764 -0.1292  0.1299
 6573SOL     OW20688   0.223   6.079   1.766  0.1327  0.1288  0.3451
 6573SOL    HW120689   0.202   5.990   1.794  1.4101 -0.1139  0.5898
 6573SOL    HW220690   0.225   6.131   1.847  0.0712  0.2387  0.2775
 6574SOL     OW20691   6.003   2.910   1.497 -0.2220  0.0559  0.6532
 6574SOL    HW120692   6.017   2.865   1.580  0.5850 -0.3826  0.2910
 6574SOL    HW220693   6.090   2.940   1.471 -0.6173  1.0906  0.4649
 6575SOL     OW20694   5.439   1.761   1.202  0.2170  0.3931  0.0512
 6575SOL    HW120695   5.487   1.828   1.250  0.2878  1.1817 -1.0713
 6575SOL    HW220696   5.379   1.810   1.146  0.6473 -0.4380 -1.1877
 6576SOL     OW20697   3.215   1.480   6.639  0.0395  0.2132 -0.6124
 6576SOL    HW120698   3.177   1.515   6.720  2.5004 -0.5231  0.9869
 6576SOL    HW220699   3.252   1.556   6.595  0.7649  0.3600  0.2062
 6577SOL     OW20700   4.028   4.271   0.503 -0.4803  0.3613  0.3611
 6577SOL    HW120701   4.038   4.262   0.598  2.7138  1.5224  0.2553
 6577SOL    HW220702   4.069   4.355   0.482  1.7875 -1.2395 -2.3451
 6578SOL     OW20703   3.700   0.269   0.001  0.0247 -0.0836  0.3902
 6578SOL    HW120704   3.772   0.209  -0.019  0.0416 -0.0063  0.2137
 6578SOL    HW220705   3.625   0.213   0.019  0.3966 -0.2107  1.6990
 6579SOL     OW20706   0.844   1.973   5.749  0.0487 -0.1972  0.1299
 6579SOL    HW120707   0.870   2.025   5.673 -3.0341  0.7625 -0.4045
 6579SOL    HW220708   0.866   1.883   5.724 -0.5121  0.1438 -1.7370
 6580SOL     OW20709   2.972   4.334   4.060 -0.0500 -0.2684  0.4022
 6580SOL    HW120710   2.987   4.394   3.988  1.2017 -0.1824  0.7082
 6580SOL    HW220711   2.886   4.295   4.042 -0.5085  0.9767 -0.2324
 6581SOL     OW20712   1.418   6.415   1.047 -0.0462 -0.0057 -0.0221
 6581SOL    HW120713   1.492   6.360   1.023  1.5831  1.4908  1.3215
 6581SOL    HW220714   1.430   6.432   1.141 -2.7080 -0.5716  0.5138
 6582SOL     OW20715   1.316   5.224   4.760 -0.1045 -0.2467 -0.1868
 6582SOL    HW120716   1.390   5.284   4.771 -1.6799  1.9231 -0.5652
 6582SOL    HW220717   1.349   5.154   4.705  1.6930  0.5870 -0.2535
 6583SOL     OW20718   3.146   1.439   2.465 -0.4847 -0.1474  0.2970
 6583SOL    HW120719   3.096   1.418   2.544  0.3245  0.3115  0.9487
 6583SOL    HW220720   3.198   1.360   2.448 -2.3763 -1.1510 -1.1738
 6584SOL     OW20721   3.700   2.803   4.215  0.6350 -0.0751 -0.4034
 6584SOL    HW120722   3.790   2.785   4.189  0.7295 -0.4928  0.2087
 6584SOL    HW220723   3.682   2.740   4.284  0.4970  1.2432  0.7957
 6585SOL     OW20724   5.760   4.955   6.378  0.1437  0.3633  0.3346
 6585SOL    HW120725   5.772   4.930   6.469 -0.4907 -1.0148  0.0605
 6585SOL    HW220726   5.717   4.880   6.338  2.9896 -0.2868 -1.8020
 6586SOL     OW20727   3.668   1.662   5.404 -0.5231  0.2726 -0.0233
 6586SOL    HW120728   3.615   1.599   5.354 -0.8517 -1.2326  2.0906
 6586SOL    HW220729   3.616   1.743   5.402 -1.4472 -0.3077 -0.4928
 6587SOL     OW20730   4.379   0.799   7.167 -0.2126  0.0133  0.5000
 6587SOL    HW120731   4.428   0.716   7.167 -0.4627 -0.1349  0.0919
 6587SOL    HW220732   4.429   0.856   7.110 -0.4632 -0.1091  0.1549
 6588SOL     OW20733   7.125   6.548   0.913  0.0764  0.9980  0.4609
 6588SOL    HW120734   7.151   6.539   1.005  0.3513  0.0839  0.2979
 6588SOL    HW220735   7.053   6.486   0.902  1.2734 -0.2984 -0.4004
 6589SOL     OW20736   4.265   2.763   4.344  0.6272  0.2420 -0.1778
 6589SOL    HW120737   4.180   2.758   4.301  0.2190 -0.8749  0.6828
 6589SOL    HW220738   4.294   2.672   4.349  1.7349  0.5812 -0.1743
 6590SOL     OW20739   1.739   2.610   5.546  0.4721 -0.4638  0.0703
 6590SOL    HW120740   1.808   2.675   5.534 -0.0770  0.0117 -0.5863
 6590SOL    HW220741   1.676   2.628   5.476  0.3226 -1.7203 -0.1337
 6591SOL     OW20742   7.060   1.284   1.529  0.5237 -0.2584  0.1528
 6591SOL    HW120743   7.025   1.200   1.502  0.7444 -0.1668 -0.4297
 6591SOL    HW220744   7.036   1.344   1.459 -2.2499  0.8561  1.8798
 6592SOL     OW20745   6.710   2.875   0.549 -0.3268 -0.2879  0.2511
 6592SOL    HW120746   6.630   2.851   0.502 -0.7235  1.2063  0.1249
 6592SOL    HW220747   6.678   2.920   0.627  0.3820  1.5090 -0.4533
 6593SOL     OW20748   3.574   1.073   5.407 -0.0833 -0.3919  0.4804
 6593SOL    HW120749   3.496   1.098   5.359  1.5122  1.7851 -1.1878
 6593SOL    HW220750   3.557   0.984   5.437 -3.0686 -0.0645  0.0072
 6594SOL     OW20751   4.576   5.875   7.316  0.4087  0.3873 -0.3499
 6594SOL    HW120752   4.535   5.801   7.270 -0.9299 -0.9906  2.7471
 6594SOL    HW220753   4.548   5.952   7.267 -0.6240 -0.9523 -2.0004
 6595SOL     OW20754   0.982   2.918   2.742 -0.0370 -0.0096 -0.3397
 6595SOL    HW120755   0.945   2.914   2.655 -0.6429 -0.9063 -0.0522
 6595SOL    HW220756   0.908   2.905   2.801 -0.1841  3.5165  0.4658
 6596SOL     OW20757   1.396   1.843   1.065  0.1464  0.1692  0.9144
 6596SOL    HW120758   1.470   1.896   1.094 -0.1253  0.9420  0.2435
 6596SOL    HW220759   1.324   1.868   1.123  0.6888 -1.4864  2.3802
 6597SOL     OW20760   1.052   7.189   4.031 -0.9926  0.3399  0.3933
 6597SOL    HW120761   1.006   7.120   4.080 -1.2736  0.5767  0.4707
 6597SOL    HW220762   0.985   7.224   3.972 -0.0362 -1.6913 -2.1079
 6598SOL     OW20763   5.897   0.864   3.650  0.2528  0.8138  0.0138
 6598SOL    HW120764   5.988   0.867   3.680  0.1370  1.0916  0.3476
 6598SOL    HW220765   5.848   0.826   3.723 -0.2114  2.5788  0.6739
 6599SOL     OW20766   2.323   6.084   0.098 -0.0855  0.0922 -0.3888
 6599SOL    HW120767   2.343   6.000   0.140 -1.2658  0.5996  1.3270
 6599SOL    HW220768   2.258   6.125   0.156 -0.3665  1.7169 -1.7549
 6600SOL     OW20769   0.797   0.106   7.050 -0.2869  0.4908 -0.0917
 6600SOL    HW120770   0.890   0.111   7.028  0.0648 -1.0436  0.9332
 6600SOL    HW220771   0.794   0.059   7.133 -1.9033  1.7724  0.6251
 6601SOL     OW20772   0.781   4.587   4.784 -0.0161 -0.1914 -0.1227
 6601SOL    HW120773   0.845   4.577   4.855  0.5783 -0.8272 -0.7397
 6601SOL    HW220774   0.711   4.640   4.823 -0.1579 -1.3175  1.2426
 6602SOL     OW20775   5.273   1.493   1.650 -0.5465  0.2068 -0.0574
 6602SOL    HW120776   5.222   1.431   1.597  1.8481 -1.0451 -1.0538
 6602SOL    HW220777   5.294   1.444   1.729  1.8747 -0.6326 -1.1073
 6603SOL     OW20778   0.757   3.838   5.986 -0.3618  0.2924 -0.6901
 6603SOL    HW120779   0.832   3.825   5.928  0.4453  1.1728  0.1152
 6603SOL    HW220780   0.795   3.846   6.074 -1.0335  3.9086 -0.5791
 6604SOL     OW20781   6.626   0.259   2.315 -0.3462  0.5149  0.1784
 6604SOL    HW120782   6.575   0.299   2.244  0.5743  1.0625 -0.1974
 6604SOL    HW220783   6.584   0.292   2.395 -2.2077 -1.1398 -0.0441
 6605SOL     OW20784   5.089   4.739   1.204 -0.4991 -0.1831 -0.5636
 6605SOL    HW120785   5.122   4.649   1.192 -2.1729 -0.6871 -1.7396
 6605SOL    HW220786   5.148   4.793   1.151  0.2846 -0.6274 -0.1678
 6606SOL     OW20787   4.303   2.608   7.206 -0.0586 -0.1306 -0.3278
 6606SOL    HW120788   4.223   2.659   7.223 -0.4243 -1.2465  1.5209
 6606SOL    HW220789   4.374   2.670   7.223 -0.5114  0.3347 -0.0883
 6607SOL     OW20790   3.686   1.555   3.045 -0.1481 -0.8629  0.3599
 6607SOL    HW120791   3.694   1.599   3.130 -2.2126  1.2394 -0.4496
 6607SOL    HW220792   3.631   1.478   3.063 -0.8836 -0.2255  0.8718
 6608SOL     OW20793   5.618   6.312   4.189 -0.3528  0.6359 -0.5928
 6608SOL    HW120794   5.559   6.383   4.216 -0.4168  1.2928 -2.3688
 6608SOL    HW220795   5.566   6.258   4.130 -0.7727 -1.7917  1.7809
 6609SOL     OW20796   0.136   2.311   1.489 -0.0890 -0.0821  0.0923
 6609SOL    HW120797   0.060   2.270   1.447  0.4615 -0.1516 -0.8659
 6609SOL    HW220798   0.099   2.363   1.561 -1.1289  0.6256 -0.9249
 6610SOL     OW20799   6.610   6.338   5.724  0.0266 -0.1951  0.2289
 6610SOL    HW120800   6.642   6.362   5.810  0.9981 -1.5337  0.2724
 6610SOL    HW220801   6.684   6.354   5.665 -0.4851  0.2935 -0.2974
 6611SOL     OW20802   0.284   2.899   4.720 -0.4482  0.1071 -0.5683
 6611SOL    HW120803   0.226   2.917   4.794  0.4020 -2.2595  0.7618
 6611SOL    HW220804   0.229   2.852   4.657 -0.7240  0.6037 -0.7093
 6612SOL     OW20805   5.325   3.511   3.505  0.0751  0.3111  0.5037
 6612SOL    HW120806   5.324   3.549   3.593  0.2642 -1.2521  1.2262
 6612SOL    HW220807   5.236   3.481   3.490 -0.2161  1.5325 -0.3029
 6613SOL     OW20808   1.101   0.310   2.565 -0.3528 -0.4457  0.8620
 6613SOL    HW120809   1.083   0.309   2.471 -0.2741 -0.0889  0.8430
 6613SOL    HW220810   1.164   0.381   2.577 -0.6782 -0.2220  1.2456
 6614SOL     OW20811   4.601   5.214   3.138  0.6444 -0.0141  0.0052
 6614SOL    HW120812   4.614   5.248   3.049 -0.6761 -0.8321 -0.5254
 6614SOL    HW220813   4.513   5.242   3.162  0.5358 -0.8104  0.5818
 6615SOL     OW20814   5.493   3.661   6.917 -0.6835 -0.0677 -0.0407
 6615SOL    HW120815   5.476   3.752   6.943  0.5344  0.3612 -0.6711
 6615SOL    HW220816   5.576   3.640   6.959 -0.1547 -0.3422 -1.2005
 6616SOL     OW20817   1.826   5.343   5.237  0.1508 -0.0327 -0.3736
 6616SOL    HW120818   1.789   5.424   5.274  0.9645  0.3622 -0.3817
 6616SOL    HW220819   1.847   5.290   5.314 -0.1267 -0.1127 -0.3545
 6617SOL     OW20820   2.892   6.024   0.821  0.2906  0.6230  0.2773
 6617SOL    HW120821   2.829   6.022   0.894  1.7210  1.7189  1.5966
 6617SOL    HW220822   2.943   5.944   0.832  0.0442  0.4303  0.0367
 6618SOL     OW20823   0.248   4.446   5.359  0.0716 -0.5093 -0.5619
 6618SOL    HW120824   0.206   4.384   5.299  1.8607 -1.0915 -1.2524
 6618SOL    HW220825   0.295   4.391   5.422 -1.0290  0.1160  0.8821
 6619SOL     OW20826   0.230   6.171   0.262  0.1376 -0.2304  0.0966
 6619SOL    HW120827   0.248   6.144   0.352 -0.4679  0.5540  0.4658
 6619SOL    HW220828   0.316   6.194   0.226  0.0995  2.9392  1.6540
 6620SOL     OW20829   5.330   0.343   1.408 -0.3959  0.5914  0.1525
 6620SOL    HW120830   5.279   0.392   1.472  0.7707  0.3379  1.3062
 6620SOL    HW220831   5.317   0.251   1.432 -0.7443  0.4337 -0.5980
 6621SOL     OW20832   3.796   6.079   3.831 -0.4489  0.0389 -0.4675
 6621SOL    HW120833   3.812   6.172   3.815 -0.7597  0.0469 -0.7491
 6621SOL    HW220834   3.701   6.072   3.842 -0.2531  0.0401  1.5145
 6622SOL     OW20835   3.790   5.813   3.347  0.1071  0.2156  0.3827
 6622SOL    HW120836   3.821   5.804   3.257 -0.2472 -0.4901  0.3237
 6622SOL    HW220837   3.851   5.761   3.399 -2.4804 -3.7173 -0.0703
 6623SOL     OW20838   6.651   0.879   0.381 -0.1032  0.1745  0.2918
 6623SOL    HW120839   6.588   0.894   0.311 -1.1607 -1.3270  0.8755
 6623SOL    HW220840   6.731   0.853   0.337 -0.5920 -0.2112 -0.3797
 6624SOL     OW20841   6.002   0.157   1.521 -0.0112 -0.0562  0.9125
 6624SOL    HW120842   6.080   0.137   1.572  0.6352  0.9386  0.3569
 6624SOL    HW220843   5.963   0.232   1.566  0.0152  0.2006  0.5133
 6625SOL     OW20844   5.513   2.743   4.440 -0.3384 -0.0444  0.3425
 6625SOL    HW120845   5.461   2.796   4.379 -1.3492 -2.2317 -0.8321
 6625SOL    HW220846   5.464   2.661   4.448  0.9443 -0.6870  2.3679
 6626SOL     OW20847   1.343   5.949   1.553  0.7936 -0.3170  0.0822
 6626SOL    HW120848   1.381   5.876   1.600 -0.4596 -0.1853  1.3648
 6626SOL    HW220849   1.411   5.976   1.491  1.2550 -2.5673 -0.4593
 6627SOL     OW20850   0.822   5.450   6.798  0.0708  0.8756 -0.6492
 6627SOL    HW120851   0.760   5.521   6.781 -1.7128 -0.6988 -1.1216
 6627SOL    HW220852   0.789   5.376   6.746  1.3147 -0.5637  0.5010
 6628SOL     OW20853   4.038   2.981   2.285 -0.1951 -0.7189  0.7895
 6628SOL    HW120854   4.064   3.072   2.299  0.5994 -0.9455  0.8699
 6628SOL    HW220855   4.068   2.962   2.196  1.5819 -1.5177  1.5041
 6629SOL     OW20856   4.551   1.365   2.890 -0.4173  0.1086 -0.3063
 6629SOL    HW120857   4.514   1.416   2.961 -0.4543 -0.0408 -0.2177
 6629SOL    HW220858   4.574   1.429   2.823 -0.4479  0.2413 -0.1887
 6630SOL     OW20859   6.056   6.417   3.857 -0.3876  0.6097 -0.9611
 6630SOL    HW120860   6.028   6.507   3.876 -0.6085  0.2676  0.4414
 6630SOL    HW220861   5.980   6.363   3.879  0.2704 -0.0465 -0.2319
 6631SOL     OW20862   5.062   7.319   0.841  0.3442  0.3618 -0.5997
 6631SOL    HW120863   4.976   7.283   0.863  0.9896 -1.1013 -0.3304
 6631SOL    HW220864   5.067   7.309   0.746  0.5859 -0.4923 -0.5121
 6632SOL     OW20865   4.508   4.089   2.720  0.0081  0.0216 -0.1462
 6632SOL    HW120866   4.515   4.035   2.799 -0.6262 -0.7228 -0.5832
 6632SOL    HW220867   4.553   4.171   2.743  0.6457 -0.5339  0.6633
 6633SOL     OW20868   0.889   6.029   3.408 -0.6008 -0.1552 -0.3706
 6633SOL    HW120869   0.881   5.943   3.450 -0.1496  0.4057  0.9335
 6633SOL    HW220870   0.839   6.088   3.464 -0.9524  0.4307 -1.2811
 6634SOL     OW20871   6.735   5.014   2.356  0.1843 -0.2632  0.3323
 6634SOL    HW120872   6.732   5.067   2.436  0.5319  0.3913 -0.0854
 6634SOL    HW220873   6.809   5.049   2.306  1.2147 -1.9464  0.6020
 6635SOL     OW20874   1.220   1.263   0.241 -0.2182 -0.2017 -0.2432
 6635SOL    HW120875   1.274   1.214   0.303 -0.6862 -0.5111 -0.0728
 6635SOL    HW220876   1.211   1.349   0.281 -1.3649 -0.7054  0.6381
 6636SOL     OW20877   1.992   6.768   3.518  0.7108 -0.3187  0.0581
 6636SOL    HW120878   1.899   6.783   3.504  0.9185  0.7612 -0.1886
 6636SOL    HW220879   2.036   6.825   3.456  1.5701  0.8489  1.6675
 6637SOL     OW20880   6.354   7.373   5.319  0.4065 -0.7709  0.4148
 6637SOL    HW120881   6.423   7.339   5.263  0.6466  0.0830  0.1678
 6637SOL    HW220882   6.393   7.375   5.406  0.3799 -1.1463  0.4364
 6638SOL     OW20883   3.331   4.344   0.355  0.5704 -0.1268 -0.2224
 6638SOL    HW120884   3.365   4.254   0.349  0.9253 -0.0140  0.0503
 6638SOL    HW220885   3.290   4.349   0.441  0.1325 -0.1663 -0.4259
 6639SOL     OW20886   0.991   5.364   4.524 -0.2410  0.3382 -0.1770
 6639SOL    HW120887   0.956   5.440   4.571 -1.4495  0.1402 -0.7124
 6639SOL    HW220888   1.076   5.393   4.491 -0.3701  1.2189  0.2275
 6640SOL     OW20889   0.330   4.320   0.569  0.2051 -0.1750  0.0794
 6640SOL    HW120890   0.298   4.397   0.524  2.5173  0.8872  0.1011
 6640SOL    HW220891   0.318   4.248   0.507 -2.5434  0.0149  0.2930
 6641SOL     OW20892   0.968   5.583   0.882  0.5081  0.0900  0.2785
 6641SOL    HW120893   0.977   5.568   0.976 -1.0424  2.2043  0.8630
 6641SOL    HW220894   1.049   5.626   0.857  0.2833  1.0013  1.0478
 6642SOL     OW20895   0.095   5.842   1.940 -0.2527 -0.0586  0.3698
 6642SOL    HW120896   0.057   5.861   2.025  0.0128 -0.3114  0.5478
 6642SOL    HW220897   0.054   5.761   1.912  1.0348 -1.0151  1.1274
 6643SOL     OW20898   4.849   2.179   6.031 -0.4445  0.2148 -0.2564
 6643SOL    HW120899   4.852   2.274   6.017 -0.2965  0.2815  0.2145
 6643SOL    HW220900   4.867   2.168   6.124 -3.6764 -0.0368  0.4569
 6644SOL     OW20901   0.722   4.655   7.372 -0.2927 -0.0157  0.4174
 6644SOL    HW120902   0.644   4.708   7.384 -0.0944  0.4812 -0.4312
 6644SOL    HW220903   0.690   4.572   7.336 -0.4291  0.1780  0.0933
 6645SOL     OW20904   2.750   4.906   7.172  0.0557  0.2810  0.5346
 6645SOL    HW120905   2.789   4.852   7.241 -1.0537  0.0426  0.9950
 6645SOL    HW220906   2.656   4.885   7.175 -0.2340  1.4206 -0.0164
 6646SOL     OW20907   3.631   5.490   0.648  0.6252 -1.0376  0.2733
 6646SOL    HW120908   3.576   5.568   0.660  1.9343  0.0457 -0.5131
 6646SOL    HW220909   3.633   5.477   0.554 -1.1202 -3.2235  0.4625
 6647SOL     OW20910   0.013   0.297   2.980 -0.3041 -0.6008  0.0244
 6647SOL    HW120911   0.008   0.211   3.022 -0.8434 -1.0242 -0.8706
 6647SOL    HW220912   0.092   0.294   2.927  0.2137 -0.1762  0.7596
 6648SOL     OW20913   3.653   2.717   1.238  0.4493  0.3267  0.3165
 6648SOL    HW120914   3.634   2.746   1.149  3.1362 -0.0267 -0.4578
 6648SOL    HW220915   3.584   2.654   1.258 -2.3617  3.0167 -0.0105
 6649SOL     OW20916   5.319   1.718   6.411  0.3141  0.2393 -0.0959
 6649SOL    HW120917   5.319   1.669   6.329 -0.4163  0.1993 -0.0793
 6649SOL    HW220918   5.375   1.667   6.469  3.2377  1.7415 -1.3937
 6650SOL     OW20919   4.245   4.485   0.339  0.3644 -0.1196  0.0186
 6650SOL    HW120920   4.171   4.539   0.365 -2.2830 -2.8209 -1.2852
 6650SOL    HW220921   4.275   4.445   0.421  0.5160  1.0667  0.5676
 6651SOL     OW20922   6.782   0.656   0.230  0.4664  0.2085  0.0368
 6651SOL    HW120923   6.737   0.594   0.288 -1.2849  0.2203 -1.2243
 6651SOL    HW220924   6.749   0.634   0.143  2.1073  0.9846 -0.8098
 6652SOL     OW20925   6.384   3.397   4.216 -0.1177  0.3691 -0.7238
 6652SOL    HW120926   6.359   3.426   4.128 -0.3310  0.5564 -0.6051
 6652SOL    HW220927   6.311   3.424   4.271 -1.8050 -3.0599 -1.0318
 6653SOL     OW20928   2.277   1.949   4.203 -0.2812 -0.0148  0.4078
 6653SOL    HW120929   2.265   1.866   4.249 -2.2295 -0.3242 -0.5337
 6653SOL    HW220930   2.291   2.013   4.272  0.9637 -1.0666  1.1752
 6654SOL     OW20931   0.602   2.262   3.513  0.1281  0.3554  0.4806
 6654SOL    HW120932   0.644   2.348   3.509  3.1363 -1.0352 -1.2779
 6654SOL    HW220933   0.551   2.264   3.594 -2.0640  4.6000 -0.6866
 6655SOL     OW20934   0.482   7.093   5.016 -0.3184  0.2487 -0.0642
 6655SOL    HW120935   0.565   7.055   4.987 -0.3800 -0.3253  0.4791
 6655SOL    HW220936   0.428   7.017   5.038 -0.4955  0.6453  0.9073
 6656SOL     OW20937   7.246   6.827   5.425  0.2110 -0.1106  0.3441
 6656SOL    HW120938   7.336   6.795   5.436 -0.2600 -1.0604  1.7970
 6656SOL    HW220939   7.192   6.750   5.442 -0.8938  0.4222 -0.6505
 6657SOL     OW20940   6.927   0.370   6.290 -0.5045 -0.0750 -0.3502
 6657SOL    HW120941   6.874   0.436   6.244  1.5667  1.3309 -0.8869
 6657SOL    HW220942   6.981   0.331   6.221 -1.3833 -2.1002  0.0425
 6658SOL     OW20943   6.850   6.792   5.828 -0.0112 -0.0680 -0.1900
 6658SOL    HW120944   6.880   6.750   5.908 -0.0431  1.2250  0.5316
 6658SOL    HW220945   6.767   6.832   5.852 -0.6059 -0.6605 -1.2079
 6659SOL     OW20946   4.909   0.262   3.511 -0.6286  0.4678  0.1238
 6659SOL    HW120947   4.929   0.285   3.601 -2.3499  0.0982  0.6486
 6659SOL    HW220948   4.881   0.344   3.470  0.5271  0.7147 -0.2224
 6660SOL     OW20949   5.111   1.986   0.193  0.2081 -0.0008 -0.0739
 6660SOL    HW120950   5.043   1.920   0.184  0.4532 -0.2744  0.0491
 6660SOL    HW220951   5.064   2.069   0.202 -0.0953 -0.0382 -1.1199
 6661SOL     OW20952   6.836   5.826   1.451 -0.0588 -0.3322  0.6011
 6661SOL    HW120953   6.829   5.762   1.381  0.9323  1.5744 -1.3460
 6661SOL    HW220954   6.746   5.840   1.480 -0.4910 -1.1177 -0.3079
 6662SOL     OW20955   1.064   3.076   6.150 -0.3861 -0.1610 -0.5411
 6662SOL    HW120956   1.064   3.021   6.228  0.1083 -2.0907 -1.8490
 6662SOL    HW220957   0.989   3.135   6.162 -1.5118 -1.7441  0.5022
 6663SOL     OW20958   0.518   3.873   6.523 -0.6537  0.0554  0.8885
 6663SOL    HW120959   0.610   3.858   6.541  0.1296  4.0382  1.0972
 6663SOL    HW220960   0.514   3.887   6.429 -1.2607 -1.0090  0.7381
 6664SOL     OW20961   3.188   6.185   2.524  0.1949  0.4003 -0.1085
 6664SOL    HW120962   3.258   6.121   2.516  0.3942  0.3242  1.8107
 6664SOL    HW220963   3.164   6.184   2.617 -1.6715  1.1376 -0.5202
 6665SOL     OW20964   0.524   3.676   5.641 -0.3167 -0.2655 -0.0472
 6665SOL    HW120965   0.547   3.744   5.577 -3.1542  0.5911 -0.3099
 6665SOL    HW220966   0.589   3.607   5.628 -0.8190 -0.2017 -4.0322
 6666SOL     OW20967   6.740   0.003   0.050 -0.1094  0.4895  0.2118
 6666SOL    HW120968   6.832   0.018   0.075 -0.7175  0.4314  2.7638
 6666SOL    HW220969   6.691   0.069   0.099 -1.4436  0.7036 -1.3426
 6667SOL     OW20970   2.361   4.212   3.214  0.3120 -0.3485  0.4058
 6667SOL    HW120971   2.395   4.128   3.246  3.4884  0.4343 -0.5450
 6667SOL    HW220972   2.361   4.203   3.119 -0.6629  0.2971  0.3275
 6668SOL     OW20973   1.176   1.585   6.992 -0.4557  0.2059 -0.1069
 6668SOL    HW120974   1.260   1.612   6.954 -0.8447  0.0289 -1.1203
 6668SOL    HW220975   1.195   1.500   7.032 -0.1904  0.0818 -0.4869
 6669SOL     OW20976   6.944   5.506   1.495  0.4569  0.5764  0.1887
 6669SOL    HW120977   6.996   5.567   1.548 -0.6736  1.4552  0.3205
 6669SOL    HW220978   6.932   5.552   1.411  1.4008 -0.3900 -0.5151
 6670SOL     OW20979   4.954   0.206   6.887  0.0801 -0.3130 -0.4197
 6670SOL    HW120980   4.999   0.122   6.878  1.0917 -0.1408  2.0062
 6670SOL    HW220981   4.865   0.190   6.857  0.5917 -1.9003 -1.1831
 6671SOL     OW20982   1.102   2.740   4.230 -0.1979 -0.4917  0.0186
 6671SOL    HW120983   1.035   2.801   4.260 -0.6640 -0.4060 -1.1319
 6671SOL    HW220984   1.090   2.737   4.135  1.4366 -0.4633 -0.2185
 6672SOL     OW20985   6.335   6.029   5.768 -0.1307 -0.0217  0.2970
 6672SOL    HW120986   6.304   6.078   5.844  2.2943  0.9238  0.7659
 6672SOL    HW220987   6.424   6.002   5.792  0.0233 -1.2569 -1.5137
 6673SOL     OW20988   6.919   1.451   1.347 -0.2018  0.5630  0.7963
 6673SOL    HW120989   6.887   1.491   1.266  0.3218 -0.1306  0.2331
 6673SOL    HW220990   6.868   1.493   1.416  1.7538  3.8412  0.4717
 6674SOL     OW20991   7.014   2.773   1.509 -0.0339 -0.3667  0.5392
 6674SOL    HW120992   6.965   2.803   1.432  0.4617  0.4946  0.5461
 6674SOL    HW220993   6.955   2.788   1.582  0.8687  2.5358  0.8061
 6675SOL     OW20994   1.053   3.444   5.103  0.2614 -0.8381 -0.4881
 6675SOL    HW120995   1.028   3.496   5.179  1.0447  0.4576 -1.0904
 6675SOL    HW220996   1.002   3.363   5.112 -2.6582  0.8511 -0.6578
 6676SOL     OW20997   3.189   4.650   6.544  0.0456  0.2793  0.2847
 6676SOL    HW120998   3.267   4.676   6.494 -1.4306  0.5562 -1.9915
 6676SOL    HW220999   3.130   4.613   6.479 -1.7258 -0.0028  1.9633
 6677SOL     OW21000   2.881   6.662   5.179 -0.6732 -0.4365  0.0111
 6677SOL    HW121001   2.836   6.652   5.095 -0.3892  0.1724 -0.2234
 6677SOL    HW221002   2.974   6.648   5.157 -0.6330 -0.6148  0.2906
 6678SOL     OW21003   4.850   0.364   3.767  0.0099 -0.3162  0.1701
 6678SOL    HW121004   4.873   0.457   3.756  0.9589 -0.1938  2.5313
 6678SOL    HW221005   4.786   0.364   3.837 -1.7414 -1.3322 -1.3412
 6679SOL     OW21006   0.318   2.218   2.677  0.5188  0.5288 -0.1833
 6679SOL    HW121007   0.303   2.294   2.621 -0.8532  0.1732 -0.3293
 6679SOL    HW221008   0.413   2.219   2.693  0.8103  1.2047 -1.6988
 6680SOL     OW21009   2.851   3.566   5.644 -0.2355  0.3032  0.3534
 6680SOL    HW121010   2.825   3.635   5.583  0.5835 -0.0185 -0.3892
 6680SOL    HW221011   2.780   3.501   5.639  0.2458 -0.1561 -0.9807
 6681SOL     OW21012   3.077   1.976   1.083 -0.0602  0.2378  0.6066
 6681SOL    HW121013   3.090   2.030   1.005  0.7532  0.5059  0.9128
 6681SOL    HW221014   3.015   1.908   1.056 -0.3546  0.7643 -0.0561
 6682SOL     OW21015   2.614   5.673   3.450 -0.9583  0.1723  0.2943
 6682SOL    HW121016   2.689   5.618   3.427 -1.2154 -0.3353  0.6369
 6682SOL    HW221017   2.612   5.672   3.546 -1.6165 -0.1298  0.2864
 6683SOL     OW21018   5.712   0.680   6.772  0.3409 -0.0050 -0.1633
 6683SOL    HW121019   5.702   0.771   6.744  0.2243  0.3621  1.0478
 6683SOL    HW221020   5.795   0.652   6.732  0.4409  0.6687 -0.4411
 6684SOL     OW21021   7.286   5.932   1.195  0.0374 -0.0390  0.0146
 6684SOL    HW121022   7.277   5.943   1.101 -0.1997 -1.5331 -0.1703
 6684SOL    HW221023   7.199   5.954   1.230  0.2087  0.7995 -0.0755
 6685SOL     OW21024   3.278   1.344   3.302 -0.2127  0.0253  0.3893
 6685SOL    HW121025   3.353   1.288   3.324 -2.1446 -1.9368  2.5211
 6685SOL    HW221026   3.289   1.422   3.358 -0.0419 -0.5262  1.1457
 6686SOL     OW21027   6.768   0.918   2.536  0.5134  0.4228  0.0838
 6686SOL    HW121028   6.679   0.885   2.530  0.3341  0.8829  0.1637
 6686SOL    HW221029   6.784   0.929   2.630 -0.1075  2.3196  0.0242
 6687SOL     OW21030   4.135   4.135   5.759 -0.4481 -0.6696  0.1289
 6687SOL    HW121031   4.172   4.150   5.672 -0.6340  1.9478  0.4046
 6687SOL    HW221032   4.137   4.040   5.770  0.4019 -1.0249 -2.3514
 6688SOL     OW21033   6.588   7.092   0.653  0.0442 -0.3890  0.0684
 6688SOL    HW121034   6.652   7.021   0.648  0.9412  0.4531 -0.6833
 6688SOL    HW221035   6.550   7.096   0.565  1.3594  1.2636 -0.4798
 6689SOL     OW21036   4.743   2.747   0.545 -0.2803  0.1393 -0.0113
 6689SOL    HW121037   4.684   2.808   0.501 -0.6141 -0.7652 -0.8537
 6689SOL    HW221038   4.825   2.797   0.556 -0.5673  0.7624 -0.6092
 6690SOL     OW21039   6.273   4.954   4.899 -0.5308 -0.7955  0.0795
 6690SOL    HW121040   6.226   4.870   4.894  1.1110 -1.6969 -1.0042
 6690SOL    HW221041   6.341   4.947   4.832 -0.0322  1.2197  0.3305
 6691SOL     OW21042   4.111   3.591   4.049  0.4943 -0.1946  0.1976
 6691SOL    HW121043   4.121   3.672   4.000  0.3936 -0.0266  0.4593
 6691SOL    HW221044   4.030   3.553   4.016 -0.0659  0.3786  0.9074
 6692SOL     OW21045   1.057   5.145   0.446 -0.0245 -0.2813  0.0636
 6692SOL    HW121046   1.006   5.226   0.447 -1.5046 -1.1773 -0.3290
 6692SOL    HW221047   1.025   5.097   0.369  2.1673 -0.4316 -0.8148
 6693SOL     OW21048   5.900   1.754   0.821  0.1283  0.0412 -0.6035
 6693SOL    HW121049   5.941   1.791   0.743 -0.3173  1.9043  0.0078
 6693SOL    HW221050   5.845   1.683   0.788  1.1836 -0.2624 -1.7832
 6694SOL     OW21051   0.061   3.576   2.904 -0.1335 -0.4181  0.1510
 6694SOL    HW121052   0.111   3.584   2.823 -0.3565 -0.4381  0.0111
 6694SOL    HW221053   0.123   3.536   2.966 -0.1435 -0.9667 -0.1808
 6695SOL     OW21054   2.423   6.687   7.128  0.6192 -0.0861 -0.7268
 6695SOL    HW121055   2.493   6.646   7.077  2.0958  2.0181 -0.4972
 6695SOL    HW221056   2.463   6.709   7.212 -0.6548  0.1170 -0.1365
 6696SOL     OW21057   0.078   2.157   3.371 -0.8453  0.1256 -0.4494
 6696SOL    HW121058   0.172   2.139   3.361 -1.4224 -1.6753 -4.5758
 6696SOL    HW221059   0.051   2.103   3.444  1.0634 -0.5062 -0.1428
 6697SOL     OW21060   4.559   6.612   4.446  0.0311 -0.4296  0.2116
 6697SOL    HW121061   4.584   6.695   4.404 -0.1367  0.3914  1.6753
 6697SOL    HW221062   4.521   6.560   4.375 -0.3009  0.9304 -0.6474
 6698SOL     OW21063   5.437   0.624   5.691  0.1619  0.1944 -0.2057
 6698SOL    HW121064   5.519   0.641   5.647  0.9260 -0.1025  1.0530
 6698SOL    HW221065   5.460   0.614   5.783 -1.4427  1.3741  0.3767
 6699SOL     OW21066   4.325   4.331   0.664  0.7530 -0.4181  0.4163
 6699SOL    HW121067   4.237   4.297   0.682 -0.1108  0.5006 -1.7166
 6699SOL    HW221068   4.322   4.421   0.696  0.5146 -0.0475 -0.5843
 6700SOL     OW21069   6.633   0.012   4.867 -0.5916  0.6589 -0.1877
 6700SOL    HW121070   6.650   0.083   4.929 -4.2177 -0.2383  2.1879
 6700SOL    HW221071   6.677  -0.064   4.904 -1.6018  0.4412  0.6317
 6701SOL     OW21072   5.040   3.581   5.270 -0.0495 -0.8338  0.0062
 6701SOL    HW121073   5.020   3.634   5.347 -1.5335 -1.6456  0.2173
 6701SOL    HW221074   5.099   3.513   5.303  0.4958 -0.3183  0.0994
 6702SOL     OW21075   6.176   1.311   1.891  0.7907  0.0678 -0.4227
 6702SOL    HW121076   6.183   1.257   1.812  1.1464  0.5060 -0.7011
 6702SOL    HW221077   6.135   1.392   1.860  0.6689  0.1291 -0.0999
 6703SOL     OW21078   4.244   2.956   1.292  0.1737  0.0045  0.1509
 6703SOL    HW121079   4.327   2.947   1.340 -0.8134  1.9132  2.4262
 6703SOL    HW221080   4.264   3.020   1.223  1.2288 -1.6471 -1.1655
 6704SOL     OW21081   1.725   0.218   0.930 -0.4404  0.7953  0.0603
 6704SOL    HW121082   1.658   0.280   0.958 -0.2456  0.9106  0.2754
 6704SOL    HW221083   1.803   0.243   0.980 -0.1258  0.9166 -0.4833
 6705SOL     OW21084   5.990   3.355   2.962  0.2387 -0.4130  0.0050
 6705SOL    HW121085   5.934   3.420   2.919  1.2580 -0.0730 -0.8254
 6705SOL    HW221086   5.935   3.320   3.033 -0.7982  0.3680 -0.3875
 6706SOL     OW21087   5.477   6.819   0.705  0.3283 -0.3562 -0.4967
 6706SOL    HW121088   5.498   6.754   0.639 -1.5962 -1.1396 -0.3763
 6706SOL    HW221089   5.430   6.887   0.658 -0.8460 -0.8057  0.0008
 6707SOL     OW21090   1.070   3.641   3.165  0.1425  0.7105  0.0027
 6707SOL    HW121091   1.106   3.640   3.254 -1.6430 -1.5403  0.8188
 6707SOL    HW221092   1.143   3.614   3.109  0.6251 -0.5977  1.1852
 6708SOL     OW21093   6.284   7.321   6.238  0.5932  0.5750 -0.1378
 6708SOL    HW121094   6.344   7.254   6.272  2.4210  1.3742 -1.5914
 6708SOL    HW221095   6.301   7.398   6.292  1.7486  1.1267 -1.2254
 6709SOL     OW21096   6.652   0.113   4.141  0.3954  0.2421  0.0225
 6709SOL    HW121097   6.635   0.032   4.190  3.0155 -0.9668 -0.8799
 6709SOL    HW221098   6.595   0.107   4.065 -2.8172  1.5554  2.1014
 6710SOL     OW21099   6.126   2.006   1.371  0.3552  0.5499  0.7666
 6710SOL    HW121100   6.215   2.038   1.361  0.2142  0.6912 -0.1401
 6710SOL    HW221101   6.070   2.081   1.351  0.0260 -0.1594 -1.3043
 6711SOL     OW21102   1.437   1.407   2.594  0.2782  0.3428 -0.1387
 6711SOL    HW121103   1.525   1.377   2.617  1.0538 -0.0825 -3.2399
 6711SOL    HW221104   1.452   1.489   2.546 -1.2618  1.5497  1.2952
 6712SOL     OW21105   4.502   0.939   2.943 -0.1637 -0.4681  0.0687
 6712SOL    HW121106   4.515   0.943   2.848 -1.6011 -0.3729 -0.1398
 6712SOL    HW221107   4.469   1.026   2.966  0.5711 -0.3518  0.7395
 6713SOL     OW21108   0.710   3.576   1.937  1.1030  0.1050  0.5138
 6713SOL    HW121109   0.733   3.652   1.992  1.5705  1.2898 -1.2367
 6713SOL    HW221110   0.615   3.572   1.940  1.1298 -0.0366  1.6274
 6714SOL     OW21111   2.805   0.369   5.998  0.5065  0.1648  0.4064
 6714SOL    HW121112   2.724   0.403   5.962  0.0642  0.4348  1.5972
 6714SOL    HW221113   2.778   0.320   6.076  1.1045 -2.9251 -1.1771
 6715SOL     OW21114   5.444   4.262   0.664 -0.7669  0.3904 -0.0329
 6715SOL    HW121115   5.356   4.298   0.661 -1.3068 -0.8412 -3.1475
 6715SOL    HW221116   5.501   4.339   0.656 -1.7041  0.9874 -1.3468
 6716SOL     OW21117   5.822   5.241   4.447  0.3895 -0.3417  0.2747
 6716SOL    HW121118   5.878   5.298   4.394 -0.1629 -1.0875 -1.1872
 6716SOL    HW221119   5.800   5.168   4.389 -1.2621 -0.5887  1.1245
 6717SOL     OW21120   0.068   3.602   6.835  0.3603  0.5518  0.0536
 6717SOL    HW121121   0.147   3.560   6.866  0.6312  2.3710  2.0435
 6717SOL    HW221122   0.066   3.687   6.879 -2.1710  0.9949 -0.7004
 6718SOL     OW21123   4.439   4.045   6.492  0.5824 -0.0306  0.1867
 6718SOL    HW121124   4.472   3.955   6.499  1.0331 -0.1854 -2.8096
 6718SOL    HW221125   4.344   4.034   6.479  0.5318 -0.0214  0.5369
 6719SOL     OW21126   1.722   1.619   5.895  0.2141 -0.5693 -0.5608
 6719SOL    HW121127   1.713   1.691   5.958  0.8089  0.5257 -1.6722
 6719SOL    HW221128   1.798   1.644   5.842  0.1558 -1.8201 -1.2591
 6720SOL     OW21129   4.763   4.542   4.749  0.3570  0.4827  0.1819
 6720SOL    HW121130   4.785   4.454   4.780 -0.1894  0.3813  0.2827
 6720SOL    HW221131   4.675   4.534   4.712  0.5705  0.8409 -0.4175
 6721SOL     OW21132   7.099   6.457   5.081 -0.9982  0.0002 -0.0770
 6721SOL    HW121133   7.183   6.420   5.053 -1.0918  0.1487 -0.5640
 6721SOL    HW221134   7.062   6.392   5.140 -1.2138 -0.7391 -1.0080
 6722SOL     OW21135   4.559   7.020   3.340 -0.4117  0.3241  0.0619
 6722SOL    HW121136   4.633   6.971   3.375  1.1280  2.5234  0.1115
 6722SOL    HW221137   4.486   6.999   3.398  0.2815 -1.5088  0.3213
 6723SOL     OW21138   0.200   2.136   1.133 -0.0927  0.1127 -0.3879
 6723SOL    HW121139   0.111   2.139   1.167  0.0812  1.0758 -0.0076
 6723SOL    HW221140   0.195   2.075   1.059 -0.8649 -0.5360  0.1850
 6724SOL     OW21141   5.434   2.639   1.911 -0.5867 -0.4036  0.4185
 6724SOL    HW121142   5.348   2.672   1.937 -0.3405 -0.6439  1.6098
 6724SOL    HW221143   5.416   2.582   1.836 -1.7169 -1.7350  1.6333
 6725SOL     OW21144   3.378   4.839   2.351  0.3837  0.5974 -0.4330
 6725SOL    HW121145   3.391   4.912   2.291  0.2874 -0.1785 -1.4308
 6725SOL    HW221146   3.320   4.779   2.304  2.5019 -1.3464 -0.7767
 6726SOL     OW21147   2.222   4.024   6.418 -0.6849 -0.1790 -0.4500
 6726SOL    HW121148   2.305   3.981   6.436  0.7126  2.1939 -0.7251
 6726SOL    HW221149   2.220   4.034   6.323 -0.7965  0.6390 -0.3714
 6727SOL     OW21150   5.926   3.229   4.978 -0.4204 -0.0289 -0.1090
 6727SOL    HW121151   5.919   3.172   4.901  0.4932  1.0438 -1.0115
 6727SOL    HW221152   5.844   3.276   4.981 -0.2043  0.3964 -0.8165
 6728SOL     OW21153   5.336   4.665   2.175 -0.0272  0.2737 -1.0407
 6728SOL    HW121154   5.394   4.609   2.226 -1.4233  0.4259  0.8252
 6728SOL    HW221155   5.370   4.661   2.086  1.8185 -0.9452 -0.3296
 6729SOL     OW21156   5.202   4.589   6.843 -0.0714 -0.1898 -0.5936
 6729SOL    HW121157   5.131   4.617   6.900 -0.7830 -1.2310 -0.9531
 6729SOL    HW221158   5.239   4.512   6.887  0.2432 -0.1936 -0.8593
 6730SOL     OW21159   2.678   7.266   6.273  0.1990  0.2757 -0.2589
 6730SOL    HW121160   2.752   7.314   6.311 -0.9126  0.3824  1.9508
 6730SOL    HW221161   2.707   7.175   6.271  0.6228  0.4016 -0.0096
 6731SOL     OW21162   2.985   3.988   2.937  0.3147  0.4208 -0.3872
 6731SOL    HW121163   2.929   3.912   2.952  0.2757  0.5831  0.3358
 6731SOL    HW221164   3.073   3.958   2.959  0.0109  1.2206  2.3668
 6732SOL     OW21165   5.120   1.821   3.517 -0.2130 -0.8638  0.0797
 6732SOL    HW121166   5.169   1.743   3.490  1.6732  0.2948  0.0077
 6732SOL    HW221167   5.028   1.794   3.513  0.2847 -2.5308 -1.7148
 6733SOL     OW21168   0.454   4.131   6.912  0.4360  0.4842  0.3623
 6733SOL    HW121169   0.414   4.075   6.845  2.6587 -0.4368 -0.2903
 6733SOL    HW221170   0.492   4.204   6.862  0.4314  0.8148  0.8359
 6734SOL     OW21171   2.586   2.104   0.822 -0.4086  0.4126  0.3692
 6734SOL    HW121172   2.596   2.198   0.836  2.1279  0.2130  0.3274
 6734SOL    HW221173   2.591   2.065   0.909  0.0916  0.2182  0.2570
 6735SOL     OW21174   5.977   2.574   0.085  0.1907 -0.2683  0.5688
 6735SOL    HW121175   5.908   2.578   0.019  1.2247 -1.2506 -0.6386
 6735SOL    HW221176   5.943   2.513   0.151 -0.7431  0.5145  0.8297
 6736SOL     OW21177   1.092   4.891   2.189 -0.6765 -0.2225  0.4753
 6736SOL    HW121178   1.165   4.894   2.127 -1.3360  2.0819 -0.2757
 6736SOL    HW221179   1.016   4.919   2.138 -1.9530 -1.7264  1.4614
 6737SOL     OW21180   0.185   0.205   4.420 -0.0428  0.1862 -0.6482
 6737SOL    HW121181   0.102   0.189   4.466  1.0629  0.6592  1.6691
 6737SOL    HW221182   0.238   0.127   4.439  0.8322  0.8805 -0.1433
 6738SOL     OW21183   4.755   2.995   7.036 -0.5983  0.6785  0.1542
 6738SOL    HW121184   4.697   3.063   7.070 -1.1937 -0.0798  0.7104
 6738SOL    HW221185   4.765   3.015   6.943  0.1811  2.1805  0.5302
 6739SOL     OW21186   0.002   0.954   4.635  0.6432  0.2823  0.4189
 6739SOL    HW121187   0.024   0.864   4.611  1.3590  0.2472  1.1553
 6739SOL    HW221188   0.083   0.990   4.671  0.1003  0.8937  1.0720
 6740SOL     OW21189   5.252   0.311   3.481  0.1328 -0.4481 -0.2078
 6740SOL    HW121190   5.282   0.313   3.390  0.1137 -0.3968 -0.2130
 6740SOL    HW221191   5.222   0.400   3.498 -1.0500 -0.7614 -0.5535
 6741SOL     OW21192   6.015   0.491   0.121  0.6467  0.5168  0.5313
 6741SOL    HW121193   5.962   0.416   0.145  1.4618 -0.6015 -1.0026
 6741SOL    HW221194   5.952   0.555   0.087  0.0164  0.2716  1.2284
 6742SOL     OW21195   4.827   1.108   3.309 -0.0670  0.1807  0.1725
 6742SOL    HW121196   4.754   1.047   3.308 -0.8791  1.0536  1.5990
 6742SOL    HW221197   4.903   1.055   3.334  0.2365 -1.0900 -3.0216
 6743SOL     OW21198   4.075   5.132   1.239  0.2326  0.2085  0.1463
 6743SOL    HW121199   4.120   5.109   1.158 -1.2016  0.7437 -0.8318
 6743SOL    HW221200   4.095   5.225   1.251  0.1660  0.2126  0.2275
 6744SOL     OW21201   1.651   1.314   7.253  0.4554  0.5629  0.0277
 6744SOL    HW121202   1.615   1.401   7.235  0.5194  0.8659  1.2484
 6744SOL    HW221203   1.720   1.330   7.318  1.9053 -0.1606 -1.2619
 6745SOL     OW21204   5.220   0.866   1.037  0.6867  0.0242 -0.4433
 6745SOL    HW121205   5.270   0.946   1.020  0.3376  0.1659 -0.8269
 6745SOL    HW221206   5.149   0.868   0.972  0.7784 -0.6905 -0.5712
 6746SOL     OW21207   3.317   1.915   4.647  0.1582 -0.5334 -0.4053
 6746SOL    HW121208   3.408   1.889   4.657 -0.1936 -1.6350  0.0288
 6746SOL    HW221209   3.318   2.010   4.654  1.1978 -0.5817  0.1748
 6747SOL     OW21210   6.085   6.744   2.453 -1.0753 -0.2291  0.0353
 6747SOL    HW121211   6.118   6.803   2.385  0.0571  0.0591  0.8194
 6747SOL    HW221212   6.126   6.660   2.433 -0.5920 -0.0988  0.4635
 6748SOL     OW21213   2.145   6.520   4.326 -0.0468  0.0012 -0.2527
 6748SOL    HW121214   2.178   6.447   4.378  0.9124  0.3118 -0.4120
 6748SOL    HW221215   2.100   6.478   4.253 -0.0735 -0.4322  0.0054
 6749SOL     OW21216   4.208   3.911   0.594 -0.5338  0.0797  0.1664
 6749SOL    HW121217   4.170   3.824   0.608  1.6236 -0.7655  1.1224
 6749SOL    HW221218   4.251   3.905   0.509 -1.7333  0.7763 -0.5268
 6750SOL     OW21219   1.372   1.766   3.007  0.3121  0.3793  0.2353
 6750SOL    HW121220   1.399   1.773   2.916  2.1090  0.0882  0.7022
 6750SOL    HW221221   1.332   1.851   3.027 -0.3089  0.3647 -0.8565
 6751SOL     OW21222   1.866   1.020   7.070  0.0972  0.0698 -0.2390
 6751SOL    HW121223   1.938   1.032   7.132  0.7568 -0.1426 -0.9524
 6751SOL    HW221224   1.810   0.955   7.112  1.1188 -0.9124 -0.3452
 6752SOL     OW21225   0.366   3.988   5.425  0.2351 -0.7374  0.2698
 6752SOL    HW121226   0.312   3.909   5.427  0.8919 -1.2341  2.6682
 6752SOL    HW221227   0.405   3.989   5.338 -1.0532 -2.1685 -0.3636
 6753SOL     OW21228   3.205   4.183   5.589  0.1205  0.3000  0.4101
 6753SOL    HW121229   3.136   4.127   5.555  1.6533  0.3824 -3.3340
 6753SOL    HW221230   3.267   4.123   5.631  0.1568 -0.3980 -0.6228
 6754SOL     OW21231   4.744   6.570   2.119 -0.4654 -0.2762 -0.3449
 6754SOL    HW121232   4.772   6.479   2.108  0.5121 -0.0881  0.4096
 6754SOL    HW221233   4.816   6.622   2.082 -0.1715  0.2051  0.8574
 6755SOL     OW21234   4.925   5.072   3.284  0.1754 -0.1638 -0.0748
 6755SOL    HW121235   4.982   5.144   3.309 -1.1183  0.8939 -0.0882
 6755SOL    HW221236   4.897   5.094   3.195  0.1659 -0.9585 -0.2750
 6756SOL     OW21237   4.322   3.376   7.116  0.3092  0.2602  0.4392
 6756SOL    HW121238   4.407   3.413   7.141  0.5528  0.0232 -0.0163
 6756SOL    HW221239   4.334   3.351   7.024  0.4394 -1.7471  0.9626
 6757SOL     OW21240   0.433   6.922   5.351  1.1903 -0.7024  0.0109
 6757SOL    HW121241   0.521   6.943   5.382  1.1817  1.1877 -1.1396
 6757SOL    HW221242   0.377   6.989   5.390  0.6256 -0.4683 -1.1781
 6758SOL     OW21243   5.078   6.633   3.782 -0.0485 -0.3150  0.0975
 6758SOL    HW121244   5.141   6.702   3.761 -0.3330 -0.0561  0.0869
 6758SOL    HW221245   5.014   6.676   3.838 -1.4258  0.0201 -1.6240
 6759SOL     OW21246   1.534   7.129   3.908  0.0045  0.7502  0.5782
 6759SOL    HW121247   1.580   7.125   3.993  3.4391  2.4134 -1.0011
 6759SOL    HW221248   1.540   7.221   3.882  0.6109  0.0131 -2.1865
 6760SOL     OW21249   2.771   2.012   0.116  0.1722  0.4751 -0.3195
 6760SOL    HW121250   2.842   1.952   0.093 -1.5603 -1.5594 -0.7078
 6760SOL    HW221251   2.696   1.955   0.132 -1.4990  2.5540 -0.3113
 6761SOL     OW21252   6.423   6.392   1.002 -0.4314  0.1780 -0.2276
 6761SOL    HW121253   6.447   6.412   1.093  0.4805  2.5696 -0.8930
 6761SOL    HW221254   6.494   6.431   0.950 -2.5970  1.9668 -2.0677
 6762SOL     OW21255   6.631   3.244   0.145 -0.3332 -0.6440 -0.6467
 6762SOL    HW121256   6.536   3.247   0.155 -0.3560  1.9200 -0.9744
 6762SOL    HW221257   6.665   3.272   0.230  0.1723 -2.0486 -0.3664
 6763SOL     OW21258   2.539   6.060   3.556 -0.2606  0.3516 -0.1850
 6763SOL    HW121259   2.519   6.144   3.515 -1.4939  0.6981  1.0515
 6763SOL    HW221260   2.526   6.076   3.649 -1.2622 -1.4248  0.0084
 6764SOL     OW21261   2.985   5.635   3.212  0.1362  0.5383  0.5421
 6764SOL    HW121262   2.935   5.576   3.155  0.6532  0.3021  0.3301
 6764SOL    HW221263   3.056   5.581   3.246  0.8781  1.1400  0.0063
 6765SOL     OW21264   5.255   5.168   0.936  0.6987  0.9081  0.3097
 6765SOL    HW121265   5.165   5.188   0.907  1.0051  3.2819  0.8175
 6765SOL    HW221266   5.302   5.150   0.855 -0.6038 -2.6686  0.1205
 6766SOL     OW21267   0.039   2.016   6.402 -0.0669  0.1591 -0.5177
 6766SOL    HW121268   0.134   2.014   6.391 -0.0765 -2.7112 -0.9578
 6766SOL    HW221269   0.024   2.069   6.480  1.8514  0.9482 -0.6389
 6767SOL     OW21270   4.806   4.684   4.532  0.4804  0.3395 -0.0827
 6767SOL    HW121271   4.798   4.660   4.624  0.6803 -0.4580 -0.2688
 6767SOL    HW221272   4.764   4.770   4.526 -1.6060 -0.5975  0.2977
 6768SOL     OW21273   2.882   6.777   3.640  0.4451  0.1335  0.6995
 6768SOL    HW121274   2.874   6.732   3.556  1.2278 -2.1321  1.7626
 6768SOL    HW221275   2.797   6.763   3.683  0.3684  0.4901  0.6668
 6769SOL     OW21276   3.713   4.382   4.951  0.1471 -0.5907 -0.5521
 6769SOL    HW121277   3.768   4.450   4.989 -1.8092 -0.2029  1.9027
 6769SOL    HW221278   3.749   4.300   4.984  0.3294 -0.4780 -0.4740
 6770SOL     OW21279   2.254   1.757   0.917  0.4793 -0.1838  0.1809
 6770SOL    HW121280   2.191   1.688   0.940  0.9382 -0.3319  1.0462
 6770SOL    HW221281   2.340   1.718   0.936  0.9675 -0.5348 -2.3783
 6771SOL     OW21282   6.102   5.848   3.859 -0.1357 -0.0840  0.1795
 6771SOL    HW121283   6.122   5.931   3.816 -2.2810 -0.4283 -1.6637
 6771SOL    HW221284   6.187   5.807   3.873  0.8157  1.1798 -1.4847
 6772SOL     OW21285   7.064   2.494   3.912 -0.4318  0.4628  0.4450
 6772SOL    HW121286   6.996   2.548   3.953  0.2128  1.0625  0.7258
 6772SOL    HW221287   7.131   2.483   3.979 -0.7855 -1.1615  0.5969
 6773SOL     OW21288   5.359   1.712   5.455  0.0591 -0.3237 -0.0895
 6773SOL    HW121289   5.279   1.692   5.406  0.0049  0.1048 -0.1845
 6773SOL    HW221290   5.347   1.669   5.539 -0.6654  0.4615  0.2271
 6774SOL     OW21291   0.496   5.070   7.278  0.2854 -0.4656 -0.0987
 6774SOL    HW121292   0.581   5.105   7.252  0.0812  0.8072  0.8142
 6774SOL    HW221293   0.435   5.104   7.213  0.3184 -0.4801 -0.1368
 6775SOL     OW21294   5.300   4.623   5.774  0.2322 -0.0692 -0.0673
 6775SOL    HW121295   5.311   4.560   5.845  1.1506 -0.6256 -0.6812
 6775SOL    HW221296   5.253   4.575   5.706  1.2588 -0.2328 -0.6850
 6776SOL     OW21297   2.406   0.380   1.195 -0.0653 -0.0515 -0.2187
 6776SOL    HW121298   2.499   0.362   1.182  0.1630  1.6970 -1.2496
 6776SOL    HW221299   2.396   0.382   1.291  0.4788 -2.3095 -0.0444
 6777SOL     OW21300   4.603   0.064   0.794  0.0254 -0.8823  0.2138
 6777SOL    HW121301   4.561  -0.022   0.798 -0.1748 -1.0070 -2.4046
 6777SOL    HW221302   4.638   0.068   0.705 -0.9649  2.1983 -0.1213
 6778SOL     OW21303   5.969   5.243   0.133 -0.2143  0.4407 -0.7580
 6778SOL    HW121304   5.941   5.252   0.224 -0.0620  0.7181 -0.7344
 6778SOL    HW221305   5.888   5.236   0.083 -0.2931 -0.0168 -0.5731
 6779SOL     OW21306   3.391   1.752   0.662 -0.2589 -0.3520 -0.5552
 6779SOL    HW121307   3.347   1.836   0.675 -0.5021 -0.4081 -0.9980
 6779SOL    HW221308   3.405   1.747   0.568 -1.9194 -1.6300 -0.7932
 6780SOL     OW21309   0.158   1.286   0.890  0.3146 -0.0586 -0.1706
 6780SOL    HW121310   0.154   1.217   0.955  0.9806  1.2297  1.3068
 6780SOL    HW221311   0.243   1.328   0.905 -0.0808  1.0985 -1.0002
 6781SOL     OW21312   5.621   6.755   7.115 -0.4198 -0.3513 -0.5206
 6781SOL    HW121313   5.552   6.782   7.176 -1.0118  0.6680 -1.6006
 6781SOL    HW221314   5.575   6.743   7.032  0.6307 -0.1911 -1.1327
 6782SOL     OW21315   0.819   1.994   1.420 -0.0956  0.2179  0.0806
 6782SOL    HW121316   0.819   1.959   1.331  0.2311  1.7165 -0.5381
 6782SOL    HW221317   0.785   2.083   1.410 -0.3052  0.3133  1.5041
 6783SOL     OW21318   0.205   3.198   7.267  0.1092 -0.3516 -0.0259
 6783SOL    HW121319   0.221   3.155   7.351 -0.8718  0.6339  0.6916
 6783SOL    HW221320   0.114   3.177   7.246  0.1375 -0.0265 -0.4917
 6784SOL     OW21321   5.231   0.801   0.623 -0.0921  0.2189  0.4983
 6784SOL    HW121322   5.315   0.830   0.660  0.0962  0.5416 -0.1571
 6784SOL    HW221323   5.243   0.707   0.608  0.3193  0.3523 -0.0240
 6785SOL     OW21324   3.295   5.762   2.470 -0.3789  0.2639  0.7316
 6785SOL    HW121325   3.296   5.779   2.376 -0.5540  0.1111  0.7023
 6785SOL    HW221326   3.218   5.707   2.484 -0.2200  0.0892  0.9320
 6786SOL     OW21327   5.876   5.682   0.246 -0.2029  0.0825 -0.1664
 6786SOL    HW121328   5.832   5.623   0.185 -0.9410 -0.2746  0.6797
 6786SOL    HW221329   5.965   5.689   0.213 -0.2770 -1.0131 -0.6430
 6787SOL     OW21330   5.370   2.227   7.126  0.6634 -0.0824  0.4639
 6787SOL    HW121331   5.300   2.208   7.189  0.4075  0.1267  0.2461
 6787SOL    HW221332   5.325   2.264   7.050  0.8346 -1.5698 -0.3912
 6788SOL     OW21333   1.146   4.899   4.017  0.3595 -0.6414  0.7413
 6788SOL    HW121334   1.213   4.852   3.967  0.5915  0.7335 -0.3207
 6788SOL    HW221335   1.064   4.854   3.996  0.3894  0.1622 -1.2834
 6789SOL     OW21336   0.398   3.351   7.134 -0.4888  0.0582 -0.3298
 6789SOL    HW121337   0.326   3.308   7.180 -0.9519  0.2532 -0.8681
 6789SOL    HW221338   0.477   3.307   7.167 -0.9968 -1.8334 -1.5242
 6790SOL     OW21339   0.509   2.303   5.026 -0.4925 -0.1390  0.2979
 6790SOL    HW121340   0.504   2.216   5.064  0.8701 -1.7307 -2.7999
 6790SOL    HW221341   0.436   2.307   4.964  0.6203  0.0587 -1.0599
 6791SOL     OW21342   5.421   5.187   3.616  0.2289 -0.0087  0.1885
 6791SOL    HW121343   5.424   5.121   3.547  0.0668  0.7083 -0.5159
 6791SOL    HW221344   5.471   5.149   3.688 -0.9646 -1.4652  0.3059
 6792SOL     OW21345   5.186   0.025   3.506  0.4040 -0.3175 -0.5717
 6792SOL    HW121346   5.219   0.115   3.514  0.5088 -0.3943 -0.0573
 6792SOL    HW221347   5.099   0.035   3.469  0.1989  0.0411 -0.0035
 6793SOL     OW21348   1.869   5.577   1.221  0.4521  0.4612  0.2765
 6793SOL    HW121349   1.893   5.664   1.253  0.9481  1.2829 -2.1430
 6793SOL    HW221350   1.953   5.534   1.205  0.2269 -0.8776  2.3238
 6794SOL     OW21351   7.128   4.623   7.198 -0.8568  0.3277 -0.4279
 6794SOL    HW121352   7.118   4.593   7.289 -1.1007 -1.2935 -0.9570
 6794SOL    HW221353   7.046   4.670   7.180  0.1651  2.8816  0.9080
 6795SOL     OW21354   1.800   4.331   5.336 -0.6896  0.2553  0.2986
 6795SOL    HW121355   1.798   4.320   5.241 -0.3835  1.1795  0.1793
 6795SOL    HW221356   1.745   4.409   5.352 -1.2301 -0.2413  0.9332
 6796SOL     OW21357   1.105   5.675   7.047  0.4179  0.3004 -0.1734
 6796SOL    HW121358   1.070   5.756   7.084  0.4143  0.3647 -0.3185
 6796SOL    HW221359   1.155   5.636   7.119  0.9968  0.7726 -0.3130
 6797SOL     OW21360   1.076   5.588   6.791 -0.6551 -0.1554  0.2453
 6797SOL    HW121361   1.068   5.602   6.885 -0.0733 -1.0953  0.4594
 6797SOL    HW221362   0.999   5.537   6.767 -1.9137  1.9002 -0.2159
 6798SOL     OW21363   0.317   5.308   0.012 -0.4748  0.3705  0.0590
 6798SOL    HW121364   0.228   5.303  -0.023 -0.4563  1.5902 -0.1903
 6798SOL    HW221365   0.353   5.221  -0.005 -2.0348 -0.5929  1.3813
 6799SOL     OW21366   2.556   5.568   2.009  0.0294  0.1216  0.3837
 6799SOL    HW121367   2.551   5.503   1.938  0.0716  0.6578 -0.1222
 6799SOL    HW221368   2.606   5.525   2.077  1.0784  0.0283 -0.4168
 6800SOL     OW21369   6.732   6.614   2.187 -0.1458 -0.6010 -0.0733
 6800SOL    HW121370   6.718   6.611   2.281 -0.4266  0.3389 -0.0721
 6800SOL    HW221371   6.648   6.589   2.149 -1.0595  2.1350 -0.0559
 6801SOL     OW21372   0.756   1.285   4.735 -0.2700 -0.0758  0.3358
 6801SOL    HW121373   0.796   1.332   4.809  1.6691 -1.9982  0.6256
 6801SOL    HW221374   0.775   1.341   4.659 -0.1269  0.7563  0.9620
 6802SOL     OW21375   2.476   3.700   7.297 -0.0107  0.1182 -0.3500
 6802SOL    HW121376   2.444   3.611   7.282 -1.6793  0.7303 -0.6275
 6802SOL    HW221377   2.553   3.689   7.352 -0.6981 -1.4493  0.3588
 6803SOL     OW21378   0.969   0.046   0.958 -1.0131  0.3201  0.1666
 6803SOL    HW121379   0.925  -0.023   1.008 -1.7709  2.0074  1.9708
 6803SOL    HW221380   0.968   0.122   1.016  2.0939  1.1846 -0.6978
 6804SOL     OW21381   0.836   0.095   2.949 -0.2980  0.1306 -0.1181
 6804SOL    HW121382   0.868   0.043   3.023  0.3321 -1.9120 -1.7426
 6804SOL    HW221383   0.785   0.034   2.896 -1.2491  1.6887 -1.0819
 6805SOL     OW21384   6.627   5.510   3.079  0.2606  0.4394 -0.5087
 6805SOL    HW121385   6.540   5.525   3.041  0.1855 -0.4716 -0.7324
 6805SOL    HW221386   6.614   5.516   3.173 -0.7409 -2.7468 -0.3386
 6806SOL     OW21387   6.426   4.849   5.462 -0.0727  0.4024  0.1721
 6806SOL    HW121388   6.379   4.906   5.402 -2.3860 -3.3624 -1.9789
 6806SOL    HW221389   6.377   4.853   5.544 -1.3594  0.1511 -0.5583
 6807SOL     OW21390   6.586   5.982   0.565  0.8598 -0.2945  0.1642
 6807SOL    HW121391   6.631   5.999   0.648  0.9740 -0.5244  0.1511
 6807SOL    HW221392   6.511   6.041   0.565  0.5641 -0.6658  0.6687
 6808SOL     OW21393   3.479   3.782   0.172 -0.2724 -0.6191  0.3546
 6808SOL    HW121394   3.456   3.870   0.202 -1.3590 -1.0704  0.9201
 6808SOL    HW221395   3.415   3.763   0.103  1.8663  0.1985 -1.9754
 6809SOL     OW21396   1.346   2.885   4.797  0.1864 -0.0552  0.2516
 6809SOL    HW121397   1.432   2.887   4.755 -0.0308  0.1061 -0.1985
 6809SOL    HW221398   1.284   2.891   4.724 -0.1964  0.5936  0.6174
 6810SOL     OW21399   3.066   1.658   2.739 -0.1185 -0.4088 -0.5467
 6810SOL    HW121400   3.026   1.694   2.818 -0.5155 -1.4087 -0.2791
 6810SOL    HW221401   3.160   1.657   2.758 -0.0308  1.0601 -0.8118
 6811SOL     OW21402   0.073   5.617   0.516 -0.0677  0.0738  0.3554
 6811SOL    HW121403   0.162   5.587   0.500  0.4008  0.4953  2.0065
 6811SOL    HW221404   0.018   5.550   0.476  0.9894 -1.1654  0.8867
 6812SOL     OW21405   5.333   2.113   5.960  0.8520 -1.0261  0.1364
 6812SOL    HW121406   5.311   2.020   5.973 -1.8094 -0.4246  0.5564
 6812SOL    HW221407   5.302   2.156   6.040  2.1011  0.2345 -0.0236
 6813SOL     OW21408   3.829   1.353   1.016 -0.6977  0.2118  0.2208
 6813SOL    HW121409   3.866   1.412   1.082  1.2389 -0.8674  0.1842
 6813SOL    HW221410   3.755   1.311   1.060 -1.0206  1.3523  0.8212
 6814SOL     OW21411   3.183   6.497   1.408  0.3787 -0.1415 -0.0395
 6814SOL    HW121412   3.176   6.440   1.331 -0.9338 -0.1800  0.0870
 6814SOL    HW221413   3.173   6.439   1.483  1.3221 -0.0560  0.1626
 6815SOL     OW21414   0.763   3.662   0.950 -0.0252 -0.1087  0.5866
 6815SOL    HW121415   0.815   3.742   0.951 -0.9691  0.5334  0.0642
 6815SOL    HW221416   0.730   3.653   1.039  0.5547 -0.2530  0.7949
 6816SOL     OW21417   6.714   1.671   6.203 -0.5694  1.1108  0.5369
 6816SOL    HW121418   6.794   1.620   6.213 -0.4484  1.1051 -0.3669
 6816SOL    HW221419   6.696   1.668   6.109 -1.8102  0.8367  0.7687
 6817SOL     OW21420   1.808   5.008   0.550  0.0236  0.7624  0.4768
 6817SOL    HW121421   1.848   4.959   0.478  0.3323  2.1652 -0.3361
 6817SOL    HW221422   1.824   4.954   0.627  0.6935 -0.2213 -0.3214
 6818SOL     OW21423   4.044   4.708   0.727 -0.9418 -0.3770 -0.4905
 6818SOL    HW121424   4.025   4.649   0.801  0.6780  1.8167  1.8770
 6818SOL    HW221425   4.017   4.794   0.759 -1.6578  0.4600 -3.1664
 6819SOL     OW21426   2.134   0.587   0.769  0.1569  0.0167  0.7007
 6819SOL    HW121427   2.193   0.513   0.773 -0.5318 -0.6132 -0.4777
 6819SOL    HW221428   2.118   0.610   0.861  2.6215  0.5694  1.0532
 6820SOL     OW21429   5.857   2.134   5.695  0.2900  0.0198 -0.0514
 6820SOL    HW121430   5.810   2.051   5.693  1.5921 -0.7675  0.5542
 6820SOL    HW221431   5.942   2.115   5.654  0.9394  0.8207  0.8651
 6821SOL     OW21432   0.021   0.172   1.973  0.8652 -0.3588  0.1956
 6821SOL    HW121433  -0.062   0.124   1.970  0.0548  0.7780  2.0463
 6821SOL    HW221434   0.024   0.220   1.891 -0.0866 -0.7922 -0.1046
 6822SOL     OW21435   4.635   4.758   3.717  0.4359 -0.7112 -0.0129
 6822SOL    HW121436   4.628   4.727   3.627 -0.3813 -0.4418 -0.0554
 6822SOL    HW221437   4.565   4.712   3.764 -2.5690  2.7523 -0.6006
 6823SOL     OW21438   0.630   7.219   2.857 -0.4201  0.4197  0.4069
 6823SOL    HW121439   0.574   7.150   2.893 -0.1864  0.4382  0.8125
 6823SOL    HW221440   0.611   7.219   2.764 -1.1415  0.4582  0.5467
 6824SOL     OW21441   6.008   3.378   2.025 -0.2109  0.6212 -0.3956
 6824SOL    HW121442   5.950   3.449   1.997 -0.0597  1.2644  0.8065
 6824SOL    HW221443   6.094   3.402   1.989 -0.4142  0.3971 -1.0267
 6825SOL     OW21444   3.752   4.586   6.913 -0.3997  0.1476  0.1049
 6825SOL    HW121445   3.666   4.613   6.881 -0.8868 -2.0794 -0.6239
 6825SOL    HW221446   3.770   4.504   6.868  1.3447 -0.3421  1.5658
 6826SOL     OW21447   4.882   3.924   3.346 -0.0764 -0.4687 -0.3232
 6826SOL    HW121448   4.954   3.864   3.330 -0.7413 -1.2463 -0.5141
 6826SOL    HW221449   4.922   4.010   3.352  0.7885 -0.8097 -1.0303
 6827SOL     OW21450   3.253   7.202   0.384  0.0631  0.0692 -0.0139
 6827SOL    HW121451   3.159   7.217   0.382 -0.0699 -0.7440 -0.1118
 6827SOL    HW221452   3.265   7.130   0.447  0.5579 -0.1999 -0.4053
 6828SOL     OW21453   1.942   4.705   1.290  0.3903  0.1243 -0.5979
 6828SOL    HW121454   1.937   4.747   1.375 -1.0422 -1.7539  0.3424
 6828SOL    HW221455   1.952   4.612   1.310  0.0033 -0.3698 -2.4647
 6829SOL     OW21456   0.144   2.829   1.929 -0.2509 -0.5274 -0.9494
 6829SOL    HW121457   0.197   2.886   1.985 -0.3224  0.0285 -1.4385
 6829SOL    HW221458   0.161   2.741   1.962  1.3162 -0.4105 -1.3533
 6830SOL     OW21459   0.110   2.286   3.143  0.1069 -0.0775  0.5424
 6830SOL    HW121460   0.135   2.211   3.090  0.5146  1.1322 -1.0641
 6830SOL    HW221461   0.076   2.248   3.224  0.6638 -1.9580 -0.0533
 6831SOL     OW21462   5.459   0.011   1.989  0.0372 -0.2781  0.6711
 6831SOL    HW121463   5.365   0.024   1.977 -0.0347  0.3578  1.7371
 6831SOL    HW221464   5.472   0.014   2.084  1.1984  0.1122  0.5241
 6832SOL     OW21465   7.095   0.759   6.127  0.3092  0.4257  0.3898
 6832SOL    HW121466   7.044   0.724   6.054 -2.8112  1.1791  1.9976
 6832SOL    HW221467   7.165   0.695   6.141 -2.3851 -2.8615  0.3079
 6833SOL     OW21468   1.156   3.384   0.695  0.0841 -0.6670 -0.1234
 6833SOL    HW121469   1.187   3.365   0.783  0.9965 -0.1647 -0.3291
 6833SOL    HW221470   1.079   3.439   0.708  1.1873  0.8317  0.3469
 6834SOL     OW21471   5.869   2.915   1.906 -0.4408  0.7253  0.0147
 6834SOL    HW121472   5.886   2.997   1.952 -1.1815  1.1154 -0.3945
 6834SOL    HW221473   5.774   2.903   1.911 -0.3485 -0.1068  0.0648
 6835SOL     OW21474   5.358   3.396   1.678  0.1071  0.6185 -0.3172
 6835SOL    HW121475   5.447   3.425   1.657 -0.1107  1.5029 -0.0568
 6835SOL    HW221476   5.305   3.476   1.674 -0.4975  0.2750  0.5185
 6836SOL     OW21477   2.561   1.442   6.726  0.5347 -0.0535 -0.6769
 6836SOL    HW121478   2.613   1.489   6.661  0.8487 -0.3613 -0.6482
 6836SOL    HW221479   2.472   1.447   6.692  0.8364 -1.1220 -1.6817
 6837SOL     OW21480   6.259   2.333   2.041 -0.2745  0.3257 -0.0109
 6837SOL    HW121481   6.244   2.341   2.135  0.5809 -0.5874  0.2169
 6837SOL    HW221482   6.194   2.391   2.001 -0.0733  1.4090  1.1746
 6838SOL     OW21483   0.455   1.026   0.159  0.4826  0.1954 -0.2121
 6838SOL    HW121484   0.458   1.013   0.064  0.4638  1.0721 -0.3363
 6838SOL    HW221485   0.498   1.110   0.174  0.5815  0.0150  0.5677
 6839SOL     OW21486   4.738   3.229   7.304  0.0935 -0.0115 -0.4752
 6839SOL    HW121487   4.829   3.214   7.282 -0.3303 -0.1770 -2.2717
 6839SOL    HW221488   4.730   3.324   7.312  1.1739 -0.0534  3.5603
 6840SOL     OW21489   5.147   6.257   2.118 -0.2748  0.2093  0.3758
 6840SOL    HW121490   5.224   6.275   2.064 -0.1244  2.2839  1.1848
 6840SOL    HW221491   5.152   6.164   2.137  0.6316 -0.2144 -1.6803
 6841SOL     OW21492   0.340   1.848   0.760 -0.0331 -0.8979 -0.2475
 6841SOL    HW121493   0.411   1.785   0.750  1.1102  0.2635  0.2132
 6841SOL    HW221494   0.318   1.873   0.671  1.2866 -0.0698 -0.3753
 6842SOL     OW21495   1.137   2.700   1.827  0.1431  0.4817  0.3190
 6842SOL    HW121496   1.113   2.615   1.865 -0.5134  2.0109  3.5930
 6842SOL    HW221497   1.232   2.705   1.838  0.1741  0.2217  0.1820
 6843SOL     OW21498   6.054   6.881   6.401  0.5098 -0.5877 -0.0551
 6843SOL    HW121499   6.001   6.865   6.479  0.3024 -0.2666 -0.1238
 6843SOL    HW221500   6.144   6.876   6.431  0.4290 -0.3655  0.2281
 6844SOL     OW21501   1.710   2.954   6.942  0.0142  0.4101  0.4894
 6844SOL    HW121502   1.737   2.983   6.855  0.7781  0.8257  0.8567
 6844SOL    HW221503   1.649   2.882   6.925  0.9261 -0.1789 -0.3658
 6845SOL     OW21504   4.475   4.823   7.251 -0.0010 -0.0943  0.2546
 6845SOL    HW121505   4.416   4.753   7.223 -1.3457  1.3875 -0.8140
 6845SOL    HW221506   4.561   4.797   7.217 -0.1531 -1.9185  1.1660
 6846SOL     OW21507   3.006   7.245   1.668 -0.5170  0.1598  0.1053
 6846SOL    HW121508   3.076   7.208   1.722 -1.4104 -1.3227  0.2774
 6846SOL    HW221509   3.034   7.227   1.578 -0.4608 -0.0223  0.1590
 6847SOL     OW21510   1.256   4.473   2.184  0.5745  0.1310 -0.3039
 6847SOL    HW121511   1.215   4.559   2.193  1.9240  0.6772  1.1490
 6847SOL    HW221512   1.350   4.492   2.177  0.8301 -1.1947 -0.8790
 6848SOL     OW21513   4.708   0.667   4.736 -0.2998 -0.0027  0.0509
 6848SOL    HW121514   4.733   0.685   4.645 -1.8144  1.4169 -0.1220
 6848SOL    HW221515   4.765   0.724   4.788 -1.1901  1.1140 -0.1750
 6849SOL     OW21516   1.087   4.990   2.870 -0.4151 -0.9436 -0.6873
 6849SOL    HW121517   1.034   5.066   2.892  1.0920  0.1169 -0.5322
 6849SOL    HW221518   1.037   4.915   2.902 -1.1145  0.1168  0.8107
 6850SOL     OW21519   3.283   3.069   4.487 -0.1961  0.2611  0.8213
 6850SOL    HW121520   3.312   3.132   4.421  0.5108 -1.9673 -1.1386
 6850SOL    HW221521   3.304   2.983   4.449 -3.1428 -1.2891  2.3325
 6851SOL     OW21522   4.741   6.848   0.993  0.1283  0.1631 -0.0713
 6851SOL    HW121523   4.664   6.887   1.033 -0.1816 -0.4701 -0.0451
 6851SOL    HW221524   4.808   6.853   1.061  0.5494  2.0171 -0.5665
 6852SOL     OW21525   1.947   6.146   2.165 -0.4020  0.0249 -0.0351
 6852SOL    HW121526   1.933   6.208   2.236 -2.7462 -0.7191  0.2224
 6852SOL    HW221527   2.042   6.141   2.157 -0.1101  1.8555  1.4902
 6853SOL     OW21528   4.588   4.378   0.260  0.2991  0.5305 -0.2454
 6853SOL    HW121529   4.550   4.386   0.347  0.0141 -1.2699 -0.1495
 6853SOL    HW221530   4.528   4.320   0.213  1.5175 -0.2044 -0.9625
 6854SOL     OW21531   5.130   1.179   4.627 -0.0705  0.1914  0.1498
 6854SOL    HW121532   5.132   1.181   4.723 -1.0336  0.5786  0.1767
 6854SOL    HW221533   5.206   1.230   4.600  2.9041 -3.5337  0.6280
 6855SOL     OW21534   3.049   5.795   0.753  0.4088  0.3197 -0.2589
 6855SOL    HW121535   3.090   5.840   0.679  1.3203  0.9172  0.5735
 6855SOL    HW221536   3.073   5.703   0.741  3.5086  0.8268  1.0369
 6856SOL     OW21537   3.282   3.164   2.120  0.0707 -0.1155 -0.2876
 6856SOL    HW121538   3.224   3.120   2.059 -2.7466 -0.0279  2.0845
 6856SOL    HW221539   3.356   3.193   2.067 -1.3661 -1.4779 -3.2503
 6857SOL     OW21540   3.063   5.364   1.843 -0.0473  0.3036  0.1158
 6857SOL    HW121541   3.067   5.291   1.782 -0.8267  0.2208  0.1602
 6857SOL    HW221542   2.980   5.354   1.889  0.0669  0.9299  0.4827
 6858SOL     OW21543   5.452   6.059   4.360 -0.5698 -0.4119 -0.2683
 6858SOL    HW121544   5.414   6.144   4.341 -2.7610 -1.3932 -0.5717
 6858SOL    HW221545   5.476   6.024   4.274  3.2937  1.0763  0.0275
 6859SOL     OW21546   6.898   3.342   7.030 -0.3199 -0.6483  0.1149
 6859SOL    HW121547   6.941   3.322   6.946 -0.4227  2.0151 -0.6617
 6859SOL    HW221548   6.820   3.287   7.030 -0.0886 -1.0301 -1.3470
 6860SOL     OW21549   2.993   4.703   1.479 -0.1790  0.2393 -0.0371
 6860SOL    HW121550   2.999   4.621   1.528 -0.0217 -0.7252 -1.5967
 6860SOL    HW221551   2.987   4.771   1.546 -2.5224 -1.1793  1.3284
 6861SOL     OW21552   2.775   2.776   6.228  0.0694 -0.0589 -0.2743
 6861SOL    HW121553   2.785   2.696   6.279 -0.5686 -0.5605 -0.9178
 6861SOL    HW221554   2.728   2.749   6.149 -2.7142  1.4369  0.7511
 6862SOL     OW21555   1.720   6.690   3.222 -0.3296 -0.2552  0.3304
 6862SOL    HW121556   1.667   6.694   3.301 -1.0639  1.3681 -0.2068
 6862SOL    HW221557   1.763   6.776   3.217  1.1548 -0.9735 -0.0798
 6863SOL     OW21558   6.280   0.209   0.739 -0.2418 -0.2208  0.2140
 6863SOL    HW121559   6.214   0.143   0.760 -1.6710  0.5227 -1.6158
 6863SOL    HW221560   6.322   0.176   0.659  0.4875  0.0892  0.4637
 6864SOL     OW21561   6.845   0.830   5.942 -0.1237 -0.1474  0.1401
 6864SOL    HW121562   6.769   0.860   5.892  0.2436  0.1665 -0.2317
 6864SOL    HW221563   6.908   0.902   5.937  0.3348 -0.5394  0.1614
 6865SOL     OW21564   1.450   0.714   6.541 -0.2271 -0.1038  0.5018
 6865SOL    HW121565   1.461   0.793   6.488 -0.9615 -0.3203  0.0124
 6865SOL    HW221566   1.371   0.673   6.506 -0.6972 -0.2878  1.7296
 6866SOL     OW21567   4.036   2.872   1.700 -0.3507 -0.3006  0.4807
 6866SOL    HW121568   4.115   2.819   1.707 -2.2756 -3.3696  0.9361
 6866SOL    HW221569   4.000   2.851   1.614 -0.4327  1.4919  0.0395
 6867SOL     OW21570   7.135   4.268   0.444 -0.1812 -0.3910  0.4769
 6867SOL    HW121571   7.112   4.251   0.535  1.3191  1.9955  1.3983
 6867SOL    HW221572   7.228   4.247   0.438 -0.4766 -1.4832 -0.8216
 6868SOL     OW21573   4.896   2.745   5.842  0.4567 -0.4539 -0.4120
 6868SOL    HW121574   4.889   2.652   5.818  0.4572 -0.2463 -1.2489
 6868SOL    HW221575   4.964   2.780   5.785  0.6821 -0.0066  0.1227
 6869SOL     OW21576   2.929   2.262   3.857  0.2692 -0.0946  0.9140
 6869SOL    HW121577   2.964   2.308   3.780 -0.0701 -1.0093  0.1897
 6869SOL    HW221578   2.862   2.204   3.821  1.2728 -1.7936  1.6606
 6870SOL     OW21579   3.313   5.444   2.752  0.2801  0.0572 -0.2488
 6870SOL    HW121580   3.254   5.416   2.682 -2.5784  1.3239  1.4894
 6870SOL    HW221581   3.361   5.518   2.714  0.1011 -0.3876 -1.3986
 6871SOL     OW21582   3.418   3.452   6.155  0.5930  0.6116 -0.6710
 6871SOL    HW121583   3.514   3.447   6.158  0.5557 -0.0450 -0.4497
 6871SOL    HW221584   3.395   3.429   6.065  0.5714 -0.7227 -0.3443
 6872SOL     OW21585   3.266   6.111   6.496  0.0492 -0.5710 -0.4758
 6872SOL    HW121586   3.359   6.105   6.517 -0.3582 -0.9964  1.4009
 6872SOL    HW221587   3.226   6.035   6.538 -1.1233 -0.5813 -1.5192
 6873SOL     OW21588   0.787   6.352   4.872  0.2489  0.9227  0.6604
 6873SOL    HW121589   0.862   6.389   4.826 -0.7748  2.6923  0.3001
 6873SOL    HW221590   0.786   6.260   4.847  2.1406  0.9114  0.4966
 6874SOL     OW21591   2.306   6.574   5.160  0.2947  0.1796 -0.0304
 6874SOL    HW121592   2.262   6.618   5.086 -0.1121 -0.5204 -0.2200
 6874SOL    HW221593   2.363   6.509   5.118 -0.4187 -0.6630  0.2696
 6875SOL     OW21594   2.508   2.977   2.684  0.2246 -0.2737  0.5755
 6875SOL    HW121595   2.486   2.967   2.777  1.0569 -0.7516  0.7270
 6875SOL    HW221596   2.456   3.052   2.656  0.9190  0.6722  1.7441
 6876SOL     OW21597   6.398   4.715   2.023 -0.1240 -0.1755 -0.2724
 6876SOL    HW121598   6.382   4.656   2.097 -0.0138  0.0070 -0.1020
 6876SOL    HW221599   6.370   4.801   2.054  4.5711  1.0147  1.4982
 6877SOL     OW21600   1.267   0.146   6.560 -1.0930 -0.4612  0.1405
 6877SOL    HW121601   1.172   0.135   6.562 -1.0756 -0.5562  0.4901
 6877SOL    HW221602   1.292   0.152   6.652 -0.7000 -0.9587  0.0675
 6878SOL     OW21603   1.272   1.904   7.223 -0.3104  0.3013  0.0726
 6878SOL    HW121604   1.317   1.987   7.212 -1.7137  1.3028  1.5014
 6878SOL    HW221605   1.214   1.898   7.147 -0.9910  1.1708  0.5091
 6879SOL     OW21606   1.665   4.047   4.939  0.3730 -0.0832  0.0899
 6879SOL    HW121607   1.739   3.990   4.957 -0.2180 -0.2863  2.1390
 6879SOL    HW221608   1.597   3.989   4.903  0.9801  0.0117 -1.2696
 6880SOL     OW21609   2.888   5.505   7.134  0.1341  0.4995 -0.0051
 6880SOL    HW121610   2.961   5.473   7.082 -0.2012  1.5601 -1.1943
 6880SOL    HW221611   2.830   5.430   7.143  1.1381 -0.2312  0.5625
 6881SOL     OW21612   6.181   3.339   5.688 -0.5457  0.4287  0.1045
 6881SOL    HW121613   6.233   3.358   5.766  1.9254  2.1719 -1.7621
 6881SOL    HW221614   6.215   3.255   5.657  0.0095  0.7535 -0.1930
 6882SOL     OW21615   0.652   4.468   2.628  0.1362 -0.1446 -0.5598
 6882SOL    HW121616   0.747   4.474   2.637  0.0089 -0.5159  1.4011
 6882SOL    HW221617   0.620   4.556   2.646 -0.0451 -0.6441  1.8228
 6883SOL     OW21618   3.405   4.417   5.005 -0.1321  0.2722 -0.1089
 6883SOL    HW121619   3.490   4.404   4.963 -0.6319 -2.1086 -0.5264
 6883SOL    HW221620   3.355   4.470   4.941  0.7031  0.8951 -0.2659
 6884SOL     OW21621   5.865   2.245   4.358  0.9351 -0.2584 -0.3447
 6884SOL    HW121622   5.951   2.283   4.378  1.6490 -2.2953  0.8187
 6884SOL    HW221623   5.885   2.157   4.325 -0.6900 -0.9321  0.3599
 6885SOL     OW21624   0.757   6.236   6.063  0.1453  0.3795  0.4425
 6885SOL    HW121625   0.815   6.181   6.012 -0.4560 -1.4850  1.6774
 6885SOL    HW221626   0.765   6.323   6.023  1.3378 -0.5118 -1.3876
 6886SOL     OW21627   0.785   3.725   3.697  0.2866 -0.1475 -0.6275
 6886SOL    HW121628   0.706   3.746   3.648  0.9391 -2.3008 -2.7898
 6886SOL    HW221629   0.851   3.785   3.663 -0.1888  1.1961  0.7045
 6887SOL     OW21630   4.261   2.966   5.552 -0.7904 -0.7813 -0.8061
 6887SOL    HW121631   4.216   3.042   5.515  0.3922 -0.0231 -0.7397
 6887SOL    HW221632   4.193   2.921   5.604 -1.8416 -0.5217 -1.9042
 6888SOL     OW21633   6.018   1.980   4.630 -0.1268 -0.4646  0.3821
 6888SOL    HW121634   6.108   2.011   4.640  0.0793 -0.3360 -1.5124
 6888SOL    HW221635   5.964   2.050   4.668  0.5143  0.3833 -0.2222
 6889SOL     OW21636   3.014   4.581   1.907 -0.5812  0.3262  0.5180
 6889SOL    HW121637   3.088   4.558   1.963 -0.9169 -0.7922  0.5184
 6889SOL    HW221638   2.945   4.606   1.969 -1.2468 -1.7676  0.7028
 6890SOL     OW21639   3.827   6.736   4.508  0.1300  0.6134  0.5701
 6890SOL    HW121640   3.823   6.695   4.422  0.0452  0.7527  0.5079
 6890SOL    HW221641   3.920   6.733   4.532  0.4117  2.0357 -0.2304
 6891SOL     OW21642   6.130   5.022   1.090 -0.1811  0.0347  0.1870
 6891SOL    HW121643   6.081   5.096   1.125  0.6858  1.5829 -1.7147
 6891SOL    HW221644   6.222   5.046   1.099  0.1034 -0.3486 -1.2967
 6892SOL     OW21645   5.342   6.473   3.160 -0.2314 -0.5093 -0.1205
 6892SOL    HW121646   5.436   6.482   3.170 -0.1954 -2.1846  1.8171
 6892SOL    HW221647   5.327   6.476   3.066  1.7936 -0.5125 -0.4799
 6893SOL     OW21648   1.057   2.104   0.714 -0.4415 -0.1965 -0.1422
 6893SOL    HW121649   0.988   2.124   0.777 -0.5640 -0.2334 -0.2662
 6893SOL    HW221650   1.093   2.189   0.690 -2.0220  0.0450 -1.8934
 6894SOL     OW21651   6.477   3.532   0.096 -0.6907 -0.3062 -0.1633
 6894SOL    HW121652   6.557   3.497   0.057 -1.0463 -0.9973 -0.2805
 6894SOL    HW221653   6.428   3.455   0.125 -2.7655 -0.1883 -2.8549
 6895SOL     OW21654   1.419   2.397   3.411 -0.4435  0.0623 -0.0651
 6895SOL    HW121655   1.394   2.422   3.322  0.9627  2.7941  0.2172
 6895SOL    HW221656   1.495   2.339   3.399 -2.2035 -2.2799 -0.6501
 6896SOL     OW21657   1.327   7.169   3.297  0.6047 -0.2414 -0.5991
 6896SOL    HW121658   1.268   7.241   3.274  1.1727 -0.0116 -1.3811
 6896SOL    HW221659   1.293   7.136   3.380 -0.0547  0.5034 -0.5585
 6897SOL     OW21660   3.814   1.853   5.537  0.0213 -0.7206 -0.3052
 6897SOL    HW121661   3.772   1.897   5.463  0.9480 -2.0683 -1.7125
 6897SOL    HW221662   3.797   1.760   5.522  0.5297 -1.0556  1.0132
 6898SOL     OW21663   1.915   1.873   5.766 -0.0094 -0.2361 -0.0981
 6898SOL    HW121664   1.996   1.902   5.722  0.1106  0.0837  0.3313
 6898SOL    HW221665   1.944   1.840   5.851 -0.3744  0.2733  0.2297
 6899SOL     OW21666   6.598   5.604   5.880  0.1554  0.3409 -0.0902
 6899SOL    HW121667   6.687   5.571   5.864  0.0413  0.4822 -1.1258
 6899SOL    HW221668   6.611   5.693   5.913  0.4035  0.2208  0.1419
 6900SOL     OW21669   6.177   1.658   0.940  0.6396 -0.3903 -0.4555
 6900SOL    HW121670   6.098   1.638   0.890 -0.1726 -1.0345  1.0276
 6900SOL    HW221671   6.223   1.575   0.946  0.0228 -0.6506  1.0289
 6901SOL     OW21672   4.937   4.114   2.161  0.3185 -0.0272  0.1312
 6901SOL    HW121673   4.919   4.032   2.114 -2.1779 -0.5237  1.7283
 6901SOL    HW221674   5.014   4.095   2.214 -1.3722 -2.1744  2.0438
 6902SOL     OW21675   1.956   1.653   3.417  0.0528 -0.1858  0.0019
 6902SOL    HW121676   2.013   1.622   3.488  1.2703 -0.2413 -0.9590
 6902SOL    HW221677   1.874   1.676   3.460  0.2538 -1.5886  1.2270
 6903SOL     OW21678   0.929   3.197   5.140  0.3310  0.3618  0.1856
 6903SOL    HW121679   0.834   3.197   5.144  0.2592  0.5695 -1.2463
 6903SOL    HW221680   0.953   3.106   5.120  0.3664  0.5720 -0.7369
 6904SOL     OW21681   3.199   3.895   4.724 -0.0751 -0.2863  0.1342
 6904SOL    HW121682   3.237   3.820   4.770  0.4294  1.3549  2.5745
 6904SOL    HW221683   3.265   3.964   4.732 -2.3152  1.8252  2.1388
 6905SOL     OW21684   1.036   7.140   2.152 -0.0532  0.0562 -0.2248
 6905SOL    HW121685   1.045   7.235   2.151 -1.5113  0.2219 -0.2514
 6905SOL    HW221686   1.119   7.108   2.188 -0.6172  1.5248  2.7578
 6906SOL     OW21687   1.637   7.312   3.496 -0.3172 -0.0734 -0.6762
 6906SOL    HW121688   1.697   7.387   3.500 -0.9445  0.4243 -0.5367
 6906SOL    HW221689   1.686   7.241   3.539  0.7822 -0.1123 -1.9107
 6907SOL     OW21690   3.102   1.613   3.223  0.0118 -0.6565 -0.1678
 6907SOL    HW121691   3.094   1.536   3.166 -0.1240 -0.5338 -0.3174
 6907SOL    HW221692   3.171   1.665   3.182 -0.0814 -0.5711 -0.2179
 6908SOL     OW21693   6.686   2.447   4.254  0.1477  0.5761 -0.3566
 6908SOL    HW121694   6.631   2.519   4.223  0.1475  0.3932 -0.7773
 6908SOL    HW221695   6.767   2.490   4.283  0.0694  0.7649 -0.4134
 6909SOL     OW21696   2.078   0.735   4.819  0.3924 -0.0646 -0.1766
 6909SOL    HW121697   2.053   0.820   4.857  0.7785  0.2557 -0.6352
 6909SOL    HW221698   2.000   0.681   4.830 -0.4426  0.8528 -1.3887
 6910SOL     OW21699   4.665   2.422   2.475  0.2907 -0.2448  0.2991
 6910SOL    HW121700   4.693   2.333   2.452  0.0290 -0.7274  1.7708
 6910SOL    HW221701   4.747   2.471   2.483  0.5198 -0.6871  0.7657
 6911SOL     OW21702   0.846   5.209   3.223  0.2325 -0.4685 -0.1659
 6911SOL    HW121703   0.905   5.172   3.158  1.0446  0.7358 -0.1335
 6911SOL    HW221704   0.793   5.134   3.252  1.8985 -1.6446 -0.0087
 6912SOL     OW21705   0.269   5.288   1.851 -0.0123  0.2293 -0.8144
 6912SOL    HW121706   0.228   5.232   1.917 -1.0091 -1.2741 -2.5970
 6912SOL    HW221707   0.210   5.363   1.844 -2.0838 -1.4383 -2.6327
 6913SOL     OW21708   4.760   1.926   5.174 -0.0585 -0.8282 -0.4629
 6913SOL    HW121709   4.782   1.833   5.167  1.8532 -0.5687  1.1977
 6913SOL    HW221710   4.828   1.971   5.123 -0.0988 -0.2629 -0.0226
 6914SOL     OW21711   1.907   1.574   6.388 -0.0057 -0.2788  0.1749
 6914SOL    HW121712   1.812   1.570   6.380 -0.2538  1.2486  1.8043
 6914SOL    HW221713   1.928   1.518   6.462  0.7295 -2.7571 -1.7526
 6915SOL     OW21714   4.787   5.241   2.643 -0.2599  0.1395  0.2180
 6915SOL    HW121715   4.820   5.163   2.599 -0.4068  0.0038  0.3457
 6915SOL    HW221716   4.700   5.256   2.605 -0.1277  0.3878  0.0139
 6916SOL     OW21717   3.147   0.182   2.380  0.4106 -0.9396 -0.2155
 6916SOL    HW121718   3.157   0.089   2.358  0.1710 -0.7782 -1.0684
 6916SOL    HW221719   3.171   0.188   2.472  1.0566 -1.7443 -0.3194
 6917SOL     OW21720   3.146   2.722   3.063 -0.3173  0.4244  0.6084
 6917SOL    HW121721   3.131   2.804   3.110 -0.6600 -1.1997  3.5832
 6917SOL    HW221722   3.058   2.686   3.048 -0.1669  0.5197 -0.6333
 6918SOL     OW21723   2.844   4.810   2.587 -0.2103  0.0164 -0.5751
 6918SOL    HW121724   2.819   4.842   2.500  0.7196 -1.4040 -1.4066
 6918SOL    HW221725   2.768   4.827   2.642 -1.6364 -0.8940 -2.1621
 6919SOL     OW21726   1.871   2.912   1.832 -0.2930 -0.2729 -0.1574
 6919SOL    HW121727   1.806   2.882   1.769 -2.7321  2.2586  0.9465
 6919SOL    HW221728   1.836   2.887   1.918  2.2122 -2.3035  0.4153
 6920SOL     OW21729   0.975   6.995   0.224 -0.0847  0.9267 -0.3911
 6920SOL    HW121730   1.037   7.018   0.294 -1.0847  1.8866  0.2078
 6920SOL    HW221731   0.921   7.073   0.213 -1.1518  0.1337 -0.9344
 6921SOL     OW21732   6.350   5.184   0.350 -0.1607 -0.4800 -0.0967
 6921SOL    HW121733   6.281   5.130   0.310 -0.2191 -1.1853  0.9103
 6921SOL    HW221734   6.325   5.188   0.442  1.0834 -0.6349  0.2552
 6922SOL     OW21735   7.066   6.692   0.109 -0.0106  0.0631  0.1641
 6922SOL    HW121736   7.022   6.681   0.024  0.4802 -1.1842  0.0562
 6922SOL    HW221737   7.127   6.764   0.095 -0.5115  0.4046 -0.3014
 6923SOL     OW21738   3.400   6.320   3.498  0.4183 -0.1386  0.1976
 6923SOL    HW121739   3.318   6.272   3.500  0.1154  0.3894  0.8793
 6923SOL    HW221740   3.439   6.298   3.413 -0.4515 -0.3458 -0.1564
 6924SOL     OW21741   1.361   1.791   3.711 -0.5141  0.3671 -0.0613
 6924SOL    HW121742   1.408   1.730   3.768  0.0985 -1.0676 -2.0200
 6924SOL    HW221743   1.394   1.773   3.623 -0.6206  3.2588 -0.8016
 6925SOL     OW21744   6.007   4.727   5.151  0.0968  0.1399 -0.2566
 6925SOL    HW121745   6.006   4.820   5.127 -0.8981 -0.1956 -1.6860
 6925SOL    HW221746   6.097   4.711   5.181  0.3938  1.4691 -0.3718
 6926SOL     OW21747   5.553   3.084   5.112  0.3791  0.5543 -0.3178
 6926SOL    HW121748   5.567   3.041   5.027 -1.2694  1.8933 -1.3193
 6926SOL    HW221749   5.503   3.163   5.092 -0.6895  0.5628  1.9725
 6927SOL     OW21750   4.591   2.876   4.543  0.0521 -0.5430  0.2780
 6927SOL    HW121751   4.667   2.840   4.588 -0.5728 -1.3693  0.6978
 6927SOL    HW221752   4.539   2.800   4.518  0.1006 -0.0816 -1.3722
 6928SOL     OW21753   2.617   3.009   4.895 -0.0913 -0.0125 -0.3983
 6928SOL    HW121754   2.569   2.973   4.821 -0.3626  1.3831 -0.9372
 6928SOL    HW221755   2.707   3.020   4.863 -0.2984  0.9735 -0.6850
 6929SOL     OW21756   4.943   1.715   6.014  0.5961  0.3925  0.3448
 6929SOL    HW121757   4.924   1.625   5.989  0.7239  0.6983 -0.9226
 6929SOL    HW221758   4.863   1.763   5.994 -0.1132  0.2926  2.6788
 6930SOL     OW21759   5.004   1.912   2.255 -0.8060 -0.3642 -0.3880
 6930SOL    HW121760   5.064   1.983   2.235  0.2022 -1.4612 -1.4174
 6930SOL    HW221761   4.919   1.955   2.264  0.0812  1.2041  1.0508
 6931SOL     OW21762   5.529   5.445   0.758 -0.0560 -0.0653 -0.0071
 6931SOL    HW121763   5.609   5.498   0.764  0.0013 -0.3150  1.6153
 6931SOL    HW221764   5.561   5.356   0.744  0.0281 -0.3711  1.9350
 6932SOL     OW21765   2.767   2.337   2.735  0.4682  0.4561  0.4256
 6932SOL    HW121766   2.829   2.391   2.785 -1.0466  2.5464  0.1825
 6932SOL    HW221767   2.742   2.267   2.795 -0.1343  2.0214  2.0884
 6933SOL     OW21768   7.244   5.433   1.958 -0.7704  0.3674  0.0641
 6933SOL    HW121769   7.205   5.384   1.885 -1.4572 -0.6857  1.1200
 6933SOL    HW221770   7.279   5.512   1.916 -2.5615  0.5711 -1.1738
 6934SOL     OW21771   4.921   6.671   4.703  0.4955 -0.4036 -0.1878
 6934SOL    HW121772   4.913   6.582   4.670 -3.2039 -0.7266  1.1621
 6934SOL    HW221773   4.929   6.661   4.798 -4.8838  0.4497  0.6828
 6935SOL     OW21774   6.501   1.337   4.149  0.4539  0.0620  0.5801
 6935SOL    HW121775   6.571   1.358   4.211  0.7418 -0.2799  0.3770
 6935SOL    HW221776   6.449   1.418   4.142  1.3903  0.6343  0.0032
 6936SOL     OW21777   0.223   0.155   6.980 -0.1006 -0.0710  0.0762
 6936SOL    HW121778   0.286   0.147   7.052 -0.6390  0.8199  0.6777
 6936SOL    HW221779   0.139   0.170   7.024 -0.8874 -1.9640 -0.6783
 6937SOL     OW21780   2.107   1.198   6.683 -0.2477  0.2727  0.0181
 6937SOL    HW121781   2.058   1.127   6.725 -0.3603 -0.2231 -0.9138
 6937SOL    HW221782   2.185   1.210   6.738 -0.5275 -0.1708  0.5130
 6938SOL     OW21783   1.720   4.669   1.566  0.2753 -0.4976  0.5466
 6938SOL    HW121784   1.782   4.740   1.551 -0.8614  1.0521  2.5838
 6938SOL    HW221785   1.636   4.714   1.577 -0.4911 -2.1652  1.8734
 6939SOL     OW21786   2.110   0.452   7.121 -0.8978  0.6634 -0.2481
 6939SOL    HW121787   2.148   0.375   7.080 -3.3774 -0.5422 -0.4478
 6939SOL    HW221788   2.076   0.421   7.205 -0.1465  2.0271  0.6066
 6940SOL     OW21789   2.167   6.038   2.900 -0.0489 -0.2322 -0.0954
 6940SOL    HW121790   2.232   5.968   2.912 -0.1952 -0.5255 -0.9281
 6940SOL    HW221791   2.092   6.010   2.953  0.1061 -0.4205  0.0266
 6941SOL     OW21792   0.901   4.186   0.267 -0.3644  0.2602 -0.6354
 6941SOL    HW121793   0.914   4.280   0.256  0.7062  0.3336  0.8723
 6941SOL    HW221794   0.824   4.179   0.324  1.0173  0.3872  1.3682
 6942SOL     OW21795   1.536   6.471   6.336 -0.7785 -0.5574  0.1841
 6942SOL    HW121796   1.574   6.425   6.261 -0.0862 -0.0312  0.1997
 6942SOL    HW221797   1.446   6.488   6.310 -0.4432 -0.0394 -0.7062
 6943SOL     OW21798   6.374   1.719   1.151  0.3227 -0.5207 -0.5559
 6943SOL    HW121799   6.318   1.644   1.173  0.1076 -1.1792 -3.0533
 6943SOL    HW221800   6.372   1.723   1.055  1.8805  1.5247 -0.5662
 6944SOL     OW21801   5.620   1.532   3.862 -0.1691 -0.3798 -0.2277
 6944SOL    HW121802   5.566   1.542   3.940  1.5632 -1.2451  1.1332
 6944SOL    HW221803   5.647   1.621   3.839 -0.1610 -0.1830  0.5307
 6945SOL     OW21804   4.045   1.128   5.270 -0.0674  0.2236 -0.1654
 6945SOL    HW121805   4.080   1.181   5.342  0.4159 -0.3038 -0.0035
 6945SOL    HW221806   4.013   1.048   5.313 -0.1854  0.1005 -0.4816
 6946SOL     OW21807   6.959   6.764   7.182  0.0555 -0.9337 -0.1696
 6946SOL    HW121808   7.005   6.751   7.099 -0.7709 -1.2688 -0.5883
 6946SOL    HW221809   6.969   6.858   7.200  1.6713 -1.1535  0.2321
 6947SOL     OW21810   2.510   1.360   0.888 -0.0567  0.0870  0.5008
 6947SOL    HW121811   2.464   1.292   0.938  0.3628 -0.8049 -0.2851
 6947SOL    HW221812   2.454   1.375   0.812  1.2578 -1.5633 -0.8596
 6948SOL     OW21813   6.081   3.607   3.583 -0.3864 -0.1390  0.0872
 6948SOL    HW121814   6.088   3.525   3.533  1.7678 -0.1496  0.3017
 6948SOL    HW221815   6.075   3.675   3.516  0.3067 -0.3071 -0.1550
 6949SOL     OW21816   6.282   0.124   6.451  0.6807 -0.3634 -0.2946
 6949SOL    HW121817   6.230   0.069   6.510  3.0893 -2.1500  0.3399
 6949SOL    HW221818   6.339   0.174   6.510 -0.5071  1.9492 -0.9435
 6950SOL     OW21819   1.422   1.433   3.278  0.0586 -0.1797  0.0193
 6950SOL    HW121820   1.402   1.526   3.270 -0.8823 -0.3111  0.6958
 6950SOL    HW221821   1.339   1.389   3.259  0.2930 -0.8406  0.4896
 6951SOL     OW21822   3.992   0.651   6.882  0.1879 -0.2124 -0.0696
 6951SOL    HW121823   3.935   0.596   6.828 -1.2762  0.4273  0.7567
 6951SOL    HW221824   3.932   0.693   6.944  1.4492  1.2046  0.2391
 6952SOL     OW21825   2.949   1.060   1.452 -0.2705  0.0020  0.6565
 6952SOL    HW121826   2.903   1.023   1.527 -1.1787  2.2265  1.3002
 6952SOL    HW221827   2.884   1.061   1.382  0.1919 -0.9081  0.2000
 6953SOL     OW21828   1.109   0.389   6.726 -0.3870  0.2321 -0.3855
 6953SOL    HW121829   1.056   0.310   6.734 -0.2925  0.1191 -0.8384
 6953SOL    HW221830   1.058   0.448   6.672 -1.9158  1.7751  2.5072
 6954SOL     OW21831   2.369   2.700   1.760  0.1458 -0.4982  0.6004
 6954SOL    HW121832   2.406   2.690   1.847  3.9837  0.5401 -0.6853
 6954SOL    HW221833   2.293   2.757   1.772  1.0410  0.2765  3.1898
 6955SOL     OW21834   2.949   2.173   3.011 -0.4679  0.2170 -0.1931
 6955SOL    HW121835   3.003   2.132   2.944 -1.2367  0.4170 -0.9408
 6955SOL    HW221836   2.859   2.155   2.985 -0.8182 -1.5316  1.8846
 6956SOL     OW21837   2.946   1.624   5.000  0.1103  0.4576  0.1104
 6956SOL    HW121838   2.885   1.578   4.943 -0.9526  1.5909  0.2879
 6956SOL    HW221839   2.998   1.678   4.941  0.1076  0.4176  0.0713
 6957SOL     OW21840   7.009   6.653   1.334 -0.3254  0.1748 -0.1568
 6957SOL    HW121841   7.089   6.632   1.286 -1.0194 -0.5696 -1.0363
 6957SOL    HW221842   7.009   6.748   1.341 -0.2016  0.3173 -1.6747
 6958SOL     OW21843   0.169   6.587   6.640 -0.0275 -0.4145 -0.3293
 6958SOL    HW121844   0.251   6.610   6.683 -0.8445  0.7699  0.6612
 6958SOL    HW221845   0.103   6.596   6.708 -0.9931 -1.3104 -1.1225
 6959SOL     OW21846   3.818   6.519   1.716 -0.5909 -0.0679 -0.1131
 6959SOL    HW121847   3.900   6.566   1.727 -0.5833 -0.3016  0.9016
 6959SOL    HW221848   3.778   6.558   1.638 -1.1362  2.4250  1.3378
 6960SOL     OW21849   1.496   1.271   0.417  0.1931 -0.1518 -0.2855
 6960SOL    HW121850   1.520   1.251   0.326  0.8970 -0.0159 -0.1339
 6960SOL    HW221851   1.542   1.352   0.437 -1.0266  0.5637 -0.2265
 6961SOL     OW21852   4.960   0.014   4.778 -0.0207  0.6861  0.1445
 6961SOL    HW121853   4.999   0.019   4.691  0.6626  0.0473  0.3970
 6961SOL    HW221854   4.961   0.105   4.810 -0.0944  0.8915 -0.4348
 6962SOL     OW21855   3.579   0.837   0.905 -0.1250 -0.5736  0.4749
 6962SOL    HW121856   3.506   0.849   0.966 -0.4659  0.6485 -0.1541
 6962SOL    HW221857   3.656   0.829   0.962 -0.6429 -1.1083  1.1175
 6963SOL     OW21858   3.957   6.137   1.955 -0.0575  0.1834 -0.2020
 6963SOL    HW121859   3.887   6.078   1.983  0.5809 -0.9551 -0.9423
 6963SOL    HW221860   3.912   6.207   1.907 -0.6006 -1.4648 -2.2365
 6964SOL     OW21861   5.301   0.660   6.172  0.6059  0.0327 -0.2944
 6964SOL    HW121862   5.351   0.721   6.118 -2.2199  0.8936 -2.1289
 6964SOL    HW221863   5.305   0.697   6.261  3.5557 -0.2511 -0.2126
 6965SOL     OW21864   7.340   5.918   3.141  0.2564 -0.2876 -0.0986
 6965SOL    HW121865   7.362   5.894   3.231  0.5116 -1.9491 -0.5656
 6965SOL    HW221866   7.267   5.980   3.150 -0.6887 -1.5170  1.2323
 6966SOL     OW21867   4.885   4.867   1.572  0.5879 -0.0861  0.1396
 6966SOL    HW121868   4.948   4.906   1.511  1.4639 -2.0493 -0.2958
 6966SOL    HW221869   4.908   4.904   1.657  1.4809  0.2169 -0.2180
 6967SOL     OW21870   0.408   0.726   2.519  0.2551  0.7635  0.4291
 6967SOL    HW121871   0.484   0.782   2.537 -0.3883  1.7589  0.1464
 6967SOL    HW221872   0.338   0.788   2.498 -0.9521 -0.0884  1.7924
 6968SOL     OW21873   1.474   3.739   0.815 -0.4275  0.2932 -0.0086
 6968SOL    HW121874   1.568   3.754   0.806 -0.6780  1.2134 -1.3618
 6968SOL    HW221875   1.465   3.690   0.896  1.0479  1.7966  1.1116
 6969SOL     OW21876   5.874   4.320   4.657  0.6348 -0.5271  0.3596
 6969SOL    HW121877   5.889   4.354   4.745 -0.5479  0.6685  0.1236
 6969SOL    HW221878   5.909   4.387   4.598 -0.0306 -0.5547 -0.0857
 6970SOL     OW21879   1.832   6.966   2.952 -0.4638 -0.1346  0.4713
 6970SOL    HW121880   1.765   6.910   2.913  0.3199 -1.5130  0.9963
 6970SOL    HW221881   1.837   6.936   3.043  0.0432  0.7504  0.7393
 6971SOL     OW21882   6.866   5.690   0.904 -0.0664  0.3960 -0.8380
 6971SOL    HW121883   6.847   5.779   0.936 -1.0555 -0.8450  2.4990
 6971SOL    HW221884   6.960   5.680   0.916 -0.3307  0.1493  1.5011
 6972SOL     OW21885   6.158   2.561   6.595  0.0423  0.2503  0.4240
 6972SOL    HW121886   6.170   2.655   6.589  1.9823 -0.0559 -1.3130
 6972SOL    HW221887   6.076   2.544   6.549  0.5050  0.9446 -0.6872
 6973SOL     OW21888   0.356   6.678   1.171 -0.4365 -0.2329  0.4503
 6973SOL    HW121889   0.386   6.638   1.089 -0.4157 -0.7944  0.7260
 6973SOL    HW221890   0.414   6.753   1.184  1.0706 -1.4569  1.1226
 6974SOL     OW21891   4.060   4.355   3.714 -0.0060 -0.1912  0.7172
 6974SOL    HW121892   4.009   4.279   3.687  0.5539 -0.4368  0.3377
 6974SOL    HW221893   4.051   4.417   3.641  4.1863 -2.1009 -1.7632
 6975SOL     OW21894   5.738   4.229   6.952 -0.5349  1.6467 -0.2234
 6975SOL    HW121895   5.735   4.177   7.032  2.7582  1.1473 -0.2676
 6975SOL    HW221896   5.775   4.170   6.886  1.3911  3.3912 -0.8032
 6976SOL     OW21897   3.198   6.192   6.230  0.0059  0.6918 -0.3282
 6976SOL    HW121898   3.246   6.275   6.232 -0.5647  1.0073  1.5041
 6976SOL    HW221899   3.219   6.150   6.314 -0.4370 -0.6130 -0.8445
 6977SOL     OW21900   7.217   6.592   4.860  0.2364 -0.3854 -0.3159
 6977SOL    HW121901   7.177   6.638   4.786 -0.0672 -0.1366  0.0004
 6977SOL    HW221902   7.301   6.560   4.826  0.3074  0.1223 -0.6362
 6978SOL     OW21903   7.104   1.627   5.656  0.7752  0.0264 -0.6303
 6978SOL    HW121904   7.155   1.612   5.736  0.1806 -0.5732 -0.3533
 6978SOL    HW221905   7.089   1.539   5.621  1.2832  0.3002 -1.5714
 6979SOL     OW21906   0.146   2.221   7.095 -0.4943 -0.0862  0.0715
 6979SOL    HW121907   0.146   2.155   7.025  1.7252  2.2657 -2.3859
 6979SOL    HW221908   0.239   2.242   7.108 -1.0313  1.4431  1.8718
 6980SOL     OW21909   0.511   0.468   1.156 -0.7538  0.2610  0.3885
 6980SOL    HW121910   0.558   0.388   1.132 -0.1349  0.5026  0.7613
 6980SOL    HW221911   0.571   0.539   1.135 -0.1624  0.4878  2.5840
 6981SOL     OW21912   2.232   3.228   0.971  0.1095  0.1934  0.0812
 6981SOL    HW121913   2.197   3.141   0.952  0.0616  0.4808 -1.2827
 6981SOL    HW221914   2.304   3.239   0.908 -2.2074  2.5593 -2.4165
 6982SOL     OW21915   2.555   1.103   6.666  0.1079  0.1421 -0.5501
 6982SOL    HW121916   2.508   1.174   6.710 -0.0823  0.0554 -0.6142
 6982SOL    HW221917   2.580   1.044   6.736 -0.4713 -0.1582 -0.5922
 6983SOL     OW21918   6.412   1.463   3.883  0.3287  0.6209  0.5379
 6983SOL    HW121919   6.333   1.412   3.899  1.1277 -0.3606  1.4450
 6983SOL    HW221920   6.484   1.408   3.915  1.2731  2.0377  0.9504
 6984SOL     OW21921   0.751   6.889   6.855  0.1107  0.0959  0.0070
 6984SOL    HW121922   0.847   6.895   6.861  0.0808  1.9832 -0.7081
 6984SOL    HW221923   0.733   6.892   6.762 -0.6809  0.2954  0.1638
 6985SOL     OW21924   2.743   7.238   6.615 -0.3212  0.3524  0.4430
 6985SOL    HW121925   2.738   7.144   6.634 -1.4479  0.3151  0.0585
 6985SOL    HW221926   2.802   7.273   6.681  1.0386 -0.7997 -0.1127
 6986SOL     OW21927   0.632   1.524   1.620 -0.2986 -0.1594  0.0413
 6986SOL    HW121928   0.665   1.458   1.559 -1.5362 -1.1489  0.4125
 6986SOL    HW221929   0.555   1.484   1.660 -0.6086  1.2050  0.8755
 6987SOL     OW21930   1.558   1.413   1.029 -0.1510  0.4345 -0.4123
 6987SOL    HW121931   1.591   1.339   1.079 -0.4842  1.9418  2.2406
 6987SOL    HW221932   1.464   1.400   1.025 -0.4510  1.4565  1.6099
 6988SOL     OW21933   1.393   6.857   6.211 -0.3842  0.1134 -0.1334
 6988SOL    HW121934   1.470   6.884   6.160 -0.0888 -0.3414  0.0708
 6988SOL    HW221935   1.388   6.921   6.282 -0.8083  0.7610 -0.7403
 6989SOL     OW21936   0.412   2.083   3.839  0.5383  0.4579  0.0984
 6989SOL    HW121937   0.399   2.111   3.930  2.0086  2.1804 -0.1540
 6989SOL    HW221938   0.500   2.114   3.818 -0.2895  1.3717 -2.3546
 6990SOL     OW21939   3.311   1.155   5.285  0.2955  0.8852  0.0848
 6990SOL    HW121940   3.226   1.127   5.319 -0.4469 -0.3074 -2.5137
 6990SOL    HW221941   3.289   1.222   5.220  1.2023 -0.1510 -1.3475
 6991SOL     OW21942   1.949   2.004   3.763 -0.2899  0.2247 -0.1180
 6991SOL    HW121943   1.917   2.092   3.743 -0.7312  0.6313  2.1294
 6991SOL    HW221944   2.017   1.987   3.698  0.1100  2.3979 -0.3270
 6992SOL     OW21945   5.231   7.130   2.482 -0.0385 -0.1422  0.1421
 6992SOL    HW121946   5.266   7.103   2.567  3.2519 -1.2439 -1.4144
 6992SOL    HW221947   5.251   7.224   2.477  2.0774 -0.5586 -0.3191
 6993SOL     OW21948   4.327   4.293   1.070 -0.6874 -0.4397  0.9032
 6993SOL    HW121949   4.251   4.350   1.079 -1.2467 -1.1311  0.6754
 6993SOL    HW221950   4.321   4.233   1.145 -0.7050 -0.8720  0.5635
 6994SOL     OW21951   7.193   1.856   5.527 -0.3837 -0.7946 -0.0089
 6994SOL    HW121952   7.159   1.770   5.552 -2.0099 -1.2171 -3.1633
 6994SOL    HW221953   7.135   1.918   5.571 -1.8893 -1.4397 -0.9913
 6995SOL     OW21954   1.383   2.533   5.060 -0.0256 -0.0629  0.0643
 6995SOL    HW121955   1.389   2.501   4.970  3.2282 -2.0499  0.8150
 6995SOL    HW221956   1.363   2.456   5.112  1.6724  0.2757  1.3253
 6996SOL     OW21957   2.357   6.270   6.806  0.4524 -0.4533 -0.6370
 6996SOL    HW121958   2.350   6.323   6.727 -1.2876  0.3837  0.0039
 6996SOL    HW221959   2.388   6.332   6.873  0.8885 -0.8855 -0.4383
 6997SOL     OW21960   2.100   4.950   6.207  0.3940  0.4532 -0.1384
 6997SOL    HW121961   2.189   4.915   6.211  0.7451  1.4401  1.6332
 6997SOL    HW221962   2.070   4.949   6.297 -1.4699  0.0043 -0.7354
 6998SOL     OW21963   2.310   1.202   3.187 -0.2131  0.1586 -0.1391
 6998SOL    HW121964   2.405   1.188   3.184  0.1621  2.0770  1.2143
 6998SOL    HW221965   2.274   1.113   3.188  1.5819 -0.6267 -0.1575
 6999SOL     OW21966   0.097   5.410   1.688 -0.3154  0.0038  0.2388
 6999SOL    HW121967   0.159   5.339   1.672 -1.3783 -0.4990 -2.1375
 6999SOL    HW221968   0.011   5.369   1.688 -0.7660  0.7741  2.9199
 7000SOL     OW21969   3.288   2.649   5.678 -0.7285 -0.1503  0.5245
 7000SOL    HW121970   3.198   2.681   5.671 -0.5316  0.0318 -2.3610
 7000SOL    HW221971   3.341   2.729   5.679 -0.5171 -0.2930  0.7849
 7001SOL     OW21972   3.534   2.955   6.583  0.0786 -0.7408 -0.0190
 7001SOL    HW121973   3.543   2.963   6.678 -0.4215 -0.3158 -0.0006
 7001SOL    HW221974   3.486   2.873   6.570 -2.5384  0.6590  0.2726
 7002SOL     OW21975   5.389   3.041   3.007  0.4432 -0.0129  0.0839
 7002SOL    HW121976   5.303   3.040   3.049  0.5825 -0.1189  0.3704
 7002SOL    HW221977   5.371   3.048   2.913  0.1188 -0.2882  0.1271
 7003SOL     OW21978   3.671   3.520   0.266 -0.2913  0.0554 -0.1375
 7003SOL    HW121979   3.693   3.527   0.173  1.1707  0.8316  0.2360
 7003SOL    HW221980   3.672   3.426   0.284  1.0553 -0.0337 -0.5668
 7004SOL     OW21981   1.949   0.039   1.674 -0.8123  0.0552 -0.2889
 7004SOL    HW121982   2.021   0.055   1.735 -1.5856  0.6365  0.4897
 7004SOL    HW221983   1.927  -0.053   1.688 -0.5580  0.0122 -0.1574
 7005SOL     OW21984   6.808   6.490   5.852 -0.1696 -0.4951 -0.2537
 7005SOL    HW121985   6.808   6.582   5.824 -0.6660 -0.2467  0.5199
 7005SOL    HW221986   6.886   6.452   5.812  0.8279  0.6239  0.5473
 7006SOL     OW21987   2.895   7.065   5.937 -0.5191 -0.0664 -0.2985
 7006SOL    HW121988   2.809   7.079   5.898 -0.1132 -0.9626 -1.5875
 7006SOL    HW221989   2.924   6.980   5.903  0.9713  0.3171 -0.0872
 7007SOL     OW21990   4.354   1.589   2.322  0.2539 -0.1483 -0.1330
 7007SOL    HW121991   4.406   1.508   2.323  0.1856 -0.1929 -0.1935
 7007SOL    HW221992   4.285   1.572   2.257 -0.2785 -0.3685  0.4768
 7008SOL     OW21993   2.115   1.527   2.945  0.1339 -0.0055  0.2395
 7008SOL    HW121994   2.075   1.568   3.022 -0.5449 -1.6787  0.8439
 7008SOL    HW221995   2.198   1.492   2.976  0.1989 -0.0438  0.0252
 7009SOL     OW21996   0.020   6.134   0.022 -0.2599 -0.0659 -0.0700
 7009SOL    HW121997  -0.055   6.100   0.072 -0.9127  2.3958  0.7990
 7009SOL    HW221998   0.096   6.117   0.078 -0.7623  1.0575  1.0178
 7010SOL     OW21999   3.049   6.632   7.201  0.2984 -0.0799 -0.5350
 7010SOL    HW122000   2.962   6.591   7.198  0.3515 -0.1728 -0.8488
 7010SOL    HW222001   3.108   6.565   7.167  0.1768  0.7904 -2.6450
 7011SOL     OW22002   3.443   2.788   5.976 -0.1423  0.2784 -0.3188
 7011SOL    HW122003   3.518   2.774   6.034  0.5162 -4.3145 -1.8212
 7011SOL    HW222004   3.477   2.844   5.906  1.7833 -1.0867 -0.5792
 7012SOL     OW22005   4.990   5.067   0.029 -0.2883  0.8463  0.2625
 7012SOL    HW122006   5.039   5.050  -0.051  0.0255 -0.3798  0.6917
 7012SOL    HW222007   4.941   4.986   0.044 -0.6969  1.2341  1.0645
 7013SOL     OW22008   3.869   2.659   3.894  0.1587  0.4432 -0.7504
 7013SOL    HW122009   3.886   2.653   3.988 -1.8582  0.6080 -0.3300
 7013SOL    HW222010   3.896   2.748   3.870  1.9141 -0.0345 -0.6279
 7014SOL     OW22011   3.595   5.837   4.517  0.3639 -0.0134  0.0077
 7014SOL    HW122012   3.526   5.773   4.535 -1.4796  1.3173 -1.9000
 7014SOL    HW222013   3.650   5.795   4.450 -1.1125  0.4761 -1.5918
 7015SOL     OW22014   5.473   3.950   7.160  0.2345  0.5907  0.4706
 7015SOL    HW122015   5.386   3.950   7.121  1.6493  0.0833 -3.1371
 7015SOL    HW222016   5.466   3.888   7.233 -2.0759 -0.6491 -0.6671
 7016SOL     OW22017   0.049   4.784   0.709  0.1558  0.5216 -0.0060
 7016SOL    HW122018   0.137   4.794   0.745 -0.1778  0.5343  0.8303
 7016SOL    HW222019  -0.008   4.789   0.785 -0.4787 -1.0106 -0.3649
 7017SOL     OW22020   2.442   6.950   4.425  0.7284  0.3820  0.2459
 7017SOL    HW122021   2.485   6.888   4.366 -0.1424  0.1061 -0.1164
 7017SOL    HW222022   2.421   7.024   4.369  0.7772  0.5406  0.4365
 7018SOL     OW22023   1.230   0.571   6.475  0.1496  0.2225  0.0901
 7018SOL    HW122024   1.226   0.528   6.389  0.7298 -1.7204  0.9899
 7018SOL    HW222025   1.138   0.581   6.500 -0.2350  3.7457 -2.0506
 7019SOL     OW22026   5.577   2.875   3.154 -0.6030  0.2225 -0.0883
 7019SOL    HW122027   5.553   2.835   3.238  0.4409  0.5048  0.3534
 7019SOL    HW222028   5.506   2.937   3.136 -1.2341 -0.3953  0.1847
 7020SOL     OW22029   3.333   4.509   4.707 -0.3253 -0.4752  0.1256
 7020SOL    HW122030   3.289   4.582   4.664  0.0247  0.0316  0.6047
 7020SOL    HW222031   3.269   4.438   4.707 -0.4952 -0.3319 -0.7944
 7021SOL     OW22032   3.274   3.431   7.340 -0.2119  0.4291 -0.3282
 7021SOL    HW122033   3.341   3.426   7.272 -0.4583 -1.8499 -0.4735
 7021SOL    HW222034   3.300   3.366   7.405 -2.0434 -0.2626 -0.2167
 7022SOL     OW22035   1.346   4.410   3.228 -0.1446  0.5395 -0.3025
 7022SOL    HW122036   1.375   4.320   3.245  3.2101  1.2563 -1.5095
 7022SOL    HW222037   1.298   4.404   3.145 -2.1546 -0.4080  0.8387
 7023SOL     OW22038   4.465   2.601   4.624  0.2924  0.1148 -0.1999
 7023SOL    HW122039   4.478   2.513   4.588  1.8200 -0.1415  0.8709
 7023SOL    HW222040   4.415   2.587   4.704  1.4686  0.0686  0.5495
 7024SOL     OW22041   7.343   5.784   5.981  0.1025  0.2948 -0.2361
 7024SOL    HW122042   7.354   5.696   6.018 -0.9220  0.7846  1.3548
 7024SOL    HW222043   7.411   5.837   6.025 -0.5743  0.7054  0.3352
 7025SOL     OW22044   1.678   0.883   5.660 -0.0960  0.3505  0.7510
 7025SOL    HW122045   1.703   0.830   5.736 -1.2191  1.9595  2.3206
 7025SOL    HW222046   1.729   0.847   5.588  1.1012 -1.1695  2.2787
 7026SOL     OW22047   6.580   6.975   0.996 -0.0685  0.2574  0.5257
 7026SOL    HW122048   6.642   6.958   0.925 -0.2059 -0.0847  0.4852
 7026SOL    HW222049   6.600   7.064   1.024  1.2082 -0.2424  1.2768
 7027SOL     OW22050   3.972   3.951   1.374  0.3059 -0.0955  0.5006
 7027SOL    HW122051   4.014   3.908   1.299 -1.1176  0.3182 -0.5875
 7027SOL    HW222052   3.900   3.893   1.398  0.5449 -0.0513  1.3420
 7028SOL     OW22053   5.319   3.791   5.147  0.7058 -0.0382  0.2049
 7028SOL    HW122054   5.403   3.837   5.137  0.5588  0.2509  0.2693
 7028SOL    HW222055   5.318   3.761   5.238  0.6015  0.2420  0.2991
 7029SOL     OW22056   5.216   0.864   3.547 -0.1205 -1.4480  0.4898
 7029SOL    HW122057   5.220   0.870   3.642 -1.8198 -2.2852  0.6468
 7029SOL    HW222058   5.280   0.796   3.524  0.2266 -1.3076  1.0177
 7030SOL     OW22059   0.853   5.341   6.003  0.2189  0.7908 -0.2538
 7030SOL    HW122060   0.904   5.299   5.934  2.3975  0.8506  1.1973
 7030SOL    HW222061   0.848   5.433   5.976 -1.4790  0.3072 -1.7016
 7031SOL     OW22062   6.081   1.499   6.426 -0.7561 -0.7268  0.2431
 7031SOL    HW122063   6.157   1.465   6.378 -0.2798 -0.0367  0.5001
 7031SOL    HW222064   6.092   1.594   6.425 -3.2227 -0.3069 -2.4260
 7032SOL     OW22065   2.295   0.695   4.667  0.4511  0.3618 -0.2348
 7032SOL    HW122066   2.217   0.715   4.719  1.3984 -0.5795  1.6144
 7032SOL    HW222067   2.278   0.607   4.632  0.2272  0.6104 -0.7699
 7033SOL     OW22068   4.621   2.686   3.618  0.5477 -0.7809 -0.3808
 7033SOL    HW122069   4.665   2.761   3.579  0.8129 -0.4695  0.4959
 7033SOL    HW222070   4.692   2.626   3.643  0.4185 -0.7411  0.0949
 7034SOL     OW22071   6.415   6.275   2.809 -0.2218  0.6903  0.3110
 7034SOL    HW122072   6.488   6.315   2.762  0.5209 -1.4467 -0.5126
 7034SOL    HW222073   6.441   6.277   2.901  1.1532 -0.4357 -0.0083
 7035SOL     OW22074   5.036   2.457   1.899  0.2893 -0.0753  1.0623
 7035SOL    HW122075   5.068   2.479   1.811 -1.0346  0.1249  0.6001
 7035SOL    HW222076   5.050   2.363   1.907  2.6475  0.2621  1.6214
 7036SOL     OW22077   4.618   4.156   6.182  0.3683  0.2427 -0.0205
 7036SOL    HW122078   4.634   4.062   6.188  1.1082  0.1836 -2.1690
 7036SOL    HW222079   4.657   4.192   6.262  2.2310 -1.0288 -0.2951
 7037SOL     OW22080   2.285   0.332   2.373  0.1944  0.3236 -0.2010
 7037SOL    HW122081   2.209   0.346   2.430 -1.1845 -1.6759 -1.4130
 7037SOL    HW222082   2.330   0.256   2.411 -1.0775 -1.4262 -1.9342
 7038SOL     OW22083   2.232   6.861   0.141 -0.0432  0.0424 -0.1806
 7038SOL    HW122084   2.200   6.935   0.194 -0.4708 -1.6217  2.0275
 7038SOL    HW222085   2.152   6.817   0.112  0.1860 -1.1092  0.8765
 7039SOL     OW22086   2.203   6.722   1.718  0.3902 -0.1398 -0.0734
 7039SOL    HW122087   2.143   6.792   1.693 -2.6633 -2.7259 -0.5507
 7039SOL    HW222088   2.182   6.703   1.809 -0.2694 -1.7182 -0.5266
 7040SOL     OW22089   7.219   1.273   4.442  0.3793 -0.3170 -1.1029
 7040SOL    HW122090   7.154   1.340   4.420 -0.1916  0.1219  1.5362
 7040SOL    HW222091   7.167   1.194   4.460  0.8734 -0.8842 -2.0965
 7041SOL     OW22092   4.396   0.068   1.976  0.0562 -0.3248 -0.0783
 7041SOL    HW122093   4.339   0.058   2.052 -0.4176  0.2276 -0.3583
 7041SOL    HW222094   4.363   0.145   1.931 -1.0812 -1.9021 -2.0791
 7042SOL     OW22095   0.948   1.542   4.222  0.0750 -0.5025 -0.0256
 7042SOL    HW122096   0.931   1.635   4.209 -0.5728 -0.5982  0.1243
 7042SOL    HW222097   1.030   1.526   4.174 -0.6180 -0.1851 -1.3792
 7043SOL     OW22098   7.381   7.199   3.351 -0.2941 -0.2363 -0.2009
 7043SOL    HW122099   7.410   7.243   3.431 -2.9161  0.0349  0.7030
 7043SOL    HW222100   7.360   7.271   3.291 -0.8507 -0.3291 -0.1303
 7044SOL     OW22101   0.628   0.832   3.809  0.2053  0.8706 -0.1701
 7044SOL    HW122102   0.662   0.921   3.815  0.5399  0.7113  0.5273
 7044SOL    HW222103   0.688   0.787   3.750  1.2645  0.5914  1.0540
 7045SOL     OW22104   3.605   1.359   2.752 -0.2691  0.3307  0.8696
 7045SOL    HW122105   3.671   1.341   2.819  0.0246 -0.0041  0.4954
 7045SOL    HW222106   3.536   1.295   2.769 -0.3316  0.4420  1.0364
 7046SOL     OW22107   0.821   5.065   4.982  0.0572 -0.3250  0.1211
 7046SOL    HW122108   0.868   5.026   4.908 -0.7052  0.3479 -0.7487
 7046SOL    HW222109   0.756   5.123   4.941 -0.5105 -0.0836  1.3197
 7047SOL     OW22110   1.145   4.469   1.179  0.4442  0.7172  0.1103
 7047SOL    HW122111   1.213   4.454   1.245  0.8922  0.8549 -0.3098
 7047SOL    HW222112   1.147   4.564   1.164 -1.1410  0.9884  1.4573
 7048SOL     OW22113   3.041   3.650   6.738 -0.0660 -0.0355  0.2952
 7048SOL    HW122114   2.979   3.717   6.768 -0.7699 -1.0696  1.2248
 7048SOL    HW222115   2.986   3.576   6.713  0.6796 -0.1196 -1.1698
 7049SOL     OW22116   0.289   5.798   0.307  0.2435 -0.0647  0.0375
 7049SOL    HW122117   0.307   5.709   0.338 -1.4160 -0.6993 -0.6740
 7049SOL    HW222118   0.195   5.809   0.320  0.2750  1.2723 -0.6909
 7050SOL     OW22119   0.127   2.869   3.337 -0.4529 -0.5679  0.0970
 7050SOL    HW122120   0.126   2.836   3.247 -1.3936  1.8126 -0.8472
 7050SOL    HW222121   0.156   2.960   3.329 -0.3713 -0.3563  2.2428
 7051SOL     OW22122   2.758   1.775   3.461 -0.2689 -0.1895 -0.2234
 7051SOL    HW122123   2.778   1.856   3.414  0.2999 -0.0067  0.3152
 7051SOL    HW222124   2.840   1.726   3.461  0.1053  0.3789  1.6556
 7052SOL     OW22125   5.747   6.704   0.916 -0.1664 -0.4705  0.5144
 7052SOL    HW122126   5.664   6.747   0.940  0.1547 -0.7892  2.3047
 7052SOL    HW222127   5.720   6.633   0.857 -0.9318  0.6857 -0.6080
 7053SOL     OW22128   4.394   0.835   1.659  0.0727 -0.5586 -0.2446
 7053SOL    HW122129   4.444   0.763   1.697 -0.2720 -2.2197 -2.7552
 7053SOL    HW222130   4.303   0.817   1.685  0.0325 -0.8274 -0.5722
 7054SOL     OW22131   6.963   6.674   4.472 -0.7047 -0.4313 -0.1493
 7054SOL    HW122132   6.945   6.599   4.529  0.7351 -0.8095 -0.1608
 7054SOL    HW222133   6.977   6.636   4.385  0.3717 -0.2070 -0.0904
 7055SOL     OW22134   0.656   5.715   6.761  0.0762  0.2797 -0.3934
 7055SOL    HW122135   0.664   5.780   6.831  0.3737 -1.1865  0.9721
 7055SOL    HW222136   0.565   5.685   6.767  0.7490 -1.5906  0.9862
 7056SOL     OW22137   3.560   5.616   6.928 -0.4853  0.4670  0.4075
 7056SOL    HW122138   3.627   5.632   6.995  1.1220 -0.5379 -0.8684
 7056SOL    HW222139   3.572   5.524   6.904 -1.3066  0.6905 -0.9593
 7057SOL     OW22140   7.262   0.906   6.642 -0.4401  0.0213  0.0016
 7057SOL    HW122141   7.320   0.894   6.568  0.3951 -2.9023  0.9642
 7057SOL    HW222142   7.319   0.908   6.718 -1.4137  0.1049  0.7602
 7058SOL     OW22143   2.349   7.251   0.004  0.2404 -0.0826  0.1564
 7058SOL    HW122144   2.439   7.255   0.037  0.6060  0.1138 -0.8193
 7058SOL    HW222145   2.335   7.159  -0.016  0.0042 -0.2090  0.8660
 7059SOL     OW22146   2.674   6.800   4.675  0.4451 -0.7650  0.1301
 7059SOL    HW122147   2.581   6.812   4.693  0.8254 -1.3434  2.8589
 7059SOL    HW222148   2.677   6.735   4.605 -1.1999 -1.4178  0.6244
 7060SOL     OW22149   2.672   3.938   2.382  0.4319  0.7020 -0.0407
 7060SOL    HW122150   2.589   3.932   2.429 -0.2718 -1.2620 -1.4218
 7060SOL    HW222151   2.680   4.031   2.359  0.1910  1.5150  2.7259
 7061SOL     OW22152   4.411   0.624   4.111  0.1189 -0.2319  0.1777
 7061SOL    HW122153   4.318   0.608   4.098  0.3908 -0.0978 -2.7400
 7061SOL    HW222154   4.452   0.537   4.106  0.1924 -0.2805  1.3488
 7062SOL     OW22155   6.651   7.245   5.564  0.1819 -0.6723  0.1153
 7062SOL    HW122156   6.712   7.171   5.564  0.8328 -0.1497  0.3350
 7062SOL    HW222157   6.636   7.264   5.657  0.8928  0.1619  0.0742
 7063SOL     OW22158   5.319   3.660   1.771 -0.0324 -1.0148 -0.7168
 7063SOL    HW122159   5.238   3.688   1.729  1.2098 -0.2624 -2.7386
 7063SOL    HW222160   5.340   3.730   1.833  0.0895 -0.2137 -1.6416
 7064SOL     OW22161   1.181   6.900   6.034 -0.0828 -0.3961  0.2290
 7064SOL    HW122162   1.172   6.995   6.023  2.5780 -0.0989  0.0122
 7064SOL    HW222163   1.244   6.890   6.105  1.9574 -1.8995 -1.6620
 7065SOL     OW22164   3.115   0.139   5.273 -0.2398 -0.7779  0.6624
 7065SOL    HW122165   3.091   0.046   5.279 -1.7311 -0.5176 -0.5564
 7065SOL    HW222166   3.058   0.182   5.337  0.1773 -0.6417  0.9485
 7066SOL     OW22167   1.582   4.082   3.895  0.1884 -0.2508  0.2432
 7066SOL    HW122168   1.567   4.108   3.986  1.6537 -0.1206  0.4736
 7066SOL    HW222169   1.668   4.039   3.897  0.5091  0.3015 -1.1925
 7067SOL     OW22170   0.435   2.527   2.783  0.1089 -0.0602  0.5206
 7067SOL    HW122171   0.517   2.501   2.825 -1.3418 -3.1930  1.7242
 7067SOL    HW222172   0.456   2.529   2.689  1.2798 -2.3351  0.6583
 7068SOL     OW22173   0.633   1.933   2.171 -0.3868  0.2369  1.0903
 7068SOL    HW122174   0.686   1.853   2.162 -0.6265  0.1492  0.3888
 7068SOL    HW222175   0.597   1.928   2.260  0.0490 -0.1576  1.2489
 7069SOL     OW22176   2.747   1.558   6.562  0.1698  0.5790  0.1032
 7069SOL    HW122177   2.787   1.489   6.510 -0.3287  0.6130 -0.3377
 7069SOL    HW222178   2.729   1.629   6.500  0.0241  0.8218  0.4156
 7070SOL     OW22179   2.270   3.440   6.590  0.5757 -0.1362  0.0228
 7070SOL    HW122180   2.217   3.509   6.549 -0.6991 -1.6726 -1.0308
 7070SOL    HW222181   2.356   3.449   6.548 -0.1466 -0.4091 -1.6029
 7071SOL     OW22182   4.155   1.538   0.842  0.2808 -0.1310 -0.0097
 7071SOL    HW122183   4.093   1.556   0.912  1.0010 -1.8565  1.1162
 7071SOL    HW222184   4.101   1.516   0.766 -0.4917 -0.2892  0.5795
 7072SOL     OW22185   1.006   6.276   1.317  0.3823 -0.3189  0.1199
 7072SOL    HW122186   1.076   6.271   1.382 -0.0182  0.0138  0.5928
 7072SOL    HW222187   0.931   6.233   1.358 -0.0907  0.5304  0.1889
 7073SOL     OW22188   4.782   2.570   3.378 -0.2373  0.3692  0.4824
 7073SOL    HW122189   4.712   2.632   3.359  1.0949  2.1831  1.1940
 7073SOL    HW222190   4.743   2.507   3.439 -1.8950 -0.1307 -1.0034
 7074SOL     OW22191   4.715   6.312   1.409 -0.1897  0.1938  0.1972
 7074SOL    HW122192   4.724   6.311   1.504 -1.7313 -0.2627  0.3814
 7074SOL    HW222193   4.748   6.226   1.381  0.9055  0.5959  0.2336
 7075SOL     OW22194   0.279   1.345   3.517  0.0683 -0.3089 -0.2403
 7075SOL    HW122195   0.206   1.351   3.455 -0.4117 -1.2780  0.2228
 7075SOL    HW222196   0.286   1.434   3.553  0.0667  0.1623 -1.3319
 7076SOL     OW22197   6.654   6.532   4.434  0.0873  0.5967  0.1478
 7076SOL    HW122198   6.620   6.504   4.349  1.0848  1.6080 -0.6147
 7076SOL    HW222199   6.629   6.624   4.441 -1.2204  0.1753  1.6191
 7077SOL     OW22200   2.386   3.086   5.772 -0.0057  0.0257 -0.0391
 7077SOL    HW122201   2.476   3.067   5.799 -0.8805 -1.2491  2.2936
 7077SOL    HW222202   2.337   3.008   5.799 -1.9405  1.0363 -0.5236
 7078SOL     OW22203   7.083   3.216   3.494  0.3977 -0.1630  0.0100
 7078SOL    HW122204   7.143   3.277   3.536 -0.5695 -0.2702  1.6364
 7078SOL    HW222205   7.131   3.133   3.494  0.4897 -0.1230  0.7842
 7079SOL     OW22206   5.285   2.671   1.089  0.1151 -0.0082 -0.0731
 7079SOL    HW122207   5.256   2.605   1.026  1.1840 -0.0034 -0.5929
 7079SOL    HW222208   5.377   2.686   1.068 -0.2755  2.2119 -0.4576
 7080SOL     OW22209   4.531   4.582   5.109 -0.3626 -0.0842  0.1786
 7080SOL    HW122210   4.585   4.506   5.086  0.7986  0.6182  0.5043
 7080SOL    HW222211   4.544   4.644   5.038 -1.4731 -0.2516 -0.1905
 7081SOL     OW22212   5.535   1.903   0.806  0.1612  0.1336  0.2084
 7081SOL    HW122213   5.599   1.966   0.773  0.5226 -0.2412  0.1809
 7081SOL    HW222214   5.484   1.877   0.729  0.9935 -0.7299 -0.0754
 7082SOL     OW22215   2.115   5.999   6.879  0.2415 -0.2361 -1.2195
 7082SOL    HW122216   2.197   5.964   6.845  1.4976 -0.6316  1.9325
 7082SOL    HW222217   2.120   6.093   6.863  1.4353 -0.2302 -0.8862
 7083SOL     OW22218   0.482   4.842   6.195  0.2326  0.1789  0.4249
 7083SOL    HW122219   0.491   4.878   6.283  0.5443 -2.9766  1.8155
 7083SOL    HW222220   0.394   4.806   6.192 -0.1817  1.2382 -1.0050
 7084SOL     OW22221   2.825   5.465   4.574  0.3050  0.0641  0.0933
 7084SOL    HW122222   2.811   5.544   4.626  0.0591  0.5743 -0.7162
 7084SOL    HW222223   2.892   5.416   4.621  0.2122  0.5941  0.7843
 7085SOL     OW22224   0.431   0.818   1.714 -0.8660 -0.3153 -0.3733
 7085SOL    HW122225   0.439   0.855   1.626 -2.0907  0.5104 -0.1686
 7085SOL    HW222226   0.399   0.891   1.768  0.8523 -0.5145  1.0049
 7086SOL     OW22227   4.893   0.717   0.243 -0.1606 -0.2888 -0.5253
 7086SOL    HW122228   4.838   0.789   0.274 -1.8609 -1.4690 -0.6625
 7086SOL    HW222229   4.855   0.692   0.159  1.0594 -0.6660 -0.9881
 7087SOL     OW22230   6.863   0.583   6.797 -0.0818 -0.1550  0.8165
 7087SOL    HW122231   6.934   0.629   6.751  0.3582 -0.7711  0.8750
 7087SOL    HW222232   6.813   0.540   6.727 -0.9166  0.9639  0.6912
 7088SOL     OW22233   0.696   0.381   2.014 -0.4411  1.5147 -0.2941
 7088SOL    HW122234   0.610   0.350   2.044 -0.4435  1.2679 -0.5506
 7088SOL    HW222235   0.676   0.436   1.938 -0.1952 -0.9697 -2.2788
 7089SOL     OW22236   2.436   1.155   4.269 -1.3500 -0.2789 -0.5016
 7089SOL    HW122237   2.429   1.181   4.361  1.0282 -0.8615 -0.0849
 7089SOL    HW222238   2.405   1.064   4.268 -2.2000  0.0011 -0.4648
 7090SOL     OW22239   0.193   1.124   1.101 -0.8229 -0.0435  0.1089
 7090SOL    HW122240   0.260   1.070   1.143  0.5496  0.3655 -1.4658
 7090SOL    HW222241   0.124   1.131   1.167  0.7279 -0.3577  1.8597
 7091SOL     OW22242   3.406   3.421   2.270 -0.0441 -0.3049  0.5093
 7091SOL    HW122243   3.346   3.348   2.260 -0.2286 -0.0533 -0.2578
 7091SOL    HW222244   3.492   3.380   2.280 -0.2485 -0.6404  0.9479
 7092SOL     OW22245   3.619   5.975   2.853 -0.2278 -0.4280  0.3344
 7092SOL    HW122246   3.576   6.060   2.858 -0.8826 -0.7541  0.3237
 7092SOL    HW222247   3.551   5.915   2.825  0.4350 -0.8097 -0.5132
 7093SOL     OW22248   7.281   7.251   7.237 -0.4088  0.1503 -0.3707
 7093SOL    HW122249   7.358   7.194   7.242 -0.1466  0.5264 -0.0945
 7093SOL    HW222250   7.297   7.305   7.159  0.3558  1.2903  0.5377
 7094SOL     OW22251   4.138   7.042   6.312 -0.3635  0.7572 -0.3738
 7094SOL    HW122252   4.203   7.021   6.379  1.9961 -0.0294 -2.7262
 7094SOL    HW222253   4.091   6.960   6.298  1.8326 -0.2754 -2.3200
 7095SOL     OW22254   1.540   2.833   6.589 -0.4903  0.1016  0.5827
 7095SOL    HW122255   1.485   2.871   6.521  1.1127  0.6712 -0.4495
 7095SOL    HW222256   1.586   2.761   6.546  1.6354  1.3557  0.5766
 7096SOL     OW22257   1.487   1.527   5.987  1.2419  0.2610  0.4910
 7096SOL    HW122258   1.470   1.615   6.019  2.4832  1.2629 -1.3979
 7096SOL    HW222259   1.581   1.527   5.966  0.6044 -0.2530 -2.9689
 7097SOL     OW22260   0.025   6.413   0.065 -0.2731  0.3008 -0.2991
 7097SOL    HW122261   0.013   6.319   0.055 -0.2325  0.2715 -0.0819
 7097SOL    HW222262   0.090   6.436  -0.001  0.5825 -0.0192  0.4162
 7098SOL     OW22263   6.584   2.965   6.887 -0.4889 -0.4031 -0.1813
 7098SOL    HW122264   6.583   2.883   6.838  0.6273 -0.4080 -0.2200
 7098SOL    HW222265   6.513   3.017   6.848 -0.4130 -0.8780 -0.9757
 7099SOL     OW22266   6.720   4.064   0.039 -0.4772  0.1043  0.3804
 7099SOL    HW122267   6.800   4.023   0.007  1.1678  2.1723  1.5956
 7099SOL    HW222268   6.656   3.993   0.041  1.5912 -1.8730  0.3078
 7100SOL     OW22269   0.647   3.812   5.450  0.9019 -0.5037 -0.2921
 7100SOL    HW122270   0.596   3.798   5.370 -0.2688  1.2361  0.1082
 7100SOL    HW222271   0.719   3.869   5.423  2.2926 -2.3327 -0.6873
 7101SOL     OW22272   1.192   5.379   6.249 -0.1063 -0.3207 -0.2550
 7101SOL    HW122273   1.279   5.347   6.228 -1.3606 -2.9716 -2.0159
 7101SOL    HW222274   1.199   5.411   6.339  2.2845 -2.0480  0.2614
 7102SOL     OW22275   6.192   6.430   1.755  0.4388 -0.4563  0.0898
 7102SOL    HW122276   6.283   6.461   1.750  0.7160 -1.1995  0.2893
 7102SOL    HW222277   6.156   6.447   1.669  0.9346 -0.6240 -0.1558
 7103SOL     OW22278   1.766   3.734   5.147 -0.2807  0.0650 -0.0515
 7103SOL    HW122279   1.839   3.784   5.184 -0.8716  1.5000 -0.7457
 7103SOL    HW222280   1.807   3.657   5.107  0.7880  0.5817  0.0169
 7104SOL     OW22281   6.500   4.165   6.913 -0.2131 -0.2489 -0.0829
 7104SOL    HW122282   6.463   4.236   6.861  0.7914  0.0388 -0.4167
 7104SOL    HW222283   6.447   4.089   6.890  0.6692 -0.3039 -2.1295
 7105SOL     OW22284   3.719   1.202   3.156 -0.3420  0.1036  0.1570
 7105SOL    HW122285   3.745   1.211   3.247  0.7722 -0.5935 -0.0668
 7105SOL    HW222286   3.650   1.267   3.144 -2.2458 -1.4283  2.1267
 7106SOL     OW22287   2.792   1.258   2.733  0.2182  0.0275 -0.3043
 7106SOL    HW122288   2.725   1.322   2.708 -0.0536 -0.0260  0.2667
 7106SOL    HW222289   2.750   1.173   2.719  1.3716 -0.1562 -3.3641
 7107SOL     OW22290   4.241   5.003   6.549  0.3256 -0.0921  0.2879
 7107SOL    HW122291   4.198   5.073   6.500 -0.9144 -2.7029 -2.6971
 7107SOL    HW222292   4.335   5.023   6.541  0.0147  1.1879 -0.4857
 7108SOL     OW22293   6.996   2.457   1.052  0.5488 -0.5161  0.1695
 7108SOL    HW122294   7.017   2.364   1.058  0.3583 -0.4757  1.7630
 7108SOL    HW222295   6.918   2.460   0.996 -2.2488 -1.8422  3.6276
 7109SOL     OW22296   1.013   0.066   2.686  0.6814 -0.6527  0.4621
 7109SOL    HW122297   1.001   0.036   2.596 -1.2849 -0.8598  0.7548
 7109SOL    HW222298   1.074   0.140   2.679  0.9308 -0.9643 -0.9618
 7110SOL     OW22299   3.343   0.521   1.158 -0.2162 -0.4264 -0.0696
 7110SOL    HW122300   3.307   0.582   1.094 -0.9855 -1.4000 -0.6037
 7110SOL    HW222301   3.298   0.438   1.140 -0.3992 -0.7538  1.6860
 7111SOL     OW22302   6.077   6.234   6.903  0.2072 -0.0378  0.0534
 7111SOL    HW122303   6.104   6.303   6.963  0.2280 -0.0070  0.0087
 7111SOL    HW222304   6.029   6.172   6.958  1.5295 -0.7887  0.4094
 7112SOL     OW22305   6.848   1.123   1.781  0.3575  0.3345 -0.0264
 7112SOL    HW122306   6.754   1.102   1.785  0.5687 -0.5384  0.5214
 7112SOL    HW222307   6.851   1.218   1.788 -0.4127  0.2776  1.4561
 7113SOL     OW22308   5.596   6.777   4.961 -0.1652 -0.2269  0.1218
 7113SOL    HW122309   5.501   6.786   4.961 -0.2926 -1.0690 -1.7861
 7113SOL    HW222310   5.613   6.707   4.898  1.7175 -0.1335  0.4788
 7114SOL     OW22311   0.663   0.230   5.650 -0.2294 -0.3969 -0.2210
 7114SOL    HW122312   0.572   0.202   5.639 -0.5789  0.8362 -0.6483
 7114SOL    HW222313   0.676   0.233   5.745 -0.9643  0.3722 -0.1318
 7115SOL     OW22314   6.273   5.880   0.131 -0.1049  0.3130  0.1245
 7115SOL    HW122315   6.329   5.953   0.104 -1.5308  1.2993 -0.2907
 7115SOL    HW222316   6.231   5.909   0.211 -0.5073 -0.1432  0.0883
 7116SOL     OW22317   0.416   5.796   5.372 -0.4662 -0.3553 -0.7056
 7116SOL    HW122318   0.433   5.891   5.373 -1.9624 -0.0533  0.7165
 7116SOL    HW222319   0.335   5.787   5.322  0.4939 -1.0891 -2.1800
 7117SOL     OW22320   2.907   1.945   1.473  0.0757  0.5767 -0.1116
 7117SOL    HW122321   2.885   2.008   1.542 -1.2864  0.4123 -0.3740
 7117SOL    HW222322   2.961   1.996   1.411 -1.8887  1.8599 -0.8820
 7118SOL     OW22323   6.898   1.753   3.635 -0.4867  0.1514  0.6959
 7118SOL    HW122324   6.947   1.777   3.713  2.4108 -0.0045 -0.9331
 7118SOL    HW222325   6.896   1.833   3.582 -0.7159 -0.2303  0.1073
 7119SOL     OW22326   2.335   6.959   5.752  0.0443  0.1215 -0.6702
 7119SOL    HW122327   2.311   6.904   5.827  1.0215  1.3406  0.6031
 7119SOL    HW222328   2.430   6.959   5.752  0.0666  1.3953 -0.9293
 7120SOL     OW22329   4.775   1.189   6.275 -0.0290 -0.5433  0.1606
 7120SOL    HW122330   4.680   1.198   6.275 -0.0363 -0.1848 -1.6739
 7120SOL    HW222331   4.790   1.094   6.269 -0.2455 -0.6592  1.3741
 7121SOL     OW22332   2.844   2.970   3.191 -0.5230  0.3004 -0.1209
 7121SOL    HW122333   2.888   3.050   3.159 -0.2193  0.0063 -0.4515
 7121SOL    HW222334   2.765   2.964   3.138 -0.9483  0.8073  0.4455
 7122SOL     OW22335   4.052   5.191   3.029 -0.1238  0.1733  0.0989
 7122SOL    HW122336   4.064   5.153   3.116  0.7756 -0.5129 -0.3004
 7122SOL    HW222337   4.061   5.117   2.969  1.8920  0.9896 -0.7134
 7123SOL     OW22338   2.934   2.532   3.066  0.2731 -0.1458  0.8548
 7123SOL    HW122339   2.984   2.451   3.080 -1.3122 -1.0885  1.4144
 7123SOL    HW222340   2.861   2.525   3.127 -1.8430  0.0390 -1.5021
 7124SOL     OW22341   4.413   5.182   3.600  0.4305  0.5836  0.2447
 7124SOL    HW122342   4.465   5.203   3.522 -0.6318  0.8176 -0.4168
 7124SOL    HW222343   4.340   5.245   3.598 -1.5784 -1.6386 -0.5408
 7125SOL     OW22344   3.095   5.619   1.839  0.5928 -0.5112 -0.4978
 7125SOL    HW122345   3.190   5.625   1.855  0.7084 -0.1242 -1.2802
 7125SOL    HW222346   3.080   5.527   1.819  0.5619 -0.8650  1.0250
 7126SOL     OW22347   7.068   5.786   0.506  0.0888 -0.1058  0.0990
 7126SOL    HW122348   7.101   5.713   0.454  0.1111 -1.1082  1.4648
 7126SOL    HW222349   6.981   5.757   0.535  0.3312  0.1593  1.1257
 7127SOL     OW22350   1.063   5.257   5.822  0.1737  0.6963 -0.1254
 7127SOL    HW122351   1.092   5.334   5.872  1.7130  0.4386 -0.5643
 7127SOL    HW222352   1.015   5.294   5.748  0.8965  1.2590 -0.3321
 7128SOL     OW22353   7.037   5.424   4.450  0.0675  0.2034 -0.5577
 7128SOL    HW122354   7.069   5.353   4.505  1.7067  0.4154 -1.1726
 7128SOL    HW222355   6.962   5.387   4.403  0.3528 -0.8337 -0.2166
 7129SOL     OW22356   3.188   7.282   3.315  0.3527  0.0258 -0.0608
 7129SOL    HW122357   3.208   7.375   3.310  0.8287 -0.1556 -2.3466
 7129SOL    HW222358   3.261   7.239   3.271 -1.0065 -1.2516 -1.1574
 7130SOL     OW22359   5.055   3.751   2.166  0.2198 -0.5519 -0.0762
 7130SOL    HW122360   5.093   3.827   2.209 -0.8809 -0.4029  0.6651
 7130SOL    HW222361   5.125   3.686   2.166  0.1787 -0.6944  2.3053
 7131SOL     OW22362   3.141   5.271   3.702 -0.6722  0.3576 -0.2528
 7131SOL    HW122363   3.198   5.344   3.681  0.7673  0.0975  2.3090
 7131SOL    HW222364   3.067   5.310   3.749 -1.2388  0.3933 -1.1440
 7132SOL     OW22365   1.699   6.949   1.629  0.2902 -0.6903  0.1486
 7132SOL    HW122366   1.711   6.887   1.557 -0.6229  1.3618 -1.8962
 7132SOL    HW222367   1.619   6.996   1.606  0.4322  0.5965  2.0992
 7133SOL     OW22368   6.281   3.266   4.858  0.1763 -0.0983  0.2485
 7133SOL    HW122369   6.263   3.188   4.805 -1.5841  0.7309 -0.4254
 7133SOL    HW222370   6.273   3.235   4.949 -0.6145 -0.6855 -0.0115
 7134SOL     OW22371   7.309   3.778   4.861 -0.1866 -0.5095 -0.6064
 7134SOL    HW122372   7.259   3.839   4.916  0.8411 -0.5993  0.4571
 7134SOL    HW222373   7.255   3.767   4.783 -0.6569  1.3548 -0.6002
 7135SOL     OW22374   2.541   2.714   4.929 -0.3403  0.4399  0.2111
 7135SOL    HW122375   2.577   2.790   4.976 -1.6164  1.0503  0.2373
 7135SOL    HW222376   2.586   2.714   4.845 -1.1278  1.9111 -0.2329
 7136SOL     OW22377   5.112   3.458   4.327  0.0935 -0.0993 -0.0101
 7136SOL    HW122378   5.062   3.427   4.402  0.1879 -1.9204 -0.6252
 7136SOL    HW222379   5.049   3.458   4.255  0.4340 -0.1705 -0.3110
 7137SOL     OW22380   3.385   2.284   3.570 -0.1719  0.1543  0.0416
 7137SOL    HW122381   3.469   2.285   3.617  0.6253  0.0114 -1.3216
 7137SOL    HW222382   3.337   2.210   3.608  0.6621 -0.2803  0.2769
 7138SOL     OW22383   6.972   2.224   4.550  0.1792 -0.2680 -0.6704
 7138SOL    HW122384   6.877   2.230   4.553  0.2260  0.3300 -0.1770
 7138SOL    HW222385   7.002   2.315   4.542  0.6658 -0.5516 -2.8200
 7139SOL     OW22386   3.350   0.380   2.305  0.2634 -0.3071  0.3684
 7139SOL    HW122387   3.397   0.304   2.272 -0.8273 -0.2892 -1.3238
 7139SOL    HW222388   3.265   0.346   2.333 -0.2140  0.2454 -0.3603
 7140SOL     OW22389   6.708   4.343   1.380 -0.2941  0.6285 -0.6929
 7140SOL    HW122390   6.789   4.394   1.376  0.1276  0.1415  0.7683
 7140SOL    HW222391   6.645   4.392   1.327  0.5511  1.7731 -0.6649
 7141SOL     OW22392   0.313   3.707   6.238 -0.3380  0.2889 -0.3493
 7141SOL    HW122393   0.385   3.770   6.236  0.6736 -0.8448 -1.0895
 7141SOL    HW222394   0.238   3.758   6.269  1.1281  1.1518  2.1226
 7142SOL     OW22395   7.335   4.995   4.449 -0.0001  0.3685  0.0264
 7142SOL    HW122396   7.345   4.974   4.357  1.3297 -0.5721  0.3531
 7142SOL    HW222397   7.286   4.922   4.486  1.4218 -0.4258  0.4547
 7143SOL     OW22398   4.757   7.235   0.158 -0.1274  0.2227  0.2188
 7143SOL    HW122399   4.819   7.169   0.188  0.7073  0.3532 -1.1221
 7143SOL    HW222400   4.810   7.313   0.144 -0.8603  0.7707  0.4447
 7144SOL     OW22401   5.414   3.258   1.926  0.1852  0.0612  0.7794
 7144SOL    HW122402   5.391   3.166   1.926 -1.8377  0.5155 -0.1036
 7144SOL    HW222403   5.410   3.284   1.833 -1.6217  1.5264  1.2091
 7145SOL     OW22404   2.707   1.568   1.619 -0.1973 -0.1492  0.0066
 7145SOL    HW122405   2.683   1.591   1.708  3.4007 -0.1082  1.1084
 7145SOL    HW222406   2.721   1.473   1.622 -0.3969 -0.2035 -0.6218
 7146SOL     OW22407   5.824   7.126   7.325  0.0291  0.4551 -0.0955
 7146SOL    HW122408   5.833   7.044   7.276  0.1383  2.0048 -2.8942
 7146SOL    HW222409   5.915   7.154   7.341  0.0181 -0.4909  1.9830
 7147SOL     OW22410   1.401   3.888   4.474 -0.2369  0.1795 -0.9204
 7147SOL    HW122411   1.390   3.840   4.392 -0.9568 -2.1196  0.4208
 7147SOL    HW222412   1.327   3.860   4.528  0.6452  1.0173  0.7930
 7148SOL     OW22413   2.356   0.822   2.779 -0.1891 -0.8356 -0.1459
 7148SOL    HW122414   2.290   0.771   2.826  1.1400  0.0688  2.9404
 7148SOL    HW222415   2.437   0.773   2.792  0.2621 -0.5204 -1.5732
 7149SOL     OW22416   6.541   2.301   6.148 -0.7523 -0.7326 -0.3053
 7149SOL    HW122417   6.571   2.365   6.213 -2.1229  1.1494 -1.4359
 7149SOL    HW222418   6.622   2.266   6.110  0.0893  1.1496 -0.3770
 7150SOL     OW22419   6.859   4.757   2.524  0.0020  0.6156 -0.0853
 7150SOL    HW122420   6.936   4.732   2.575  1.2112  1.5231 -1.4113
 7150SOL    HW222421   6.799   4.793   2.590  0.4745 -0.5441  1.0361
 7151SOL     OW22422   6.286   5.552   3.297 -0.2687  0.2354  0.2795
 7151SOL    HW122423   6.324   5.625   3.347  0.0428  0.4849 -0.3017
 7151SOL    HW222424   6.192   5.565   3.302 -0.2171  2.0017 -1.6540
 7152SOL     OW22425   3.734   0.077   6.093 -0.5084 -0.0686 -0.4532
 7152SOL    HW122426   3.651   0.107   6.131 -1.5876 -1.5184 -1.5277
 7152SOL    HW222427   3.750   0.137   6.020 -2.4461 -1.6955 -2.3495
 7153SOL     OW22428   6.161   3.870   0.823  0.5524  0.3175  0.2327
 7153SOL    HW122429   6.118   3.820   0.754  1.5786  0.5004 -0.5623
 7153SOL    HW222430   6.090   3.902   0.878 -0.1475 -2.6373  1.2337
 7154SOL     OW22431   5.066   2.216   0.379 -0.3300 -0.1857  0.0505
 7154SOL    HW122432   5.153   2.246   0.355 -0.2187 -1.0199 -0.6448
 7154SOL    HW222433   5.015   2.223   0.298 -0.6283 -0.6649  0.1894
 7155SOL     OW22434   5.496   6.491   4.590 -0.2442  0.1999  0.1346
 7155SOL    HW122435   5.591   6.478   4.599 -0.1395 -0.8463 -1.9655
 7155SOL    HW222436   5.458   6.405   4.608 -0.7337  0.4135  0.1355
 7156SOL     OW22437   5.687   1.463   2.954 -0.0545 -0.1287  0.3766
 7156SOL    HW122438   5.595   1.478   2.975 -0.6214 -1.8632 -0.6959
 7156SOL    HW222439   5.687   1.428   2.865  1.8678  2.1534 -0.6395
 7157SOL     OW22440   4.164   3.322   4.469  0.0763 -0.7360 -0.5817
 7157SOL    HW122441   4.146   3.276   4.387 -1.0353 -0.5230 -0.4692
 7157SOL    HW222442   4.085   3.374   4.486  0.6655 -0.0442  0.1361
 7158SOL     OW22443   0.092   2.210   5.484 -0.3575  0.6427  0.1503
 7158SOL    HW122444   0.022   2.151   5.456 -1.3993  1.4082  1.0556
 7158SOL    HW222445   0.089   2.207   5.580  1.1573  0.3596  0.2109
 7159SOL     OW22446   1.675   5.008   5.138 -0.3766 -0.5654 -0.1547
 7159SOL    HW122447   1.726   4.938   5.099 -0.6839  1.0377 -3.7809
 7159SOL    HW222448   1.717   5.025   5.223  2.0810 -2.4683 -0.8975
 7160SOL     OW22449   3.430   2.141   4.386  0.1414  0.3280  0.2284
 7160SOL    HW122450   3.363   2.200   4.420 -0.3824  0.5066 -1.0362
 7160SOL    HW222451   3.413   2.138   4.291 -0.7134 -2.9127  0.3713
 7161SOL     OW22452   4.664   5.958   4.102  0.0703 -0.2615 -0.4235
 7161SOL    HW122453   4.718   5.881   4.085 -0.8725 -1.8676  2.8778
 7161SOL    HW222454   4.582   5.940   4.057  0.4387 -0.3962 -1.0466
 7162SOL     OW22455   2.039   3.064   3.864  0.1632 -0.3455 -0.0132
 7162SOL    HW122456   2.004   3.149   3.836  0.1053 -0.0355  0.9434
 7162SOL    HW222457   2.009   3.003   3.797  1.1417  0.5475 -1.3231
 7163SOL     OW22458   4.662   0.341   1.425  0.6841 -0.6103 -0.2380
 7163SOL    HW122459   4.600   0.282   1.381  0.4657 -0.7514  0.2467
 7163SOL    HW222460   4.748   0.304   1.406  0.6012 -0.5827 -0.6714
 7164SOL     OW22461   4.005   7.069   4.996 -0.4005  0.0165  0.3916
 7164SOL    HW122462   3.916   7.036   5.000 -0.8645  1.1170 -0.4019
 7164SOL    HW222463   4.054   7.013   5.056 -1.2480 -1.7089 -0.4729
 7165SOL     OW22464   2.794   1.500   1.213  0.4340  0.4420 -0.0468
 7165SOL    HW122465   2.816   1.430   1.274  0.8208 -0.6538 -1.3845
 7165SOL    HW222466   2.827   1.580   1.255 -1.8550  0.1999  2.4860
 7166SOL     OW22467   3.263   3.523   3.738 -0.4750 -0.0398  0.6451
 7166SOL    HW122468   3.357   3.504   3.745 -0.6142 -0.3745  1.8341
 7166SOL    HW222469   3.252   3.558   3.650  0.9970  1.3197  0.9523
 7167SOL     OW22470   1.799   6.368   1.018  0.0851  0.0540 -0.1050
 7167SOL    HW122471   1.816   6.452   0.976  1.0807 -0.6677 -1.2010
 7167SOL    HW222472   1.880   6.318   1.006  0.6749 -0.0103  3.1965
 7168SOL     OW22473   3.499   4.099   6.685  0.3041 -0.1056 -1.1450
 7168SOL    HW122474   3.444   4.046   6.628 -2.4756  0.9133  0.4348
 7168SOL    HW222475   3.507   4.047   6.766  0.0955  0.5582 -0.6902
 7169SOL     OW22476   4.726   0.042   3.513  0.6415 -0.0372  0.4866
 7169SOL    HW122477   4.817   0.072   3.512  0.5417  0.2687  0.5671
 7169SOL    HW222478   4.726  -0.037   3.458  0.8651  0.2211  0.1177
 7170SOL     OW22479   4.816   6.107   7.130  0.1482  0.2024  0.6318
 7170SOL    HW122480   4.768   6.026   7.113 -0.3218  0.3134  1.3317
 7170SOL    HW222481   4.849   6.097   7.219  1.7182  0.0064  0.0495
 7171SOL     OW22482   3.115   7.122   5.610  0.5361  0.1511 -1.1335
 7171SOL    HW122483   3.187   7.176   5.644  1.1574 -1.2345 -0.1405
 7171SOL    HW222484   3.113   7.046   5.668 -1.5140 -0.0254 -1.3775
 7172SOL     OW22485   4.868   0.285   7.319 -0.2045 -0.2364 -0.5206
 7172SOL    HW122486   4.808   0.264   7.248 -1.5261  2.4005 -0.2842
 7172SOL    HW222487   4.919   0.360   7.286  0.8188 -0.4697  0.4554
 7173SOL     OW22488   2.052   7.255   5.102 -0.0456  0.5492  0.2115
 7173SOL    HW122489   2.031   7.346   5.084  2.2999  1.2053  0.4788
 7173SOL    HW222490   2.103   7.258   5.183  1.2376 -0.8089 -0.4958
 7174SOL     OW22491   0.668   5.472   5.745 -0.2022  0.3297 -0.1231
 7174SOL    HW122492   0.684   5.566   5.747  0.0370  0.2803  0.3190
 7174SOL    HW222493   0.742   5.436   5.695 -0.2931  0.3769 -0.2910
 7175SOL     OW22494   3.668   5.847   0.348  0.1224  0.2068  0.6120
 7175SOL    HW122495   3.670   5.771   0.289 -0.4039  0.2148  0.5779
 7175SOL    HW222496   3.582   5.842   0.391 -0.2006  1.1531  0.1102
 7176SOL     OW22497   6.634   5.847   5.155  0.7080  0.3139  0.2441
 7176SOL    HW122498   6.658   5.754   5.148  1.6432  0.2695  2.8692
 7176SOL    HW222499   6.684   5.879   5.231 -0.2556  2.7539 -0.0567
 7177SOL     OW22500   5.025   0.271   1.433  0.4755 -0.8437 -0.3851
 7177SOL    HW122501   4.980   0.197   1.474  0.2346 -0.3119  0.3382
 7177SOL    HW222502   4.997   0.269   1.342 -0.3895 -0.9978 -0.1253
 7178SOL     OW22503   2.844   1.271   4.752 -0.9855  0.8015 -0.1601
 7178SOL    HW122504   2.841   1.331   4.827  1.5396 -1.3966  1.9219
 7178SOL    HW222505   2.801   1.192   4.784  1.2224 -0.6204 -0.4973
 7179SOL     OW22506   0.780   5.892   5.479  0.1004 -0.2720 -0.1213
 7179SOL    HW122507   0.870   5.908   5.452 -0.2154  0.1973 -0.9180
 7179SOL    HW222508   0.745   5.833   5.412 -0.3383 -0.0435 -0.0970
 7180SOL     OW22509   4.743   0.214   3.199  0.6644  0.0014  0.3516
 7180SOL    HW122510   4.678   0.236   3.133  2.1855  0.7402 -0.9621
 7180SOL    HW222511   4.773   0.299   3.232  1.0470 -0.3260  0.8510
 7181SOL     OW22512   4.620   1.603   6.102 -0.1976 -0.1003  0.5816
 7181SOL    HW122513   4.649   1.660   6.032 -0.0282 -1.3255 -0.3856
 7181SOL    HW222514   4.701   1.581   6.149 -0.5260  2.2223  2.4033
 7182SOL     OW22515   6.701   5.488   2.435 -0.1808  0.0718 -0.2238
 7182SOL    HW122516   6.792   5.462   2.422  0.3390  2.3464 -1.7870
 7182SOL    HW222517   6.701   5.531   2.521  0.4416  0.8204 -0.5853
 7183SOL     OW22518   2.964   5.040   4.322 -0.3130 -0.2277 -0.0687
 7183SOL    HW122519   2.995   4.986   4.250 -0.1287  0.9777 -0.9238
 7183SOL    HW222520   2.961   4.981   4.397 -0.3498 -1.4691 -1.0191
 7184SOL     OW22521   4.690   4.477   1.246 -0.3309  0.1642 -0.0841
 7184SOL    HW122522   4.706   4.551   1.188 -0.7353  0.4069  0.1131
 7184SOL    HW222523   4.595   4.468   1.248 -0.3565  0.5997  1.1079
 7185SOL     OW22524   6.352   0.070   2.737 -0.8630  0.7818  0.0142
 7185SOL    HW122525   6.401   0.087   2.817 -1.0208  1.3099  0.0008
 7185SOL    HW222526   6.367  -0.023   2.719  0.6852  1.0656 -0.3472
 7186SOL     OW22527   6.107   5.957   0.763 -0.5672  0.8563 -0.3612
 7186SOL    HW122528   6.063   6.040   0.744 -1.7741  0.3733  0.1788
 7186SOL    HW222529   6.119   5.916   0.677 -1.5076  0.8623 -0.5146
 7187SOL     OW22530   4.466   2.580   0.978 -0.2892 -0.1088  0.0573
 7187SOL    HW122531   4.398   2.625   1.029 -0.0269 -0.7457  0.9924
 7187SOL    HW222532   4.465   2.624   0.893 -1.3731  0.3694  0.3004
 7188SOL     OW22533   3.426   3.923   6.479  0.0406 -0.1624  0.2116
 7188SOL    HW122534   3.497   3.868   6.447  1.3455  0.7573  1.3852
 7188SOL    HW222535   3.354   3.863   6.495  0.4186 -1.0841 -1.3066
 7189SOL     OW22536   2.070   6.167   1.693  0.0008  1.1545  0.5238
 7189SOL    HW122537   2.145   6.195   1.745  1.4624 -1.3625 -0.0695
 7189SOL    HW222538   2.086   6.204   1.606  1.8989 -1.2292 -0.2476
 7190SOL     OW22539   1.427   4.224   1.967 -0.0404 -0.4651  0.2312
 7190SOL    HW122540   1.432   4.205   2.061  0.5033 -1.3087  0.0462
 7190SOL    HW222541   1.335   4.207   1.944  0.0467 -1.2741  0.4196
 7191SOL     OW22542   2.976   4.472   3.287 -0.0077 -0.2073 -0.1057
 7191SOL    HW122543   3.004   4.505   3.373  0.8205 -0.5169 -0.2453
 7191SOL    HW222544   3.048   4.415   3.259  0.3089  0.8313 -1.5448
 7192SOL     OW22545   5.891   5.898   7.289  0.2436 -0.2351 -0.1595
 7192SOL    HW122546   5.835   5.831   7.329 -0.1155 -0.5785 -1.2120
 7192SOL    HW222547   5.980   5.869   7.309  0.0778 -0.0278  0.9715
 7193SOL     OW22548   2.489   7.099   2.312 -0.4326 -0.0791 -0.2681
 7193SOL    HW122549   2.394   7.100   2.312 -0.4343  0.2453 -0.8041
 7193SOL    HW222550   2.514   7.137   2.227  0.1735  0.6998  0.2418
 7194SOL     OW22551   4.390   6.113   4.562  0.0254  0.3209 -0.3045
 7194SOL    HW122552   4.421   6.073   4.481  1.4566 -0.9131  0.7730
 7194SOL    HW222553   4.322   6.173   4.535 -0.2143 -0.7631 -2.3212
 7195SOL     OW22554   1.137   6.879   3.393  0.0865  0.2482  0.2493
 7195SOL    HW122555   1.178   6.883   3.307  0.0808 -3.7955 -0.1322
 7195SOL    HW222556   1.209   6.858   3.453 -0.1591  1.5480  1.0484
 7196SOL     OW22557   0.872   0.795   4.917 -0.2299  0.6200  0.4389
 7196SOL    HW122558   0.927   0.760   4.848  0.4706 -0.1038  1.3387
 7196SOL    HW222559   0.933   0.825   4.985 -0.9066  0.8364  0.9753
 7197SOL     OW22560   6.901   2.678   4.025 -0.8215 -0.1798 -0.0862
 7197SOL    HW122561   6.957   2.744   4.066 -0.3868 -1.3946  1.3786
 7197SOL    HW222562   6.825   2.672   4.084 -1.1990 -0.4748 -0.5999
 7198SOL     OW22563   2.758   5.907   7.322 -0.1199  0.4401 -0.3502
 7198SOL    HW122564   2.767   5.975   7.256  2.6031  1.2885  0.7763
 7198SOL    HW222565   2.775   5.951   7.405 -0.7918 -1.1506  0.6844
 7199SOL     OW22566   6.162   2.305   3.716  0.6469  0.0018 -0.0375
 7199SOL    HW122567   6.223   2.310   3.790 -0.2778  1.2273  0.6693
 7199SOL    HW222568   6.109   2.227   3.733  1.3211 -0.4993 -0.1446
 7200SOL     OW22569   3.796   1.866   3.984 -0.1753  0.1668  0.0385
 7200SOL    HW122570   3.827   1.790   4.034 -0.0075  0.0035 -0.3136
 7200SOL    HW222571   3.842   1.940   4.023 -1.1076  0.2312  1.0657
 7201SOL     OW22572   1.885   6.512   3.093  0.1288 -0.2600  0.0962
 7201SOL    HW122573   1.937   6.493   3.172  1.1283  0.9103 -0.2348
 7201SOL    HW222574   1.810   6.562   3.126 -0.7798 -1.8605  0.5654
 7202SOL     OW22575   6.427   3.623   3.607  0.0168 -0.2592 -0.1299
 7202SOL    HW122576   6.387   3.629   3.520 -1.8361  1.3275  0.7549
 7202SOL    HW222577   6.361   3.580   3.661  0.8497 -0.5585  0.6715
 7203SOL     OW22578   1.936   1.793   0.330 -0.2351 -0.4319 -0.5360
 7203SOL    HW122579   1.930   1.887   0.310 -0.3961 -0.4888 -0.7568
 7203SOL    HW222580   1.994   1.789   0.407  1.6735 -0.3267 -1.9040
 7204SOL     OW22581   1.722   4.254   0.753 -0.0291 -0.9312 -0.2085
 7204SOL    HW122582   1.776   4.187   0.793  2.1042  0.7123 -0.1445
 7204SOL    HW222583   1.709   4.319   0.823  0.3348  0.0294 -1.0042
 7205SOL     OW22584   5.287   2.584   5.487 -0.4100  0.0790  0.3017
 7205SOL    HW122585   5.247   2.671   5.489 -0.9237 -0.1487  0.2189
 7205SOL    HW222586   5.367   2.593   5.539 -0.4982  0.5805  0.3561
 7206SOL     OW22587   0.393   2.344   1.457 -0.0037  0.0089  0.5570
 7206SOL    HW122588   0.406   2.255   1.425  0.6253  0.5846 -0.8720
 7206SOL    HW222589   0.299   2.351   1.473 -0.7914  0.3341 -3.3780
 7207SOL     OW22590   6.084   2.285   6.943  0.3352 -0.0579 -0.0709
 7207SOL    HW122591   6.095   2.196   6.910 -1.0311 -0.4337  0.4278
 7207SOL    HW222592   6.113   2.280   7.035  1.1499  0.2498 -0.3002
 7208SOL     OW22593   4.002   0.756   1.565  0.1774 -0.4266  0.1833
 7208SOL    HW122594   4.027   0.835   1.517 -2.4230  1.1559  1.2097
 7208SOL    HW222595   3.938   0.714   1.509  0.1741 -0.8019  0.4691
 7209SOL     OW22596   0.559   4.423   0.721 -0.4171 -0.3582 -0.0185
 7209SOL    HW122597   0.614   4.354   0.757 -0.7878 -1.2008 -1.0401
 7209SOL    HW222598   0.477   4.380   0.699 -1.1739  0.7022  0.6240
 7210SOL     OW22599   6.345   1.520   7.299 -0.1802  0.3076  0.6484
 7210SOL    HW122600   6.270   1.563   7.259  0.3492  0.6884  0.0485
 7210SOL    HW222601   6.314   1.494   7.386 -2.4201 -3.4277 -1.0137
 7211SOL     OW22602   1.524   0.432   6.941 -0.0141 -0.4463  0.1359
 7211SOL    HW122603   1.561   0.516   6.966  2.1622 -1.4720  0.5784
 7211SOL    HW222604   1.487   0.447   6.854 -0.5048  1.1710  0.5894
 7212SOL     OW22605   4.340   6.709   6.549  0.1204  0.4725  0.0906
 7212SOL    HW122606   4.401   6.771   6.588  0.6776 -0.2541  0.3884
 7212SOL    HW222607   4.296   6.667   6.623  1.0558 -0.7878 -0.0285
 7213SOL     OW22608   7.056   2.911   2.677 -0.0903 -0.2147 -0.2530
 7213SOL    HW122609   7.062   2.990   2.731 -1.8684  0.8528 -1.4988
 7213SOL    HW222610   6.990   2.858   2.720 -0.6945  0.1271 -0.7446
 7214SOL     OW22611   6.891   1.225   5.666  0.2504 -0.2730 -0.3940
 7214SOL    HW122612   6.833   1.264   5.731  0.6576  1.2531 -0.9005
 7214SOL    HW222613   6.846   1.146   5.637 -1.0702  0.3277 -0.0211
 7215SOL     OW22614   5.164   2.366   5.904  0.1843  0.1145 -0.3674
 7215SOL    HW122615   5.079   2.381   5.943  0.5166 -0.2066  0.4882
 7215SOL    HW222616   5.146   2.316   5.824 -0.1810 -3.4321  1.7413
 7216SOL     OW22617   4.518   1.700   3.963 -0.2113 -0.1374  0.1413
 7216SOL    HW122618   4.470   1.652   3.895  1.1201 -0.4547 -0.6027
 7216SOL    HW222619   4.604   1.715   3.926  0.0778  1.0068  1.1975
 7217SOL     OW22620   0.945   6.880   5.568  0.2205 -0.2993  0.2668
 7217SOL    HW122621   1.020   6.820   5.573  1.0346  0.6500 -0.1829
 7217SOL    HW222622   0.980   6.964   5.598 -0.5034  0.3042 -0.5462
 7218SOL     OW22623   6.252   0.052   3.207  0.3775  0.3918  0.0317
 7218SOL    HW122624   6.178   0.089   3.255  1.0417  1.0439  0.6071
 7218SOL    HW222625   6.307   0.014   3.276 -0.4865 -2.1264 -0.5792
 7219SOL     OW22626   0.614   1.621   6.747  0.8734  0.0434  0.1554
 7219SOL    HW122627   0.701   1.651   6.775  0.7928  2.5710 -1.8467
 7219SOL    HW222628   0.554   1.685   6.786  0.3013  0.4136 -1.2741
 7220SOL     OW22629   0.121   3.417   6.117  0.6328  0.1722  0.1411
 7220SOL    HW122630   0.065   3.344   6.141  1.3377 -0.4498 -0.0570
 7220SOL    HW222631   0.086   3.491   6.166 -0.2246 -0.2425  0.1789
 7221SOL     OW22632   0.546   7.196   3.443  0.2297 -0.0905  0.4956
 7221SOL    HW122633   0.636   7.185   3.413 -0.0206 -1.6653  0.2532
 7221SOL    HW222634   0.552   7.195   3.538  0.5478  0.6893  0.4941
 7222SOL     OW22635   0.918   4.595   2.623  0.4946  0.4161  0.4756
 7222SOL    HW122636   1.010   4.567   2.630  0.1588 -0.4497  1.8274
 7222SOL    HW222637   0.910   4.630   2.535  2.1119  0.4294  0.3052
 7223SOL     OW22638   3.292   1.180   2.570 -0.8504  0.2262 -0.2631
 7223SOL    HW122639   3.243   1.219   2.642 -3.4128 -1.7463 -0.7806
 7223SOL    HW222640   3.377   1.157   2.608 -1.7516  0.1695  1.8679
 7224SOL     OW22641   0.845   6.399   5.195  0.2546  0.0371  0.2251
 7224SOL    HW122642   0.821   6.396   5.102  3.1355 -0.0787 -0.6249
 7224SOL    HW222643   0.927   6.350   5.199 -0.8040 -1.7073  3.2481
 7225SOL     OW22644   6.232   5.173   5.871 -0.0728  0.3339 -0.0845
 7225SOL    HW122645   6.212   5.262   5.841  0.6543  1.0751  1.5173
 7225SOL    HW222646   6.327   5.171   5.877 -0.1109 -0.4191  0.2971
 7226SOL     OW22647   1.012   0.169   5.306  0.2076  0.3331  0.7198
 7226SOL    HW122648   0.935   0.121   5.336 -0.0801  0.0728 -0.3758
 7226SOL    HW222649   1.072   0.100   5.277 -1.0311  0.5534 -2.8790
 7227SOL     OW22650   3.952   0.066   3.282  0.3423  0.3663 -0.2799
 7227SOL    HW122651   3.973   0.045   3.373  0.0040 -1.1706 -0.5292
 7227SOL    HW222652   4.016   0.016   3.231  0.9009  1.6597 -0.8988
 7228SOL     OW22653   1.869   0.072   0.085  0.1762  0.2589  0.8713
 7228SOL    HW122654   1.915   0.148   0.122 -0.1561  0.8149  0.1871
 7228SOL    HW222655   1.938   0.020   0.044  0.2138  1.2709 -0.4655
 7229SOL     OW22656   4.942   0.561   6.500  0.6888 -0.2694 -0.2161
 7229SOL    HW122657   4.999   0.617   6.553  0.5625 -1.0024  0.7250
 7229SOL    HW222658   4.853   0.588   6.525  0.6289 -0.4819 -0.1978
 7230SOL     OW22659   4.328   5.480   1.706  0.3698  0.2739 -0.4256
 7230SOL    HW122660   4.365   5.410   1.760  0.8337  0.5886 -0.3292
 7230SOL    HW222661   4.393   5.493   1.636 -1.0322 -1.3674 -2.1524
 7231SOL     OW22662   0.735   5.317   2.551  0.4548  0.1481  0.1288
 7231SOL    HW122663   0.733   5.377   2.625 -1.2656  0.3771 -0.0623
 7231SOL    HW222664   0.745   5.374   2.474  1.0318  0.0081  0.0986
 7232SOL     OW22665   3.462   0.903   4.552 -0.3395 -0.0903 -0.3470
 7232SOL    HW122666   3.459   0.953   4.634 -1.5332 -0.3545 -0.1982
 7232SOL    HW222667   3.485   0.814   4.579 -0.7340 -0.1776 -0.2830
 7233SOL     OW22668   2.469   2.306   6.560 -0.3578 -0.0908  0.1105
 7233SOL    HW122669   2.485   2.293   6.653 -1.5944  2.7322  0.8440
 7233SOL    HW222670   2.556   2.298   6.519  0.3943 -0.2548  1.6670
 7234SOL     OW22671   2.394   7.071   1.094  0.1351  0.1752  0.3872
 7234SOL    HW122672   2.322   7.115   1.138 -1.3428 -1.6780 -0.0752
 7234SOL    HW222673   2.387   7.099   1.002 -1.3180 -1.5432 -0.0789
 7235SOL     OW22674   0.472   0.047   6.185  0.5267 -0.1341  0.4917
 7235SOL    HW122675   0.522   0.122   6.218  0.9125  0.8313 -2.0917
 7235SOL    HW222676   0.494  -0.024   6.246  4.0316  0.5869  0.2975
 7236SOL     OW22677   6.381   2.886   4.737 -0.3422 -0.3261  0.5613
 7236SOL    HW122678   6.296   2.925   4.717  0.6420  2.0609  0.7719
 7236SOL    HW222679   6.380   2.873   4.831 -0.2566  0.2216  0.6365
 7237SOL     OW22680   7.105   0.952   3.103 -0.4588 -0.0326 -0.1654
 7237SOL    HW122681   7.193   0.922   3.084 -0.5271 -0.2916 -0.0822
 7237SOL    HW222682   7.089   1.023   3.041 -0.8680 -1.1961 -1.4196
 7238SOL     OW22683   3.530   3.691   5.523 -0.4948  0.7508 -0.4289
 7238SOL    HW122684   3.543   3.631   5.596 -0.4736 -0.7831 -1.6616
 7238SOL    HW222685   3.436   3.708   5.522 -0.6891 -0.3324 -0.8913
 7239SOL     OW22686   5.850   5.578   5.551 -0.1938  0.6172 -0.0713
 7239SOL    HW122687   5.890   5.499   5.514 -1.5843 -0.9118  1.4697
 7239SOL    HW222688   5.769   5.547   5.591  0.8262  2.1349  3.6334
 7240SOL     OW22689   5.019   1.369   0.137 -0.2997 -0.2048 -0.0559
 7240SOL    HW122690   5.074   1.328   0.070 -1.5697 -0.5773 -0.9074
 7240SOL    HW222691   4.996   1.297   0.197 -3.1247 -1.0763 -1.9465
 7241SOL     OW22692   3.849   0.111   5.422 -0.2961 -0.1124 -0.5911
 7241SOL    HW122693   3.778   0.175   5.419 -0.6043 -0.3517  0.8622
 7241SOL    HW222694   3.915   0.150   5.479  1.1431  0.4481 -2.5287
 7242SOL     OW22695   2.418   2.582   6.284  0.0496 -0.0009 -0.5738
 7242SOL    HW122696   2.338   2.542   6.319  1.3261 -1.0558  1.3093
 7242SOL    HW222697   2.484   2.565   6.350  1.8476  0.9056 -2.0470
 7243SOL     OW22698   1.828   1.288   5.439 -0.3474 -0.5475 -0.8797
 7243SOL    HW122699   1.774   1.360   5.406 -2.1840 -0.4669  2.0120
 7243SOL    HW222700   1.843   1.309   5.531  2.2681 -2.0643 -0.8589
 7244SOL     OW22701   2.389   2.294   2.931  0.3326  0.0931  0.0270
 7244SOL    HW122702   2.305   2.339   2.944 -0.5314 -1.1031 -1.0007
 7244SOL    HW222703   2.455   2.361   2.942 -0.8149  1.2338  0.1984
 7245SOL     OW22704   1.022   7.049   1.154 -0.3877 -0.0579 -0.5720
 7245SOL    HW122705   1.109   7.049   1.115  0.6409 -2.0248  1.4722
 7245SOL    HW222706   1.020   6.970   1.209 -3.6999 -0.4331 -1.0175
 7246SOL     OW22707   0.535   2.294   2.103  0.1670 -0.1321  0.1787
 7246SOL    HW122708   0.520   2.245   2.184  3.4174 -1.3888  0.2019
 7246SOL    HW222709   0.480   2.250   2.038  0.5330 -1.7350  0.9073
 7247SOL     OW22710   0.231   3.919   2.704 -0.2144  0.4461  0.3090
 7247SOL    HW122711   0.302   3.944   2.762  1.1636  0.0914 -1.1536
 7247SOL    HW222712   0.244   3.972   2.625 -2.5251  1.5377  0.5776
 7248SOL     OW22713   4.956   5.542   0.278  0.0729  0.0147  0.2074
 7248SOL    HW122714   4.997   5.609   0.332 -0.5065  1.0596 -0.6166
 7248SOL    HW222715   4.955   5.579   0.190 -0.4424 -0.9969 -0.2298
 7249SOL     OW22716   4.900   2.286   2.310 -0.0383 -0.0386  0.4143
 7249SOL    HW122717   4.838   2.225   2.269 -0.7729  1.3900 -0.7036
 7249SOL    HW222718   4.983   2.270   2.265 -0.2097 -0.2778  0.1778
 7250SOL     OW22719   5.770   0.322   1.603  0.4624 -0.2358 -0.6747
 7250SOL    HW122720   5.779   0.303   1.696  0.7549  0.5804 -0.5339
 7250SOL    HW222721   5.687   0.370   1.596  1.4154  1.4645 -0.5572
 7251SOL     OW22722   3.565   3.333   1.387 -0.7293  0.3644  0.4790
 7251SOL    HW122723   3.659   3.317   1.396 -0.6696  0.0100 -0.6018
 7251SOL    HW222724   3.540   3.376   1.468  0.7962  2.4894 -0.1041
 7252SOL     OW22725   5.805   0.702   2.714  0.3799  0.4722 -0.1759
 7252SOL    HW122726   5.780   0.728   2.803  0.1165 -1.3788  0.3402
 7252SOL    HW222727   5.726   0.716   2.661  0.3205  0.9332  0.0374
 7253SOL     OW22728   2.359   1.086   4.540 -0.1147 -0.0157  0.2419
 7253SOL    HW122729   2.372   1.164   4.593 -1.1828 -0.8038  1.7458
 7253SOL    HW222730   2.272   1.054   4.564 -1.3347  0.3730 -3.0947
 7254SOL     OW22731   1.339   2.191   3.778 -0.8449 -0.3576 -0.7034
 7254SOL    HW122732   1.299   2.104   3.781  0.4541 -0.9653  1.9492
 7254SOL    HW222733   1.361   2.211   3.869  2.8293  0.8617 -1.6846
 7255SOL     OW22734   4.113   0.894   5.661 -0.4179 -0.2162 -0.4344
 7255SOL    HW122735   4.181   0.894   5.594  1.3978 -0.4739  1.3366
 7255SOL    HW222736   4.043   0.947   5.623  0.5630 -0.2898 -2.4903
 7256SOL     OW22737   4.768   7.096   2.411 -0.2084  0.1237  0.5262
 7256SOL    HW122738   4.684   7.070   2.375  0.2457  1.9110 -2.1425
 7256SOL    HW222739   4.811   7.014   2.436 -1.7557 -1.0009 -0.3879
 7257SOL     OW22740   1.169   5.331   5.394 -0.5872 -0.7645  0.4088
 7257SOL    HW122741   1.208   5.315   5.480 -0.6113  0.5715  0.6963
 7257SOL    HW222742   1.076   5.346   5.411 -1.0642 -2.7799 -0.1456
 7258SOL     OW22743   5.328   3.805   5.413  0.4052  0.2012 -0.4040
 7258SOL    HW122744   5.413   3.779   5.449  1.5029  1.7464 -1.7108
 7258SOL    HW222745   5.264   3.753   5.461  2.1419 -1.6237  0.0624
 7259SOL     OW22746   2.817   0.287   6.464 -0.3413 -0.4432  0.2424
 7259SOL    HW122747   2.865   0.264   6.544  1.0267 -1.2408 -0.7739
 7259SOL    HW222748   2.746   0.222   6.460 -2.0071  1.1153  2.0709
 7260SOL     OW22749   0.526   5.863   1.675  0.4458 -0.1139 -0.3817
 7260SOL    HW122750   0.448   5.811   1.692  1.4741 -1.7699 -0.5650
 7260SOL    HW222751   0.568   5.873   1.760 -1.4812  3.4905  0.3415
 7261SOL     OW22752   4.714   2.383   3.555 -0.5246 -0.9363 -0.0107
 7261SOL    HW122753   4.706   2.287   3.552  1.5782 -1.1439 -0.3271
 7261SOL    HW222754   4.751   2.402   3.641 -0.5080 -0.4418 -0.1255
 7262SOL     OW22755   2.312   0.750   3.509 -0.4411 -0.2107 -0.9309
 7262SOL    HW122756   2.253   0.710   3.573 -0.2652  1.8460  0.6231
 7262SOL    HW222757   2.340   0.677   3.453  0.7389 -2.5120  2.3372
 7263SOL     OW22758   3.251   3.630   3.429 -0.7629  0.6321  0.4862
 7263SOL    HW122759   3.159   3.655   3.422 -0.3771  1.6471 -2.4340
 7263SOL    HW222760   3.260   3.552   3.374 -0.0464 -0.1624  1.6650
 7264SOL     OW22761   5.391   4.176   6.782  0.0210 -0.4047 -0.1129
 7264SOL    HW122762   5.297   4.167   6.797  0.2640  0.4172  2.3131
 7264SOL    HW222763   5.421   4.087   6.764 -0.9388 -0.9562  0.9408
 7265SOL     OW22764   0.330   1.984   5.064 -0.3030 -0.1536  0.0088
 7265SOL    HW122765   0.399   2.024   5.116 -1.6287  1.2186  0.8155
 7265SOL    HW222766   0.305   1.906   5.112  1.0739 -1.0192 -0.6222
 7266SOL     OW22767   4.175   4.533   5.725  0.0644 -0.3015  0.0936
 7266SOL    HW122768   4.211   4.582   5.799 -1.5664  0.5376  0.3706
 7266SOL    HW222769   4.123   4.598   5.677  0.4991 -1.0150 -1.3811
 7267SOL     OW22770   0.268   1.594   3.618 -0.7139 -0.2079  0.7201
 7267SOL    HW122771   0.186   1.616   3.574 -0.3484 -0.4366 -0.0949
 7267SOL    HW222772   0.313   1.678   3.630  0.5821 -0.3596 -2.1813
 7268SOL     OW22773   5.024   3.150   0.302  0.0853  0.2653  0.0206
 7268SOL    HW122774   5.096   3.135   0.240  1.6513  3.9109  0.7037
 7268SOL    HW222775   4.963   3.207   0.255 -0.7718 -0.2472  0.4982
 7269SOL     OW22776   0.355   5.958   5.108  0.2550 -0.0797 -0.1879
 7269SOL    HW122777   0.427   5.988   5.163 -0.6829 -0.5830  1.3739
 7269SOL    HW222778   0.398   5.927   5.028  1.6936  0.3357  0.3874
 7270SOL     OW22779   4.122   2.355   2.205 -0.5144  0.3009 -0.0074
 7270SOL    HW122780   4.199   2.381   2.156 -0.8334  0.3330 -0.5015
 7270SOL    HW222781   4.141   2.266   2.235  0.4837  0.9698  1.4904
 7271SOL     OW22782   4.222   2.063   3.933  0.1635  0.1405 -0.5019
 7271SOL    HW122783   4.314   2.038   3.928 -0.3075 -1.8342 -0.1578
 7271SOL    HW222784   4.176   1.996   3.881 -1.0556  1.2478 -0.8923
 7272SOL     OW22785   1.798   0.137   3.548 -0.9660 -0.7074 -0.0616
 7272SOL    HW122786   1.855   0.171   3.479 -0.4298 -0.4213  0.5094
 7272SOL    HW222787   1.780   0.212   3.604 -0.5289 -1.1509  0.6956
 7273SOL     OW22788   7.153   2.531   1.713 -0.0828 -0.6061 -0.0995
 7273SOL    HW122789   7.108   2.565   1.636 -0.1831  0.1015  0.2625
 7273SOL    HW222790   7.089   2.539   1.784  0.4976  0.1261  0.3535
 7274SOL     OW22791   1.422   2.284   2.420  0.1367 -1.4155 -0.2868
 7274SOL    HW122792   1.504   2.234   2.416  1.9295  1.3246 -1.0724
 7274SOL    HW222793   1.426   2.329   2.505  0.2700 -0.0925 -0.9575
 7275SOL     OW22794   0.839   7.131   0.669 -0.0608 -0.1461  0.1396
 7275SOL    HW122795   0.774   7.093   0.609  0.7376 -1.2251 -0.0666
 7275SOL    HW222796   0.877   7.055   0.714  0.2507  0.5566  1.1023
 7276SOL     OW22797   6.000   6.482   4.898 -0.2512 -0.3575  0.0614
 7276SOL    HW122798   6.082   6.476   4.847 -1.1514 -0.3274 -1.4611
 7276SOL    HW222799   5.931   6.481   4.831 -1.4977 -0.3452  1.3192
 7277SOL     OW22800   1.910   0.170   4.610 -0.0946  0.1787  0.0938
 7277SOL    HW122801   1.849   0.164   4.683  1.1398 -2.1620  1.0119
 7277SOL    HW222802   1.891   0.094   4.555 -0.1638  1.2190 -1.3996
 7278SOL     OW22803   1.845   6.105   5.260 -0.9106  0.4574  0.2613
 7278SOL    HW122804   1.848   6.200   5.251  0.8616  0.7285  2.8112
 7278SOL    HW222805   1.755   6.086   5.288 -1.4126  1.2722 -0.7228
 7279SOL     OW22806   6.743   5.589   1.272  0.2617 -0.5464  0.8708
 7279SOL    HW122807   6.712   5.501   1.249  1.3038 -0.4932 -0.8935
 7279SOL    HW222808   6.836   5.588   1.250 -0.3610  2.0789 -2.7836
 7280SOL     OW22809   4.974   0.765   4.802  0.1112 -0.8249 -0.5040
 7280SOL    HW122810   5.010   0.756   4.714 -4.3710 -0.1546 -2.7147
 7280SOL    HW222811   4.978   0.859   4.820 -0.5160 -0.7412 -0.7811
 7281SOL     OW22812   4.403   4.138   2.369 -0.2936 -0.7683 -0.1602
 7281SOL    HW122813   4.446   4.223   2.373 -0.6494 -0.6250  0.6410
 7281SOL    HW222814   4.356   4.130   2.451 -0.2614 -1.7471 -0.2208
 7282SOL     OW22815   1.390   5.506   6.883 -0.2215 -0.2548  0.1362
 7282SOL    HW122816   1.427   5.446   6.818 -3.1205 -2.2696  0.1664
 7282SOL    HW222817   1.317   5.548   6.838 -0.5666  0.4406  1.2925
 7283SOL     OW22818   6.439   5.521   7.092 -0.3557 -0.2590  0.1212
 7283SOL    HW122819   6.528   5.508   7.125 -0.7731  0.6057  1.6646
 7283SOL    HW222820   6.451   5.552   7.003  0.9469  0.9725  0.6904
 7284SOL     OW22821   3.934   5.858   5.205  0.1831  0.3195  0.1132
 7284SOL    HW122822   3.993   5.821   5.270 -1.0383 -0.0735  1.0320
 7284SOL    HW222823   3.847   5.828   5.231 -0.4524  0.9942 -1.1219
 7285SOL     OW22824   1.620   4.433   0.014 -0.1727  0.9018 -0.0954
 7285SOL    HW122825   1.612   4.386   0.097  0.2555  2.7343  1.0492
 7285SOL    HW222826   1.651   4.367  -0.049  0.1080 -0.3875  1.3391
 7286SOL     OW22827   3.691   2.025   0.108  0.4006 -0.4675 -0.7634
 7286SOL    HW122828   3.663   2.059   0.192  1.5489 -0.7026 -0.2607
 7286SOL    HW222829   3.663   2.090   0.044 -1.1396 -0.6448 -0.2917
 7287SOL     OW22830   4.168   2.512   4.019  0.0518 -0.1548  0.3446
 7287SOL    HW122831   4.213   2.576   3.964 -0.5125 -0.1541 -0.1344
 7287SOL    HW222832   4.125   2.565   4.087  0.8393 -0.1650  0.8526
 7288SOL     OW22833   0.347   0.838   2.864  0.4090 -0.2607  0.2663
 7288SOL    HW122834   0.408   0.909   2.845  0.0361  0.1629  0.6314
 7288SOL    HW222835   0.281   0.844   2.796  0.4318 -0.3258  0.2379
 7289SOL     OW22836   4.241   7.367   5.562 -0.2882 -0.2782  0.2413
 7289SOL    HW122837   4.248   7.447   5.614  1.7393  1.5845 -2.5672
 7289SOL    HW222838   4.281   7.300   5.617 -0.4581  0.9867  2.0260
 7290SOL     OW22839   5.528   1.800   2.028  0.2760  0.8132 -0.8201
 7290SOL    HW122840   5.489   1.888   2.024  0.3813  0.9103  0.1965
 7290SOL    HW222841   5.454   1.741   2.009 -0.0314  1.0697 -0.4422
 7291SOL     OW22842   1.635   4.089   5.388 -0.7232  0.0732  0.0387
 7291SOL    HW122843   1.696   4.162   5.386  0.3633 -0.7859  0.4608
 7291SOL    HW222844   1.588   4.099   5.471 -0.3558  0.1199  0.2433
 7292SOL     OW22845   5.151   5.586   1.876 -0.4520  0.6830 -0.3221
 7292SOL    HW122846   5.115   5.540   1.951 -0.2414 -1.8997 -1.7043
 7292SOL    HW222847   5.077   5.595   1.815  0.1919 -0.7053 -1.3536
 7293SOL     OW22848   6.646   3.940   5.184  0.1394  0.0673  0.3549
 7293SOL    HW122849   6.698   3.995   5.126 -0.6092  0.3189 -0.0875
 7293SOL    HW222850   6.665   3.851   5.155  1.8354  0.0187  1.4734
 7294SOL     OW22851   0.844   4.177   1.124 -0.0296  0.2536  0.3927
 7294SOL    HW122852   0.784   4.245   1.157  1.5918  0.9436  2.0915
 7294SOL    HW222853   0.812   4.096   1.163 -0.3217  0.4921  0.6516
 7295SOL     OW22854   4.421   7.189   5.132 -0.0582 -0.3139  0.3198
 7295SOL    HW122855   4.514   7.173   5.118 -0.0289 -1.4172  1.6336
 7295SOL    HW222856   4.377   7.131   5.069  0.1314 -0.4430  0.3063
 7296SOL     OW22857   1.798   6.899   6.148  0.2238 -0.3304  0.7373
 7296SOL    HW122858   1.868   6.913   6.084  0.3417 -0.5707  0.8125
 7296SOL    HW222859   1.824   6.952   6.223  0.1558 -0.1556  0.6363
 7297SOL     OW22860   2.640   3.289   3.527  0.6651  0.5838 -0.0047
 7297SOL    HW122861   2.665   3.356   3.591  0.1528 -0.0020  0.8382
 7297SOL    HW222862   2.552   3.315   3.499 -0.1512 -0.4907  1.4259
 7298SOL     OW22863   4.770   5.719   1.219  0.0251  0.3913  0.1744
 7298SOL    HW122864   4.756   5.669   1.138  1.4022  1.3458 -0.7090
 7298SOL    HW222865   4.766   5.654   1.289  0.5462 -0.7599 -0.8303
 7299SOL     OW22866   2.193   2.064   3.969 -0.3667  0.3921 -0.3193
 7299SOL    HW122867   2.102   2.090   3.980  0.0876  1.0869  2.9971
 7299SOL    HW222868   2.214   2.016   4.050  2.0140 -0.3484 -1.2879
 7300SOL     OW22869   4.477   6.256   6.930 -0.7252  0.1016 -0.0758
 7300SOL    HW122870   4.502   6.232   7.019 -0.5495 -0.0639 -0.1698
 7300SOL    HW222871   4.527   6.197   6.874 -0.9692  0.0843 -0.2782
 7301SOL     OW22872   5.790   7.089   6.441  0.1676  0.2742 -0.0989
 7301SOL    HW122873   5.741   7.015   6.407 -1.7792  1.5525 -0.2599
 7301SOL    HW222874   5.819   7.061   6.528  0.5441 -1.0979 -0.6515
 7302SOL     OW22875   6.340   1.738   2.767  0.2083 -0.0024  0.4825
 7302SOL    HW122876   6.255   1.696   2.781 -0.5836  1.7921  1.3660
 7302SOL    HW222877   6.325   1.802   2.697  0.9976 -0.0839  0.2213
 7303SOL     OW22878   1.306   4.770   4.274 -0.2898 -0.3577  0.6302
 7303SOL    HW122879   1.337   4.803   4.190 -2.4200  0.1056 -0.0469
 7303SOL    HW222880   1.276   4.681   4.255  0.9114 -0.9307  1.3393
 7304SOL     OW22881   4.569   2.099   4.178  0.2368 -0.0400  0.2055
 7304SOL    HW122882   4.568   2.159   4.103  0.0843 -0.5762 -0.2264
 7304SOL    HW222883   4.645   2.043   4.162 -0.3509 -0.7684 -0.0327
 7305SOL     OW22884   5.268   0.198   0.194  0.1804  0.0859  0.0860
 7305SOL    HW122885   5.324   0.126   0.225  1.0437  0.6090 -0.2252
 7305SOL    HW222886   5.299   0.215   0.105 -0.4583  0.4173 -0.0771
 7306SOL     OW22887   3.769   1.772   2.399 -0.5827  0.4355  0.0300
 7306SOL    HW122888   3.733   1.689   2.431  0.6730  0.3422  1.2948
 7306SOL    HW222889   3.860   1.752   2.379 -0.6706  1.1565 -1.1661
 7307SOL     OW22890   5.372   6.955   4.048  0.0677  0.4196 -0.4360
 7307SOL    HW122891   5.441   6.994   4.101  0.2239 -0.2677 -0.1182
 7307SOL    HW222892   5.306   6.926   4.112  0.0587 -0.0275 -0.6417
 7308SOL     OW22893   3.655   5.799   1.815  0.5541 -0.5208 -0.2688
 7308SOL    HW122894   3.568   5.832   1.791  0.0844 -1.6098 -0.1134
 7308SOL    HW222895   3.686   5.861   1.882  1.2954  1.7385 -2.5572
 7309SOL     OW22896   1.488   4.188   2.455 -0.2240 -0.5412  0.0220
 7309SOL    HW122897   1.418   4.136   2.493  0.7910 -0.3746  2.2380
 7309SOL    HW222898   1.567   4.139   2.473  0.2643 -1.0829 -3.0675
 7310SOL     OW22899   7.168   0.976   4.101 -0.1613 -0.4032 -0.2026
 7310SOL    HW122900   7.129   1.059   4.074 -0.6307  0.0799  1.8097
 7310SOL    HW222901   7.172   0.981   4.196  1.7007 -1.8674 -0.1427
 7311SOL     OW22902   0.551   1.981   3.171  0.1449 -0.0213 -0.1520
 7311SOL    HW122903   0.543   2.076   3.166  0.9922  0.0240 -0.8304
 7311SOL    HW222904   0.508   1.957   3.253  1.1901  1.1059  0.7599
 7312SOL     OW22905   5.843   1.361   3.156 -0.1764 -0.7009  0.3159
 7312SOL    HW122906   5.782   1.413   3.104 -1.0693 -0.6397  1.3966
 7312SOL    HW222907   5.789   1.297   3.202  0.4831 -0.3212  1.6865
 7313SOL     OW22908   4.933   4.290   4.033  0.2651 -0.2149  0.3206
 7313SOL    HW122909   4.982   4.342   3.969  1.6045 -0.1037  1.4033
 7313SOL    HW222910   4.909   4.210   3.985 -1.2124  1.0332 -1.1535
 7314SOL     OW22911   4.753   4.975   5.280 -0.1988  0.2407 -0.2507
 7314SOL    HW122912   4.760   5.051   5.337  0.1954 -0.7579  1.1012
 7314SOL    HW222913   4.719   5.009   5.197 -1.8794  1.6041  0.9166
 7315SOL     OW22914   0.890   5.992   5.101 -0.0021 -0.2751  0.0121
 7315SOL    HW122915   0.869   6.068   5.047  1.0237 -0.1561 -0.2283
 7315SOL    HW222916   0.897   5.919   5.040  0.3220 -0.3096  0.0929
 7316SOL     OW22917   7.228   5.103   1.060 -0.1533  0.1299  0.5224
 7316SOL    HW122918   7.153   5.044   1.063 -0.2206  0.1678 -0.2222
 7316SOL    HW222919   7.279   5.074   0.984  0.5319  0.1727  0.9587
 7317SOL     OW22920   4.375   7.160   4.844  0.3325 -0.2493  0.1694
 7317SOL    HW122921   4.405   7.104   4.773  1.8299 -1.2047  1.4670
 7317SOL    HW222922   4.414   7.245   4.826  0.6279 -0.4615 -0.2112
 7318SOL     OW22923   4.686   4.539   1.836  0.3487 -0.3068  0.1157
 7318SOL    HW122924   4.623   4.609   1.818  0.1676 -0.5111 -0.0448
 7318SOL    HW222925   4.692   4.536   1.932  2.4286  1.7738  0.1349
 7319SOL     OW22926   2.708   0.681   0.322 -0.0659  0.3922 -0.4015
 7319SOL    HW122927   2.627   0.680   0.373  0.5671  2.8217  0.8173
 7319SOL    HW222928   2.777   0.672   0.388  0.7098  1.1547 -1.0786
 7320SOL     OW22929   4.648   4.904   2.761  0.1336 -0.1670 -0.2602
 7320SOL    HW122930   4.625   4.917   2.669  0.3828  0.4460 -0.2381
 7320SOL    HW222931   4.580   4.952   2.809  0.2691 -0.0987 -0.1379
 7321SOL     OW22932   6.420   2.815   7.356 -0.0334  0.2913 -0.2817
 7321SOL    HW122933   6.413   2.832   7.450  1.7185  1.3565 -0.3178
 7321SOL    HW222934   6.482   2.879   7.324  2.2158 -2.2962 -1.5346
 7322SOL     OW22935   0.866   4.750   0.300 -0.4528  0.2789 -0.0181
 7322SOL    HW122936   0.771   4.738   0.305 -0.3682 -0.1281  0.9154
 7322SOL    HW222937   0.897   4.732   0.389  0.4631  0.7382 -0.2277
 7323SOL     OW22938   6.949   3.574   7.362 -0.0910 -0.4381 -0.3189
 7323SOL    HW122939   6.956   3.492   7.313  1.2242  0.0902 -1.0661
 7323SOL    HW222940   6.956   3.547   7.454 -0.1077 -1.2063 -0.5303
 7324SOL     OW22941   2.170   7.371   5.748 -0.2014 -0.0689  0.3334
 7324SOL    HW122942   2.075   7.375   5.759 -0.1017  1.8522  0.7994
 7324SOL    HW222943   2.190   7.440   5.685  0.7284 -1.8199 -1.4348
 7325SOL     OW22944   6.130   3.014   4.703 -0.4432  0.2553 -0.2780
 7325SOL    HW122945   6.046   3.039   4.741 -0.5274  0.2263 -0.4452
 7325SOL    HW222946   6.142   3.075   4.630 -0.8250 -0.4275 -0.9214
 7326SOL     OW22947   3.502   2.214   0.556  0.4697  0.1703  0.3277
 7326SOL    HW122948   3.526   2.168   0.636  0.2826 -1.4669 -0.5060
 7326SOL    HW222949   3.583   2.216   0.504  0.2071 -0.2670 -0.1139
 7327SOL     OW22950   7.164   7.258   3.578  0.5134  0.2494  0.1047
 7327SOL    HW122951   7.258   7.278   3.587  0.8503 -1.0406 -0.3679
 7327SOL    HW222952   7.137   7.308   3.501  1.2810 -0.8558 -0.9091
 7328SOL     OW22953   2.098   1.645   0.208 -0.0182  0.1678  0.5533
 7328SOL    HW122954   2.031   1.683   0.265 -1.1905  0.1810 -0.7799
 7328SOL    HW222955   2.110   1.556   0.240  0.9372  0.8221  2.1449
 7329SOL     OW22956   4.070   3.465   0.053 -0.1772 -0.3899  0.0135
 7329SOL    HW122957   4.043   3.542   0.103 -0.2231 -0.7000  0.4768
 7329SOL    HW222958   4.072   3.394   0.118  1.0377 -0.5299 -0.1647
 7330SOL     OW22959   6.631   5.321   1.170 -0.3825  0.2812 -0.4711
 7330SOL    HW122960   6.633   5.392   1.106 -0.2054  0.9405  0.2418
 7330SOL    HW222961   6.539   5.316   1.197 -0.3446  0.4407 -0.3096
 7331SOL     OW22962   1.245   3.899   7.247  0.0844 -0.1316 -0.0975
 7331SOL    HW122963   1.297   3.874   7.323  1.0540 -0.3581 -0.8160
 7331SOL    HW222964   1.200   3.979   7.274  0.6111 -0.0749  0.6256
 7332SOL     OW22965   6.388   5.539   1.404  0.5173 -0.0834 -0.3680
 7332SOL    HW122966   6.435   5.471   1.356 -0.8939 -1.3752  0.0070
 7332SOL    HW222967   6.403   5.519   1.496  0.0924  0.1122 -0.2548
 7333SOL     OW22968   3.662   5.290   5.864 -0.4130 -0.2492 -0.2615
 7333SOL    HW122969   3.611   5.242   5.798 -1.2224 -1.3938  1.1566
 7333SOL    HW222970   3.705   5.222   5.915  0.3446  0.6356  0.3055
 7334SOL     OW22971   1.319   6.552   3.883  0.3701  0.0105 -0.3764
 7334SOL    HW122972   1.369   6.483   3.840  0.4674  0.1687 -0.5230
 7334SOL    HW222973   1.298   6.614   3.812  0.7054  0.3759 -0.1617
 7335SOL     OW22974   1.098   6.125   7.031  0.4556 -0.1412 -0.0009
 7335SOL    HW122975   1.015   6.156   7.069  0.6600  1.0461 -0.4789
 7335SOL    HW222976   1.164   6.150   7.095  0.7084  1.1635 -0.7255
 7336SOL     OW22977   6.652   6.549   0.577 -0.2073 -0.1727 -0.2531
 7336SOL    HW122978   6.625   6.615   0.514 -1.5347  0.9113  1.3679
 7336SOL    HW222979   6.742   6.526   0.551 -1.3167 -1.1957 -3.5968
 7337SOL     OW22980   5.177   0.952   2.459 -0.8974 -0.8681 -0.1706
 7337SOL    HW122981   5.115   1.017   2.426  0.1698 -0.1896 -0.8909
 7337SOL    HW222982   5.256   1.002   2.479  0.2715 -2.0373 -1.6083
 7338SOL     OW22983   0.064   1.133   3.213  0.0431 -0.2058 -0.2063
 7338SOL    HW122984   0.093   1.106   3.300 -2.0113  0.4206  0.7322
 7338SOL    HW222985  -0.031   1.135   3.219 -0.1137  0.7979 -2.1928
 7339SOL     OW22986   2.444   3.548   2.061  0.2710  0.9826 -0.1801
 7339SOL    HW122987   2.425   3.529   2.153  1.7316  2.9169  0.5723
 7339SOL    HW222988   2.417   3.639   2.048 -1.9973  0.1300 -2.3383
 7340SOL     OW22989   4.611   3.467   5.623 -0.6326 -0.2472  0.2577
 7340SOL    HW122990   4.651   3.390   5.583 -0.2735  0.1358 -0.1299
 7340SOL    HW222991   4.577   3.436   5.707  0.9897 -0.4419  0.8688
 7341SOL     OW22992   1.275   0.818   0.175  0.4226 -0.0060 -0.0734
 7341SOL    HW122993   1.275   0.742   0.233 -1.0705 -0.0998 -0.1762
 7341SOL    HW222994   1.292   0.892   0.233 -0.0644 -0.2092  0.3349
 7342SOL     OW22995   3.950   1.925   0.061 -0.5364 -0.0257  0.0184
 7342SOL    HW122996   3.858   1.950   0.059 -0.7117 -0.6740 -1.4230
 7342SOL    HW222997   3.995   1.996   0.014 -0.4431 -0.1775 -0.1246
 7343SOL     OW22998   4.648   6.684   7.024  0.0252 -0.4281  0.3744
 7343SOL    HW122999   4.615   6.607   7.070 -0.8400  0.1439  0.7576
 7343SOL    HW223000   4.598   6.757   7.062 -1.0389  0.0216 -1.7663
 7344SOL     OW23001   7.264   2.956   0.811  0.1905 -0.1568  0.6244
 7344SOL    HW123002   7.327   2.909   0.756 -1.9952 -0.4155 -1.8602
 7344SOL    HW223003   7.204   2.889   0.842 -1.0383  0.5114 -0.2136
 7345SOL     OW23004   5.167   6.140   3.769  0.0160 -0.6946  0.3122
 7345SOL    HW123005   5.159   6.233   3.746 -1.3331 -0.3656  1.8909
 7345SOL    HW223006   5.187   6.096   3.687 -0.0986  0.9027 -0.6073
 7346SOL     OW23007   6.317   3.263   1.512 -0.2195 -0.1691 -0.4531
 7346SOL    HW123008   6.403   3.274   1.554 -0.0996 -3.8761  0.6503
 7346SOL    HW223009   6.256   3.309   1.570  0.4374 -2.0227  1.8635
 7347SOL     OW23010   6.749   5.604   5.280  0.0012 -0.4209  0.1082
 7347SOL    HW123011   6.717   5.628   5.366 -0.7589 -0.9690 -0.0085
 7347SOL    HW223012   6.821   5.665   5.263  0.8393 -0.9455  1.5512
 7348SOL     OW23013   6.140   2.480   3.499  0.3271 -0.1724 -0.6331
 7348SOL    HW123014   6.049   2.498   3.520  0.7481  1.7049 -0.1844
 7348SOL    HW223015   6.173   2.432   3.575 -0.1692 -0.4844 -0.6101
 7349SOL     OW23016   0.152   5.576   0.046  0.2245 -0.2080 -0.1218
 7349SOL    HW123017   0.239   5.614   0.029  0.0171  0.2102 -0.2730
 7349SOL    HW223018   0.136   5.519  -0.028 -0.0207  0.4308 -0.5741
 7350SOL     OW23019   5.814   2.587   6.747 -0.2120 -0.1350 -0.0013
 7350SOL    HW123020   5.830   2.681   6.747 -2.4189  0.2952  0.6654
 7350SOL    HW223021   5.761   2.571   6.669 -2.4196 -0.2515  1.4202
 7351SOL     OW23022   1.715   4.354   2.289 -0.2516 -0.5065 -1.0894
 7351SOL    HW123023   1.638   4.297   2.289 -0.0907 -0.7576  0.1050
 7351SOL    HW223024   1.783   4.302   2.333 -0.0526  0.5172 -0.1341
 7352SOL     OW23025   5.954   0.585   1.893  0.2567 -0.0551 -0.6138
 7352SOL    HW123026   6.043   0.613   1.910 -0.0474 -0.3406  1.8110
 7352SOL    HW223027   5.910   0.590   1.978 -1.2715 -2.5797 -1.1250
 7353SOL     OW23028   1.767   0.957   2.898 -0.5621  0.2588 -0.2115
 7353SOL    HW123029   1.763   1.028   2.962 -1.0238  0.5767 -0.5886
 7353SOL    HW223030   1.820   0.889   2.941 -0.5580  0.6146  0.3574
 7354SOL     OW23031   2.878   2.419   1.235  0.2504 -0.0198  0.3365
 7354SOL    HW123032   2.859   2.429   1.142 -0.0363  0.3413  0.4335
 7354SOL    HW223033   2.819   2.480   1.279  0.0816 -0.4970  0.7872
 7355SOL     OW23034   3.017   3.359   1.774 -0.2801 -0.0817 -0.3801
 7355SOL    HW123035   3.065   3.411   1.710  0.1655 -1.0959 -0.9030
 7355SOL    HW223036   2.954   3.420   1.814  0.6757  0.9921 -0.4856
 7356SOL     OW23037   6.005   6.028   3.326 -0.4055 -0.2275  0.0068
 7356SOL    HW123038   5.985   5.939   3.296  0.6879 -1.0013  1.4308
 7356SOL    HW223039   5.923   6.076   3.316 -1.4093 -1.7640  0.4630
 7357SOL     OW23040   2.200   3.225   4.196  0.1390 -0.6629  0.0244
 7357SOL    HW123041   2.132   3.163   4.224 -0.5788  0.2676  0.4009
 7357SOL    HW223042   2.232   3.264   4.277 -0.3731  0.4252 -0.2763
 7358SOL     OW23043   2.080   6.149   0.233 -0.6804  0.4026 -0.1632
 7358SOL    HW123044   2.043   6.073   0.278  2.3816 -1.3061 -0.2852
 7358SOL    HW223045   2.007   6.184   0.182 -2.5126 -1.6933  0.8288
 7359SOL     OW23046   3.199   1.520   3.606  0.2078 -0.1336 -0.0508
 7359SOL    HW123047   3.249   1.532   3.687 -1.1544 -0.5025  0.8742
 7359SOL    HW223048   3.148   1.441   3.621 -0.7095  0.2716 -0.9466
 7360SOL     OW23049   0.180   6.742   5.138  0.2022  0.5723 -0.1745
 7360SOL    HW123050   0.156   6.747   5.046 -0.2995  0.0946 -0.0745
 7360SOL    HW223051   0.122   6.675   5.175  0.5430  0.6036  0.4403
 7361SOL     OW23052   5.334   7.020   7.098 -0.0589 -0.3408 -0.0022
 7361SOL    HW123053   5.332   6.926   7.117  0.1167 -0.1248  1.1618
 7361SOL    HW223054   5.342   7.062   7.183 -1.5830  0.8018 -0.3741
 7362SOL     OW23055   1.443   2.164   0.554 -0.2397 -0.1460  0.0152
 7362SOL    HW123056   1.459   2.235   0.616  0.3363  0.7097 -1.0792
 7362SOL    HW223057   1.504   2.095   0.580  0.5109  0.4902 -0.0292
 7363SOL     OW23058   0.453   0.588   1.815  0.4400  0.2442  0.2708
 7363SOL    HW123059   0.374   0.584   1.868 -1.0594 -0.4136 -1.8531
 7363SOL    HW223060   0.438   0.663   1.757  1.6357  0.4492  0.2119
 7364SOL     OW23061   3.762   6.786   5.327  0.5267 -0.1224 -0.2760
 7364SOL    HW123062   3.691   6.850   5.334 -0.2295 -0.7117 -1.9832
 7364SOL    HW223063   3.728   6.707   5.368  0.4453 -0.2056 -0.5019
 7365SOL     OW23064   1.283   1.190   3.451 -0.0885  0.2681 -0.3959
 7365SOL    HW123065   1.343   1.260   3.475 -0.7625  1.1700 -1.2279
 7365SOL    HW223066   1.330   1.139   3.386  0.4429 -0.1157  0.2834
 7366SOL     OW23067   2.558   1.697   0.001  0.8051 -0.5393 -0.5792
 7366SOL    HW123068   2.650   1.688   0.023  0.3579 -0.7388  1.3800
 7366SOL    HW223069   2.535   1.615  -0.042  1.1778 -1.1913  0.4224
 7367SOL     OW23070   0.242   7.298   5.289 -0.0154 -0.5970  0.2222
 7367SOL    HW123071   0.178   7.367   5.305  1.2589  0.9801 -1.1823
 7367SOL    HW223072   0.282   7.282   5.374  0.4216  1.1989  0.3919
 7368SOL     OW23073   4.290   4.892   5.423  0.5293 -0.5228 -0.0546
 7368SOL    HW123074   4.269   4.809   5.379  0.7387 -0.6365  0.0583
 7368SOL    HW223075   4.281   4.872   5.516 -1.4263  0.1249 -0.0704
 7369SOL     OW23076   1.651   2.316   5.077  0.4895  0.4420 -0.1339
 7369SOL    HW123077   1.727   2.280   5.122 -0.2126  0.8617  1.4597
 7369SOL    HW223078   1.658   2.411   5.090  0.3715  0.5951 -1.1053
 7370SOL     OW23079   4.138   4.858   6.966 -0.5574 -0.0665 -0.4350
 7370SOL    HW123080   4.098   4.858   7.053  1.0002  0.8343  0.3253
 7370SOL    HW223081   4.190   4.778   6.965 -0.5179 -0.0393 -0.5038
 7371SOL     OW23082   3.327   1.707   6.513 -0.4740 -0.3336  0.4538
 7371SOL    HW123083   3.383   1.782   6.532 -1.5169  0.6715 -0.2445
 7371SOL    HW223084   3.378   1.652   6.455 -0.1998  0.5576 -0.1658
 7372SOL     OW23085   5.112   6.995   1.566  0.2234 -0.1254  0.4872
 7372SOL    HW123086   5.090   7.019   1.656  1.2540  2.2594  0.1765
 7372SOL    HW223087   5.028   6.986   1.522 -0.3025 -1.5468  1.6820
 7373SOL     OW23088   5.781   3.872   1.494  0.0740 -0.0233 -0.0922
 7373SOL    HW123089   5.704   3.901   1.542 -0.1972  0.3210 -0.7270
 7373SOL    HW223090   5.834   3.951   1.483  0.0191 -0.0496 -0.5660
 7374SOL     OW23091   2.719   6.790   2.635  0.2981  0.2538  0.0920
 7374SOL    HW123092   2.691   6.847   2.707 -0.4642  0.0946 -0.0715
 7374SOL    HW223093   2.691   6.702   2.662  0.4547  0.1208 -0.1768
 7375SOL     OW23094   6.299   1.022   1.394  0.3978 -0.5628 -0.1256
 7375SOL    HW123095   6.369   0.965   1.361 -0.4454 -0.9435 -1.3300
 7375SOL    HW223096   6.230   0.961   1.421  0.1370 -0.1635  0.1180
 7376SOL     OW23097   0.209   1.968   4.597  0.0184  0.2520  0.3858
 7376SOL    HW123098   0.288   1.933   4.639 -0.6742 -0.8078  0.8509
 7376SOL    HW223099   0.136   1.924   4.641 -0.7614 -0.7161 -1.7062
 7377SOL     OW23100   1.865   3.289   3.781 -0.4188 -0.8540  0.0860
 7377SOL    HW123101   1.786   3.319   3.826  0.1930 -0.3521  0.8539
 7377SOL    HW223102   1.833   3.235   3.709 -1.5425  0.6236 -0.5884
 7378SOL     OW23103   0.081   6.692   7.202 -0.8261  0.0248  0.4560
 7378SOL    HW123104   0.043   6.757   7.261 -0.1807 -0.3966  1.3577
 7378SOL    HW223105   0.143   6.741   7.148  0.6125 -0.0248  2.0022
 7379SOL     OW23106   0.636   0.393   6.421 -0.0615  0.3228  0.3556
 7379SOL    HW123107   0.548   0.361   6.442 -0.2884  0.0512 -0.9489
 7379SOL    HW223108   0.623   0.486   6.399 -0.5818 -0.4090 -2.8986
 7380SOL     OW23109   0.033   4.280   5.931 -0.3671 -0.1707  0.0748
 7380SOL    HW123110  -0.014   4.234   5.861 -0.2508 -1.6114  0.9013
 7380SOL    HW223111  -0.035   4.302   5.995 -0.6059  1.8558 -0.7928
 7381SOL     OW23112   6.304   1.898   2.537 -0.0684 -0.3694 -0.2823
 7381SOL    HW123113   6.341   1.961   2.476  0.4507 -0.6447 -0.2535
 7381SOL    HW223114   6.289   1.819   2.485 -2.4424  0.3239 -0.7745
 7382SOL     OW23115   4.886   2.112   6.314 -0.1968 -0.1612 -0.1669
 7382SOL    HW123116   4.843   2.078   6.393  1.0192  1.3987  1.2510
 7382SOL    HW223117   4.962   2.054   6.302  0.5551  0.5627  0.8521
 7383SOL     OW23118   2.798   7.206   4.554  0.4894  1.1611 -0.0617
 7383SOL    HW123119   2.711   7.244   4.570 -0.8770 -1.5111 -0.6287
 7383SOL    HW223120   2.814   7.150   4.630  1.3891  1.0222 -0.3449
 7384SOL     OW23121   2.182   3.267   6.324 -0.0077  0.5027 -0.3196
 7384SOL    HW123122   2.090   3.269   6.352 -0.2473 -0.1322 -1.0490
 7384SOL    HW223123   2.227   3.216   6.391 -0.9347 -2.7840 -2.0168
 7385SOL     OW23124   2.092   6.092   4.336  0.2372  0.4245 -0.3990
 7385SOL    HW123125   2.091   6.049   4.250  0.1605  1.3285 -0.8615
 7385SOL    HW223126   2.080   6.020   4.399  2.1578 -0.5004 -1.0263
 7386SOL     OW23127   1.914   0.834   4.121 -0.8781 -0.4057 -0.0203
 7386SOL    HW123128   1.885   0.922   4.096 -0.0013 -0.0712  0.0832
 7386SOL    HW223129   1.905   0.832   4.216  3.9338  1.5432  0.7850
 7387SOL     OW23130   4.424   4.096   6.922  0.2128  0.1751  0.4943
 7387SOL    HW123131   4.437   4.004   6.899  0.8077  0.3897 -0.0494
 7387SOL    HW223132   4.405   4.095   7.016 -1.4322 -0.6432  0.1961
 7388SOL     OW23133   1.350   2.552   0.491 -0.3614  0.5410  0.1454
 7388SOL    HW123134   1.374   2.610   0.419  1.0870 -1.6314 -1.2281
 7388SOL    HW223135   1.287   2.491   0.453 -1.8611  1.1202  1.5667
 7389SOL     OW23136   1.498   5.664   4.872 -0.0245  0.4501  0.3549
 7389SOL    HW123137   1.512   5.759   4.877 -0.2085  0.4350  1.4869
 7389SOL    HW223138   1.555   5.628   4.940  0.9347 -0.3711 -0.8296
 7390SOL     OW23139   0.516   2.629   7.127 -0.0629  0.0674  0.2890
 7390SOL    HW123140   0.453   2.661   7.063  0.0081 -0.2261  0.0699
 7390SOL    HW223141   0.478   2.546   7.158 -0.2769  0.3857  0.8915
 7391SOL     OW23142   0.180   0.366   1.260  0.3818 -0.3483 -1.5281
 7391SOL    HW123143   0.232   0.379   1.181  1.7068 -0.1517 -0.6664
 7391SOL    HW223144   0.174   0.454   1.299  0.7485 -0.6258 -0.8224
 7392SOL     OW23145   5.167   0.735   1.579 -0.4469  0.1052  0.2695
 7392SOL    HW123146   5.156   0.729   1.485  0.1558 -1.5088  0.2798
 7392SOL    HW223147   5.087   0.697   1.616 -0.4360  0.2119  0.4062
 7393SOL     OW23148   4.790   3.080   1.577  0.1668 -0.6019 -0.1306
 7393SOL    HW123149   4.770   3.164   1.535  0.8957 -0.6750 -0.6495
 7393SOL    HW223150   4.766   3.015   1.512  0.4969 -0.7524 -0.1035
 7394SOL     OW23151   4.332   4.865   2.353  0.2377  0.2718 -0.0269
 7394SOL    HW123152   4.304   4.910   2.273  0.3191  0.0967 -0.1532
 7394SOL    HW223153   4.264   4.886   2.417 -0.3530 -0.4063 -0.4199
 7395SOL     OW23154   5.496   2.986   2.362  0.4158  0.2367 -0.7544
 7395SOL    HW123155   5.542   2.921   2.309  0.7643  0.4118 -0.6679
 7395SOL    HW223156   5.423   3.015   2.307  1.2543  1.0325 -1.4866
 7396SOL     OW23157   2.301   0.446   6.810  0.3330  0.0651  0.7558
 7396SOL    HW123158   2.219   0.462   6.763  0.0466  0.5742  1.4130
 7396SOL    HW223159   2.276   0.390   6.884  1.1663 -2.7682 -0.9641
 7397SOL     OW23160   3.337   2.539   4.695  0.7731  0.0530 -0.6324
 7397SOL    HW123161   3.361   2.465   4.641  0.4516 -0.3382 -0.2451
 7397SOL    HW223162   3.274   2.588   4.643 -0.3837 -0.9224 -0.1867
 7398SOL     OW23163   3.896   3.167   5.929  0.4379  0.0675  0.1008
 7398SOL    HW123164   3.829   3.153   5.996  1.0081 -2.2871  0.2405
 7398SOL    HW223165   3.851   3.149   5.846  0.6151 -0.3953  0.1073
 7399SOL     OW23166   6.898   4.434   7.232 -0.3977  0.3751  0.1178
 7399SOL    HW123167   6.940   4.393   7.307  0.5347  1.1240  0.0280
 7399SOL    HW223168   6.906   4.368   7.162 -0.2914  0.1080  0.3785
 7400SOL     OW23169   2.590   6.790   4.244  0.6511 -0.0629 -0.4873
 7400SOL    HW123170   2.683   6.811   4.236  0.6364  0.3335  0.2358
 7400SOL    HW223171   2.554   6.803   4.156  0.6878  2.7940 -0.1960
 7401SOL     OW23172   2.353   6.065   1.174 -0.2237  0.2818 -0.1429
 7401SOL    HW123173   2.416   6.119   1.127  0.6908 -0.3725  0.3005
 7401SOL    HW223174   2.379   6.071   1.266  1.1889 -2.4346 -0.2416
 7402SOL     OW23175   6.993   6.865   6.712  0.0284  0.5973  0.6186
 7402SOL    HW123176   7.046   6.933   6.670  0.5290  0.4135  0.9549
 7402SOL    HW223177   7.033   6.783   6.685 -1.4388  0.3440 -0.9834
 7403SOL     OW23178   2.595   5.618   3.709 -0.0291  0.2437 -0.6432
 7403SOL    HW123179   2.603   5.531   3.749 -0.3044  0.8587  0.7858
 7403SOL    HW223180   2.507   5.647   3.733 -0.9745 -0.0973 -3.2761
 7404SOL     OW23181   2.939   4.151   4.550 -0.2290  0.4035  0.2357
 7404SOL    HW123182   2.937   4.058   4.527 -1.3460  0.5322 -0.2524
 7404SOL    HW223183   2.878   4.159   4.623 -0.0977  0.7471  0.3091
 7405SOL     OW23184   1.373   4.641   1.865  0.0756 -0.1259  0.3339
 7405SOL    HW123185   1.393   4.553   1.833  0.6834  0.6544 -1.5857
 7405SOL    HW223186   1.303   4.672   1.808  1.9553  1.7306 -1.1548
 7406SOL     OW23187   0.419   0.113   3.771  0.6516  0.7591 -0.5295
 7406SOL    HW123188   0.446   0.026   3.741 -1.5091  1.1232 -4.1337
 7406SOL    HW223189   0.492   0.170   3.745  1.6740  0.2321  1.0265
 7407SOL     OW23190   6.091   2.150   2.463 -0.2687 -0.2185 -0.6526
 7407SOL    HW123191   6.116   2.058   2.459 -1.5190 -0.5523 -1.6692
 7407SOL    HW223192   6.164   2.193   2.507 -0.2211 -1.8801  1.0519
 7408SOL     OW23193   4.702   5.590   4.530 -0.2677  0.2192  0.4806
 7408SOL    HW123194   4.611   5.615   4.512  0.0328  0.4955 -0.7609
 7408SOL    HW223195   4.695   5.509   4.580 -1.1961  0.3650  0.6114
 7409SOL     OW23196   3.237   2.464   7.073 -0.0613 -0.2367 -0.3138
 7409SOL    HW123197   3.282   2.380   7.064  0.3305 -0.0832  0.2039
 7409SOL    HW223198   3.179   2.468   6.996 -1.3576 -1.7473  0.5216
 7410SOL     OW23199   4.005   6.264   7.354 -0.0861  0.2760 -0.1225
 7410SOL    HW123200   4.028   6.329   7.421  0.6592  0.3374 -0.4346
 7410SOL    HW223201   4.038   6.302   7.273  1.5066 -1.0730 -0.1424
 7411SOL     OW23202   4.251   2.370   1.479  0.1286 -0.4656  0.2301
 7411SOL    HW123203   4.266   2.456   1.439 -1.2924  0.2381  1.1234
 7411SOL    HW223204   4.212   2.317   1.409 -0.9672  0.2929  0.2466
 7412SOL     OW23205   5.896   1.108   4.324 -0.3891 -0.1014 -0.2080
 7412SOL    HW123206   5.954   1.035   4.299 -0.5929 -0.1009 -0.7032
 7412SOL    HW223207   5.819   1.066   4.362 -0.0930 -0.1043  0.4045
 7413SOL     OW23208   3.798   6.241   4.902 -0.4439 -0.3704  0.3111
 7413SOL    HW123209   3.813   6.151   4.931 -0.9046 -1.3029 -2.0743
 7413SOL    HW223210   3.767   6.286   4.980  0.1701 -2.1562  1.6840
 7414SOL     OW23211   2.402   7.328   5.081  0.2502 -0.0361  0.0258
 7414SOL    HW123212   2.441   7.369   5.004 -0.2468 -0.0728 -0.2522
 7414SOL    HW223213   2.355   7.252   5.046 -0.7439  0.4630  0.2474
 7415SOL     OW23214   5.315   0.226   0.628 -0.0730  0.2406  0.1812
 7415SOL    HW123215   5.338   0.135   0.606  0.7195  0.8162 -1.5510
 7415SOL    HW223216   5.248   0.249   0.564  0.5522  1.2235 -0.1351
 7416SOL     OW23217   2.936   5.179   5.304 -0.3559  0.6733  0.0913
 7416SOL    HW123218   3.000   5.248   5.316  0.2021  0.3661 -0.9961
 7416SOL    HW223219   2.988   5.101   5.282 -1.0415  0.1957  0.1165
 7417SOL     OW23220   5.855   1.680   3.573  0.5622  0.1631  0.3676
 7417SOL    HW123221   5.877   1.643   3.488 -1.1133 -1.4900  0.5901
 7417SOL    HW223222   5.813   1.764   3.552 -0.5308 -0.5796 -0.5211
 7418SOL     OW23223   1.989   3.879   5.216 -0.3714 -0.2979 -0.1473
 7418SOL    HW123224   1.994   3.967   5.252  0.3972 -0.4151  0.0370
 7418SOL    HW223225   2.063   3.874   5.155  0.3283 -1.2341  0.7662
 7419SOL     OW23226   0.781   7.124   2.604 -0.7264  0.2524 -0.7969
 7419SOL    HW123227   0.686   7.118   2.597 -0.6480 -2.7304 -0.7710
 7419SOL    HW223228   0.813   7.095   2.518  0.2788  3.9517 -1.8701
 7420SOL     OW23229   6.004   6.379   3.262  0.0737 -0.5282  0.6707
 7420SOL    HW123230   6.087   6.349   3.301 -0.7263 -2.1030  1.2561
 7420SOL    HW223231   5.969   6.441   3.325 -0.7421 -2.3304  2.0655
 7421SOL     OW23232   7.153   1.409   1.962  0.3459  0.1798 -0.4632
 7421SOL    HW123233   7.198   1.426   1.880  3.3690  2.6400  1.4825
 7421SOL    HW223234   7.109   1.491   1.983  0.2898 -0.1400  0.7530
 7422SOL     OW23235   1.687   5.803   1.822 -0.0943 -0.2302 -0.1946
 7422SOL    HW123236   1.731   5.885   1.799  0.2615 -0.3951 -0.1112
 7422SOL    HW223237   1.759   5.741   1.840 -0.3553 -0.3687  0.4080
 7423SOL     OW23238   0.365   4.028   4.689 -0.3820  0.1289 -0.3868
 7423SOL    HW123239   0.418   3.948   4.683  2.8184  2.1944 -3.5247
 7423SOL    HW223240   0.397   4.071   4.768 -0.7624 -0.7479  0.2674
 7424SOL     OW23241   2.690   5.308   5.695 -0.4741 -0.2484 -0.1128
 7424SOL    HW123242   2.718   5.328   5.605  1.2252 -0.9695  0.2161
 7424SOL    HW223243   2.772   5.295   5.743 -1.3760 -0.8520  1.3216
 7425SOL     OW23244   3.277   3.838   5.592 -0.1603 -0.3116 -0.1659
 7425SOL    HW123245   3.233   3.770   5.643 -2.0407  0.6116 -0.4753
 7425SOL    HW223246   3.319   3.894   5.657 -1.5735  0.2072  0.3288
 7426SOL     OW23247   4.655   5.165   7.119  0.5576  0.0524 -0.0595
 7426SOL    HW123248   4.608   5.143   7.200 -1.2762  0.1790 -1.0433
 7426SOL    HW223249   4.632   5.095   7.058 -0.7712  1.6335 -1.4625
 7427SOL     OW23250   6.362   3.862   0.438  0.6573 -0.0203 -0.1147
 7427SOL    HW123251   6.422   3.900   0.502 -0.0763 -2.6644  2.3518
 7427SOL    HW223252   6.283   3.915   0.445  0.8072  0.1124  0.7249
 7428SOL     OW23253   3.151   4.530   5.206 -0.3646 -0.1513 -0.6648
 7428SOL    HW123254   3.190   4.591   5.269 -0.4810 -0.1816 -0.5621
 7428SOL    HW223255   3.184   4.444   5.232  1.7208  0.0944 -2.2437
 7429SOL     OW23256   0.818   5.831   7.214  0.7742 -0.2266  0.0431
 7429SOL    HW123257   0.881   5.769   7.251 -1.7970 -2.3783  1.2104
 7429SOL    HW223258   0.735   5.784   7.217 -1.2951  3.1646  0.6054
 7430SOL     OW23259   2.357   5.679   2.413 -0.1103 -0.5239  0.0022
 7430SOL    HW123260   2.272   5.724   2.416 -0.1412 -0.6140  0.8329
 7430SOL    HW223261   2.421   5.748   2.425 -0.0368 -0.4096 -0.9597
 7431SOL     OW23262   0.819   4.703   3.769  0.4131 -0.2720  0.0162
 7431SOL    HW123263   0.784   4.671   3.685 -0.7081  0.3337  0.2331
 7431SOL    HW223264   0.874   4.778   3.744  1.3991 -1.0783 -0.3057
 7432SOL     OW23265   2.596   4.688   2.953 -0.3840  0.4877 -0.3779
 7432SOL    HW123266   2.510   4.679   2.994  0.2783 -0.5895  0.8432
 7432SOL    HW223267   2.643   4.608   2.978  0.6858  0.6479 -1.7461
 7433SOL     OW23268   5.799   6.926   4.479  0.0229 -0.2799 -0.1792
 7433SOL    HW123269   5.826   6.853   4.535 -0.0109 -2.1883 -2.4870
 7433SOL    HW223270   5.722   6.963   4.523  0.2359 -1.4107  1.2082
 7434SOL     OW23271   3.071   4.934   5.198  0.2492  0.1604 -0.8342
 7434SOL    HW123272   3.032   4.876   5.264 -1.9373  2.0628 -0.3220
 7434SOL    HW223273   3.061   4.886   5.115 -1.6989 -0.1706 -0.4586
 7435SOL     OW23274   0.976   2.196   2.620  0.5050  0.5332 -0.0507
 7435SOL    HW123275   1.054   2.228   2.574  0.6163 -0.7674 -0.7838
 7435SOL    HW223276   0.998   2.107   2.647 -1.1496 -0.3066 -1.3258
 7436SOL     OW23277   0.596   0.659   4.652 -0.2080  0.6122  0.0175
 7436SOL    HW123278   0.641   0.735   4.615 -0.0065 -0.6095 -2.4083
 7436SOL    HW223279   0.549   0.619   4.579 -1.1433 -1.0489  1.4200
 7437SOL     OW23280   4.488   3.278   3.217 -0.1475  1.0379  0.3695
 7437SOL    HW123281   4.581   3.296   3.203  0.0617  0.7697  1.3621
 7437SOL    HW223282   4.443   3.334   3.153  0.7490 -0.6170 -1.8436
 7438SOL     OW23283   6.340   5.383   6.338 -0.3742 -0.9105 -0.0753
 7438SOL    HW123284   6.389   5.368   6.419 -0.6299 -0.3341  0.1949
 7438SOL    HW223285   6.270   5.444   6.363  0.6467  0.7620 -1.1250
 7439SOL     OW23286   2.114   2.357   2.142 -0.2454 -0.7215 -0.5633
 7439SOL    HW123287   2.049   2.298   2.106 -0.6555 -1.0050  0.5968
 7439SOL    HW223288   2.076   2.445   2.130 -1.1348 -0.9093  0.5760
 7440SOL     OW23289   3.163   4.844   5.917 -0.2260  0.3582 -0.3065
 7440SOL    HW123290   3.116   4.894   5.851  0.2849 -0.3695 -1.2601
 7440SOL    HW223291   3.244   4.894   5.932 -0.1425  0.3067 -0.5692
 7441SOL     OW23292   1.900   1.077   4.839 -0.6121  0.0711  0.5498
 7441SOL    HW123293   1.923   1.123   4.920 -0.7461 -0.6734  1.0137
 7441SOL    HW223294   1.816   1.114   4.813 -0.5694  0.3108  0.7504
 7442SOL     OW23295   4.719   2.016   0.403 -0.1544 -0.7381 -0.2661
 7442SOL    HW123296   4.662   1.940   0.395 -2.6534  0.8551  0.9753
 7442SOL    HW223297   4.677   2.083   0.349  0.4847  0.5292  0.7492
 7443SOL     OW23298   1.259   1.524   2.919 -0.2929  0.1850  0.6967
 7443SOL    HW123299   1.332   1.579   2.948 -0.4996  0.5578  0.5157
 7443SOL    HW223300   1.282   1.437   2.950  1.2891 -0.1427 -1.1843
 7444SOL     OW23301   0.199   5.596   6.283  0.0643  0.2205  0.4525
 7444SOL    HW123302   0.183   5.565   6.372  0.9437  0.5946  0.7543
 7444SOL    HW223303   0.251   5.676   6.295  2.3162 -1.0233 -0.4375
 7445SOL     OW23304   2.768   3.047   1.093  0.5585 -0.0894  0.5202
 7445SOL    HW123305   2.864   3.051   1.088  1.0139 -1.8433  4.2025
 7445SOL    HW223306   2.750   3.038   1.186 -2.9916 -3.3902 -0.2397
 7446SOL     OW23307   1.650   0.255   0.234 -0.8844  0.5398 -0.3179
 7446SOL    HW123308   1.744   0.272   0.236 -0.5572 -1.1076 -0.3347
 7446SOL    HW223309   1.632   0.228   0.144 -1.1651 -0.1396 -0.0671
 7447SOL     OW23310   0.033   2.296   4.539  0.2325 -0.0047  0.2337
 7447SOL    HW123311  -0.027   2.233   4.498 -1.4373  1.8475 -0.3562
 7447SOL    HW223312   0.044   2.264   4.629  1.2316 -2.2830 -0.5979
 7448SOL     OW23313   5.563   5.470   1.646  0.3765  0.1638 -0.2892
 7448SOL    HW123314   5.649   5.463   1.686  0.5596 -0.6899 -0.8133
 7448SOL    HW223315   5.579   5.460   1.552 -0.3772 -0.8175 -0.3263
 7449SOL     OW23316   1.128   5.092   1.043  0.1317 -0.5182 -0.5898
 7449SOL    HW123317   1.163   5.172   1.003  0.5310 -1.2393 -1.7428
 7449SOL    HW223318   1.034   5.108   1.052  0.5106  0.9814  1.4265
 7450SOL     OW23319   5.468   0.034   0.920 -0.2975 -0.7692  0.4587
 7450SOL    HW123320   5.445  -0.058   0.906  1.2329 -0.9332 -1.3108
 7450SOL    HW223321   5.386   0.081   0.904 -0.6838 -1.7061 -0.4663
 7451SOL     OW23322   4.424   5.788   3.003 -0.5393  0.3494 -0.8758
 7451SOL    HW123323   4.475   5.777   2.923  0.3957  0.1578 -0.2684
 7451SOL    HW223324   4.418   5.700   3.040 -0.0897  0.5871 -0.2205
 7452SOL     OW23325   1.774   3.974   1.588 -0.6689 -0.2412  0.0235
 7452SOL    HW123326   1.699   3.971   1.647 -1.2665 -0.9156 -0.7343
 7452SOL    HW223327   1.748   3.917   1.515  0.8416 -1.0210  0.0587
 7453SOL     OW23328   6.804   5.567   2.701 -0.6617  0.2188  0.4830
 7453SOL    HW123329   6.874   5.505   2.724  0.0249  1.2743  1.3421
 7453SOL    HW223330   6.723   5.517   2.712 -0.0689 -1.0299 -0.5140
 7454SOL     OW23331   6.793   3.329   2.474 -0.4596 -0.1952  0.7862
 7454SOL    HW123332   6.789   3.411   2.424  0.7932 -0.9337 -0.6131
 7454SOL    HW223333   6.803   3.261   2.407  0.8050 -1.2834  2.0100
 7455SOL     OW23334   4.692   3.991   4.435  0.4205 -0.2154 -0.1477
 7455SOL    HW123335   4.785   3.971   4.437  0.4747  0.0384 -0.1308
 7455SOL    HW223336   4.657   3.938   4.364  0.4701 -0.7740  0.2422
 7456SOL     OW23337   5.366   6.932   3.488  0.4201  0.6853 -0.1636
 7456SOL    HW123338   5.289   6.937   3.544  0.9881 -0.1425  0.7290
 7456SOL    HW223339   5.359   6.848   3.444  1.1410  0.2936  0.4457
 7457SOL     OW23340   1.474   2.993   3.515 -0.4713 -0.0726 -0.1197
 7457SOL    HW123341   1.480   2.901   3.539 -1.0494 -0.1942 -0.4356
 7457SOL    HW223342   1.428   2.994   3.432 -0.2416  0.4866 -0.2470
 7458SOL     OW23343   3.486   3.912   7.250 -0.0871  0.5805  0.3350
 7458SOL    HW123344   3.491   4.001   7.215  2.0770  0.6362  0.7029
 7458SOL    HW223345   3.470   3.923   7.343  2.3559  0.6992  0.7880
 7459SOL     OW23346   6.620   5.617   3.322 -0.3003  0.8024  0.1536
 7459SOL    HW123347   6.563   5.689   3.296  0.9870  0.9724 -2.6520
 7459SOL    HW223348   6.622   5.619   3.417 -0.9240  3.9780  0.1889
 7460SOL     OW23349   1.897   4.089   6.259 -0.4521 -0.0973  0.0175
 7460SOL    HW123350   1.968   4.125   6.312  1.3513 -1.5405 -1.2951
 7460SOL    HW223351   1.862   4.017   6.311 -1.2988  0.8888  0.8576
 7461SOL     OW23352   0.870   2.224   4.716  0.6027 -0.2269  0.3115
 7461SOL    HW123353   0.811   2.154   4.743  0.5637 -0.7484 -1.0497
 7461SOL    HW223354   0.940   2.180   4.667  0.7688  0.6337 -0.2538
 7462SOL     OW23355   4.148   5.459   1.501 -0.4796 -0.2318 -0.5179
 7462SOL    HW123356   4.096   5.382   1.524  0.9362 -0.6864  1.3750
 7462SOL    HW223357   4.219   5.461   1.564  1.1669  1.0532 -2.2690
 7463SOL     OW23358   6.126   4.070   1.473  0.8512  0.1802 -0.3705
 7463SOL    HW123359   6.077   4.088   1.554  1.5171 -1.2510  0.3843
 7463SOL    HW223360   6.099   4.140   1.413 -0.3053  0.7872  0.7983
 7464SOL     OW23361   4.684   0.585   1.323  0.4221 -0.5287 -0.1039
 7464SOL    HW123362   4.768   0.571   1.278  1.0641 -1.0960  1.1877
 7464SOL    HW223363   4.654   0.496   1.344  0.7519 -0.2696  1.5944
 7465SOL     OW23364   0.688   4.035   2.243 -0.5088 -0.3023  0.3962
 7465SOL    HW123365   0.714   4.105   2.183 -0.1697 -0.0466  0.8344
 7465SOL    HW223366   0.595   4.052   2.260 -1.1810 -1.5411 -1.6065
 7466SOL     OW23367   2.342   0.909   4.232 -0.1378 -0.0524  0.3358
 7466SOL    HW123368   2.338   0.837   4.296 -1.2116  0.0550  0.4007
 7466SOL    HW223369   2.395   0.873   4.161 -0.8970 -1.0360  0.2351
 7467SOL     OW23370   5.200   0.781   1.299  0.1308 -0.0531  0.0739
 7467SOL    HW123371   5.200   0.799   1.205  1.7800  1.2758  0.2854
 7467SOL    HW223372   5.275   0.829   1.333 -0.9476  0.2350  2.2300
 7468SOL     OW23373   0.480   2.567   1.569  0.1947 -0.0710  0.0114
 7468SOL    HW123374   0.443   2.493   1.520  0.5142 -1.2604  1.5162
 7468SOL    HW223375   0.468   2.642   1.510  0.1850 -1.3559 -1.7089
 7469SOL     OW23376   0.797   7.098   3.353 -0.4727 -0.0549  0.4153
 7469SOL    HW123377   0.769   7.041   3.281 -1.5043 -0.1190  0.8526
 7469SOL    HW223378   0.823   7.038   3.422 -0.2298  0.0097  0.3815
 7470SOL     OW23379   5.314   7.019   1.830  0.1198 -0.0432 -0.1015
 7470SOL    HW123380   5.229   7.058   1.852  0.3577 -0.1017  0.9858
 7470SOL    HW223381   5.310   7.005   1.735 -0.6969  0.8727 -0.2219
 7471SOL     OW23382   5.398   5.080   1.311  0.3473  0.0125 -0.6855
 7471SOL    HW123383   5.379   5.011   1.375 -2.1175  0.4656 -0.8219
 7471SOL    HW223384   5.354   5.158   1.346  2.5393  1.3907 -0.8594
 7472SOL     OW23385   2.075   3.315   2.506 -0.2602 -0.7760 -0.2491
 7472SOL    HW123386   2.078   3.275   2.593 -0.4032 -0.5718 -0.1481
 7472SOL    HW223387   1.983   3.338   2.493  0.0067  0.7406  0.2763
 7473SOL     OW23388   5.001   6.168   1.505  0.0747 -1.0620 -0.1193
 7473SOL    HW123389   4.989   6.148   1.412  0.5884 -0.4057 -0.3285
 7473SOL    HW223390   4.945   6.104   1.550 -0.6440 -0.9992 -0.8931
 7474SOL     OW23391   1.207   1.533   6.141 -0.5343 -0.1281 -0.1267
 7474SOL    HW123392   1.167   1.470   6.202 -3.3291  1.1253 -0.5280
 7474SOL    HW223393   1.298   1.505   6.135 -0.4718 -1.2451  3.4285
 7475SOL     OW23394   5.531   7.115   6.925 -0.0804  0.4672 -0.2300
 7475SOL    HW123395   5.528   7.040   6.865  0.4264  0.8360 -0.7301
 7475SOL    HW223396   5.466   7.095   6.992  1.9192 -1.7113  1.1990
 7476SOL     OW23397   2.322   1.593   1.613  0.0128 -0.2442  0.2160
 7476SOL    HW123398   2.291   1.649   1.684  0.3389 -1.3499  1.2657
 7476SOL    HW223399   2.372   1.652   1.557 -2.7956  1.3492 -0.8622
 7477SOL     OW23400   6.323   4.085   4.176 -0.2966 -0.2146  0.5250
 7477SOL    HW123401   6.396   4.066   4.118  1.5101 -0.2554  2.6639
 7477SOL    HW223402   6.256   4.122   4.119  0.9685 -1.1381 -1.6935
 7478SOL     OW23403   7.212   3.075   4.652 -0.5524 -0.2266  0.0399
 7478SOL    HW123404   7.178   3.021   4.581 -0.0078  0.9056 -1.1448
 7478SOL    HW223405   7.136   3.094   4.707 -1.0551 -0.8470 -0.4314
 7479SOL     OW23406   1.280   0.108   1.593  0.5228  0.7267 -0.2905
 7479SOL    HW123407   1.308   0.030   1.640  0.4366  0.4149 -0.7472
 7479SOL    HW223408   1.215   0.149   1.650 -1.8159 -1.2225 -1.3741
 7480SOL     OW23409   0.269   3.177   5.063  0.2450 -0.0975  0.6997
 7480SOL    HW123410   0.317   3.095   5.053 -1.1523 -0.8203 -0.2800
 7480SOL    HW223411   0.178   3.155   5.044  0.3056  2.3998 -3.6209
 7481SOL     OW23412   2.026   3.313   5.133 -0.2730  0.0910 -0.5384
 7481SOL    HW123413   1.980   3.363   5.201 -1.1140 -0.8458 -0.3931
 7481SOL    HW223414   2.057   3.235   5.179 -1.3340 -0.8266 -1.3304
 7482SOL     OW23415   0.041   7.061   4.888  0.0205  0.1915  0.4740
 7482SOL    HW123416   0.067   6.974   4.859  0.5993  0.2758  0.7216
 7482SOL    HW223417   0.087   7.073   4.971 -1.2074  0.1583  1.1724
 7483SOL     OW23418   4.574   5.280   4.647  0.2774 -0.1728  0.0040
 7483SOL    HW123419   4.561   5.202   4.594 -0.4174 -0.6029  0.7842
 7483SOL    HW223420   4.623   5.248   4.724 -1.2593 -0.1552  1.0331
 7484SOL     OW23421   1.843   0.325   5.002  0.4141  0.1779  0.1059
 7484SOL    HW123422   1.870   0.404   5.048  1.1462 -0.0901  0.1476
 7484SOL    HW223423   1.821   0.262   5.071  0.7928  0.0216  0.0874
 7485SOL     OW23424   4.977   4.488   3.541 -0.4833 -0.5469  0.2063
 7485SOL    HW123425   4.901   4.475   3.484 -1.0130 -0.5983  0.8998
 7485SOL    HW223426   5.046   4.520   3.483 -1.1516 -0.1256 -0.3766
 7486SOL     OW23427   5.612   2.844   1.954  0.1977 -0.3542  0.5048
 7486SOL    HW123428   5.559   2.771   1.920  0.2529  0.6064 -1.8314
 7486SOL    HW223429   5.563   2.922   1.929  2.1389  0.5229 -0.7501
 7487SOL     OW23430   3.828   2.454   6.859 -0.1996  0.0761 -0.5433
 7487SOL    HW123431   3.865   2.401   6.929  3.3821  0.6309 -1.7740
 7487SOL    HW223432   3.824   2.395   6.784 -0.2473  0.4725 -0.8556
 7488SOL     OW23433   4.981   6.398   3.890 -0.3543 -0.1494 -0.1921
 7488SOL    HW123434   4.966   6.348   3.810  0.0723  0.8309 -0.9106
 7488SOL    HW223435   5.019   6.480   3.859  1.6588 -0.4993  1.1308
 7489SOL     OW23436   1.874   3.527   5.003  0.0781 -0.4679  0.2177
 7489SOL    HW123437   1.924   3.457   5.044  0.7744  1.4026  2.9184
 7489SOL    HW223438   1.938   3.574   4.949 -0.0767 -1.1211 -0.5467
 7490SOL     OW23439   1.445   5.165   1.459  0.0481 -0.4671  0.1440
 7490SOL    HW123440   1.375   5.230   1.455  0.2700 -0.2203  0.2757
 7490SOL    HW223441   1.422   5.101   1.392 -0.0837 -0.1659 -0.0989
 7491SOL     OW23442   5.824   3.621   3.349 -0.0638 -0.1875 -0.6236
 7491SOL    HW123443   5.804   3.714   3.346  3.0084  0.6732  1.1951
 7491SOL    HW223444   5.756   3.584   3.406  0.3353  1.5555  1.1066
 7492SOL     OW23445   4.760   4.483   3.729 -0.3454  0.1043 -0.2034
 7492SOL    HW123446   4.733   4.552   3.669  1.9508  1.5840  0.3542
 7492SOL    HW223447   4.838   4.445   3.689  0.4692  0.2553  1.1787
 7493SOL     OW23448   6.904   3.625   2.094 -0.5240  0.3710 -0.3596
 7493SOL    HW123449   6.939   3.536   2.086 -0.1859  0.5988 -1.6174
 7493SOL    HW223450   6.834   3.630   2.029 -0.5173  1.0319 -0.3262
 7494SOL     OW23451   3.555   1.240   6.563  0.5704 -0.1859  0.1637
 7494SOL    HW123452   3.468   1.208   6.587  0.3746  1.6066  2.1674
 7494SOL    HW223453   3.583   1.182   6.491 -1.3504 -2.1695  0.8868
 7495SOL     OW23454   1.362   7.208   3.600  0.4546  0.2436 -0.2136
 7495SOL    HW123455   1.430   7.261   3.558  0.3658  0.4564 -0.0925
 7495SOL    HW223456   1.346   7.252   3.683 -0.9888  1.1367 -0.9285
 7496SOL     OW23457   4.846   1.556   5.795 -0.5913 -0.0523  0.7584
 7496SOL    HW123458   4.933   1.535   5.830 -0.1666 -0.5038 -0.5082
 7496SOL    HW223459   4.801   1.472   5.789 -1.4022  0.2611  2.0775
 7497SOL     OW23460   2.821   3.548   4.116 -0.1002  0.5385 -0.5811
 7497SOL    HW123461   2.739   3.571   4.073 -1.0914 -0.8909  0.4518
 7497SOL    HW223462   2.878   3.519   4.045 -1.1604 -0.2721 -1.1239
 7498SOL     OW23463   5.432   2.801   6.419  0.0614  0.1079 -0.6448
 7498SOL    HW123464   5.364   2.832   6.359 -0.6984 -0.9124 -0.3445
 7498SOL    HW223465   5.387   2.738   6.475  0.4162  1.9207  1.8497
 7499SOL     OW23466   3.955   1.202   2.218  0.3506 -0.3552  0.0273
 7499SOL    HW123467   4.044   1.236   2.227  0.2008 -0.1061  0.6241
 7499SOL    HW223468   3.910   1.266   2.163  0.2846  0.0082  0.4994
 7500SOL     OW23469   5.114   2.462   1.632  0.2779  0.6358 -0.0390
 7500SOL    HW123470   5.129   2.546   1.588  0.4089  0.5857 -0.0897
 7500SOL    HW223471   5.152   2.397   1.573  1.7229  0.6859  0.7988
 7501SOL     OW23472   4.533   3.664   5.282  0.0142 -0.1095  0.4043
 7501SOL    HW123473   4.539   3.569   5.285 -0.8005 -0.2074 -0.5457
 7501SOL    HW223474   4.440   3.682   5.273  0.0034  0.8431  2.0243
 7502SOL     OW23475   6.454   3.227   6.335 -0.5037  0.4625 -0.0887
 7502SOL    HW123476   6.372   3.179   6.333 -0.4322  0.3240  0.2861
 7502SOL    HW223477   6.506   3.189   6.264 -0.6935  0.4296 -0.2099
 7503SOL     OW23478   0.127   5.687   2.379 -0.0877  0.2242 -0.1806
 7503SOL    HW123479   0.076   5.735   2.314 -0.2094  0.8159  0.3396
 7503SOL    HW223480   0.179   5.754   2.424 -0.6880 -0.0341  0.9525
 7504SOL     OW23481   0.500   6.674   6.275 -0.2270 -0.1608 -0.7855
 7504SOL    HW123482   0.571   6.692   6.213 -0.5112  1.1184 -0.7775
 7504SOL    HW223483   0.431   6.637   6.221  0.3209 -1.1303 -0.8453
 7505SOL     OW23484   5.287   2.201   6.433 -0.5256  0.1793 -0.1002
 7505SOL    HW123485   5.233   2.129   6.465 -1.5969  0.7318 -0.6021
 7505SOL    HW223486   5.269   2.203   6.339  2.2153 -1.1403 -0.7488
 7506SOL     OW23487   0.716   4.810   4.949  0.1627  0.2746 -0.1044
 7506SOL    HW123488   0.746   4.896   4.980  1.2251 -0.4529  1.0021
 7506SOL    HW223489   0.717   4.755   5.027 -0.2598 -0.8124 -0.8458
 7507SOL     OW23490   1.474   6.006   1.911 -0.7305 -0.9036 -0.4898
 7507SOL    HW123491   1.542   5.940   1.909 -0.0231 -0.1967 -0.2118
 7507SOL    HW223492   1.520   6.089   1.896 -1.8921 -0.6663 -3.4761
 7508SOL     OW23493   2.545   0.516   2.474  0.1795 -0.5949  0.1058
 7508SOL    HW123494   2.604   0.502   2.549 -1.6994 -2.2269  1.3568
 7508SOL    HW223495   2.463   0.547   2.513  0.0951  1.6015 -1.5954
 7509SOL     OW23496   1.537   2.167   6.202  0.0187 -0.0166  0.2143
 7509SOL    HW123497   1.448   2.171   6.167 -0.6026  1.1584  1.7583
 7509SOL    HW223498   1.591   2.137   6.130 -1.5389 -0.1046 -0.9574
 7510SOL     OW23499   0.219   1.587   2.345  0.0804 -0.4758  0.6108
 7510SOL    HW123500   0.203   1.496   2.371 -0.6660 -0.5810 -0.1776
 7510SOL    HW223501   0.253   1.629   2.424  0.7799 -1.5226  0.8924
 7511SOL     OW23502   4.928   4.018   6.036 -0.1936  0.1277 -0.1681
 7511SOL    HW123503   4.914   4.112   6.028 -0.6911  0.1897  1.1587
 7511SOL    HW223504   4.850   3.986   6.083  1.5725 -0.3399  2.7319
 7512SOL     OW23505   1.076   2.790   7.143  0.6835  0.1643  0.6038
 7512SOL    HW123506   1.051   2.709   7.186 -0.0159  0.7113  1.2639
 7512SOL    HW223507   1.077   2.770   7.049 -0.5250 -0.3349  0.6853
 7513SOL     OW23508   1.082   4.342   5.652 -0.3256 -1.0423  0.6373
 7513SOL    HW123509   1.024   4.380   5.718  0.1141  1.7937 -0.4502
 7513SOL    HW223510   1.029   4.337   5.573  0.2842 -0.4600  0.1775
 7514SOL     OW23511   2.448   4.206   4.697  0.0269  0.6544  0.5112
 7514SOL    HW123512   2.449   4.140   4.628  0.7031  0.0950  1.0391
 7514SOL    HW223513   2.361   4.245   4.692 -0.7373 -0.9510  0.8084
 7515SOL     OW23514   3.859   4.257   5.699 -0.2105  0.5945 -0.3556
 7515SOL    HW123515   3.942   4.212   5.715 -0.5154 -0.0017 -0.4207
 7515SOL    HW223516   3.805   4.235   5.775  0.8861  3.9690  1.6056
 7516SOL     OW23517   1.493   1.947   5.481 -0.0574 -0.2566 -0.2648
 7516SOL    HW123518   1.538   2.031   5.471 -0.9979  0.1078 -1.5816
 7516SOL    HW223519   1.527   1.913   5.564  2.4086  0.1340 -1.0232
 7517SOL     OW23520   6.638   1.917   5.618 -0.2141  0.0167 -0.0385
 7517SOL    HW123521   6.711   1.889   5.563  0.1440  3.4462 -1.6044
 7517SOL    HW223522   6.614   1.839   5.668  3.8740 -1.5604 -0.1389
 7518SOL     OW23523   1.072   1.113   0.043  0.8576 -0.4955 -0.3915
 7518SOL    HW123524   1.009   1.078   0.107  1.5156 -1.3795 -0.2041
 7518SOL    HW223525   1.115   1.185   0.088 -0.0726  0.1848 -0.5548
 7519SOL     OW23526   3.195   3.084   0.951  0.8117  0.1124  0.3306
 7519SOL    HW123527   3.279   3.070   0.995  1.1952 -2.2096 -0.9715
 7519SOL    HW223528   3.215   3.074   0.858 -1.0712 -1.7725  0.0514
 7520SOL     OW23529   4.765   3.857   0.934  0.2868 -0.8520  0.1239
 7520SOL    HW123530   4.808   3.935   0.899 -0.3921 -0.6659 -0.3302
 7520SOL    HW223531   4.782   3.860   1.028 -0.9810  0.6852  0.3580
 7521SOL     OW23532   6.344   1.459   0.964  0.0906 -0.3440 -0.6820
 7521SOL    HW123533   6.396   1.424   1.036 -0.2114  1.0139  0.2371
 7521SOL    HW223534   6.397   1.442   0.886  1.5413  0.2463  0.1322
 7522SOL     OW23535   1.519   0.360   0.981 -0.2504  0.3608 -0.8511
 7522SOL    HW123536   1.516   0.403   1.067 -2.3403 -1.5615  0.1639
 7522SOL    HW223537   1.438   0.388   0.938 -0.9650 -1.3639 -0.7144
 7523SOL     OW23538   3.986   5.121   2.579  0.6594 -0.1435 -0.2932
 7523SOL    HW123539   3.891   5.113   2.586  0.8455 -1.1706  2.6298
 7523SOL    HW223540   4.008   5.196   2.635  1.6989 -1.6497  1.4341
 7524SOL     OW23541   0.401   6.266   1.142  0.1796 -0.4172 -0.1619
 7524SOL    HW123542   0.319   6.217   1.139  0.0114 -0.2442  1.0407
 7524SOL    HW223543   0.466   6.203   1.173  0.3785 -0.3956 -0.5321
 7525SOL     OW23544   5.168   6.150   5.625  0.4249 -0.0661  0.1030
 7525SOL    HW123545   5.193   6.082   5.687  0.7719 -0.1461 -0.1194
 7525SOL    HW223546   5.073   6.149   5.626  0.4283 -0.1047  0.5884
 7526SOL     OW23547   7.005   7.021   0.380 -0.0319  0.2747  0.4913
 7526SOL    HW123548   6.985   7.041   0.471  0.0837 -0.8662  0.7903
 7526SOL    HW223549   7.100   7.014   0.377 -0.0202  0.5158  0.2342
 7527SOL     OW23550   2.318   2.305   1.942 -0.0250 -0.1184 -0.3068
 7527SOL    HW123551   2.246   2.318   2.004 -0.6563  0.6159 -1.1635
 7527SOL    HW223552   2.379   2.247   1.987  0.0897  1.2777  1.4610
 7528SOL     OW23553   1.577   5.646   4.578  0.4899 -0.7858 -0.0039
 7528SOL    HW123554   1.575   5.611   4.667  0.8465 -1.9360 -0.4246
 7528SOL    HW223555   1.583   5.569   4.522 -0.5634 -0.1221 -1.0746
 7529SOL     OW23556   1.373   0.232   4.257 -0.7395  0.3944 -0.0780
 7529SOL    HW123557   1.398   0.322   4.277  0.3932 -0.0108  0.4065
 7529SOL    HW223558   1.359   0.232   4.162 -1.6581  1.2770  0.0401
 7530SOL     OW23559   2.588   1.645   0.698  0.1332 -0.3616 -0.1887
 7530SOL    HW123560   2.670   1.669   0.654 -0.0808  1.0191  0.1140
 7530SOL    HW223561   2.614   1.630   0.790 -0.0855  1.0692  0.1263
 7531SOL     OW23562   0.948   2.411   2.779  0.0590 -0.5453 -0.5376
 7531SOL    HW123563   0.943   2.340   2.716 -2.7029 -0.1379 -0.8896
 7531SOL    HW223564   1.005   2.377   2.849 -1.0016 -3.0360 -0.7816
 7532SOL     OW23565   7.070   3.271   4.457  0.3731 -0.3016 -0.3544
 7532SOL    HW123566   7.109   3.203   4.512 -0.5951 -0.8142 -0.2738
 7532SOL    HW223567   7.057   3.345   4.515 -1.9557 -1.3180  0.5283
 7533SOL     OW23568   2.315   3.482   4.711  0.4612 -0.1295 -0.3026
 7533SOL    HW123569   2.393   3.427   4.719  1.5632  0.6758 -3.9409
 7533SOL    HW223570   2.250   3.427   4.667  0.1903  0.2815 -0.4292
 7534SOL     OW23571   3.958   6.483   4.095  0.2120 -0.3578 -0.4604
 7534SOL    HW123572   3.941   6.509   4.004  2.5938 -1.7370 -1.4021
 7534SOL    HW223573   4.001   6.398   4.087  1.4687 -0.0197  1.9042
 7535SOL     OW23574   3.898   1.283   7.089  0.0511 -0.3927 -0.1352
 7535SOL    HW123575   3.866   1.365   7.128  0.2278  0.1495 -1.0768
 7535SOL    HW223576   3.915   1.306   6.998  0.3191 -1.4364 -0.3599
 7536SOL     OW23577   0.465   0.527   4.053  0.3797  0.1287 -0.3214
 7536SOL    HW123578   0.379   0.567   4.046  1.0024  1.2416 -2.2158
 7536SOL    HW223579   0.526   0.596   4.027  1.7268 -1.0861 -0.4976
 7537SOL     OW23580   1.764   2.685   2.738 -0.4325 -0.5753 -0.5186
 7537SOL    HW123581   1.673   2.661   2.722 -0.1141 -1.3853 -1.1604
 7537SOL    HW223582   1.814   2.635   2.674  0.5243 -0.6139  0.2306
 7538SOL     OW23583   3.965   2.095   4.605 -0.0349  0.0697  0.6742
 7538SOL    HW123584   3.883   2.116   4.650  0.7318  3.2252  0.7949
 7538SOL    HW223585   3.967   2.154   4.530  1.4046 -1.1057 -0.2677
 7539SOL     OW23586   0.663   0.639   2.222  0.0230  0.4733  0.2301
 7539SOL    HW123587   0.718   0.583   2.166 -1.0458  0.5610 -0.9605
 7539SOL    HW223588   0.651   0.588   2.302  1.5723  0.3273  0.3951
 7540SOL     OW23589   3.290   6.540   4.162 -0.0691 -0.2938 -0.1671
 7540SOL    HW123590   3.322   6.532   4.071 -1.4924  0.4926 -0.7602
 7540SOL    HW223591   3.340   6.474   4.210  1.8063  0.2809 -1.2092
 7541SOL     OW23592   3.255   4.708   1.324  0.8435 -0.4758  0.1117
 7541SOL    HW123593   3.206   4.699   1.406  0.0352  0.8169 -0.1920
 7541SOL    HW223594   3.236   4.798   1.296  1.6475 -0.6915 -1.1478
 7542SOL     OW23595   2.523   4.364   2.917 -0.5469 -0.2870 -0.2075
 7542SOL    HW123596   2.454   4.405   2.865 -0.4232 -1.3527 -1.2574
 7542SOL    HW223597   2.600   4.420   2.903 -1.1951  0.9984  1.0991
 7543SOL     OW23598   6.443   6.838   0.735  0.0224 -0.6345  0.3568
 7543SOL    HW123599   6.468   6.832   0.828 -2.0361 -1.4816  0.8956
 7543SOL    HW223600   6.433   6.931   0.719  1.1823 -0.4243  0.7414
 7544SOL     OW23601   5.686   7.246   3.492  0.4228  0.0937 -0.0848
 7544SOL    HW123602   5.670   7.170   3.436 -1.8678 -0.1180  0.7666
 7544SOL    HW223603   5.612   7.248   3.552  1.5710  1.7295  1.3810
 7545SOL     OW23604   6.989   0.745   0.374 -0.1728  0.0282 -0.3738
 7545SOL    HW123605   6.943   0.711   0.296 -3.4974 -0.1380  1.4553
 7545SOL    HW223606   6.944   0.703   0.448  1.6646  1.5335  1.7130
 7546SOL     OW23607   1.158   6.212   0.449 -0.2438  0.5940  0.2282
 7546SOL    HW123608   1.068   6.240   0.465 -0.4383 -0.1179  0.4233
 7546SOL    HW223609   1.211   6.288   0.473 -0.7070  0.5304  1.5419
 7547SOL     OW23610   0.916   5.190   2.878 -0.1494  0.3409 -0.1312
 7547SOL    HW123611   0.850   5.257   2.897 -2.4240 -2.3650  2.5765
 7547SOL    HW223612   0.890   5.156   2.792 -2.4899 -0.6690  0.8733
 7548SOL     OW23613   2.084   3.622   3.433  0.1780  0.3011  0.1267
 7548SOL    HW123614   2.069   3.656   3.344 -1.0256  0.9071  0.5379
 7548SOL    HW223615   2.172   3.650   3.455 -0.1837  1.7387 -0.1838
 7549SOL     OW23616   2.375   6.280   0.938  0.2299  0.3344 -0.8438
 7549SOL    HW123617   2.321   6.358   0.923 -0.7993 -0.5789 -2.1032
 7549SOL    HW223618   2.321   6.207   0.908  1.3955 -0.8263 -0.2227
 7550SOL     OW23619   3.455   5.201   0.571 -0.2663  0.1177  0.0664
 7550SOL    HW123620   3.368   5.194   0.609 -1.0882 -0.1676 -1.7542
 7550SOL    HW223621   3.480   5.293   0.585 -0.6607  0.0917  0.9794
 7551SOL     OW23622   6.491   4.088   3.941 -0.4119 -0.4816 -0.3697
 7551SOL    HW123623   6.425   4.125   3.883 -0.7479  0.1473  0.3862
 7551SOL    HW223624   6.552   4.042   3.883  0.3600  1.7448 -1.4498
 7552SOL     OW23625   7.232   2.336   0.436 -0.4074  0.1476 -0.0793
 7552SOL    HW123626   7.173   2.263   0.454  0.7005 -1.5751 -2.6726
 7552SOL    HW223627   7.204   2.369   0.350  0.8665  0.8882 -0.2452
 7553SOL     OW23628   5.866   3.480   1.637 -0.5563  0.7088  0.6743
 7553SOL    HW123629   5.778   3.476   1.599 -0.9273  0.7898  1.5109
 7553SOL    HW223630   5.867   3.562   1.686  1.3705  2.9022 -2.6496
 7554SOL     OW23631   7.032   7.148   6.993  0.2932  0.4799 -0.5022
 7554SOL    HW123632   6.990   7.213   7.050  3.1934  0.6111  1.7486
 7554SOL    HW223633   7.035   7.189   6.907 -0.1060  2.3143  0.3162
 7555SOL     OW23634   5.744   5.138   0.013  0.0762  0.3547 -0.3182
 7555SOL    HW123635   5.808   5.128  -0.058  0.4646 -0.6501  0.1483
 7555SOL    HW223636   5.682   5.202  -0.020  1.0806  1.0286 -0.9598
 7556SOL     OW23637   1.809   3.483   2.313  0.3193 -0.2261  0.5456
 7556SOL    HW123638   1.843   3.443   2.234 -0.5962 -0.6205  0.3308
 7556SOL    HW223639   1.871   3.552   2.335  0.8687 -0.4771 -0.2002
 7557SOL     OW23640   7.362   1.929   6.121 -0.0484 -0.2485 -0.0927
 7557SOL    HW123641   7.383   1.950   6.212 -0.1792 -0.1293 -0.0905
 7557SOL    HW223642   7.432   1.970   6.070 -0.8507  1.0794 -0.1666
 7558SOL     OW23643   1.481   1.538   6.661  0.2441 -0.2023 -0.3730
 7558SOL    HW123644   1.541   1.565   6.592  0.8626 -1.9596 -0.5636
 7558SOL    HW223645   1.499   1.445   6.674 -0.8060 -0.2225  1.2187
 7559SOL     OW23646   4.519   0.786   0.115  0.3218 -0.0264  0.1798
 7559SOL    HW123647   4.434   0.742   0.112 -0.8308  1.6517  3.0705
 7559SOL    HW223648   4.497   0.878   0.130  2.6593  0.5388  0.5447
 7560SOL     OW23649   1.747   1.292   6.228 -0.0213  0.0547  0.2830
 7560SOL    HW123650   1.688   1.312   6.156 -0.6192 -0.1904  0.6948
 7560SOL    HW223651   1.719   1.348   6.300  0.0687 -0.2578  0.5700
 7561SOL     OW23652   4.809   2.540   3.770 -0.6284  0.4506  0.1451
 7561SOL    HW123653   4.789   2.596   3.844 -1.8591 -1.1007  1.0606
 7561SOL    HW223654   4.891   2.497   3.794 -0.4181  0.8100  0.0746
 7562SOL     OW23655   6.900   7.339   5.783  0.2123 -0.2687 -0.1874
 7562SOL    HW123656   6.919   7.369   5.872  0.0267  1.1664 -0.6135
 7562SOL    HW223657   6.806   7.322   5.783 -0.3208  2.2416 -0.7632
 7563SOL     OW23658   6.827   6.280   4.481  0.4334  0.2305 -0.4081
 7563SOL    HW123659   6.880   6.352   4.516  0.0718  0.6041 -0.6164
 7563SOL    HW223660   6.762   6.323   4.425  1.7259 -0.4268 -2.5242
 7564SOL     OW23661   6.249   0.921   2.064 -0.0308  0.0537 -0.3259
 7564SOL    HW123662   6.303   1.000   2.074  2.3908 -1.5776  0.1714
 7564SOL    HW223663   6.243   0.884   2.152 -1.6616 -0.0575 -0.4479
 7565SOL     OW23664   1.533   3.194   1.357 -0.3946  0.0179  0.2848
 7565SOL    HW123665   1.600   3.126   1.364 -0.0818  0.4005  1.2013
 7565SOL    HW223666   1.499   3.203   1.446 -1.4721  0.0273 -0.1115
 7566SOL     OW23667   2.480   1.661   5.113 -0.4009  0.2159  0.0930
 7566SOL    HW123668   2.485   1.566   5.125 -1.3412  0.3981  2.5431
 7566SOL    HW223669   2.386   1.680   5.112 -0.3410  0.9550 -2.8977
 7567SOL     OW23670   6.598   0.435   2.794 -0.0510 -0.6194 -0.2972
 7567SOL    HW123671   6.574   0.367   2.730 -3.4689  0.9977 -0.9551
 7567SOL    HW223672   6.565   0.516   2.755 -1.5675  0.5565  3.0994
 7568SOL     OW23673   3.833   4.253   7.138  0.2513 -0.0082  0.2047
 7568SOL    HW123674   3.797   4.241   7.050 -1.9902 -0.5341  1.1143
 7568SOL    HW223675   3.909   4.195   7.141  0.8850  0.6541 -1.6166
 7569SOL     OW23676   6.603   6.091   0.895  0.3609 -0.3658  0.5489
 7569SOL    HW123677   6.533   6.028   0.880 -1.4180  1.5535  0.3958
 7569SOL    HW223678   6.582   6.132   0.979  1.4793  0.0389  0.6576
 7570SOL     OW23679   3.582   1.526   6.635  0.3463  0.5001  0.3822
 7570SOL    HW123680   3.558   1.434   6.630 -0.4893  0.7663 -1.9279
 7570SOL    HW223681   3.673   1.530   6.605  0.0230  0.4986 -0.6615
 7571SOL     OW23682   6.148   4.413   6.486  0.4573 -0.3668 -0.7265
 7571SOL    HW123683   6.071   4.378   6.443  1.9353 -1.8337 -2.3402
 7571SOL    HW223684   6.208   4.436   6.415  1.7502  0.1551  0.4672
 7572SOL     OW23685   2.917   2.644   2.786 -0.1511 -0.6445 -0.8039
 7572SOL    HW123686   2.960   2.634   2.871 -0.4186  0.5606 -0.5088
 7572SOL    HW223687   2.981   2.690   2.732  0.5782 -2.6551 -1.7363
 7573SOL     OW23688   6.105   5.463   7.343  0.2957  0.6139  0.6846
 7573SOL    HW123689   6.109   5.534   7.407  2.6195 -0.1741  1.5270
 7573SOL    HW223690   6.109   5.383   7.396  0.7866 -0.0767 -0.3670
 7574SOL     OW23691   6.497   2.905   6.534  0.1231 -0.4700 -0.0549
 7574SOL    HW123692   6.554   2.900   6.458 -0.4659 -0.3741 -0.5095
 7574SOL    HW223693   6.534   2.842   6.596  0.5482 -0.6213 -0.4562
 7575SOL     OW23694   5.984   5.620   4.145  0.1550  0.2649 -0.6331
 7575SOL    HW123695   5.984   5.653   4.055  1.7266  0.9088 -0.4268
 7575SOL    HW223696   6.064   5.656   4.184  0.1640 -1.0440  0.6471
 7576SOL     OW23697   4.372   1.818   2.483  0.0053  0.3803 -0.0609
 7576SOL    HW123698   4.380   1.802   2.577  0.2602 -0.3607 -0.2020
 7576SOL    HW223699   4.378   1.731   2.443  0.7018  0.7578 -0.8178
 7577SOL     OW23700   2.458   6.563   2.123 -0.0783  0.3553  0.2195
 7577SOL    HW123701   2.392   6.613   2.170 -1.4791 -0.0251 -1.2519
 7577SOL    HW223702   2.538   6.616   2.128 -0.9603  1.6849  0.5153
 7578SOL     OW23703   6.886   0.638   3.393  0.8742 -0.0656 -0.1973
 7578SOL    HW123704   6.873   0.628   3.299  0.8659  2.5777 -0.5402
 7578SOL    HW223705   6.928   0.556   3.420  0.1409 -1.2177 -2.3182
 7579SOL     OW23706   1.430   0.360   5.486 -0.1293 -0.3432  0.7209
 7579SOL    HW123707   1.410   0.444   5.529 -0.9880 -0.8595  1.3472
 7579SOL    HW223708   1.356   0.304   5.507  0.9695 -1.6245  1.2619
 7580SOL     OW23709   6.720   2.607   0.649 -0.0592 -0.6511  0.3070
 7580SOL    HW123710   6.758   2.682   0.603 -1.0672 -0.6286 -0.5381
 7580SOL    HW223711   6.761   2.531   0.609  1.4278 -0.5646  1.5923
 7581SOL     OW23712   1.723   3.275   7.357 -0.1932 -0.3872  0.3979
 7581SOL    HW123713   1.707   3.362   7.396 -0.9311 -0.0299 -0.6700
 7581SOL    HW223714   1.682   3.280   7.271 -2.6765 -2.7115  1.3120
 7582SOL     OW23715   4.502   3.574   0.351 -0.0678 -0.3159 -0.0769
 7582SOL    HW123716   4.596   3.557   0.352  0.4054  1.9052  0.9088
 7582SOL    HW223717   4.467   3.521   0.423  0.4942 -0.8032 -0.1532
 7583SOL     OW23718   4.402   4.208   3.027 -0.6071  0.7476 -0.3786
 7583SOL    HW123719   4.332   4.224   3.090 -0.4587 -0.7055  0.1942
 7583SOL    HW223720   4.372   4.131   2.977  0.7856 -0.2280  0.2263
 7584SOL     OW23721   5.110   1.546   0.419  0.3048  0.1900  0.0202
 7584SOL    HW123722   5.199   1.521   0.393  0.4939  0.8030  0.0735
 7584SOL    HW223723   5.111   1.541   0.515  1.1701  3.0181  0.2538
 7585SOL     OW23724   2.471   0.960   0.294 -0.2602  0.4276  0.0185
 7585SOL    HW123725   2.502   0.966   0.204 -0.2183  0.0338  0.0056
 7585SOL    HW223726   2.544   0.992   0.347 -0.2838  0.6566 -0.0855
 7586SOL     OW23727   6.456   0.971   5.575 -0.1075  0.2732  0.0564
 7586SOL    HW123728   6.504   0.988   5.494  0.8794  0.1771  0.5950
 7586SOL    HW223729   6.383   1.033   5.574 -0.2349  0.1247 -1.0000
 7587SOL     OW23730   0.050   2.465   6.594  0.1506 -0.1726 -0.0223
 7587SOL    HW123731   0.026   2.517   6.671  0.5473  0.3306 -0.2280
 7587SOL    HW223732   0.141   2.491   6.576  0.3120 -0.8521 -0.2031
 7588SOL     OW23733   2.307   5.759   0.659  0.0225 -0.4291  0.2036
 7588SOL    HW123734   2.223   5.774   0.703 -0.7059 -1.1253 -0.8859
 7588SOL    HW223735   2.373   5.779   0.725 -1.0241 -2.1385  1.8593
 7589SOL     OW23736   6.040   5.796   6.333  0.0190 -0.2581 -0.3262
 7589SOL    HW123737   6.006   5.848   6.406 -1.4746 -2.4405  0.6100
 7589SOL    HW223738   5.963   5.757   6.292  1.1233 -2.3525 -0.5085
 7590SOL     OW23739   6.480   4.521   1.376  0.3536  0.3492  0.7638
 7590SOL    HW123740   6.506   4.562   1.294 -1.0681  2.3366  1.2147
 7590SOL    HW223741   6.413   4.456   1.351 -0.9077  1.7381  0.3863
 7591SOL     OW23742   7.231   4.557   5.780 -0.6171  0.0433  0.4057
 7591SOL    HW123743   7.302   4.552   5.715  0.8129  1.3088  1.7886
 7591SOL    HW223744   7.164   4.610   5.738 -0.0271  0.2469 -0.3038
 7592SOL     OW23745   2.496   2.900   4.669 -0.0086 -0.0263 -0.2101
 7592SOL    HW123746   2.453   2.817   4.650  1.2842 -0.9473  0.6986
 7592SOL    HW223747   2.426   2.959   4.696 -0.7234 -1.3935  1.0123
 7593SOL     OW23748   2.944   0.581   4.138  0.4917 -0.0058 -0.5457
 7593SOL    HW123749   2.856   0.550   4.159  1.2706 -0.3399  2.6680
 7593SOL    HW223750   2.943   0.674   4.162  0.9296  0.0820 -0.8535
 7594SOL     OW23751   7.345   3.532   6.585 -0.2924 -0.1691 -0.0049
 7594SOL    HW123752   7.403   3.468   6.546 -1.1135 -0.4715 -0.7537
 7594SOL    HW223753   7.385   3.553   6.669  0.5963 -0.7825 -0.2689
 7595SOL     OW23754   4.363   1.156   0.981  0.1985  0.5929 -0.8109
 7595SOL    HW123755   4.338   1.203   1.061  1.2638 -0.6582  0.2876
 7595SOL    HW223756   4.323   1.070   0.990  0.5460  0.3491 -1.5206
 7596SOL     OW23757   1.954   1.471   6.140 -0.7300 -0.0589  0.5139
 7596SOL    HW123758   1.965   1.496   6.232 -0.2464 -1.1708  0.7786
 7596SOL    HW223759   1.899   1.392   6.143 -1.2929  0.2918 -0.2078
 7597SOL     OW23760   0.662   0.899   7.233  0.6220 -0.7285  0.0395
 7597SOL    HW123761   0.673   0.804   7.245  0.2944 -0.5154  2.6250
 7597SOL    HW223762   0.567   0.912   7.235  0.6748 -0.3258 -0.1254
 7598SOL     OW23763   6.204   7.223   6.531 -0.0694 -0.0236 -0.2377
 7598SOL    HW123764   6.224   7.133   6.504 -0.8880 -0.2212 -0.2318
 7598SOL    HW223765   6.127   7.247   6.480  0.8700  1.1501 -1.1560
 7599SOL     OW23766   0.856   7.234   0.175  0.1448 -0.2753 -0.0651
 7599SOL    HW123767   0.765   7.212   0.192  0.4171 -1.4008  0.0339
 7599SOL    HW223768   0.873   7.312   0.228 -1.0314  0.5945 -0.9048
 7600SOL     OW23769   2.581   2.420   4.787  0.2311  0.0979 -0.0533
 7600SOL    HW123770   2.604   2.328   4.781  0.8009  0.2606 -0.4254
 7600SOL    HW223771   2.656   2.466   4.749  0.3972  0.7612  1.0446
 7601SOL     OW23772   6.209   6.166   6.654  0.2603  0.2323  0.3097
 7601SOL    HW123773   6.302   6.158   6.677  0.4106  0.3305 -0.2422
 7601SOL    HW223774   6.164   6.176   6.738  0.7552  0.2429  0.5768
 7602SOL     OW23775   6.213   2.241   3.354  0.1208  0.2240 -0.0136
 7602SOL    HW123776   6.269   2.193   3.414  4.3203  3.8005 -0.6075
 7602SOL    HW223777   6.164   2.302   3.409  2.2582  1.9172  0.1295
 7603SOL     OW23778   3.880   3.837   2.363 -0.0489 -0.1256 -0.2508
 7603SOL    HW123779   3.878   3.779   2.439  1.3721 -0.2118 -0.2544
 7603SOL    HW223780   3.801   3.815   2.313 -2.5173  1.7479  2.4680
 7604SOL     OW23781   3.485   5.126   7.095  0.3168 -0.7445  0.3804
 7604SOL    HW123782   3.417   5.060   7.082 -2.3576  2.3347 -3.4675
 7604SOL    HW223783   3.537   5.123   7.014 -0.6128  2.3859 -0.4747
 7605SOL     OW23784   0.155   4.714   1.542 -0.1438 -0.2000 -0.4200
 7605SOL    HW123785   0.197   4.770   1.607 -0.0215 -0.5276 -0.2142
 7605SOL    HW223786   0.202   4.733   1.461  1.0608 -1.2489 -0.0051
 7606SOL     OW23787   1.835   4.033   4.590  0.1705  0.4038  0.1838
 7606SOL    HW123788   1.760   3.974   4.595 -0.4897  1.2449  0.3243
 7606SOL    HW223789   1.882   4.005   4.511 -0.7605  0.4246 -0.3918
 7607SOL     OW23790   3.795   2.577   3.632 -0.6072 -0.4280 -0.0456
 7607SOL    HW123791   3.852   2.627   3.574 -1.3039 -0.3124 -0.6565
 7607SOL    HW223792   3.830   2.592   3.719  0.0492 -0.0386 -0.3662
 7608SOL     OW23793   2.861   1.099   7.322  0.2772  0.0236  0.0089
 7608SOL    HW123794   2.954   1.099   7.341  0.5889  2.7134 -1.2039
 7608SOL    HW223795   2.820   1.121   7.406  0.8961  1.0508  0.0523
 7609SOL     OW23796   3.285   4.047   4.311 -0.1232  0.4691 -0.4832
 7609SOL    HW123797   3.279   4.062   4.217  0.9778  2.1270 -0.3254
 7609SOL    HW223798   3.240   4.122   4.351  0.5605  0.4869  0.3013
 7610SOL     OW23799   1.384   3.414   0.461  0.0758  0.2254  0.0928
 7610SOL    HW123800   1.467   3.437   0.502 -0.0126 -0.6876  0.8292
 7610SOL    HW223801   1.320   3.420   0.532 -0.5366  1.1405 -0.5170
 7611SOL     OW23802   3.272   7.120   4.969 -0.4911 -0.2729 -0.2264
 7611SOL    HW123803   3.356   7.113   5.015 -1.2467  1.8332  1.7043
 7611SOL    HW223804   3.280   7.200   4.917 -0.0840 -2.0092 -2.9919
 7612SOL     OW23805   6.337   4.774   7.086 -0.3417  0.9504 -0.4896
 7612SOL    HW123806   6.430   4.760   7.103 -0.4299  1.5975  0.6643
 7612SOL    HW223807   6.304   4.688   7.060 -0.1404 -0.2425  2.7272
 7613SOL     OW23808   5.699   4.873   2.545  0.8234 -0.1680  0.0981
 7613SOL    HW123809   5.725   4.811   2.612  0.2516  0.0710  0.5419
 7613SOL    HW223810   5.782   4.904   2.508  1.2621  1.2388  2.0990
 7614SOL     OW23811   4.313   1.939   5.269  0.3014  0.6629 -0.0877
 7614SOL    HW123812   4.388   1.897   5.228  0.8699  0.7263  0.8543
 7614SOL    HW223813   4.247   1.870   5.276  0.8646  0.1784  0.5522
 7615SOL     OW23814   0.090   3.198   3.311  0.3604 -0.1997 -0.2967
 7615SOL    HW123815   0.135   3.216   3.393 -0.1940  0.8072 -0.1976
 7615SOL    HW223816   0.156   3.158   3.255  1.4629  1.4643 -0.2475
 7616SOL     OW23817   2.587   4.715   2.262  0.4061  0.1824 -0.3821
 7616SOL    HW123818   2.495   4.715   2.235  0.0997 -1.9506  0.4076
 7616SOL    HW223819   2.591   4.647   2.330  2.4642  0.6082 -0.0214
 7617SOL     OW23820   6.172   7.108   7.024  0.0215  0.3096 -0.2316
 7617SOL    HW123821   6.261   7.139   7.007 -0.2291  0.1094 -2.0635
 7617SOL    HW223822   6.145   7.157   7.102  1.1879  1.5235 -0.5402
 7618SOL     OW23823   0.681   5.626   5.039 -0.0788  0.0765 -0.7329
 7618SOL    HW123824   0.746   5.677   5.087 -1.2343  1.4300 -0.5723
 7618SOL    HW223825   0.619   5.596   5.106  0.1246 -0.8639 -0.9422
 7619SOL     OW23826   3.610   3.911   4.541 -0.0660 -0.1125 -0.0917
 7619SOL    HW123827   3.669   3.944   4.473 -0.3783 -0.4381 -0.5312
 7619SOL    HW223828   3.556   3.847   4.496 -0.8330  0.2621  0.2746
 7620SOL     OW23829   1.917   2.536   5.217 -0.6233  0.2050 -0.3414
 7620SOL    HW123830   1.978   2.610   5.222  0.2456 -0.3005 -2.4279
 7620SOL    HW223831   1.834   2.576   5.190 -0.9572  0.7430  1.3609
 7621SOL     OW23832   5.967   1.800   5.886  0.0605 -0.1670  0.0052
 7621SOL    HW123833   6.025   1.866   5.924 -0.0488  0.2919 -0.6052
 7621SOL    HW223834   5.890   1.800   5.942  0.9775 -1.4075  1.3532
 7622SOL     OW23835   0.255   2.835   0.938  0.3999 -0.0073  0.4528
 7622SOL    HW123836   0.205   2.765   0.980  1.3385 -0.2968  1.1262
 7622SOL    HW223837   0.209   2.852   0.856 -0.3362 -0.8107  0.6870
 7623SOL     OW23838   5.342   6.967   2.130  0.1267  0.2142  0.4639
 7623SOL    HW123839   5.383   6.971   2.044  0.4904  0.6112  0.6512
 7623SOL    HW223840   5.410   6.934   2.188 -0.0537  0.1463  0.6408
 7624SOL     OW23841   4.383   3.595   4.470  0.1506 -0.5775  0.4768
 7624SOL    HW123842   4.339   3.672   4.504  0.9774  0.6947 -1.1813
 7624SOL    HW223843   4.459   3.583   4.528  1.9566  1.9948 -1.1398
 7625SOL     OW23844   5.282   5.922   2.547 -0.0395  0.2477  0.2122
 7625SOL    HW123845   5.323   6.005   2.573  1.1214  0.4141 -1.9345
 7625SOL    HW223846   5.337   5.890   2.476 -2.0198 -1.0444 -0.8045
 7626SOL     OW23847   1.546   5.833   5.796  0.6504 -0.0711  0.0374
 7626SOL    HW123848   1.559   5.912   5.848 -0.9831  0.5630 -0.4780
 7626SOL    HW223849   1.475   5.787   5.840 -1.2409  0.8134 -1.9315
 7627SOL     OW23850   5.224   0.150   0.925  0.1782 -0.2682  0.5918
 7627SOL    HW123851   5.172   0.074   0.900 -0.5575  0.6565 -0.7446
 7627SOL    HW223852   5.173   0.192   0.994 -0.2309 -0.0723  0.1739
 7628SOL     OW23853   2.213   6.068   0.844  0.4976  0.1617  0.0122
 7628SOL    HW123854   2.163   6.006   0.898  1.2203  0.6196  1.2427
 7628SOL    HW223855   2.191   6.043   0.754 -0.0126 -1.2358  0.4832
 7629SOL     OW23856   0.948   6.168   5.855 -0.6394 -0.0142 -0.5341
 7629SOL    HW123857   0.942   6.072   5.851 -0.4716 -0.0504  0.0747
 7629SOL    HW223858   0.889   6.198   5.785 -0.4429 -0.5641 -0.9464
 7630SOL     OW23859   7.348   6.316   2.948  0.6424  0.0147 -0.1364
 7630SOL    HW123860   7.293   6.238   2.944 -0.4450  0.7877 -0.5922
 7630SOL    HW223861   7.287   6.389   2.951  1.6461  0.9208 -0.9511
 7631SOL     OW23862   6.483   5.925   6.464  0.5778 -0.5413  0.2352
 7631SOL    HW123863   6.427   6.000   6.485 -0.0179 -0.6936 -0.7873
 7631SOL    HW223864   6.453   5.857   6.524  1.0667 -0.0087  1.1157
 7632SOL     OW23865   6.546   4.467   5.085  0.3964 -0.1525  0.9578
 7632SOL    HW123866   6.619   4.510   5.040  0.6943 -1.4489  0.1199
 7632SOL    HW223867   6.488   4.538   5.112 -0.2372  0.7028 -2.2426
 7633SOL     OW23868   4.004   0.769   4.083  0.1157 -0.4016  0.1905
 7633SOL    HW123869   4.002   0.841   4.020  2.1598 -1.1554 -0.8182
 7633SOL    HW223870   3.912   0.745   4.094 -0.5490  1.8659  0.0065
 7634SOL     OW23871   1.485   4.835   6.484  0.0301  0.9309  0.4645
 7634SOL    HW123872   1.434   4.755   6.489 -0.2992  1.1151  0.0992
 7634SOL    HW223873   1.464   4.882   6.564 -0.6994  1.1939  0.1291
 7635SOL     OW23874   1.226   0.969   7.226 -0.1467  0.1576  0.2193
 7635SOL    HW123875   1.290   1.036   7.246  0.3461  0.5006 -2.2342
 7635SOL    HW223876   1.165   0.971   7.300  2.4105  0.0330  2.4744
 7636SOL     OW23877   1.827   6.526   5.379  0.5167  0.3530 -0.5456
 7636SOL    HW123878   1.869   6.463   5.321 -0.8566 -0.9822 -0.1393
 7636SOL    HW223879   1.890   6.538   5.450  0.4529 -1.2397 -0.1872
 7637SOL     OW23880   1.260   4.042   2.545 -0.3290 -0.8877 -0.1920
 7637SOL    HW123881   1.241   3.963   2.594 -1.6145 -2.1630 -2.5720
 7637SOL    HW223882   1.191   4.103   2.570 -1.1709 -1.6420 -0.6249
 7638SOL     OW23883   3.508   7.228   5.595 -0.0027 -0.0611 -0.3984
 7638SOL    HW123884   3.452   7.151   5.599 -1.1235  0.7540  0.4781
 7638SOL    HW223885   3.567   7.219   5.669 -1.0391  0.5624  0.5273
 7639SOL     OW23886   1.164   7.091   0.402 -0.3041 -0.0530  0.0359
 7639SOL    HW123887   1.167   7.174   0.450  0.3361 -2.2408  4.2423
 7639SOL    HW223888   1.255   7.073   0.379 -0.1271 -0.6278  1.1635
 7640SOL     OW23889   3.542   0.684   3.424 -0.1899  0.0720  0.6041
 7640SOL    HW123890   3.549   0.775   3.396 -2.0478 -0.0987 -0.6264
 7640SOL    HW223891   3.465   0.682   3.481 -0.7415 -0.8624 -0.1377
 7641SOL     OW23892   7.299   4.914   2.355 -0.5486 -0.6229  0.0055
 7641SOL    HW123893   7.222   4.947   2.400  0.7677  1.0409  1.1709
 7641SOL    HW223894   7.356   4.990   2.347  0.8965 -1.7653 -0.9731
 7642SOL     OW23895   2.588   5.770   4.547  0.2156  0.2617 -0.0691
 7642SOL    HW123896   2.526   5.752   4.476  1.6595 -1.4547 -0.9947
 7642SOL    HW223897   2.555   5.849   4.589 -1.9488  0.0326 -1.2185
 7643SOL     OW23898   1.975   3.233   0.015 -0.2331  0.2351  0.4757
 7643SOL    HW123899   1.988   3.159  -0.045 -2.5856  1.4787 -1.7993
 7643SOL    HW223900   1.880   3.246   0.016 -0.0532  1.9502  2.4839
 7644SOL     OW23901   1.634   3.004   2.879  0.7406  0.3072  0.1025
 7644SOL    HW123902   1.592   3.083   2.914  0.4102  0.6717 -1.0755
 7644SOL    HW223903   1.586   2.931   2.918 -0.9168  0.7113 -1.0855
 7645SOL     OW23904   2.548   5.827   0.822 -0.1153  0.0242 -0.2563
 7645SOL    HW123905   2.623   5.768   0.813 -0.1166  0.1882 -1.6762
 7645SOL    HW223906   2.587   5.915   0.817 -0.5349  0.1552 -3.5191
 7646SOL     OW23907   4.085   1.652   0.521  0.3531 -0.4223  0.0987
 7646SOL    HW123908   4.043   1.678   0.440  1.7559  1.0711 -0.2070
 7646SOL    HW223909   4.053   1.714   0.586  1.1657 -0.0168  0.1186
 7647SOL     OW23910   6.361   0.121   4.503  0.5841  0.2839  0.3003
 7647SOL    HW123911   6.445   0.154   4.470  1.4312 -0.8467  1.2503
 7647SOL    HW223912   6.374   0.114   4.598 -0.4100 -0.3953  0.3905
 7648SOL     OW23913   4.969   5.124   5.448  0.3114 -0.3139  0.2310
 7648SOL    HW123914   4.941   5.076   5.526 -0.2638  0.0046  0.2291
 7648SOL    HW223915   4.944   5.215   5.465  2.9058  0.3374  0.9629
 7649SOL     OW23916   3.950   6.944   1.240 -0.0706 -0.1189 -0.2933
 7649SOL    HW123917   4.025   6.933   1.182  0.0580  0.3024 -0.2112
 7649SOL    HW223918   3.884   6.988   1.186 -1.1725 -2.5970 -1.1087
 7650SOL     OW23919   5.109   0.382   1.886  0.1100 -0.0212 -0.0434
 7650SOL    HW123920   5.084   0.430   1.807 -1.5029 -0.4390  0.1719
 7650SOL    HW223921   5.204   0.372   1.880  0.2695  1.7235 -0.9117
 7651SOL     OW23922   3.987   0.588   5.390 -0.2866  0.1973 -0.3222
 7651SOL    HW123923   4.019   0.501   5.366  0.3911  0.1850  0.6205
 7651SOL    HW223924   4.013   0.600   5.481 -1.0034  1.1025 -0.2197
 7652SOL     OW23925   1.899   0.070   0.474  0.1023 -0.1114  0.6053
 7652SOL    HW123926   1.868   0.132   0.540  0.4142  0.2659  0.3985
 7652SOL    HW223927   1.825   0.011   0.461 -0.5841  0.8358  0.0516
 7653SOL     OW23928   6.453   1.755   2.291  0.0758  0.3252 -0.0362
 7653SOL    HW123929   6.415   1.701   2.360 -0.4348 -0.9140 -1.2452
 7653SOL    HW223930   6.378   1.788   2.242  0.4730  0.1915 -0.7439
 7654SOL     OW23931   4.404   0.526   0.334  0.1733 -0.4973 -0.6376
 7654SOL    HW123932   4.332   0.575   0.374  0.0195 -0.7687 -0.5808
 7654SOL    HW223933   4.417   0.568   0.249 -0.1475 -0.5350 -0.7063
 7655SOL     OW23934   3.025   1.416   4.487 -0.2320  0.1496  0.2005
 7655SOL    HW123935   3.016   1.322   4.500  0.7718  0.0204  0.0399
 7655SOL    HW223936   3.086   1.444   4.555  0.4046  0.4783 -0.4917
 7656SOL     OW23937   5.697   7.316   6.891  0.6507 -0.1104 -0.1884
 7656SOL    HW123938   5.637   7.243   6.907 -0.3300  1.0448  1.7695
 7656SOL    HW223939   5.764   7.307   6.958  0.3085  0.9613  0.3268
 7657SOL     OW23940   3.324   0.995   4.326  0.2902  0.1976 -0.9057
 7657SOL    HW123941   3.277   1.073   4.356  0.5648  0.2306 -0.5600
 7657SOL    HW223942   3.356   0.954   4.406  0.0804 -0.3174 -1.0854
 7658SOL     OW23943   2.196   1.232   6.437 -0.2572 -0.3590 -0.1045
 7658SOL    HW123944   2.148   1.234   6.520  0.1911  0.6494  0.1415
 7658SOL    HW223945   2.227   1.141   6.430 -1.9994 -0.9871 -0.1782
 7659SOL     OW23946   0.362   6.113   5.396 -0.6043  0.2254  0.3285
 7659SOL    HW123947   0.453   6.133   5.418 -0.6425 -1.0453  1.7375
 7659SOL    HW223948   0.320   6.097   5.480 -2.6519  2.6737 -0.0841
 7660SOL     OW23949   3.317   3.494   6.407 -0.0444  0.1522  0.2566
 7660SOL    HW123950   3.310   3.481   6.312 -2.9889 -1.1835  0.5349
 7660SOL    HW223951   3.407   3.522   6.421  0.4866  0.4235 -2.9262
 7661SOL     OW23952   0.204   4.174   1.088 -0.4621 -0.0310 -0.3860
 7661SOL    HW123953   0.176   4.232   1.017 -1.0618  0.1259 -0.0223
 7661SOL    HW223954   0.255   4.230   1.147  0.7475 -0.3378 -1.1006
 7662SOL     OW23955   3.509   0.638   3.147  0.3593 -0.7416  0.5591
 7662SOL    HW123956   3.590   0.586   3.138  0.7704 -0.3540  1.8638
 7662SOL    HW223957   3.505   0.660   3.240  0.3766  1.8389  0.0095
 7663SOL     OW23958   3.109   0.096   4.411  0.0820  0.4064  0.6097
 7663SOL    HW123959   3.026   0.059   4.443 -0.2287 -0.2591 -0.8915
 7663SOL    HW223960   3.085   0.185   4.384 -0.6951 -0.4509 -1.7848
 7664SOL     OW23961   1.897   5.789   0.085 -0.3686  0.1384 -0.1682
 7664SOL    HW123962   1.920   5.710   0.036  0.2654 -0.0682  0.4579
 7664SOL    HW223963   1.808   5.810   0.055 -0.0434 -0.0508 -1.3147
 7665SOL     OW23964   2.075   2.643   1.998  0.0191 -0.2576 -0.0732
 7665SOL    HW123965   2.032   2.571   1.953  1.1002 -0.8479 -0.1963
 7665SOL    HW223966   2.097   2.705   1.929 -0.7147  0.0897  0.0032
 7666SOL     OW23967   3.705   7.038   1.118  0.4914  0.3109 -0.5821
 7666SOL    HW123968   3.659   7.122   1.126 -0.4543 -0.1275 -1.1528
 7666SOL    HW223969   3.748   7.043   1.032  0.2359  0.1343 -0.7249
 7667SOL     OW23970   7.074   3.690   0.820  1.0415 -0.3794  0.0919
 7667SOL    HW123971   7.058   3.637   0.899 -0.1232 -0.3644 -0.1082
 7667SOL    HW223972   7.030   3.773   0.838 -0.9021 -1.0387 -1.2776
 7668SOL     OW23973   2.748   6.612   1.555 -0.5085  0.7894 -0.6701
 7668SOL    HW123974   2.728   6.530   1.512  0.7972 -0.2370  0.5859
 7668SOL    HW223975   2.804   6.659   1.493  1.9207 -0.9630  0.0686
 7669SOL     OW23976   4.760   0.874   0.918 -0.1220  0.2274  0.2613
 7669SOL    HW123977   4.798   0.895   1.004  1.7515 -0.2683 -0.3957
 7669SOL    HW223978   4.830   0.829   0.872 -1.5656 -0.7981 -1.0395
 7670SOL     OW23979   4.468   2.630   6.561 -0.0263 -0.8378 -0.0830
 7670SOL    HW123980   4.521   2.700   6.522  1.9045 -2.3291 -0.2713
 7670SOL    HW223981   4.420   2.593   6.487  0.0596 -0.6630 -0.2270
 7671SOL     OW23982   2.468   5.405   4.778 -0.3976 -0.0546 -0.3692
 7671SOL    HW123983   2.455   5.493   4.741 -0.7436 -0.3746 -1.0231
 7671SOL    HW223984   2.386   5.385   4.822 -0.5199 -0.2705 -0.6908
 7672SOL     OW23985   2.975   4.837   1.203  0.1967 -0.2691 -0.6532
 7672SOL    HW123986   2.901   4.812   1.148 -0.0316 -1.0335 -0.0159
 7672SOL    HW223987   2.955   4.800   1.289  1.4337 -0.7359 -0.5345
 7673SOL     OW23988   1.035   1.498   4.706 -0.1392  0.3969  0.2863
 7673SOL    HW123989   1.105   1.552   4.743  1.2967 -0.6728 -0.7675
 7673SOL    HW223990   0.997   1.453   4.782  1.9998 -0.9125  0.6775
 7674SOL     OW23991   3.980   5.615   2.671  0.2839  0.2001 -0.2866
 7674SOL    HW123992   3.916   5.596   2.739  0.8722  1.4190  0.6389
 7674SOL    HW223993   4.064   5.616   2.716  0.9859 -1.3259 -1.4796
 7675SOL     OW23994   2.701   6.357   5.464 -0.3639  0.0712 -0.3676
 7675SOL    HW123995   2.675   6.271   5.430  0.7890 -0.2155 -0.5521
 7675SOL    HW223996   2.678   6.354   5.557 -1.0583 -0.1314 -0.5347
 7676SOL     OW23997   5.382   2.389   5.321  0.1700 -0.6572  0.4754
 7676SOL    HW123998   5.302   2.351   5.284  0.5091 -0.2767 -0.6896
 7676SOL    HW223999   5.352   2.463   5.373 -0.2080 -0.1064 -0.4940
 7677SOL     OW24000   3.820   2.611   6.589  0.0185  0.1072  0.4094
 7677SOL    HW124001   3.792   2.585   6.677 -1.3375  0.2889  0.0644
 7677SOL    HW224002   3.888   2.549   6.566  1.1235  0.6736  1.9720
 7678SOL     OW24003   3.854   4.378   1.267 -0.2471  0.2344  0.4478
 7678SOL    HW124004   3.831   4.460   1.310  0.0644  0.6231 -0.1068
 7678SOL    HW224005   3.933   4.399   1.217 -0.2646 -0.3597  0.1599
 7679SOL     OW24006   5.073   4.443   2.468 -0.9036  0.7902 -0.2217
 7679SOL    HW124007   5.053   4.410   2.381 -0.2639  1.1058 -0.4924
 7679SOL    HW224008   5.117   4.526   2.453 -2.1565  1.6049  0.4468
 7680SOL     OW24009   6.432   5.434   1.674 -0.1785 -0.6343  0.3036
 7680SOL    HW124010   6.493   5.428   1.747 -0.8720 -0.0138  0.9572
 7680SOL    HW224011   6.348   5.406   1.711 -1.0934  2.0395  0.4716
 7681SOL     OW24012   1.358   0.301   1.303 -0.5856 -0.6930 -0.0204
 7681SOL    HW124013   1.413   0.375   1.280 -0.2566 -1.1300 -0.6747
 7681SOL    HW224014   1.298   0.335   1.370  1.9754 -0.8102  2.4971
 7682SOL     OW24015   1.576   0.200   1.503 -0.4382  0.4156  0.1962
 7682SOL    HW124016   1.493   0.237   1.474 -0.9038  0.1003  1.0858
 7682SOL    HW224017   1.579   0.220   1.597  0.0574 -0.3734  0.3534
 7683SOL     OW24018   2.509   2.404   2.671  0.2585  0.2162 -0.3076
 7683SOL    HW124019   2.498   2.460   2.748 -1.1556  0.2597 -0.5161
 7683SOL    HW224020   2.590   2.356   2.688 -1.3387 -1.7552  2.4839
 7684SOL     OW24021   1.654   4.874   4.734 -0.0915 -0.2754  0.5803
 7684SOL    HW124022   1.714   4.946   4.715  0.4346 -0.4254  1.6090
 7684SOL    HW224023   1.579   4.889   4.676  1.0843 -0.3054 -1.0137
 7685SOL     OW24024   5.827   6.824   1.195  0.2260  0.1858 -1.2238
 7685SOL    HW124025   5.831   6.763   1.121 -0.5982 -0.4862 -0.7303
 7685SOL    HW224026   5.734   6.846   1.203  0.4073  0.8245 -0.8415
 7686SOL     OW24027   1.993   5.390   3.289 -0.4021 -0.4743  0.1363
 7686SOL    HW124028   1.949   5.311   3.321  0.1080 -0.3904  1.0891
 7686SOL    HW224029   2.081   5.384   3.326 -0.2335  0.3341 -0.1304
 7687SOL     OW24030   5.918   5.367   5.391  0.3783 -0.1996 -0.3912
 7687SOL    HW124031   5.903   5.401   5.302 -0.6274 -1.8332 -0.8908
 7687SOL    HW224032   5.967   5.286   5.378  1.3173  0.1733  0.6578
 7688SOL     OW24033   3.389   3.807   4.411 -0.4985 -0.2585  0.3571
 7688SOL    HW124034   3.339   3.882   4.380 -0.3972 -0.9499 -1.5991
 7688SOL    HW224035   3.322   3.741   4.433 -0.5538  0.1028  1.3373
 7689SOL     OW24036   1.219   0.030   1.917 -0.4464 -0.3820  0.2064
 7689SOL    HW124037   1.188   0.076   1.839  1.3341  0.2034 -0.2104
 7689SOL    HW224038   1.264  -0.047   1.882 -1.9333 -1.5945  0.8226
 7690SOL     OW24039   6.742   0.609   7.359  0.3661  0.1677 -0.0337
 7690SOL    HW124040   6.728   0.657   7.278 -0.0592 -0.4583 -0.3394
 7690SOL    HW224041   6.834   0.581   7.354  0.8308  1.5532  0.4897
 7691SOL     OW24042   4.498   2.721   0.252  0.7621  0.3934  0.2023
 7691SOL    HW124043   4.499   2.783   0.179  0.6949  0.9466  0.6599
 7691SOL    HW224044   4.426   2.751   0.308 -0.9736 -1.6022 -0.8217
 7692SOL     OW24045   2.968   0.684   7.193 -0.1687 -0.2017  0.4107
 7692SOL    HW124046   2.973   0.699   7.287 -1.9934 -0.2074  0.5335
 7692SOL    HW224047   3.050   0.637   7.173 -0.6744 -2.1256  2.3778
 7693SOL     OW24048   6.369   5.551   0.254  0.5049  0.2797  0.1443
 7693SOL    HW124049   6.390   5.583   0.166 -0.0919 -0.0243 -0.1133
 7693SOL    HW224050   6.453   5.524   0.290  0.8558  1.0710 -0.0622
 7694SOL     OW24051   4.122   0.846   1.315 -0.0182  0.2671  0.2193
 7694SOL    HW124052   4.048   0.893   1.276 -0.8879 -0.2030  1.2587
 7694SOL    HW224053   4.182   0.831   1.242 -0.2474  1.9683 -0.3636
 7695SOL     OW24054   3.852   7.197   6.076  0.0325  0.5701 -0.1659
 7695SOL    HW124055   3.930   7.189   6.131 -1.1731 -0.1677  1.5189
 7695SOL    HW224056   3.805   7.273   6.111 -1.9545 -1.2930  1.5443
 7696SOL     OW24057   6.015   5.625   1.529  0.3194 -0.4945  0.0456
 7696SOL    HW124058   6.083   5.680   1.568  0.3718 -0.9128  0.5572
 7696SOL    HW224059   5.971   5.682   1.466  1.6340 -0.4154 -0.8660
 7697SOL     OW24060   1.622   2.613   1.072  0.4087 -0.1987  0.4400
 7697SOL    HW124061   1.620   2.522   1.043  0.2110  0.0550 -0.3640
 7697SOL    HW224062   1.682   2.657   1.012 -0.1271  0.3731  0.3131
 7698SOL     OW24063   5.096   5.610   6.278 -0.3839 -0.5669 -0.5678
 7698SOL    HW124064   5.033   5.538   6.273 -1.3941  0.0348  2.1399
 7698SOL    HW224065   5.169   5.582   6.223 -1.8904 -2.4263 -1.7387
 7699SOL     OW24066   3.508   6.135   1.858 -0.1084  0.4506 -0.4382
 7699SOL    HW124067   3.604   6.134   1.860 -0.0908 -1.2083 -0.4319
 7699SOL    HW224068   3.483   6.160   1.947  0.2863  1.9698 -0.7266
 7700SOL     OW24069   5.299   4.385   6.276 -0.1044  0.3765 -0.8718
 7700SOL    HW124070   5.237   4.317   6.303  1.9209 -1.4196 -0.5106
 7700SOL    HW224071   5.332   4.421   6.358  1.4462 -0.7272 -0.9809
 7701SOL     OW24072   4.452   0.242   3.915 -0.4956 -0.0159  0.1452
 7701SOL    HW124073   4.510   0.276   3.846 -0.0727 -1.9529 -0.5065
 7701SOL    HW224074   4.464   0.303   3.988  1.3142  0.4143 -0.4515
 7702SOL     OW24075   6.101   7.148   3.784  0.2041  0.1144  0.2197
 7702SOL    HW124076   6.176   7.156   3.842  0.4444  0.2670 -0.1094
 7702SOL    HW224077   6.136   7.165   3.697 -0.1353 -0.1887  0.0182
 7703SOL     OW24078   1.938   2.268   6.356 -0.4207  0.3070 -0.3376
 7703SOL    HW124079   1.961   2.301   6.269  0.4788 -0.1132 -0.2793
 7703SOL    HW224080   1.996   2.316   6.415  1.0669 -1.4578 -0.2694
 7704SOL     OW24081   2.518   0.904   3.620 -0.2026 -0.2841  0.0714
 7704SOL    HW124082   2.454   0.848   3.575 -2.2861  0.3334  2.0574
 7704SOL    HW224083   2.476   0.925   3.703  1.9705  1.4904  0.8040
 7705SOL     OW24084   0.805   2.314   5.735  0.3608  0.0715 -0.2400
 7705SOL    HW124085   0.804   2.407   5.757 -1.6962 -0.4941  2.5852
 7705SOL    HW224086   0.718   2.297   5.699 -0.0308 -1.0718  1.1303
 7706SOL     OW24087   3.136   4.817   7.331 -0.2926  0.2715  0.1305
 7706SOL    HW124088   3.197   4.819   7.257 -0.2671 -0.7165  0.1190
 7706SOL    HW224089   3.084   4.738   7.316 -0.6401  0.3555  0.8932
 7707SOL     OW24090   4.905   4.884   6.034 -0.0556  0.4782  0.3039
 7707SOL    HW124091   4.970   4.815   6.019  0.3268  0.4833  1.7665
 7707SOL    HW224092   4.822   4.836   6.043  0.1625  0.2111  1.0088
 7708SOL     OW24093   5.528   7.163   2.810  0.6570  0.0334 -0.5364
 7708SOL    HW124094   5.605   7.107   2.799  0.4952 -0.0167 -1.5099
 7708SOL    HW224095   5.546   7.239   2.756 -0.3487 -0.3790 -1.4938
 7709SOL     OW24096   3.195   0.520   7.091 -0.4538 -0.2283  0.2551
 7709SOL    HW124097   3.206   0.425   7.083  1.2038 -0.1669  1.3134
 7709SOL    HW224098   3.278   0.556   7.062 -0.9632  0.8987  0.1535
 7710SOL     OW24099   1.139   2.309   2.426 -0.3643 -0.3552  0.3729
 7710SOL    HW124100   1.101   2.346   2.347  0.1460 -1.3181 -0.3517
 7710SOL    HW224101   1.217   2.262   2.395 -1.0423 -2.1158  1.2093
 7711SOL     OW24102   4.655   4.928   1.407 -0.3782  0.2189 -0.3307
 7711SOL    HW124103   4.702   4.892   1.482  1.7876  0.1770 -1.6351
 7711SOL    HW224104   4.711   4.910   1.332 -3.2875 -1.4453 -2.3326
 7712SOL     OW24105   3.722   0.475   0.826 -0.4909 -0.7363  0.0697
 7712SOL    HW124106   3.703   0.422   0.748 -1.4266 -0.2889 -0.0098
 7712SOL    HW224107   3.711   0.566   0.796 -3.6418 -0.5693  1.3738
 7713SOL     OW24108   3.048   3.392   6.210 -0.3463 -0.2891 -0.0257
 7713SOL    HW124109   3.112   3.334   6.250  0.4451  0.3470 -0.3466
 7713SOL    HW224110   3.091   3.478   6.207 -1.0833  0.0756 -0.5375
 7714SOL     OW24111   6.617   4.310   2.445  0.2654 -0.3628  0.0204
 7714SOL    HW124112   6.550   4.260   2.397  0.3564  0.1483 -0.6554
 7714SOL    HW224113   6.698   4.291   2.399  0.3783  0.0310  0.0542
 7715SOL     OW24114   7.064   0.822   1.191 -0.3125  0.8933  0.3024
 7715SOL    HW124115   7.107   0.856   1.113 -0.5285  0.0300 -0.2007
 7715SOL    HW224116   7.104   0.736   1.205 -0.5406  0.8849  0.9279
 7716SOL     OW24117   1.123   4.792   6.638  0.2647 -0.4175 -0.0852
 7716SOL    HW124118   1.148   4.716   6.690 -0.4902 -0.0349  0.8787
 7716SOL    HW224119   1.054   4.834   6.689 -0.0823  0.3172 -1.1219
 7717SOL     OW24120   6.376   4.388   5.587  0.0386 -0.3356 -0.3312
 7717SOL    HW124121   6.459   4.412   5.545 -0.4452 -0.3302 -1.3276
 7717SOL    HW224122   6.346   4.468   5.630  0.9499 -0.5567  0.7641
 7718SOL     OW24123   5.607   6.116   1.796  0.1163  0.0063 -0.6203
 7718SOL    HW124124   5.699   6.088   1.805 -0.4969 -1.7294  1.0096
 7718SOL    HW224125   5.613   6.208   1.772  2.2861 -0.1291 -0.8884
 7719SOL     OW24126   6.684   0.904   4.367  0.6187  0.0988 -0.3149
 7719SOL    HW124127   6.748   0.887   4.298 -0.8171  1.5010 -2.0852
 7719SOL    HW224128   6.733   0.948   4.436  1.5845  1.0518 -1.5784
 7720SOL     OW24129   4.571   0.350   2.178  0.0853  0.5804  0.4282
 7720SOL    HW124130   4.641   0.380   2.235  1.6468  0.0352 -1.1081
 7720SOL    HW224131   4.609   0.354   2.090 -1.5421 -0.5074 -0.3661
 7721SOL     OW24132   6.371   2.272   3.892  0.0651  0.1991 -0.0343
 7721SOL    HW124133   6.375   2.367   3.904  0.5718  0.3880 -1.5171
 7721SOL    HW224134   6.449   2.239   3.935  0.1274  0.4998  0.0875
 7722SOL     OW24135   1.009   0.820   2.330  0.0718  0.4083  0.0251
 7722SOL    HW124136   0.980   0.829   2.239 -0.0215  2.1716  0.2053
 7722SOL    HW224137   1.105   0.821   2.324  0.0656  1.0597 -0.0148
 7723SOL     OW24138   5.665   2.770   3.606 -0.0210  0.2859 -0.4729
 7723SOL    HW124139   5.691   2.732   3.690  1.2694  1.7587 -0.1488
 7723SOL    HW224140   5.726   2.731   3.542  0.9040  1.3125 -0.2381
 7724SOL     OW24141   7.159   5.684   2.094 -0.0637 -0.1083 -0.0346
 7724SOL    HW124142   7.141   5.592   2.078 -0.8725  0.3208 -1.7983
 7724SOL    HW224143   7.075   5.728   2.078  0.0964  0.8800  1.5693
 7725SOL     OW24144   3.004   1.410   5.201  0.4290 -0.2490  0.0422
 7725SOL    HW124145   2.982   1.476   5.135  1.8693  0.7924  0.5491
 7725SOL    HW224146   3.100   1.408   5.202  0.4260 -2.2540  0.1678
 7726SOL     OW24147   7.224   4.029   2.269 -0.2406 -0.4628 -0.4243
 7726SOL    HW124148   7.130   4.009   2.266 -0.3709  0.1473 -0.7261
 7726SOL    HW224149   7.241   4.072   2.185  0.4763 -1.2489 -0.6949
 7727SOL     OW24150   0.135   0.551   3.863  0.4223 -0.1005 -0.3579
 7727SOL    HW124151   0.208   0.603   3.829 -0.7778  1.4654 -0.6514
 7727SOL    HW224152   0.062   0.571   3.804 -0.0699 -2.2671 -0.5665
 7728SOL     OW24153   5.515   0.776   4.668  0.3793  0.1507  0.2890
 7728SOL    HW124154   5.497   0.863   4.632  0.7903  0.5509  1.0189
 7728SOL    HW224155   5.572   0.793   4.743  0.0174 -0.7030  0.7686
 7729SOL     OW24156   2.907   5.419   0.229 -0.0457  0.4519 -0.6281
 7729SOL    HW124157   2.821   5.456   0.248 -0.1905  0.1696 -0.7236
 7729SOL    HW224158   2.892   5.364   0.152  0.2571  0.5398 -0.7501
 7730SOL     OW24159   4.091   2.841   0.822  0.3795 -0.1031  0.1348
 7730SOL    HW124160   4.071   2.857   0.914 -2.4469  2.9237 -0.7868
 7730SOL    HW224161   4.008   2.811   0.785  0.1636  2.7447 -2.0590
 7731SOL     OW24162   0.265   7.028   3.365 -0.2965 -0.1671 -0.2252
 7731SOL    HW124163   0.184   7.061   3.325  0.9851  2.3552 -0.9560
 7731SOL    HW224164   0.280   7.086   3.439  1.5317  0.3046 -0.9173
 7732SOL     OW24165   3.669   5.348   0.914  0.0270 -0.3156  0.1702
 7732SOL    HW124166   3.680   5.334   0.820  1.1872 -1.4726  0.4463
 7732SOL    HW224167   3.673   5.443   0.925 -0.3742 -0.1551 -0.9691
 7733SOL     OW24168   0.493   3.692   4.151  0.0649 -0.4640 -0.2073
 7733SOL    HW124169   0.494   3.746   4.072  1.7390 -0.9443 -0.5477
 7733SOL    HW224170   0.498   3.602   4.120  1.7369 -0.6281  0.4241
 7734SOL     OW24171   5.657   3.803   3.682 -0.0058 -0.5170 -0.5735
 7734SOL    HW124172   5.732   3.759   3.721 -0.5934  0.1300  1.3962
 7734SOL    HW224173   5.694   3.880   3.639  0.6559 -1.2176 -1.2723
 7735SOL     OW24174   1.191   7.172   5.048 -0.2596 -0.3989  0.3611
 7735SOL    HW124175   1.170   7.098   5.104  0.6218 -0.4451  0.6424
 7735SOL    HW224176   1.259   7.140   4.989 -0.4643 -0.0561 -0.0769
 7736SOL     OW24177   1.023   3.394   2.687  0.6046 -0.1343  0.6229
 7736SOL    HW124178   1.093   3.459   2.691 -0.9328  1.6238  0.4892
 7736SOL    HW224179   0.973   3.408   2.768 -0.0550 -0.8164  0.3482
 7737SOL     OW24180   3.162   1.740   4.826 -0.1171 -0.0917 -0.2540
 7737SOL    HW124181   3.222   1.778   4.762  3.0723 -1.9291  1.3961
 7737SOL    HW224182   3.217   1.686   4.883 -3.0267 -0.1570  2.8807
 7738SOL     OW24183   2.754   4.629   3.377 -0.2953  0.3999 -0.4854
 7738SOL    HW124184   2.844   4.615   3.348 -0.7022  1.3005 -2.4051
 7738SOL    HW224185   2.714   4.542   3.376  0.7991 -0.1806  1.4884
 7739SOL     OW24186   2.545   4.746   6.056 -0.5957  0.2213 -0.0596
 7739SOL    HW124187   2.614   4.767   5.994 -0.5619 -0.0256 -0.1038
 7739SOL    HW224188   2.557   4.654   6.076 -1.0090  0.1347 -0.1878
 7740SOL     OW24189   3.421   4.331   1.902  0.1229 -0.8278 -0.1879
 7740SOL    HW124190   3.496   4.391   1.913  0.1978 -1.0272  0.4738
 7740SOL    HW224191   3.357   4.382   1.852  0.7177 -0.6698 -0.8048
 7741SOL     OW24192   7.095   6.525   0.339  0.0585  0.4345 -0.5948
 7741SOL    HW124193   7.115   6.572   0.258 -0.4781  0.8187 -0.5122
 7741SOL    HW224194   7.179   6.519   0.385  1.1948 -2.9588 -2.7575
 7742SOL     OW24195   6.325   7.063   3.218 -0.6215 -0.4371 -0.2168
 7742SOL    HW124196   6.386   6.998   3.252 -0.0999  1.0809  1.9696
 7742SOL    HW224197   6.239   7.023   3.228 -0.3714 -0.5846  1.7760
 7743SOL     OW24198   1.566   6.181   6.403 -0.2081  0.2940 -0.1582
 7743SOL    HW124199   1.580   6.191   6.309 -1.5176 -0.6021 -0.4706
 7743SOL    HW224200   1.563   6.271   6.436  3.4041  0.6349 -0.4178
 7744SOL     OW24201   5.103   7.055   6.956  0.3987 -0.3079  0.0906
 7744SOL    HW124202   5.183   7.055   7.009  0.4233  0.3638  0.0681
 7744SOL    HW224203   5.054   6.979   6.987  0.5702 -0.1266  0.8463
 7745SOL     OW24204   4.486   6.667   2.582  0.3261 -0.1516  0.0978
 7745SOL    HW124205   4.530   6.731   2.638  1.6187  1.1810 -2.3253
 7745SOL    HW224206   4.518   6.685   2.494 -1.1552 -2.5699 -1.0401
 7746SOL     OW24207   3.357   5.480   6.042 -0.1686 -0.6030 -0.3710
 7746SOL    HW124208   3.292   5.478   5.971 -0.8574 -0.8960  0.2569
 7746SOL    HW224209   3.336   5.403   6.095  0.0657 -0.1501  0.3943
 7747SOL     OW24210   0.822   7.339   5.342 -0.4501  0.4696 -0.2644
 7747SOL    HW124211   0.735   7.300   5.338 -0.4631  0.5315 -0.5929
 7747SOL    HW224212   0.880   7.265   5.364 -0.3381  0.0402 -1.8635
 7748SOL     OW24213   3.261   1.084   5.699  0.0155 -0.1250  0.6964
 7748SOL    HW124214   3.352   1.108   5.712 -0.1304  0.5323  0.5364
 7748SOL    HW224215   3.220   1.098   5.785  0.1870 -1.0028  0.9281
 7749SOL     OW24216   4.472   3.151   4.984  0.2895 -0.0064  0.0067
 7749SOL    HW124217   4.471   3.096   4.906  0.7645  0.8641 -0.6222
 7749SOL    HW224218   4.539   3.111   5.040  1.3254  0.4763 -0.8577
 7750SOL     OW24219   5.115   2.432   0.668 -0.1996  0.5501  0.2322
 7750SOL    HW124220   5.064   2.432   0.749  0.5330  1.7958  0.7405
 7750SOL    HW224221   5.051   2.440   0.598 -0.7723  1.0232  0.7992
 7751SOL     OW24222   7.147   5.082   6.434 -0.4967 -0.5101  0.0247
 7751SOL    HW124223   7.122   5.090   6.526 -1.8244 -0.3183 -0.3231
 7751SOL    HW224224   7.208   5.009   6.432 -0.7727 -0.7848  0.9972
 7752SOL     OW24225   6.380   4.726   0.580  0.2047 -0.1395  0.4072
 7752SOL    HW124226   6.448   4.663   0.557  0.7467  1.1575 -1.8431
 7752SOL    HW224227   6.426   4.795   0.628  0.4254  0.5038 -0.6992
 7753SOL     OW24228   4.480   1.345   2.267 -0.0475 -0.0195  0.2872
 7753SOL    HW124229   4.510   1.266   2.311  2.1221  1.2150  1.1794
 7753SOL    HW224230   4.547   1.363   2.201 -0.2704  1.2872  0.3833
 7754SOL     OW24231   6.193   1.321   3.937 -0.0817 -0.0064 -0.2624
 7754SOL    HW124232   6.123   1.325   4.002  0.0901 -0.5320 -0.0374
 7754SOL    HW224233   6.161   1.259   3.871 -0.8523  1.5699 -1.4134
 7755SOL     OW24234   5.224   4.686   6.316 -0.1309 -0.8117  0.0689
 7755SOL    HW124235   5.308   4.713   6.277 -0.2789 -1.5320 -0.7922
 7755SOL    HW224236   5.244   4.673   6.408 -0.0187  1.9767  0.5029
 7756SOL     OW24237   4.144   6.241   0.666  0.8372 -0.1096  0.1866
 7756SOL    HW124238   4.058   6.238   0.625  1.3910  0.3542 -1.0673
 7756SOL    HW224239   4.126   6.233   0.760 -0.5956  0.3644 -0.0159
 7757SOL     OW24240   1.967   6.611   0.216  0.1418  0.8726  0.1274
 7757SOL    HW124241   1.977   6.665   0.138 -0.4066  1.1330  0.2244
 7757SOL    HW224242   2.020   6.533   0.200 -0.8460  0.4068 -0.9785
 7758SOL     OW24243   4.832   0.365   4.548 -1.0151  0.2643 -0.4536
 7758SOL    HW124244   4.854   0.336   4.637  2.8643 -0.0195 -1.3076
 7758SOL    HW224245   4.765   0.304   4.518 -1.6427 -0.2850  1.8925
 7759SOL     OW24246   0.866   2.161   3.541  0.1853  0.0868 -0.2736
 7759SOL    HW124247   0.770   2.167   3.543  0.1478 -0.2482 -0.9944
 7759SOL    HW224248   0.893   2.189   3.628 -0.5995 -0.3069  0.1077
 7760SOL     OW24249   0.626   4.534   1.921 -0.4820 -0.2795  0.0150
 7760SOL    HW124250   0.609   4.491   1.837 -0.1186 -0.7290  0.1711
 7760SOL    HW224251   0.717   4.514   1.941 -0.2866  0.5984  0.0788
 7761SOL     OW24252   3.093   0.820   5.771  0.0760 -0.0338  0.2490
 7761SOL    HW124253   3.173   0.822   5.718  0.0076 -3.0922 -0.1492
 7761SOL    HW224254   3.119   0.859   5.855  1.4100  0.8500 -0.5373
 7762SOL     OW24255   5.858   4.373   4.197 -0.2447  0.3370  0.1151
 7762SOL    HW124256   5.820   4.455   4.165 -2.0145 -1.0244 -1.4960
 7762SOL    HW224257   5.784   4.324   4.233  0.6931 -0.7642  0.6240
 7763SOL     OW24258   0.011   6.936   2.864  0.5448  0.1763  0.0471
 7763SOL    HW124259  -0.009   6.885   2.785  0.2875 -0.4135  0.4908
 7763SOL    HW224260  -0.026   7.022   2.846  3.6739  1.2967 -2.0651
 7764SOL     OW24261   1.504   0.017   2.230  0.0888 -0.2323 -0.0241
 7764SOL    HW124262   1.487  -0.068   2.188  0.4541 -0.7049  0.7592
 7764SOL    HW224263   1.560   0.064   2.169 -0.7155 -0.2604 -0.7972
 7765SOL     OW24264   4.501   6.791   3.576 -0.3214 -0.4481  0.0790
 7765SOL    HW124265   4.551   6.770   3.656 -0.9212  0.5086  0.7271
 7765SOL    HW224266   4.528   6.724   3.513 -1.2267 -2.4159  1.6612
 7766SOL     OW24267   1.097   6.664   0.623  0.7329  0.2680  0.4470
 7766SOL    HW124268   1.191   6.648   0.635  0.3156 -2.5027  0.7911
 7766SOL    HW224269   1.067   6.591   0.568 -1.6335 -0.4417  2.4539
 7767SOL     OW24270   3.006   0.402   0.771 -0.0905 -0.6169  0.1346
 7767SOL    HW124271   2.982   0.477   0.826  0.1040 -0.4487 -0.0081
 7767SOL    HW224272   2.966   0.327   0.814 -0.5667 -0.3888  0.1038
 7768SOL     OW24273   1.198   3.432   2.405 -0.0450 -0.1268 -0.2580
 7768SOL    HW124274   1.185   3.365   2.472 -0.0391  0.1834  0.0612
 7768SOL    HW224275   1.195   3.515   2.454  1.7441  0.0353 -0.3818
 7769SOL     OW24276   4.059   0.093   6.021 -0.2328  0.1227  0.7793
 7769SOL    HW124277   4.022   0.039   5.951 -0.9435 -0.3041  1.4676
 7769SOL    HW224278   4.051   0.039   6.100  2.5232 -0.3047  0.8632
 7770SOL     OW24279   3.223   6.838   5.169 -0.3988  0.2818  0.0870
 7770SOL    HW124280   3.199   6.805   5.255 -0.7477 -0.9926 -0.4690
 7770SOL    HW224281   3.159   6.907   5.150  1.4059  2.6303  2.0147
 7771SOL     OW24282   1.555   4.136   6.505  0.3932  0.0643  0.2872
 7771SOL    HW124283   1.590   4.057   6.548  0.6567 -0.3878 -0.7315
 7771SOL    HW224284   1.625   4.200   6.513  0.3690  0.0425  0.6936
 7772SOL     OW24285   7.286   3.887   0.676  0.6703 -0.3093  0.1682
 7772SOL    HW124286   7.225   3.873   0.604 -0.7976  0.1945  1.2553
 7772SOL    HW224287   7.264   3.819   0.739  0.3038  0.6621  1.1316
 7773SOL     OW24288   2.114   7.218   6.406 -0.3938  0.1340  0.1164
 7773SOL    HW124289   2.104   7.239   6.313  1.6588 -1.8268 -0.6462
 7773SOL    HW224290   2.200   7.254   6.429  0.3918 -1.8422  0.4307
 7774SOL     OW24291   6.816   2.303   5.784 -0.3542 -0.3363 -0.3959
 7774SOL    HW124292   6.796   2.254   5.864  0.0446 -0.4251 -0.3456
 7774SOL    HW224293   6.774   2.252   5.714  0.7838 -1.2577 -0.4524
 7775SOL     OW24294   1.220   6.464   2.877  0.2506  0.8567 -0.4246
 7775SOL    HW124295   1.275   6.425   2.808  0.9289  2.0993 -0.6073
 7775SOL    HW224296   1.139   6.488   2.832  0.7271  1.7507 -0.8262
 7776SOL     OW24297   1.466   7.035   1.493 -0.1976 -0.1223 -0.5873
 7776SOL    HW124298   1.498   7.012   1.406 -0.0236  0.6997 -0.7534
 7776SOL    HW224299   1.408   7.110   1.477  0.7265  0.7754  0.1201
 7777SOL     OW24300   6.293   0.457   1.475 -0.0152 -0.1436 -0.4242
 7777SOL    HW124301   6.346   0.384   1.506  1.7233  0.3335 -2.1568
 7777SOL    HW224302   6.204   0.436   1.505  1.0044 -1.2057  2.1213
 7778SOL     OW24303   5.878   0.379   3.776  0.2105  0.4327  0.1529
 7778SOL    HW124304   5.827   0.327   3.714 -0.4304 -0.3497  1.2982
 7778SOL    HW224305   5.825   0.456   3.793 -0.1575  0.0776  0.6217
 7779SOL     OW24306   5.164   1.574   0.726 -0.5934 -0.5089  0.0967
 7779SOL    HW124307   5.146   1.666   0.706 -0.4308 -0.4065  0.4236
 7779SOL    HW224308   5.081   1.541   0.760 -0.7475 -0.5728 -0.3248
 7780SOL     OW24309   5.985   5.212   1.996 -0.3453  0.2327  0.1241
 7780SOL    HW124310   5.917   5.152   1.966 -0.0510  0.0557 -0.1937
 7780SOL    HW224311   6.024   5.247   1.915  0.0020  0.2633  0.3024
 7781SOL     OW24312   3.553   1.885   4.428  0.1916 -0.1704  0.0311
 7781SOL    HW124313   3.639   1.924   4.440  0.6105 -0.7602 -0.9826
 7781SOL    HW224314   3.492   1.958   4.434  0.7055  0.1761  1.2922
 7782SOL     OW24315   2.671   4.485   0.045  0.2539 -0.0681  0.2545
 7782SOL    HW124316   2.614   4.534  -0.014  1.0913  1.0457  0.3329
 7782SOL    HW224317   2.661   4.394   0.018 -0.3835  0.2817 -0.7365
 7783SOL     OW24318   0.025   6.359   2.088  0.3299  0.5533  0.0668
 7783SOL    HW124319  -0.018   6.341   2.005  1.0989  0.6141 -0.3486
 7783SOL    HW224320   0.111   6.319   2.080  0.2172  0.0727  1.0462
 7784SOL     OW24321   6.492   1.340   5.264 -0.0593  0.2951  0.1028
 7784SOL    HW124322   6.558   1.380   5.207 -0.0004  0.9905  0.6497
 7784SOL    HW224323   6.539   1.318   5.344 -0.4290  0.5908  0.4089
 7785SOL     OW24324   7.190   6.550   6.301  0.1046 -0.0497 -0.0329
 7785SOL    HW124325   7.148   6.520   6.382 -1.7030  0.2224 -0.8158
 7785SOL    HW224326   7.264   6.603   6.331 -0.0500 -0.5877  1.4184
 7786SOL     OW24327   4.171   5.053   0.965 -0.2394  0.2548  0.2601
 7786SOL    HW124328   4.175   5.147   0.946  0.9505  0.1077 -0.2914
 7786SOL    HW224329   4.129   5.015   0.887  1.0202  0.1225 -0.3799
 7787SOL     OW24330   0.062   5.577   3.669 -0.3441 -0.3208 -0.2925
 7787SOL    HW124331   0.139   5.621   3.633 -0.2589 -2.0178 -2.3606
 7787SOL    HW224332   0.068   5.487   3.637 -1.5816 -1.3257  2.0853
 7788SOL     OW24333   4.867   4.452   0.875  0.1995 -0.2313 -0.1813
 7788SOL    HW124334   4.953   4.439   0.913 -0.0778  0.2076  0.6202
 7788SOL    HW224335   4.821   4.509   0.936 -0.9214 -1.0576 -0.2010
 7789SOL     OW24336   2.152   5.392   2.229  0.2595 -0.1333  0.5796
 7789SOL    HW124337   2.212   5.323   2.202  0.9257  0.5066  0.4032
 7789SOL    HW224338   2.208   5.464   2.257 -0.4107 -0.0814  1.8886
 7790SOL     OW24339   0.769   4.639   1.603  0.0369  0.4242 -0.0271
 7790SOL    HW124340   0.775   4.558   1.553  0.1663  1.3069 -1.4670
 7790SOL    HW224341   0.849   4.639   1.657  0.0437 -0.3904 -0.0214
 7791SOL     OW24342   6.585   6.656   6.150 -0.0476  0.4322 -0.3697
 7791SOL    HW124343   6.604   6.743   6.116  1.9486 -0.8162 -2.7647
 7791SOL    HW224344   6.663   6.605   6.131 -1.2545 -1.9881  0.7085
 7792SOL     OW24345   3.983   1.855   7.055  0.5635 -0.2232  0.4370
 7792SOL    HW124346   4.069   1.872   7.018  0.4055 -0.0639  0.1346
 7792SOL    HW224347   3.994   1.777   7.109  0.4502 -1.4021 -1.1941
 7793SOL     OW24348   3.697   4.113   6.475  0.2494  0.3869 -0.5117
 7793SOL    HW124349   3.629   4.117   6.543  2.4358  1.2240  1.7877
 7793SOL    HW224350   3.752   4.039   6.502  1.6267  1.2532 -0.8663
 7794SOL     OW24351   4.002   3.025   4.149  0.9259  0.2502 -0.0684
 7794SOL    HW124352   4.030   3.040   4.059  0.9787  3.1367  0.3302
 7794SOL    HW224353   3.998   2.930   4.158 -0.8061 -0.1518 -3.6206
 7795SOL     OW24354   0.419   7.355   5.083 -0.4113 -0.2706  0.2902
 7795SOL    HW124355   0.357   7.345   5.156  1.4099 -0.1439  1.9460
 7795SOL    HW224356   0.438   7.265   5.055 -0.6071 -0.3509  0.4112
 7796SOL     OW24357   6.453   4.832   0.962  0.2553 -0.1678  0.0670
 7796SOL    HW124358   6.544   4.846   0.934 -0.4880  0.2279 -2.4005
 7796SOL    HW224359   6.418   4.920   0.974 -0.2097 -0.2701 -0.5044
 7797SOL     OW24360   4.625   5.962   2.013  0.0152  0.0420 -0.0709
 7797SOL    HW124361   4.568   6.014   1.955  1.5972  0.8624 -0.9449
 7797SOL    HW224362   4.601   5.871   1.995 -1.2407  0.3689 -0.1665
 7798SOL     OW24363   3.726   4.832   2.869 -0.8732  0.2245  0.2571
 7798SOL    HW124364   3.746   4.842   2.775 -0.6158  0.8019  0.3734
 7798SOL    HW224365   3.716   4.921   2.901 -0.7975  0.0309  0.8175
 7799SOL     OW24366   3.672   5.017   0.563  0.0955 -0.0287 -0.3634
 7799SOL    HW124367   3.603   5.081   0.579 -0.8774 -0.6165 -1.9821
 7799SOL    HW224368   3.752   5.069   0.557 -0.1949  0.6889  1.3306
 7800SOL     OW24369   0.693   4.699   6.651 -0.2218  0.0650  0.2198
 7800SOL    HW124370   0.748   4.621   6.647 -0.3043  0.0055  0.2381
 7800SOL    HW224371   0.611   4.668   6.688  0.5095  0.5717  2.4315
 7801SOL     OW24372   2.543   6.419   6.986  0.0929  0.1044  0.0065
 7801SOL    HW124373   2.619   6.425   7.044  0.2174  2.3430 -0.3361
 7801SOL    HW224374   2.580   6.399   6.900  0.1124 -0.6944  0.1911
 7802SOL     OW24375   0.093   1.023   3.475  0.6035 -0.9356 -0.0353
 7802SOL    HW124376  -0.001   1.030   3.490  0.5130 -0.1531 -0.9172
 7802SOL    HW224377   0.110   0.928   3.476 -0.4776 -1.1888 -1.4297
 7803SOL     OW24378   5.241   3.916   4.757  0.0589  0.8505  0.2753
 7803SOL    HW124379   5.198   3.906   4.842  0.8825 -0.6230  0.5688
 7803SOL    HW224380   5.263   3.826   4.731  0.1425  1.3011 -1.3399
 7804SOL     OW24381   0.850   5.760   6.582 -0.1465 -0.1444  0.1576
 7804SOL    HW124382   0.921   5.807   6.627 -0.9836  1.5217 -0.1701
 7804SOL    HW224383   0.783   5.748   6.650 -0.2956 -0.0666  0.0241
 7805SOL     OW24384   2.644   0.452   3.326 -0.6697  0.1794  0.9282
 7805SOL    HW124385   2.720   0.466   3.383 -0.3094 -0.7103  0.6830
 7805SOL    HW224386   2.617   0.540   3.302  0.5758  0.5146  0.6447
 7806SOL     OW24387   0.788   1.011   3.591  0.5983  0.3701 -0.3181
 7806SOL    HW124388   0.881   0.999   3.573  1.0247  1.3739  1.0700
 7806SOL    HW224389   0.782   1.097   3.632 -0.5868 -0.6679  1.8739
 7807SOL     OW24390   7.009   3.575   0.245  0.0423 -0.4251 -0.5334
 7807SOL    HW124391   7.093   3.558   0.285  0.9432 -0.4638 -2.3335
 7807SOL    HW224392   6.946   3.574   0.317  1.6042 -0.1474  0.8689
 7808SOL     OW24393   6.668   7.333   3.289 -0.1054  0.4618 -0.3562
 7808SOL    HW124394   6.684   7.428   3.290  0.3939  0.3902 -0.8286
 7808SOL    HW224395   6.725   7.300   3.219  1.4341 -0.4889  1.2557
 7809SOL     OW24396   2.399   6.497   1.854 -0.0884  0.0491  0.3812
 7809SOL    HW124397   2.400   6.530   1.944 -0.6314  1.5580 -0.1464
 7809SOL    HW224398   2.394   6.575   1.799 -3.5764 -0.8666 -0.8746
 7810SOL     OW24399   6.550   4.751   2.404 -0.4611  0.2939  0.1991
 7810SOL    HW124400   6.528   4.733   2.496 -0.4750 -1.6436 -0.1476
 7810SOL    HW224401   6.487   4.818   2.377 -0.6407  0.6858  1.4978
 7811SOL     OW24402   5.354   1.960   1.361 -0.8093  0.4988 -0.5919
 7811SOL    HW124403   5.358   2.053   1.339 -2.6253  1.3159  2.0630
 7811SOL    HW224404   5.445   1.936   1.383 -0.6006  2.2341  0.6357
 7812SOL     OW24405   0.335   0.865   5.361 -0.3783  0.1811 -0.0293
 7812SOL    HW124406   0.332   0.776   5.396  1.2754  0.0412 -0.1663
 7812SOL    HW224407   0.428   0.883   5.349 -0.7127  1.7239 -0.5552
 7813SOL     OW24408   4.254   2.695   2.016  0.1173 -0.6339  0.4861
 7813SOL    HW124409   4.342   2.669   1.990  0.2513  0.1004  0.1695
 7813SOL    HW224410   4.259   2.705   2.112  1.2546  2.3509  0.2491
 7814SOL     OW24411   5.809   2.924   2.948  0.1849  0.2335 -0.0241
 7814SOL    HW124412   5.840   3.014   2.937  0.2945  0.0846 -1.0507
 7814SOL    HW224413   5.889   2.871   2.947  0.0081 -0.0892 -2.0115
 7815SOL     OW24414   2.564   4.210   2.389  0.0738 -0.6873 -0.6113
 7815SOL    HW124415   2.554   4.205   2.484  0.3478 -1.5756 -0.6240
 7815SOL    HW224416   2.605   4.295   2.374  0.6964 -0.8442  0.1242
 7816SOL     OW24417   0.921   3.119   0.719  0.4166 -0.7693  0.2393
 7816SOL    HW124418   1.012   3.090   0.711  0.6319 -0.1355  0.3245
 7816SOL    HW224419   0.883   3.060   0.783  1.0161 -0.4958  0.8676
 7817SOL     OW24420   7.137   1.380   2.480  0.3784 -0.0841 -0.0093
 7817SOL    HW124421   7.056   1.329   2.475 -0.0737  0.5853  0.2237
 7817SOL    HW224422   7.176   1.373   2.393  0.7252 -1.4480  0.2416
 7818SOL     OW24423   5.081   1.507   6.312  0.2715  0.2032  0.0236
 7818SOL    HW124424   5.127   1.565   6.251 -0.3022  2.0152  1.2115
 7818SOL    HW224425   5.063   1.563   6.388 -2.2066 -0.9491  0.3762
 7819SOL     OW24426   5.477   4.190   4.837 -0.4314  0.0539 -0.6530
 7819SOL    HW124427   5.556   4.166   4.885  0.9252  0.4716 -2.5442
 7819SOL    HW224428   5.418   4.225   4.903  0.2266 -1.9385  1.1027
 7820SOL     OW24429   3.744   1.664   1.195 -0.3450 -0.1855  0.5788
 7820SOL    HW124430   3.809   1.598   1.222  0.2303 -0.7089 -1.8482
 7820SOL    HW224431   3.665   1.613   1.176 -0.3025 -0.0196 -0.0505
 7821SOL     OW24432   5.728   2.661   4.606  0.1560 -0.1437 -0.7519
 7821SOL    HW124433   5.781   2.732   4.570 -0.5723  0.8431  0.0473
 7821SOL    HW224434   5.638   2.693   4.601 -0.1326 -0.7575  0.1391
 7822SOL     OW24435   2.249   1.688   6.005 -0.3200  0.3502 -1.0398
 7822SOL    HW124436   2.203   1.768   6.033 -1.4104 -0.5540 -0.1348
 7822SOL    HW224437   2.243   1.630   6.081  2.3091  0.1481 -0.9149
 7823SOL     OW24438   6.821   3.744   1.267  0.3687 -0.2738  0.4330
 7823SOL    HW124439   6.805   3.721   1.176 -1.2427 -2.0192  1.0780
 7823SOL    HW224440   6.739   3.783   1.297  0.0470 -1.8238  1.6996
 7824SOL     OW24441   0.623   3.804   2.645  0.0806 -0.5105  0.4912
 7824SOL    HW124442   0.567   3.729   2.665 -1.9262  1.2929  2.0330
 7824SOL    HW224443   0.563   3.874   2.620  1.8811  0.6419 -0.9170
 7825SOL     OW24444   7.201   3.632   3.609 -0.7370  0.1576 -0.4115
 7825SOL    HW124445   7.246   3.682   3.677  0.0435 -0.2016 -0.6595
 7825SOL    HW224446   7.169   3.554   3.654 -0.3118 -0.0310 -0.4435
 7826SOL     OW24447   5.570   2.422   2.027 -0.5156  0.0756 -0.4199
 7826SOL    HW124448   5.548   2.491   1.964  0.8891  2.1513  1.1796
 7826SOL    HW224449   5.666   2.415   2.021 -0.2065  1.0912  2.0729
 7827SOL     OW24450   3.651   2.922   0.449  0.3909 -0.5047  0.4364
 7827SOL    HW124451   3.592   2.848   0.438  0.4160 -0.4183 -0.3444
 7827SOL    HW224452   3.592   2.997   0.460  0.3394 -0.8033  2.7907
 7828SOL     OW24453   4.865   4.308   0.254 -0.3255  0.3516 -0.1247
 7828SOL    HW124454   4.787   4.340   0.300  0.3111  1.0346  0.5204
 7828SOL    HW224455   4.852   4.336   0.164 -0.6756  0.7534  0.0432
 7829SOL     OW24456   1.082   5.671   5.051 -0.4251  0.1050 -0.3431
 7829SOL    HW124457   1.144   5.642   4.984 -0.0179  1.5233 -0.6145
 7829SOL    HW224458   1.023   5.731   5.005  0.9099  2.4745  0.8498
 7830SOL     OW24459   2.188   0.504   1.069  0.2993  0.1473  0.0001
 7830SOL    HW124460   2.209   0.537   1.157  0.9701  0.8223 -0.3942
 7830SOL    HW224461   2.270   0.466   1.038 -0.1965 -0.9870  0.0352
 7831SOL     OW24462   4.244   6.751   7.122 -0.2643 -0.2744 -0.2871
 7831SOL    HW124463   4.221   6.789   7.037  0.3898 -0.0052 -0.3504
 7831SOL    HW224464   4.267   6.660   7.102  0.3723 -0.0779 -0.4804
 7832SOL     OW24465   4.863   0.836   4.289 -0.0014 -0.2071 -0.0285
 7832SOL    HW124466   4.956   0.827   4.307 -0.1641 -0.8980  0.4825
 7832SOL    HW224467   4.846   0.930   4.298  0.5120 -0.1615  0.5100
 7833SOL     OW24468   4.701   2.186   0.062  0.8828 -0.3368  0.6149
 7833SOL    HW124469   4.632   2.226   0.009  1.6294  1.6006  1.0562
 7833SOL    HW224470   4.654   2.135   0.128 -0.2011  1.9101  1.6591
 7834SOL     OW24471   4.958   1.829   2.747 -0.0719  0.0531  0.5725
 7834SOL    HW124472   4.997   1.883   2.678  1.0016 -0.2975  0.8853
 7834SOL    HW224473   4.929   1.892   2.813  0.0590  0.3208  0.3802
 7835SOL     OW24474   4.172   2.248   4.105 -0.2214 -0.1770 -0.4789
 7835SOL    HW124475   4.185   2.330   4.058  2.5301 -1.0383 -1.4071
 7835SOL    HW224476   4.182   2.180   4.039 -3.0467 -1.3230  0.1502
 7836SOL     OW24477   1.433   5.584   0.605  0.0181  0.2211  0.4349
 7836SOL    HW124478   1.378   5.507   0.617  0.0792  0.0423 -0.4175
 7836SOL    HW224479   1.488   5.587   0.684 -2.0417  1.1135  1.9368
 7837SOL     OW24480   1.680   2.999   3.714  0.2561  0.6332  0.5527
 7837SOL    HW124481   1.710   3.061   3.648  0.7615 -1.4370 -1.2525
 7837SOL    HW224482   1.585   3.012   3.718  0.0556  0.0818 -1.4068
 7838SOL     OW24483   1.146   5.310   2.618 -0.6675 -0.1509  0.1474
 7838SOL    HW124484   1.229   5.355   2.603 -1.2687  0.9129 -0.0799
 7838SOL    HW224485   1.103   5.361   2.686 -2.1332  0.6766 -1.3480
 7839SOL     OW24486   0.084   2.701   1.094  0.0814  0.0439  0.8018
 7839SOL    HW124487   0.122   2.720   1.180  0.0629 -0.6027  0.9560
 7839SOL    HW224488  -0.005   2.672   1.113 -0.5023  1.5114  0.4439
 7840SOL     OW24489   0.829   3.873   4.710 -0.1677  0.1455  0.5956
 7840SOL    HW124490   0.896   3.807   4.726  0.7244  0.8059 -0.2836
 7840SOL    HW224491   0.876   3.956   4.708 -1.1647  0.7441  0.9653
 7841SOL     OW24492   4.507   2.809   5.664  0.0310  0.4902 -0.3861
 7841SOL    HW124493   4.461   2.852   5.592  0.1137 -0.6801 -1.1657
 7841SOL    HW224494   4.483   2.860   5.741  1.8631  3.3181 -1.4966
 7842SOL     OW24495   4.273   4.131   1.649 -0.3245  0.1174  0.2042
 7842SOL    HW124496   4.210   4.064   1.674 -0.4488  0.1145 -0.1154
 7842SOL    HW224497   4.358   4.093   1.671 -0.3617 -0.3520 -0.4477
 7843SOL     OW24498   5.883   1.952   3.181 -0.2794  0.4355 -0.2083
 7843SOL    HW124499   5.812   1.896   3.150  0.0481  0.2744 -0.6837
 7843SOL    HW224500   5.877   2.030   3.127 -0.1764  0.4777 -0.1581
 7844SOL     OW24501   0.571   6.772   2.081 -0.5098 -0.2886 -0.5801
 7844SOL    HW124502   0.624   6.717   2.139 -0.6133  0.3001  0.0776
 7844SOL    HW224503   0.562   6.720   2.001  3.0313  0.4643 -1.6603
 7845SOL     OW24504   5.802   0.999   1.553 -0.1385  0.2759  0.0291
 7845SOL    HW124505   5.775   0.913   1.584 -1.2291 -0.2230 -2.1098
 7845SOL    HW224506   5.735   1.059   1.586 -0.9555 -0.1597 -0.7775
 7846SOL     OW24507   5.668   6.055   4.611 -0.3298 -0.4525 -0.2422
 7846SOL    HW124508   5.653   6.103   4.530  0.0392 -0.0719 -0.0862
 7846SOL    HW224509   5.618   6.103   4.677  0.1279 -0.2138 -0.0659
 7847SOL     OW24510   6.956   0.390   3.515 -0.3808 -0.9527  0.6432
 7847SOL    HW124511   7.046   0.388   3.548  0.5355 -1.5432 -1.7109
 7847SOL    HW224512   6.914   0.315   3.557  1.2605 -2.7891 -0.7869
 7848SOL     OW24513   3.082   3.457   5.409 -0.1886 -0.2959 -0.4165
 7848SOL    HW124514   3.083   3.395   5.336 -0.5444  0.6499 -1.2417
 7848SOL    HW224515   3.011   3.427   5.465  0.2594 -1.1870 -0.3079
 7849SOL     OW24516   2.492   6.117   7.228  0.3487 -0.1089  0.3885
 7849SOL    HW124517   2.475   6.111   7.322  0.9703  0.6267  0.5533
 7849SOL    HW224518   2.448   6.041   7.191 -1.4243  0.5348  1.0608
 7850SOL     OW24519   6.198   1.820   2.272  0.0111 -0.5494  0.1109
 7850SOL    HW124520   6.113   1.863   2.262  0.0622 -0.3420  0.5315
 7850SOL    HW224521   6.178   1.727   2.273 -0.5393 -0.4869  2.7392
 7851SOL     OW24522   2.991   1.363   5.506  0.1062 -0.2904  0.1153
 7851SOL    HW124523   2.975   1.362   5.411  0.7545 -0.1533 -0.0010
 7851SOL    HW224524   2.991   1.270   5.531  2.3888 -0.4996 -0.4649
 7852SOL     OW24525   7.331   3.499   5.799  1.0924  0.5840  0.0021
 7852SOL    HW124526   7.348   3.485   5.706  0.5141 -0.8884  0.0802
 7852SOL    HW224527   7.371   3.584   5.819  2.2929  0.3657 -1.3067
 7853SOL     OW24528   0.656   0.975   4.988  0.2844 -0.4515  0.0320
 7853SOL    HW124529   0.670   0.881   4.996 -2.3010 -0.9095  0.1241
 7853SOL    HW224530   0.694   1.012   5.068  3.2994 -1.0655 -1.0082
 7854SOL     OW24531   5.619   1.342   5.301  0.5693  0.5260 -0.8893
 7854SOL    HW124532   5.525   1.347   5.320  0.8409 -0.5304  0.9256
 7854SOL    HW224533   5.646   1.433   5.289 -0.6906  0.8346 -1.6347
 7855SOL     OW24534   6.173   2.905   2.584 -0.7441 -0.7130 -0.1214
 7855SOL    HW124535   6.093   2.896   2.637  0.5427  0.1939  2.1157
 7855SOL    HW224536   6.200   2.815   2.567 -1.9274 -1.0325 -0.4103
 7856SOL     OW24537   1.351   5.284   0.415 -0.5456  0.6083  0.0813
 7856SOL    HW124538   1.397   5.209   0.452 -0.6848  0.0633 -0.8466
 7856SOL    HW224539   1.260   5.256   0.407 -0.5757  0.8350 -0.3814
 7857SOL     OW24540   6.107   2.411   4.761 -0.0047  0.6595  0.0583
 7857SOL    HW124541   6.185   2.371   4.723  0.3002  0.9745  0.3412
 7857SOL    HW224542   6.040   2.343   4.756  0.7720 -0.2832  1.4993
 7858SOL     OW24543   6.826   2.318   6.363  0.3559  0.3917 -0.4721
 7858SOL    HW124544   6.886   2.299   6.291  1.0374 -0.5064  0.3055
 7858SOL    HW224545   6.781   2.398   6.337  0.8080  0.2515 -1.7515
 7859SOL     OW24546   7.234   0.393   3.539  0.3212 -0.0707  0.1325
 7859SOL    HW124547   7.216   0.315   3.591 -0.1101 -2.1672 -2.8608
 7859SOL    HW224548   7.264   0.359   3.455  0.2302  3.0263 -1.3033
 7860SOL     OW24549   4.212   6.929   5.133  0.5292  0.2495  0.1725
 7860SOL    HW124550   4.214   6.952   5.226  1.1055 -0.3860  0.3248
 7860SOL    HW224551   4.300   6.898   5.114 -0.0559 -1.3589 -0.1293
 7861SOL     OW24552   1.971   4.849   0.373 -0.2070 -0.2056 -0.3343
 7861SOL    HW124553   2.007   4.859   0.285  0.2317  1.8289  0.0098
 7861SOL    HW224554   2.048   4.847   0.430 -0.4958 -1.2475  0.0231
 7862SOL     OW24555   4.927   0.973   1.901  0.0569 -0.2306  0.3728
 7862SOL    HW124556   4.958   1.034   1.968 -0.6189  0.2461  0.2660
 7862SOL    HW224557   4.854   0.928   1.942  0.0523 -0.4032  0.1731
 7863SOL     OW24558   4.339   1.204   5.574 -0.6779  0.0195 -0.1070
 7863SOL    HW124559   4.325   1.229   5.665 -0.5343 -2.2895  0.6273
 7863SOL    HW224560   4.434   1.208   5.562 -0.4604 -1.7540  0.5958
 7864SOL     OW24561   6.458   1.090   5.147  0.0676 -0.3766  0.2949
 7864SOL    HW124562   6.362   1.092   5.146  0.0346 -1.5065 -0.5900
 7864SOL    HW224563   6.483   1.182   5.139 -0.9162  0.0975  2.1280
 7865SOL     OW24564   2.052   4.592   5.586  0.2528  0.5428  0.1368
 7865SOL    HW124565   1.962   4.610   5.612 -0.8156 -0.9485 -2.1894
 7865SOL    HW224566   2.081   4.671   5.541 -0.1115  0.7955  0.3483
 7866SOL     OW24567   4.911   3.830   0.289 -0.4513  0.3388  0.0424
 7866SOL    HW124568   4.832   3.778   0.276 -0.9174  1.3671 -1.6189
 7866SOL    HW224569   4.976   3.791   0.230  0.0943 -0.0984  0.9143
 7867SOL     OW24570   1.397   1.984   3.379 -0.1712 -0.2623  0.6505
 7867SOL    HW124571   1.416   2.035   3.300 -3.5563 -1.5279 -1.2277
 7867SOL    HW224572   1.412   1.894   3.353 -2.2322 -0.7745  1.0562
 7868SOL     OW24573   2.199   2.705   7.300  0.6702  0.3728 -0.1418
 7868SOL    HW124574   2.194   2.611   7.284  0.3975  0.5158 -0.9645
 7868SOL    HW224575   2.178   2.745   7.215  0.0573  1.1800  0.3661
 7869SOL     OW24576   0.135   5.400   5.896 -0.5226 -0.0289  0.0879
 7869SOL    HW124577   0.168   5.340   5.829  0.2356 -1.2880  1.5271
 7869SOL    HW224578   0.043   5.378   5.907 -0.0951 -1.4553  1.0800
 7870SOL     OW24579   1.357   2.595   2.165  0.2183 -0.2436  0.6655
 7870SOL    HW124580   1.300   2.665   2.134 -0.8507 -1.9742 -1.5592
 7870SOL    HW224581   1.362   2.609   2.260 -1.3841  1.7758  0.5274
 7871SOL     OW24582   0.771   3.393   6.669  0.1005  0.1601  0.5698
 7871SOL    HW124583   0.843   3.444   6.708 -0.2971  1.0889  0.1246
 7871SOL    HW224584   0.737   3.340   6.741  0.2835  0.8107  1.1415
 7872SOL     OW24585   1.743   2.955   1.344  0.2995  0.6243  0.1174
 7872SOL    HW124586   1.836   2.937   1.330 -0.3235 -2.4936 -0.7023
 7872SOL    HW224587   1.710   2.878   1.391 -2.4685  0.1021 -2.3641
 7873SOL     OW24588   0.881   5.668   1.883  0.0242  0.1710  0.2922
 7873SOL    HW124589   0.925   5.596   1.838 -1.0854  0.0970 -0.7258
 7873SOL    HW224590   0.915   5.747   1.841 -1.5591  0.0793 -1.2720
 7874SOL     OW24591   2.315   6.751   2.285 -0.2490 -0.3328  0.2008
 7874SOL    HW124592   2.228   6.779   2.256 -0.8315 -0.8142  1.3728
 7874SOL    HW224593   2.312   6.762   2.380  1.7924  1.8171  0.1000
 7875SOL     OW24594   0.633   3.794   2.141 -0.2120 -0.3083 -0.1373
 7875SOL    HW124595   0.591   3.759   2.220  0.4027  0.4686  0.5467
 7875SOL    HW224596   0.684   3.869   2.172  1.1919 -0.8581 -1.0521
 7876SOL     OW24597   1.047   4.031   3.527 -0.2623  0.1637  0.4019
 7876SOL    HW124598   1.096   4.092   3.582  1.5280 -2.2348  1.6341
 7876SOL    HW224599   1.073   4.054   3.438  1.4902  0.3539  0.9188
 7877SOL     OW24600   2.502   2.888   3.547 -0.9877 -0.1661 -0.1740
 7877SOL    HW124601   2.536   2.947   3.615  2.1726  1.1229 -2.6217
 7877SOL    HW224602   2.548   2.805   3.563 -0.6598 -0.0305 -0.4067
 7878SOL     OW24603   2.163   3.575   6.053  0.5241  0.0955  0.0441
 7878SOL    HW124604   2.174   3.520   5.976  0.4801  0.1492 -0.0001
 7878SOL    HW224605   2.198   3.661   6.027 -3.7303  1.5805 -1.5577
 7879SOL     OW24606   6.346   2.687   3.644  0.0858  0.0164 -0.3640
 7879SOL    HW124607   6.341   2.609   3.588  0.6552 -0.8810  0.7747
 7879SOL    HW224608   6.422   2.735   3.611  0.4194 -0.5079 -0.3852
 7880SOL     OW24609   4.249   5.137   5.087 -0.5903 -0.3850  0.5386
 7880SOL    HW124610   4.290   5.079   5.022 -2.8940 -1.4161 -0.0936
 7880SOL    HW224611   4.217   5.211   5.035  0.4793  0.4581  1.0396
 7881SOL     OW24612   1.691   0.172   2.400  0.2027  0.4302  0.1646
 7881SOL    HW124613   1.623   0.106   2.416  2.6597 -2.3252  0.0348
 7881SOL    HW224614   1.705   0.169   2.305  0.7934  0.6829  0.2440
 7882SOL     OW24615   4.257   1.715   1.231 -0.2469 -0.1711 -0.0422
 7882SOL    HW124616   4.226   1.652   1.295 -0.9904 -1.7580 -1.8854
 7882SOL    HW224617   4.179   1.763   1.204  0.4524  2.4547  2.1422
 7883SOL     OW24618   4.276   5.811   0.413  0.3966  0.1882  0.0258
 7883SOL    HW124619   4.182   5.808   0.395  0.5634  0.1442 -0.9043
 7883SOL    HW224620   4.307   5.723   0.392  0.2840 -0.5382  2.6193
 7884SOL     OW24621   4.094   3.994   2.280  0.8972 -0.5667  0.4476
 7884SOL    HW124622   4.009   3.952   2.297  0.5867 -0.4116 -0.6359
 7884SOL    HW224623   4.131   4.009   2.367 -0.8832  0.8207  1.0362
 7885SOL     OW24624   4.757   0.588   6.832 -0.1399 -0.3362  0.8777
 7885SOL    HW124625   4.735   0.670   6.787  0.2554 -0.5635  0.2471
 7885SOL    HW224626   4.786   0.616   6.919  2.3294  0.4475 -0.1125
 7886SOL     OW24627   4.329   2.598   5.614  0.4600  0.3734 -0.7273
 7886SOL    HW124628   4.368   2.665   5.671  3.7673  0.1644 -2.5193
 7886SOL    HW224629   4.348   2.515   5.657 -1.1838  0.3811  0.0962
 7887SOL     OW24630   2.397   3.834   3.107 -0.1571 -0.5012 -0.1166
 7887SOL    HW124631   2.371   3.889   3.181 -1.0208 -1.0036 -0.0335
 7887SOL    HW224632   2.458   3.889   3.057 -0.1126  0.1021  0.5840
 7888SOL     OW24633   6.524   3.327   2.944 -0.0923  0.5334 -0.0731
 7888SOL    HW124634   6.607   3.343   2.901 -1.0213  0.0546 -2.1674
 7888SOL    HW224635   6.545   3.266   3.015  1.4891  1.3576  0.2052
 7889SOL     OW24636   6.338   0.602   6.477  0.1755  0.0755 -0.2454
 7889SOL    HW124637   6.283   0.676   6.500 -1.6620 -1.1848 -0.4032
 7889SOL    HW224638   6.286   0.525   6.500  1.9015 -1.1910 -0.3454
 7890SOL     OW24639   5.181   5.150   0.270 -0.2122 -0.4323  0.0327
 7890SOL    HW124640   5.130   5.100   0.207  1.8083 -0.7717 -1.4105
 7890SOL    HW224641   5.226   5.216   0.218  0.4465  0.1653  1.3197
 7891SOL     OW24642   3.233   4.033   1.363  0.0601  0.0249  0.1052
 7891SOL    HW124643   3.234   4.099   1.294  0.7119 -0.6863 -0.5664
 7891SOL    HW224644   3.286   3.961   1.330 -1.7407 -1.4467  0.2541
 7892SOL     OW24645   4.329   1.532   6.501  0.0143 -0.1367  0.6583
 7892SOL    HW124646   4.308   1.484   6.581 -0.8299  0.3042  0.7150
 7892SOL    HW224647   4.386   1.603   6.530  0.5121 -0.5518  0.7129
 7893SOL     OW24648   1.018   1.158   5.361  0.2019  0.5038 -0.3957
 7893SOL    HW124649   1.095   1.211   5.342 -0.1138  1.2117  0.2661
 7893SOL    HW224650   1.053   1.074   5.390  0.7245  0.8892  0.1027
 7894SOL     OW24651   5.873   6.679   3.702 -0.0684 -0.1571 -0.5485
 7894SOL    HW124652   5.904   6.751   3.758  0.5623 -0.4853 -0.4677
 7894SOL    HW224653   5.779   6.672   3.722  0.0612  0.0105  0.1481
 7895SOL     OW24654   3.714   1.409   2.236 -0.1195  0.1027 -0.1570
 7895SOL    HW124655   3.687   1.327   2.194 -2.3849  0.7280 -0.0393
 7895SOL    HW224656   3.693   1.396   2.328 -2.2056  1.4021 -0.3885
 7896SOL     OW24657   5.018   3.616   3.905 -0.0490 -0.4213  0.3623
 7896SOL    HW124658   4.993   3.677   3.975 -0.8201 -3.4556  2.9654
 7896SOL    HW224659   4.971   3.535   3.926  0.6435 -1.8980 -3.0675
 7897SOL     OW24660   6.794   4.621   2.911 -0.5962 -0.3379 -0.3390
 7897SOL    HW124661   6.776   4.705   2.870  0.9089 -0.7810 -2.0701
 7897SOL    HW224662   6.774   4.557   2.843 -0.1621 -1.2638  0.3853
 7898SOL     OW24663   6.640   7.227   1.064 -0.0788 -0.4816 -0.0102
 7898SOL    HW124664   6.656   7.262   0.976  1.4386 -0.6832  0.1628
 7898SOL    HW224665   6.602   7.300   1.112 -2.5762 -0.8326 -1.2450
 7899SOL     OW24666   6.879   3.397   6.388  0.0870  0.1122 -0.4400
 7899SOL    HW124667   6.843   3.386   6.300  0.2190 -1.1522 -0.3612
 7899SOL    HW224668   6.837   3.328   6.439 -0.5340  1.2810  0.6818
 7900SOL     OW24669   3.391   1.205   0.410 -0.4576  0.5940 -0.2170
 7900SOL    HW124670   3.399   1.223   0.503  0.0358 -2.1104  0.3294
 7900SOL    HW224671   3.480   1.180   0.383 -0.6838  0.9332 -1.3276
 7901SOL     OW24672   1.457   4.083   0.827  0.6869  0.1061  0.3331
 7901SOL    HW124673   1.479   4.030   0.904  1.1985 -1.6126 -0.9297
 7901SOL    HW224674   1.531   4.143   0.818  1.2621 -0.5721  0.4383
 7902SOL     OW24675   2.138   1.993   5.672  0.3928  0.0873 -1.0562
 7902SOL    HW124676   2.169   2.077   5.705  0.2614 -1.0711  2.3468
 7902SOL    HW224677   2.203   1.930   5.702 -0.5335 -1.2842 -1.8073
 7903SOL     OW24678   2.026   5.255   7.334  0.7822 -0.7597  0.0649
 7903SOL    HW124679   2.096   5.224   7.391  0.1370 -0.6973  0.9120
 7903SOL    HW224680   1.946   5.219   7.372  0.4485 -2.0242 -1.6937
 7904SOL     OW24681   1.350   1.298   6.361  0.3177 -0.5423  0.0418
 7904SOL    HW124682   1.373   1.259   6.277 -1.9264  1.1412 -1.4576
 7904SOL    HW224683   1.422   1.359   6.380  1.5135 -1.9090  0.0970
 7905SOL     OW24684   7.183   5.679   0.742 -0.3760  0.1027  0.3415
 7905SOL    HW124685   7.160   5.726   0.662 -1.3023  1.7049  1.5137
 7905SOL    HW224686   7.258   5.625   0.716 -1.5500 -0.5827 -1.9746
 7906SOL     OW24687   5.137   3.521   0.119  0.2233 -0.3260  0.2475
 7906SOL    HW124688   5.187   3.529   0.038 -0.8126 -0.1105 -0.3918
 7906SOL    HW224689   5.136   3.610   0.154 -0.4243 -0.1538 -0.1886
 7907SOL     OW24690   0.494   2.238   4.456  0.0901 -0.0473  0.5507
 7907SOL    HW124691   0.473   2.149   4.427  0.8848 -0.1215  0.1998
 7907SOL    HW224692   0.440   2.250   4.534  0.3198 -1.0063  0.8711
 7908SOL     OW24693   3.505   1.522   1.104  0.2465 -0.0821 -0.4655
 7908SOL    HW124694   3.555   1.440   1.109  0.6180  0.1699 -0.0106
 7908SOL    HW224695   3.435   1.512   1.169  1.7429  0.9276  1.4126
 7909SOL     OW24696   1.573   0.870   4.623 -0.7209  0.2178 -0.1354
 7909SOL    HW124697   1.506   0.813   4.661 -0.0196 -0.8043 -0.3670
 7909SOL    HW224698   1.542   0.888   4.534  0.0647 -1.6533 -0.8487
 7910SOL     OW24699   0.066   1.475   6.741  0.4077 -0.6076  0.0960
 7910SOL    HW124700  -0.025   1.497   6.725  0.9938  1.0936 -1.2867
 7910SOL    HW224701   0.084   1.510   6.829 -0.4157 -1.5883  0.6775
 7911SOL     OW24702   4.185   2.802   3.111 -0.0703 -0.2968 -0.0419
 7911SOL    HW124703   4.221   2.853   3.038  1.6422 -0.9613  0.2884
 7911SOL    HW224704   4.098   2.777   3.081  0.0392  0.6572 -1.2643
 7912SOL     OW24705   6.923   0.808   6.536 -0.0278 -0.3256  0.1192
 7912SOL    HW124706   7.005   0.768   6.565  0.6725  0.5518 -0.6114
 7912SOL    HW224707   6.901   0.871   6.604  0.1140 -0.2879  0.1301
 7913SOL     OW24708   6.971   4.473   0.326 -0.3381  0.7666  0.1871
 7913SOL    HW124709   6.998   4.479   0.235 -2.9025  2.7727 -0.5576
 7913SOL    HW224710   7.032   4.410   0.365  2.3809  1.6753 -2.2662
 7914SOL     OW24711   0.474   4.006   5.161 -0.4967  0.3007  0.3210
 7914SOL    HW124712   0.520   3.934   5.117  1.2387  1.3651  0.2631
 7914SOL    HW224713   0.456   4.068   5.091  0.9430  1.3335  0.8131
 7915SOL     OW24714   0.750   3.619   2.462 -0.3211 -0.2010  0.1778
 7915SOL    HW124715   0.706   3.693   2.503 -1.6886 -0.5815 -0.5520
 7915SOL    HW224716   0.749   3.550   2.529 -2.1190 -0.6651 -0.2916
 7916SOL     OW24717   5.826   5.447   1.659  0.0883  0.0591 -0.3246
 7916SOL    HW124718   5.878   5.522   1.627 -0.2635 -0.3443 -1.9273
 7916SOL    HW224719   5.887   5.373   1.655  0.5661  0.2861  1.6676
 7917SOL     OW24720   4.262   2.546   2.710  0.1884 -0.3810  0.0247
 7917SOL    HW124721   4.194   2.550   2.777 -0.6797 -0.0963 -0.8561
 7917SOL    HW224722   4.273   2.636   2.680  2.1168 -0.1487  1.2637
 7918SOL     OW24723   4.044   2.312   0.190  0.4080 -0.2590 -0.0987
 7918SOL    HW124724   4.111   2.374   0.217 -0.3944  0.2596  0.7918
 7918SOL    HW224725   3.983   2.364   0.138  0.2700 -0.5344 -0.2137
 7919SOL     OW24726   3.138   6.179   0.823  0.0053 -0.3624 -0.2559
 7919SOL    HW124727   3.051   6.142   0.805  0.4770 -1.5151 -0.2699
 7919SOL    HW224728   3.158   6.232   0.747 -0.7122 -0.0338 -0.2232
 7920SOL     OW24729   4.691   3.325   6.678  0.2403 -0.0307 -0.3952
 7920SOL    HW124730   4.747   3.278   6.616 -0.1275  0.9918 -1.5373
 7920SOL    HW224731   4.602   3.303   6.652  0.0505  1.6365 -1.2525
 7921SOL     OW24732   6.189   7.287   1.588  0.2932 -0.1726  0.1489
 7921SOL    HW124733   6.267   7.245   1.626  0.1890  0.2930  0.8936
 7921SOL    HW224734   6.125   7.287   1.658  0.3217  1.3226  0.2082
 7922SOL     OW24735   2.767   3.366   5.262 -0.7868 -0.4814  0.2123
 7922SOL    HW124736   2.827   3.331   5.328 -0.0521  0.7494  0.2241
 7922SOL    HW224737   2.808   3.344   5.178 -0.0521  0.7813  0.2268
 7923SOL     OW24738   0.707   3.388   0.386 -0.3375  0.5752 -0.4810
 7923SOL    HW124739   0.793   3.381   0.428 -0.9477 -0.1969  0.7249
 7923SOL    HW224740   0.679   3.478   0.403  0.8556  1.3274 -2.2315
 7924SOL     OW24741   6.517   2.872   5.830  0.0032 -0.3405 -0.2523
 7924SOL    HW124742   6.454   2.944   5.836 -0.4863 -0.6229 -1.6807
 7924SOL    HW224743   6.581   2.891   5.899 -0.8364  0.7395  0.2693
 7925SOL     OW24744   5.520   0.320   7.129 -0.8615  0.0732 -0.9993
 7925SOL    HW124745   5.531   0.249   7.193  0.6180  1.4415  0.3601
 7925SOL    HW224746   5.583   0.299   7.060  0.4568  0.6206 -0.0168
 7926SOL     OW24747   5.731   5.552   3.614 -0.1080  0.3705 -0.3428
 7926SOL    HW124748   5.648   5.596   3.635  0.1200  1.1181 -0.9444
 7926SOL    HW224749   5.746   5.492   3.687 -0.3310  1.4406  0.6195
 7927SOL     OW24750   1.429   4.037   3.254  0.3603 -0.2483 -0.1037
 7927SOL    HW124751   1.408   3.981   3.328  0.4616 -0.0741  0.0592
 7927SOL    HW224752   1.438   3.978   3.180 -0.5973 -0.3377 -0.1574
 7928SOL     OW24753   4.543   4.646   4.335  0.1061 -0.2813 -0.5307
 7928SOL    HW124754   4.508   4.579   4.277  0.8579 -0.0543 -1.2695
 7928SOL    HW224755   4.538   4.607   4.423 -1.9776 -0.2384 -0.5872
 7929SOL     OW24756   3.873   6.870   3.767  0.2352 -0.3992 -0.2596
 7929SOL    HW124757   3.886   6.951   3.816 -0.1870  0.0048 -0.8016
 7929SOL    HW224758   3.781   6.872   3.742  0.5055 -0.4669 -1.3012
 7930SOL     OW24759   3.002   1.902   5.177  0.0491 -0.2562  0.2400
 7930SOL    HW124760   2.991   1.810   5.202  0.6360 -0.7156 -1.0743
 7930SOL    HW224761   2.985   1.903   5.083 -0.8411  1.1634  0.3918
 7931SOL     OW24762   1.609   4.536   5.431 -0.1264  0.3033  0.5931
 7931SOL    HW124763   1.561   4.455   5.450 -0.2316  0.6262  1.7149
 7931SOL    HW224764   1.546   4.591   5.385 -0.3829  0.1559  0.7642
 7932SOL     OW24765   6.131   0.121   4.351  0.0082  0.2718  0.5615
 7932SOL    HW124766   6.203   0.140   4.412 -0.6114 -0.0357  1.4096
 7932SOL    HW224767   6.149   0.032   4.320  0.6127  0.6253 -0.1327
 7933SOL     OW24768   5.567   3.516   3.863  0.4467 -0.5196 -0.8697
 7933SOL    HW124769   5.642   3.576   3.860  0.0275  0.3927  2.3072
 7933SOL    HW224770   5.606   3.430   3.884  0.6909 -0.0523  0.7564
 7934SOL     OW24771   1.670   2.429   4.431 -0.0697  0.0119  0.2391
 7934SOL    HW124772   1.617   2.491   4.480  0.2187 -0.2892  0.9467
 7934SOL    HW224773   1.724   2.483   4.373  1.2276  0.5491  1.8726
 7935SOL     OW24774   2.161   0.694   5.160 -0.1789  0.5534 -0.3974
 7935SOL    HW124775   2.210   0.629   5.210  0.8887  0.8635 -1.0177
 7935SOL    HW224776   2.225   0.732   5.100 -1.3794  0.3449 -1.8671
 7936SOL     OW24777   7.231   7.000   6.291 -0.3694 -0.0184  0.4272
 7936SOL    HW124778   7.317   6.968   6.317  0.0848  0.0303 -0.9180
 7936SOL    HW224779   7.243   7.094   6.276 -0.6410 -0.0165  0.2036
 7937SOL     OW24780   2.958   6.297   1.152 -0.2293  0.4433  0.3152
 7937SOL    HW124781   3.031   6.352   1.123 -1.5268  2.0959  0.0254
 7937SOL    HW224782   2.916   6.268   1.071 -0.2406 -0.0018  0.4814
 7938SOL     OW24783   5.681   0.855   5.969 -0.2068  0.1488  0.7106
 7938SOL    HW124784   5.657   0.947   5.985  2.9058  1.0905  0.5432
 7938SOL    HW224785   5.742   0.859   5.896  3.7786 -1.3968  3.6430
 7939SOL     OW24786   7.060   1.524   4.306 -0.3443 -0.0258 -0.0221
 7939SOL    HW124787   7.013   1.597   4.346 -2.2732  0.3324 -2.6618
 7939SOL    HW224788   7.136   1.565   4.263  1.0278 -0.2477  2.0705
 7940SOL     OW24789   6.713   4.840   2.764  0.5661 -0.4135 -0.0398
 7940SOL    HW124790   6.651   4.824   2.834 -0.6768  0.8408 -0.8085
 7940SOL    HW224791   6.731   4.934   2.769 -0.4662 -0.0582 -2.0971
 7941SOL     OW24792   3.878   4.181   3.954  0.6327 -0.0043  0.2329
 7941SOL    HW124793   3.941   4.183   3.882 -0.7569  1.0457 -1.0028
 7941SOL    HW224794   3.811   4.119   3.925 -0.4001  1.1033  0.2074
 7942SOL     OW24795   2.522   7.067   5.028  0.0401 -0.2854  0.2447
 7942SOL    HW124796   2.559   7.152   5.051  0.5962 -0.7629  1.1981
 7942SOL    HW224797   2.458   7.086   4.959 -1.2069  1.1309  1.7247
 7943SOL     OW24798   0.366   6.475   5.815 -0.3065 -0.0127 -0.0202
 7943SOL    HW124799   0.440   6.471   5.754 -0.0296 -0.3075  0.3343
 7943SOL    HW224800   0.400   6.442   5.898 -1.0342 -0.9013 -0.0548
 7944SOL     OW24801   5.136   7.042   5.304  0.2838 -0.1014  0.1824
 7944SOL    HW124802   5.206   6.978   5.318  0.3328  0.3827  2.4735
 7944SOL    HW224803   5.070   7.020   5.369 -0.7709  0.7535 -0.5594
 7945SOL     OW24804   0.285   4.237   3.572 -0.2930 -0.0515  0.0961
 7945SOL    HW124805   0.232   4.308   3.535  1.5058  1.0638 -0.4737
 7945SOL    HW224806   0.374   4.256   3.543  0.6551 -1.0980  2.1119
 7946SOL     OW24807   0.159   4.201   6.508 -0.1274 -0.0366  0.2043
 7946SOL    HW124808   0.220   4.140   6.466 -0.9946  0.2068 -1.5104
 7946SOL    HW224809   0.101   4.145   6.559 -0.4552 -0.5991 -0.7553
 7947SOL     OW24810   5.499   2.421   4.058  1.2189 -0.2457 -0.1232
 7947SOL    HW124811   5.569   2.419   4.123  0.5073 -0.7102  0.6497
 7947SOL    HW224812   5.432   2.477   4.096  0.1229 -1.7600  0.2845
 7948SOL     OW24813   5.562   2.373   0.862  0.0562 -0.0330 -0.1856
 7948SOL    HW124814   5.540   2.302   0.923  0.8548 -0.8992 -0.8619
 7948SOL    HW224815   5.553   2.333   0.775  0.1643  0.8107 -0.5935
 7949SOL     OW24816   2.991   5.802   4.567 -0.3510 -0.1600  0.1286
 7949SOL    HW124817   2.967   5.763   4.482 -0.9397  0.2321  0.1140
 7949SOL    HW224818   3.038   5.882   4.543 -1.8030  0.7340  0.1627
 7950SOL     OW24819   2.472   3.063   5.170 -0.2011 -0.1935  0.5789
 7950SOL    HW124820   2.458   2.990   5.230  0.3885 -0.6737  0.1553
 7950SOL    HW224821   2.552   3.039   5.122  0.6946  1.2759  1.2579
 7951SOL     OW24822   1.221   5.067   4.350 -0.3795  0.0285 -0.3546
 7951SOL    HW124823   1.266   5.146   4.379  0.1701  0.0548 -1.2521
 7951SOL    HW224824   1.285   5.021   4.296 -0.9693 -0.6255 -0.5085
 7952SOL     OW24825   0.849   3.586   5.624 -0.0923 -0.5338  0.3987
 7952SOL    HW124826   0.851   3.493   5.599 -3.8545 -0.7479  0.2925
 7952SOL    HW224827   0.892   3.631   5.551  2.6250 -2.1439  0.8572
 7953SOL     OW24828   0.593   7.212   5.941 -0.3980 -0.1478  0.6230
 7953SOL    HW124829   0.537   7.279   5.979 -0.3383  1.5955 -2.0780
 7953SOL    HW224830   0.679   7.254   5.935 -0.0228 -0.9653  0.1482
 7954SOL     OW24831   4.113   3.887   6.961 -0.4792 -0.2864  0.6748
 7954SOL    HW124832   4.174   3.821   6.994  0.8034  0.4838 -0.0994
 7954SOL    HW224833   4.028   3.843   6.963  0.2461 -1.7561  0.7712
 7955SOL     OW24834   6.109   1.406   3.586 -0.3622  0.1358 -0.3342
 7955SOL    HW124835   6.029   1.454   3.564 -0.4264 -0.8278 -2.4375
 7955SOL    HW224836   6.084   1.351   3.660 -0.8391  1.8148  0.8030
 7956SOL     OW24837   4.071   4.416   6.915  0.0777  0.0848 -0.0316
 7956SOL    HW124838   4.129   4.491   6.928  1.8645 -0.9504 -1.5562
 7956SOL    HW224839   4.054   4.383   7.003  0.6046  1.2867  0.5488
 7957SOL     OW24840   4.232   7.341   1.591  0.0711  0.2359  0.3245
 7957SOL    HW124841   4.142   7.355   1.620  0.1333 -1.6294  1.5525
 7957SOL    HW224842   4.224   7.304   1.503 -0.2329  2.2058 -0.5402
 7958SOL     OW24843   0.583   2.936   6.418  0.6158 -0.5559  0.4905
 7958SOL    HW124844   0.507   2.977   6.460  0.4536 -0.2768 -0.0683
 7958SOL    HW224845   0.624   3.007   6.369  0.6834 -0.9248  0.0128
 7959SOL     OW24846   3.911   0.854   2.581 -0.1944 -0.0381 -0.4729
 7959SOL    HW124847   3.930   0.902   2.661 -1.4646 -0.7684  0.2972
 7959SOL    HW224848   3.894   0.921   2.516 -2.6616  0.6256  0.7550
 7960SOL     OW24849   6.549   4.923   0.123  0.7103  0.5870  0.3388
 7960SOL    HW124850   6.489   4.883   0.186 -0.5003  0.0597 -1.0746
 7960SOL    HW224851   6.605   4.850   0.095  0.6337  0.6047  0.1384
 7961SOL     OW24852   3.259   0.969   2.412  0.1742 -0.5863  0.1220
 7961SOL    HW124853   3.222   1.020   2.340 -0.2815  0.3833  1.0075
 7961SOL    HW224854   3.287   1.035   2.476 -0.4701 -1.4208  1.3221
 7962SOL     OW24855   4.142   4.464   1.207  0.2585  0.0921  0.1462
 7962SOL    HW124856   4.187   4.548   1.212 -0.7442  0.6258  0.5689
 7962SOL    HW224857   4.159   4.422   1.292  1.4649 -0.5166 -0.3844
 7963SOL     OW24858   6.713   0.673   6.390  0.3285 -0.4363 -0.4552
 7963SOL    HW124859   6.791   0.720   6.421 -0.5865 -0.0695  1.4244
 7963SOL    HW224860   6.721   0.586   6.429 -0.7195 -0.0462  0.6952
 7964SOL     OW24861   3.440   3.642   5.891 -0.4502 -0.7557 -0.2312
 7964SOL    HW124862   3.519   3.671   5.846 -0.9385 -0.6706 -1.0593
 7964SOL    HW224863   3.437   3.547   5.875 -0.5178 -0.7566 -0.2135
 7965SOL     OW24864   3.906   4.142   4.259 -0.0361  0.5291  0.1076
 7965SOL    HW124865   3.907   4.169   4.167  0.3254 -0.4120 -0.1724
 7965SOL    HW224866   3.998   4.126   4.281  0.2513  3.3494  1.4473
 7966SOL     OW24867   5.705   1.679   6.427  0.4357 -0.1728 -0.8717
 7966SOL    HW124868   5.753   1.635   6.357 -0.4736 -0.4108 -1.3627
 7966SOL    HW224869   5.771   1.697   6.493  1.0677 -1.1652 -1.2023
 7967SOL     OW24870   6.579   7.307   0.818 -0.1991 -0.2588 -0.2370
 7967SOL    HW124871   6.599   7.224   0.775 -1.6669  0.2276 -2.0090
 7967SOL    HW224872   6.608   7.374   0.756 -0.1700  0.5277  0.6070
 7968SOL     OW24873   7.171   1.645   0.360 -0.5105 -0.5320 -0.6285
 7968SOL    HW124874   7.093   1.653   0.415 -0.9006 -1.7268 -0.9902
 7968SOL    HW224875   7.218   1.728   0.373 -1.7674  0.1452 -0.3199
 7969SOL     OW24876   0.624   2.909   4.012 -0.4047 -0.4941 -0.0341
 7969SOL    HW124877   0.546   2.902   3.957 -1.3753 -1.1006  1.3644
 7969SOL    HW224878   0.605   2.854   4.088 -0.0834  1.9650  1.9907
 7970SOL     OW24879   0.380   1.393   2.682 -0.6568 -0.7602  0.0388
 7970SOL    HW124880   0.424   1.321   2.638  0.1931 -0.2766  0.0812
 7970SOL    HW224881   0.444   1.426   2.745 -0.8346  0.3717 -0.3485
 7971SOL     OW24882   6.560   3.672   2.058  0.2427  0.3194 -0.5103
 7971SOL    HW124883   6.552   3.616   1.982 -1.0705  0.6098 -0.6217
 7971SOL    HW224884   6.528   3.618   2.131 -1.9100  1.1410 -0.7600
 7972SOL     OW24885   5.917   1.285   5.824 -0.4955  0.3187 -0.4120
 7972SOL    HW124886   5.974   1.208   5.823 -1.1306 -0.1808  0.3071
 7972SOL    HW224887   5.977   1.359   5.832  0.0358 -0.2507  1.3980
 7973SOL     OW24888   7.183   0.297   5.110 -0.2983  0.0036 -0.2198
 7973SOL    HW124889   7.154   0.239   5.040 -0.2104 -0.1016 -0.1703
 7973SOL    HW224890   7.106   0.349   5.132 -0.8336 -1.1585  0.7924
 7974SOL     OW24891   1.739   2.252   1.782  0.2087 -0.1801 -0.2911
 7974SOL    HW124892   1.673   2.277   1.718 -0.8697  0.5995  1.0562
 7974SOL    HW224893   1.690   2.240   1.863  1.7714  1.0246  0.9140
 7975SOL     OW24894   2.560   2.329   7.031 -0.7961  0.0932 -0.3380
 7975SOL    HW124895   2.560   2.382   7.111 -0.4592 -0.9112  0.3487
 7975SOL    HW224896   2.563   2.393   6.960 -1.2111  1.0086  0.4458
 7976SOL     OW24897   5.202   1.180   0.732 -0.5534  0.0665 -0.3405
 7976SOL    HW124898   5.153   1.254   0.696 -0.4730  0.7910  0.9804
 7976SOL    HW224899   5.241   1.214   0.813  0.2052 -1.1712 -0.1632
 7977SOL     OW24900   0.898   4.525   6.668 -0.3336 -0.4076 -0.0158
 7977SOL    HW124901   0.957   4.458   6.633 -0.9070 -0.5873 -0.6765
 7977SOL    HW224902   0.951   4.575   6.729  0.2028 -1.2431  0.2120
 7978SOL     OW24903   6.950   4.721   2.225 -0.4818  0.1324 -0.3840
 7978SOL    HW124904   7.014   4.772   2.174 -0.3894 -0.4539 -0.8612
 7978SOL    HW224905   6.931   4.645   2.170  1.0278 -1.4987  1.2146
 7979SOL     OW24906   1.637   0.448   4.788 -0.1668 -0.7346 -0.1229
 7979SOL    HW124907   1.677   0.394   4.856 -0.8264 -1.3900 -0.2470
 7979SOL    HW224908   1.627   0.534   4.829 -1.8625 -1.4854  1.1145
 7980SOL     OW24909   5.562   5.704   2.977  0.3052  0.8811 -0.3634
 7980SOL    HW124910   5.588   5.752   2.898  1.1524  0.6691 -0.2199
 7980SOL    HW224911   5.541   5.616   2.945 -0.3676  1.0858 -0.4963
 7981SOL     OW24912   6.706   3.125   5.101 -0.0598  0.1107  0.1194
 7981SOL    HW124913   6.612   3.126   5.120 -0.0733  0.3788  0.0335
 7981SOL    HW224914   6.712   3.092   5.012 -0.0150 -0.8402  0.4584
 7982SOL     OW24915   5.270   4.663   5.353  0.3612  0.3785 -0.5736
 7982SOL    HW124916   5.297   4.724   5.422 -2.2614  1.6688 -0.5684
 7982SOL    HW224917   5.217   4.597   5.399 -0.1142  0.3691 -1.1210
 7983SOL     OW24918   1.881   7.271   6.804  0.4360  0.0980 -0.0281
 7983SOL    HW124919   1.902   7.318   6.885  2.3374  1.4283 -1.2022
 7983SOL    HW224920   1.796   7.230   6.821  0.9540  0.0115  2.7447
 7984SOL     OW24921   1.539   3.054   5.020  0.1943 -0.2920 -0.1311
 7984SOL    HW124922   1.574   3.046   4.931  0.0362  1.6557 -0.3997
 7984SOL    HW224923   1.459   3.001   5.018  1.9185 -3.1099 -0.0961
 7985SOL     OW24924   7.296   6.910   7.288 -0.3669 -0.1377 -0.5024
 7985SOL    HW124925   7.282   6.941   7.198 -1.5510  0.6905 -0.0662
 7985SOL    HW224926   7.221   6.944   7.337  0.2832 -0.5228  0.8225
 7986SOL     OW24927   6.737   1.674   2.923 -0.0048  0.4819 -0.0970
 7986SOL    HW124928   6.688   1.740   2.874  0.3248  1.0650  0.3407
 7986SOL    HW224929   6.673   1.606   2.943 -0.0903  0.1188 -1.5204
 7987SOL     OW24930   4.054   0.738   7.264  0.3147  0.5507  0.1382
 7987SOL    HW124931   4.079   0.646   7.271 -0.0570  0.3542 -0.9462
 7987SOL    HW224932   4.074   0.762   7.173  0.6347  1.6070  0.4746
 7988SOL     OW24933   5.969   4.053   3.022 -0.1354  0.3381 -0.1562
 7988SOL    HW124934   6.022   3.985   3.063  0.1591 -0.1930 -1.3714
 7988SOL    HW224935   6.031   4.121   2.999 -0.0832  0.0633 -0.8641
 7989SOL     OW24936   1.223   7.095   2.527  0.2981 -0.4009 -0.2529
 7989SOL    HW124937   1.208   7.002   2.547 -0.5476 -0.0577  0.8450
 7989SOL    HW224938   1.159   7.141   2.582  0.1506  0.7956 -1.3842
 7990SOL     OW24939   5.084   1.826   0.616  0.3218 -0.3726 -0.2985
 7990SOL    HW124940   4.995   1.816   0.651  0.9323 -1.5138  1.0308
 7990SOL    HW224941   5.086   1.914   0.579 -0.6636  0.5765  1.7717
 7991SOL     OW24942   7.062   0.177   7.006  0.6166 -0.3245 -0.3052
 7991SOL    HW124943   7.082   0.104   6.947  0.4348 -1.1860  0.6674
 7991SOL    HW224944   7.139   0.234   7.003  1.1307 -1.0168 -0.4057
 7992SOL     OW24945   6.032   2.007   3.439 -0.1972  0.1792 -0.0068
 7992SOL    HW124946   5.962   2.052   3.391 -0.2569  1.3087  1.0939
 7992SOL    HW224947   6.112   2.050   3.411  0.0859 -1.0490 -1.1882
 7993SOL     OW24948   4.999   0.639   1.937  0.4575 -0.2841 -0.1483
 7993SOL    HW124949   4.905   0.646   1.952  0.4232 -0.2700 -0.3678
 7993SOL    HW224950   5.010   0.553   1.896  0.5198 -0.2116 -0.2840
 7994SOL     OW24951   1.138   1.105   4.324 -0.0299 -0.4576 -0.5469
 7994SOL    HW124952   1.052   1.124   4.286 -0.1770  0.0245  0.0271
 7994SOL    HW224953   1.135   1.142   4.412  0.6500 -0.7318 -0.4008
 7995SOL     OW24954   2.209   5.172   3.389 -0.2154 -0.2113 -0.0302
 7995SOL    HW124955   2.254   5.254   3.368  0.0551 -0.1356  0.8097
 7995SOL    HW224956   2.277   5.115   3.424 -0.6367 -0.3391  0.6006
 7996SOL     OW24957   0.007   0.910   2.481  0.3363  0.4568 -0.1500
 7996SOL    HW124958  -0.079   0.953   2.482  0.9564  1.9584 -2.7372
 7996SOL    HW224959  -0.008   0.828   2.435  0.0589 -0.0046  0.7205
 7997SOL     OW24960   6.335   1.360   4.963 -0.2222 -0.3790  0.1256
 7997SOL    HW124961   6.261   1.339   4.906 -1.0398 -1.3718  1.4956
 7997SOL    HW224962   6.411   1.326   4.916 -0.6492  0.3024 -1.1186
 7998SOL     OW24963   0.717   6.419   4.608  0.6473 -0.1515  0.5452
 7998SOL    HW124964   0.656   6.486   4.638 -0.4558  0.5758 -2.8937
 7998SOL    HW224965   0.749   6.378   4.688 -1.4276  2.0073  2.6319
 7999SOL     OW24966   6.359   4.755   4.305 -0.2064  0.1959 -0.0052
 7999SOL    HW124967   6.437   4.759   4.360 -0.9290  0.0649  1.0541
 7999SOL    HW224968   6.348   4.662   4.285  0.3085  0.2915 -0.7485
 8000SOL     OW24969   2.027   2.283   2.396 -0.1462 -0.8987  0.4371
 8000SOL    HW124970   2.031   2.195   2.435 -0.9455 -0.8828  0.5799
 8000SOL    HW224971   2.100   2.285   2.335 -1.6215 -2.6582 -1.5477
 8001SOL     OW24972   2.722   5.012   6.116 -0.3731 -0.0018  0.1072
 8001SOL    HW124973   2.716   5.104   6.142 -1.5119  0.9826 -3.1410
 8001SOL    HW224974   2.791   5.011   6.050 -1.0587 -1.2852 -0.6155
 8002SOL     OW24975   6.447   1.191   0.823  0.5086 -0.2485 -0.2353
 8002SOL    HW124976   6.481   1.123   0.764 -0.6576 -1.4021  0.3713
 8002SOL    HW224977   6.353   1.193   0.806  0.2640 -0.0792  1.0592
 8003SOL     OW24978   3.752   0.422   2.844  0.4245  0.5313 -0.0993
 8003SOL    HW124979   3.772   0.513   2.866  1.1650  0.1939  0.6911
 8003SOL    HW224980   3.729   0.424   2.751  2.2172  1.2646 -0.5552
 8004SOL     OW24981   6.885   5.255   1.045  0.1980 -0.0741  0.1460
 8004SOL    HW124982   6.801   5.297   1.061  0.5001  0.4567  0.3703
 8004SOL    HW224983   6.944   5.327   1.020  0.9073 -0.2431  1.2559
 8005SOL     OW24984   5.443   5.685   4.602 -0.4412 -0.0080  0.0723
 8005SOL    HW124985   5.435   5.609   4.661  2.0531 -0.3594  0.0576
 8005SOL    HW224986   5.398   5.756   4.648  1.6037 -0.2175  2.5697
 8006SOL     OW24987   2.194   0.663   6.453 -0.5641  0.1869 -0.5045
 8006SOL    HW124988   2.172   0.590   6.512  1.0673  0.5086  0.5765
 8006SOL    HW224989   2.155   0.740   6.495  0.2902  0.3606  0.0058
 8007SOL     OW24990   4.121   3.962   0.093  0.6025 -0.6305  0.3487
 8007SOL    HW124991   4.179   3.978   0.018  0.0460 -0.3388 -0.0266
 8007SOL    HW224992   4.158   4.015   0.164 -0.8925  2.0327 -0.7164
 8008SOL     OW24993   0.790   4.245   6.840 -0.2052  0.4807 -0.4079
 8008SOL    HW124994   0.745   4.206   6.765  1.7788 -1.2022 -0.8119
 8008SOL    HW224995   0.734   4.226   6.915 -0.9892 -0.0424 -1.1178
 8009SOL     OW24996   4.615   4.195   3.209  0.0717  0.3843 -0.0984
 8009SOL    HW124997   4.611   4.122   3.271 -1.7405  2.5178  2.5372
 8009SOL    HW224998   4.533   4.190   3.161 -0.8024  1.5161  1.2125
 8010SOL     OW24999   1.879   4.278   7.012 -0.3308 -0.2110 -0.1224
 8010SOL    HW125000   1.871   4.347   6.946  1.4495 -1.4730 -1.7595
 8010SOL    HW225001   1.917   4.204   6.965 -2.2440 -2.3950  1.5251
 8011SOL     OW25002   1.228   1.327   5.448 -0.1810 -0.1722 -0.1526
 8011SOL    HW125003   1.303   1.359   5.398  0.8520  0.1449  1.5095
 8011SOL    HW225004   1.192   1.406   5.488  0.5228 -0.6654  1.5369
 8012SOL     OW25005   1.394   0.552   5.914  0.1512 -0.1736 -0.2392
 8012SOL    HW125006   1.464   0.617   5.905 -0.1908  0.1440 -0.6488
 8012SOL    HW225007   1.337   0.586   5.982 -1.1707  1.0333 -1.8664
 8013SOL     OW25008   1.476   7.379   0.980 -0.1689 -0.1128 -0.3650
 8013SOL    HW125009   1.403   7.400   1.039 -0.7658  0.9800 -1.4552
 8013SOL    HW225010   1.514   7.463   0.958  1.8346 -0.6869  0.6128
 8014SOL     OW25011   4.743   6.637   5.006 -0.3000  0.6898  0.6743
 8014SOL    HW125012   4.749   6.663   5.098  0.2124 -1.4406  1.3087
 8014SOL    HW225013   4.834   6.633   4.976 -0.3844  0.1415  0.4773
 8015SOL     OW25014   1.282   2.606   2.437  0.1098 -0.8002  0.4007
 8015SOL    HW125015   1.215   2.597   2.504  0.5777 -1.7786  0.7620
 8015SOL    HW225016   1.364   2.611   2.486  0.2669  1.2329  0.0079
 8016SOL     OW25017   4.762   3.830   2.601 -0.2200 -0.0154  0.4513
 8016SOL    HW125018   4.824   3.859   2.534  0.2316  1.0453  1.2999
 8016SOL    HW225019   4.771   3.895   2.672 -1.7829 -0.2458  0.8941
 8017SOL     OW25020   5.549   2.727   4.948 -0.1328  0.1437  0.3223
 8017SOL    HW125021   5.492   2.650   4.938 -0.5124  0.7203 -3.2297
 8017SOL    HW225022   5.626   2.693   4.995 -2.3626 -1.1254  3.4014
 8018SOL     OW25023   1.017   0.963   3.923 -0.6158 -0.1119 -0.4577
 8018SOL    HW125024   0.981   0.875   3.911 -0.6862 -0.2137  0.4007
 8018SOL    HW225025   1.073   0.976   3.847 -0.1960 -1.1126 -0.3417
 8019SOL     OW25026   1.694   3.906   6.986 -0.0290  0.2072  0.0777
 8019SOL    HW125027   1.682   3.931   7.077 -2.3738  2.8885 -0.8253
 8019SOL    HW225028   1.734   3.983   6.945 -0.5144 -0.3243 -1.4672
 8020SOL     OW25029   2.512   4.673   0.486 -0.3058 -0.8583  0.0205
 8020SOL    HW125030   2.569   4.722   0.545  1.2337 -0.5076 -1.6899
 8020SOL    HW225031   2.560   4.668   0.404 -2.4535 -1.1851 -1.2987
 8021SOL     OW25032   0.860   1.433   5.486 -0.2998  0.1703 -0.2898
 8021SOL    HW125033   0.880   1.340   5.473 -2.3512 -0.5794  1.3339
 8021SOL    HW225034   0.775   1.433   5.531  0.0930  2.8113  0.5998
 8022SOL     OW25035   5.181   4.770   3.718 -0.3613 -0.7646  0.0239
 8022SOL    HW125036   5.086   4.782   3.716 -0.0876  2.1146 -2.0155
 8022SOL    HW225037   5.204   4.745   3.629  1.0024  1.9871 -0.5226
 8023SOL     OW25038   3.272   7.225   4.292 -0.2942 -0.6507  0.6842
 8023SOL    HW125039   3.235   7.268   4.369 -0.5193 -0.9838  0.7635
 8023SOL    HW225040   3.313   7.146   4.326 -1.0715 -1.2029  0.3668
 8024SOL     OW25041   4.269   0.323   0.220  0.6143 -0.4159  0.0350
 8024SOL    HW125042   4.323   0.386   0.269  0.4859 -0.2361 -0.0514
 8024SOL    HW225043   4.206   0.291   0.285 -0.7539  1.1887 -0.4067
 8025SOL     OW25044   1.757   5.784   6.048  0.5404  0.4118  0.5874
 8025SOL    HW125045   1.690   5.740   6.101  1.0383  1.0680  1.7921
 8025SOL    HW225046   1.716   5.797   5.963  0.1799 -1.8989  0.3271
 8026SOL     OW25047   0.311   2.935   3.888 -0.0927 -0.1830 -0.0662
 8026SOL    HW125048   0.259   3.014   3.908 -0.7054 -0.8019  0.8910
 8026SOL    HW225049   0.249   2.863   3.901  0.9689 -0.9329  0.9384
 8027SOL     OW25050   5.991   2.010   1.699  0.1398 -0.1806 -0.0270
 8027SOL    HW125051   6.052   2.084   1.697 -2.0383  1.8314  1.5449
 8027SOL    HW225052   6.003   1.966   1.615  1.6242  1.8942 -0.9910
 8028SOL     OW25053   3.646   1.685   6.164  0.0186  0.1755  0.3197
 8028SOL    HW125054   3.684   1.684   6.076  0.4341 -1.6673  0.4620
 8028SOL    HW225055   3.719   1.659   6.221 -1.2072 -3.0788  0.6424
 8029SOL     OW25056   0.959   1.629   2.405  0.2686 -0.0171  0.9292
 8029SOL    HW125057   1.015   1.588   2.340 -2.2125 -1.5471 -0.3730
 8029SOL    HW225058   1.020   1.677   2.462  2.9040 -1.9710 -0.0516
 8030SOL     OW25059   0.527   4.533   6.879  0.0402 -0.1881  0.2917
 8030SOL    HW125060   0.551   4.582   6.957 -0.6830 -1.0534  1.0752
 8030SOL    HW225061   0.452   4.580   6.844  0.1672  0.0143  0.2843
 8031SOL     OW25062   5.520   2.054   4.723  0.2521 -0.1101 -0.0345
 8031SOL    HW125063   5.480   1.979   4.680 -1.2785 -0.5525  2.0329
 8031SOL    HW225064   5.588   2.083   4.662  0.8652 -3.1158 -0.9378
 8032SOL     OW25065   6.975   2.525   1.934  0.1555 -0.5353 -0.1931
 8032SOL    HW125066   6.947   2.445   1.978 -0.4083 -0.1823  0.1005
 8032SOL    HW225067   6.899   2.583   1.939 -0.0381 -0.5965 -1.9037
 8033SOL     OW25068   4.100   3.229   0.246  0.4393 -0.0599 -0.1388
 8033SOL    HW125069   4.063   3.156   0.295  0.9150 -0.3010 -0.1339
 8033SOL    HW225070   4.122   3.294   0.313  1.1887 -0.4338 -0.0192
 8034SOL     OW25071   2.158   2.908   1.455  0.1300  1.1337  0.0315
 8034SOL    HW125072   2.098   2.955   1.397  0.2272 -0.7115 -1.6584
 8034SOL    HW225073   2.138   2.816   1.440  0.2508  0.5422  2.8898
 8035SOL     OW25074   3.573   0.513   5.185 -0.3518  0.8242 -0.0066
 8035SOL    HW125075   3.479   0.523   5.175 -0.8090 -2.4774 -0.1456
 8035SOL    HW225076   3.600   0.463   5.108  1.1860  0.1880  0.8970
 8036SOL     OW25077   0.182   1.640   3.910 -0.0656 -0.1783 -0.4150
 8036SOL    HW125078   0.159   1.598   3.827 -1.9431  0.1891 -0.1371
 8036SOL    HW225079   0.146   1.728   3.903  1.0429  0.3517  0.2425
 8037SOL     OW25080   5.797   3.802   0.751 -0.1916  0.1862 -0.0654
 8037SOL    HW125081   5.769   3.855   0.676 -0.2726 -0.2030 -0.3126
 8037SOL    HW225082   5.841   3.727   0.712 -1.5098 -0.7703  0.2094
 8038SOL     OW25083   2.872   5.940   0.559 -0.5064 -0.0165  0.4601
 8038SOL    HW125084   2.926   5.935   0.638  0.8817  0.1357 -0.4412
 8038SOL    HW225085   2.849   6.033   0.551  1.9054  0.5470 -0.8977
 8039SOL     OW25086   7.033   1.702   1.693 -0.3266  0.2437  0.0669
 8039SOL    HW125087   6.979   1.781   1.685  2.4786  2.1694 -1.6104
 8039SOL    HW225088   7.084   1.700   1.612  1.5227 -1.8971  1.1827
 8040SOL     OW25089   4.364   1.540   3.815 -0.2242  1.0194 -0.1491
 8040SOL    HW125090   4.352   1.534   3.720 -0.4435  2.8544 -0.2749
 8040SOL    HW225091   4.290   1.491   3.852  0.9639 -1.4905 -0.8551
 8041SOL     OW25092   7.134   5.523   0.471 -0.7064  0.0362 -0.1225
 8041SOL    HW125093   7.122   5.475   0.388 -1.1090  2.1324 -1.3573
 8041SOL    HW225094   7.131   5.455   0.538  2.3414 -2.1536 -1.9291
 8042SOL     OW25095   1.822   0.238   2.842 -0.3376  0.6561 -0.0093
 8042SOL    HW125096   1.749   0.224   2.782  0.1266 -1.0425 -0.2306
 8042SOL    HW225097   1.782   0.273   2.922 -1.2227  0.9509 -0.5776
 8043SOL     OW25098   5.055   4.470   4.977  0.0817 -0.3207 -0.1190
 8043SOL    HW125099   4.982   4.531   4.971  0.5483  0.1999 -0.7884
 8043SOL    HW225100   5.069   4.457   5.070 -0.3659  0.1907  0.0226
 8044SOL     OW25101   1.676   2.341   3.972  0.0735  0.1172  0.2539
 8044SOL    HW125102   1.660   2.298   3.888  0.5448  1.4209 -0.5162
 8044SOL    HW225103   1.661   2.271   4.037 -2.2395 -0.4165 -0.7586
 8045SOL     OW25104   0.890   0.174   6.693 -0.4470  0.1853 -0.1166
 8045SOL    HW125105   0.808   0.176   6.741 -0.2473  0.4942  0.2170
 8045SOL    HW225106   0.920   0.084   6.700 -0.7374  0.0813 -0.2056
 8046SOL     OW25107   1.771   1.310   6.865  0.0903 -0.1769 -0.0404
 8046SOL    HW125108   1.806   1.229   6.902  0.4825  0.0471  0.0837
 8046SOL    HW225109   1.696   1.282   6.813 -0.3669 -0.5188  0.7844
 8047SOL     OW25110   0.701   1.803   5.315  0.1911  0.9499 -0.3555
 8047SOL    HW125111   0.772   1.861   5.288  0.7331 -0.6692 -2.7063
 8047SOL    HW225112   0.727   1.716   5.284 -1.6118 -0.1901  1.0603
 8048SOL     OW25113   3.605   7.273   1.925  0.4338 -0.0623  0.3810
 8048SOL    HW125114   3.539   7.331   1.887  0.2868  1.0939  2.2650
 8048SOL    HW225115   3.687   7.299   1.882  0.2282  0.9785  0.5878
 8049SOL     OW25116   6.935   2.633   2.289 -0.1497 -0.9325  0.0493
 8049SOL    HW125117   6.854   2.597   2.253 -2.5193  0.7862  3.1719
 8049SOL    HW225118   6.917   2.726   2.300  1.4833 -0.8096  2.6016
 8050SOL     OW25119   5.979   1.304   4.154  0.0724  0.5917 -0.1029
 8050SOL    HW125120   5.929   1.236   4.200  2.0509 -2.0131 -1.5689
 8050SOL    HW225121   5.946   1.302   4.065  2.0195 -0.5035 -0.8581
 8051SOL     OW25122   1.592   1.749   0.119 -0.5881  0.0249  0.1564
 8051SOL    HW125123   1.584   1.844   0.124  1.9027  0.4481 -1.7526
 8051SOL    HW225124   1.524   1.721   0.058  0.3433  0.9767 -1.3713
 8052SOL     OW25125   5.596   0.663   0.035 -0.2941  0.7333  0.0277
 8052SOL    HW125126   5.581   0.752   0.068  0.6391  1.1281 -0.5839
 8052SOL    HW225127   5.536   0.655  -0.038 -0.3121  0.8990  0.0217
 8053SOL     OW25128   4.194   1.055   2.329  0.0423 -0.2148 -0.2132
 8053SOL    HW125129   4.139   1.015   2.262 -0.0708 -1.7856  0.7464
 8053SOL    HW225130   4.156   1.141   2.345 -1.1903 -0.6622 -0.6772
 8054SOL     OW25131   1.154   4.920   7.224  0.5256 -0.0037 -0.0757
 8054SOL    HW125132   1.086   4.854   7.236  0.0629  0.5741  0.5501
 8054SOL    HW225133   1.208   4.914   7.303 -0.6038  1.5923  0.8733
 8055SOL     OW25134   5.055   1.677   2.416 -0.2732 -0.2275  0.5487
 8055SOL    HW125135   4.968   1.675   2.456 -1.0355 -0.6205 -1.0501
 8055SOL    HW225136   5.059   1.761   2.370  0.1580 -0.2539  0.5348
 8056SOL     OW25137   5.067   6.258   1.130 -0.2055  0.2111 -0.3351
 8056SOL    HW125138   5.156   6.278   1.100 -0.0810 -0.6953 -0.5886
 8056SOL    HW225139   5.039   6.338   1.174  1.3180  0.0038  1.1196
 8057SOL     OW25140   0.270   4.803   3.959  0.2568 -0.3002 -0.1562
 8057SOL    HW125141   0.291   4.709   3.960  0.1878 -0.3221 -0.5377
 8057SOL    HW225142   0.261   4.826   4.051  0.9471 -0.5142 -0.0308
 8058SOL     OW25143   6.882   1.834   1.119  0.3744 -0.1556 -0.3051
 8058SOL    HW125144   6.846   1.907   1.070 -0.9420 -0.7202 -0.2242
 8058SOL    HW225145   6.917   1.874   1.199 -1.5549  0.2557  0.3782
 8059SOL     OW25146   5.626   5.893   6.410 -0.4278 -0.0653  0.0867
 8059SOL    HW125147   5.676   5.832   6.464 -0.2129 -0.9318 -1.0468
 8059SOL    HW225148   5.545   5.847   6.390 -0.2511 -0.0165 -0.8080
 8060SOL     OW25149   3.171   5.762   0.199 -0.1981  0.0186 -0.7345
 8060SOL    HW125150   3.232   5.695   0.230  0.7254  0.1755 -2.1013
 8060SOL    HW225151   3.103   5.766   0.266  0.3513 -1.4375 -0.0475
 8061SOL     OW25152   0.039   4.372   0.831 -0.1378 -0.3355 -1.0853
 8061SOL    HW125153   0.092   4.298   0.805  0.9489  0.2635 -0.6512
 8061SOL    HW225154   0.020   4.418   0.749  3.3341  1.5941 -0.9987
 8062SOL     OW25155   5.532   6.244   4.742  0.4736  0.2019 -0.5984
 8062SOL    HW125156   5.617   6.288   4.747  0.4896  0.0752  1.0906
 8062SOL    HW225157   5.497   6.250   4.832 -1.4190  0.4749 -1.3059
 8063SOL     OW25158   4.199   3.081   3.963 -0.4355  0.3279  0.6683
 8063SOL    HW125159   4.249   3.156   3.931 -1.9522  1.5375  0.9787
 8063SOL    HW225160   4.250   3.005   3.936  0.8665  1.4399 -0.1777
 8064SOL     OW25161   2.538   4.418   5.125 -0.2470 -0.6950  0.0057
 8064SOL    HW125162   2.609   4.438   5.186 -0.9623 -1.6096  1.1852
 8064SOL    HW225163   2.458   4.424   5.178 -0.9744 -0.6715 -1.0546
 8065SOL     OW25164   3.413   4.041   5.723 -0.4717 -0.2264  0.2117
 8065SOL    HW125165   3.494   4.038   5.673  0.3105 -4.6774  1.2993
 8065SOL    HW225166   3.440   4.072   5.810  0.1151 -1.5592  0.5302
 8066SOL     OW25167   7.366   5.302   3.298 -0.0297 -0.0792 -0.1437
 8066SOL    HW125168   7.310   5.269   3.228  1.1326 -0.4682 -0.9183
 8066SOL    HW225169   7.361   5.397   3.289 -2.3300  0.0052  1.2511
 8067SOL     OW25170   2.907   2.511   0.479  0.5210  0.1566 -0.2384
 8067SOL    HW125171   2.958   2.591   0.490  1.9135 -0.7502  0.3109
 8067SOL    HW225172   2.819   2.534   0.507  1.1195  1.2357  0.8620
 8068SOL     OW25173   3.787   4.437   0.640 -0.3371 -0.1181 -0.0190
 8068SOL    HW125174   3.854   4.377   0.608  1.2868  1.2831  0.5450
 8068SOL    HW225175   3.748   4.475   0.561  0.2121 -0.2625 -0.3648
 8069SOL     OW25176   5.766   5.098   3.612  0.3540 -0.1686  0.3108
 8069SOL    HW125177   5.778   5.068   3.522 -0.3361 -0.0916  0.1890
 8069SOL    HW225178   5.854   5.094   3.651  0.2383 -3.1657  0.5567
 8070SOL     OW25179   1.204   3.754   4.622  0.2847  0.3127 -0.1960
 8070SOL    HW125180   1.181   3.776   4.712  1.2968 -0.7725  0.3471
 8070SOL    HW225181   1.124   3.715   4.586 -0.7285  2.4079 -0.3939
 8071SOL     OW25182   1.191   5.969   4.905 -0.1758 -0.4014  0.5697
 8071SOL    HW125183   1.214   6.044   4.850  0.5800 -1.8489 -1.2397
 8071SOL    HW225184   1.273   5.943   4.946 -0.5995  0.2291  1.8629
 8072SOL     OW25185   3.352   4.722   0.069 -0.0283 -0.0536  0.2414
 8072SOL    HW125186   3.308   4.690   0.148 -0.1211  1.0840  0.6620
 8072SOL    HW225187   3.282   4.760   0.016  0.1965  0.2094  0.1323
 8073SOL     OW25188   3.502   6.385   5.418  0.1075  0.3047  0.0744
 8073SOL    HW125189   3.419   6.427   5.394  0.2772  0.3480 -0.4672
 8073SOL    HW225190   3.493   6.295   5.386 -0.8881 -0.6005  2.6350
 8074SOL     OW25191   0.457   2.419   0.438  0.5416 -0.3824  0.1447
 8074SOL    HW125192   0.472   2.509   0.465  1.3801 -0.3173 -0.4903
 8074SOL    HW225193   0.466   2.367   0.518 -0.1346  0.1029  0.5481
 8075SOL     OW25194   1.255   6.751   4.133  0.2037 -0.1622  0.8237
 8075SOL    HW125195   1.218   6.745   4.221 -1.6435  0.2011  0.1089
 8075SOL    HW225196   1.247   6.663   4.097  0.3237 -0.1497  0.7659
 8076SOL     OW25197   6.873   1.919   1.607 -0.4550  0.0343 -0.1243
 8076SOL    HW125198   6.935   1.947   1.540  1.5540 -3.4983  0.0167
 8076SOL    HW225199   6.885   1.981   1.679 -1.0373  2.5548 -2.0368
 8077SOL     OW25200   2.728   1.287   1.707 -0.7162 -0.4585  0.0834
 8077SOL    HW125201   2.644   1.306   1.664 -0.4579 -2.1637 -1.3055
 8077SOL    HW225202   2.709   1.213   1.765 -0.4991  0.2193  1.0456
 8078SOL     OW25203   4.529   3.792   6.490 -0.4298  0.4131 -0.2841
 8078SOL    HW125204   4.620   3.777   6.516 -0.0829 -0.2516 -1.7543
 8078SOL    HW225205   4.493   3.704   6.478 -0.9420  0.6785 -0.7259
 8079SOL     OW25206   6.474   3.787   1.311  0.1337  0.5008 -0.5154
 8079SOL    HW125207   6.407   3.797   1.243 -0.0067  0.7417 -0.3422
 8079SOL    HW225208   6.446   3.845   1.381  1.1979  1.5790 -0.9610
 8080SOL     OW25209   0.026   2.151   7.318 -0.1411  0.1030  0.5525
 8080SOL    HW125210   0.055   2.062   7.338 -0.8140 -0.5708 -1.2945
 8080SOL    HW225211   0.086   2.181   7.249  0.3281  1.2685  1.4224
 8081SOL     OW25212   0.493   1.606   0.701  0.0110 -0.0577 -0.1532
 8081SOL    HW125213   0.498   1.578   0.792 -1.2185  1.0959  0.2950
 8081SOL    HW225214   0.582   1.596   0.668  0.4128 -0.7504  1.0881
 8082SOL     OW25215   5.296   7.068   6.595  0.4962  0.7050  0.1508
 8082SOL    HW125216   5.374   7.029   6.634  1.2954  2.5519  0.4779
 8082SOL    HW225217   5.266   7.002   6.532  1.4295 -0.6751  1.0944
 8083SOL     OW25218   7.215   0.870   2.131 -0.5493 -0.2692 -0.3149
 8083SOL    HW125219   7.183   0.875   2.221 -1.0331  1.8143 -0.5517
 8083SOL    HW225220   7.175   0.790   2.096  0.0065 -1.3744  1.4065
 8084SOL     OW25221   4.098   5.774   4.293  0.5361  0.4052  0.5003
 8084SOL    HW125222   4.126   5.705   4.233  1.1959 -1.0470  2.3962
 8084SOL    HW225223   4.178   5.798   4.340  0.1723  2.0162  0.3491
 8085SOL     OW25224   0.761   2.292   7.291  0.0315  0.5888 -0.2904
 8085SOL    HW125225   0.764   2.204   7.329 -0.6498  0.7184  0.0847
 8085SOL    HW225226   0.765   2.351   7.366 -0.6619  0.8587 -0.4595
 8086SOL     OW25227   0.093   7.054   3.868  0.0149  0.0075  0.0507
 8086SOL    HW125228   0.032   7.032   3.797  0.8413  1.4721 -1.1623
 8086SOL    HW225229   0.046   7.029   3.948 -1.2637 -0.9562 -0.9491
 8087SOL     OW25230   2.706   6.520   1.921 -0.1470  0.1605  0.2655
 8087SOL    HW125231   2.683   6.560   2.005  0.8388 -0.0213  0.6315
 8087SOL    HW225232   2.685   6.588   1.856  0.9780  1.0917  0.8313
 8088SOL     OW25233   5.636   6.603   1.522  0.5096 -0.0774 -0.0698
 8088SOL    HW125234   5.640   6.698   1.536  0.2584  0.1694 -1.5943
 8088SOL    HW225235   5.545   6.580   1.542  0.4247  0.0906 -0.2677
 8089SOL     OW25236   0.479   2.707   6.736 -0.8282  0.4612  0.1981
 8089SOL    HW125237   0.495   2.800   6.718 -1.2629  0.7942  1.4422
 8089SOL    HW225238   0.456   2.704   6.829  1.6650 -1.1902  0.8644
 8090SOL     OW25239   6.698   4.514   6.916  0.2948  0.4709  0.6679
 8090SOL    HW125240   6.659   4.482   6.998 -1.4310 -0.3865 -0.4198
 8090SOL    HW225241   6.685   4.608   6.918 -0.3469  0.3816  1.0969
 8091SOL     OW25242   5.285   5.209   7.162 -0.2730  0.1646  0.9965
 8091SOL    HW125243   5.230   5.138   7.194  0.1288 -1.5203 -1.6555
 8091SOL    HW225244   5.322   5.175   7.080  2.2133  2.4012  1.0569
 8092SOL     OW25245   3.713   5.917   1.018 -0.3540  0.3711 -0.3995
 8092SOL    HW125246   3.730   5.965   0.938 -2.1901  0.0233 -1.0590
 8092SOL    HW225247   3.676   5.833   0.989  1.5033 -0.9246  0.7457
 8093SOL     OW25248   3.621   5.530   2.396  0.6457 -0.2260 -0.1286
 8093SOL    HW125249   3.584   5.442   2.381  1.1986 -0.2871 -1.2305
 8093SOL    HW225250   3.715   5.516   2.404  0.7344  0.2713 -0.2767
 8094SOL     OW25251   4.759   0.446   0.806 -0.2354 -0.2813 -0.0309
 8094SOL    HW125252   4.701   0.518   0.831 -0.7495 -0.4953 -0.5855
 8094SOL    HW225253   4.710   0.398   0.739  0.7172 -0.2683 -0.7655
 8095SOL     OW25254   3.352   5.265   3.333 -0.6359  0.1820  0.8301
 8095SOL    HW125255   3.410   5.290   3.405 -0.8247  0.5055  0.8709
 8095SOL    HW225256   3.335   5.172   3.347  2.8626 -0.9715 -1.2598
 8096SOL     OW25257   2.969   4.219   0.069  0.6012  0.0975 -0.0179
 8096SOL    HW125258   2.970   4.315   0.065 -0.1235  0.0729 -1.4443
 8096SOL    HW225259   2.881   4.195   0.039  0.8848 -1.0181  0.0108
 8097SOL     OW25260   5.896   6.733   4.680  0.1473  0.1731 -0.2461
 8097SOL    HW125261   5.887   6.640   4.661  1.0679  0.0097  0.0806
 8097SOL    HW225262   5.978   6.740   4.729  0.5179  1.2608 -0.9833
 8098SOL     OW25263   6.321   1.621   4.902  0.8572  0.0167  0.0403
 8098SOL    HW125264   6.232   1.652   4.922  0.4679 -0.0026 -1.5241
 8098SOL    HW225265   6.315   1.526   4.904  1.0740  0.0138  0.8338
 8099SOL     OW25266   1.544   1.809   0.484 -0.3664  0.1029 -0.0444
 8099SOL    HW125267   1.621   1.863   0.465  0.7337 -2.0269 -2.1958
 8099SOL    HW225268   1.543   1.802   0.579  0.9994  1.6754  0.1418
 8100SOL     OW25269   2.168   5.611   5.940 -0.3971 -0.4122  0.1994
 8100SOL    HW125270   2.167   5.531   5.993 -1.2606 -0.5146  0.0432
 8100SOL    HW225271   2.089   5.605   5.886 -1.1651  1.1450  1.0946
 8101SOL     OW25272   6.377   0.244   7.209 -0.6043 -0.6690 -0.0807
 8101SOL    HW125273   6.405   0.335   7.223 -1.1629 -0.4085 -0.5958
 8101SOL    HW225274   6.453   0.192   7.234 -0.1573 -0.0414 -0.0888
 8102SOL     OW25275   5.984   3.856   6.617 -0.1724 -0.4639  0.5487
 8102SOL    HW125276   5.960   3.824   6.704 -2.7483  1.1584  0.5276
 8102SOL    HW225277   5.999   3.776   6.566  2.1588 -1.4554  2.5778
 8103SOL     OW25278   1.243   4.516   6.632 -0.3356  0.4205  0.4665
 8103SOL    HW125279   1.175   4.451   6.615  0.0331 -0.0358  0.6858
 8103SOL    HW225280   1.294   4.478   6.704 -0.4562  1.2201  0.9893
 8104SOL     OW25281   3.728   1.455   4.071  0.3901  0.2980 -0.0784
 8104SOL    HW125282   3.752   1.410   3.990 -0.8393 -0.2797 -0.1315
 8104SOL    HW225283   3.776   1.409   4.139 -0.4323 -0.7506 -0.1970
 8105SOL     OW25284   6.953   6.064   6.618  0.4655 -0.1120 -0.2505
 8105SOL    HW125285   7.044   6.056   6.645  0.9902 -1.0976 -2.1317
 8105SOL    HW225286   6.955   6.126   6.545 -0.3805 -0.0434 -0.2244
 8106SOL     OW25287   6.022   2.977   3.162 -0.0516 -0.0618 -0.4850
 8106SOL    HW125288   6.076   3.055   3.150  1.0918 -0.3511  2.1351
 8106SOL    HW225289   5.938   2.999   3.123  0.7176  1.9039 -1.1322
 8107SOL     OW25290   4.373   5.605   3.393  0.6572 -0.4409  0.1874
 8107SOL    HW125291   4.370   5.637   3.483 -0.2236  0.4878 -0.1475
 8107SOL    HW225292   4.433   5.664   3.349  2.0671 -1.6462  0.4132
 8108SOL     OW25293   5.109   5.803   5.864  0.3701 -0.5126 -0.3480
 8108SOL    HW125294   5.112   5.764   5.951  0.1619  1.5062  0.6178
 8108SOL    HW225295   5.197   5.840   5.850  1.5676 -3.7115 -2.5112
 8109SOL     OW25296   0.299   4.657   0.068  0.5093 -0.3405 -0.2194
 8109SOL    HW125297   0.365   4.601   0.027  1.7194  0.3124  0.7400
 8109SOL    HW225298   0.219   4.640   0.019  0.5108 -3.7219  0.7234
 8110SOL     OW25299   1.898   3.151   1.678 -0.0409 -0.1396 -0.0335
 8110SOL    HW125300   1.895   3.056   1.688  1.0723 -0.1108  0.8541
 8110SOL    HW225301   1.928   3.165   1.588 -2.9145 -0.5495 -1.1380
 8111SOL     OW25302   5.821   3.427   2.230  0.4287  0.2999 -0.5019
 8111SOL    HW125303   5.798   3.382   2.148  0.2176  1.6817 -1.2373
 8111SOL    HW225304   5.848   3.357   2.289 -0.0735 -0.8028 -1.5319
 8112SOL     OW25305   2.258   5.453   3.914  0.0643 -0.5871 -0.2286
 8112SOL    HW125306   2.202   5.376   3.916 -0.7086 -0.1114 -2.0303
 8112SOL    HW225307   2.316   5.440   3.839  0.3450  0.2930 -0.1808
 8113SOL     OW25308   3.864   5.590   1.659 -0.0233 -0.1936 -0.3534
 8113SOL    HW125309   3.941   5.547   1.621  0.4049 -0.2699  0.5600
 8113SOL    HW225310   3.898   5.635   1.736 -0.5927  1.2524 -0.9230
 8114SOL     OW25311   7.320   6.002   3.775 -0.2242  0.2878  0.3770
 8114SOL    HW125312   7.225   6.004   3.766 -0.1324 -0.9268 -1.5042
 8114SOL    HW225313   7.349   6.088   3.745 -0.7359  0.9048  1.5872
 8115SOL     OW25314   1.508   7.053   6.402  0.4552 -0.0716  0.1059
 8115SOL    HW125315   1.513   7.079   6.494  0.3732 -0.3329  0.1855
 8115SOL    HW225316   1.533   7.131   6.353  0.7002  0.0060  0.3577
 8116SOL     OW25317   1.623   3.354   3.163  0.1997 -0.0957  0.0576
 8116SOL    HW125318   1.599   3.265   3.138  0.3062  0.2679 -1.3994
 8116SOL    HW225319   1.669   3.390   3.087  0.3016  1.1610  0.6746
 8117SOL     OW25320   2.101   3.253   4.875  0.3583 -0.0917 -0.4810
 8117SOL    HW125321   2.189   3.289   4.889 -0.0129  1.3626 -1.6686
 8117SOL    HW225322   2.061   3.254   4.962  0.4959  2.1109 -0.3830
 8118SOL     OW25323   2.134   4.639   3.380  0.7424  0.1116  0.3146
 8118SOL    HW125324   2.135   4.544   3.370 -1.7633 -0.2991  2.9118
 8118SOL    HW225325   2.185   4.656   3.459  1.1208  0.9660 -0.0927
 8119SOL     OW25326   2.381   6.814   0.705 -0.1280  0.3465  0.4603
 8119SOL    HW125327   2.423   6.760   0.773 -0.9786 -0.2823  0.5116
 8119SOL    HW225328   2.288   6.790   0.711 -0.1860  0.0995 -1.0823
 8120SOL     OW25329   1.334   0.796   0.958  0.2749 -0.1550 -0.2974
 8120SOL    HW125330   1.407   0.826   1.012  0.5269  0.2686 -0.8676
 8120SOL    HW225331   1.355   0.705   0.937  0.1400 -0.3494  0.3651
 8121SOL     OW25332   5.722   6.359   3.468 -0.0525 -0.2963 -0.3908
 8121SOL    HW125333   5.803   6.410   3.479 -0.0944 -0.8373  4.6546
 8121SOL    HW225334   5.652   6.424   3.478 -0.1445 -0.5368  0.6211
 8122SOL     OW25335   0.995   0.487   1.069  0.1326 -0.2794  0.0579
 8122SOL    HW125336   1.060   0.543   1.112  0.8935 -0.4094 -0.8743
 8122SOL    HW225337   0.985   0.525   0.982 -2.0873  0.5429  0.6279
 8123SOL     OW25338   6.755   6.195   1.720 -0.4275  0.2805  0.2252
 8123SOL    HW125339   6.768   6.282   1.758 -1.3073  0.3764  0.3227
 8123SOL    HW225340   6.843   6.159   1.712 -0.0755  1.0761  0.4321
 8124SOL     OW25341   5.520   1.876   0.476 -0.0322  0.3586 -0.1553
 8124SOL    HW125342   5.568   1.831   0.406  0.5299 -0.7167  0.8892
 8124SOL    HW225343   5.428   1.866   0.451  0.1814  0.4344 -0.9996
 8125SOL     OW25344   3.230   0.641   0.954 -0.0557 -0.6665  0.0972
 8125SOL    HW125345   3.296   0.669   0.892 -0.3799  2.8507  1.1464
 8125SOL    HW225346   3.154   0.617   0.900  0.8711 -1.2798 -0.9551
 8126SOL     OW25347   5.335   4.611   4.871 -0.0148 -0.2101  0.1889
 8126SOL    HW125348   5.363   4.626   4.962 -1.3907  0.0395  0.5969
 8126SOL    HW225349   5.285   4.689   4.849 -0.4321 -0.6642 -0.4818
 8127SOL     OW25350   0.948   4.129   4.699  0.3264  0.1460  0.1090
 8127SOL    HW125351   1.023   4.150   4.754  2.4338  1.6460 -3.0050
 8127SOL    HW225352   0.907   4.214   4.682 -1.5410 -0.5372  0.9566
 8128SOL     OW25353   5.292   1.259   6.981  0.1016 -0.3577 -0.7311
 8128SOL    HW125354   5.306   1.193   7.050 -1.7415 -1.2033 -1.0957
 8128SOL    HW225355   5.258   1.335   7.027  1.2584 -0.0047 -0.4306
 8129SOL     OW25356   1.404   1.564   5.467 -0.2231  0.5463  0.2168
 8129SOL    HW125357   1.388   1.647   5.422  0.4873  0.1212 -0.8454
 8129SOL    HW225358   1.475   1.583   5.528  0.1957  0.6430 -0.2924
 8130SOL     OW25359   2.024   6.928   1.642 -0.2767  0.0530  0.1482
 8130SOL    HW125360   1.969   6.991   1.690 -1.6209 -0.0620 -1.1755
 8130SOL    HW225361   2.066   6.980   1.574  1.3161  0.1361  1.1486
 8131SOL     OW25362   1.860   6.388   1.765  0.1392  0.2819 -0.3125
 8131SOL    HW125363   1.821   6.412   1.849  0.2326  1.0561 -0.4832
 8131SOL    HW225364   1.931   6.328   1.788 -1.1000 -1.1312  0.0101
 8132SOL     OW25365   3.421   2.536   2.332  0.7277 -0.2995 -0.0311
 8132SOL    HW125366   3.431   2.562   2.423  0.7307  0.6328 -0.2944
 8132SOL    HW225367   3.509   2.540   2.295  0.4115  1.5356 -0.6511
 8133SOL     OW25368   7.087   6.631   6.643 -0.1858  0.3670  0.0990
 8133SOL    HW125369   7.010   6.577   6.629 -0.9138  1.5812 -0.8216
 8133SOL    HW225370   7.161   6.576   6.620 -0.9960  0.3060 -2.6764
 8134SOL     OW25371   0.597   2.350   3.879 -0.0520 -0.2209  0.0919
 8134SOL    HW125372   0.572   2.430   3.833 -1.0798  0.5839  1.9385
 8134SOL    HW225373   0.597   2.374   3.971  1.7281 -1.8193  0.5764
 8135SOL     OW25374   6.009   4.310   6.773 -0.5846  0.3727 -0.1871
 8135SOL    HW125375   5.973   4.223   6.757 -0.1508  0.1477  0.0236
 8135SOL    HW225376   6.104   4.297   6.768 -0.5262  0.8715 -0.3464
 8136SOL     OW25377   5.850   6.687   3.982 -0.0908  0.2967 -0.6324
 8136SOL    HW125378   5.812   6.602   3.961 -1.4635  0.4235  1.0962
 8136SOL    HW225379   5.774   6.744   3.997  0.8060  1.6510 -1.0914
 8137SOL     OW25380   0.600   3.035   2.776 -0.2653 -0.3158  0.7639
 8137SOL    HW125381   0.596   2.953   2.727 -0.0909 -1.1017  2.0108
 8137SOL    HW225382   0.659   3.091   2.726  0.6846 -1.4442  0.5886
 8138SOL     OW25383   0.361   3.584   1.152 -0.0385  0.4411 -0.1873
 8138SOL    HW125384   0.438   3.618   1.198 -1.3048 -0.9861  3.3817
 8138SOL    HW225385   0.390   3.502   1.112  0.6366  0.6985 -0.2422
 8139SOL     OW25386   2.219   2.162   3.714  0.1957  0.4662 -0.1702
 8139SOL    HW125387   2.150   2.226   3.696 -1.5473 -1.5074 -0.8864
 8139SOL    HW225388   2.235   2.170   3.808 -0.5007  1.4054 -0.1160
 8140SOL     OW25389   3.283   2.441   1.520 -0.2582  0.3762 -0.0742
 8140SOL    HW125390   3.352   2.493   1.560  0.9866 -1.7641  0.7613
 8140SOL    HW225391   3.327   2.361   1.491 -1.9138  0.0709 -2.0125
 8141SOL     OW25392   4.747   6.614   6.150  0.3848  0.1445 -0.4642
 8141SOL    HW125393   4.743   6.542   6.214 -2.1979 -0.9493 -1.7288
 8141SOL    HW225394   4.783   6.574   6.071 -1.1043  0.1753 -1.1910
 8142SOL     OW25395   2.234   1.194   2.303  0.5374  0.6187 -0.0035
 8142SOL    HW125396   2.183   1.123   2.263 -1.1042  2.5691 -1.5753
 8142SOL    HW225397   2.215   1.187   2.397  1.3235 -1.6582  0.0428
 8143SOL     OW25398   0.964   0.071   5.974 -0.2703  0.3633 -0.5847
 8143SOL    HW125399   1.029   0.003   5.988 -0.8389 -0.6125 -2.4106
 8143SOL    HW225400   0.989   0.111   5.890 -1.6663  0.3685 -1.0198
 8144SOL     OW25401   6.167   2.974   7.283 -0.1811 -0.1278 -0.1350
 8144SOL    HW125402   6.224   2.903   7.312  0.4290 -0.2132 -1.4809
 8144SOL    HW225403   6.124   2.941   7.205  0.3322  1.0734 -0.9607
 8145SOL     OW25404   6.875   6.558   1.537  0.1985  0.2779  0.5019
 8145SOL    HW125405   6.948   6.578   1.479 -0.5862  0.0528 -0.5961
 8145SOL    HW225406   6.807   6.620   1.512  0.5633  1.6904  2.7074
 8146SOL     OW25407   4.455   1.309   3.476 -0.5611 -0.0379 -0.2904
 8146SOL    HW125408   4.446   1.232   3.531 -1.3680 -0.8915 -1.5379
 8146SOL    HW225409   4.370   1.353   3.484 -0.8136 -0.3553 -1.0699
 8147SOL     OW25410   3.224   5.082   5.572  0.0821  0.1412  0.6016
 8147SOL    HW125411   3.173   5.002   5.560 -0.1239  0.1286  1.4607
 8147SOL    HW225412   3.208   5.133   5.493  0.8059 -0.9747 -0.3015
 8148SOL     OW25413   7.152   0.157   3.685 -0.6752  0.3135  0.4552
 8148SOL    HW125414   7.085   0.098   3.651  0.3640 -0.8978  0.4086
 8148SOL    HW225415   7.187   0.112   3.762 -0.4471  1.2868  0.9344
 8149SOL     OW25416   6.519   2.567   7.350  0.2287 -0.2493  0.0444
 8149SOL    HW125417   6.482   2.656   7.349  0.1540 -0.2431  1.3445
 8149SOL    HW225418   6.443   2.509   7.352  0.2602 -0.4018 -1.5598
 8150SOL     OW25419   0.223   1.891   3.207  0.0985 -0.0725 -0.4422
 8150SOL    HW125420   0.136   1.876   3.244  1.3437 -4.7613  1.3061
 8150SOL    HW225421   0.254   1.970   3.252 -2.5080  0.6609  0.2463
 8151SOL     OW25422   6.114   1.377   4.370 -0.0200 -0.1965 -0.4134
 8151SOL    HW125423   6.105   1.350   4.279 -1.5649 -1.0524 -0.0523
 8151SOL    HW225424   6.049   1.446   4.381  0.3016  0.0498 -0.0087
 8152SOL     OW25425   1.106   6.489   5.073 -0.0027 -0.2820  0.5233
 8152SOL    HW125426   1.077   6.398   5.073 -1.6354  0.1477  3.1780
 8152SOL    HW225427   1.126   6.509   5.164  0.6170  1.9615 -0.0263
 8153SOL     OW25428   1.787   1.853   3.112  0.6942  0.2227 -0.6196
 8153SOL    HW125429   1.826   1.929   3.156  0.0940  0.9254 -1.2719
 8153SOL    HW225430   1.756   1.888   3.028  0.3551 -0.7376 -0.9014
 8154SOL     OW25431   4.672   5.734   3.840 -0.1231  0.6982  0.2738
 8154SOL    HW125432   4.655   5.706   3.750 -1.1045 -0.8646  0.9050
 8154SOL    HW225433   4.766   5.719   3.853 -0.0451  0.6138 -0.3854
 8155SOL     OW25434   2.796   6.691   3.394 -0.0907 -0.4718  0.1826
 8155SOL    HW125435   2.727   6.736   3.345 -0.7677  0.2565  1.7322
 8155SOL    HW225436   2.756   6.608   3.420  0.2211 -0.7956 -0.3441
 8156SOL     OW25437   1.460   2.246   0.302 -0.4437 -0.3285  0.4634
 8156SOL    HW125438   1.371   2.237   0.266 -0.3644 -0.6932  0.3589
 8156SOL    HW225439   1.453   2.212   0.391 -0.6626  0.6639  0.8402
 8157SOL     OW25440   0.945   0.643   5.296  0.7291 -0.1702 -0.2631
 8157SOL    HW125441   0.872   0.656   5.357 -0.1347  0.9043 -1.4693
 8157SOL    HW225442   1.021   0.626   5.352 -0.2123 -0.1386  1.0595
 8158SOL     OW25443   1.174   1.898   0.107 -0.1283 -0.2347 -0.3149
 8158SOL    HW125444   1.238   1.879   0.176 -1.4072 -0.1371  0.9441
 8158SOL    HW225445   1.226   1.937   0.037  0.8894  2.7485  1.8331
 8159SOL     OW25446   0.698   3.940   4.411  0.0150 -0.8180  0.8350
 8159SOL    HW125447   0.736   3.991   4.483  0.9652 -1.1889  0.6111
 8159SOL    HW225448   0.740   3.976   4.332  0.9077 -2.0981  0.6891
 8160SOL     OW25449   2.276   2.815   5.771  0.6783  0.8375 -0.1496
 8160SOL    HW125450   2.245   2.846   5.686 -0.2427 -1.0673 -0.5460
 8160SOL    HW225451   2.197   2.794   5.820  1.2209  1.2456  0.9510
 8161SOL     OW25452   0.006   0.276   3.327 -0.3838 -0.2939 -0.0409
 8161SOL    HW125453   0.029   0.196   3.280 -2.2407 -0.3338 -0.9601
 8161SOL    HW225454  -0.054   0.322   3.268  0.7114  1.8540  0.4191
 8162SOL     OW25455   6.535   6.307   1.578  0.3789 -0.1168  0.1348
 8162SOL    HW125456   6.629   6.290   1.581  0.3497 -0.2260  0.5538
 8162SOL    HW225457   6.495   6.220   1.587  0.2359  0.0264  0.9558
 8163SOL     OW25458   1.839   4.292   1.137  0.1284 -0.7440  0.2129
 8163SOL    HW125459   1.930   4.282   1.110  0.7373  1.5592  1.1681
 8163SOL    HW225460   1.797   4.339   1.064  0.0379 -0.6117  0.3506
 8164SOL     OW25461   6.312   3.903   6.150  0.6660  0.0624  0.0699
 8164SOL    HW125462   6.352   3.942   6.072  0.8616  1.0027  0.6166
 8164SOL    HW225463   6.298   3.811   6.127  2.5122 -0.1416 -0.3893
 8165SOL     OW25464   3.360   5.581   0.331  0.3340  0.0279 -0.2163
 8165SOL    HW125465   3.446   5.566   0.291  0.0953  1.0250 -1.1442
 8165SOL    HW225466   3.304   5.515   0.291  0.6790 -0.6973  0.4724
 8166SOL     OW25467   6.348   6.056   5.401 -0.0588 -0.3809  0.4477
 8166SOL    HW125468   6.437   6.072   5.433 -0.2418 -3.1025  2.6847
 8166SOL    HW225469   6.291   6.098   5.465 -0.4920  1.6321 -1.1478
 8167SOL     OW25470   5.765   3.459   2.843 -0.7534  0.0216  0.1335
 8167SOL    HW125471   5.752   3.368   2.872  0.6353 -0.1494  0.2772
 8167SOL    HW225472   5.715   3.466   2.762  1.1946 -1.6539 -1.2770
 8168SOL     OW25473   3.665   3.156   4.131  0.6590  0.2253  0.1203
 8168SOL    HW125474   3.645   3.091   4.064  0.7665  0.7923 -0.4728
 8168SOL    HW225475   3.760   3.157   4.135  0.6906  1.0293 -0.5692
 8169SOL     OW25476   3.749   7.100   2.510  0.3186 -0.1679 -0.4181
 8169SOL    HW125477   3.675   7.059   2.465 -0.8366  1.2222  0.1084
 8169SOL    HW225478   3.718   7.189   2.529  1.3245 -0.2247  1.7469
 8170SOL     OW25479   1.630   2.116   4.112  0.0747  0.0793  0.2572
 8170SOL    HW125480   1.597   2.058   4.044  0.0422 -1.3076  1.4188
 8170SOL    HW225481   1.635   2.061   4.190  1.7147  1.1786  0.9761
 8171SOL     OW25482   5.418   3.399   2.181  0.1303 -0.3532 -0.4668
 8171SOL    HW125483   5.433   3.351   2.100  0.8124 -0.2842 -0.3884
 8171SOL    HW225484   5.447   3.340   2.250 -0.3820 -0.3847 -0.2742
 8172SOL     OW25485   0.204   1.825   2.959  0.0876  0.2153 -0.1100
 8172SOL    HW125486   0.293   1.853   2.936 -0.5776  0.9342 -2.0317
 8172SOL    HW225487   0.196   1.843   3.053  1.5491  1.3093 -0.1676
 8173SOL     OW25488   2.033   7.320   3.659 -0.5198  0.2484  0.4375
 8173SOL    HW125489   2.083   7.391   3.698 -0.4107  0.3431  0.1300
 8173SOL    HW225490   1.944   7.331   3.695 -0.9996  1.7144 -1.0538
 8174SOL     OW25491   3.148   7.265   2.610  0.3627 -0.3026 -0.3473
 8174SOL    HW125492   3.147   7.319   2.531  0.2930 -1.2454 -1.0064
 8174SOL    HW225493   3.237   7.228   2.612  0.0300 -1.1348 -0.5870
 8175SOL     OW25494   5.516   6.660   6.867 -0.0212  0.0094  0.7520
 8175SOL    HW125495   5.511   6.565   6.854  0.3450  0.3239 -2.3305
 8175SOL    HW225496   5.425   6.688   6.870 -0.1497 -0.2727 -0.1211
 8176SOL     OW25497   0.956   3.564   6.776  0.3965 -0.3664 -0.1769
 8176SOL    HW125498   1.014   3.611   6.715 -2.6469  0.1566 -2.9346
 8176SOL    HW225499   0.889   3.627   6.799 -0.4237 -1.6211  1.0315
 8177SOL     OW25500   5.252   6.432   3.708 -0.2021  0.3591 -0.2139
 8177SOL    HW125501   5.261   6.397   3.797  0.0300  1.2862  0.1459
 8177SOL    HW225502   5.188   6.503   3.717  1.3935  1.8798 -0.3305
 8178SOL     OW25503   5.148   5.449   3.146 -0.4902  0.2304 -0.0865
 8178SOL    HW125504   5.134   5.541   3.171  2.2830  0.8961 -0.6721
 8178SOL    HW225505   5.143   5.401   3.229  1.0307  1.3639  0.7098
 8179SOL     OW25506   5.734   6.604   6.318 -0.3106  0.3004  0.1424
 8179SOL    HW125507   5.738   6.685   6.267  2.1021 -1.0130 -1.9702
 8179SOL    HW225508   5.778   6.626   6.400  0.3803  1.1121 -0.4278
 8180SOL     OW25509   6.362   1.228   2.938  0.1275 -0.0066 -0.5429
 8180SOL    HW125510   6.268   1.214   2.931 -0.1141  0.6982  0.8391
 8180SOL    HW225511   6.398   1.143   2.962 -0.1228 -0.3209 -1.2564
 8181SOL     OW25512   3.791   6.350   2.214  0.3956 -0.0297  0.2234
 8181SOL    HW125513   3.885   6.329   2.209 -0.1623 -2.7950 -0.8346
 8181SOL    HW225514   3.775   6.406   2.138  0.9033 -1.1068 -0.7109
 8182SOL     OW25515   7.039   3.120   2.220 -0.0095 -0.1332  0.2550
 8182SOL    HW125516   7.048   3.214   2.202 -0.7573  0.0886  0.9807
 8182SOL    HW225517   6.946   3.107   2.238  0.1592 -0.9304  0.6194
 8183SOL     OW25518   0.674   1.233   0.295  0.1888 -0.0125  0.3667
 8183SOL    HW125519   0.599   1.269   0.342 -0.2101  1.7381 -1.4566
 8183SOL    HW225520   0.751   1.272   0.338 -0.1904  2.0956 -0.7322
 8184SOL     OW25521   1.676   1.349   0.771  0.0908  0.3179  0.3814
 8184SOL    HW125522   1.643   1.405   0.700 -1.9716 -2.4370 -0.9852
 8184SOL    HW225523   1.611   1.359   0.841  0.2366  0.3352  0.5144
 8185SOL     OW25524   3.669   3.803   1.758 -0.1548 -0.0552  0.0071
 8185SOL    HW125525   3.620   3.885   1.754 -0.3264 -0.1122  0.8212
 8185SOL    HW225526   3.607   3.740   1.794  0.1956 -0.3728  0.0546
 8186SOL     OW25527   5.255   3.068   4.276 -0.4419 -0.4264  0.1443
 8186SOL    HW125528   5.336   3.017   4.275 -1.7012 -2.5567 -0.1862
 8186SOL    HW225529   5.281   3.156   4.252  1.8880 -0.8568  0.8611
 8187SOL     OW25530   0.272   6.562   1.808 -0.4066  0.0855 -0.0582
 8187SOL    HW125531   0.296   6.534   1.720 -0.5213  0.6944 -0.2879
 8187SOL    HW225532   0.197   6.619   1.796 -0.5100  0.0640  0.4503
 8188SOL     OW25533   1.500   4.814   0.628  0.2278 -0.2734 -0.2503
 8188SOL    HW125534   1.581   4.834   0.580  0.8851  1.2074  1.3862
 8188SOL    HW225535   1.430   4.836   0.566  1.0339 -0.8758 -1.4279
 8189SOL     OW25536   2.326   0.910   2.491  0.0200  0.6323 -0.2128
 8189SOL    HW125537   2.333   0.880   2.582 -0.6791 -0.5051 -0.5076
 8189SOL    HW225538   2.250   0.969   2.492  0.3867  1.1072  0.0526
 8190SOL     OW25539   4.738   1.717   2.258 -0.0952  0.2979  0.4342
 8190SOL    HW125540   4.690   1.742   2.179 -0.5410  1.7475  1.1313
 8190SOL    HW225541   4.793   1.644   2.230  0.9831  1.7868 -1.6335
 8191SOL     OW25542   0.263   6.653   2.699  0.1662  0.1848 -0.3162
 8191SOL    HW125543   0.275   6.577   2.642  1.7157  0.1323  0.0460
 8191SOL    HW225544   0.313   6.632   2.778  0.3452  1.4389 -0.0757
 8192SOL     OW25545   6.387   1.172   2.039 -0.4451  0.0125 -0.1422
 8192SOL    HW125546   6.454   1.207   1.980 -0.2553  1.8821  1.1078
 8192SOL    HW225547   6.316   1.236   2.036 -1.4952 -1.1244 -0.1993
 8193SOL     OW25548   4.890   4.123   6.791 -0.2171  0.1706  0.0848
 8193SOL    HW125549   4.827   4.068   6.837 -0.0440  0.2687  0.4485
 8193SOL    HW225550   4.861   4.213   6.809  0.6273  0.2544  1.1628
 8194SOL     OW25551   1.706   7.368   1.857 -0.2018  0.4279  0.0448
 8194SOL    HW125552   1.770   7.408   1.798  1.7097 -0.4051  1.4569
 8194SOL    HW225553   1.716   7.416   1.939 -0.3903 -0.6402  0.7049
 8195SOL     OW25554   1.923   7.176   2.823 -0.6521  0.2559 -0.3896
 8195SOL    HW125555   1.944   7.222   2.905 -0.1341  1.1141 -0.9950
 8195SOL    HW225556   1.868   7.102   2.851  0.5224 -0.1838  0.8713
 8196SOL     OW25557   4.507   3.844   2.528 -0.0445  0.3967  0.8235
 8196SOL    HW125558   4.496   3.936   2.549 -1.3754  0.3769  0.2986
 8196SOL    HW225559   4.602   3.832   2.521  0.1321  2.5181 -2.3983
 8197SOL     OW25560   3.073   3.064   2.772  0.2220 -0.0448 -0.1826
 8197SOL    HW125561   3.122   3.096   2.848  0.6065  1.5389 -1.0501
 8197SOL    HW225562   2.988   3.039   2.808 -1.1072  4.4018  0.3475
 8198SOL     OW25563   7.240   5.246   4.510  0.8518 -0.1026  0.6307
 8198SOL    HW125564   7.304   5.317   4.501  0.2251  0.3663 -0.2223
 8198SOL    HW225565   7.286   5.168   4.479  0.7157  0.4033 -0.9105
 8199SOL     OW25566   2.452   6.416   3.704  0.9589 -0.2668  0.3022
 8199SOL    HW125567   2.376   6.361   3.685  0.9305 -0.2836  0.4642
 8199SOL    HW225568   2.506   6.409   3.626  1.2863 -1.0789  0.5865
 8200SOL     OW25569   3.323   4.730   3.017  0.7134  0.3617  0.4619
 8200SOL    HW125570   3.334   4.794   3.087  0.2877  0.7229  0.2044
 8200SOL    HW225571   3.234   4.743   2.985  0.1282 -1.2743  1.2959
 8201SOL     OW25572   6.667   4.380   4.240  0.2336 -0.0065 -0.0422
 8201SOL    HW125573   6.628   4.418   4.318  1.9141 -0.6618  1.1812
 8201SOL    HW225574   6.761   4.375   4.260  0.6692 -0.4637 -1.9914
 8202SOL     OW25575   6.528   1.875   2.932  0.7901 -0.6904 -0.3731
 8202SOL    HW125576   6.464   1.825   2.881 -0.8034  0.9621 -0.1226
 8202SOL    HW225577   6.523   1.838   3.020 -0.0041 -0.4545 -0.3060
 8203SOL     OW25578   6.051   4.449   0.068  0.0986 -0.1765  0.1445
 8203SOL    HW125579   6.103   4.419  -0.007 -1.3324 -0.9846 -0.5716
 8203SOL    HW225580   5.985   4.506   0.029  0.0377  0.3267  0.9595
 8204SOL     OW25581   7.323   3.802   3.784 -0.1018 -0.4134 -0.5015
 8204SOL    HW125582   7.314   3.759   3.870 -1.8753  0.2257 -0.3375
 8204SOL    HW225583   7.418   3.803   3.769  0.7731  2.9198  3.2907
 8205SOL     OW25584   1.484   5.422   7.118  0.0562 -0.1252 -0.2138
 8205SOL    HW125585   1.573   5.457   7.113  0.1337 -0.2113  0.5024
 8205SOL    HW225586   1.445   5.444   7.033  0.6412  0.2265 -0.3967
 8206SOL     OW25587   0.979   4.835   3.294 -0.3626 -0.2361 -0.2482
 8206SOL    HW125588   1.059   4.815   3.342 -0.5465 -0.8041 -0.1692
 8206SOL    HW225589   0.942   4.749   3.272 -1.4075 -0.0033  0.4915
 8207SOL     OW25590   6.247   1.585   0.390 -0.4454  0.1268 -0.2458
 8207SOL    HW125591   6.330   1.550   0.423  0.6688  1.1594 -1.8283
 8207SOL    HW225592   6.231   1.663   0.443  0.4821  0.8572 -1.0056
 8208SOL     OW25593   5.903   3.245   6.378  0.7314 -0.2322  0.1407
 8208SOL    HW125594   5.816   3.247   6.418  0.4146 -1.4832 -0.4291
 8208SOL    HW225595   5.918   3.335   6.349 -0.3201  0.0383  0.3784
 8209SOL     OW25596   2.826   0.955   1.653  0.4106 -0.1961  0.8648
 8209SOL    HW125597   2.775   1.019   1.703  0.8962  1.4607 -0.6464
 8209SOL    HW225598   2.799   0.870   1.688 -1.3803  0.7442  1.9237
 8210SOL     OW25599   0.647   7.046   0.475  0.1297 -0.3859 -0.0325
 8210SOL    HW125600   0.576   6.991   0.509  0.6375 -1.5348 -0.7621
 8210SOL    HW225601   0.706   6.984   0.433 -0.4906  0.9170 -3.0910
 8211SOL     OW25602   5.762   6.143   3.284 -0.0740 -0.7308 -0.2320
 8211SOL    HW125603   5.720   6.219   3.324 -0.9542 -0.9246 -0.7679
 8211SOL    HW225604   5.733   6.145   3.193  1.8366 -0.3354 -0.8771
 8212SOL     OW25605   2.362   0.735   1.240  0.0412 -1.0657 -0.5284
 8212SOL    HW125606   2.364   0.801   1.309 -0.4873 -1.2119 -0.3641
 8212SOL    HW225607   2.409   0.660   1.276  2.3323 -0.1515 -1.4155
 8213SOL     OW25608   7.007   2.048   1.949 -0.2658  0.6793  0.4198
 8213SOL    HW125609   6.923   2.040   1.904 -1.7180  2.3986  2.5446
 8213SOL    HW225610   6.993   2.004   2.033  0.8822  1.2128  0.9100
 8214SOL     OW25611   4.027   5.409   7.078 -0.2881 -0.3495  0.1229
 8214SOL    HW125612   4.111   5.454   7.076 -0.9525  1.0971  2.0386
 8214SOL    HW225613   3.985   5.432   6.995  0.5618  0.1597 -0.1730
 8215SOL     OW25614   5.190   3.770   0.180  0.4165 -0.6228 -0.0621
 8215SOL    HW125615   5.214   3.862   0.166  0.2692 -0.3940  1.0986
 8215SOL    HW225616   5.263   3.734   0.232 -0.3611 -0.6802  1.0194
 8216SOL     OW25617   6.363   5.939   0.893 -0.5971  0.0742  0.1099
 8216SOL    HW125618   6.287   5.937   0.835 -0.3252 -0.3252 -0.2450
 8216SOL    HW225619   6.338   5.888   0.969 -0.8562  0.3616  0.2199
 8217SOL     OW25620   1.611   4.565   0.410  0.4925  0.1494 -0.0295
 8217SOL    HW125621   1.545   4.547   0.476  1.0107 -0.7830  0.2527
 8217SOL    HW225622   1.622   4.483   0.363  2.3845 -0.1231  0.8019
 8218SOL     OW25623   4.751   3.147   2.711  0.1057  0.0694 -0.0817
 8218SOL    HW125624   4.738   3.187   2.797  1.6661  0.3370  0.0732
 8218SOL    HW225625   4.759   3.221   2.650  0.9023 -0.0455 -0.1321
 8219SOL     OW25626   6.405   6.712   5.370 -0.0182  0.0003 -0.1749
 8219SOL    HW125627   6.455   6.756   5.439 -0.6829 -0.1821  0.4333
 8219SOL    HW225628   6.457   6.635   5.348  0.8651  0.7691 -0.8355
 8220SOL     OW25629   1.376   5.885   0.958  0.0931  1.0634  0.3029
 8220SOL    HW125630   1.287   5.916   0.974 -0.3184 -0.0476  0.2216
 8220SOL    HW225631   1.394   5.911   0.867 -1.4819 -1.6917 -0.9176
 8221SOL     OW25632   1.370   6.658   0.765  0.0568 -0.1317  0.3378
 8221SOL    HW125633   1.400   6.687   0.851  0.2570  2.0886 -0.4227
 8221SOL    HW225634   1.386   6.733   0.707 -0.3202 -1.4597 -1.5905
 8222SOL     OW25635   7.354   5.855   2.205 -0.1342 -0.2226 -0.1110
 8222SOL    HW125636   7.269   5.821   2.179 -0.7472  0.9780  0.2588
 8222SOL    HW225637   7.334   5.927   2.264  1.1671 -0.9334  1.2813
 8223SOL     OW25638   5.545   6.873   2.282 -0.6464  0.2297 -0.1220
 8223SOL    HW125639   5.510   6.784   2.293  1.7429 -0.8272 -0.4322
 8223SOL    HW225640   5.604   6.885   2.356  1.7293  0.1415 -1.8962
 8224SOL     OW25641   5.011   5.474   1.585 -0.3833  0.1049 -0.0070
 8224SOL    HW125642   4.979   5.524   1.511  0.6562  1.8674  0.6773
 8224SOL    HW225643   4.944   5.408   1.600 -1.8501  1.3281 -0.9029
 8225SOL     OW25644   0.219   1.076   4.788 -0.3944 -0.7097  0.0393
 8225SOL    HW125645   0.260   1.132   4.722 -1.1483 -0.6955 -0.4295
 8225SOL    HW225646   0.281   1.076   4.861 -1.2821  2.5196  0.9895
 8226SOL     OW25647   3.561   4.474   3.964 -0.2477  0.7887 -0.5623
 8226SOL    HW125648   3.482   4.527   3.957 -0.8370  0.0110  0.1193
 8226SOL    HW225649   3.633   4.537   3.958 -0.9138  1.5077 -1.1033
 8227SOL     OW25650   3.053   0.938   4.254 -0.5259 -0.2029  0.0079
 8227SOL    HW125651   3.055   1.003   4.184 -1.5862 -1.2024 -1.0038
 8227SOL    HW225652   3.123   0.876   4.232  1.3591  1.2355  1.6788
 8228SOL     OW25653   2.063   1.899   4.951  0.1514 -0.0626  0.6923
 8228SOL    HW125654   2.034   1.990   4.952  0.1894 -0.0514  0.7466
 8228SOL    HW225655   2.136   1.895   5.013 -0.2346 -0.2577  1.1385
 8229SOL     OW25656   0.184   0.150   0.514  0.2846 -0.4898  0.2879
 8229SOL    HW125657   0.181   0.245   0.527 -0.3676 -0.6391  1.3263
 8229SOL    HW225658   0.212   0.116   0.599 -0.3944 -1.2934  0.1913
 8230SOL     OW25659   5.370   6.778   5.851 -0.5476  0.2529  0.0224
 8230SOL    HW125660   5.429   6.825   5.792 -0.7339  1.5157  0.8215
 8230SOL    HW225661   5.283   6.787   5.811 -0.3959 -0.6061 -0.5357
 8231SOL     OW25662   6.314   3.324   2.695  0.1534  0.1438 -0.3593
 8231SOL    HW125663   6.394   3.367   2.667 -0.3708  1.9469  0.7876
 8231SOL    HW225664   6.334   3.230   2.689  1.7789  0.5181 -1.6080
 8232SOL     OW25665   6.476   5.185   4.934 -0.1410 -0.1352 -0.1567
 8232SOL    HW125666   6.488   5.276   4.961  1.4435 -0.7557  1.4190
 8232SOL    HW225667   6.412   5.150   4.996  1.5775 -0.8749  1.2805
 8233SOL     OW25668   6.201   2.647   2.811  0.0264 -0.0529 -0.2245
 8233SOL    HW125669   6.197   2.553   2.828 -2.2872  0.0839  0.3085
 8233SOL    HW225670   6.193   2.654   2.716  0.6750 -0.3836 -0.3135
 8234SOL     OW25671   2.494   3.146   4.239  0.5956 -1.0054 -0.2890
 8234SOL    HW125672   2.439   3.068   4.250  0.2011 -0.6664  0.2529
 8234SOL    HW225673   2.431   3.219   4.233  0.9692 -0.6768 -0.2655
 8235SOL     OW25674   0.220   3.934   1.300 -0.2598 -0.6781 -0.0506
 8235SOL    HW125675   0.255   3.955   1.387  1.9719  1.3730 -1.3197
 8235SOL    HW225676   0.177   4.014   1.272 -0.2878 -1.0670 -1.1369
 8236SOL     OW25677   0.709   5.230   7.184 -0.0614  0.3503  0.0508
 8236SOL    HW125678   0.669   5.304   7.140  1.8896 -0.2257 -2.9812
 8236SOL    HW225679   0.775   5.269   7.242  0.3151  1.0609 -0.8336
 8237SOL     OW25680   4.353   7.187   2.255 -0.6329 -0.3169 -0.5449
 8237SOL    HW125681   4.339   7.242   2.179  0.5906 -1.1870 -1.4565
 8237SOL    HW225682   4.321   7.238   2.329 -1.4940  0.7051 -1.5920
 8238SOL     OW25683   2.462   6.282   3.399  0.0517  0.3790 -0.1306
 8238SOL    HW125684   2.384   6.277   3.454  0.7608 -1.8857  0.7785
 8238SOL    HW225685   2.428   6.294   3.310 -1.5185 -2.4344 -0.0192
 8239SOL     OW25686   4.394   3.286   4.624 -0.0460 -0.3856  0.1225
 8239SOL    HW125687   4.321   3.311   4.567 -0.6281 -0.9620  0.6002
 8239SOL    HW225688   4.359   3.294   4.713  1.2071  1.6448  0.4952
 8240SOL     OW25689   4.010   1.810   0.744  0.3961  0.1948  0.5975
 8240SOL    HW125690   4.012   1.747   0.817 -1.5411 -0.0800  0.4611
 8240SOL    HW225691   3.925   1.854   0.753 -0.9356 -1.3609 -2.6732
 8241SOL     OW25692   3.204   6.081   2.778 -0.2334  0.4926 -0.2206
 8241SOL    HW125693   3.280   6.137   2.794 -0.2612  0.8388 -1.2030
 8241SOL    HW225694   3.158   6.078   2.861  0.5212  0.7924  0.2149
 8242SOL     OW25695   1.583   0.894   1.616 -0.1206  0.4626  0.0270
 8242SOL    HW125696   1.571   0.822   1.554 -2.6002  1.2746 -0.5559
 8242SOL    HW225697   1.608   0.969   1.562 -0.2602  0.6871  0.2720
 8243SOL     OW25698   1.979   0.423   1.333  0.1039 -0.4343 -0.2555
 8243SOL    HW125699   1.944   0.367   1.402  0.9691  0.0223  0.5807
 8243SOL    HW225700   1.981   0.367   1.255 -0.9088 -0.9492  0.0673
 8244SOL     OW25701   4.450   6.948   4.026  0.3043  0.3892 -0.3628
 8244SOL    HW125702   4.364   6.924   3.994 -0.0995 -2.1053  2.1668
 8244SOL    HW225703   4.433   7.007   4.099  0.5703 -0.9558  0.8482
 8245SOL     OW25704   5.041   4.139   0.775 -0.2095 -0.0340  0.2518
 8245SOL    HW125705   5.124   4.092   0.762 -0.0559  0.0416  0.9343
 8245SOL    HW225706   5.040   4.160   0.869 -0.2518  1.3687 -0.0380
 8246SOL     OW25707   5.247   7.059   2.765 -0.0166 -0.0923 -0.1334
 8246SOL    HW125708   5.328   7.039   2.811 -0.2999 -2.4992 -0.5590
 8246SOL    HW225709   5.186   6.991   2.793 -1.5219  0.9252 -0.7987
 8247SOL     OW25710   6.792   3.276   1.401 -0.3309 -0.1127  0.1376
 8247SOL    HW125711   6.851   3.345   1.432 -0.8769  0.6787 -0.5231
 8247SOL    HW225712   6.819   3.198   1.448  1.5364  0.1178 -0.4582
 8248SOL     OW25713   6.918   2.793   1.026 -0.1908  0.5566 -0.7868
 8248SOL    HW125714   6.975   2.800   0.949 -1.2492  1.7630 -1.5126
 8248SOL    HW225715   6.838   2.839   1.000 -1.8136 -1.6917 -0.0767
 8249SOL     OW25716   5.377   7.308   3.329  0.1904  0.5657 -0.3835
 8249SOL    HW125717   5.295   7.294   3.282 -0.0067  1.7131 -0.4164
 8249SOL    HW225718   5.350   7.344   3.414  0.6778  2.0006 -0.8037
 8250SOL     OW25719   6.236   3.615   6.778 -0.0222  0.1804 -0.0551
 8250SOL    HW125720   6.246   3.527   6.816  1.4872 -0.2694 -1.3474
 8250SOL    HW225721   6.269   3.674   6.846 -0.9020 -0.2573  0.7670
 8251SOL     OW25722   5.609   4.254   4.588  0.3148  0.6256 -0.5444
 8251SOL    HW125723   5.572   4.250   4.676 -0.9533 -1.1641 -1.0960
 8251SOL    HW225724   5.703   4.248   4.602  0.0858 -0.8052  0.6731
 8252SOL     OW25725   5.279   6.367   5.735 -0.2044 -0.6864 -0.4486
 8252SOL    HW125726   5.352   6.421   5.705 -0.1232 -0.1116  0.7214
 8252SOL    HW225727   5.290   6.284   5.689  0.6319 -0.2789 -1.0170
 8253SOL     OW25728   6.094   4.688   2.152  0.4277  0.4697  0.2476
 8253SOL    HW125729   6.015   4.722   2.195  0.6627  0.3969  0.7515
 8253SOL    HW225730   6.104   4.742   2.074 -2.5325 -2.2350 -2.2448
 8254SOL     OW25731   0.001   1.479   6.405 -0.0362  0.3827  0.4333
 8254SOL    HW125732   0.031   1.495   6.495 -0.2609 -1.0536  0.7973
 8254SOL    HW225733   0.077   1.442   6.361 -0.2686 -0.0492  0.3860
 8255SOL     OW25734   7.135   2.620   5.205 -0.1215 -0.0356  0.1270
 8255SOL    HW125735   7.123   2.568   5.285 -0.9291 -0.6953 -0.4039
 8255SOL    HW225736   7.217   2.587   5.168 -0.4642 -0.7217 -0.0382
 8256SOL     OW25737   0.632   4.828   3.564  0.0398 -0.3787 -0.1445
 8256SOL    HW125738   0.662   4.892   3.500  1.7814 -0.2365  0.7593
 8256SOL    HW225739   0.569   4.775   3.516 -1.2496  1.7971 -1.0034
 8257SOL     OW25740   6.130   1.187   6.119  0.6468  0.1510 -0.2494
 8257SOL    HW125741   6.039   1.186   6.150 -0.2773 -0.7765 -2.7507
 8257SOL    HW225742   6.162   1.274   6.144 -0.9724  0.5794  0.5124
 8258SOL     OW25743   6.491   1.264   0.265 -0.0221 -0.3728  0.0628
 8258SOL    HW125744   6.489   1.194   0.200 -0.2232  1.3929 -1.9412
 8258SOL    HW225745   6.584   1.280   0.281  0.0941  0.3444 -1.1875
 8259SOL     OW25746   2.741   1.393   7.222 -0.0654  0.2048  0.6217
 8259SOL    HW125747   2.758   1.464   7.159  1.8780  1.1727  2.1143
 8259SOL    HW225748   2.658   1.355   7.193 -0.0877  1.6667 -1.5251
 8260SOL     OW25749   6.621   2.570   1.694  0.6018  0.1321  0.0335
 8260SOL    HW125750   6.692   2.553   1.632  1.0399 -0.5259  0.7053
 8260SOL    HW225751   6.563   2.631   1.648  1.1299 -0.0330 -0.8637
 8261SOL     OW25752   4.453   6.230   0.946 -0.3712 -0.0662 -0.0729
 8261SOL    HW125753   4.425   6.182   0.868  1.1514 -0.3591 -0.4683
 8261SOL    HW225754   4.518   6.172   0.987 -1.5483 -0.1848  1.7447
 8262SOL     OW25755   2.944   4.483   0.094 -0.2438 -0.0030  0.0398
 8262SOL    HW125756   2.851   4.467   0.077 -0.0008  0.2050 -1.7932
 8262SOL    HW225757   2.974   4.528   0.014  1.3376  0.2917  0.7763
 8263SOL     OW25758   3.508   5.517   3.193  0.0760 -0.3650  0.1175
 8263SOL    HW125759   3.576   5.461   3.230  1.8290  1.1889 -0.6055
 8263SOL    HW225760   3.512   5.597   3.245  0.1900  0.5074 -1.1968
 8264SOL     OW25761   6.201   3.137   4.419 -0.1242  0.0507 -0.1730
 8264SOL    HW125762   6.182   3.231   4.413 -0.5491 -0.0793 -0.9490
 8264SOL    HW225763   6.288   3.133   4.459 -0.4021  0.7503  0.5245
 8265SOL     OW25764   4.638   6.197   3.440 -0.2974 -0.0546 -0.6287
 8265SOL    HW125765   4.693   6.135   3.488 -1.2524  0.1774  0.8261
 8265SOL    HW225766   4.559   6.148   3.419 -0.4028  0.2112 -0.8512
 8266SOL     OW25767   2.303   7.243   2.701  0.4184  0.4424 -0.0337
 8266SOL    HW125768   2.312   7.270   2.793  0.3661  1.5111 -0.3306
 8266SOL    HW225769   2.250   7.164   2.705  0.9481  0.1102  0.9067
 8267SOL     OW25770   6.868   0.847   4.188  0.4840 -0.3314  0.2437
 8267SOL    HW125771   6.948   0.896   4.208  1.4991 -1.7634 -0.0646
 8267SOL    HW225772   6.853   0.862   4.095  1.7952 -1.8653 -0.2841
 8268SOL     OW25773   3.573   1.570   0.094 -0.4771  0.1595  0.3798
 8268SOL    HW125774   3.593   1.664   0.099  0.0074  0.2100 -1.7159
 8268SOL    HW225775   3.480   1.567   0.074 -0.2979  0.2410 -0.5050
 8269SOL     OW25776   2.075   5.019   1.703 -0.7012  0.1973  0.1604
 8269SOL    HW125777   2.135   5.050   1.635 -0.3917  0.7798  0.6889
 8269SOL    HW225778   2.016   4.958   1.657  0.4510 -0.5970 -0.3186
 8270SOL     OW25779   2.060   1.507   5.885 -0.2393 -0.6890  0.3379
 8270SOL    HW125780   2.128   1.564   5.919  2.1019 -3.3103  0.3856
 8270SOL    HW225781   2.001   1.492   5.959 -0.6671  1.1961  0.4372
 8271SOL     OW25782   0.223   6.459   7.246 -0.5635 -0.4511  0.2124
 8271SOL    HW125783   0.312   6.488   7.228 -0.5336 -1.4025 -1.4496
 8271SOL    HW225784   0.169   6.535   7.229 -0.1292 -0.0602  0.5489
 8272SOL     OW25785   4.426   1.713   3.387 -0.1437 -0.0068 -0.2058
 8272SOL    HW125786   4.498   1.668   3.343 -0.8894 -1.3798 -0.0698
 8272SOL    HW225787   4.392   1.775   3.322  1.6285  1.2354 -0.0180
 8273SOL     OW25788   3.602   3.447   5.070 -0.2609  0.3843  0.3591
 8273SOL    HW125789   3.510   3.437   5.096  0.3121 -2.5454  1.6217
 8273SOL    HW225790   3.650   3.451   5.152  0.8220  1.8501 -0.2901
 8274SOL     OW25791   7.329   2.471   2.003  0.1156  0.1535 -0.0904
 8274SOL    HW125792   7.391   2.418   1.953 -1.2630 -1.7236  0.0649
 8274SOL    HW225793   7.274   2.514   1.937  1.2608  1.4726 -0.2179
 8275SOL     OW25794   7.354   2.626   0.584  0.0578  0.2491  0.1869
 8275SOL    HW125795   7.281   2.568   0.604 -0.0024 -0.0913 -0.9201
 8275SOL    HW225796   7.413   2.572   0.531  1.6543  0.1828  1.9446
 8276SOL     OW25797   0.551   2.653   3.939 -0.0430  0.0476 -0.0209
 8276SOL    HW125798   0.525   2.664   4.031  0.4527  0.1709  0.1039
 8276SOL    HW225799   0.468   2.640   3.893 -0.2240 -0.9466  0.5682
 8277SOL     OW25800   1.010   3.793   2.132  0.2107  0.1540  0.8234
 8277SOL    HW125801   0.996   3.866   2.192 -0.2997  1.6769 -1.0275
 8277SOL    HW225802   0.979   3.716   2.179  0.0369  1.2461  2.5591
 8278SOL     OW25803   1.318   7.380   0.779 -0.6975  0.0160  0.7766
 8278SOL    HW125804   1.364   7.456   0.743  0.1041 -0.9998 -0.4655
 8278SOL    HW225805   1.366   7.357   0.858 -1.4275  1.2404  1.6192
 8279SOL     OW25806   4.698   0.537   3.249 -0.3965  1.0616  0.1347
 8279SOL    HW125807   4.681   0.612   3.193  1.0205  0.8346 -0.6475
 8279SOL    HW225808   4.793   0.532   3.254 -0.4482 -0.8907 -0.1440
 8280SOL     OW25809   0.162   2.799   3.075 -0.3708  0.1003 -0.0554
 8280SOL    HW125810   0.252   2.766   3.080  0.5468  2.6193  2.5670
 8280SOL    HW225811   0.108   2.720   3.070  1.7355 -1.8583  3.7590
 8281SOL     OW25812   7.310   6.773   1.467 -0.1273  0.2690  0.0899
 8281SOL    HW125813   7.246   6.703   1.453  1.2624 -1.1684  0.5934
 8281SOL    HW225814   7.349   6.787   1.381  0.5358 -0.5723  0.2364
 8282SOL     OW25815   6.085   0.053   6.850  0.1770  1.0165  0.0994
 8282SOL    HW125816   6.160   0.003   6.817  0.2207  0.9189  0.3411
 8282SOL    HW225817   6.123   0.130   6.891 -0.0138  2.8417 -2.8727
 8283SOL     OW25818   2.293   2.388   0.969 -0.0187 -0.1164 -0.1307
 8283SOL    HW125819   2.242   2.435   1.036 -0.1461 -1.3986  0.7028
 8283SOL    HW225820   2.233   2.380   0.895 -0.7148 -0.7698  0.4876
 8284SOL     OW25821   3.785   5.911   1.603 -0.8323  0.1853 -0.5651
 8284SOL    HW125822   3.747   5.844   1.661  0.9529  0.2118  0.7495
 8284SOL    HW225823   3.878   5.911   1.627 -0.3849  1.5069 -2.2074
 8285SOL     OW25824   1.417   6.566   4.474  0.3915  0.0684  0.0012
 8285SOL    HW125825   1.469   6.543   4.397 -0.0826 -0.4212 -0.1801
 8285SOL    HW225826   1.358   6.636   4.444 -0.0240 -0.3536 -0.1756
 8286SOL     OW25827   0.605   6.320   3.166  0.3156 -0.3896  0.9487
 8286SOL    HW125828   0.675   6.382   3.145 -0.1901  0.1714  0.9241
 8286SOL    HW225829   0.649   6.234   3.164  0.2963 -0.4677 -2.7260
 8287SOL     OW25830   1.085   2.355   1.373 -0.0302  0.9325 -0.5573
 8287SOL    HW125831   1.178   2.376   1.382  0.2629 -0.1192 -0.9646
 8287SOL    HW225832   1.055   2.335   1.461  0.4625 -0.0081 -0.5943
 8288SOL     OW25833   4.521   0.571   7.191  0.1066  0.4752 -0.3339
 8288SOL    HW125834   4.527   0.510   7.118 -0.8784  0.5759 -0.5184
 8288SOL    HW225835   4.550   0.520   7.267  0.2174  0.0752 -0.6419
 8289SOL     OW25836   0.254   2.745   2.478  0.6967  0.6218 -0.0432
 8289SOL    HW125837   0.284   2.774   2.392 -0.7959  1.7307 -0.2394
 8289SOL    HW225838   0.162   2.773   2.482 -0.2667 -2.3095  0.6146
 8290SOL     OW25839   4.649   7.212   4.154  0.2260  0.0542  0.0410
 8290SOL    HW125840   4.704   7.151   4.104 -0.1443  0.6279 -1.1217
 8290SOL    HW225841   4.600   7.156   4.214 -0.7156 -0.9375 -1.5497
 8291SOL     OW25842   3.068   1.105   5.492 -0.2173 -0.4502  0.1654
 8291SOL    HW125843   3.014   1.042   5.540  0.4755  0.9671  3.0512
 8291SOL    HW225844   3.154   1.097   5.533  0.8399 -0.1244 -1.8895
 8292SOL     OW25845   6.978   2.436   5.381  0.2016  0.9189  0.4656
 8292SOL    HW125846   6.934   2.519   5.363 -0.4761  0.4139 -0.2906
 8292SOL    HW225847   6.936   2.374   5.322 -1.0146 -0.5064  2.7198
 8293SOL     OW25848   6.610   4.591   0.537  0.0832  0.5328  0.3787
 8293SOL    HW125849   6.647   4.520   0.485 -1.9244  0.4891 -1.1333
 8293SOL    HW225850   6.641   4.575   0.626  1.1451 -1.1830 -0.2552
 8294SOL     OW25851   1.961   1.657   1.433 -0.7702  0.0860 -0.2265
 8294SOL    HW125852   2.032   1.721   1.422 -0.3671 -0.2993  0.0800
 8294SOL    HW225853   1.882   1.703   1.405 -0.5821  0.9151  0.5630
 8295SOL     OW25854   3.966   0.256   2.891 -0.1588  0.0632  0.1595
 8295SOL    HW125855   4.009   0.284   2.971 -1.3366  0.8441  0.5542
 8295SOL    HW225856   3.883   0.304   2.891  0.6020  1.6012 -2.4767
 8296SOL     OW25857   5.008   2.848   0.279 -0.0757  0.4115  0.6380
 8296SOL    HW125858   4.987   2.923   0.225 -0.8092  0.6329  1.2108
 8296SOL    HW225859   4.937   2.786   0.264  0.0920  0.1774  0.7917
 8297SOL     OW25860   4.122   4.073   0.338 -0.3619  0.4893 -0.1103
 8297SOL    HW125861   4.130   4.098   0.430  1.9128 -1.7480  0.3963
 8297SOL    HW225862   4.028   4.081   0.319 -0.8432  1.2424  2.3011
 8298SOL     OW25863   3.300   1.287   0.003 -0.4328 -0.0849  0.3443
 8298SOL    HW125864   3.288   1.382  -0.007 -1.9075 -0.2427  0.3577
 8298SOL    HW225865   3.391   1.272  -0.020 -0.4165  1.2259 -0.5601
 8299SOL     OW25866   5.795   1.869   0.447  0.0417  0.7960  0.0509
 8299SOL    HW125867   5.717   1.884   0.500 -0.7141 -1.3127 -0.3878
 8299SOL    HW225868   5.774   1.908   0.362 -1.6431 -1.8667 -0.8839
 8300SOL     OW25869   6.146   4.858   2.970  0.0650  0.0899 -0.5479
 8300SOL    HW125870   6.093   4.896   3.040  0.2491 -1.1499  0.2980
 8300SOL    HW225871   6.172   4.933   2.917 -1.4779  0.8723 -0.2677
 8301SOL     OW25872   3.036   4.000   4.916  0.3864  0.2941 -0.2907
 8301SOL    HW125873   3.092   3.966   4.986  0.5963 -0.4409 -0.8075
 8301SOL    HW225874   3.072   3.962   4.836 -0.2561  0.6015 -0.7296
 8302SOL     OW25875   2.503   2.622   3.613 -0.2342  0.2929  0.1765
 8302SOL    HW125876   2.432   2.675   3.651  0.0137  1.4889 -0.9520
 8302SOL    HW225877   2.561   2.603   3.687 -0.8204  0.8032  0.7800
 8303SOL     OW25878   2.764   6.136   2.324  0.0441 -0.0066 -0.6724
 8303SOL    HW125879   2.844   6.093   2.294 -0.4447 -0.8589 -0.7657
 8303SOL    HW225880   2.733   6.082   2.397  0.9592  1.7607  1.1205
 8304SOL     OW25881   4.145   0.283   1.017 -0.3457 -0.2153 -0.2086
 8304SOL    HW125882   4.187   0.275   1.102  0.8559  1.0927 -0.6309
 8304SOL    HW225883   4.200   0.345   0.969  0.3498 -2.6026 -2.7723
 8305SOL     OW25884   6.033   4.817   6.954  0.0524  0.3154 -0.3842
 8305SOL    HW125885   6.098   4.881   6.982 -0.0631  0.3676 -0.2296
 8305SOL    HW225886   6.053   4.738   7.004  0.0583  0.3018 -0.4083
 8306SOL     OW25887   2.909   3.702   5.918 -0.2146  0.5242 -0.1574
 8306SOL    HW125888   2.916   3.723   5.825  1.7108 -1.2536 -0.4838
 8306SOL    HW225889   2.997   3.713   5.952 -0.0185 -2.3874  0.5708
 8307SOL     OW25890   1.479   5.089   0.770  0.1321 -0.3875  0.0257
 8307SOL    HW125891   1.565   5.063   0.801  0.1320 -0.3527  0.0553
 8307SOL    HW225892   1.440   5.008   0.736  0.2040 -0.3889 -0.0525
 8308SOL     OW25893   2.683   1.132   5.126  0.0033  0.5389 -0.0689
 8308SOL    HW125894   2.758   1.137   5.185 -1.5185 -1.7422  2.2492
 8308SOL    HW225895   2.720   1.109   5.041  2.0441  1.4673  0.5036
 8309SOL     OW25896   4.867   2.617   7.231  0.2000  0.7202 -0.0366
 8309SOL    HW125897   4.891   2.688   7.172 -1.5222  2.5320  1.2963
 8309SOL    HW225898   4.882   2.537   7.180  0.6218  2.1008 -2.2062
 8310SOL     OW25899   3.706   5.165   1.496  0.0583 -0.0302 -0.5445
 8310SOL    HW125900   3.617   5.156   1.462  0.0567 -1.0347 -0.3140
 8310SOL    HW225901   3.704   5.244   1.550 -0.4301  0.5103 -1.3287
 8311SOL     OW25902   3.319   1.455   5.747  0.1030  0.4250 -0.2010
 8311SOL    HW125903   3.346   1.371   5.785 -0.6850  0.3360  0.1797
 8311SOL    HW225904   3.291   1.507   5.821  1.0181  1.2027 -0.3896
 8312SOL     OW25905   2.010   0.322   2.495  0.3587 -0.1739 -0.0480
 8312SOL    HW125906   2.016   0.226   2.494  0.7115 -0.1675 -2.2927
 8312SOL    HW225907   1.929   0.340   2.543  1.8436 -1.3932  3.2630
 8313SOL     OW25908   4.906   0.990   3.040  0.0390 -0.1141  0.1214
 8313SOL    HW125909   4.949   0.941   3.110  0.7098  2.4598  1.6400
 8313SOL    HW225910   4.815   0.999   3.069 -0.1978 -0.7906 -0.3785
 8314SOL     OW25911   6.931   6.529   0.563  0.1371 -0.5169 -0.1081
 8314SOL    HW125912   6.963   6.448   0.603  0.5569 -0.9831 -1.3185
 8314SOL    HW225913   6.976   6.532   0.478  0.3915  1.1664  0.0655
 8315SOL     OW25914   0.658   5.856   1.920 -0.0261  0.2383 -0.0829
 8315SOL    HW125915   0.625   5.837   2.008  0.2746 -1.1119 -0.2364
 8315SOL    HW225916   0.695   5.773   1.890  0.7372  0.9276 -1.1168
 8316SOL     OW25917   5.596   3.198   1.642  0.0955  0.4522  0.3965
 8316SOL    HW125918   5.654   3.155   1.580 -0.1125 -2.1456  1.8383
 8316SOL    HW225919   5.652   3.220   1.716 -0.0866  1.4207  0.2607
 8317SOL     OW25920   2.852   5.412   3.102 -0.4061  0.1102 -0.0804
 8317SOL    HW125921   2.840   5.379   3.013 -1.6430 -0.0765  0.1292
 8317SOL    HW225922   2.916   5.354   3.142  2.7748  2.1625 -1.8409
 8318SOL     OW25923   0.259   5.804   1.276  0.1340  0.2364  0.0199
 8318SOL    HW125924   0.342   5.762   1.298  0.1787 -0.2220 -0.9559
 8318SOL    HW225925   0.279   5.856   1.198 -0.8593 -1.2755 -1.3285
 8319SOL     OW25926   5.321   1.761   1.773 -0.3680  0.4388  0.0172
 8319SOL    HW125927   5.411   1.771   1.740  0.1234 -0.8412  0.8674
 8319SOL    HW225928   5.284   1.691   1.720 -1.0652  1.3140 -0.6789
 8320SOL     OW25929   5.720   0.003   0.221 -0.2938  0.2064 -0.3233
 8320SOL    HW125930   5.778  -0.022   0.293 -0.5673  0.6627  0.0645
 8320SOL    HW225931   5.762   0.080   0.182 -1.8320  2.1074  1.5281
 8321SOL     OW25932   5.353   6.108   1.910  0.6074 -0.0813  0.4098
 8321SOL    HW125933   5.436   6.082   1.870  1.2440  1.6433  0.5331
 8321SOL    HW225934   5.298   6.030   1.904  1.5870 -0.6843 -1.3919
 8322SOL     OW25935   3.594   1.750   5.052  0.6585  0.2015  0.0264
 8322SOL    HW125936   3.649   1.675   5.030  1.2594  0.0126  2.0055
 8322SOL    HW225937   3.639   1.792   5.125 -0.2792  1.8297 -0.2840
 8323SOL     OW25938   3.222   4.238   6.664 -0.4067  0.3177  0.1251
 8323SOL    HW125939   3.274   4.237   6.584 -2.0021  1.2653 -0.9843
 8323SOL    HW225940   3.227   4.148   6.697  1.7254  0.3337 -0.0213
 8324SOL     OW25941   6.335   4.287   4.537  0.2585  0.3315 -0.7028
 8324SOL    HW125942   6.296   4.200   4.536  1.4317 -0.2227 -0.9869
 8324SOL    HW225943   6.290   4.335   4.467 -1.3866  0.4397  0.3894
 8325SOL     OW25944   3.324   5.841   1.365 -0.0187  0.1073  0.6951
 8325SOL    HW125945   3.355   5.791   1.441  0.6477 -0.1213  0.2818
 8325SOL    HW225946   3.372   5.923   1.369 -1.1542  0.7803  1.4042
 8326SOL     OW25947   6.601   1.797   0.211  0.2739  0.1301 -0.0255
 8326SOL    HW125948   6.654   1.731   0.167  0.2995 -0.0946  0.3474
 8326SOL    HW225949   6.608   1.777   0.304 -1.3424 -0.5886 -0.0180
 8327SOL     OW25950   5.403   3.912   1.929  0.1899  0.2518  0.1131
 8327SOL    HW125951   5.345   3.945   1.861 -0.8589 -0.1542  0.7746
 8327SOL    HW225952   5.469   3.980   1.941  0.3477  0.3613 -1.2324
 8328SOL     OW25953   6.738   2.132   0.408  0.6733 -0.4323 -0.0696
 8328SOL    HW125954   6.689   2.111   0.329  1.4846 -2.0179 -0.1890
 8328SOL    HW225955   6.673   2.164   0.470 -0.3423 -1.4193 -0.6030
 8329SOL     OW25956   4.946   2.250   0.129  0.1524 -0.2217 -0.4798
 8329SOL    HW125957   4.855   2.242   0.100 -0.1563 -0.2575  0.4690
 8329SOL    HW225958   4.978   2.330   0.088 -0.2541 -0.2961 -0.9457
 8330SOL     OW25959   2.251   7.010   7.283 -0.1217 -0.3488  0.8778
 8330SOL    HW125960   2.253   6.972   7.195 -2.0114  1.4111 -0.0262
 8330SOL    HW225961   2.251   6.935   7.342  1.0870 -1.5760 -0.6010
 8331SOL     OW25962   6.741   4.414   1.891 -0.7043 -0.2358 -0.2357
 8331SOL    HW125963   6.675   4.472   1.852 -1.0646 -1.4170 -1.4381
 8331SOL    HW225964   6.699   4.380   1.970 -1.4273 -0.7103 -0.8085
 8332SOL     OW25965   6.357   3.887   5.662 -0.6583 -0.5435  0.4156
 8332SOL    HW125966   6.429   3.920   5.608  0.2615 -1.6179  0.9476
 8332SOL    HW225967   6.284   3.877   5.601  0.0680 -0.8098 -0.4374
 8333SOL     OW25968   5.669   0.073   4.849 -0.2983 -0.0333 -0.0553
 8333SOL    HW125969   5.719   0.063   4.929 -0.7971 -0.6292  0.1915
 8333SOL    HW225970   5.735   0.074   4.779  0.1934  1.2884  0.4032
 8334SOL     OW25971   6.362   2.108   2.348 -0.2271  0.0613  0.0635
 8334SOL    HW125972   6.415   2.079   2.274 -1.5783 -0.6526 -0.6628
 8334SOL    HW225973   6.282   2.142   2.308 -0.9080 -0.1730  1.1820
 8335SOL     OW25974   1.768   4.249   6.613  0.1948  0.0813 -0.5914
 8335SOL    HW125975   1.833   4.296   6.665  0.0178 -1.8361  1.5377
 8335SOL    HW225976   1.812   4.168   6.587 -0.2997  0.2357 -1.9987
 8336SOL     OW25977   4.148   0.374   6.976 -0.1919  0.2842  0.1363
 8336SOL    HW125978   4.214   0.408   6.916 -0.8486  0.3702 -0.5519
 8336SOL    HW225979   4.066   0.412   6.946 -0.6308 -0.2017  0.6887
 8337SOL     OW25980   4.553   0.932   7.033  0.2176 -0.1508  0.6488
 8337SOL    HW125981   4.632   0.977   7.003  1.4448 -1.7483  1.3238
 8337SOL    HW225982   4.503   0.915   6.953  0.6094  0.7799  0.1942
 8338SOL     OW25983   2.000   2.282   3.372 -0.1614  0.3691  0.6594
 8338SOL    HW125984   2.005   2.187   3.372 -0.0559  0.3555 -0.6664
 8338SOL    HW225985   1.983   2.306   3.280  1.9968  1.7076  0.5327
 8339SOL     OW25986   7.379   6.795   3.629  0.0687  0.1060  0.2116
 8339SOL    HW125987   7.362   6.818   3.537  0.3902  0.7600  0.3062
 8339SOL    HW225988   7.344   6.868   3.679  1.5934  0.6965  0.4943
 8340SOL     OW25989   6.602   6.849   4.398 -0.1839 -0.0850 -1.0592
 8340SOL    HW125990   6.674   6.890   4.350 -0.1470 -0.7803 -1.6025
 8340SOL    HW225991   6.557   6.795   4.334 -0.4106 -0.6688 -0.4251
 8341SOL     OW25992   5.635   0.386   1.223  0.0726  0.4686  0.0120
 8341SOL    HW125993   5.664   0.302   1.259 -0.2986  0.6138  0.6554
 8341SOL    HW225994   5.669   0.452   1.283 -1.1492  0.6721  0.5067
 8342SOL     OW25995   5.675   5.711   1.357  0.2802  0.2093  0.2536
 8342SOL    HW125996   5.740   5.682   1.292  0.3949 -1.3510  1.0173
 8342SOL    HW225997   5.642   5.630   1.396 -3.5420  0.7719 -1.3746
 8343SOL     OW25998   5.774   6.309   7.097  0.3057 -1.0490 -0.2249
 8343SOL    HW125999   5.687   6.312   7.138 -0.3452  0.4022 -1.5810
 8343SOL    HW226000   5.832   6.275   7.165 -0.8846  0.3237  1.5786
 8344SOL     OW26001   5.400   6.642   6.284 -0.5321 -0.3747 -0.2743
 8344SOL    HW126002   5.459   6.620   6.212 -0.9103 -0.7013 -0.4852
 8344SOL    HW226003   5.312   6.630   6.248 -0.7717  1.4859 -0.4073
 8345SOL     OW26004   2.589   0.684   2.178 -0.0542 -0.2089  0.4044
 8345SOL    HW126005   2.610   0.596   2.209 -1.0366 -1.0586 -1.1765
 8345SOL    HW226006   2.509   0.708   2.226 -0.5597 -0.7708 -0.1315
 8346SOL     OW26007   2.995   7.221   0.332  0.0220  0.1742 -0.4986
 8346SOL    HW126008   2.928   7.283   0.305 -0.3619  0.4404  0.9751
 8346SOL    HW226009   2.958   7.178   0.410  1.4355  0.1404  0.1866
 8347SOL     OW26010   1.120   4.203   1.091  0.1037 -0.3490  0.2797
 8347SOL    HW126011   1.124   4.298   1.095  0.2162 -0.3787  1.1429
 8347SOL    HW226012   1.026   4.183   1.093 -0.0709 -0.2035 -2.4544
 8348SOL     OW26013   0.849   0.644   1.312  0.1240 -0.2937 -0.3687
 8348SOL    HW126014   0.887   0.666   1.228  0.5373  0.6811  0.0602
 8348SOL    HW226015   0.844   0.548   1.312 -0.6374 -0.2769 -1.8144
 8349SOL     OW26016   3.887   3.508   3.392  0.0379 -0.2132  0.1606
 8349SOL    HW126017   3.919   3.582   3.443 -0.4307 -0.9128  1.5222
 8349SOL    HW226018   3.890   3.434   3.452 -3.1620 -0.5242  0.0999
 8350SOL     OW26019   5.622   0.654   2.252 -0.0182 -0.1507  0.0937
 8350SOL    HW126020   5.701   0.616   2.214 -0.4043  0.0342 -0.9311
 8350SOL    HW226021   5.645   0.745   2.269 -0.4971  0.3609 -1.7832
 8351SOL     OW26022   5.810   4.014   1.776  0.4356  0.0090  0.2123
 8351SOL    HW126023   5.736   4.030   1.717  1.1201  3.1823  0.0188
 8351SOL    HW226024   5.789   4.065   1.854  1.4163 -0.8575  1.0652
 8352SOL     OW26025   5.191   6.397   0.710 -0.4406 -0.3441  0.5641
 8352SOL    HW126026   5.110   6.389   0.761  0.9610  1.0230  3.2163
 8352SOL    HW226027   5.193   6.488   0.681  0.5579 -0.0580  1.4246
 8353SOL     OW26028   1.756   5.698   3.840 -0.2199 -0.0452 -0.2909
 8353SOL    HW126029   1.698   5.742   3.779  0.9924  0.3745 -1.1755
 8353SOL    HW226030   1.757   5.606   3.811 -0.3400 -0.0257 -0.3529
 8354SOL     OW26031   6.483   5.052   2.987 -0.3592  0.3627 -0.1120
 8354SOL    HW126032   6.431   5.045   2.907  2.1011 -2.8082 -1.6755
 8354SOL    HW226033   6.537   5.130   2.974 -1.4586  1.0767 -0.5226
 8355SOL     OW26034   3.609   2.782   0.871  0.0935 -0.6569 -0.3835
 8355SOL    HW126035   3.633   2.853   0.932 -0.9382  0.4253 -1.1922
 8355SOL    HW226036   3.691   2.760   0.827  0.4149  0.1000 -0.1808
 8356SOL     OW26037   3.395   0.700   0.738 -0.6541 -0.3460 -0.5190
 8356SOL    HW126038   3.430   0.662   0.657 -0.5222 -0.9828 -0.1687
 8356SOL    HW226039   3.461   0.763   0.766 -1.0949  0.5362 -1.3664
 8357SOL     OW26040   5.397   6.945   1.515  0.0739 -0.0701 -0.1575
 8357SOL    HW126041   5.483   6.904   1.522 -0.3871 -0.7925  2.2227
 8357SOL    HW226042   5.416   7.038   1.502  1.1927 -0.3351 -0.5612
 8358SOL     OW26043   4.314   6.096   2.642 -0.2312  0.0244  0.2497
 8358SOL    HW126044   4.375   6.168   2.628  1.3422 -1.4065 -0.6316
 8358SOL    HW226045   4.313   6.084   2.737 -0.8282  1.4187  0.4452
 8359SOL     OW26046   0.544   2.925   4.697 -0.1227  0.3172 -0.0230
 8359SOL    HW126047   0.587   2.938   4.782 -0.4206  1.4914 -0.0370
 8359SOL    HW226048   0.453   2.906   4.719  0.0143 -0.4348 -0.0589
 8360SOL     OW26049   7.048   6.204   5.938 -0.1635  0.6492 -0.0490
 8360SOL    HW126050   6.958   6.210   5.905 -0.5376 -0.0196  0.7927
 8360SOL    HW226051   7.038   6.215   6.033  0.8251  2.1486 -0.0970
 8361SOL     OW26052   2.285   7.120   3.715 -0.0005 -0.2445  0.3855
 8361SOL    HW126053   2.308   7.203   3.673  0.5601  0.2599  1.6302
 8361SOL    HW226054   2.342   7.116   3.792 -1.7728 -0.5688  1.7516
 8362SOL     OW26055   4.598   1.610   2.742  0.2241 -0.1296  0.2291
 8362SOL    HW126056   4.559   1.692   2.774 -0.0130 -0.1662  0.0369
 8362SOL    HW226057   4.564   1.601   2.653 -0.2924 -0.7885  0.4896
 8363SOL     OW26058   5.072   7.336   6.933  0.1707 -0.0296 -0.0286
 8363SOL    HW126059   5.158   7.348   6.891 -0.0862  0.8348 -0.3108
 8363SOL    HW226060   5.048   7.246   6.911 -0.2995  0.6125 -2.4064
 8364SOL     OW26061   4.164   0.526   4.093  0.2355 -0.0269  0.0316
 8364SOL    HW126062   4.131   0.453   4.146  0.1271  0.0023  0.0047
 8364SOL    HW226063   4.115   0.602   4.124 -0.0470 -0.0622 -0.3168
 8365SOL     OW26064   1.440   1.610   1.581 -0.4166  0.4947 -0.3425
 8365SOL    HW126065   1.514   1.639   1.635 -0.7573  1.5499 -0.4318
 8365SOL    HW226066   1.407   1.690   1.540 -2.8045  0.3691  1.1680
 8366SOL     OW26067   5.821   3.262   6.067  0.1484  0.3954  0.2785
 8366SOL    HW126068   5.760   3.322   6.112  0.1994  0.8252 -0.2179
 8366SOL    HW226069   5.862   3.212   6.138 -0.4739  0.3964  0.6488
 8367SOL     OW26070   5.341   0.292   2.983  1.1371  0.0319  0.2415
 8367SOL    HW126071   5.311   0.337   2.904 -2.7638 -1.5136  0.6130
 8367SOL    HW226072   5.362   0.203   2.953 -1.1346 -0.8058  0.9013
 8368SOL     OW26073   4.655   6.867   6.129  0.6011 -0.4962  0.3460
 8368SOL    HW126074   4.708   6.889   6.053 -1.1245 -1.6916 -1.3007
 8368SOL    HW226075   4.682   6.778   6.153  0.8135 -0.2997  0.8488
 8369SOL     OW26076   3.914   0.136   2.627 -0.1262  0.0950 -0.4766
 8369SOL    HW126077   3.923   0.190   2.705  0.8664  1.4069 -1.4470
 8369SOL    HW226078   3.988   0.161   2.571 -0.4498 -1.2489 -1.5834
 8370SOL     OW26079   7.114   2.294   3.724  0.4492 -0.0915  0.2530
 8370SOL    HW126080   7.103   2.362   3.791 -0.7205 -0.2042  0.1878
 8370SOL    HW226081   7.161   2.338   3.653 -0.3714  0.6972  0.1746
 8371SOL     OW26082   2.762   2.107   7.248  0.2842  0.1462 -0.4807
 8371SOL    HW126083   2.730   2.076   7.333  0.7110  0.4265 -0.2177
 8371SOL    HW226084   2.796   2.195   7.266 -0.5239  0.6058 -1.1324
 8372SOL     OW26085   0.748   1.971   7.227  0.0515 -0.2172 -0.2635
 8372SOL    HW126086   0.829   2.023   7.224 -0.2594  0.2181 -2.5882
 8372SOL    HW226087   0.777   1.882   7.205 -0.0682 -0.0904 -0.9478
 8373SOL     OW26088   3.001   6.002   2.234 -0.0888  0.0775 -0.2447
 8373SOL    HW126089   3.045   5.969   2.155 -0.3305  0.4061 -0.5202
 8373SOL    HW226090   3.046   6.084   2.255 -0.1099  0.0568 -0.1165
 8374SOL     OW26091   2.850   4.693   4.788  0.4248  0.1237 -0.3519
 8374SOL    HW126092   2.850   4.603   4.819 -0.9303  0.3938  0.5575
 8374SOL    HW226093   2.866   4.687   4.694  0.5342 -1.0413 -0.2657
 8375SOL     OW26094   2.286   2.807   3.394  0.0039  0.0312  0.0506
 8375SOL    HW126095   2.371   2.838   3.424  0.6538  0.3625 -1.9875
 8375SOL    HW226096   2.232   2.802   3.474  0.8980  3.0549  0.9567
 8376SOL     OW26097   4.135   0.975   4.468  0.5605 -0.8378  0.7746
 8376SOL    HW126098   4.127   0.926   4.551  0.7945 -0.6182  0.9294
 8376SOL    HW226099   4.170   1.060   4.494  0.1991 -0.6039  0.4967
 8377SOL     OW26100   0.267   7.342   4.471 -0.2327 -0.0200 -0.5625
 8377SOL    HW126101   0.240   7.301   4.389 -0.4802 -1.2280  0.1038
 8377SOL    HW226102   0.291   7.269   4.528 -0.5334  0.7716  0.6159
 8378SOL     OW26103   5.272   0.763   2.664  0.0099  0.2783 -0.5132
 8378SOL    HW126104   5.200   0.724   2.713 -0.3637  0.2243 -1.1050
 8378SOL    HW226105   5.230   0.813   2.594  0.5564 -0.0142 -1.0558
 8379SOL     OW26106   4.554   2.031   7.167  0.1882 -0.1236 -0.0169
 8379SOL    HW126107   4.598   2.056   7.086  3.2881  0.2016  1.6299
 8379SOL    HW226108   4.541   2.114   7.213 -0.7441 -0.3915  0.2243
 8380SOL     OW26109   3.062   1.533   0.201  1.0092 -0.0201  0.1409
 8380SOL    HW126110   3.141   1.487   0.231  1.2341  0.9593  1.0792
 8380SOL    HW226111   3.009   1.544   0.280  0.3406  0.1488 -0.3260
 8381SOL     OW26112   6.582   7.217   4.229  0.2324  0.1640 -0.2947
 8381SOL    HW126113   6.641   7.148   4.258  1.4091  1.2767  0.0311
 8381SOL    HW226114   6.534   7.178   4.156  0.7170 -1.0482  0.0059
 8382SOL     OW26115   7.105   3.776   4.413  0.1587 -0.1444 -0.3907
 8382SOL    HW126116   7.136   3.803   4.327  0.2946 -1.3257 -0.7261
 8382SOL    HW226117   7.177   3.725   4.450  0.0467  0.2353  0.3700
 8383SOL     OW26118   1.532   2.515   7.028  0.3469  0.0168 -0.0443
 8383SOL    HW126119   1.518   2.572   6.953  1.0501  0.7186  0.3468
 8383SOL    HW226120   1.598   2.452   6.999 -1.3077 -1.4025 -0.8835
 8384SOL     OW26121   6.819   0.087   3.579  0.2820  0.3974 -0.3460
 8384SOL    HW126122   6.741   0.137   3.603  0.4489  0.6586 -0.3406
 8384SOL    HW226123   6.835   0.031   3.655 -0.6186 -0.5635 -0.8420
 8385SOL     OW26124   0.852   0.543   0.228 -0.2327  0.3216 -0.0670
 8385SOL    HW126125   0.800   0.608   0.276  0.0602  0.7308 -0.2972
 8385SOL    HW226126   0.942   0.569   0.243 -0.1489  1.1688 -1.8036
 8386SOL     OW26127   4.013   5.063   2.053 -0.1224  0.2990  0.1075
 8386SOL    HW126128   4.006   5.145   2.003  0.6562 -0.1038 -0.6905
 8386SOL    HW226129   3.984   5.087   2.141  0.1584  1.4606 -0.0886
 8387SOL     OW26130   3.016   1.147   2.627 -0.2942  0.4014 -0.5770
 8387SOL    HW126131   2.947   1.147   2.694 -1.4695 -0.0667 -1.7430
 8387SOL    HW226132   2.970   1.123   2.546  1.1363  0.7194 -1.5050
 8388SOL     OW26133   0.493   6.989   6.115  0.5343  0.3334  0.4989
 8388SOL    HW126134   0.558   7.016   6.051  1.4363  1.0559  1.6839
 8388SOL    HW226135   0.501   7.053   6.186  0.2237 -0.9751  1.7565
 8389SOL     OW26136   1.277   5.559   5.525 -0.2536  0.6308  0.1572
 8389SOL    HW126137   1.327   5.627   5.480 -1.0243  0.4668 -0.9775
 8389SOL    HW226138   1.229   5.514   5.455 -1.9384  0.7428  1.1919
 8390SOL     OW26139   5.492   5.896   1.342  0.0455  0.4503  0.1280
 8390SOL    HW126140   5.557   5.826   1.340 -0.4173  0.0283 -1.0772
 8390SOL    HW226141   5.461   5.897   1.432 -0.9020 -1.8465 -0.1012
 8391SOL     OW26142   6.389   4.666   6.826 -0.0483  0.2205 -0.4571
 8391SOL    HW126143   6.304   4.686   6.787 -1.6040  0.1904  2.5543
 8391SOL    HW226144   6.400   4.572   6.812 -1.7581 -0.2813  1.1250
 8392SOL     OW26145   2.478   1.209   1.331 -0.4214 -0.7687  0.0603
 8392SOL    HW126146   2.395   1.188   1.289 -1.1451  0.7066  0.7042
 8392SOL    HW226147   2.509   1.287   1.285  0.7334 -1.4111 -0.3068
 8393SOL     OW26148   3.631   4.820   4.132 -0.2109 -0.1447  0.0147
 8393SOL    HW126149   3.561   4.827   4.068 -0.3245 -0.1484  0.1376
 8393SOL    HW226150   3.596   4.861   4.211  1.1720  3.2364 -0.9283
 8394SOL     OW26151   2.766   5.132   3.657  0.5031 -0.3243  0.1777
 8394SOL    HW126152   2.803   5.197   3.597 -0.7180  0.2774  0.0422
 8394SOL    HW226153   2.790   5.164   3.744  1.3236 -0.5936  0.0547
 8395SOL     OW26154   0.326   1.799   5.706  0.2820  0.0333  0.3980
 8395SOL    HW126155   0.412   1.833   5.681 -0.1350  0.9601  0.1650
 8395SOL    HW226156   0.284   1.774   5.623  1.3887 -3.1924  0.6855
 8396SOL     OW26157   1.943   6.853   0.375  0.3938  0.6576 -0.4443
 8396SOL    HW126158   1.964   6.779   0.318  1.8435  1.3368 -0.8389
 8396SOL    HW226159   2.019   6.862   0.432  0.3005  1.9228 -0.4955
 8397SOL     OW26160   2.729   5.782   1.683  0.6999 -0.2418 -0.3259
 8397SOL    HW126161   2.717   5.853   1.621  0.0357  0.5846  0.7178
 8397SOL    HW226162   2.757   5.825   1.764 -1.9188 -0.8770  1.0251
 8398SOL     OW26163   5.028   3.334   5.759  0.3824 -0.0936  0.4654
 8398SOL    HW126164   4.994   3.412   5.804  1.1552 -0.7344  2.2352
 8398SOL    HW226165   5.117   3.323   5.792  1.3530 -0.1043 -1.9466
 8399SOL     OW26166   3.460   5.611   4.143  0.3771 -0.2005  0.5322
 8399SOL    HW126167   3.555   5.601   4.157  0.4072 -0.0065  0.4754
 8399SOL    HW226168   3.439   5.551   4.072  1.1288  2.3525 -2.0543
 8400SOL     OW26169   6.333   2.332   1.228 -0.4235  0.1525 -0.2983
 8400SOL    HW126170   6.390   2.408   1.242  0.8193 -0.4678 -1.7532
 8400SOL    HW226171   6.367   2.265   1.288 -2.0474  0.9256  1.6179
 8401SOL     OW26172   4.503   5.888   1.707  0.1664  0.3337 -0.5072
 8401SOL    HW126173   4.451   5.964   1.731  1.0080  0.8819 -0.3550
 8401SOL    HW226174   4.489   5.878   1.613 -1.6523 -0.6640 -0.1606
 8402SOL     OW26175   7.373   5.768   1.388 -0.3127  0.4431  0.1107
 8402SOL    HW126176   7.466   5.775   1.365 -0.3513  0.6353  0.0070
 8402SOL    HW226177   7.327   5.799   1.310 -0.5600 -2.2765 -0.9023
 8403SOL     OW26178   6.350   0.427   6.841 -0.3674 -0.4053  0.0929
 8403SOL    HW126179   6.261   0.459   6.857 -0.0479 -0.4469  2.2113
 8403SOL    HW226180   6.406   0.494   6.880  0.7030  0.7897 -3.1912
 8404SOL     OW26181   5.232   5.095   1.739  0.7333 -0.1334  0.1590
 8404SOL    HW126182   5.273   5.038   1.674 -0.2584  0.2433 -0.8456
 8404SOL    HW226183   5.243   5.184   1.704 -0.0667  0.0507  0.3403
 8405SOL     OW26184   1.439   4.653   4.041  0.1450  0.6115 -0.3918
 8405SOL    HW126185   1.472   4.740   4.064  1.0294  0.0724  0.4314
 8405SOL    HW226186   1.414   4.660   3.949 -0.8542  2.0465 -0.0405
 8406SOL     OW26187   5.660   5.069   1.148 -0.2128  0.0523 -0.6662
 8406SOL    HW126188   5.583   5.104   1.194 -1.5874 -1.8257 -1.3970
 8406SOL    HW226189   5.703   5.013   1.212  0.0233  0.3781 -0.5386
 8407SOL     OW26190   5.848   0.191   7.232 -0.0538 -0.2390 -0.7977
 8407SOL    HW126191   5.817   0.233   7.152 -1.9869  0.7742  0.3958
 8407SOL    HW226192   5.866   0.100   7.206  0.9182  0.4453 -2.6933
 8408SOL     OW26193   6.896   0.349   2.354  0.1290 -0.0844  0.2978
 8408SOL    HW126194   6.880   0.427   2.300 -1.1378 -0.9863 -0.7084
 8408SOL    HW226195   6.824   0.290   2.331  1.7158 -2.0349  0.1095
 8409SOL     OW26196   7.188   1.043   3.491 -0.1748  0.1756  0.2235
 8409SOL    HW126197   7.167   1.127   3.449 -2.2287  0.4916  1.7524
 8409SOL    HW226198   7.113   0.987   3.472  0.2250 -0.6486  1.0043
 8410SOL     OW26199   2.180   6.703   5.768 -0.3815 -0.3306 -0.2394
 8410SOL    HW126200   2.212   6.633   5.825  1.4015 -1.3807 -2.3409
 8410SOL    HW226201   2.260   6.740   5.729 -1.1715  3.4971  1.3234
 8411SOL     OW26202   6.795   3.083   2.318 -0.0648 -0.4449  0.6131
 8411SOL    HW126203   6.785   3.038   2.402 -1.4362 -1.7680 -0.1977
 8411SOL    HW226204   6.760   3.021   2.254 -0.8892  1.3084 -0.7233
 8412SOL     OW26205   0.617   2.695   5.914  0.1880 -0.2759 -0.4103
 8412SOL    HW126206   0.538   2.645   5.936  0.3159 -0.6216 -0.7354
 8412SOL    HW226207   0.636   2.746   5.993 -0.8105  0.4155 -0.5928
 8413SOL     OW26208   2.584   4.297   1.184 -0.6404  0.1215 -0.1763
 8413SOL    HW126209   2.493   4.288   1.213 -0.6486  0.4638 -0.0967
 8413SOL    HW226210   2.607   4.388   1.204 -0.3578  0.1040 -0.4171
 8414SOL     OW26211   6.430   2.598   7.005 -0.3099 -0.2789 -0.3811
 8414SOL    HW126212   6.471   2.587   6.919  0.3378 -2.9147  0.1955
 8414SOL    HW226213   6.382   2.517   7.020 -0.1575 -0.0123  1.8804
 8415SOL     OW26214   2.425   7.091   3.976 -0.2292  0.2320  0.5277
 8415SOL    HW126215   2.499   7.150   3.991 -0.3718  0.9549 -1.2750
 8415SOL    HW226216   2.348   7.141   4.002 -0.1330 -0.3855  2.0599
 8416SOL     OW26217   5.739   0.441   5.544  0.0432 -0.3468  0.1352
 8416SOL    HW126218   5.670   0.375   5.549 -0.2398 -0.0766 -0.0908
 8416SOL    HW226219   5.719   0.501   5.617  0.2635 -0.4774  0.3029
 8417SOL     OW26220   1.611   6.636   1.224  0.2832 -0.0491  0.2918
 8417SOL    HW126221   1.656   6.558   1.192 -0.3321 -0.0929 -0.5242
 8417SOL    HW226222   1.676   6.683   1.275  1.2364 -0.1283 -0.8127
 8418SOL     OW26223   7.195   4.966   7.216 -0.1298 -0.0436 -0.1315
 8418SOL    HW126224   7.169   5.057   7.233 -3.0640 -0.7518 -0.3767
 8418SOL    HW226225   7.172   4.920   7.297 -0.5224 -0.9088 -0.7327
 8419SOL     OW26226   6.836   0.544   2.697  0.3298  0.3068  0.6067
 8419SOL    HW126227   6.904   0.479   2.678  0.1975  0.0345  1.0458
 8419SOL    HW226228   6.755   0.494   2.700  0.2412  0.4702  1.0651
 8420SOL     OW26229   4.729   1.940   5.635 -0.1678  0.0043  0.6188
 8420SOL    HW126230   4.663   1.973   5.696  0.0796  1.9126 -0.0594
 8420SOL    HW226231   4.800   2.005   5.639  0.4750 -0.5824 -0.6301
 8421SOL     OW26232   0.447   6.301   0.119 -0.1785 -0.2398  0.5156
 8421SOL    HW126233   0.516   6.301   0.053 -0.3207 -0.7084  0.3666
 8421SOL    HW226234   0.431   6.394   0.137 -1.1337 -0.0364 -1.1606
 8422SOL     OW26235   4.865   0.714   7.024 -0.2912  0.4499  0.2135
 8422SOL    HW126236   4.940   0.670   7.064 -0.7193 -1.8410 -1.2838
 8422SOL    HW226237   4.886   0.807   7.029  3.0907 -0.1058 -0.8766
 8423SOL     OW26238   2.062   1.337   2.708 -0.2869 -0.2288 -0.0234
 8423SOL    HW126239   1.971   1.323   2.679 -1.1185 -1.0284  2.6972
 8423SOL    HW226240   2.061   1.422   2.750  0.1148 -0.4312  0.4022
 8424SOL     OW26241   7.287   5.427   0.914  0.4955 -0.0763 -0.4654
 8424SOL    HW126242   7.229   5.404   0.842  1.6723 -2.1960 -0.8312
 8424SOL    HW226243   7.229   5.451   0.986 -0.7199  0.9098 -1.7389
 8425SOL     OW26244   6.239   0.226   5.675 -0.4613  0.0348  0.2176
 8425SOL    HW126245   6.182   0.173   5.620  0.0731  1.0418 -1.3613
 8425SOL    HW226246   6.297   0.271   5.614  0.6539  0.6422  1.6523
 8426SOL     OW26247   2.393   0.415   0.674  1.1180 -0.6674  0.1462
 8426SOL    HW126248   2.373   0.323   0.692  0.4014 -0.6877 -0.7010
 8426SOL    HW226249   2.488   0.416   0.661  1.0096 -1.4634 -0.7973
 8427SOL     OW26250   5.291   6.722   1.307  0.3239 -0.1774 -0.5327
 8427SOL    HW126251   5.381   6.742   1.281  0.6104 -0.7033  0.0316
 8427SOL    HW226252   5.258   6.666   1.236 -0.2829  1.7058 -1.8110
 8428SOL     OW26253   3.529   5.910   4.901 -0.1582 -0.8676 -0.2022
 8428SOL    HW126254   3.454   5.879   4.850 -1.4623  0.3680  0.8906
 8428SOL    HW226255   3.580   5.962   4.840 -0.2092 -1.6522 -0.9393
 8429SOL     OW26256   6.858   0.087   1.359  0.1147  0.0859  0.3773
 8429SOL    HW126257   6.817   0.170   1.384 -1.8772 -0.9372  0.6668
 8429SOL    HW226258   6.804   0.054   1.287  0.9633 -0.9068  0.1729
 8430SOL     OW26259   5.928   0.580   6.634 -0.4742  0.1520  0.2945
 8430SOL    HW126260   5.987   0.504   6.631 -1.0136 -0.3403  1.4432
 8430SOL    HW226261   5.911   0.601   6.543  0.8743 -0.1713 -0.0513
 8431SOL     OW26262   0.713   6.875   0.784  0.2908  0.0649  0.1171
 8431SOL    HW126263   0.665   6.797   0.758  0.1827 -0.7175  2.4518
 8431SOL    HW226264   0.790   6.842   0.831  1.7370  1.3431 -1.2182
 8432SOL     OW26265   7.081   6.639   3.876  0.2391  0.6626 -0.1780
 8432SOL    HW126266   7.004   6.588   3.902  0.8222  0.9405  2.3291
 8432SOL    HW226267   7.055   6.681   3.794 -1.8776 -0.1120  0.0313
 8433SOL     OW26268   1.921   3.865   5.492  0.5056  0.2532  0.5814
 8433SOL    HW126269   1.936   3.834   5.402 -1.0109 -0.8638  0.6650
 8433SOL    HW226270   1.919   3.961   5.484 -3.1371  0.2160 -1.3404
 8434SOL     OW26271   0.058   2.363   3.775  0.1686  0.1587  0.0359
 8434SOL    HW126272  -0.030   2.399   3.765 -0.4312 -1.5454 -1.2592
 8434SOL    HW226273   0.068   2.353   3.870 -0.7298  1.0487  0.2486
 8435SOL     OW26274   5.596   3.718   4.873 -0.0909 -0.2701 -0.5231
 8435SOL    HW126275   5.512   3.673   4.866 -0.0454 -0.3972 -0.2353
 8435SOL    HW226276   5.598   3.777   4.797 -0.9668  0.6337  0.1458
 8436SOL     OW26277   3.069   6.642   3.822 -0.1837 -0.1207 -0.0933
 8436SOL    HW126278   3.011   6.631   3.897 -0.8564 -0.7876 -0.6977
 8436SOL    HW226279   3.023   6.705   3.765  1.0386  1.6041  0.7426
 8437SOL     OW26280   5.747   2.201   5.969 -0.4116  0.0880 -0.0438
 8437SOL    HW126281   5.715   2.132   6.027  0.9808  0.8752  1.7666
 8437SOL    HW226282   5.724   2.282   6.014 -0.4994  0.7780 -1.2904
 8438SOL     OW26283   6.806   5.664   0.302  0.2535  0.2807  0.0173
 8438SOL    HW126284   6.772   5.644   0.214  0.1593 -0.7555  0.2772
 8438SOL    HW226285   6.899   5.682   0.287  0.5889 -1.4048 -0.1239
 8439SOL     OW26286   1.163   1.139   2.665 -0.2289  0.7226 -0.4374
 8439SOL    HW126287   1.238   1.151   2.723 -0.3167  0.0696 -0.1738
 8439SOL    HW226288   1.139   1.047   2.676 -1.9641  1.2412  0.5926
 8440SOL     OW26289   1.491   2.579   4.063  0.3351  0.4724 -0.1937
 8440SOL    HW126290   1.496   2.508   3.998 -1.6161 -0.2425  0.3566
 8440SOL    HW226291   1.560   2.640   4.037  1.8104 -1.3967 -0.9606
 8441SOL     OW26292   6.252   5.459   3.576  0.3433  0.6493 -0.0151
 8441SOL    HW126293   6.321   5.447   3.641  0.8064 -2.0710 -0.8765
 8441SOL    HW226294   6.284   5.529   3.518  1.7391  0.3760  0.3910
 8442SOL     OW26295   1.176   1.707   4.834  0.7584 -0.3784  0.4606
 8442SOL    HW126296   1.193   1.800   4.817  1.2087 -0.6167 -0.4416
 8442SOL    HW226297   1.098   1.707   4.891 -0.3152  0.5011 -0.9315
 8443SOL     OW26298   0.687   1.092   1.591  0.2307  0.1864  0.0977
 8443SOL    HW126299   0.740   1.012   1.582  0.6682  0.5827 -0.9661
 8443SOL    HW226300   0.656   1.089   1.682  1.9582 -0.1388  0.7196
 8444SOL     OW26301   0.894   1.505   0.210  0.7221 -0.5077  0.4655
 8444SOL    HW126302   0.839   1.545   0.277  0.5285  0.7894 -0.4387
 8444SOL    HW226303   0.832   1.471   0.145  0.9181  1.4177 -0.8203
 8445SOL     OW26304   0.552   1.436   1.954 -0.4993  0.0263  0.1517
 8445SOL    HW126305   0.611   1.403   2.022  0.9107 -0.3607 -1.1842
 8445SOL    HW226306   0.605   1.498   1.904 -1.4217  0.1404 -0.7271
 8446SOL     OW26307   6.125   2.360   6.259  0.7488 -0.2730  0.0957
 8446SOL    HW126308   6.122   2.391   6.168  0.7569 -3.6384 -1.1915
 8446SOL    HW226309   6.205   2.307   6.264  0.4234 -0.6502  1.8801
 8447SOL     OW26310   6.413   4.123   3.118  0.3706 -0.0639  0.1163
 8447SOL    HW126311   6.380   4.034   3.129 -1.4669  0.7277  1.4964
 8447SOL    HW226312   6.334   4.178   3.117  1.4019  1.5122 -1.5022
 8448SOL     OW26313   4.268   6.685   3.403 -0.3310 -0.2634  0.2993
 8448SOL    HW126314   4.354   6.643   3.407  0.3427  0.9121 -0.8078
 8448SOL    HW226315   4.267   6.729   3.318 -2.3719 -0.9253 -0.0785
 8449SOL     OW26316   2.123   1.525   1.044 -0.6215  0.1164  0.2565
 8449SOL    HW126317   2.128   1.489   1.132 -0.5869  0.1014  0.2483
 8449SOL    HW226318   2.095   1.451   0.990 -0.5685  0.1063  0.2427
 8450SOL     OW26319   0.637   5.749   3.006 -0.1747 -0.1524  0.1671
 8450SOL    HW126320   0.729   5.767   3.020 -0.0371 -0.6292 -0.0984
 8450SOL    HW226321   0.636   5.669   2.954 -0.6425  1.5402 -2.6471
 8451SOL     OW26322   2.648   4.373   2.020  0.1832 -0.1610 -0.0173
 8451SOL    HW126323   2.554   4.372   2.035  0.2040 -0.0069  0.1246
 8451SOL    HW226324   2.684   4.318   2.090  0.2811  0.5715  0.5187
 8452SOL     OW26325   6.444   2.912   4.206  0.1443 -0.7932 -0.4190
 8452SOL    HW126326   6.375   2.882   4.147  0.0618  0.7402 -1.1546
 8452SOL    HW226327   6.481   2.989   4.162  2.3952 -1.6326 -0.0920
 8453SOL     OW26328   1.308   5.079   3.587  0.3453  0.2550  0.3345
 8453SOL    HW126329   1.328   5.033   3.505  0.6843  0.8131  0.0990
 8453SOL    HW226330   1.368   5.041   3.651 -0.2761 -0.5519  0.4575
 8454SOL     OW26331   3.429   3.838   1.582 -0.1201  0.1003 -0.2067
 8454SOL    HW126332   3.433   3.934   1.579  3.3010  0.1308  1.0805
 8454SOL    HW226333   3.368   3.818   1.652  0.0651  1.3910  0.3390
 8455SOL     OW26334   3.813   0.536   2.347 -0.2853  0.4120 -0.0764
 8455SOL    HW126335   3.756   0.475   2.300  2.7713 -3.2045  0.4226
 8455SOL    HW226336   3.871   0.571   2.280  0.7651 -0.7443  0.1899
 8456SOL     OW26337   0.664   2.861   2.084  0.0081  0.0310 -0.2465
 8456SOL    HW126338   0.727   2.931   2.102  0.1313 -0.0733 -0.2706
 8456SOL    HW226339   0.708   2.806   2.019  0.7977 -1.2854  1.3389
 8457SOL     OW26340   1.993   6.708   1.963 -0.1662 -0.0447  0.5671
 8457SOL    HW126341   1.929   6.698   1.893  1.4539  0.5254 -1.0720
 8457SOL    HW226342   1.979   6.633   2.020 -0.9309 -1.0379 -0.8851
 8458SOL     OW26343   6.994   7.355   3.359  0.0338  0.0922  0.5351
 8458SOL    HW126344   6.940   7.407   3.419 -0.0942  0.0525  0.4538
 8458SOL    HW226345   6.970   7.265   3.377 -0.0117  0.0806  0.4161
 8459SOL     OW26346   6.304   6.965   6.425 -0.2853 -0.0462  0.1604
 8459SOL    HW126347   6.386   6.969   6.375 -0.5175 -2.3200 -0.5389
 8459SOL    HW226348   6.236   6.981   6.359 -0.4461  0.9220  0.5568
 8460SOL     OW26349   1.321   3.248   4.566 -0.5482  0.3820 -0.2709
 8460SOL    HW126350   1.313   3.324   4.509 -0.5501  0.1781 -0.5447
 8460SOL    HW226351   1.414   3.226   4.566 -0.5611  0.3257 -0.2691
 8461SOL     OW26352   0.837   5.906   2.358  0.5365 -0.2945  0.6412
 8461SOL    HW126353   0.879   5.822   2.343  0.1368 -0.4347  0.3011
 8461SOL    HW226354   0.820   5.941   2.271 -0.3412 -0.3870  0.7684
 8462SOL     OW26355   0.415   5.524   3.820 -0.8618 -0.4306 -0.3718
 8462SOL    HW126356   0.475   5.582   3.774  0.4881 -2.2506 -1.0258
 8462SOL    HW226357   0.346   5.581   3.853  0.9508  1.6709 -0.0446
 8463SOL     OW26358   0.848   6.484   5.464  0.4157  0.1376  0.3963
 8463SOL    HW126359   0.848   6.441   5.379  0.1636  0.3244  0.3041
 8463SOL    HW226360   0.941   6.494   5.486  0.4928  0.8381 -0.2285
 8464SOL     OW26361   3.524   6.552   1.562 -0.3971  0.0934 -0.2470
 8464SOL    HW126362   3.544   6.470   1.518 -0.0692  0.6483 -1.1563
 8464SOL    HW226363   3.535   6.619   1.494 -2.2710  0.7400  0.0392
 8465SOL     OW26364   0.970   2.640   6.438  0.0404 -0.0517 -0.6235
 8465SOL    HW126365   0.910   2.609   6.507  0.5713  0.1870 -0.0422
 8465SOL    HW226366   1.004   2.561   6.398  1.7376 -0.2882  1.1460
 8466SOL     OW26367   6.474   1.087   6.791 -0.4167 -0.1656  0.0830
 8466SOL    HW126368   6.466   1.073   6.886 -1.0758 -0.8914 -0.0772
 8466SOL    HW226369   6.528   1.014   6.760 -0.9470 -0.4264 -0.2325
 8467SOL     OW26370   3.598   3.386   4.808 -0.3633 -0.5346 -0.3286
 8467SOL    HW126371   3.502   3.378   4.801 -0.5254  1.4558 -0.8026
 8467SOL    HW226372   3.613   3.407   4.900 -0.3827 -0.7599 -0.2730
 8468SOL     OW26373   2.748   3.874   6.335  0.1160  0.0912  0.0880
 8468SOL    HW126374   2.656   3.894   6.351  0.4123  0.1325  1.9101
 8468SOL    HW226375   2.747   3.817   6.258 -1.1357  2.7907 -2.0918
 8469SOL     OW26376   6.161   2.750   0.595 -0.3540 -0.6688 -0.8664
 8469SOL    HW126377   6.073   2.740   0.558 -0.2770  2.4074 -2.1769
 8469SOL    HW226378   6.150   2.809   0.669  0.4058 -1.7952  0.1912
 8470SOL     OW26379   5.361   2.646   3.085 -0.7062 -0.4338  0.1948
 8470SOL    HW126380   5.400   2.734   3.081 -0.3194 -0.6303 -0.7251
 8470SOL    HW226381   5.409   2.596   3.019 -0.0274 -1.7117  1.5755
 8471SOL     OW26382   7.004   2.189   1.101 -0.5271  0.0515 -0.1177
 8471SOL    HW126383   7.015   2.167   1.193 -1.1927 -0.4942 -0.1599
 8471SOL    HW226384   7.081   2.151   1.058 -0.4540 -0.1045  0.1475
 8472SOL     OW26385   0.106   2.708   3.584  0.2107 -1.3106  0.1268
 8472SOL    HW126386   0.104   2.765   3.507  1.2990 -0.2444  0.8416
 8472SOL    HW226387   0.163   2.635   3.559  0.7773 -0.8333 -0.0183
 8473SOL     OW26388   4.623   2.921   2.939  0.7660  0.4485  0.6363
 8473SOL    HW126389   4.625   2.972   3.020  1.2931  0.5589  0.5555
 8473SOL    HW226390   4.634   2.986   2.870  1.9675  0.1789  0.5550
 8474SOL     OW26391   3.663   3.067   1.281 -0.1645 -0.2081  0.7515
 8474SOL    HW126392   3.588   3.072   1.341  0.0737 -1.6321  1.1977
 8474SOL    HW226393   3.717   3.142   1.305 -0.1596 -0.6380  2.2279
 8475SOL     OW26394   2.171   2.194   1.714 -0.1565  0.1022 -0.4914
 8475SOL    HW126395   2.225   2.195   1.793  0.8686 -0.7004 -1.1475
 8475SOL    HW226396   2.133   2.282   1.709  0.2849  0.3618  0.5380
 8476SOL     OW26397   6.776   2.338   6.961  0.5911 -0.3493  0.2413
 8476SOL    HW126398   6.842   2.408   6.960  0.5140 -0.2752  0.3351
 8476SOL    HW226399   6.818   2.265   6.914 -0.2912  0.6336 -2.2592
 8477SOL     OW26400   1.216   3.687   6.823  0.0044  0.0411 -0.5603
 8477SOL    HW126401   1.281   3.706   6.891 -1.0573  1.3973  0.1521
 8477SOL    HW226402   1.141   3.652   6.871 -0.7517  0.9818 -1.0185
 8478SOL     OW26403   5.253   4.733   4.144 -0.1308 -0.1897 -0.0755
 8478SOL    HW126404   5.238   4.814   4.094  0.9534 -0.6259 -1.1619
 8478SOL    HW226405   5.252   4.761   4.235 -0.0745  1.0106 -0.4205
 8479SOL     OW26406   3.841   1.587   4.345  0.5064 -0.1490  0.0676
 8479SOL    HW126407   3.888   1.650   4.401  0.0332 -0.3806  0.7474
 8479SOL    HW226408   3.909   1.543   4.295  1.0439 -0.6204  1.1822
 8480SOL     OW26409   7.275   3.989   1.540 -0.2343  0.0471  0.2362
 8480SOL    HW126410   7.185   3.956   1.536  0.4453 -1.8672 -0.1648
 8480SOL    HW226411   7.328   3.920   1.499  1.2429  1.8817 -1.0990
 8481SOL     OW26412   2.028   5.613   0.315  0.1223  0.0958 -0.0338
 8481SOL    HW126413   1.939   5.640   0.337  0.0526 -0.2006  0.0645
 8481SOL    HW226414   2.019   5.569   0.230  0.2744  0.6042 -0.3175
 8482SOL     OW26415   1.332   4.534   6.162  0.3546 -0.1782  0.4404
 8482SOL    HW126416   1.314   4.562   6.251  0.1634 -0.9805  0.6617
 8482SOL    HW226417   1.252   4.490   6.133  1.0087 -1.5003  0.5284
 8483SOL     OW26418   4.291   6.491   7.070  0.5134  0.1897 -0.0876
 8483SOL    HW126419   4.211   6.446   7.098  0.9498  0.3621  1.5042
 8483SOL    HW226420   4.322   6.440   6.995  0.0337 -1.1070  0.5739
 8484SOL     OW26421   0.063   2.732   5.610 -0.0148 -0.0989  0.2654
 8484SOL    HW126422  -0.012   2.774   5.654  0.5607  2.0733 -0.6634
 8484SOL    HW226423   0.140   2.768   5.654  0.5233  0.6902 -1.2444
 8485SOL     OW26424   3.420   4.772   4.805  0.7668  0.2704 -0.2490
 8485SOL    HW126425   3.449   4.848   4.857  0.8413 -0.9801  1.6212
 8485SOL    HW226426   3.380   4.714   4.869 -2.4658  0.2004 -2.1411
 8486SOL     OW26427   6.831   2.826   1.706 -0.7780  0.4184  0.1582
 8486SOL    HW126428   6.737   2.836   1.694 -0.8116  0.0240  0.0847
 8486SOL    HW226429   6.854   2.891   1.772 -1.0467  0.7452 -0.0708
 8487SOL     OW26430   4.805   0.491   4.969 -0.2315 -0.0454  0.3300
 8487SOL    HW126431   4.783   0.530   4.884  1.1353 -1.6322 -0.8045
 8487SOL    HW226432   4.891   0.527   4.991  0.5402 -1.4998 -0.1928
 8488SOL     OW26433   0.694   3.996   1.237  0.2855  0.4899 -0.0520
 8488SOL    HW126434   0.601   3.998   1.216  0.5417 -0.3818 -1.4155
 8488SOL    HW226435   0.715   3.903   1.246  0.6589  0.7469  2.1268
 8489SOL     OW26436   4.566   5.900   6.123 -0.3823  0.0153  0.3842
 8489SOL    HW126437   4.526   5.948   6.050 -0.3027  0.5504  0.6857
 8489SOL    HW226438   4.550   5.955   6.200  0.5620  0.0479  0.5775
 8490SOL     OW26439   3.788   4.029   3.214  0.0109  0.0614 -0.2477
 8490SOL    HW126440   3.729   3.956   3.235  0.2416 -0.2652 -0.7257
 8490SOL    HW226441   3.781   4.039   3.119 -0.9542  1.4753 -0.0700
 8491SOL     OW26442   5.356   0.528   2.049 -0.2601  0.4509 -0.2171
 8491SOL    HW126443   5.284   0.488   2.098 -1.3157  2.7620  0.2290
 8491SOL    HW226444   5.373   0.466   1.978 -2.7708 -0.1443 -0.3880
 8492SOL     OW26445   3.414   2.977   1.445 -0.4284  0.2038  0.6998
 8492SOL    HW126446   3.442   2.910   1.507 -2.0176 -0.2293  0.9951
 8492SOL    HW226447   3.335   3.015   1.485 -1.2572  0.1839 -0.8588
 8493SOL     OW26448   0.423   1.217   5.227  0.3894  0.5222 -0.1055
 8493SOL    HW126449   0.488   1.247   5.290  1.8382 -0.7246 -0.9354
 8493SOL    HW226450   0.340   1.220   5.275  0.9444  2.5663  0.8489
 8494SOL     OW26451   2.300   1.534   2.535 -0.3708 -0.4059  0.0524
 8494SOL    HW126452   2.225   1.578   2.576 -0.5892  0.1108 -0.8724
 8494SOL    HW226453   2.291   1.442   2.561 -0.6545 -0.1464  0.9203
 8495SOL     OW26454   4.694   3.887   4.052 -0.4193  0.3217 -0.0408
 8495SOL    HW126455   4.691   3.821   3.983  1.6472  0.2982 -0.1646
 8495SOL    HW226456   4.672   3.838   4.132 -0.7808 -0.0958 -0.3887
 8496SOL     OW26457   1.518   6.232   4.994 -0.3976  0.8444  0.3615
 8496SOL    HW126458   1.485   6.322   4.996  1.4968  1.6449 -1.2952
 8496SOL    HW226459   1.591   6.234   4.932  0.4679 -1.5865  1.1675
 8497SOL     OW26460   1.570   1.570   7.190  0.7550 -0.3887  0.0500
 8497SOL    HW126461   1.526   1.604   7.268  1.0140  0.8105 -0.3096
 8497SOL    HW226462   1.509   1.588   7.118  0.4327 -1.6531 -0.0245
 8498SOL     OW26463   5.238   4.503   2.958  0.3384 -0.2505  0.5451
 8498SOL    HW126464   5.233   4.407   2.953 -0.5245 -0.1385 -1.5342
 8498SOL    HW226465   5.264   4.530   2.870 -2.8143  1.5974  0.0267
 8499SOL     OW26466   0.454   0.260   2.035 -0.3152 -0.6610 -0.5131
 8499SOL    HW126467   0.464   0.167   2.055 -0.4186 -0.5592  0.0369
 8499SOL    HW226468   0.430   0.263   1.942  0.1101 -1.1566 -0.6417
 8500SOL     OW26469   1.775   3.173   3.554 -0.4479  0.8090  0.1967
 8500SOL    HW126470   1.749   3.261   3.526  1.0960  1.0435 -0.5880
 8500SOL    HW226471   1.777   3.122   3.473 -1.6329 -0.0638  0.6812
 8501SOL     OW26472   3.614   4.261   4.108  0.3181  0.0613 -0.4369
 8501SOL    HW126473   3.701   4.274   4.146  0.5420 -0.6189 -0.7139
 8501SOL    HW226474   3.606   4.331   4.043  0.7240  0.0212 -0.5315
 8502SOL     OW26475   6.739   7.000   4.207 -0.1726 -0.1442  0.0699
 8502SOL    HW126476   6.825   6.974   4.239 -0.2866 -0.2312  0.3069
 8502SOL    HW226477   6.727   6.949   4.126  0.3837  0.5519 -0.4579
 8503SOL     OW26478   3.886   7.281   0.910 -0.1959 -0.5162  0.0380
 8503SOL    HW126479   3.851   7.194   0.893 -0.3121 -0.4607 -0.0056
 8503SOL    HW226480   3.858   7.333   0.835  0.5501 -0.6375 -0.3343
 8504SOL     OW26481   0.556   4.664   2.978 -0.1298  0.8070 -0.3971
 8504SOL    HW126482   0.475   4.708   3.002  0.0715  0.2962  1.3707
 8504SOL    HW226483   0.572   4.690   2.887 -1.9286  1.4009 -0.5769
 8505SOL     OW26484   5.999   2.485   5.212  0.6239  0.2581 -0.4658
 8505SOL    HW126485   6.044   2.436   5.280  0.5740  1.2603  0.3035
 8505SOL    HW226486   6.068   2.510   5.151  0.9849  1.0060  0.2321
 8506SOL     OW26487   1.211   3.738   3.714  0.0994  0.0499  0.5726
 8506SOL    HW126488   1.164   3.655   3.722  1.6460 -1.2028 -2.0385
 8506SOL    HW226489   1.293   3.725   3.761  0.4286 -0.0081  0.0001
 8507SOL     OW26490   1.328   4.201   0.555  0.0286  0.3103  0.4168
 8507SOL    HW126491   1.287   4.288   0.557 -3.3804 -1.0516 -2.1408
 8507SOL    HW226492   1.283   4.152   0.623 -0.3913 -0.3570 -0.3360
 8508SOL     OW26493   7.080   6.127   4.695 -0.0257  0.2200 -0.0112
 8508SOL    HW126494   7.085   6.034   4.672 -1.1759 -0.0403  0.6867
 8508SOL    HW226495   6.991   6.152   4.671  0.1569  1.0443  0.1614
 8509SOL     OW26496   0.374   5.189   5.945 -0.6419  0.0300 -0.1555
 8509SOL    HW126497   0.445   5.251   5.960 -1.2837  0.5802  0.7166
 8509SOL    HW226498   0.297   5.232   5.983 -1.5892 -0.2394 -1.7011
 8510SOL     OW26499   7.168   5.373   1.659 -0.1418  0.4006  0.1830
 8510SOL    HW126500   7.082   5.337   1.636 -0.3641  0.3595  1.0101
 8510SOL    HW226501   7.159   5.467   1.646 -0.1624  0.3476 -0.1878
 8511SOL     OW26502   3.797   6.086   0.249  0.5493 -0.3650  0.3507
 8511SOL    HW126503   3.821   6.161   0.305 -0.9842  0.9592 -0.6823
 8511SOL    HW226504   3.747   6.028   0.307  0.2574  0.2654  0.7467
 8512SOL     OW26505   3.828   4.126   0.339  0.3290 -0.4836  0.4111
 8512SOL    HW126506   3.737   4.147   0.360 -0.3130 -1.8191 -0.8334
 8512SOL    HW226507   3.879   4.181   0.398 -1.2293  1.6641 -0.1042
 8513SOL     OW26508   1.941   0.390   0.968 -0.1609 -0.3327 -0.2383
 8513SOL    HW126509   2.017   0.437   1.003  0.6807 -2.0552  0.3623
 8513SOL    HW226510   1.878   0.459   0.946  1.1320  1.0726  0.3000
 8514SOL     OW26511   1.826   3.059   3.082  0.2357 -0.3875  0.1887
 8514SOL    HW126512   1.793   3.028   3.166 -2.1891 -0.5258 -0.7281
 8514SOL    HW226513   1.774   3.012   3.017  2.1130 -0.3749 -1.4313
 8515SOL     OW26514   4.008   1.438   4.609  0.3640  0.3254 -0.2222
 8515SOL    HW126515   4.048   1.379   4.672  0.3214 -0.0939 -0.5821
 8515SOL    HW226516   4.065   1.434   4.532  0.6634  1.1775 -0.0507
 8516SOL     OW26517   4.527   6.494   2.827  0.6051  0.5780 -0.2270
 8516SOL    HW126518   4.465   6.567   2.829  0.8391  0.7678  0.3177
 8516SOL    HW226519   4.600   6.526   2.774  0.7193  0.7490  0.0337
 8517SOL     OW26520   0.591   6.451   1.108 -0.3807  0.5513  0.2909
 8517SOL    HW126521   0.547   6.515   1.052 -2.6409 -1.0604  0.0962
 8517SOL    HW226522   0.522   6.391   1.135  1.6587 -2.0229  0.2054
 8518SOL     OW26523   6.926   6.736   3.408 -0.1602 -0.0546  0.1521
 8518SOL    HW126524   7.018   6.712   3.395  0.0538  0.7286  0.1341
 8518SOL    HW226525   6.912   6.810   3.348 -1.3907 -1.4498 -1.3670
 8519SOL     OW26526   6.781   2.085   2.700  0.1592  0.4315  0.2055
 8519SOL    HW126527   6.800   2.003   2.656 -1.0255  0.0220  0.4126
 8519SOL    HW226528   6.696   2.111   2.666 -0.2103  0.7471  1.3111
 8520SOL     OW26529   2.249   2.144   6.635 -0.4575 -0.0476  0.3633
 8520SOL    HW126530   2.340   2.169   6.617 -0.3063 -0.2582  0.8288
 8520SOL    HW226531   2.250   2.115   6.726 -1.0234  0.0970  0.4178
 8521SOL     OW26532   5.463   4.324   0.061  0.0162  0.5652 -0.5123
 8521SOL    HW126533   5.383   4.302   0.013  0.1701  0.6879 -0.8235
 8521SOL    HW226534   5.434   4.382   0.131 -0.5902 -1.4985  1.0368
 8522SOL     OW26535   5.891   5.751   2.420  0.0221  0.4101 -0.0464
 8522SOL    HW126536   5.975   5.773   2.379  1.1370  1.3107  2.5070
 8522SOL    HW226537   5.911   5.675   2.475 -0.9594  0.3508  0.2351
 8523SOL     OW26538   4.053   4.398   4.348  0.0055  0.0177  0.2721
 8523SOL    HW126539   3.999   4.351   4.286 -0.6420 -0.4871  1.1892
 8523SOL    HW226540   4.128   4.340   4.364 -0.1163 -0.1091  0.3877
 8524SOL     OW26541   2.994   4.253   6.809  0.4388 -0.0233  0.5008
 8524SOL    HW126542   2.974   4.346   6.798  0.4451 -0.0236  0.4888
 8524SOL    HW226543   3.068   4.237   6.750 -0.3073 -0.3075 -0.3783
 8525SOL     OW26544   1.736   4.067   3.427 -0.1648 -0.2644 -0.1286
 8525SOL    HW126545   1.661   4.011   3.409  0.9584 -1.8815  0.0552
 8525SOL    HW226546   1.812   4.017   3.397  0.9115  1.0030  0.3791
 8526SOL     OW26547   4.673   2.127   6.947 -0.0173  0.2637 -0.2080
 8526SOL    HW126548   4.667   2.125   6.852  0.9925 -4.2617 -0.3781
 8526SOL    HW226549   4.767   2.133   6.965  0.1128 -2.2999  0.2952
 8527SOL     OW26550   3.930   1.538   5.401 -0.6064 -0.3064 -0.6267
 8527SOL    HW126551   3.840   1.567   5.393 -0.2383  0.7511 -1.1298
 8527SOL    HW226552   3.937   1.502   5.489 -2.0459 -2.3499 -1.2798
 8528SOL     OW26553   3.560   2.429   6.600 -0.3015  0.3484 -0.8053
 8528SOL    HW126554   3.608   2.346   6.597  0.7778  0.9457 -0.6205
 8528SOL    HW226555   3.488   2.414   6.662  0.0422 -0.3685 -0.5753
 8529SOL     OW26556   6.181   6.477   0.497  0.2909  0.2215  0.3244
 8529SOL    HW126557   6.113   6.542   0.517  0.6089  0.1114  1.9437
 8529SOL    HW226558   6.252   6.499   0.557  0.5349 -1.4337  0.6742
 8530SOL     OW26559   2.900   6.794   4.223  0.2299 -0.7316 -0.0038
 8530SOL    HW126560   2.985   6.753   4.235 -0.1748 -1.4515  0.4971
 8530SOL    HW226561   2.913   6.885   4.249  0.5205 -1.1543  1.4299
 8531SOL     OW26562   6.893   4.712   0.768  0.2820 -0.1519 -0.4760
 8531SOL    HW126563   6.971   4.666   0.738  0.8609 -1.2542  2.4303
 8531SOL    HW226564   6.825   4.645   0.774 -0.5961  0.5767 -1.8637
 8532SOL     OW26565   0.893   4.429   0.927 -0.1412  0.5176 -0.2052
 8532SOL    HW126566   0.838   4.506   0.910  0.1694  0.8115  0.0987
 8532SOL    HW226567   0.904   4.429   1.022  2.1021  1.6775 -0.3918
 8533SOL     OW26568   0.179   0.328   2.784 -0.2837  0.0317  0.4838
 8533SOL    HW126569   0.171   0.349   2.691 -1.0872 -0.2027  0.4890
 8533SOL    HW226570   0.242   0.391   2.818 -0.3337  0.4171 -0.1311
 8534SOL     OW26571   1.160   2.388   7.337 -0.0255 -0.4685  0.0185
 8534SOL    HW126572   1.212   2.385   7.256 -0.3689  0.1158 -0.2332
 8534SOL    HW226573   1.117   2.302   7.341 -0.6942 -0.1990 -0.8943
 8535SOL     OW26574   4.832   4.815   0.205  0.6307 -0.0240  0.3625
 8535SOL    HW126575   4.742   4.794   0.229  0.9922 -0.1012  1.7761
 8535SOL    HW226576   4.881   4.808   0.287  1.7236  1.1372 -0.1455
 8536SOL     OW26577   1.943   1.852   4.010  0.0956 -0.0960  0.2323
 8536SOL    HW126578   1.968   1.862   3.918 -0.9959  0.2308 -0.0537
 8536SOL    HW226579   1.936   1.942   4.043  0.1936 -0.2024  0.5494
 8537SOL     OW26580   3.775   3.266   3.039  0.2404  0.1746 -0.2910
 8537SOL    HW126581   3.815   3.215   2.968  1.2388  1.3607 -0.6175
 8537SOL    HW226582   3.848   3.310   3.081 -0.2808 -0.8146  1.7924
 8538SOL     OW26583   2.239   4.113   5.165 -0.4221 -0.1513  0.0176
 8538SOL    HW126584   2.209   4.078   5.081 -3.2230 -0.6328  1.0721
 8538SOL    HW226585   2.333   4.099   5.165 -0.4950 -1.2436 -2.5289
 8539SOL     OW26586   6.417   7.112   5.464  0.3321 -0.3045 -0.0515
 8539SOL    HW126587   6.465   7.182   5.510  0.2115 -0.0238 -0.3475
 8539SOL    HW226588   6.433   7.033   5.516 -0.6544  0.1980  1.0642
 8540SOL     OW26589   5.937   5.866   2.735 -0.3835 -0.3644 -0.1239
 8540SOL    HW126590   6.020   5.835   2.698  0.7909 -0.0190  2.0385
 8540SOL    HW226591   5.870   5.813   2.693  0.6187  0.9543 -3.7969
 8541SOL     OW26592   3.253   4.341   2.600 -0.5375 -0.2094  0.5114
 8541SOL    HW126593   3.310   4.268   2.621 -2.4713 -1.5349  1.5002
 8541SOL    HW226594   3.281   4.412   2.658 -0.3941 -1.0799  1.5264
 8542SOL     OW26595   4.950   4.718   5.549  0.4670 -0.6288 -0.3566
 8542SOL    HW126596   5.009   4.643   5.543  1.3556 -0.0071  0.3156
 8542SOL    HW226597   4.931   4.740   5.458  0.9817 -1.0722 -0.5819
 8543SOL     OW26598   5.861   7.376   4.674  0.6775  0.2644 -0.5709
 8543SOL    HW126599   5.842   7.294   4.628  1.5101 -0.4482  0.3042
 8543SOL    HW226600   5.868   7.441   4.605 -0.7425 -0.2333 -1.2311
 8544SOL     OW26601   6.110   4.407   0.559  0.2105  0.4036 -0.1935
 8544SOL    HW126602   6.119   4.347   0.486  2.2344  1.1149 -0.5673
 8544SOL    HW226603   6.095   4.492   0.519  1.7320  0.8689  0.1591
 8545SOL     OW26604   0.802   0.677   6.081 -0.5562 -0.5477  0.6877
 8545SOL    HW126605   0.854   0.625   6.020 -0.1897  0.6132 -0.0287
 8545SOL    HW226606   0.832   0.651   6.168  0.4569 -0.6775  0.3103
 8546SOL     OW26607   1.902   4.459   7.229 -0.4775 -0.5481  0.5230
 8546SOL    HW126608   1.822   4.489   7.185  1.0303  1.4145 -1.0757
 8546SOL    HW226609   1.938   4.393   7.169 -0.8064 -1.3708  1.2055
 8547SOL     OW26610   1.200   4.718   3.016  0.0949 -0.0202 -0.2861
 8547SOL    HW126611   1.242   4.661   2.952  0.3375  0.0792 -0.2152
 8547SOL    HW226612   1.107   4.713   2.995  0.0642 -0.7997 -0.0006
 8548SOL     OW26613   2.888   1.964   4.919 -0.3180  0.4580  0.2354
 8548SOL    HW126614   2.890   2.053   4.884  1.3992 -0.1557 -1.3532
 8548SOL    HW226615   2.894   1.907   4.842 -2.6867 -1.1199  1.0780
 8549SOL     OW26616   0.514   1.386   6.016  0.3372  0.1661  0.6271
 8549SOL    HW126617   0.433   1.344   5.987 -0.5305  0.9456  1.8181
 8549SOL    HW226618   0.514   1.471   5.972  0.6207  0.0877  0.4712
 8550SOL     OW26619   3.830   7.042   5.235 -0.1367  0.5625  0.0139
 8550SOL    HW126620   3.815   6.949   5.223 -2.7297  0.8311  0.5133
 8550SOL    HW226621   3.900   7.048   5.300  1.7088 -0.9594 -1.7316
 8551SOL     OW26622   0.687   4.343   7.127 -0.0439  0.3393  0.3791
 8551SOL    HW126623   0.602   4.381   7.102  0.8054  1.5534 -0.8011
 8551SOL    HW226624   0.752   4.405   7.093  1.3246 -0.3441  1.6307
 8552SOL     OW26625   4.745   5.261   5.876  0.5573  0.7846 -0.6507
 8552SOL    HW126626   4.717   5.346   5.909  0.6886  0.9506 -0.9577
 8552SOL    HW226627   4.716   5.261   5.784 -1.6555 -0.4912 -0.0188
 8553SOL     OW26628   3.474   0.369   4.739  0.2343 -0.0410  0.2029
 8553SOL    HW126629   3.485   0.292   4.683  1.6544 -0.8630  1.5259
 8553SOL    HW226630   3.384   0.397   4.724  0.1065 -1.1357 -1.3210
 8554SOL     OW26631   2.257   5.502   5.691 -0.1619 -0.3364 -0.2822
 8554SOL    HW126632   2.256   5.595   5.711  2.2823 -0.1129 -0.8987
 8554SOL    HW226633   2.246   5.498   5.596  1.5293 -0.5056 -0.5053
 8555SOL     OW26634   0.528   5.709   7.197 -0.6547 -0.2095 -0.4503
 8555SOL    HW126635   0.469   5.777   7.165 -0.4582  0.3473  0.3414
 8555SOL    HW226636   0.492   5.683   7.282  0.1118 -0.0140 -0.0586
 8556SOL     OW26637   6.464   4.536   1.829 -0.7273 -0.0961 -0.4630
 8556SOL    HW126638   6.420   4.597   1.888 -1.2989  1.5549 -2.4870
 8556SOL    HW226639   6.400   4.466   1.815 -1.2982  0.4228 -0.5088
 8557SOL     OW26640   3.944   3.096   2.898 -0.3131 -0.2508  0.3975
 8557SOL    HW126641   3.989   3.097   2.982  0.1640  0.5000  0.1450
 8557SOL    HW226642   3.995   3.155   2.843 -0.5937 -0.7725 -0.4361
 8558SOL     OW26643   6.569   0.975   4.087  0.2137 -0.2057  0.6630
 8558SOL    HW126644   6.500   0.915   4.117  1.2304 -2.4826 -1.2149
 8558SOL    HW226645   6.617   0.997   4.167 -0.3666 -1.7216  1.4853
 8559SOL     OW26646   6.890   2.478   5.018  0.0732  0.0387 -0.1696
 8559SOL    HW126647   6.808   2.516   5.052 -0.3758 -0.1148 -1.0541
 8559SOL    HW226648   6.957   2.507   5.080 -0.4943  1.0073  0.0218
 8560SOL     OW26649   5.737   4.154   3.136  0.2455  0.2932  0.0394
 8560SOL    HW126650   5.815   4.130   3.085  0.1059  0.8528 -0.4434
 8560SOL    HW226651   5.677   4.081   3.122  0.1149  0.5451 -0.8132
 8561SOL     OW26652   0.055   1.061   0.075 -0.3674 -0.0005  0.4978
 8561SOL    HW126653  -0.024   1.008   0.078 -0.7104  0.4783  0.0865
 8561SOL    HW226654   0.117   1.008   0.026 -0.3630 -0.4611  0.9912
 8562SOL     OW26655   4.007   6.150   1.304 -0.2945 -0.7773 -0.1162
 8562SOL    HW126656   3.988   6.145   1.210  1.5672 -0.5629 -0.5416
 8562SOL    HW226657   4.030   6.061   1.329 -1.9419 -1.0730  0.4337
 8563SOL     OW26658   0.859   1.342   6.546 -0.2308 -1.1291 -0.0774
 8563SOL    HW126659   0.894   1.427   6.572  0.3441 -1.0392 -1.0973
 8563SOL    HW226660   0.772   1.339   6.586  0.3234 -0.7071  1.2097
 8564SOL     OW26661   1.180   5.117   3.191 -0.6631 -0.1036  0.7741
 8564SOL    HW126662   1.238   5.121   3.115 -1.1947  1.6248  0.4201
 8564SOL    HW226663   1.201   5.033   3.232  2.0191  0.4101  0.6316
 8565SOL     OW26664   2.801   5.284   3.905  0.6268  0.1112 -0.2475
 8565SOL    HW126665   2.756   5.367   3.916 -0.8062 -0.7706  1.0043
 8565SOL    HW226666   2.746   5.221   3.952  1.6310 -1.5529 -1.2131
 8566SOL     OW26667   1.658   1.985   4.336  0.2188  0.7224  0.0158
 8566SOL    HW126668   1.570   1.990   4.373 -0.4147  0.2523 -1.3398
 8566SOL    HW226669   1.684   1.894   4.346  0.5051  0.8394  0.3268
 8567SOL     OW26670   0.518   5.560   3.448  0.2545  0.8122 -0.1028
 8567SOL    HW126671   0.600   5.594   3.410  0.7104 -1.6485 -1.5642
 8567SOL    HW226672   0.546   5.516   3.528  0.8236 -1.7520 -1.5803
 8568SOL     OW26673   4.426   6.438   2.161  0.4097  0.0796  0.1185
 8568SOL    HW126674   4.433   6.346   2.138  0.0508 -0.0644  0.5605
 8568SOL    HW226675   4.338   6.447   2.197  0.8034  0.3785  1.0350
 8569SOL     OW26676   2.371   2.396   1.696 -0.3069 -0.1982  0.0856
 8569SOL    HW126677   2.354   2.488   1.717  2.5535  0.3623  0.3632
 8569SOL    HW226678   2.365   2.351   1.780  1.6648  0.4127  0.6278
 8570SOL     OW26679   4.250   5.652   2.154  0.1536  0.7320  0.0510
 8570SOL    HW126680   4.339   5.672   2.183  0.8650 -1.7364 -0.2068
 8570SOL    HW226681   4.256   5.647   2.058 -0.4160  1.1117 -0.0119
 8571SOL     OW26682   3.861   4.387   4.131 -0.5025  0.5487 -0.3829
 8571SOL    HW126683   3.884   4.336   4.054 -1.4148 -0.3345 -0.0966
 8571SOL    HW226684   3.860   4.478   4.101  2.1454  0.5638 -0.6792
 8572SOL     OW26685   0.177   2.005   2.029  0.0831 -0.2163 -0.0558
 8572SOL    HW126686   0.168   1.948   1.953  0.2646  0.6218 -0.7198
 8572SOL    HW226687   0.161   1.948   2.104  0.6090 -1.2137 -0.6842
 8573SOL     OW26688   5.422   4.334   3.676  0.2091  0.6957 -0.0014
 8573SOL    HW126689   5.461   4.412   3.637  0.1979  0.9829  0.5576
 8573SOL    HW226690   5.471   4.261   3.638  1.9500  1.0777  1.3782
 8574SOL     OW26691   5.823   2.959   0.812 -0.0871  0.7897  0.0132
 8574SOL    HW126692   5.836   2.979   0.905  0.3925  0.2207  0.0735
 8574SOL    HW226693   5.854   3.037   0.766 -0.0787  0.9670  0.3159
 8575SOL     OW26694   7.070   3.559   1.202  0.2930 -0.1507 -0.5047
 8575SOL    HW126695   6.976   3.568   1.190 -0.0229  0.0191  1.6332
 8575SOL    HW226696   7.099   3.507   1.127 -1.9583 -2.6577  0.1893
 8576SOL     OW26697   7.342   1.262   1.256  0.2246  0.3658  0.0032
 8576SOL    HW126698   7.410   1.289   1.318 -1.2910 -1.0185  2.4176
 8576SOL    HW226699   7.280   1.336   1.255 -0.4586 -0.1432  1.3309
 8577SOL     OW26700   2.276   6.812   3.657 -0.2192 -0.3538 -0.0210
 8577SOL    HW126701   2.365   6.785   3.634 -0.0949  0.0577 -0.0352
 8577SOL    HW226702   2.274   6.906   3.639 -0.3832 -0.1857  0.8285
 8578SOL     OW26703   3.390   5.096   2.516 -0.2594 -0.0801 -0.2519
 8578SOL    HW126704   3.295   5.104   2.521 -0.8060 -1.8166 -4.0587
 8578SOL    HW226705   3.409   5.006   2.542  0.1436 -0.1808 -0.8582
 8579SOL     OW26706   1.447   3.342   1.795  0.0529 -0.0749  0.1005
 8579SOL    HW126707   1.426   3.435   1.786 -1.8266 -0.4716  0.0985
 8579SOL    HW226708   1.401   3.300   1.723  0.6978 -1.0543  0.2450
 8580SOL     OW26709   4.812   2.785   0.083 -0.5171 -0.2433  0.1713
 8580SOL    HW126710   4.827   2.755  -0.007  2.7824  0.9518  0.2024
 8580SOL    HW226711   4.759   2.864   0.073  0.8388  0.5721 -0.8821
 8581SOL     OW26712   0.241   5.305   0.733  1.0129 -0.0675 -0.0838
 8581SOL    HW126713   0.328   5.336   0.709  1.2320  0.0182  0.7772
 8581SOL    HW226714   0.205   5.269   0.652  1.5829  0.5047 -0.6022
 8582SOL     OW26715   3.091   2.617   5.235 -0.2135  0.3758  0.2478
 8582SOL    HW126716   3.132   2.532   5.219 -0.9852  0.1326 -0.4891
 8582SOL    HW226717   3.086   2.658   5.148 -0.7214  0.7679  0.4553
 8583SOL     OW26718   2.286   0.650   7.123 -0.1897  0.2117 -0.1596
 8583SOL    HW126719   2.276   0.701   7.042 -1.1556  0.5108  0.1376
 8583SOL    HW226720   2.222   0.580   7.116 -1.2379  1.0084  0.9086
 8584SOL     OW26721   0.391   6.044   4.356  0.2453  0.8871  0.4775
 8584SOL    HW126722   0.342   6.121   4.326  1.8748  1.7406 -0.1023
 8584SOL    HW226723   0.458   6.079   4.415  2.0945  0.1822 -1.0853
 8585SOL     OW26724   5.046   0.834   0.810 -0.1996  0.2803  0.0948
 8585SOL    HW126725   5.035   0.739   0.800 -0.5965  0.4043 -0.7378
 8585SOL    HW226726   5.131   0.852   0.769  0.4460  0.1334  1.3182
 8586SOL     OW26727   1.476   1.319   4.978  0.2904 -0.3636 -0.7019
 8586SOL    HW126728   1.563   1.321   4.939  1.0386 -0.5184  0.8999
 8586SOL    HW226729   1.489   1.348   5.068 -1.3708 -0.0682 -0.5285
 8587SOL     OW26730   4.975   2.142   4.373 -0.1862  0.4928 -0.0135
 8587SOL    HW126731   5.038   2.214   4.377 -1.1839  1.4757 -0.9927
 8587SOL    HW226732   4.914   2.168   4.303 -0.7522 -1.1688 -0.1694
 8588SOL     OW26733   5.350   6.963   6.079  0.0037 -0.9532 -0.3189
 8588SOL    HW126734   5.378   6.911   6.003  2.5600  0.5294 -0.5132
 8588SOL    HW226735   5.257   6.944   6.088  0.0515 -2.7252 -2.5829
 8589SOL     OW26736   1.332   5.915   6.191  0.5696  0.1167  0.0655
 8589SOL    HW126737   1.308   6.008   6.186  3.2765  0.8626 -0.9133
 8589SOL    HW226738   1.425   5.916   6.216  0.1930 -2.4286  1.9633
 8590SOL     OW26739   2.056   5.778   7.021 -0.0928 -0.0623 -0.3262
 8590SOL    HW126740   2.059   5.858   6.968 -1.8484 -0.4883 -1.1408
 8590SOL    HW226741   2.138   5.734   7.002  1.0917  1.6931  0.4298
 8591SOL     OW26742   4.307   3.768   0.374 -0.0136 -0.1948 -0.0152
 8591SOL    HW126743   4.260   3.737   0.296 -0.3662  0.8733 -0.2551
 8591SOL    HW226744   4.371   3.700   0.393 -1.6178 -1.6774  0.2892
 8592SOL     OW26745   2.532   2.663   5.767  0.4712 -0.0970 -0.1290
 8592SOL    HW126746   2.446   2.653   5.807  0.4410 -2.1317 -0.6064
 8592SOL    HW226747   2.565   2.574   5.757  1.6363  0.4966 -2.1293
 8593SOL     OW26748   0.950   3.816   1.331  0.0045  0.4066 -0.3334
 8593SOL    HW126749   0.867   3.780   1.300 -0.0129  0.8892 -0.8749
 8593SOL    HW226750   1.000   3.831   1.250  0.0251  1.5405 -0.1241
 8594SOL     OW26751   5.591   6.717   6.029 -0.0995 -0.1791  0.3728
 8594SOL    HW126752   5.515   6.751   5.983 -0.0637 -2.0524 -1.1823
 8594SOL    HW226753   5.645   6.794   6.046 -1.6648  0.9906  0.2539
 8595SOL     OW26754   3.743   6.112   1.420  0.2238  0.3254  0.6816
 8595SOL    HW126755   3.758   6.054   1.495  2.9682  1.2760  1.0187
 8595SOL    HW226756   3.831   6.128   1.385 -0.7552  1.8018 -1.2894
 8596SOL     OW26757   2.153   5.929   6.109 -0.3317 -0.1902  0.3326
 8596SOL    HW126758   2.206   5.903   6.033  0.8157 -1.1154  1.4194
 8596SOL    HW226759   2.193   6.011   6.138 -0.8644  0.2433 -0.1261
 8597SOL     OW26760   4.011   3.660   1.384 -0.1249  0.3375 -0.8886
 8597SOL    HW126761   3.921   3.687   1.403  0.0169  1.1091 -1.2584
 8597SOL    HW226762   4.026   3.583   1.439  0.0030  1.9589  1.5189
 8598SOL     OW26763   5.459   2.060   3.400  0.4491 -0.3012 -0.4661
 8598SOL    HW126764   5.488   2.015   3.321  2.0784  1.4521 -0.9513
 8598SOL    HW226765   5.364   2.062   3.393  0.5255 -0.8672 -1.9874
 8599SOL     OW26766   5.575   7.232   4.343 -0.1238  0.0411  0.5194
 8599SOL    HW126767   5.497   7.176   4.343  1.1064 -1.8308 -1.4467
 8599SOL    HW226768   5.567   7.284   4.263  0.0508  0.7705  0.9654
 8600SOL     OW26769   3.940   4.450   6.639  1.1780 -0.6035 -0.3386
 8600SOL    HW126770   3.961   4.428   6.729  1.7307 -1.5816 -0.6907
 8600SOL    HW226771   3.983   4.535   6.624 -0.8769  0.7706  1.0032
 8601SOL     OW26772   2.139   5.448   0.616  0.3853 -0.3189  0.1499
 8601SOL    HW126773   2.202   5.488   0.555 -0.2662 -0.2759 -0.4998
 8601SOL    HW226774   2.152   5.354   0.606  0.4753 -0.3072  0.1558
 8602SOL     OW26775   4.199   4.260   6.539  0.0574 -0.4262 -0.6117
 8602SOL    HW126776   4.184   4.229   6.628  0.5177 -0.3508 -0.5028
 8602SOL    HW226777   4.167   4.350   6.538  1.1532 -0.0132 -0.1758
 8603SOL     OW26778   2.326   4.701   1.288 -0.3827  0.2611  0.4202
 8603SOL    HW126779   2.284   4.714   1.373 -1.5438 -0.3372 -0.0393
 8603SOL    HW226780   2.394   4.768   1.284 -1.1252  1.0937  1.3084
 8604SOL     OW26781   2.001   6.798   2.649 -0.3880 -0.1343 -0.3337
 8604SOL    HW126782   1.923   6.824   2.599 -0.5545 -1.8187 -1.0274
 8604SOL    HW226783   1.967   6.742   2.719  0.1517 -0.4710 -0.3356
 8605SOL     OW26784   5.585   5.506   5.656  0.2522 -0.0501  0.0642
 8605SOL    HW126785   5.491   5.487   5.661  0.3945 -1.0767 -0.8834
 8605SOL    HW226786   5.589   5.602   5.657 -0.6930  0.0262  1.5912
 8606SOL     OW26787   2.669   2.119   4.008 -0.3849 -0.2653 -0.6206
 8606SOL    HW126788   2.672   2.114   3.912  3.1091 -1.5771 -0.6017
 8606SOL    HW226789   2.635   2.034   4.035 -1.7943  0.2620 -0.6141
 8607SOL     OW26790   5.217   0.773   7.145  0.8111 -0.2717  0.4750
 8607SOL    HW126791   5.247   0.695   7.098  1.2550 -0.1407  0.5333
 8607SOL    HW226792   5.176   0.740   7.224  1.8878 -0.4068  0.9852
 8608SOL     OW26793   3.671   2.987   1.031  0.4348  0.0637 -0.3396
 8608SOL    HW126794   3.668   3.005   1.125  4.1292 -0.3043  0.0175
 8608SOL    HW226795   3.679   3.073   0.990  2.4434  0.1408  0.0849
 8609SOL     OW26796   4.002   0.286   4.599 -0.0911 -0.3779  0.4800
 8609SOL    HW126797   4.059   0.226   4.551 -2.2118 -0.5243 -2.1355
 8609SOL    HW226798   4.030   0.374   4.572 -0.1592 -0.3918  0.3640
 8610SOL     OW26799   5.860   3.584   4.936 -0.1651 -0.6200 -0.2249
 8610SOL    HW126800   5.887   3.526   4.865  1.7078  1.1834 -1.0973
 8610SOL    HW226801   5.779   3.625   4.903 -0.8170 -1.7661 -0.1150
 8611SOL     OW26802   0.825   7.226   1.122 -0.1959  0.6636  0.2031
 8611SOL    HW126803   0.908   7.181   1.137 -0.3399  0.3069 -0.0538
 8611SOL    HW226804   0.786   7.180   1.048 -0.7737  0.6201  0.5330
 8612SOL     OW26805   7.372   6.410   4.607 -0.3374  0.4811 -0.2965
 8612SOL    HW126806   7.416   6.430   4.690 -0.2075 -0.0950 -0.2263
 8612SOL    HW226807   7.428   6.344   4.565 -0.1601  1.0912 -1.0510
 8613SOL     OW26808   7.207   2.069   2.988  0.5333 -0.4650  0.3829
 8613SOL    HW126809   7.184   2.153   3.029 -0.9957 -1.1131  0.9187
 8613SOL    HW226810   7.280   2.090   2.930 -0.7267  1.5460 -0.5829
 8614SOL     OW26811   6.261   3.986   4.465 -0.5579 -0.0378  0.5301
 8614SOL    HW126812   6.244   4.030   4.381  0.7736  0.6399  0.5893
 8614SOL    HW226813   6.185   4.009   4.519 -0.2040  1.7312  0.3556
 8615SOL     OW26814   5.558   6.288   3.766  0.1931 -0.8286 -0.6859
 8615SOL    HW126815   5.505   6.254   3.839  1.4882 -2.1708 -0.3126
 8615SOL    HW226816   5.532   6.235   3.691  1.1690 -1.6715 -0.4412
 8616SOL     OW26817   0.543   2.102   5.209  0.1021 -0.0593  0.0298
 8616SOL    HW126818   0.628   2.145   5.204 -0.8563  1.8120 -1.3382
 8616SOL    HW226819   0.509   2.126   5.295 -0.3691  1.9708 -0.6569
 8617SOL     OW26820   0.660   5.320   1.122 -0.3028  0.1577 -0.5830
 8617SOL    HW126821   0.566   5.314   1.139 -0.0399  0.2694  1.0987
 8617SOL    HW226822   0.693   5.378   1.190  0.9919  0.0980 -1.1302
 8618SOL     OW26823   4.741   5.839   5.139  0.0632 -0.0348 -0.1628
 8618SOL    HW126824   4.768   5.931   5.148 -1.2892  0.5525 -1.5407
 8618SOL    HW226825   4.646   5.842   5.147 -0.1162 -1.1118 -1.5562
 8619SOL     OW26826   0.984   0.996   3.261 -0.5150  0.6750 -0.2696
 8619SOL    HW126827   0.986   0.971   3.168 -2.1372  0.1867 -0.1928
 8619SOL    HW226828   1.023   0.921   3.306  1.4079  1.4073 -0.6103
 8620SOL     OW26829   6.295   6.318   4.384  0.0308  0.3269 -0.1123
 8620SOL    HW126830   6.342   6.400   4.366  0.7350  0.2213  1.1318
 8620SOL    HW226831   6.209   6.330   4.342 -0.7821  2.6697  1.9722
 8621SOL     OW26832   0.095   6.860   4.422 -0.3821 -0.2734 -0.1776
 8621SOL    HW126833   0.034   6.786   4.415  1.2555 -1.7076 -0.2069
 8621SOL    HW226834   0.158   6.845   4.351  1.2803 -0.1411  1.2072
 8622SOL     OW26835   3.418   0.128   4.346 -0.2013  0.6209  0.3568
 8622SOL    HW126836   3.330   0.091   4.350  1.1288 -3.0629 -0.0385
 8622SOL    HW226837   3.422   0.172   4.261 -0.9986 -1.3255 -0.7568
 8623SOL     OW26838   2.328   1.413   0.666  0.1283  0.5181  0.9873
 8623SOL    HW126839   2.277   1.492   0.685  0.1222  0.6947  0.2906
 8623SOL    HW226840   2.262   1.348   0.642  0.1963  0.6097  0.5424
 8624SOL     OW26841   5.733   4.693   3.386  0.1220  0.2473  0.0288
 8624SOL    HW126842   5.789   4.623   3.352  0.6460  0.0829  1.2127
 8624SOL    HW226843   5.668   4.706   3.316  1.1577 -0.0807 -1.0292
 8625SOL     OW26844   2.086   6.894   2.265  0.0467  0.6291  0.2108
 8625SOL    HW126845   2.023   6.824   2.248 -0.1769  0.9760 -0.4363
 8625SOL    HW226846   2.079   6.951   2.188  4.3529 -1.6170 -2.2224
 8626SOL     OW26847   1.117   3.802   1.048 -0.3078  0.5526  0.3536
 8626SOL    HW126848   1.072   3.823   0.967  0.1954  1.1444  0.2263
 8626SOL    HW226849   1.201   3.764   1.020  0.6124  2.3254  0.5676
 8627SOL     OW26850   3.130   0.788   0.704 -0.4130  0.1754  0.3662
 8627SOL    HW126851   3.121   0.847   0.779  0.4154  1.8435 -0.7697
 8627SOL    HW226852   3.225   0.775   0.696 -0.4368  0.5655 -0.7517
 8628SOL     OW26853   5.772   4.541   6.142  0.5517 -0.3509 -0.0304
 8628SOL    HW126854   5.781   4.506   6.231  0.8695 -1.6002 -0.5237
 8628SOL    HW226855   5.686   4.582   6.141  0.6000 -0.1881  0.8889
 8629SOL     OW26856   2.517   4.148   7.089  0.2941 -0.2276 -0.1852
 8629SOL    HW126857   2.429   4.150   7.053 -0.0403  2.4375  0.6113
 8629SOL    HW226858   2.523   4.063   7.134 -1.7894 -0.5180 -0.3677
 8630SOL     OW26859   2.232   0.824   0.270 -0.4821 -0.0593 -0.0380
 8630SOL    HW126860   2.254   0.798   0.181  0.2567 -0.5047  0.2622
 8630SOL    HW226861   2.310   0.869   0.302 -0.0197 -1.4968  0.9822
 8631SOL     OW26862   1.049   5.340   2.357  0.1584 -0.1313 -0.2344
 8631SOL    HW126863   1.106   5.322   2.432  0.5280 -3.2491 -1.1423
 8631SOL    HW226864   0.960   5.331   2.392  0.3273 -2.2316 -0.2351
 8632SOL     OW26865   2.237   7.240   1.660  0.8154  0.5948  0.1468
 8632SOL    HW126866   2.247   7.151   1.627  0.7376  0.1105  1.4005
 8632SOL    HW226867   2.239   7.295   1.581  1.0858 -0.4867 -0.6182
 8633SOL     OW26868   4.805   1.962   6.520 -0.2696  0.1592 -0.0039
 8633SOL    HW126869   4.833   2.034   6.576  2.0396 -0.7847  0.1681
 8633SOL    HW226870   4.765   1.898   6.579  0.3618  0.0236  0.2748
 8634SOL     OW26871   5.333   2.494   4.759 -0.2170 -0.0261 -0.3439
 8634SOL    HW126872   5.379   2.410   4.754 -0.7132 -0.4923  1.7021
 8634SOL    HW226873   5.241   2.473   4.741  0.0352  0.5965 -2.6159
 8635SOL     OW26874   1.835   2.595   3.760  0.1023  0.1146  0.1858
 8635SOL    HW126875   1.775   2.520   3.761 -0.6990  0.7248  1.9536
 8635SOL    HW226876   1.917   2.559   3.726 -0.1287 -1.7090  1.3639
 8636SOL     OW26877   0.416   6.628   3.442 -0.1138  0.3051 -0.1045
 8636SOL    HW126878   0.411   6.698   3.506 -2.3084  0.9434 -0.8632
 8636SOL    HW226879   0.491   6.651   3.386 -0.1086  1.4295  0.3461
 8637SOL     OW26880   5.415   2.074   5.718 -0.3636 -0.7676 -0.1746
 8637SOL    HW126881   5.373   2.082   5.803  0.7466  0.4126  0.2943
 8637SOL    HW226882   5.342   2.076   5.655 -1.1585  5.8420  0.2624
 8638SOL     OW26883   5.244   2.883   4.718 -0.2965  0.3212 -0.0645
 8638SOL    HW126884   5.241   2.794   4.753  1.0541  0.3842  0.2756
 8638SOL    HW226885   5.161   2.922   4.745 -1.0938 -0.9619 -0.5902
 8639SOL     OW26886   0.956   4.980   5.259  0.2353 -0.1098  0.6478
 8639SOL    HW126887   0.867   4.943   5.257  1.2054 -2.9416  2.9408
 8639SOL    HW226888   1.006   4.924   5.199  1.0199 -0.4119  1.5506
 8640SOL     OW26889   2.912   0.068   1.179 -0.6540 -0.1897 -0.1195
 8640SOL    HW126890   2.832   0.042   1.225  0.3918  1.4827  2.8614
 8640SOL    HW226891   2.979   0.006   1.210  0.1413  1.1655  0.9678
 8641SOL     OW26892   6.889   0.462   1.976 -0.5436  0.1731  0.1510
 8641SOL    HW126893   6.970   0.508   1.953  1.1525 -2.3713  0.5530
 8641SOL    HW226894   6.865   0.497   2.062 -1.3799  2.7562 -1.0434
 8642SOL     OW26895   7.150   6.380   6.869 -0.2195 -0.5010 -0.1021
 8642SOL    HW126896   7.176   6.334   6.949  0.6247 -0.4771 -0.3473
 8642SOL    HW226897   7.177   6.320   6.799 -1.3230 -0.7053 -0.3610
 8643SOL     OW26898   5.344   1.421   0.299 -0.0628  0.4496 -0.4660
 8643SOL    HW126899   5.302   1.353   0.246  2.0758 -0.5008 -1.0524
 8643SOL    HW226900   5.432   1.387   0.315  0.6376  2.5307  0.3222
 8644SOL     OW26901   5.064   6.579   2.645  0.0801 -0.3300 -0.0286
 8644SOL    HW126902   5.049   6.602   2.553  2.7987 -2.1563 -1.0393
 8644SOL    HW226903   4.977   6.559   2.679 -1.0184  0.6196 -2.0998
 8645SOL     OW26904   6.156   4.026   5.415  0.8296 -0.3608  0.5337
 8645SOL    HW126905   6.134   3.939   5.448  0.8167 -0.4747  0.2339
 8645SOL    HW226906   6.225   4.010   5.350 -0.8738 -0.4479 -1.3662
 8646SOL     OW26907   1.211   5.059   2.633  0.1874  0.0542 -0.0124
 8646SOL    HW126908   1.213   5.059   2.728 -0.6458  2.6406  0.0750
 8646SOL    HW226909   1.183   5.147   2.609 -0.4666 -0.7711 -2.6450
 8647SOL     OW26910   4.383   1.420   2.571  0.1607  0.8440  0.0330
 8647SOL    HW126911   4.453   1.460   2.520  0.6938  1.7970  1.4658
 8647SOL    HW226912   4.401   1.326   2.564 -0.0674  0.8944 -1.8878
 8648SOL     OW26913   1.834   5.659   2.552 -0.2191  0.4143  0.0854
 8648SOL    HW126914   1.847   5.676   2.645 -0.3345 -0.9321  0.3742
 8648SOL    HW226915   1.894   5.587   2.531  0.2488  1.1009 -1.0329
 8649SOL     OW26916   6.022   4.338   7.066 -0.3907  0.6286  0.2078
 8649SOL    HW126917   5.986   4.364   6.981 -1.4071 -1.1383  0.0608
 8649SOL    HW226918   6.060   4.252   7.051  1.6520  1.3367  1.0010
 8650SOL     OW26919   1.489   3.591   4.127  0.1575  0.0225  0.1536
 8650SOL    HW126920   1.546   3.549   4.191 -0.1548  1.0272  1.1130
 8650SOL    HW226921   1.544   3.656   4.084 -0.1720  0.8289  0.9159
 8651SOL     OW26922   3.394   2.829   2.932 -0.2826 -0.1437  0.4552
 8651SOL    HW126923   3.448   2.808   3.008 -2.2822 -3.3432  1.1998
 8651SOL    HW226924   3.304   2.822   2.964 -1.2019 -1.6634 -2.1410
 8652SOL     OW26925   1.317   6.041   1.232  0.3191  0.6278  0.6032
 8652SOL    HW126926   1.389   6.067   1.176 -0.1698  0.7801  0.0405
 8652SOL    HW226927   1.290   6.122   1.276  0.0200  0.7140  0.2646
 8653SOL     OW26928   5.662   0.864   4.005  0.3997 -0.4187 -0.4309
 8653SOL    HW126929   5.654   0.937   3.945 -0.2022 -0.7986 -0.8241
 8653SOL    HW226930   5.675   0.787   3.949  1.5133 -0.5635 -0.0128
 8654SOL     OW26931   0.245   4.159   2.546  0.5289  0.3107 -0.3251
 8654SOL    HW126932   0.155   4.182   2.521  0.7570  1.0445 -0.4839
 8654SOL    HW226933   0.295   4.240   2.535  0.7964  0.4984  1.7660
 8655SOL     OW26934   6.640   3.730   5.012 -0.0766  0.0457  0.0737
 8655SOL    HW126935   6.634   3.650   4.959  2.5895  0.5822 -1.1878
 8655SOL    HW226936   6.588   3.795   4.965 -2.4487 -0.8788  1.2207
 8656SOL     OW26937   7.366   5.570   3.187 -0.5510  0.0909  0.1696
 8656SOL    HW126938   7.394   5.660   3.202  0.4010  0.1450 -1.6511
 8656SOL    HW226939   7.287   5.578   3.133 -1.0187 -0.1615  0.8062
 8657SOL     OW26940   5.450   6.466   2.701 -0.2748  0.1244  0.0921
 8657SOL    HW126941   5.482   6.425   2.781  0.1514 -0.0466 -0.1653
 8657SOL    HW226942   5.519   6.450   2.636 -0.1230  1.1737 -0.0329
 8658SOL     OW26943   1.369   2.058   4.770 -0.2480  0.3563 -0.0637
 8658SOL    HW126944   1.324   2.077   4.852  0.4897  0.6363  0.2788
 8658SOL    HW226945   1.462   2.072   4.789  0.1311 -1.5233 -0.3856
 8659SOL     OW26946   6.712   1.357   3.430  0.2584  0.1569  0.0141
 8659SOL    HW126947   6.703   1.397   3.517  1.1066 -1.1007  0.7231
 8659SOL    HW226948   6.648   1.286   3.430 -0.9572  1.2212 -1.0751
 8660SOL     OW26949   4.766   3.539   3.358 -0.2201 -0.0231 -0.3909
 8660SOL    HW126950   4.838   3.548   3.296 -0.0068  2.7417  0.1193
 8660SOL    HW226951   4.801   3.574   3.440 -1.3626 -1.0592  0.5844
 8661SOL     OW26952   6.705   3.866   0.314  0.6501 -0.0945 -0.3182
 8661SOL    HW126953   6.643   3.837   0.248  0.4888 -0.6708  0.0847
 8661SOL    HW226954   6.750   3.786   0.341  0.6071  0.1172  0.3799
 8662SOL     OW26955   0.295   2.314   3.583 -0.0599  0.4346 -0.2140
 8662SOL    HW126956   0.259   2.366   3.511 -0.2009  1.7755  0.7866
 8662SOL    HW226957   0.243   2.340   3.659  0.4642 -0.5335  0.4963
 8663SOL     OW26958   6.498   4.999   0.606 -0.6233  0.2787  0.4642
 8663SOL    HW126959   6.585   5.040   0.602 -0.6199  0.1752 -1.4933
 8663SOL    HW226960   6.439   5.071   0.630 -0.0793  0.4451  1.3714
 8664SOL     OW26961   5.436   5.583   1.011  0.4502  0.8274  0.1319
 8664SOL    HW126962   5.471   5.535   0.936 -0.2532 -0.1382  0.4014
 8664SOL    HW226963   5.382   5.519   1.058  0.6117  1.4949  1.2849
 8665SOL     OW26964   5.512   3.218   4.562 -0.7926 -0.0234 -0.1721
 8665SOL    HW126965   5.566   3.224   4.483 -0.0277  0.1319  0.3470
 8665SOL    HW226966   5.509   3.125   4.582  0.6848  0.0743  0.7076
 8666SOL     OW26967   4.045   4.977   5.814 -0.1787 -0.0990  0.1781
 8666SOL    HW126968   4.024   4.895   5.859  0.0209 -0.1874  0.1098
 8666SOL    HW226969   4.136   4.967   5.787  0.3362  0.7442  1.4889
 8667SOL     OW26970   2.082   5.938   0.599 -0.1772  0.5379  0.3357
 8667SOL    HW126971   2.031   5.890   0.534  0.1642 -0.7471  0.9839
 8667SOL    HW226972   2.135   6.000   0.548 -0.9046  0.4977 -0.4841
 8668SOL     OW26973   7.282   3.000   3.454 -0.2927  0.1642 -0.8527
 8668SOL    HW126974   7.321   2.946   3.385 -0.4295  0.7452 -1.3889
 8668SOL    HW226975   7.355   3.018   3.514 -0.2911 -0.7926 -0.5405
 8669SOL     OW26976   0.425   2.197   6.956 -0.4303 -0.2588 -0.7416
 8669SOL    HW126977   0.393   2.250   6.883 -0.2596  0.3491 -0.3778
 8669SOL    HW226978   0.455   2.260   7.021  0.2773 -0.8028 -0.5201
 8670SOL     OW26979   5.694   4.796   1.899  0.2188 -0.3911  0.6686
 8670SOL    HW126980   5.711   4.741   1.976  2.3067 -1.8692 -0.7580
 8670SOL    HW226981   5.600   4.789   1.885  0.0734 -1.5666  2.0246
 8671SOL     OW26982   2.101   0.472   6.616  0.0859 -0.3482 -0.3394
 8671SOL    HW126983   2.084   0.535   6.686 -0.5650 -0.1417 -0.6787
 8671SOL    HW226984   2.030   0.408   6.623  0.8239 -1.1392  0.1012
 8672SOL     OW26985   2.780   5.565   5.776 -0.1349  0.0561  0.4714
 8672SOL    HW126986   2.722   5.491   5.758 -1.0772  0.9802 -0.3723
 8672SOL    HW226987   2.791   5.564   5.871 -0.6512 -0.7743  0.5320
 8673SOL     OW26988   7.124   1.136   1.787  0.1539  0.3786 -0.3573
 8673SOL    HW126989   7.038   1.126   1.746 -0.7074  1.2352  1.1259
 8673SOL    HW226990   7.167   1.204   1.736  0.3614 -0.7097 -1.6966
 8674SOL     OW26991   6.142   5.110   2.432  0.2775 -0.1849 -0.1003
 8674SOL    HW126992   6.149   5.172   2.504 -1.9369  1.3167 -1.0546
 8674SOL    HW226993   6.160   5.163   2.354 -1.8070 -0.6251 -0.9520
 8675SOL     OW26994   0.938   7.115   1.877 -0.5092  0.5751 -0.3781
 8675SOL    HW126995   0.880   7.039   1.878  0.8526 -0.5017  0.4066
 8675SOL    HW226996   0.959   7.131   1.969  2.4006 -0.6760 -0.7079
 8676SOL     OW26997   6.525   0.727   1.048 -0.0715  0.3068  0.3887
 8676SOL    HW126998   6.613   0.752   1.021 -0.9595  0.7312 -2.4959
 8676SOL    HW226999   6.487   0.685   0.970 -3.1022  2.0392  0.7621
 8677SOL     OW27000   2.933   3.420   6.617  0.2723 -0.2534  0.0397
 8677SOL    HW127001   3.015   3.372   6.612 -0.3082 -1.2880  0.1157
 8677SOL    HW227002   2.875   3.377   6.555  0.4333  1.8582 -1.6952
 8678SOL     OW27003   2.105   4.718   2.138  0.0990  0.0471  0.1274
 8678SOL    HW127004   2.127   4.633   2.177  0.9800 -0.0072 -0.4634
 8678SOL    HW227005   2.059   4.697   2.058 -2.0889  0.1623  1.2860
 8679SOL     OW27006   5.324   7.246   4.137  0.3694 -0.7201 -0.2254
 8679SOL    HW127007   5.246   7.282   4.096  0.1351  0.2124  0.9717
 8679SOL    HW227008   5.290   7.187   4.205  0.5258  1.7315  2.1736
 8680SOL     OW27009   1.734   5.123   1.438  0.1417  0.0125 -0.1062
 8680SOL    HW127010   1.641   5.143   1.439  0.1762  0.1535  0.3885
 8680SOL    HW227011   1.770   5.174   1.510  0.4423 -0.8441  0.3569
 8681SOL     OW27012   5.920   0.014   3.740 -0.2377 -0.0448  0.1865
 8681SOL    HW127013   5.968  -0.067   3.727 -2.1398 -1.8354  3.1758
 8681SOL    HW227014   5.828  -0.010   3.725 -0.7018  2.1287 -0.9299
 8682SOL     OW27015   6.255   6.879   6.105 -0.5372  0.6480 -0.5889
 8682SOL    HW127016   6.292   6.962   6.074 -0.6467  0.0414 -2.4576
 8682SOL    HW227017   6.260   6.821   6.030  0.6582 -1.4614  1.0107
 8683SOL     OW27018   4.802   3.661   4.771 -0.3932 -0.1134 -0.5735
 8683SOL    HW127019   4.745   3.591   4.739 -0.3573 -0.0539 -0.7649
 8683SOL    HW227020   4.840   3.625   4.851 -0.6119 -0.1966 -0.5038
 8684SOL     OW27021   5.614   2.346   5.454 -0.1238  0.7907 -0.2571
 8684SOL    HW127022   5.657   2.432   5.460 -0.9323  1.1645  0.3173
 8684SOL    HW227023   5.557   2.353   5.377 -0.0064  0.6775 -0.3555
 8685SOL     OW27024   2.974   5.594   5.568 -0.2562  0.1087  0.4726
 8685SOL    HW127025   2.915   5.565   5.499  1.3420 -2.0942 -0.0994
 8685SOL    HW227026   2.930   5.570   5.650 -1.4496  1.2879  0.2134
 8686SOL     OW27027   0.232   1.141   5.884  0.0494  0.5122 -0.1098
 8686SOL    HW127028   0.202   1.054   5.913  1.0713  0.1100 -0.2029
 8686SOL    HW227029   0.282   1.123   5.804 -0.0017  1.2312 -0.3031
 8687SOL     OW27030   2.233   7.046   0.502  0.0934 -0.2181 -0.0574
 8687SOL    HW127031   2.203   7.052   0.411  1.2947  0.9419 -0.4104
 8687SOL    HW227032   2.168   7.094   0.552 -0.3581 -0.5146 -0.3479
 8688SOL     OW27033   7.247   2.969   5.612 -0.0098  0.1697  0.4010
 8688SOL    HW127034   7.207   2.965   5.699 -1.5089 -0.6352 -0.2920
 8688SOL    HW227035   7.174   2.986   5.553  0.5087 -2.0552 -0.9979
 8689SOL     OW27036   1.599   0.224   5.832  0.0045 -0.5287  0.2764
 8689SOL    HW127037   1.507   0.220   5.860 -0.6096  0.2123 -1.4924
 8689SOL    HW227038   1.610   0.147   5.776 -0.1332  0.3925 -1.0719
 8690SOL     OW27039   2.647   5.174   1.506 -0.4201 -0.0921 -0.1766
 8690SOL    HW127040   2.722   5.220   1.544  1.9644 -3.1699 -0.7698
 8690SOL    HW227041   2.645   5.204   1.415 -1.8602  2.1896  0.5386
 8691SOL     OW27042   2.376   5.227   7.316 -0.3761 -0.5343  0.1953
 8691SOL    HW127043   2.336   5.309   7.288 -0.5590  1.0284  4.3888
 8691SOL    HW227044   2.307   5.182   7.366  1.0873 -0.8991  1.9983
 8692SOL     OW27045   2.033   4.094   1.632 -0.3424  0.2567  0.2603
 8692SOL    HW127046   2.066   4.068   1.718 -1.2593 -0.9292  0.2849
 8692SOL    HW227047   1.943   4.061   1.630 -0.3862  0.3931 -1.0909
 8693SOL     OW27048   6.872   1.235   2.460  0.2465  0.1347 -0.2530
 8693SOL    HW127049   6.868   1.179   2.383  0.6953 -0.0751 -0.1283
 8693SOL    HW227050   6.813   1.308   2.439  0.7171  0.3222 -0.9958
 8694SOL     OW27051   0.648   5.886   1.432 -0.1823 -0.4866  0.0049
 8694SOL    HW127052   0.588   5.836   1.376  0.4050  0.5238 -1.6229
 8694SOL    HW227053   0.607   5.885   1.518 -0.9852 -2.3743 -0.3526
 8695SOL     OW27054   7.019   4.699   0.490 -0.3349  0.3531 -0.2011
 8695SOL    HW127055   6.975   4.630   0.440 -1.8539 -0.8984  2.6384
 8695SOL    HW227056   6.951   4.763   0.509  0.5355  1.5014 -0.8171
 8696SOL     OW27057   1.981   4.449   1.343 -0.2213  0.5065 -0.6556
 8696SOL    HW127058   1.915   4.391   1.304  1.4325 -1.0642 -1.2962
 8696SOL    HW227059   2.065   4.408   1.320  0.9488  1.2544  1.8897
 8697SOL     OW27060   1.947   2.087   4.134  0.3416  0.0884  0.5578
 8697SOL    HW127061   1.858   2.122   4.146 -0.4165 -1.6226  0.2121
 8697SOL    HW227062   1.960   2.030   4.210  0.6174 -0.6760 -0.0455
 8698SOL     OW27063   2.108   2.272   2.810  0.1932 -0.6813 -0.2679
 8698SOL    HW127064   2.012   2.269   2.808 -0.3415  2.8929  4.1369
 8698SOL    HW227065   2.133   2.216   2.883  0.7881  2.2491  1.9466
 8699SOL     OW27066   1.925   4.173   2.353 -0.1720 -0.1110 -0.3245
 8699SOL    HW127067   1.948   4.179   2.445  0.2383 -0.9565 -0.3612
 8699SOL    HW227068   1.907   4.080   2.338 -0.4357  0.0427 -1.0495
 8700SOL     OW27069   6.877   4.959   0.515  0.6560 -0.0258 -0.4201
 8700SOL    HW127070   6.868   5.038   0.461  1.1211 -0.3163 -0.9405
 8700SOL    HW227071   6.915   4.990   0.597 -1.4869  0.6545  0.3779
 8701SOL     OW27072   3.508   4.231   2.174 -0.2770  0.5144 -0.4059
 8701SOL    HW127073   3.418   4.246   2.205  0.3275  3.3858  0.2127
 8701SOL    HW227074   3.510   4.272   2.087  0.7737  1.7689  0.1804
 8702SOL     OW27075   4.428   3.276   6.122 -0.1317 -0.5350 -0.3644
 8702SOL    HW127076   4.354   3.317   6.166  0.2333  0.4410 -0.6365
 8702SOL    HW227077   4.426   3.185   6.151 -0.5679 -0.1762  0.7718
 8703SOL     OW27078   2.517   3.414   2.675  0.5291  0.0961 -0.6760
 8703SOL    HW127079   2.503   3.447   2.586 -2.8133 -0.1193 -0.3505
 8703SOL    HW227080   2.482   3.325   2.674  0.9241 -0.1005  0.7077
 8704SOL     OW27081   1.941   6.843   6.929 -0.0820  0.0909 -0.6901
 8704SOL    HW127082   2.013   6.848   6.866  0.4435 -2.1438 -0.3615
 8704SOL    HW227083   1.873   6.794   6.883  0.4598 -1.9381  0.5071
 8705SOL     OW27084   0.027   4.690   0.319 -0.1723  0.1469 -0.2169
 8705SOL    HW127085   0.053   4.604   0.286  0.1708 -0.9573  2.6321
 8705SOL    HW227086   0.088   4.750   0.277  0.8490 -1.2415 -0.8220
 8706SOL     OW27087   4.821   3.591   3.639 -0.0282  0.3968 -0.4749
 8706SOL    HW127088   4.805   3.499   3.663 -0.6591 -0.0178 -2.3047
 8706SOL    HW227089   4.916   3.597   3.629 -0.1050 -0.6327 -2.2914
 8707SOL     OW27090   4.047   6.089   2.445 -0.4045  0.7000  0.6909
 8707SOL    HW127091   4.002   6.004   2.451 -0.5297  0.5677 -1.4793
 8707SOL    HW227092   4.112   6.086   2.516 -0.7908 -0.9628  1.0316
 8708SOL     OW27093   1.468   5.297   6.199 -0.0970  0.0760  0.0207
 8708SOL    HW127094   1.560   5.274   6.183  0.1849  1.2847 -0.2237
 8708SOL    HW227095   1.418   5.228   6.155  0.6878 -0.6493  0.2386
 8709SOL     OW27096   6.705   1.869   4.134 -0.3870 -0.1142  0.0665
 8709SOL    HW127097   6.660   1.793   4.097  0.1858 -0.3779 -0.1004
 8709SOL    HW227098   6.642   1.941   4.125 -0.4907 -0.3042 -0.8700
 8710SOL     OW27099   3.720   1.039   4.170  0.1804 -0.0556  0.5074
 8710SOL    HW127100   3.732   0.981   4.245 -1.2658 -0.5931  0.3481
 8710SOL    HW227101   3.628   1.030   4.147  1.1596 -2.3273 -3.3000
 8711SOL     OW27102   2.628   4.891   6.332 -0.1774 -0.1838 -0.0154
 8711SOL    HW127103   2.680   4.935   6.265  0.4429 -2.0657 -0.8330
 8711SOL    HW227104   2.550   4.860   6.285  0.6112 -2.1667 -0.1117
 8712SOL     OW27105   6.553   1.930   6.138  0.2942  0.1971  0.1081
 8712SOL    HW127106   6.549   1.926   6.233 -0.0277 -1.5725  0.0523
 8712SOL    HW227107   6.646   1.945   6.119  0.4414  0.0434  0.6813
 8713SOL     OW27108   4.403   0.410   4.833  0.0195 -0.0530  0.1586
 8713SOL    HW127109   4.332   0.472   4.818  0.2036 -0.4393 -3.2019
 8713SOL    HW227110   4.360   0.326   4.848 -0.2192  0.0828  0.2375
 8714SOL     OW27111   5.981   3.755   6.864 -0.3683  0.5821  0.2770
 8714SOL    HW127112   6.029   3.785   6.941 -0.8102  0.3347  0.6532
 8714SOL    HW227113   6.024   3.673   6.840  0.2420  1.0280 -0.1907
 8715SOL     OW27114   4.290   6.448   3.099  0.1358  0.4186 -0.1241
 8715SOL    HW127115   4.265   6.489   3.017 -0.1930 -0.3192 -0.4058
 8715SOL    HW227116   4.308   6.520   3.159 -1.5907  0.9726 -0.2414
 8716SOL     OW27117   0.734   1.092   3.303 -0.1438  0.4148 -0.1592
 8716SOL    HW127118   0.827   1.073   3.319 -0.4095 -1.7830 -0.8003
 8716SOL    HW227119   0.688   1.020   3.345 -1.4146  0.2567 -1.7434
 8717SOL     OW27120   2.655   5.802   0.241 -0.4455 -0.6853  0.1828
 8717SOL    HW127121   2.712   5.878   0.232  0.8140 -1.5928  0.2383
 8717SOL    HW227122   2.573   5.837   0.275 -0.6688  0.9494 -1.8362
 8718SOL     OW27123   5.325   6.752   0.345 -0.7970  0.3993  0.0327
 8718SOL    HW127124   5.419   6.759   0.362 -1.2683 -0.1173  3.4110
 8718SOL    HW227125   5.300   6.669   0.386 -2.8203  0.7031 -0.5074
 8719SOL     OW27126   6.589   3.213   3.843  0.1613  0.2972  0.2009
 8719SOL    HW127127   6.616   3.129   3.806  0.5780  0.4007  0.2636
 8719SOL    HW227128   6.632   3.215   3.929  0.7493  0.8960 -0.1010
 8720SOL     OW27129   1.527   0.610   2.029  0.2788  0.3293 -0.6864
 8720SOL    HW127130   1.440   0.613   1.989 -0.3300  0.8276  0.6145
 8720SOL    HW227131   1.528   0.529   2.079 -1.4856  2.6171  3.5368
 8721SOL     OW27132   3.711   3.259   0.304 -0.0760 -0.2570  0.2068
 8721SOL    HW127133   3.786   3.232   0.358 -1.1462 -0.9656  1.3974
 8721SOL    HW227134   3.718   3.206   0.225  1.7337  1.0642 -0.5843
 8722SOL     OW27135   3.485   0.526   7.095 -0.0787  0.1390  0.4531
 8722SOL    HW127136   3.531   0.594   7.144  3.5585 -0.1341 -2.1482
 8722SOL    HW227137   3.475   0.563   7.007 -4.6601 -0.0883  0.5921
 8723SOL     OW27138   7.001   2.314   4.192 -0.2115 -0.3709 -0.1803
 8723SOL    HW127139   6.978   2.382   4.255  1.3857 -0.9331  1.0664
 8723SOL    HW227140   6.941   2.328   4.119 -0.3086  2.0013  0.2785
 8724SOL     OW27141   1.725   2.721   3.518 -0.2236 -0.2122 -0.1921
 8724SOL    HW127142   1.746   2.682   3.603 -1.0330 -3.7239 -1.4618
 8724SOL    HW227143   1.630   2.729   3.518 -0.2404 -0.3547 -0.7965
 8725SOL     OW27144   3.773   4.899   1.410 -0.5097 -0.3757  0.0334
 8725SOL    HW127145   3.865   4.917   1.394 -0.9766  0.4196 -2.0140
 8725SOL    HW227146   3.736   4.984   1.437 -0.8815 -0.3890 -0.4177
 8726SOL     OW27147   2.953   4.807   2.266  0.3862  0.3453  0.1066
 8726SOL    HW127148   2.871   4.839   2.227  0.4391 -0.6098 -0.8114
 8726SOL    HW227149   3.019   4.823   2.199  0.4922 -1.2356 -0.2039
 8727SOL     OW27150   5.669   3.203   1.219  0.0921  0.4054  0.2837
 8727SOL    HW127151   5.576   3.202   1.241  0.0680 -2.1202  0.4445
 8727SOL    HW227152   5.714   3.188   1.303  0.5527  0.2345  0.0126
 8728SOL     OW27153   3.865   6.594   0.553 -0.3600 -0.2423 -0.1708
 8728SOL    HW127154   3.906   6.591   0.640  1.2271  0.2621 -0.8489
 8728SOL    HW227155   3.896   6.515   0.509  1.1141  0.8009 -1.1589
 8729SOL     OW27156   2.182   6.205   5.791  0.2636  0.0475  0.0700
 8729SOL    HW127157   2.263   6.168   5.826 -0.0622 -0.0377  0.7324
 8729SOL    HW227158   2.117   6.192   5.859  0.7385  4.3908  1.7232
 8730SOL     OW27159   4.499   6.892   2.767 -0.1537  0.2303  0.1769
 8730SOL    HW127160   4.404   6.895   2.763 -0.1506 -0.4839 -1.1961
 8730SOL    HW227161   4.522   6.949   2.840 -1.6896 -0.7506  1.4960
 8731SOL     OW27162   3.213   4.493   2.079  0.2225 -0.3620 -0.1781
 8731SOL    HW127163   3.210   4.465   2.171  1.0893 -1.7119 -0.5406
 8731SOL    HW227164   3.270   4.430   2.036  0.2664  0.5696 -1.5537
 8732SOL     OW27165   0.176   3.821   5.325 -0.0487  0.2221  0.1777
 8732SOL    HW127166   0.081   3.816   5.314  0.2164 -0.1639 -2.8336
 8732SOL    HW227167   0.197   3.751   5.387 -1.7704  0.8819  1.5835
 8733SOL     OW27168   1.957   1.437   3.773 -0.0321 -0.4603 -0.2219
 8733SOL    HW127169   2.013   1.468   3.702  0.8034  1.1738  1.0666
 8733SOL    HW227170   2.019   1.409   3.841 -0.8015 -0.4976  0.4821
 8734SOL     OW27171   5.220   0.825   3.825  1.3307 -0.2381 -0.4834
 8734SOL    HW127172   5.156   0.760   3.853  1.8069 -0.5407 -0.0727
 8734SOL    HW227173   5.250   0.865   3.907  1.3264  0.2257 -0.7047
 8735SOL     OW27174   5.784   4.401   4.920  0.2038  0.1712  0.0584
 8735SOL    HW127175   5.773   4.418   5.014  0.9493  1.7704 -0.1100
 8735SOL    HW227176   5.710   4.446   4.879  1.0205  1.2766 -0.2465
 8736SOL     OW27177   6.250   1.193   3.440 -0.2613 -0.4815  0.2332
 8736SOL    HW127178   6.234   1.223   3.530 -0.1977 -1.9063  0.7303
 8736SOL    HW227179   6.190   1.246   3.387 -1.0465 -0.3451  1.2264
 8737SOL     OW27180   4.220   7.233   5.856  0.5594  0.3422 -0.3806
 8737SOL    HW127181   4.237   7.176   5.930  0.2165 -1.5533 -1.6898
 8737SOL    HW227182   4.307   7.262   5.828  0.6628  1.4505  0.9895
 8738SOL     OW27183   0.135   1.740   0.423 -0.6847 -0.6196 -0.4458
 8738SOL    HW127184   0.061   1.795   0.448  0.7289  0.7432  0.9627
 8738SOL    HW227185   0.143   1.751   0.328 -1.9277 -0.3752 -0.5385
 8739SOL     OW27186   5.175   3.053   5.071 -0.1338 -0.0436  0.3898
 8739SOL    HW127187   5.222   3.006   5.139  0.6283 -0.2387 -0.2687
 8739SOL    HW227188   5.207   3.017   4.989 -2.7478 -1.4916 -0.0975
 8740SOL     OW27189   0.884   1.027   0.264  0.0641  0.0148 -0.6033
 8740SOL    HW127190   0.799   1.071   0.257  0.7033  1.4783  0.2327
 8740SOL    HW227191   0.891   1.004   0.357  0.2861 -0.7256 -0.8006
 8741SOL     OW27192   7.304   3.303   4.350  0.0228 -0.3052  0.3578
 8741SOL    HW127193   7.209   3.307   4.365 -0.1025  1.1945 -0.6710
 8741SOL    HW227194   7.334   3.235   4.411 -1.8562 -1.6044 -0.0681
 8742SOL     OW27195   2.784   4.762   6.712  0.8069  0.0193 -0.1944
 8742SOL    HW127196   2.725   4.816   6.764  1.3931  0.0612  0.4424
 8742SOL    HW227197   2.733   4.738   6.635 -0.1199 -0.1364  0.4473
 8743SOL     OW27198   4.389   2.953   3.776  0.1223  0.0293 -0.4883
 8743SOL    HW127199   4.434   2.880   3.733 -0.7024 -0.9472  0.2599
 8743SOL    HW227200   4.393   3.024   3.712  0.8279 -0.7058 -1.2877
 8744SOL     OW27201   6.716   2.107   0.092 -0.4642 -0.3731 -0.3272
 8744SOL    HW127202   6.623   2.131   0.100 -0.1555  0.5785  0.7860
 8744SOL    HW227203   6.754   2.177   0.038 -0.0913  0.1596  0.6031
 8745SOL     OW27204   4.729   4.899   4.684  0.3657 -0.0176  0.2056
 8745SOL    HW127205   4.662   4.949   4.732  0.7298 -1.0986  1.9483
 8745SOL    HW227206   4.781   4.965   4.639  1.2458  1.2901  2.9500
 8746SOL     OW27207   4.902   5.373   0.474 -0.0975 -0.1620  0.5920
 8746SOL    HW127208   4.919   5.422   0.394 -1.3135 -1.4471 -0.5062
 8746SOL    HW227209   4.978   5.315   0.482 -0.1320 -0.2696  0.1780
 8747SOL     OW27210   1.089   0.084   4.594  0.2977 -0.1495  0.7231
 8747SOL    HW127211   1.097   0.157   4.533  0.0437 -1.2248 -0.6361
 8747SOL    HW227212   1.154   0.102   4.662 -0.5177  1.9028  1.0351
 8748SOL     OW27213   1.699   6.898   5.209  0.1736 -0.4888  0.2728
 8748SOL    HW127214   1.738   6.897   5.296  0.4194 -0.1743  0.1730
 8748SOL    HW227215   1.773   6.919   5.151 -0.5133  2.3767  0.2974
 8749SOL     OW27216   2.377   2.172   1.490  0.5484  0.2343 -0.0522
 8749SOL    HW127217   2.343   2.239   1.549  1.1552  0.5150 -0.0161
 8749SOL    HW227218   2.311   2.166   1.421 -0.4553 -0.5178  0.9418
 8750SOL     OW27219   6.360   1.760   5.509  0.1469 -0.2193  0.4580
 8750SOL    HW127220   6.320   1.814   5.440  1.8908 -0.7387 -1.0544
 8750SOL    HW227221   6.288   1.740   5.568 -1.1277  1.4844 -0.4022
 8751SOL     OW27222   2.029   2.703   4.951  0.1297 -0.5108 -0.5707
 8751SOL    HW127223   2.025   2.611   4.927  0.6248 -1.1506  1.5776
 8751SOL    HW227224   2.067   2.703   5.039 -0.6821  1.6834 -0.1657
 8752SOL     OW27225   5.874   0.306   5.093  0.0496  0.4270  0.3874
 8752SOL    HW127226   5.965   0.329   5.076 -0.4378  1.6761 -0.6765
 8752SOL    HW227227   5.863   0.321   5.187  0.5674  1.6721  0.2682
 8753SOL     OW27228   0.031   1.690   3.530 -0.6899  0.4735 -0.4916
 8753SOL    HW127229   0.005   1.741   3.453  1.1095  1.4566 -0.4884
 8753SOL    HW227230  -0.003   1.602   3.512  0.4778  0.4269 -2.8714
 8754SOL     OW27231   5.708   3.870   3.957 -0.4112 -0.2629 -0.3565
 8754SOL    HW127232   5.666   3.822   3.886 -2.2343  0.2085  0.3432
 8754SOL    HW227233   5.648   3.943   3.975  0.7152  0.4304  0.7154
 8755SOL     OW27234   7.248   6.551   1.224 -0.2964  0.2436 -0.0630
 8755SOL    HW127235   7.219   6.474   1.175 -1.6932  0.2842  0.6493
 8755SOL    HW227236   7.330   6.577   1.181 -0.2000 -1.1669 -0.8025
 8756SOL     OW27237   6.214   4.525   3.757  0.8100  1.0451  0.5438
 8756SOL    HW127238   6.152   4.498   3.824 -0.5129 -0.2662 -1.1163
 8756SOL    HW227239   6.171   4.598   3.712 -0.2657 -0.7162 -1.4766
 8757SOL     OW27240   0.253   4.986   6.897 -0.4489 -0.3432 -0.3914
 8757SOL    HW127241   0.237   5.073   6.859 -1.6152 -1.5129 -2.8059
 8757SOL    HW227242   0.172   4.964   6.943  0.5113  0.5360  1.8833
 8758SOL     OW27243   5.308   1.312   6.705  0.1682  0.3525 -0.0371
 8758SOL    HW127244   5.220   1.275   6.694  0.3344 -0.1680  0.3596
 8758SOL    HW227245   5.330   1.293   6.796 -0.2950  2.6443  0.6012
 8759SOL     OW27246   1.061   2.505   4.337 -0.3273 -0.3239  0.0316
 8759SOL    HW127247   1.029   2.585   4.295 -1.7841 -0.6587  0.4297
 8759SOL    HW227248   1.040   2.436   4.274 -0.7162 -0.5907  0.4488
 8760SOL     OW27249   2.369   3.107   6.551  0.7453  0.2165 -0.2977
 8760SOL    HW127250   2.434   3.037   6.556  1.4502  0.9161  0.6905
 8760SOL    HW227251   2.325   3.105   6.636 -1.1204 -0.7571 -1.2159
 8761SOL     OW27252   7.016   1.599   4.674  0.0070  0.5590  0.1213
 8761SOL    HW127253   6.929   1.559   4.673  1.2637 -2.6421 -2.8566
 8761SOL    HW227254   7.009   1.673   4.613 -0.4490 -0.3727 -1.0090
 8762SOL     OW27255   4.317   1.450   3.049 -0.1272  0.1806 -0.0541
 8762SOL    HW127256   4.277   1.447   2.961 -1.2094  0.9386  0.3901
 8762SOL    HW227257   4.264   1.514   3.097  0.6835  0.0462  1.0479
 8763SOL     OW27258   5.447   4.822   3.658 -0.1724 -0.7576 -0.5158
 8763SOL    HW127259   5.426   4.870   3.578 -1.7216  2.2015  1.4809
 8763SOL    HW227260   5.362   4.795   3.693  0.5257 -2.7608 -0.2040
 8764SOL     OW27261   1.778   2.558   3.290  0.7683  0.1208  0.2311
 8764SOL    HW127262   1.871   2.564   3.271  1.2727  0.0185  2.4580
 8764SOL    HW227263   1.765   2.610   3.369 -1.3814  1.4468 -0.8906
 8765SOL     OW27264   1.989   4.656   6.331  0.2589  0.6073 -0.5324
 8765SOL    HW127265   1.962   4.575   6.289 -0.4827  2.1656 -3.3093
 8765SOL    HW227266   2.076   4.674   6.295  0.9519  0.4880  0.9939
 8766SOL     OW27267   0.790   3.220   2.662 -0.5110 -0.3953  0.4939
 8766SOL    HW127268   0.882   3.230   2.637 -0.0339 -2.7975  0.9730
 8766SOL    HW227269   0.743   3.218   2.578 -0.1575  0.9350  0.2486
 8767SOL     OW27270   0.241   4.866   0.227  0.1256  1.0440 -0.4051
 8767SOL    HW127271   0.227   4.936   0.163  1.5701  1.3109 -0.4663
 8767SOL    HW227272   0.261   4.789   0.173 -1.3089  0.5969 -0.3335
 8768SOL     OW27273   1.595   1.726   3.509 -0.1627  0.1171 -0.1183
 8768SOL    HW127274   1.564   1.741   3.419 -1.4115  1.6495  0.5191
 8768SOL    HW227275   1.595   1.631   3.519 -0.2890 -0.0711 -1.6407
 8769SOL     OW27276   5.521   5.830   1.040 -0.1621  0.0144 -0.4340
 8769SOL    HW127277   5.489   5.744   1.013 -1.5365  0.5982 -0.7532
 8769SOL    HW227278   5.519   5.827   1.136  0.4385 -0.5182 -0.4267
 8770SOL     OW27279   3.322   3.687   0.755 -0.2667 -0.2829 -0.1299
 8770SOL    HW127280   3.284   3.728   0.832  1.1246 -0.5289  0.7106
 8770SOL    HW227281   3.254   3.627   0.724 -0.7835 -0.2790  0.9683
 8771SOL     OW27282   2.769   1.485   5.633  0.4059  0.1952  0.3213
 8771SOL    HW127283   2.691   1.504   5.581  0.9112  0.2673 -0.4247
 8771SOL    HW227284   2.834   1.456   5.569  0.9290 -0.0659  0.9591
 8772SOL     OW27285   0.244   6.392   6.960  0.5214 -0.2573 -0.1677
 8772SOL    HW127286   0.209   6.410   7.047 -0.8488  1.0482 -0.9477
 8772SOL    HW227287   0.197   6.313   6.932 -1.0877  0.8528 -0.7595
 8773SOL     OW27288   0.444   2.005   1.592 -0.1773  0.2885  0.2807
 8773SOL    HW127289   0.503   1.943   1.549 -0.4341  1.2945 -1.5905
 8773SOL    HW227290   0.492   2.088   1.593 -1.6204  1.2143 -1.5902
 8774SOL     OW27291   7.171   7.062   4.808 -0.9760  0.0601 -0.3766
 8774SOL    HW127292   7.119   7.111   4.872 -0.9300 -0.5247  0.1188
 8774SOL    HW227293   7.260   7.065   4.842 -1.0225 -0.6326 -0.1598
 8775SOL     OW27294   1.136   2.033   1.369 -0.0852  0.4981 -0.1875
 8775SOL    HW127295   1.097   2.102   1.423 -3.0042  1.4970 -3.1835
 8775SOL    HW227296   1.069   2.015   1.303  2.4314 -1.9846 -2.2790
 8776SOL     OW27297   2.150   1.634   2.187  0.4049  0.4193 -0.4581
 8776SOL    HW127298   2.238   1.639   2.224  1.0588  1.7066 -2.0653
 8776SOL    HW227299   2.163   1.627   2.093 -1.2102 -2.3701 -0.5760
 8777SOL     OW27300   4.454   3.180   2.848 -0.4352 -0.0927 -0.3009
 8777SOL    HW127301   4.431   3.272   2.853  0.5104  0.0982  1.1639
 8777SOL    HW227302   4.482   3.167   2.757 -2.2938  0.5910 -1.0198
 8778SOL     OW27303   5.954   0.025   5.808  0.8790  0.0634  0.4774
 8778SOL    HW127304   5.894  -0.016   5.869 -0.0397 -1.4033 -1.3069
 8778SOL    HW227305   5.965   0.115   5.840 -2.5807  0.5271  0.6842
 8779SOL     OW27306   1.776   4.850   5.932  0.2755 -0.1297 -0.0985
 8779SOL    HW127307   1.690   4.810   5.938 -0.1086  0.4065 -1.6014
 8779SOL    HW227308   1.779   4.911   6.006  0.1173 -1.4653  1.0557
 8780SOL     OW27309   5.018   1.413   2.803 -0.1150 -0.8846 -0.9330
 8780SOL    HW127310   4.973   1.465   2.736 -0.2567  1.6654  0.9686
 8780SOL    HW227311   5.046   1.478   2.868 -1.9807 -3.3341  2.6355
 8781SOL     OW27312   6.001   4.107   6.543  0.4312 -0.3560 -0.7930
 8781SOL    HW127313   6.079   4.101   6.488  1.6104  0.8912  0.6491
 8781SOL    HW227314   5.992   4.020   6.581  1.7853 -0.2516 -0.1667
 8782SOL     OW27315   4.196   7.237   2.709 -0.4498  0.2169 -0.2792
 8782SOL    HW127316   4.193   7.287   2.627 -0.3777 -0.8566 -0.9513
 8782SOL    HW227317   4.175   7.302   2.777  0.1915  1.2743 -1.0611
 8783SOL     OW27318   1.844   1.475   0.527 -0.0226  0.1180  0.1297
 8783SOL    HW127319   1.756   1.505   0.502 -0.4021 -0.5385  0.6554
 8783SOL    HW227320   1.845   1.382   0.504  0.1469 -0.1333  1.1200
 8784SOL     OW27321   5.795   3.063   5.671 -0.1239 -0.4231  0.2748
 8784SOL    HW127322   5.755   2.998   5.728 -0.2323  0.3654  1.1122
 8784SOL    HW227323   5.831   3.129   5.730 -0.1911  0.3909 -0.5562
 8785SOL     OW27324   4.481   4.148   2.006 -0.3622  0.6071  0.4342
 8785SOL    HW127325   4.418   4.216   1.983 -1.0034 -0.1266 -0.0110
 8785SOL    HW227326   4.430   4.082   2.052 -0.1383 -0.4489 -0.7723
 8786SOL     OW27327   5.828   6.977   6.718  0.3486  0.2566 -0.5791
 8786SOL    HW127328   5.905   7.031   6.733  1.1237  0.0803 -3.3377
 8786SOL    HW227329   5.853   6.889   6.746  1.0821  0.2633 -1.1861
 8787SOL     OW27330   4.770   0.867   5.692 -0.6294 -0.2126  0.1319
 8787SOL    HW127331   4.702   0.807   5.719 -1.5437  0.1903 -1.1496
 8787SOL    HW227332   4.728   0.922   5.625  1.3441 -0.9417 -1.8271
 8788SOL     OW27333   5.178   2.457   3.528 -0.4711  0.4594 -0.5934
 8788SOL    HW127334   5.230   2.512   3.470 -0.9620 -1.1875 -2.7586
 8788SOL    HW227335   5.128   2.518   3.582 -0.5590  2.1460 -2.4692
 8789SOL     OW27336   5.285   5.072   3.226 -0.1458 -0.2917 -0.0494
 8789SOL    HW127337   5.316   5.136   3.161 -1.1371  1.3663  1.0372
 8789SOL    HW227338   5.235   5.124   3.288  0.1452 -1.9577  1.6490
 8790SOL     OW27339   3.011   3.380   0.184  0.0371 -0.1674  0.0498
 8790SOL    HW127340   3.090   3.389   0.130  0.5290  2.0852  1.0584
 8790SOL    HW227341   3.042   3.345   0.267 -0.0129  0.7075  0.4446
 8791SOL     OW27342   6.425   1.678   6.652  0.3010 -0.4607  0.0171
 8791SOL    HW127343   6.375   1.759   6.659  1.0933  0.2178 -1.5686
 8791SOL    HW227344   6.465   1.682   6.565  1.8526 -1.6874  0.6167
 8792SOL     OW27345   6.563   4.679   1.587 -0.6596 -0.5295  0.3023
 8792SOL    HW127346   6.539   4.618   1.657  0.4751 -1.3926 -0.0189
 8792SOL    HW227347   6.525   4.640   1.508 -1.9798  0.4669  0.4211
 8793SOL     OW27348   2.963   6.201   0.123 -0.1237  0.2948 -0.7515
 8793SOL    HW127349   2.989   6.293   0.115  0.4256  0.0997 -1.3348
 8793SOL    HW227350   3.029   6.153   0.073 -0.6127 -0.3878 -0.7593
 8794SOL     OW27351   6.790   2.712   6.412 -0.5381 -0.5772 -0.3528
 8794SOL    HW127352   6.835   2.666   6.482  0.1715 -1.4851 -1.3623
 8794SOL    HW227353   6.768   2.798   6.449  0.2024 -0.8732  0.8197
 8795SOL     OW27354   3.615   4.079   1.068 -0.1950  0.3541  0.5828
 8795SOL    HW127355   3.634   4.141   0.998 -0.9047  1.1087  1.0386
 8795SOL    HW227356   3.589   4.134   1.142 -0.8228 -0.4893  1.0062
 8796SOL     OW27357   7.269   4.975   3.208 -0.1355  0.0534 -0.0713
 8796SOL    HW127358   7.262   4.996   3.115  0.7466 -1.2330 -0.4517
 8796SOL    HW227359   7.202   4.909   3.223 -0.0165 -0.0222  0.1296
 8797SOL     OW27360   0.596   7.020   5.745 -0.3270  0.4506  0.3247
 8797SOL    HW127361   0.591   7.105   5.788 -0.3455  1.2348 -1.1551
 8797SOL    HW227362   0.538   7.028   5.669  0.4498 -0.5397 -0.4018
 8798SOL     OW27363   1.659   0.883   5.314  0.2120 -0.0223 -0.3939
 8798SOL    HW127364   1.642   0.946   5.244 -0.7328 -0.3965 -0.5187
 8798SOL    HW227365   1.728   0.924   5.367  0.8513  0.3197 -1.4577
 8799SOL     OW27366   2.971   5.852   3.399  0.0458 -0.0380 -0.1331
 8799SOL    HW127367   2.954   5.812   3.484  2.5631  0.1484  0.5498
 8799SOL    HW227368   2.931   5.793   3.335  1.0852 -2.0574  1.0150
 8800SOL     OW27369   5.303   6.700   5.191 -0.4480  0.2017  0.1835
 8800SOL    HW127370   5.347   6.752   5.259 -0.2015 -0.2451  0.3675
 8800SOL    HW227371   5.358   6.623   5.180 -0.8807 -0.0851  0.0021
 8801SOL     OW27372   3.600   5.988   4.132  0.4371 -0.4701 -0.2027
 8801SOL    HW127373   3.648   6.068   4.155  0.0814 -0.3024 -0.0265
 8801SOL    HW227374   3.516   5.997   4.178  0.1643 -0.6712 -0.6519
 8802SOL     OW27375   2.546   5.596   0.064  0.0951 -0.2260  0.0845
 8802SOL    HW127376   2.461   5.620   0.028  0.0313  1.0559  1.0469
 8802SOL    HW227377   2.585   5.679   0.092  1.5937 -0.8106 -0.1642
 8803SOL     OW27378   1.854   7.199   5.352 -0.4970 -0.3692  0.4188
 8803SOL    HW127379   1.828   7.159   5.269  0.6429 -2.8851  1.1676
 8803SOL    HW227380   1.949   7.189   5.355 -0.4512  0.1969  1.7522
 8804SOL     OW27381   6.176   1.074   2.563 -0.0259  0.2920  0.1344
 8804SOL    HW127382   6.237   1.018   2.611  0.1787 -0.6005 -1.1182
 8804SOL    HW227383   6.094   1.024   2.561 -0.1821  0.5526  0.0296
 8805SOL     OW27384   4.453   2.162   1.841 -0.6540 -0.3616  0.0910
 8805SOL    HW127385   4.527   2.103   1.838  0.3674  0.9349 -1.7311
 8805SOL    HW227386   4.412   2.155   1.755  0.5342  2.7381 -0.8659
 8806SOL     OW27387   2.077   5.061   2.887  0.3929  0.0924 -0.3110
 8806SOL    HW127388   2.095   4.997   2.819  0.5251 -1.5615  1.2164
 8806SOL    HW227389   2.135   5.135   2.866  2.2304 -1.3634 -0.6369
 8807SOL     OW27390   5.280   2.314   0.216  0.4685 -0.7309 -0.5627
 8807SOL    HW127391   5.326   2.389   0.255 -0.3690 -0.8226  0.6553
 8807SOL    HW227392   5.230   2.351   0.144  2.5556 -0.6574 -2.0711
 8808SOL     OW27393   3.791   5.662   7.061  0.0601 -0.0996  0.1974
 8808SOL    HW127394   3.872   5.700   7.026 -1.3549  3.5583  0.5239
 8808SOL    HW227395   3.780   5.703   7.146 -3.3429  1.5143 -0.8521
 8809SOL     OW27396   6.014   7.134   2.517 -0.3538  0.2249 -0.3555
 8809SOL    HW127397   5.941   7.083   2.553 -1.0183  0.8476 -0.7810
 8809SOL    HW227398   6.037   7.195   2.587  1.5971 -1.7321  0.8286
 8810SOL     OW27399   4.897   2.709   6.774 -0.3717  0.6421 -0.4310
 8810SOL    HW127400   4.814   2.735   6.813  0.5001  1.7402  0.7938
 8810SOL    HW227401   4.963   2.741   6.835  0.9590 -0.3696 -1.2727
 8811SOL     OW27402   4.589   0.492   2.847 -0.4269 -0.1734  0.1463
 8811SOL    HW127403   4.646   0.423   2.879 -0.3406  0.0319  0.4435
 8811SOL    HW227404   4.609   0.499   2.754  0.5053  0.3419  0.3786
 8812SOL     OW27405   0.977   5.329   6.977 -0.2555  0.6336  0.6409
 8812SOL    HW127406   0.920   5.382   6.922 -0.5848  0.4807  0.8257
 8812SOL    HW227407   0.983   5.378   7.060 -1.0803  0.0878  1.0413
 8813SOL     OW27408   7.246   7.019   3.150 -0.2798  0.1699 -0.5037
 8813SOL    HW127409   7.298   7.012   3.069 -0.2661  0.4253 -0.5172
 8813SOL    HW227410   7.235   7.113   3.163  0.3122  0.1584  0.1687
 8814SOL     OW27411   3.587   1.413   7.092  0.1027 -0.3028 -0.5031
 8814SOL    HW127412   3.642   1.466   7.150  0.8715 -1.0351 -0.5446
 8814SOL    HW227413   3.646   1.384   7.023 -0.3508 -1.0374 -0.5951
 8815SOL     OW27414   5.188   3.721   1.139  0.6248  0.3672 -0.2249
 8815SOL    HW127415   5.236   3.653   1.092 -1.2238 -0.6197 -0.7735
 8815SOL    HW227416   5.131   3.674   1.199 -0.0380  1.4607  0.0331
 8816SOL     OW27417   4.223   1.567   5.027  0.7443 -0.6629  0.1992
 8816SOL    HW127418   4.249   1.520   4.947  0.9622 -0.2998  0.0544
 8816SOL    HW227419   4.287   1.540   5.092  0.0537 -1.6477  0.5023
 8817SOL     OW27420   6.850   0.718   3.735 -0.0945 -0.6419  0.0631
 8817SOL    HW127421   6.879   0.632   3.767  1.5503 -0.3470 -0.5072
 8817SOL    HW227422   6.866   0.777   3.808 -2.2125 -0.9352  0.8357
 8818SOL     OW27423   0.330   3.673   1.496 -0.2700 -0.0128  0.1054
 8818SOL    HW127424   0.355   3.691   1.586 -0.6028  0.4435  0.1117
 8818SOL    HW227425   0.362   3.749   1.447  0.5472 -0.5896 -0.2804
 8819SOL     OW27426   1.444   6.473   4.983 -0.2600  0.6225  0.2303
 8819SOL    HW127427   1.380   6.538   5.012 -1.1155 -0.3000  0.4745
 8819SOL    HW227428   1.529   6.514   5.001 -0.7239  2.3354 -1.1311
 8820SOL     OW27429   6.806   3.320   1.046 -0.2740  0.1176 -0.0541
 8820SOL    HW127430   6.814   3.225   1.042 -1.1075  0.0931 -2.9335
 8820SOL    HW227431   6.764   3.337   1.131 -0.3414 -2.0756  0.4056
 8821SOL     OW27432   3.828   0.690   2.889  0.2996  0.1434  0.3782
 8821SOL    HW127433   3.892   0.671   2.820 -0.1914 -0.0176 -0.0433
 8821SOL    HW227434   3.841   0.782   2.909 -1.0963  0.8364 -1.5898
 8822SOL     OW27435   2.967   4.952   5.733  0.0535  0.5610  0.7976
 8822SOL    HW127436   2.970   4.870   5.684  1.2958  1.6061 -1.0330
 8822SOL    HW227437   2.876   4.980   5.726 -0.3619 -0.5871  1.3589
 8823SOL     OW27438   5.313   2.577   4.165 -0.6081 -0.0864 -0.4594
 8823SOL    HW127439   5.310   2.646   4.231 -1.9214 -1.1118  0.6341
 8823SOL    HW227440   5.254   2.607   4.095 -0.0722  0.5108 -0.6602
 8824SOL     OW27441   0.597   7.180   5.299  0.1458  0.6446 -0.1261
 8824SOL    HW127442   0.522   7.183   5.358 -0.5697 -0.3877 -0.9463
 8824SOL    HW227443   0.563   7.139   5.219  1.6006  0.0426 -0.4713
 8825SOL     OW27444   3.529   1.605   5.688 -0.3195  0.0927 -0.1105
 8825SOL    HW127445   3.448   1.555   5.695  0.5701 -1.5373 -0.8732
 8825SOL    HW227446   3.528   1.642   5.600 -1.0098  1.5433  0.4774
 8826SOL     OW27447   2.186   1.252   4.017 -0.5965  0.4480  0.4849
 8826SOL    HW127448   2.163   1.178   3.961  1.4499 -0.2780  0.5311
 8826SOL    HW227449   2.196   1.214   4.105 -0.2200  0.9058  0.6430
 8827SOL     OW27450   2.638   3.777   6.703  0.3897 -0.4777 -0.1319
 8827SOL    HW127451   2.657   3.693   6.661 -0.2518 -2.2063  2.7347
 8827SOL    HW227452   2.679   3.771   6.789 -0.3945  1.8182  0.4820
 8828SOL     OW27453   1.032   4.620   2.246  0.7676 -0.1541 -0.6371
 8828SOL    HW127454   1.039   4.699   2.193 -0.3619 -0.6766 -1.6208
 8828SOL    HW227455   0.948   4.629   2.291  0.9407 -0.4940 -0.2363
 8829SOL     OW27456   4.961   2.118   7.000 -0.5635 -0.0409 -0.7221
 8829SOL    HW127457   4.919   2.079   7.077 -1.3322  2.6558  0.3262
 8829SOL    HW227458   5.044   2.071   6.991 -0.7655 -0.8803  1.3300
 8830SOL     OW27459   6.484   5.055   7.169  0.5462 -0.2777 -0.8069
 8830SOL    HW127460   6.432   5.044   7.248 -2.1759 -1.0655 -2.5501
 8830SOL    HW227461   6.541   4.978   7.166 -0.7668 -1.2834 -0.5756
 8831SOL     OW27462   7.230   2.600   4.489  0.5186  0.5304  0.0119
 8831SOL    HW127463   7.153   2.578   4.437  0.6880  1.0791 -0.4800
 8831SOL    HW227464   7.304   2.579   4.432  0.6925  2.0051 -0.3311
 8832SOL     OW27465   4.166   1.891   3.038 -0.0519  0.7699  0.4268
 8832SOL    HW127466   4.071   1.886   3.026 -0.0061 -0.5010  0.3643
 8832SOL    HW227467   4.200   1.916   2.952 -0.3969  2.6858  0.8093
 8833SOL     OW27468   6.824   4.677   7.280 -0.0948  0.2456  0.2193
 8833SOL    HW127469   6.786   4.662   7.366 -0.7432  0.2118 -0.0671
 8833SOL    HW227470   6.855   4.590   7.253  1.0900  0.4499  0.8649
 8834SOL     OW27471   0.330   5.003   5.369  0.4281  0.0904  0.4949
 8834SOL    HW127472   0.337   4.908   5.360  0.9803  0.1159  0.6794
 8834SOL    HW227473   0.236   5.018   5.378  0.1620 -0.3026 -1.1392
 8835SOL     OW27474   4.986   3.715   6.384  0.1449 -0.3163  0.3417
 8835SOL    HW127475   5.029   3.651   6.440 -0.0999 -0.6359  0.1691
 8835SOL    HW227476   4.987   3.674   6.297  1.7948  0.7680 -0.1988
 8836SOL     OW27477   1.651   2.207   2.030  0.0043  0.4552  0.0353
 8836SOL    HW127478   1.603   2.125   2.046  0.4941  0.3404  0.9549
 8836SOL    HW227479   1.586   2.276   2.045  0.0143  0.2864  0.9042
 8837SOL     OW27480   2.717   2.836   2.866 -0.2831 -0.4921  0.2020
 8837SOL    HW127481   2.689   2.880   2.786  0.9293 -0.1055 -0.0360
 8837SOL    HW227482   2.798   2.791   2.841 -0.0315 -0.5844  1.1371
 8838SOL     OW27483   0.756   0.376   4.415 -0.5471 -0.2472 -0.1074
 8838SOL    HW127484   0.674   0.403   4.373 -0.0257 -0.8924 -1.6004
 8838SOL    HW227485   0.816   0.362   4.343  1.4733  1.9763  1.0048
 8839SOL     OW27486   5.816   6.632   5.887 -0.3998  0.3080 -0.0759
 8839SOL    HW127487   5.759   6.644   5.963  0.3941  0.6146  0.4839
 8839SOL    HW227488   5.790   6.547   5.851  1.1301 -1.2610  2.2628
 8840SOL     OW27489   4.892   6.379   7.049 -0.5923  0.6262 -0.3816
 8840SOL    HW127490   4.987   6.369   7.044 -0.2157  2.1610  2.0333
 8840SOL    HW227491   4.865   6.316   7.115 -0.6813  2.4910  1.4880
 8841SOL     OW27492   3.231   6.366   1.166  0.3834 -0.5393 -0.1291
 8841SOL    HW127493   3.281   6.435   1.123  0.4563 -1.2752 -1.2453
 8841SOL    HW227494   3.268   6.284   1.132 -1.3019 -1.1157 -0.6867
 8842SOL     OW27495   4.152   4.161   1.958 -0.1882  0.7100  0.5041
 8842SOL    HW127496   4.149   4.066   1.970  0.1443  0.6676  0.2785
 8842SOL    HW227497   4.061   4.189   1.959 -0.4832  0.0704 -1.9507
 8843SOL     OW27498   5.500   6.226   5.303  0.5904  0.3695 -0.0210
 8843SOL    HW127499   5.532   6.280   5.232  1.3844 -0.4346 -0.2969
 8843SOL    HW227500   5.574   6.220   5.363  0.1404  0.5036  0.5594
 8844SOL     OW27501   0.386   0.531   2.760  0.1161 -0.1193 -0.1565
 8844SOL    HW127502   0.339   0.564   2.837  0.7207 -0.5504  0.4156
 8844SOL    HW227503   0.378   0.601   2.695 -1.4401 -0.2503 -0.1411
 8845SOL     OW27504   4.930   5.124   3.612  0.6347 -0.0485  0.1499
 8845SOL    HW127505   4.965   5.137   3.524  2.7009 -0.0500  0.9276
 8845SOL    HW227506   4.995   5.070   3.657 -0.7880 -0.7650  1.4434
 8846SOL     OW27507   4.353   3.443   1.832  0.0440 -0.0684  0.1170
 8846SOL    HW127508   4.348   3.524   1.882  2.5300 -0.0678  0.5022
 8846SOL    HW227509   4.331   3.374   1.895 -0.3569  0.1770  0.2469
 8847SOL     OW27510   2.928   0.960   2.999  0.2243 -0.5744  0.6265
 8847SOL    HW127511   2.834   0.961   3.015  0.1803  0.8238  0.4055
 8847SOL    HW227512   2.939   0.902   2.923 -0.7217  0.8493 -0.6614
 8848SOL     OW27513   7.270   4.826   5.386 -0.2455  0.3028  0.7585
 8848SOL    HW127514   7.354   4.781   5.394 -0.7505 -0.8527 -0.0967
 8848SOL    HW227515   7.211   4.777   5.444 -0.5154  0.6031  0.7390
 8849SOL     OW27516   2.768   1.428   3.762  0.1869  0.2473 -0.3660
 8849SOL    HW127517   2.738   1.519   3.756 -0.3249  0.0808 -0.3419
 8849SOL    HW227518   2.704   1.378   3.712 -0.4309 -0.3061  0.9375
 8850SOL     OW27519   5.269   0.258   3.235 -0.1735  0.2725  0.0294
 8850SOL    HW127520   5.293   0.256   3.142 -1.0978 -0.5788 -0.2138
 8850SOL    HW227521   5.182   0.218   3.238  0.2940 -0.7241  1.3954
 8851SOL     OW27522   4.368   5.413   5.399  0.4497 -0.7315 -0.0461
 8851SOL    HW127523   4.349   5.322   5.421 -0.0673 -0.8288 -0.8371
 8851SOL    HW227524   4.323   5.464   5.465  1.5937 -1.0607  1.0176
 8852SOL     OW27525   2.924   6.760   6.921  0.0705 -0.0749  0.3766
 8852SOL    HW127526   2.996   6.783   6.980  1.8355  0.7719 -1.9829
 8852SOL    HW227527   2.935   6.666   6.905  0.2601 -0.0728  0.4935
 8853SOL     OW27528   1.586   5.271   5.039  0.8394  0.1388 -0.4867
 8853SOL    HW127529   1.506   5.269   5.091  0.6086  1.4367 -0.7745
 8853SOL    HW227530   1.623   5.183   5.049 -0.2476 -0.2540  0.2172
 8854SOL     OW27531   3.142   2.692   7.241 -0.4581 -0.3203 -0.3035
 8854SOL    HW127532   3.190   2.628   7.189  1.0027  2.2679 -2.3872
 8854SOL    HW227533   3.050   2.674   7.223 -0.0325 -0.7553 -2.2124
 8855SOL     OW27534   4.565   1.049   1.288  0.0509  0.1503 -0.1067
 8855SOL    HW127535   4.490   1.055   1.348 -0.6182  0.1637 -0.9228
 8855SOL    HW227536   4.547   0.971   1.235  1.0963 -0.3955  0.3149
 8856SOL     OW27537   0.615   2.243   1.576 -0.3543 -0.3382  0.0299
 8856SOL    HW127538   0.544   2.289   1.531  0.9772 -0.0749 -1.9726
 8856SOL    HW227539   0.668   2.313   1.614 -0.5363 -0.4610  0.5077
 8857SOL     OW27540   6.430   1.287   6.404  0.1387  0.0668 -0.2933
 8857SOL    HW127541   6.408   1.326   6.489  0.3487 -0.0370 -0.1914
 8857SOL    HW227542   6.381   1.340   6.340 -2.0250 -1.3637  0.0633
 8858SOL     OW27543   2.609   0.396   2.244  0.0877  0.1264 -0.6331
 8858SOL    HW127544   2.642   0.309   2.267  0.2077  0.0031 -1.2692
 8858SOL    HW227545   2.569   0.428   2.325  1.2758  0.0542  0.0078
 8859SOL     OW27546   1.986   1.609   4.147 -0.2868 -0.4348 -0.4111
 8859SOL    HW127547   1.956   1.691   4.107 -0.1775 -0.0420  0.2799
 8859SOL    HW227548   2.052   1.576   4.087  2.2316  1.7959  0.9291
 8860SOL     OW27549   3.353   3.331   4.186  0.1974 -0.0010 -0.6086
 8860SOL    HW127550   3.285   3.333   4.253  1.2856  0.4033  0.5271
 8860SOL    HW227551   3.343   3.414   4.140  0.6931  0.6186  0.3715
 8861SOL     OW27552   6.141   4.091   7.012 -0.1871  0.1534 -0.3845
 8861SOL    HW127553   6.201   4.141   7.067 -0.3759  0.5682 -0.5550
 8861SOL    HW227554   6.197   4.040   6.954  0.0070  1.3192 -1.2563
 8862SOL     OW27555   5.987   5.675   7.148  0.5446  0.1101 -0.2947
 8862SOL    HW127556   6.028   5.596   7.111 -1.0482 -0.4073 -1.0407
 8862SOL    HW227557   5.912   5.642   7.197  0.4101  1.1071  0.1902
 8863SOL     OW27558   5.290   2.234   4.117  0.2255 -0.1455  0.3360
 8863SOL    HW127559   5.359   2.239   4.052 -0.1127  1.7193  0.0750
 8863SOL    HW227560   5.274   2.324   4.143 -2.9234 -0.3084 -0.5177
 8864SOL     OW27561   1.739   1.688   4.802  0.1455  0.2477  0.0510
 8864SOL    HW127562   1.697   1.657   4.882 -0.5023  0.0440 -0.3613
 8864SOL    HW227563   1.674   1.747   4.762 -0.1785 -0.8524 -1.1029
 8865SOL     OW27564   0.170   3.202   6.835 -0.3459  0.0405 -0.2392
 8865SOL    HW127565   0.191   3.144   6.908 -3.0228  0.2987  0.8272
 8865SOL    HW227566   0.210   3.286   6.858 -0.4601 -0.1091  0.5017
 8866SOL     OW27567   2.330   3.748   2.354  0.5290  0.2053  0.0117
 8866SOL    HW127568   2.372   3.662   2.351  1.5257  0.6907 -0.7292
 8866SOL    HW227569   2.363   3.793   2.276 -1.2737  0.6716 -0.5269
 8867SOL     OW27570   1.740   2.182   6.604 -0.1484 -0.1080 -0.3089
 8867SOL    HW127571   1.776   2.125   6.537  0.2100  0.1462 -0.3355
 8867SOL    HW227572   1.699   2.254   6.556 -0.1496 -0.0775 -0.2629
 8868SOL     OW27573   0.919   6.980   2.873  0.4540  0.1003  0.6376
 8868SOL    HW127574   0.906   7.064   2.828 -0.6888 -0.5487 -0.2811
 8868SOL    HW227575   0.877   6.915   2.816  1.2989 -1.1073  1.3436
 8869SOL     OW27576   3.644   4.061   1.887  0.2547 -0.3045  0.1056
 8869SOL    HW127577   3.621   4.152   1.865  0.6737  0.0075  0.9273
 8869SOL    HW227578   3.736   4.053   1.861  0.0212 -0.7131 -0.6152
 8870SOL     OW27579   4.366   3.480   2.805  0.3989  0.9277  0.4601
 8870SOL    HW127580   4.306   3.553   2.821 -3.6655 -1.1304 -3.2421
 8870SOL    HW227581   4.413   3.504   2.725 -0.3948 -0.1395 -0.3454
 8871SOL     OW27582   2.028   3.053   5.246 -0.4035  0.2670 -0.6287
 8871SOL    HW127583   1.935   3.029   5.241 -0.5177  0.5060  0.2033
 8871SOL    HW227584   2.074   2.980   5.204 -1.0076  0.4976 -1.7233
 8872SOL     OW27585   0.628   4.269   3.045  0.2110 -0.2072  0.2109
 8872SOL    HW127586   0.606   4.252   2.954  0.6514 -1.2526  0.2952
 8872SOL    HW227587   0.722   4.252   3.052  0.6436  1.9010  0.4028
 8873SOL     OW27588   3.824   0.247   1.538  0.3531  0.2057  0.0964
 8873SOL    HW127589   3.878   0.196   1.477  2.1311 -0.5316  2.1457
 8873SOL    HW227590   3.796   0.183   1.604 -2.6952  0.6881 -0.5998
 8874SOL     OW27591   5.880   4.343   6.463 -0.0674 -0.2683 -0.4114
 8874SOL    HW127592   5.884   4.262   6.513 -0.9117 -2.2853 -3.3733
 8874SOL    HW227593   5.788   4.352   6.438  0.0446  1.5115 -0.3492
 8875SOL     OW27594   6.214   4.626   2.385  0.0535 -0.0466  0.1474
 8875SOL    HW127595   6.151   4.608   2.454  0.2345 -0.6658  0.1536
 8875SOL    HW227596   6.160   4.636   2.306 -0.2705  1.8327  0.5460
 8876SOL     OW27597   5.650   3.250   5.366  0.0174 -0.1240 -0.4356
 8876SOL    HW127598   5.678   3.248   5.275  1.0456  2.8184 -0.3014
 8876SOL    HW227599   5.652   3.343   5.390 -0.7788 -0.7238  2.4218
 8877SOL     OW27600   2.101   3.909   2.215 -0.0117  0.1301  0.6148
 8877SOL    HW127601   2.131   3.825   2.250 -2.1209 -2.0144 -2.3497
 8877SOL    HW227602   2.176   3.943   2.166  0.6752 -0.2512  1.3776
 8878SOL     OW27603   0.544   7.135   1.800 -0.2232  0.1134 -0.0493
 8878SOL    HW127604   0.553   7.061   1.859  1.7216 -0.5083 -1.0397
 8878SOL    HW227605   0.543   7.097   1.712 -1.0458  1.1558 -0.5290
 8879SOL     OW27606   4.419   2.919   2.381 -0.5583 -0.0486  0.3802
 8879SOL    HW127607   4.514   2.905   2.375 -0.1239  2.1210  1.0750
 8879SOL    HW227608   4.381   2.838   2.348  1.5362 -0.8256 -0.3435
 8880SOL     OW27609   0.041   3.533   4.219  0.3424 -0.3270 -0.1210
 8880SOL    HW127610   0.016   3.467   4.284 -0.3672  0.4115  0.3775
 8880SOL    HW227611   0.101   3.487   4.160  1.2640 -0.9464  1.2255
 8881SOL     OW27612   2.791   4.301   4.387  0.7788 -0.0128  1.1264
 8881SOL    HW127613   2.822   4.391   4.395  3.1591 -0.4721 -1.4092
 8881SOL    HW227614   2.846   4.250   4.446  1.2665 -0.1268  0.5834
 8882SOL     OW27615   1.423   0.303   2.867  0.0904 -0.3138 -0.0995
 8882SOL    HW127616   1.470   0.245   2.806 -1.4846 -2.2545  0.4674
 8882SOL    HW227617   1.453   0.276   2.954  0.6700  0.9699  0.1238
 8883SOL     OW27618   0.653   6.640   5.207 -0.1415  0.1915 -0.0983
 8883SOL    HW127619   0.680   6.549   5.223  2.3764  0.6860 -1.1305
 8883SOL    HW227620   0.629   6.672   5.294 -2.0645 -1.6955  0.1533
 8884SOL     OW27621   1.134   0.282   4.413  0.3180  0.1835 -0.5276
 8884SOL    HW127622   1.063   0.265   4.351  0.7888 -0.3826 -0.9323
 8884SOL    HW227623   1.210   0.237   4.375  0.4102 -0.9806  0.9083
 8885SOL     OW27624   6.407   6.919   6.684  0.4959  0.7132  0.0485
 8885SOL    HW127625   6.501   6.934   6.680  0.2934  2.5328  1.1084
 8885SOL    HW227626   6.378   6.927   6.593  1.2668  0.8431 -0.1938
 8886SOL     OW27627   4.233   7.339   0.612  0.1193 -0.4369 -0.3495
 8886SOL    HW127628   4.262   7.248   0.615 -0.2879 -0.6320 -1.5894
 8886SOL    HW227629   4.256   7.375   0.697  1.1216 -1.4531 -0.1715
 8887SOL     OW27630   6.661   5.355   7.190 -0.2771 -0.4394 -0.1189
 8887SOL    HW127631   6.722   5.287   7.220 -0.6190 -1.0416 -0.7609
 8887SOL    HW227632   6.585   5.346   7.248 -0.9578 -1.6345 -1.1466
 8888SOL     OW27633   2.133   0.153   6.480  0.2290  0.6563 -0.1613
 8888SOL    HW127634   2.112   0.114   6.395 -2.5452 -2.0008  1.5211
 8888SOL    HW227635   2.055   0.205   6.502  1.1795  1.8458  0.4938
 8889SOL     OW27636   1.311   0.477   2.565 -0.1108 -0.3329  0.3901
 8889SOL    HW127637   1.303   0.570   2.540 -0.8144 -0.8554 -1.4957
 8889SOL    HW227638   1.329   0.479   2.659 -0.0850  1.7184  0.3893
 8890SOL     OW27639   2.608   1.644   1.851  0.6599 -0.2024  0.2922
 8890SOL    HW127640   2.683   1.662   1.907  1.4211 -0.7025 -0.5291
 8890SOL    HW227641   2.546   1.597   1.907  1.0402  0.0420  0.9243
 8891SOL     OW27642   3.268   0.003   5.688 -0.6271 -0.6852  0.2528
 8891SOL    HW127643   3.336  -0.029   5.629 -0.0824  2.5696 -1.0886
 8891SOL    HW227644   3.315   0.032   5.766 -0.3783  1.4012 -0.6036
 8892SOL     OW27645   2.768   2.102   3.711 -0.3061  0.1556 -0.0779
 8892SOL    HW127646   2.677   2.116   3.687 -1.0684 -1.5785  1.5733
 8892SOL    HW227647   2.817   2.123   3.631 -2.2722 -0.4336 -1.5160
 8893SOL     OW27648   4.159   0.488   7.341  0.2427  0.5096  0.3160
 8893SOL    HW127649   4.165   0.411   7.284 -0.1473  0.4860  0.3018
 8893SOL    HW227650   4.155   0.452   7.430  4.7474  0.6072  0.7658
 8894SOL     OW27651   2.997   4.566   2.353 -0.0967  0.4001  0.0579
 8894SOL    HW127652   2.994   4.652   2.312  0.7282  0.6042  0.4061
 8894SOL    HW227653   3.081   4.529   2.326 -0.0582  0.0665  0.6133
 8895SOL     OW27654   2.542   6.727   3.562  0.2464  1.3664  0.3345
 8895SOL    HW127655   2.570   6.637   3.543  0.5107  1.4343  0.4055
 8895SOL    HW227656   2.608   6.782   3.521  0.2750  1.5250  0.5940
 8896SOL     OW27657   2.004   4.097   0.554 -0.8298  0.2913 -0.4821
 8896SOL    HW127658   2.090   4.139   0.562 -0.1862 -1.1438  0.6234
 8896SOL    HW227659   1.946   4.167   0.527  0.5713  1.4472 -0.6392
 8897SOL     OW27660   6.214   3.792   3.982 -0.2121 -0.4149 -0.1927
 8897SOL    HW127661   6.121   3.792   4.007 -0.0004 -0.3008  0.6365
 8897SOL    HW227662   6.261   3.797   4.065  0.5252  0.4382 -0.6398
 8898SOL     OW27663   2.490   4.829   4.373 -0.3532  0.2430 -0.8237
 8898SOL    HW127664   2.511   4.775   4.449  0.0787 -0.5614 -1.5046
 8898SOL    HW227665   2.566   4.885   4.361  0.3592 -0.8784 -1.7298
 8899SOL     OW27666   5.580   1.649   5.315 -0.1560  0.4547 -0.2300
 8899SOL    HW127667   5.517   1.657   5.386  0.2254 -1.1491  0.3434
 8899SOL    HW227668   5.540   1.694   5.241 -1.5822  0.2156  0.3717
 8900SOL     OW27669   5.559   7.130   1.953 -0.0670  0.0208 -0.4686
 8900SOL    HW127670   5.473   7.107   1.917 -0.3084  0.7331 -0.3540
 8900SOL    HW227671   5.561   7.225   1.952  0.4604  0.0221  0.1495
 8901SOL     OW27672   4.789   0.906   1.410 -0.1001  0.0728 -0.3605
 8901SOL    HW127673   4.782   0.886   1.503  0.2251 -1.9379 -0.7041
 8901SOL    HW227674   4.700   0.897   1.376 -0.5884  2.7165  0.0234
 8902SOL     OW27675   5.288   1.119   4.415  0.1048 -0.0658 -0.1876
 8902SOL    HW127676   5.221   1.109   4.482  2.0357 -0.4590  1.8257
 8902SOL    HW227677   5.262   1.196   4.365 -1.3524  0.3267  1.0980
 8903SOL     OW27678   2.644   0.470   0.743  0.0961  0.7411 -0.0737
 8903SOL    HW127679   2.616   0.511   0.825  2.0306  0.7629  0.6264
 8903SOL    HW227680   2.706   0.402   0.769 -2.5138 -2.3455 -1.2567
 8904SOL     OW27681   6.447   5.533   0.803  0.1944 -0.2258 -0.3533
 8904SOL    HW127682   6.392   5.526   0.881 -0.1495  1.3071 -0.4370
 8904SOL    HW227683   6.413   5.608   0.755  1.3310 -0.2461 -1.2495
 8905SOL     OW27684   6.950   4.838   6.432 -0.0218 -0.0407 -0.1255
 8905SOL    HW127685   6.898   4.912   6.464 -0.8472 -0.5442 -0.2577
 8905SOL    HW227686   6.955   4.779   6.508  1.0307  0.3568  0.1210
 8906SOL     OW27687   3.951   4.853   4.719  0.3520 -0.9097 -0.6724
 8906SOL    HW127688   3.878   4.868   4.659  0.2601 -2.2598 -0.9170
 8906SOL    HW227689   3.913   4.865   4.807  0.2833  0.1855 -0.8327
 8907SOL     OW27690   0.867   4.912   0.788 -0.4001  0.0640  0.0440
 8907SOL    HW127691   0.791   4.969   0.796 -0.2791  0.3944 -0.9977
 8907SOL    HW227692   0.941   4.972   0.782 -0.3725 -0.1291 -2.1788
 8908SOL     OW27693   1.221   5.226   1.810 -0.2349  0.0537 -0.1778
 8908SOL    HW127694   1.277   5.301   1.790  0.6582 -0.6415 -0.3056
 8908SOL    HW227695   1.204   5.233   1.904  1.4827 -0.6660  0.2160
 8909SOL     OW27696   5.675   4.237   6.103 -0.1662 -0.3140 -0.1444
 8909SOL    HW127697   5.640   4.282   6.179 -0.1624 -1.0590  0.3160
 8909SOL    HW227698   5.747   4.292   6.073  0.7918 -0.7322  1.2889
 8910SOL     OW27699   0.640   0.889   2.404 -0.1350  0.5014 -0.3532
 8910SOL    HW127700   0.660   0.809   2.356  0.3978 -0.1294  0.9095
 8910SOL    HW227701   0.579   0.936   2.346  2.0373  0.7695 -2.6221
 8911SOL     OW27702   6.258   4.289   6.697  0.6621  0.2092 -0.0558
 8911SOL    HW127703   6.208   4.314   6.619  0.0127  1.1649  0.6442
 8911SOL    HW227704   6.334   4.346   6.696  0.8235 -0.0047 -0.1549
 8912SOL     OW27705   3.300   6.777   3.330  0.0442 -0.3719 -0.0740
 8912SOL    HW127706   3.370   6.750   3.270  0.6134  2.0293 -0.5732
 8912SOL    HW227707   3.230   6.713   3.314  1.7026 -2.2731 -0.2549
 8913SOL     OW27708   3.608   2.583   7.231 -0.3552  0.0697  0.2259
 8913SOL    HW127709   3.696   2.562   7.199  0.1718  0.6252  1.2533
 8913SOL    HW227710   3.549   2.543   7.168  0.6202 -1.9711  0.5333
 8914SOL     OW27711   6.159   4.594   6.695  0.0050  0.1037  0.5756
 8914SOL    HW127712   6.149   4.536   6.619  1.2850 -1.8060  1.7601
 8914SOL    HW227713   6.073   4.594   6.736 -0.8206  1.5001 -1.0509
 8915SOL     OW27714   4.456   0.891   0.351  0.3433 -0.1756  0.1550
 8915SOL    HW127715   4.400   0.864   0.424  1.0921 -0.1160  0.7767
 8915SOL    HW227716   4.535   0.837   0.361  0.1421 -0.7224 -1.0784
 8916SOL     OW27717   2.972   6.394   3.146 -0.2317 -0.1378 -0.3162
 8916SOL    HW127718   2.957   6.403   3.240 -2.4313 -3.5259 -0.1994
 8916SOL    HW227719   2.903   6.447   3.106 -2.5143 -2.5680  0.1409
 8917SOL     OW27720   7.319   6.612   4.361 -1.0127 -0.5946  0.2503
 8917SOL    HW127721   7.257   6.578   4.295  0.4158 -2.1817 -0.3466
 8917SOL    HW227722   7.313   6.551   4.434  0.9828 -1.7593 -0.4860
 8918SOL     OW27723   4.288   3.813   7.248 -0.1693 -0.2311 -0.5245
 8918SOL    HW127724   4.357   3.770   7.298 -0.2976 -0.7932 -0.8158
 8918SOL    HW227725   4.310   3.906   7.250 -0.2022 -0.2376  0.6090
 8919SOL     OW27726   1.868   1.018   5.423 -0.3698  0.0926 -0.3892
 8919SOL    HW127727   1.849   1.106   5.455 -1.0776  0.0576 -0.6821
 8919SOL    HW227728   1.963   1.012   5.423 -0.3284  0.0591  1.7754
 8920SOL     OW27729   3.035   3.792   2.185  0.3974  0.7145  0.3289
 8920SOL    HW127730   3.104   3.730   2.162  1.1002  1.7919 -0.6283
 8920SOL    HW227731   2.988   3.751   2.257  0.1411 -1.3812 -0.9726
 8921SOL     OW27732   4.110   5.849   3.006 -0.3483  0.0851 -0.4488
 8921SOL    HW127733   4.137   5.796   2.932  1.0639  0.9351 -0.5709
 8921SOL    HW227734   4.014   5.842   3.007 -0.3371 -0.5413 -1.8847
 8922SOL     OW27735   1.697   3.463   6.389 -0.3167 -0.5903  0.3625
 8922SOL    HW127736   1.719   3.425   6.304  0.0995 -1.1980  0.7372
 8922SOL    HW227737   1.631   3.529   6.369 -0.6035 -1.0841 -0.3777
 8923SOL     OW27738   2.614   4.604   2.542 -0.3349  0.3782  0.1042
 8923SOL    HW127739   2.520   4.612   2.557 -0.5010  0.6289 -0.9787
 8923SOL    HW227740   2.650   4.688   2.571 -0.4964  0.4254  0.1706
 8924SOL     OW27741   3.881   6.094   5.398  0.1592  0.5379 -0.3317
 8924SOL    HW127742   3.844   6.021   5.447 -0.0387 -0.1054 -1.4147
 8924SOL    HW227743   3.920   6.054   5.320 -0.2739  1.6171 -1.1333
 8925SOL     OW27744   3.263   1.534   1.913 -0.1794  0.1577  0.3368
 8925SOL    HW127745   3.225   1.516   1.826 -0.2937  1.4893  0.0810
 8925SOL    HW227746   3.210   1.483   1.973 -1.4105  0.7719 -0.1873
 8926SOL     OW27747   1.366   6.734   1.317  0.1634 -0.3558  0.9841
 8926SOL    HW127748   1.397   6.822   1.298  0.0060 -0.3325  0.8348
 8926SOL    HW227749   1.437   6.677   1.289 -0.0902 -0.3259  0.2633
 8927SOL     OW27750   0.948   5.976   2.756 -0.7936 -0.3753  0.2060
 8927SOL    HW127751   1.011   5.930   2.812 -2.3322 -2.5038  0.3061
 8927SOL    HW227752   0.962   6.069   2.776 -1.0180 -0.9820  3.9101
 8928SOL     OW27753   1.435   4.974   0.290 -0.0451  0.3535 -0.2870
 8928SOL    HW127754   1.510   4.921   0.318  1.8831  2.3597 -1.3526
 8928SOL    HW227755   1.370   4.961   0.359  2.3835  0.7893  2.2768
 8929SOL     OW27756   7.369   0.616   5.283  0.0938 -0.1382 -0.2675
 8929SOL    HW127757   7.372   0.520   5.280  0.6847 -0.1472  0.3896
 8929SOL    HW227758   7.366   0.637   5.376 -1.0200  0.4705 -0.4260
 8930SOL     OW27759   2.064   3.620   2.373  0.0063 -0.6683 -0.0008
 8930SOL    HW127760   2.045   3.591   2.283 -0.1820 -1.4210  0.2720
 8930SOL    HW227761   2.159   3.617   2.380  0.0460 -0.1975 -0.3049
 8931SOL     OW27762   0.433   1.357   3.096 -0.2985  0.4093 -0.0863
 8931SOL    HW127763   0.410   1.449   3.114 -1.1411  0.4864 -1.4547
 8931SOL    HW227764   0.355   1.320   3.056  0.0581 -0.9107  0.3771
 8932SOL     OW27765   4.964   2.595   4.395 -0.2099  0.1399  0.4244
 8932SOL    HW127766   4.903   2.549   4.453 -0.4425 -1.6385 -1.1409
 8932SOL    HW227767   4.908   2.650   4.340 -0.2926 -0.6029 -0.2349
 8933SOL     OW27768   7.125   0.447   6.486  0.8386 -0.4580 -0.4563
 8933SOL    HW127769   7.199   0.489   6.441 -0.7038  1.6925 -1.1205
 8933SOL    HW227770   7.061   0.431   6.417 -0.7231  0.9301  0.6137
 8934SOL     OW27771   1.868   2.571   4.280 -0.2015  0.3515  0.1840
 8934SOL    HW127772   1.917   2.490   4.265 -1.2395 -0.3362  0.4083
 8934SOL    HW227773   1.896   2.600   4.367 -0.9367 -0.6081  0.7628
 8935SOL     OW27774   3.211   2.338   2.858 -0.3082 -0.2052 -0.0262
 8935SOL    HW127775   3.217   2.433   2.852 -1.8360  0.2845  3.5384
 8935SOL    HW227776   3.135   2.315   2.805  2.4022 -0.1897 -4.4040
 8936SOL     OW27777   6.177   0.286   6.229 -0.2183  0.0480  0.0081
 8936SOL    HW127778   6.183   0.219   6.296 -0.4663 -1.0177 -0.9976
 8936SOL    HW227779   6.131   0.359   6.271 -0.5568 -0.6727  0.9088
 8937SOL     OW27780   1.800   3.645   0.699 -0.2280  0.2386 -0.0800
 8937SOL    HW127781   1.806   3.705   0.773  1.1385  0.2224 -0.1515
 8937SOL    HW227782   1.887   3.647   0.658 -0.4771 -0.9470 -0.7428
 8938SOL     OW27783   3.682   4.179   1.363  0.0982 -0.0902  0.4612
 8938SOL    HW127784   3.767   4.216   1.337  0.6901 -1.1590  0.7954
 8938SOL    HW227785   3.701   4.134   1.446 -0.5883 -1.0986  0.0805
 8939SOL     OW27786   3.361   6.026   0.859 -0.6953 -0.0350 -0.0470
 8939SOL    HW127787   3.285   6.083   0.849  0.2069  1.2386  0.2118
 8939SOL    HW227788   3.422   6.055   0.791 -0.8175 -1.7285 -0.9384
 8940SOL     OW27789   3.861   5.331   5.253  0.1345  0.7462 -0.2541
 8940SOL    HW127790   3.842   5.381   5.333 -0.0468 -2.7156  2.0513
 8940SOL    HW227791   3.956   5.331   5.247  0.1906  0.0897  0.6116
 8941SOL     OW27792   4.904   3.297   4.724  0.3127  0.4760 -0.3413
 8941SOL    HW127793   4.995   3.301   4.755  0.0460  0.1717  0.5266
 8941SOL    HW227794   4.852   3.295   4.805 -0.4359 -0.0303 -0.8248
 8942SOL     OW27795   4.508   4.400   5.319 -0.2488 -0.5231  0.4424
 8942SOL    HW127796   4.522   4.481   5.269  1.4385  0.1987  1.9838
 8942SOL    HW227797   4.417   4.407   5.350 -0.5047  0.1929 -0.4126
 8943SOL     OW27798   2.510   0.559   5.684 -0.2459  0.7416 -0.1069
 8943SOL    HW127799   2.549   0.532   5.767 -0.8387  1.1730  0.3230
 8943SOL    HW227800   2.417   0.536   5.692 -0.4122  1.2644 -0.4311
 8944SOL     OW27801   0.878   5.629   1.467 -0.3280 -0.7331  0.4379
 8944SOL    HW127802   0.972   5.646   1.478 -0.4924  0.4697  0.1107
 8944SOL    HW227803   0.836   5.679   1.537 -0.8615  0.7733 -0.8846
 8945SOL     OW27804   5.251   1.853   1.031 -0.1050 -0.3912  0.2047
 8945SOL    HW127805   5.191   1.919   1.066  0.3312 -0.5891  1.3666
 8945SOL    HW227806   5.205   1.817   0.955  0.3464  2.4285 -1.5408
 8946SOL     OW27807   5.607   5.149   6.245  0.2215  0.3232  0.3283
 8946SOL    HW127808   5.652   5.079   6.292  2.0198 -0.2766 -2.1228
 8946SOL    HW227809   5.522   5.111   6.220 -0.2042  0.2094  1.8514
 8947SOL     OW27810   2.355   7.266   5.948  0.3149  0.0303 -0.6840
 8947SOL    HW127811   2.393   7.185   5.914 -0.4168 -0.6844  0.1580
 8947SOL    HW227812   2.307   7.302   5.874  0.6694 -0.2855 -1.0768
 8948SOL     OW27813   3.095   5.833   1.657 -0.0884  0.6720  0.2770
 8948SOL    HW127814   3.069   5.785   1.736 -1.0798  1.9596  0.7742
 8948SOL    HW227815   3.035   5.802   1.589  0.4759 -0.1121  0.1224
 8949SOL     OW27816   1.707   6.164   2.364  0.2940 -0.5872  0.4179
 8949SOL    HW127817   1.772   6.133   2.301  1.2728  0.3362  0.9425
 8949SOL    HW227818   1.638   6.097   2.362  0.4139 -0.7207 -1.4226
 8950SOL     OW27819   3.706   3.191   6.103 -0.0506  0.2170 -0.1503
 8950SOL    HW127820   3.730   3.248   6.177  0.2808 -0.8266  0.5746
 8950SOL    HW227821   3.622   3.154   6.129  0.2482 -0.4488 -0.1059
 8951SOL     OW27822   1.076   6.173   4.077  0.0757  0.1368 -0.0728
 8951SOL    HW127823   1.133   6.249   4.085  0.2023 -0.0186  0.5478
 8951SOL    HW227824   1.113   6.108   4.137 -0.4706 -0.1425 -0.0261
 8952SOL     OW27825   7.295   2.960   1.858  0.4622  0.3593 -0.5710
 8952SOL    HW127826   7.385   2.939   1.883  0.6144  2.8676  1.4332
 8952SOL    HW227827   7.276   2.902   1.785  2.8257 -1.9925  0.5097
 8953SOL     OW27828   2.546   1.310   3.602  0.4281  0.2122 -0.6551
 8953SOL    HW127829   2.499   1.249   3.660 -2.0959  1.1808 -1.5457
 8953SOL    HW227830   2.605   1.254   3.551  2.2746 -0.7537  2.2820
 8954SOL     OW27831   3.626   5.186   0.148  0.1261 -0.3393 -0.3690
 8954SOL    HW127832   3.717   5.156   0.154  0.3202 -0.0112 -1.4670
 8954SOL    HW227833   3.609   5.193   0.054 -1.0888 -0.5423 -0.1830
 8955SOL     OW27834   4.654   5.245   0.440 -0.4423  0.1467 -0.0430
 8955SOL    HW127835   4.744   5.276   0.431  0.4092 -1.8689  1.0191
 8955SOL    HW227836   4.608   5.317   0.484  1.0125  0.6326  0.7362
 8956SOL     OW27837   6.507   1.725   3.170 -0.3275 -0.0650  0.2232
 8956SOL    HW127838   6.445   1.652   3.165  1.2319 -1.3906 -0.3822
 8956SOL    HW227839   6.586   1.687   3.207  1.0766  0.9358 -1.6304
 8957SOL     OW27840   6.873   4.735   4.978 -0.2030 -0.1284  0.3076
 8957SOL    HW127841   6.852   4.644   5.000  2.0717 -0.8539 -0.1941
 8957SOL    HW227842   6.789   4.776   4.959 -1.2136 -2.4072 -0.4389
 8958SOL     OW27843   5.167   2.258   5.203 -0.4900 -0.1001  0.2570
 8958SOL    HW127844   5.130   2.314   5.135  0.5885  0.6930  0.3024
 8958SOL    HW227845   5.092   2.234   5.258 -0.8422  2.0448  0.7779
 8959SOL     OW27846   5.507   3.291   2.409 -0.2604 -0.0489  0.3117
 8959SOL    HW127847   5.528   3.197   2.412  2.3092  0.4151 -0.4378
 8959SOL    HW227848   5.567   3.330   2.473 -2.1561  0.9919  1.5178
 8960SOL     OW27849   7.180   0.365   0.314 -0.6067 -0.3290  0.2133
 8960SOL    HW127850   7.185   0.442   0.370 -0.7927 -1.2448  1.5508
 8960SOL    HW227851   7.261   0.367   0.263 -1.2809  1.5195 -0.8730
 8961SOL     OW27852   4.483   2.297   3.168 -0.1784  0.3291 -0.4099
 8961SOL    HW127853   4.441   2.282   3.252  0.9680  1.8746  0.4763
 8961SOL    HW227854   4.437   2.238   3.108  0.5698 -2.6855  1.7323
 8962SOL     OW27855   7.209   2.614   6.459 -0.1563  1.0609  0.5686
 8962SOL    HW127856   7.186   2.626   6.551  1.1664  1.5378  0.8727
 8962SOL    HW227857   7.265   2.537   6.458  2.0062  2.5242  0.6224
 8963SOL     OW27858   4.602   1.948   1.064  0.1095 -0.4681  0.2883
 8963SOL    HW127859   4.615   1.910   1.150  0.4646 -0.3159  0.3030
 8963SOL    HW227860   4.587   1.873   1.007  3.6284 -0.9786 -0.2302
 8964SOL     OW27861   3.101   6.729   0.944 -0.3601  0.4362 -0.3614
 8964SOL    HW127862   3.085   6.644   0.904 -2.4208  0.4112  0.4160
 8964SOL    HW227863   3.074   6.792   0.877 -1.7546  0.4150  0.1520
 8965SOL     OW27864   4.717   2.184   5.234  0.0595 -0.2040  0.0360
 8965SOL    HW127865   4.716   2.198   5.139 -1.1826  1.6463  0.2632
 8965SOL    HW227866   4.721   2.089   5.245  1.0690 -0.4215 -1.8444
 8966SOL     OW27867   4.791   3.700   6.577 -0.0953 -0.3166  0.0724
 8966SOL    HW127868   4.860   3.718   6.514  0.7450  0.5549  1.2054
 8966SOL    HW227869   4.812   3.614   6.613  0.9895  0.3558  1.1159
 8967SOL     OW27870   2.143   1.641   7.058 -0.1779  0.7829 -0.4318
 8967SOL    HW127871   2.106   1.727   7.075 -0.5383  0.3413  1.1534
 8967SOL    HW227872   2.177   1.612   7.142 -0.1219 -0.6489 -0.9219
 8968SOL     OW27873   4.199   1.516   1.394 -0.3262 -0.3539 -0.4118
 8968SOL    HW127874   4.254   1.439   1.388  1.7405  1.0338 -0.2595
 8968SOL    HW227875   4.188   1.531   1.488 -0.5392 -0.3310 -0.4390
 8969SOL     OW27876   5.561   4.592   3.012  0.1300 -0.5425  0.0807
 8969SOL    HW127877   5.539   4.499   3.014  0.7413 -0.7341 -1.1735
 8969SOL    HW227878   5.582   4.610   2.920 -0.3707  0.9306  0.2202
 8970SOL     OW27879   2.482   4.648   5.661  0.3773  0.0273  0.2760
 8970SOL    HW127880   2.426   4.698   5.720  2.2243 -0.0398  2.1755
 8970SOL    HW227881   2.456   4.677   5.573 -1.9932  0.6148  1.1087
 8971SOL     OW27882   0.243   6.598   0.736  0.3605 -0.4530  0.3946
 8971SOL    HW127883   0.150   6.577   0.747  0.2640 -0.4035 -0.2807
 8971SOL    HW227884   0.245   6.692   0.721  0.5475 -0.4091  0.6917
 8972SOL     OW27885   4.055   2.071   3.311  0.3335 -0.4038 -0.1026
 8972SOL    HW127886   4.135   2.019   3.303  0.5084  0.0642 -1.8211
 8972SOL    HW227887   4.059   2.132   3.237 -1.5760 -0.3402 -0.1981
 8973SOL     OW27888   2.806   5.381   5.427 -0.2681 -0.1194 -0.2029
 8973SOL    HW127889   2.760   5.387   5.344  0.9726  1.0207 -0.8372
 8973SOL    HW227890   2.865   5.306   5.417 -0.7238 -0.5119 -0.0157
 8974SOL     OW27891   5.242   6.557   1.049  0.4815  0.4588 -0.0750
 8974SOL    HW127892   5.276   6.468   1.055  1.1805  0.7443  0.3573
 8974SOL    HW227893   5.318   6.610   1.025  0.0875  0.9454 -0.2583
 8975SOL     OW27894   0.975   6.557   1.290  0.2794  0.3823  0.0932
 8975SOL    HW127895   1.006   6.572   1.201  1.0202  0.0775  0.2962
 8975SOL    HW227896   0.945   6.465   1.290 -0.5108  0.6277 -0.0604
 8976SOL     OW27897   4.098   5.421   1.230  0.0992 -0.2158 -0.1320
 8976SOL    HW127898   4.039   5.486   1.193  0.6766 -0.1032 -0.8811
 8976SOL    HW227899   4.096   5.437   1.324  0.2627  0.9106 -0.3152
 8977SOL     OW27900   2.638   2.408   5.732 -0.1589 -0.5220 -0.0032
 8977SOL    HW127901   2.713   2.351   5.719  1.1268  0.8835  0.9143
 8977SOL    HW227902   2.623   2.408   5.827 -0.9957 -0.3983 -0.1252
 8978SOL     OW27903   2.949   4.308   2.715 -0.1563  0.4048 -0.6883
 8978SOL    HW127904   3.033   4.263   2.700  0.5656  0.2904  2.8583
 8978SOL    HW227905   2.974   4.398   2.736 -0.7882  0.1988  1.0966
 8979SOL     OW27906   6.971   4.282   1.779 -0.8207 -0.0862 -0.2831
 8979SOL    HW127907   7.011   4.335   1.710  1.2484  0.4790  1.2370
 8979SOL    HW227908   6.896   4.332   1.809 -0.6457  0.5441 -0.8964
 8980SOL     OW27909   1.348   1.415   5.766 -0.0605  0.4895  0.1870
 8980SOL    HW127910   1.295   1.450   5.694 -2.7269 -0.0111  1.7334
 8980SOL    HW227911   1.391   1.492   5.803  0.5552  0.8883 -1.2774
 8981SOL     OW27912   6.156   0.649   0.614  0.2855 -0.0609  0.2861
 8981SOL    HW127913   6.093   0.662   0.544  0.2339 -0.1357  0.3181
 8981SOL    HW227914   6.205   0.731   0.619 -1.3778  0.9134  1.8286
 8982SOL     OW27915   3.570   3.166   7.251 -0.4567 -0.3578 -0.3093
 8982SOL    HW127916   3.606   3.238   7.199  0.1999 -0.3215  0.1823
 8982SOL    HW227917   3.519   3.209   7.320  1.4031 -0.2539  1.0836
 8983SOL     OW27918   3.066   1.457   4.228  0.7336  0.0866  0.5796
 8983SOL    HW127919   3.085   1.551   4.217  1.7464 -0.0084  1.4089
 8983SOL    HW227920   3.025   1.451   4.314 -1.9015  0.0831 -0.5624
 8984SOL     OW27921   2.631   2.274   0.085  0.2298  0.0747  0.1073
 8984SOL    HW127922   2.669   2.210   0.145  0.2809  1.0384  1.1271
 8984SOL    HW227923   2.707   2.315   0.044  0.2001 -0.3658 -0.4039
 8985SOL     OW27924   2.954   3.530   1.075 -0.3115 -0.3294  0.1048
 8985SOL    HW127925   2.922   3.618   1.095 -0.8219 -0.4998  0.0445
 8985SOL    HW227926   2.923   3.476   1.147  1.0492 -0.2433  0.7978
 8986SOL     OW27927   6.135   4.336   4.267  0.7204  0.0734  0.2228
 8986SOL    HW127928   6.046   4.373   4.258  1.0418  1.1462  1.1142
 8986SOL    HW227929   6.128   4.248   4.230 -1.3345 -0.7782  2.3432
 8987SOL     OW27930   0.687   2.579   1.732  0.0388 -0.2062 -0.4741
 8987SOL    HW127931   0.674   2.509   1.796  1.4108  1.0436  1.2713
 8987SOL    HW227932   0.614   2.569   1.671  0.2560 -3.2120 -0.3960
 8988SOL     OW27933   6.304   0.372   0.180 -0.1477  0.3859 -0.0065
 8988SOL    HW127934   6.293   0.278   0.190 -1.4011  0.2141 -2.4207
 8988SOL    HW227935   6.219   0.404   0.150  0.0443  2.4368  1.3719
 8989SOL     OW27936   6.764   5.165   1.361  0.2064 -0.4584  0.0221
 8989SOL    HW127937   6.707   5.206   1.295  2.8755  0.7159 -1.7391
 8989SOL    HW227938   6.789   5.082   1.322 -1.4517 -1.7548  1.5232
 8990SOL     OW27939   3.935   1.910   2.746  0.1448  0.3116 -0.5423
 8990SOL    HW127940   3.842   1.927   2.759  0.0988  0.4042 -0.9810
 8990SOL    HW227941   3.973   1.997   2.731  0.4073  0.3442  0.2613
 8991SOL     OW27942   5.660   0.330   3.553  0.1487 -0.2341  0.7129
 8991SOL    HW127943   5.625   0.280   3.479  1.1900 -0.9863  0.7009
 8991SOL    HW227944   5.698   0.408   3.512  1.9839 -1.3135  0.2357
 8992SOL     OW27945   6.470   2.881   5.475  0.1399  0.3737 -0.1076
 8992SOL    HW127946   6.542   2.886   5.412  0.8633  3.0277  0.7880
 8992SOL    HW227947   6.393   2.859   5.423  1.2918 -0.9887 -1.3268
 8993SOL     OW27948   1.645   1.828   6.464 -0.2188  0.3455  0.2613
 8993SOL    HW127949   1.720   1.887   6.460 -1.2757  1.6737 -2.3418
 8993SOL    HW227950   1.683   1.740   6.466  1.3861  1.0274  0.7621
 8994SOL     OW27951   3.358   1.614   4.967 -0.4947  0.2564 -0.3261
 8994SOL    HW127952   3.395   1.581   4.885  0.5385 -1.3276  0.7146
 8994SOL    HW227953   3.420   1.681   4.996  0.1989 -0.5473  0.0987
 8995SOL     OW27954   2.080   5.001   1.204  0.4845  0.5363  0.1018
 8995SOL    HW127955   2.099   4.922   1.153  0.1204 -0.6724  1.7732
 8995SOL    HW227956   2.142   4.999   1.276  0.7018  1.9860 -0.0326
 8996SOL     OW27957   0.808   6.041   4.271  0.1180  0.1658  0.3760
 8996SOL    HW127958   0.800   6.133   4.296 -2.5324 -0.1582  1.0242
 8996SOL    HW227959   0.778   6.039   4.180  1.1053  0.0593  0.0458
 8997SOL     OW27960   5.912   5.493   5.039 -0.0796 -0.6249 -0.3024
 8997SOL    HW127961   5.900   5.567   5.099  0.9031 -0.8972  0.2506
 8997SOL    HW227962   5.862   5.517   4.961 -0.9959 -0.0486  0.4407
 8998SOL     OW27963   6.899   4.113   4.279  0.0850 -0.1282  0.0852
 8998SOL    HW127964   6.829   4.131   4.215  1.3067  1.8226 -0.8117
 8998SOL    HW227965   6.867   4.038   4.329 -2.2251  0.0998 -0.9025
 8999SOL     OW27966   1.646   4.184   3.048 -0.2303  0.3703  0.7152
 8999SOL    HW127967   1.690   4.237   3.115  0.2915  2.3888 -1.1064
 8999SOL    HW227968   1.717   4.135   3.006 -0.3781  0.0454  0.8450
 9000SOL     OW27969   4.589   1.606   0.738  0.1657  0.1639  0.0642
 9000SOL    HW127970   4.498   1.633   0.741 -0.0744 -0.4483 -0.8728
 9000SOL    HW227971   4.611   1.582   0.828 -1.5812 -2.6893 -0.1491
 9001SOL     OW27972   4.460   1.050   3.593 -0.2404 -0.2523  0.7797
 9001SOL    HW127973   4.427   0.960   3.586  0.2083 -0.4451  1.1663
 9001SOL    HW227974   4.541   1.043   3.643  0.5243  0.1893 -0.3379
 9002SOL     OW27975   5.510   1.673   4.867 -0.3280 -0.0819  0.8046
 9002SOL    HW127976   5.570   1.681   4.792  0.6506 -1.2184  1.4324
 9002SOL    HW227977   5.436   1.728   4.843  0.1405 -0.0802 -0.8251
 9003SOL     OW27978   2.751   4.152   2.607 -0.1238 -0.5101 -0.4552
 9003SOL    HW127979   2.798   4.077   2.570  2.4940  2.0206 -2.8258
 9003SOL    HW227980   2.820   4.210   2.640 -2.0590  0.6754  1.8253
 9004SOL     OW27981   3.958   4.166   1.026  0.3266 -0.0256 -0.5507
 9004SOL    HW127982   3.959   4.142   1.118 -1.5614 -0.8435 -0.6916
 9004SOL    HW227983   4.019   4.104   0.984  2.7801  1.6267  0.3378
 9005SOL     OW27984   5.298   5.720   3.985 -0.4729  0.1369  0.1094
 9005SOL    HW127985   5.365   5.652   3.999 -0.2481  0.6742  2.0410
 9005SOL    HW227986   5.301   5.738   3.892 -0.7868 -2.7409 -0.5438
 9006SOL     OW27987   3.519   6.074   0.623 -0.3471  0.0232  0.1737
 9006SOL    HW127988   3.521   6.057   0.529  0.2854 -1.7980  0.4684
 9006SOL    HW227989   3.552   6.163   0.632 -0.3417  0.1982 -1.3236
 9007SOL     OW27990   1.113   5.931   0.936 -0.1189  0.1981  0.5247
 9007SOL    HW127991   1.088   6.006   0.990 -1.3095  0.5144 -0.4347
 9007SOL    HW227992   1.031   5.899   0.899  0.5970 -0.3938 -0.6149
 9008SOL     OW27993   5.629   3.183   2.881  0.3120 -0.2186 -0.6195
 9008SOL    HW127994   5.640   3.163   2.788  2.1420 -1.3664 -0.2135
 9008SOL    HW227995   5.596   3.101   2.919 -2.3527  0.8004 -0.4847
 9009SOL     OW27996   6.767   7.085   2.869 -0.0768 -0.0323  0.4336
 9009SOL    HW127997   6.716   7.143   2.813 -1.0509 -0.5365  0.7634
 9009SOL    HW227998   6.702   7.028   2.910  0.5260  0.6685  2.4949
 9010SOL     OW27999   6.899   1.318   4.389  0.3717 -0.1890 -0.3273
 9010SOL    HW128000   6.959   1.390   4.366  0.8046 -0.0494  1.1256
 9010SOL    HW228001   6.813   1.348   4.360  0.8185  0.1170 -1.3875
 9011SOL     OW28002   3.045   0.165   7.018 -0.2655 -0.2571  0.3203
 9011SOL    HW128003   3.013   0.090   6.967 -1.5810 -0.0833  0.8474
 9011SOL    HW228004   3.051   0.131   7.108 -1.6649  0.4662  0.7149
 9012SOL     OW28005   1.428   6.367   2.148 -0.0051 -0.1238  0.0187
 9012SOL    HW128006   1.369   6.299   2.117 -1.5969  0.5126  1.4849
 9012SOL    HW228007   1.381   6.449   2.132  2.4569  0.9081 -3.1134
 9013SOL     OW28008   5.748   0.281   4.579 -0.2124 -0.1216 -0.5443
 9013SOL    HW128009   5.725   0.327   4.660 -1.7646  0.5884 -1.3620
 9013SOL    HW228010   5.667   0.238   4.551  1.0111 -3.0065 -0.1138
 9014SOL     OW28011   0.130   0.258   3.648 -0.1647 -0.2720  0.0936
 9014SOL    HW128012   0.208   0.268   3.594 -1.2867 -1.4871 -1.8945
 9014SOL    HW228013   0.058   0.282   3.589 -1.4407 -1.4590  1.1239
 9015SOL     OW28014   1.136   7.055   6.850 -0.2955  0.3071 -0.1358
 9015SOL    HW128015   1.194   7.094   6.785 -0.3286 -1.3957 -1.2430
 9015SOL    HW228016   1.079   6.997   6.800 -1.9066  0.7164  1.1331
 9016SOL     OW28017   4.027   6.454   5.354  0.0527  0.1118  0.5332
 9016SOL    HW128018   4.041   6.548   5.367 -0.3693  0.2462  0.0457
 9016SOL    HW228019   3.934   6.441   5.373 -0.1866  0.0204 -0.6589
 9017SOL     OW28020   6.881   5.954   7.111  0.2502  0.1305  0.8825
 9017SOL    HW128021   6.942   5.906   7.055  0.0419  1.2038 -0.3101
 9017SOL    HW228022   6.844   6.021   7.054  0.2102  1.4431  2.3763
 9018SOL     OW28023   4.080   1.873   2.470  0.4475 -0.2009 -0.1551
 9018SOL    HW128024   4.041   1.801   2.519 -0.2450 -1.6816 -2.7121
 9018SOL    HW228025   4.173   1.852   2.465  0.4812 -0.1642  0.2891
 9019SOL     OW28026   1.680   0.194   5.199  0.1291  0.2668  0.8061
 9019SOL    HW128027   1.642   0.107   5.187 -0.1357  0.7211 -2.9546
 9019SOL    HW228028   1.670   0.213   5.292 -1.0902 -3.1145  1.4819
 9020SOL     OW28029   3.235   5.118   5.284 -0.2399  0.5066 -0.4043
 9020SOL    HW128030   3.194   5.042   5.243  3.7207 -1.8505 -0.4961
 9020SOL    HW228031   3.299   5.148   5.221  3.1263 -0.6256  2.1444
 9021SOL     OW28032   2.603   6.107   2.592 -0.7814 -0.0871  0.2287
 9021SOL    HW128033   2.680   6.104   2.649  0.2725  0.9650 -1.0515
 9021SOL    HW228034   2.550   6.179   2.627 -0.8138 -0.3148  0.6586
 9022SOL     OW28035   0.931   7.251   3.160  0.6787  0.0332  0.0787
 9022SOL    HW128036   0.874   7.180   3.187  1.1145 -1.4040 -2.5381
 9022SOL    HW228037   0.994   7.260   3.233 -1.2029 -0.0970  1.8071
 9023SOL     OW28038   7.260   5.735   4.162 -1.3414 -0.1927  0.0592
 9023SOL    HW128039   7.183   5.789   4.178 -0.2584  1.9710 -1.4553
 9023SOL    HW228040   7.290   5.762   4.075  2.3014  0.6711  1.4030
 9024SOL     OW28041   3.086   6.515   0.763 -0.3605  0.1123 -0.5041
 9024SOL    HW128042   3.168   6.513   0.714 -0.9506 -0.8439 -1.4915
 9024SOL    HW228043   3.020   6.485   0.701 -1.1484 -1.1008  0.8691
 9025SOL     OW28044   5.031   2.597   6.508  0.4236 -0.6076  0.3730
 9025SOL    HW128045   4.973   2.522   6.516  1.1927 -1.3113 -0.4715
 9025SOL    HW228046   5.047   2.625   6.598  1.4810 -2.5128  0.8257
 9026SOL     OW28047   0.838   4.520   5.431 -0.1504  0.4098 -0.7469
 9026SOL    HW128048   0.902   4.587   5.458  0.4630 -0.1561 -0.7657
 9026SOL    HW228049   0.889   4.458   5.378 -1.0621  0.8247 -2.1753
 9027SOL     OW28050   3.516   6.179   3.877  1.3145  0.1045 -0.5448
 9027SOL    HW128051   3.471   6.098   3.851 -0.0626  0.2842  1.0690
 9027SOL    HW228052   3.491   6.243   3.811 -0.5383  0.0831  0.0687
 9028SOL     OW28053   2.134   5.795   7.269 -0.4216  0.1204  0.0425
 9028SOL    HW128054   2.060   5.843   7.307 -0.4726  1.9453 -2.1438
 9028SOL    HW228055   2.111   5.785   7.177  0.8591 -1.7848 -0.1287
 9029SOL     OW28056   5.277   4.855   6.745 -0.0792 -0.0289  0.2032
 9029SOL    HW128057   5.185   4.836   6.728 -0.4535 -0.0880  2.0064
 9029SOL    HW228058   5.311   4.774   6.783  0.1724  0.5925  1.3666
 9030SOL     OW28059   7.375   1.635   3.116  0.4541  0.2825  0.2620
 9030SOL    HW128060   7.419   1.674   3.040 -0.9383  1.1313 -0.1468
 9030SOL    HW228061   7.413   1.548   3.124  0.2771 -0.0205 -1.7383
 9031SOL     OW28062   5.920   6.873   2.611 -0.3643 -0.3088  0.4283
 9031SOL    HW128063   5.989   6.822   2.567  0.1438  0.1218  0.7233
 9031SOL    HW228064   5.842   6.858   2.557  0.4248  0.8515 -1.1028
 9032SOL     OW28065   0.389   4.703   6.725 -0.0430 -0.1197 -0.7297
 9032SOL    HW128066   0.296   4.681   6.719 -0.2149  0.5016 -0.4648
 9032SOL    HW228067   0.390   4.796   6.749  0.6549  0.5914 -3.2176
 9033SOL     OW28068   6.210   5.007   3.568  0.3747  0.2047  0.2297
 9033SOL    HW128069   6.143   5.054   3.518 -0.8623  0.6841  2.2590
 9033SOL    HW228070   6.272   4.977   3.501 -1.5974  0.1167 -1.6874
 9034SOL     OW28071   5.014   6.640   4.968  0.2406  0.6353  0.0449
 9034SOL    HW128072   5.014   6.692   5.048  0.2510  0.2426  0.3039
 9034SOL    HW228073   5.105   6.610   4.960  0.5167  1.6125 -0.7398
 9035SOL     OW28074   3.790   2.751   1.966 -0.6032 -0.4286 -0.0205
 9035SOL    HW128075   3.854   2.682   1.952 -0.8941 -0.7135  0.0378
 9035SOL    HW228076   3.705   2.709   1.952 -0.8019 -0.1946  0.4370
 9036SOL     OW28077   6.740   3.577   2.352  0.3894  0.2464  0.1201
 9036SOL    HW128078   6.797   3.600   2.278 -1.1772 -1.5414 -1.7670
 9036SOL    HW228079   6.720   3.661   2.393 -0.1570  1.6165 -2.6503
 9037SOL     OW28080   2.577   3.989   1.098 -0.0578  0.2333  0.3006
 9037SOL    HW128081   2.482   3.989   1.080  0.1222 -1.1347 -0.8154
 9037SOL    HW228082   2.584   4.008   1.191 -1.4004  0.9249  0.2930
 9038SOL     OW28083   2.528   4.651   7.234  0.6490  0.0125  0.4972
 9038SOL    HW128084   2.508   4.742   7.258 -0.5914 -0.0352 -0.2429
 9038SOL    HW228085   2.442   4.611   7.220  1.1732 -0.2089 -3.0127
 9039SOL     OW28086   3.913   2.229   3.603  0.0792  0.5776  0.2205
 9039SOL    HW128087   3.904   2.263   3.513  0.5824  2.1834  0.7449
 9039SOL    HW228088   3.926   2.307   3.657  1.6909 -0.4917  1.4595
 9040SOL     OW28089   5.968   3.901   4.033  0.2175  0.3161  0.1091
 9040SOL    HW128090   5.952   3.953   4.112  0.1074  0.4921 -0.0266
 9040SOL    HW228091   5.881   3.891   3.994  0.4556  1.4718 -0.7596
 9041SOL     OW28092   6.549   0.780   2.309 -0.0521  0.1016  0.4799
 9041SOL    HW128093   6.522   0.826   2.389  0.2862  2.0048 -0.4458
 9041SOL    HW228094   6.577   0.849   2.250  0.9712 -1.3631 -0.8327
 9042SOL     OW28095   5.403   6.574   2.328  0.1604  0.1539 -0.4252
 9042SOL    HW128096   5.348   6.513   2.280 -0.3797  1.7549 -1.9556
 9042SOL    HW228097   5.491   6.537   2.324 -0.0997 -0.3670 -1.6035
 9043SOL     OW28098   0.484   1.337   4.944 -0.2381 -0.2994 -0.0566
 9043SOL    HW128099   0.454   1.353   5.034 -0.3942  1.5806 -0.4041
 9043SOL    HW228100   0.561   1.282   4.954 -0.3775 -0.2914  1.2299
 9044SOL     OW28101   3.779   5.799   4.062  0.1157  0.8957 -0.7745
 9044SOL    HW128102   3.724   5.870   4.096  1.5432  2.3334 -1.3318
 9044SOL    HW228103   3.773   5.808   3.966 -0.8489 -0.7089 -0.9041
 9045SOL     OW28104   4.092   0.732   4.354 -0.3666 -0.5482  0.2329
 9045SOL    HW128105   4.064   0.749   4.264  1.1095 -1.2133 -0.3900
 9045SOL    HW228106   4.109   0.818   4.391  1.5576 -0.3036 -1.0321
 9046SOL     OW28107   3.863   4.199   3.617 -0.0767  0.4122 -0.1557
 9046SOL    HW128108   3.809   4.147   3.676  0.2827  1.3802  1.0991
 9046SOL    HW228109   3.803   4.231   3.551 -0.8089  0.4716  0.5221
 9047SOL     OW28110   5.426   4.047   1.258 -0.8072  0.4087  0.0134
 9047SOL    HW128111   5.472   4.003   1.186 -0.9177  0.2921  0.0151
 9047SOL    HW228112   5.435   3.988   1.332 -0.3069  0.7333  0.2167
 9048SOL     OW28113   1.564   3.354   5.497  0.2824  0.4696 -0.2517
 9048SOL    HW128114   1.474   3.385   5.508 -0.5869 -1.7428 -0.6067
 9048SOL    HW228115   1.586   3.377   5.406 -0.2172  0.3252 -0.4121
 9049SOL     OW28116   1.744   1.797   1.575 -0.3405 -0.1086 -0.2556
 9049SOL    HW128117   1.811   1.863   1.593 -1.3926  1.0840 -0.5311
 9049SOL    HW228118   1.732   1.800   1.480  0.2579 -1.3978 -0.3957
 9050SOL     OW28119   3.238   0.267   4.136 -0.0831 -0.0393  0.1630
 9050SOL    HW128120   3.194   0.333   4.082  0.2906 -0.9197 -1.2666
 9050SOL    HW228121   3.182   0.190   4.130  1.0059 -0.7961 -0.7004
 9051SOL     OW28122   6.843   2.224   5.242 -0.2121  0.8460 -0.1511
 9051SOL    HW128123   6.805   2.143   5.274  1.2806  0.3063  0.3652
 9051SOL    HW228124   6.881   2.201   5.157 -0.9597  1.3556 -0.6347
 9052SOL     OW28125   5.562   2.176   7.321  0.0313  0.1133 -0.0143
 9052SOL    HW128126   5.518   2.210   7.398 -0.9173 -1.8036  0.3365
 9052SOL    HW228127   5.512   2.211   7.247 -0.3775  0.1983  0.2994
 9053SOL     OW28128   5.855   3.139   2.353  0.5417  0.1552  0.2481
 9053SOL    HW128129   5.861   3.094   2.268  0.5658 -1.5436  1.0954
 9053SOL    HW228130   5.944   3.138   2.387  0.4256  0.2556  0.5587
 9054SOL     OW28131   2.085   5.076   3.166 -0.7652 -0.0884 -0.9335
 9054SOL    HW128132   2.124   5.066   3.079 -1.8904  1.0901 -1.6127
 9054SOL    HW228133   2.146   5.132   3.213  0.2408 -1.3620 -0.6752
 9055SOL     OW28134   3.865   0.187   6.328 -0.2805 -0.0000 -0.4308
 9055SOL    HW128135   3.824   0.165   6.245  0.1053 -0.5475 -0.4791
 9055SOL    HW228136   3.854   0.109   6.383 -0.7938  0.4611  0.1368
 9056SOL     OW28137   4.358   0.529   1.493 -0.8907  0.2024  0.3597
 9056SOL    HW128138   4.399   0.552   1.410 -1.7804 -0.5418 -0.3104
 9056SOL    HW228139   4.379   0.602   1.551 -0.8963  1.1144 -0.7440
 9057SOL     OW28140   6.825   6.943   6.919  0.3302 -0.1831  0.2717
 9057SOL    HW128141   6.893   6.898   6.870 -0.5746 -2.1622  0.7126
 9057SOL    HW228142   6.838   7.036   6.900  1.8979 -0.6616 -1.2040
 9058SOL     OW28143   5.913   6.172   5.758 -0.1328 -0.5467  0.8532
 9058SOL    HW128144   5.984   6.159   5.695  0.1254  0.2379  0.9702
 9058SOL    HW228145   5.918   6.096   5.816  1.3543  0.0469  1.5637
 9059SOL     OW28146   4.051   6.959   0.254 -0.8946 -0.2355  0.4781
 9059SOL    HW128147   4.061   6.941   0.160  0.5566  0.0239  0.5578
 9059SOL    HW228148   3.992   6.891   0.285 -0.6817 -0.8710 -0.4597
 9060SOL     OW28149   4.539   5.329   2.504 -0.1510  0.2610  0.2751
 9060SOL    HW128150   4.463   5.337   2.560  0.2773  2.3785  0.6451
 9060SOL    HW228151   4.522   5.390   2.432 -0.0443 -1.3394 -1.1492
 9061SOL     OW28152   2.970   4.025   1.237  0.7481  0.1649 -0.2849
 9061SOL    HW128153   3.039   4.033   1.172  1.6343  2.0483  0.7914
 9061SOL    HW228154   2.932   4.113   1.244 -0.6115 -0.4317  0.3751
 9062SOL     OW28155   2.617   3.416   1.232 -0.2214  0.3446 -0.1023
 9062SOL    HW128156   2.553   3.440   1.165  0.8217 -1.2410 -1.7617
 9062SOL    HW228157   2.629   3.322   1.221  1.3250  0.3623  1.1278
 9063SOL     OW28158   4.640   0.103   2.439 -0.0265 -0.3444  0.4587
 9063SOL    HW128159   4.595   0.030   2.482  1.7599 -1.0780  1.1637
 9063SOL    HW228160   4.704   0.062   2.381 -0.2975  0.6672 -0.5987
 9064SOL     OW28161   5.232   4.391   4.759  0.0259  0.4141 -0.6048
 9064SOL    HW128162   5.277   4.469   4.793 -2.2455  2.1018 -1.2092
 9064SOL    HW228163   5.155   4.381   4.814  0.4710 -1.7305 -0.2842
 9065SOL     OW28164   5.345   1.894   0.047  0.1868 -0.2375 -0.0647
 9065SOL    HW128165   5.386   1.824   0.097  0.4860 -0.2699 -0.3519
 9065SOL    HW228166   5.269   1.920   0.100  0.7999  0.1021  0.6651
 9066SOL     OW28167   2.186   7.294   4.655 -0.1645 -0.1690 -0.2602
 9066SOL    HW128168   2.245   7.268   4.725 -1.4437 -0.1652  0.8615
 9066SOL    HW228169   2.114   7.230   4.659 -1.7583  1.5813  0.4414
 9067SOL     OW28170   5.054   4.594   3.217  0.0763  0.4346  0.4286
 9067SOL    HW128171   5.137   4.642   3.219  0.3206  0.0034  0.9881
 9067SOL    HW228172   5.071   4.519   3.160 -0.1208  0.6696  0.0515
 9068SOL     OW28173   4.280   0.176   5.745 -0.0139  0.2123  0.1907
 9068SOL    HW128174   4.370   0.192   5.773 -0.3995 -0.3266  1.8209
 9068SOL    HW228175   4.248   0.107   5.803 -1.3625  0.1250 -0.6133
 9069SOL     OW28176   2.678   2.572   0.562  0.4080  0.2844 -0.0909
 9069SOL    HW128177   2.693   2.568   0.656  0.1038  0.5967 -0.0278
 9069SOL    HW228178   2.643   2.660   0.547 -4.3123 -1.2267  0.2127
 9070SOL     OW28179   1.551   6.365   5.281 -0.3942 -0.7591 -0.6583
 9070SOL    HW128180   1.504   6.347   5.199 -0.1932 -1.3758 -0.6453
 9070SOL    HW228181   1.610   6.437   5.260  0.5596 -1.7308 -1.4075
 9071SOL     OW28182   6.673   2.699   5.022 -0.5929 -0.4000  0.6996
 9071SOL    HW128183   6.684   2.699   4.927 -1.9505  1.4182  0.4808
 9071SOL    HW228184   6.595   2.754   5.037  0.3125  0.3965  2.9211
 9072SOL     OW28185   4.556   6.889   7.363  0.3827 -0.4077 -0.2783
 9072SOL    HW128186   4.542   6.878   7.269 -0.2993 -1.0851 -0.1130
 9072SOL    HW228187   4.568   6.983   7.375 -1.7410  0.0010 -0.7958
 9073SOL     OW28188   3.741   2.510   2.593 -0.1011 -0.3319 -0.1312
 9073SOL    HW128189   3.687   2.577   2.552  1.2712 -0.0788 -1.6037
 9073SOL    HW228190   3.796   2.477   2.523  1.4180 -0.8296  1.2381
 9074SOL     OW28191   6.181   1.108   4.414  0.2758 -0.5388 -0.3636
 9074SOL    HW128192   6.161   1.201   4.424  0.9922 -0.2706 -1.2830
 9074SOL    HW228193   6.145   1.084   4.328 -1.8480 -1.6837  0.7624
 9075SOL     OW28194   6.369   2.111   3.537 -0.0193  0.1048  0.0765
 9075SOL    HW128195   6.374   2.019   3.510 -0.1750  0.2478 -0.4581
 9075SOL    HW228196   6.437   2.121   3.603 -0.3396 -0.5191  0.5107
 9076SOL     OW28197   7.280   4.174   6.636  0.3269 -0.0220  0.0683
 9076SOL    HW128198   7.309   4.151   6.724  0.0330  1.0123  0.4497
 9076SOL    HW228199   7.186   4.157   6.636 -0.1499  2.2454  0.7674
 9077SOL     OW28200   6.444   6.665   3.742 -0.2746  0.1843 -0.1508
 9077SOL    HW128201   6.353   6.671   3.711  0.0835 -0.5234 -1.3963
 9077SOL    HW228202   6.489   6.738   3.699 -0.0979  0.1084 -0.0952
 9078SOL     OW28203   0.786   2.958   5.475 -0.0911 -0.5119 -0.6953
 9078SOL    HW128204   0.738   2.909   5.541 -0.2458 -1.5615 -1.5516
 9078SOL    HW228205   0.792   3.047   5.510 -1.3251 -0.7265  0.1148
 9079SOL     OW28206   2.772   5.093   2.644  0.0726  0.0869  0.2416
 9079SOL    HW128207   2.759   5.046   2.561  2.7537  2.4536 -1.7424
 9079SOL    HW228208   2.853   5.059   2.679 -1.5118 -1.5618  2.5442
 9080SOL     OW28209   6.769   1.138   2.716  0.1809 -0.0752 -0.6216
 9080SOL    HW128210   6.807   1.196   2.650  0.7722  0.8132  0.4758
 9080SOL    HW228211   6.733   1.196   2.783  0.2787 -0.9601  0.2274
 9081SOL     OW28212   2.864   2.047   4.598 -0.1454 -0.6015 -0.3249
 9081SOL    HW128213   2.931   2.014   4.539  0.1361 -2.2602  0.8585
 9081SOL    HW228214   2.793   1.983   4.593 -1.3596  0.7317 -0.9748
 9082SOL     OW28215   7.286   2.798   2.378 -0.0793 -0.1999  0.2586
 9082SOL    HW128216   7.204   2.824   2.419 -0.3972  0.7743 -0.9314
 9082SOL    HW228217   7.288   2.848   2.296  0.5755 -1.9770 -0.8511
 9083SOL     OW28218   1.252   3.554   2.993  0.2740  0.5661 -0.1699
 9083SOL    HW128219   1.304   3.553   3.074 -1.5359  1.9664  1.0896
 9083SOL    HW228220   1.210   3.468   2.992  0.7091  0.3426  0.0897
 9084SOL     OW28221   2.142   1.671   2.702  0.3791 -0.0719  0.1829
 9084SOL    HW128222   2.153   1.762   2.731  0.5557 -0.6847  2.1521
 9084SOL    HW228223   2.131   1.621   2.782  1.3402 -1.9662 -0.7965
 9085SOL     OW28224   0.502   4.729   4.795 -0.0550  0.4418  0.2080
 9085SOL    HW128225   0.575   4.784   4.823 -1.0509  2.2439 -0.5764
 9085SOL    HW228226   0.470   4.689   4.876  2.0749 -0.8175  0.5007
 9086SOL     OW28227   6.154   1.501   2.716 -0.2264  0.3494 -0.1815
 9086SOL    HW128228   6.106   1.466   2.791  1.1094 -0.1101  0.4776
 9086SOL    HW228229   6.186   1.424   2.670 -0.4184  0.6477 -0.8351
 9087SOL     OW28230   0.593   5.745   3.729 -0.2747 -0.5252  0.0070
 9087SOL    HW128231   0.588   5.800   3.650  0.5448  1.3268  1.1881
 9087SOL    HW228232   0.650   5.673   3.704  0.0277  0.0661 -1.0884
 9088SOL     OW28233   1.714   3.211   1.879 -0.0356 -0.9502 -0.1129
 9088SOL    HW128234   1.784   3.172   1.826  0.2914  0.5518 -0.8457
 9088SOL    HW228235   1.649   3.241   1.815 -0.1889 -0.1510  0.4037
 9089SOL     OW28236   4.937   3.655   0.621  0.0586  0.3296 -0.0914
 9089SOL    HW128237   4.900   3.738   0.593 -1.9244 -0.5646 -0.2703
 9089SOL    HW228238   4.970   3.671   0.709 -0.4927  1.2411 -0.0438
 9090SOL     OW28239   2.501   5.802   1.162  0.6260  0.1049  0.1409
 9090SOL    HW128240   2.417   5.838   1.134 -1.3763 -1.5559  3.3859
 9090SOL    HW228241   2.551   5.878   1.192 -0.6909  0.9327  0.3269
 9091SOL     OW28242   2.695   4.028   1.647 -0.2635  0.2030  0.2012
 9091SOL    HW128243   2.770   4.060   1.597  0.1718 -0.8311  0.1670
 9091SOL    HW228244   2.619   4.051   1.595  0.2128 -1.4032 -1.2895
 9092SOL     OW28245   3.877   5.649   0.881  0.3942 -0.4153  0.2399
 9092SOL    HW128246   3.783   5.647   0.860  0.6463 -1.1518 -0.8716
 9092SOL    HW228247   3.882   5.618   0.972 -0.2200 -3.0046 -0.5492
 9093SOL     OW28248   1.081   1.919   5.976 -0.1966  0.1686  0.0853
 9093SOL    HW128249   1.134   1.880   5.906 -0.3832  1.1976 -0.6502
 9093SOL    HW228250   1.027   1.846   6.008  0.7990 -0.6124  0.0367
 9094SOL     OW28251   2.244   5.641   1.890 -0.1848 -0.2544 -0.3705
 9094SOL    HW128252   2.257   5.686   1.973  0.1495 -1.2623  0.1486
 9094SOL    HW228253   2.310   5.678   1.831 -0.4102  0.4474 -0.1845
 9095SOL     OW28254   7.149   0.187   4.106 -0.0329  0.5218 -0.3237
 9095SOL    HW128255   7.159   0.125   4.033 -1.0650  1.2206 -1.0982
 9095SOL    HW228256   7.225   0.245   4.099  1.5966 -1.2787  1.1212
 9096SOL     OW28257   6.397   2.633   6.004 -0.7748 -0.3720  0.3436
 9096SOL    HW128258   6.306   2.665   6.006 -0.0806  1.7371  0.8223
 9096SOL    HW228259   6.445   2.700   5.956  0.5895 -1.3304  0.3171
 9097SOL     OW28260   1.170   4.068   2.926 -0.2530 -0.3616 -0.5660
 9097SOL    HW128261   1.241   4.014   2.962 -1.5977 -1.5122  0.4883
 9097SOL    HW228262   1.135   4.015   2.855 -0.3157  0.0282 -0.8250
 9098SOL     OW28263   4.676   4.828   0.798  0.9264 -0.2709  0.1226
 9098SOL    HW128264   4.602   4.768   0.786 -0.7661  1.3036  1.9314
 9098SOL    HW228265   4.745   4.792   0.742 -1.0581 -2.0311 -1.3915
 9099SOL     OW28266   6.271   2.538   0.431  0.0807 -0.1076  0.2009
 9099SOL    HW128267   6.325   2.495   0.497 -0.4107 -0.2414  0.5185
 9099SOL    HW228268   6.249   2.623   0.468  1.9018  0.8771 -0.8496
 9100SOL     OW28269   7.215   5.700   3.007 -0.0155 -0.5496 -0.5626
 9100SOL    HW128270   7.159   5.719   2.932 -1.7863  1.1089  1.0775
 9100SOL    HW228271   7.252   5.786   3.031  2.4099 -1.4104 -0.8896
 9101SOL     OW28272   1.819   3.226   4.081 -0.0469 -0.0412  0.4477
 9101SOL    HW128273   1.879   3.300   4.082 -2.0827  1.6896  1.1158
 9101SOL    HW228274   1.869   3.154   4.121  1.8821  1.0205  0.0478
 9102SOL     OW28275   1.615   0.748   0.031  0.3115  0.7873 -0.5594
 9102SOL    HW128276   1.677   0.701   0.086 -1.3262 -0.1443  0.6135
 9102SOL    HW228277   1.537   0.691   0.030 -0.8480  2.3136 -1.1787
 9103SOL     OW28278   5.363   1.386   1.887 -0.2832  0.8751  0.0741
 9103SOL    HW128279   5.354   1.424   1.975 -1.2232  0.9426 -0.0435
 9103SOL    HW228280   5.451   1.411   1.860  2.0100 -3.0928  2.8510
 9104SOL     OW28281   6.212   4.248   2.556  0.5522  0.0047  0.1181
 9104SOL    HW128282   6.159   4.191   2.612 -1.2729  0.8684 -0.6236
 9104SOL    HW228283   6.207   4.208   2.470 -0.6019  1.1151 -0.3720
 9105SOL     OW28284   6.183   2.052   4.382 -0.0786  0.0665  0.2512
 9105SOL    HW128285   6.206   2.079   4.471  2.0606 -1.7292  0.3314
 9105SOL    HW228286   6.181   2.134   4.332 -0.2349  0.9955  1.7093
 9106SOL     OW28287   2.022   0.602   0.141  0.0388  0.0284  0.7130
 9106SOL    HW128288   2.116   0.585   0.141  0.1378  0.5367  1.0366
 9106SOL    HW228289   2.014   0.690   0.103 -0.2745  0.1108  0.9648
 9107SOL     OW28290   0.533   0.633   7.024 -0.5127 -0.7680  0.0548
 9107SOL    HW128291   0.552   0.584   6.944 -0.5882 -1.1349  0.2627
 9107SOL    HW228292   0.506   0.720   6.993  1.1094 -0.3404 -0.2678
 9108SOL     OW28293   3.108   2.680   1.937  0.2238  0.2997  0.0534
 9108SOL    HW128294   3.168   2.682   2.012  0.3344 -1.7834  0.0712
 9108SOL    HW228295   3.133   2.602   1.888  0.6437  2.0006 -2.6210
 9109SOL     OW28296   3.263   5.804   2.194  0.1186  0.2209 -0.0612
 9109SOL    HW128297   3.171   5.782   2.200 -0.0701  1.2609  1.6824
 9109SOL    HW228298   3.270   5.861   2.117 -0.8055  0.5622  0.0974
 9110SOL     OW28299   1.154   2.263   5.412 -0.4730  0.8772  0.6811
 9110SOL    HW128300   1.151   2.167   5.404 -1.0542  1.0047 -1.1164
 9110SOL    HW228301   1.127   2.280   5.502  0.0709 -0.6689  1.1714
 9111SOL     OW28302   5.271   0.419   5.552  0.2062 -0.2494 -0.7075
 9111SOL    HW128303   5.244   0.447   5.465 -0.2199  0.8003 -0.2612
 9111SOL    HW228304   5.341   0.480   5.576 -1.5855  1.3423  0.7930
 9112SOL     OW28305   3.645   4.206   3.444  0.0048  0.0922  0.1169
 9112SOL    HW128306   3.605   4.143   3.504  0.5237  0.7850  1.2422
 9112SOL    HW228307   3.672   4.155   3.368 -0.0658 -0.9378  0.7712
 9113SOL     OW28308   4.415   0.330   4.193 -0.5666 -0.2152  0.0289
 9113SOL    HW128309   4.495   0.377   4.216 -0.9804  0.5272 -0.0040
 9113SOL    HW228310   4.349   0.362   4.255 -1.0426 -0.1629 -0.4916
 9114SOL     OW28311   6.144   6.732   3.877 -0.5143  0.0747 -0.2977
 9114SOL    HW128312   6.049   6.748   3.882 -0.7456 -0.8211 -1.5007
 9114SOL    HW228313   6.158   6.701   3.788  1.2575  2.3128 -0.9015
 9115SOL     OW28314   6.904   1.878   0.121 -0.2499  0.0809  0.3407
 9115SOL    HW128315   6.824   1.930   0.130 -1.1642 -1.2307  0.0144
 9115SOL    HW228316   6.880   1.790   0.151  0.9599 -0.4455 -0.1365
 9116SOL     OW28317   0.368   2.802   5.705 -0.0924 -0.2880  0.0899
 9116SOL    HW128318   0.338   2.891   5.724  0.1787 -0.0175 -0.6965
 9116SOL    HW228319   0.365   2.757   5.790 -1.6399  0.0383  0.2421
 9117SOL     OW28320   1.641   6.372   0.034 -0.5171 -0.0483  0.0688
 9117SOL    HW128321   1.686   6.447   0.072  0.5640 -0.1173 -1.0041
 9117SOL    HW228322   1.623   6.397  -0.057 -0.5001 -0.9236 -0.1902
 9118SOL     OW28323   6.152   3.139   5.071  0.0754  0.7506 -0.3401
 9118SOL    HW128324   6.081   3.175   5.018 -0.8875  0.7506  0.8983
 9118SOL    HW228325   6.114   3.130   5.158  0.4766 -2.4687 -0.3722
 9119SOL     OW28326   5.425   1.553   3.018 -0.1565 -0.1877  0.5920
 9119SOL    HW128327   5.338   1.594   3.015  0.2354  0.6312 -1.7201
 9119SOL    HW228328   5.439   1.534   3.110 -2.6836 -0.1166  1.0716
 9120SOL     OW28329   0.192   1.102   0.364 -0.1246  0.2919 -0.6162
 9120SOL    HW128330   0.182   1.110   0.269  2.2356  0.6903 -0.9010
 9120SOL    HW228331   0.156   1.184   0.398  1.3501  1.3355 -1.4385
 9121SOL     OW28332   5.140   4.287   3.642 -0.4838  0.2544 -0.4894
 9121SOL    HW128333   5.233   4.307   3.648 -0.2675 -0.3060 -1.6837
 9121SOL    HW228334   5.096   4.368   3.668  0.3454  0.6590 -0.3404
 9122SOL     OW28335   4.571   6.701   2.316 -0.0623 -0.4388 -0.0874
 9122SOL    HW128336   4.658   6.741   2.315 -0.1196 -0.3157 -0.9821
 9122SOL    HW228337   4.574   6.635   2.246 -0.6804 -0.4585 -0.1000
 9123SOL     OW28338   3.614   0.863   1.312 -0.4666  0.0894  0.9443
 9123SOL    HW128339   3.616   0.778   1.268 -0.0815 -0.2219  1.5557
 9123SOL    HW228340   3.576   0.845   1.398  0.7176  0.3143  1.5345
 9124SOL     OW28341   6.964   6.114   1.090 -0.0673  0.1612 -0.4508
 9124SOL    HW128342   6.917   6.056   1.029 -1.0163 -0.3528  0.7188
 9124SOL    HW228343   7.010   6.055   1.149 -0.6566  0.5814  0.4619
 9125SOL     OW28344   1.683   3.779   4.212  0.4373 -0.3831 -0.2962
 9125SOL    HW128345   1.631   3.859   4.202 -0.2302 -0.8892 -1.0208
 9125SOL    HW228346   1.737   3.794   4.289  0.4522  0.8402 -0.5337
 9126SOL     OW28347   5.714   0.677   5.681  0.5374  0.2332  0.8284
 9126SOL    HW128348   5.792   0.711   5.725  0.7426 -0.4723  1.0308
 9126SOL    HW228349   5.704   0.731   5.603  0.1892  1.4907  1.7126
 9127SOL     OW28350   5.161   3.572   4.935  0.5062  0.2010 -0.3305
 9127SOL    HW128351   5.147   3.480   4.959  0.7212 -0.0836 -1.2856
 9127SOL    HW228352   5.084   3.617   4.969 -0.6779 -0.6813 -1.7409
 9128SOL     OW28353   2.571   2.516   7.215 -0.1010 -0.2887 -0.5713
 9128SOL    HW128354   2.599   2.605   7.195 -0.9125 -0.2324 -1.5492
 9128SOL    HW228355   2.536   2.521   7.304  0.5603  0.1927 -0.3344
 9129SOL     OW28356   5.796   1.717   7.049  0.7436  0.3211  0.4771
 9129SOL    HW128357   5.856   1.736   7.122  1.7665  1.6591 -0.6697
 9129SOL    HW228358   5.742   1.796   7.042 -1.0918 -0.7873  1.3615
 9130SOL     OW28359   4.325   6.370   4.708  0.1397 -0.2682  0.4154
 9130SOL    HW128360   4.289   6.331   4.628 -0.2736  1.8378 -0.5212
 9130SOL    HW228361   4.385   6.304   4.742 -2.5027 -2.8183  0.5383
 9131SOL     OW28362   2.320   4.228   1.230 -0.3405  0.2307 -0.6020
 9131SOL    HW128363   2.271   4.236   1.313 -1.9719 -2.9902 -1.1233
 9131SOL    HW228364   2.260   4.263   1.164  0.2950  1.2193 -0.6901
 9132SOL     OW28365   2.422   5.655   5.103  0.0236 -0.0498 -0.7577
 9132SOL    HW128366   2.336   5.619   5.079  0.0585 -0.2878 -0.5274
 9132SOL    HW228367   2.435   5.627   5.193 -0.4781  1.5528 -0.1553
 9133SOL     OW28368   6.198   0.831   2.314  0.2899  0.1115 -0.0454
 9133SOL    HW128369   6.202   0.785   2.398 -0.5088  0.3684  0.1453
 9133SOL    HW228370   6.257   0.906   2.324 -0.5852  0.7200  0.6629
 9134SOL     OW28371   2.276   5.807   4.162  0.3200  0.1809 -0.2352
 9134SOL    HW128372   2.329   5.869   4.112  0.7560  0.7809  0.9416
 9134SOL    HW228373   2.186   5.830   4.141  0.4864 -0.3455 -1.6511
 9135SOL     OW28374   6.815   0.088   0.706  0.5828 -0.2337  0.0343
 9135SOL    HW128375   6.857   0.032   0.771  1.6209  0.3348 -0.1107
 9135SOL    HW228376   6.822   0.040   0.624  0.0099 -0.5933  0.1936
 9136SOL     OW28377   5.969   7.163   4.213 -0.1378 -0.0599  0.5363
 9136SOL    HW128378   6.000   7.088   4.163  0.4893  1.3042 -1.2275
 9136SOL    HW228379   6.048   7.201   4.251 -0.1837  0.7528 -0.1388
 9137SOL     OW28380   6.393   2.502   6.750  0.0517 -0.1724  0.7008
 9137SOL    HW128381   6.420   2.411   6.765  0.3962 -0.2392 -0.2401
 9137SOL    HW228382   6.320   2.495   6.689  1.2268  0.2360 -0.8226
 9138SOL     OW28383   6.356   3.589   3.341  0.2591  0.5597  0.3572
 9138SOL    HW128384   6.385   3.554   3.257 -1.6280 -2.5045  0.8516
 9138SOL    HW228385   6.267   3.621   3.324 -0.2631 -0.3789  1.1912
 9139SOL     OW28386   5.125   0.573   4.309 -0.1270 -0.5401  0.2830
 9139SOL    HW128387   5.195   0.544   4.250 -0.0917 -3.2976  1.5139
 9139SOL    HW228388   5.049   0.520   4.284 -0.5473 -0.6312  1.6909
 9140SOL     OW28389   4.376   1.018   0.023 -0.2952  0.8434 -0.2137
 9140SOL    HW128390   4.292   1.012   0.069  0.1036  1.2510  0.5782
 9140SOL    HW228391   4.374   0.944  -0.038  0.0613 -1.1188  1.9885
 9141SOL     OW28392   2.338   0.215   2.062 -0.1739 -0.1593  0.1411
 9141SOL    HW128393   2.280   0.279   2.102 -1.1807  0.2724 -1.8539
 9141SOL    HW228394   2.388   0.266   1.997 -0.2964 -1.2031 -0.8002
 9142SOL     OW28395   3.934   0.880   5.358 -0.0503 -0.0467  0.0858
 9142SOL    HW128396   3.874   0.806   5.348  1.6475 -1.3640 -1.0902
 9142SOL    HW228397   4.021   0.840   5.356  1.0737  2.1150 -3.0987
 9143SOL     OW28398   0.882   4.506   5.997 -0.6947  0.4565 -0.2558
 9143SOL    HW128399   0.842   4.436   5.945 -2.5142  0.2771  1.2742
 9143SOL    HW228400   0.813   4.533   6.058  1.2860  0.6697  2.0341
 9144SOL     OW28401   2.130   4.378   3.243 -0.1358  0.0377  0.3716
 9144SOL    HW128402   2.103   4.404   3.155 -0.2119 -0.7171  0.1666
 9144SOL    HW228403   2.219   4.344   3.233 -0.0534  0.1735  0.6245
 9145SOL     OW28404   3.508   0.196   2.204  0.6832 -0.1925 -0.2912
 9145SOL    HW128405   3.501   0.102   2.191  0.2392  0.1758 -3.6455
 9145SOL    HW228406   3.552   0.228   2.125  2.3113  2.2704  1.4754
 9146SOL     OW28407   6.042   6.912   2.149  0.1038  0.2043 -0.0864
 9146SOL    HW128408   6.130   6.881   2.170  0.1143 -1.2583 -1.9707
 9146SOL    HW228409   5.991   6.832   2.135 -0.6576  0.9789 -2.1771
 9147SOL     OW28410   1.858   3.804   5.927 -0.3535  0.0302  0.0110
 9147SOL    HW128411   1.922   3.748   5.971  0.3352 -1.1680 -2.3225
 9147SOL    HW228412   1.871   3.786   5.834 -1.1202  3.0608 -0.7799
 9148SOL     OW28413   0.550   4.908   4.152 -0.1994  0.1084  0.0176
 9148SOL    HW128414   0.559   4.969   4.225 -1.4801 -0.1519  0.4115
 9148SOL    HW228415   0.456   4.889   4.148 -0.1579  0.1800 -1.7511
 9149SOL     OW28416   1.805   2.763   0.903 -0.3796 -0.3410 -0.4463
 9149SOL    HW128417   1.775   2.830   0.841  1.7273 -0.6634 -1.9296
 9149SOL    HW228418   1.865   2.810   0.962 -0.0867 -0.6113 -0.5247
 9150SOL     OW28419   1.544   1.895   5.764  0.1105  0.1345 -0.3300
 9150SOL    HW128420   1.596   1.940   5.831  0.0613 -0.0715 -0.1515
 9150SOL    HW228421   1.460   1.878   5.805 -0.0507  0.3423 -0.5733
 9151SOL     OW28422   3.065   2.356   3.624  0.1400  0.4181  0.1755
 9151SOL    HW128423   3.059   2.262   3.608  0.0724  0.5788 -0.7474
 9151SOL    HW228424   2.998   2.395   3.569  0.8578  1.0943 -0.2375
 9152SOL     OW28425   4.701   2.926   2.331 -0.3277 -0.0450  0.8564
 9152SOL    HW128426   4.754   2.975   2.392  0.8992 -0.5115  0.1999
 9152SOL    HW228427   4.751   2.846   2.314  0.0549  0.6588 -1.7669
 9153SOL     OW28428   0.013   0.204   5.801  0.1804  0.1488  0.3989
 9153SOL    HW128429   0.049   0.266   5.737  0.1335 -0.4733 -0.2406
 9153SOL    HW228430  -0.063   0.249   5.839  0.1590  0.4883 -0.0450
 9154SOL     OW28431   4.336   5.194   6.174 -0.0624  0.6108 -0.1552
 9154SOL    HW128432   4.248   5.165   6.198  0.1498  0.2155  0.1436
 9154SOL    HW228433   4.326   5.228   6.085 -1.3793  4.3379  1.2224
 9155SOL     OW28434   3.179   3.846   5.071  0.3886  0.0192  0.1109
 9155SOL    HW128435   3.191   3.752   5.079  1.9536  0.3263  2.1334
 9155SOL    HW228436   3.227   3.883   5.145  2.9088  2.6121 -2.5558
 9156SOL     OW28437   2.507   7.372   4.842 -0.2964  0.3515  0.0819
 9156SOL    HW128438   2.519   7.351   4.749 -0.5714  0.6395 -0.0221
 9156SOL    HW228439   2.577   7.325   4.887  0.4475  0.9948 -0.3726
 9157SOL     OW28440   7.005   4.666   3.561 -0.2858  0.0014 -0.3227
 9157SOL    HW128441   6.918   4.697   3.588 -0.1403 -1.6301  2.4147
 9157SOL    HW228442   6.987   4.604   3.491 -1.0020  1.8570 -1.8885
 9158SOL     OW28443   6.388   7.263   1.770  0.3291  0.4934  0.2770
 9158SOL    HW128444   6.426   7.299   1.850  1.0929  0.1021  0.1016
 9158SOL    HW228445   6.452   7.199   1.739 -0.4228 -0.0999 -0.1028
 9159SOL     OW28446   0.044   1.797   4.792 -0.3492 -0.6391 -0.3007
 9159SOL    HW128447   0.074   1.780   4.882 -0.3505 -2.1985 -0.5705
 9159SOL    HW228448  -0.042   1.838   4.802  1.0417  2.3464  0.4533
 9160SOL     OW28449   2.672   1.389   2.411  0.0549  0.5272  0.3109
 9160SOL    HW128450   2.745   1.329   2.393  0.5646  0.1133  3.3216
 9160SOL    HW228451   2.711   1.476   2.406  1.4263  0.2775  3.8594
 9161SOL     OW28452   4.733   1.933   3.917 -0.1385  0.0570 -0.1488
 9161SOL    HW128453   4.730   1.933   4.013 -1.5451 -0.1350 -0.1745
 9161SOL    HW228454   4.785   1.856   3.895 -1.9023 -1.3655  0.4417
 9162SOL     OW28455   3.568   2.728   3.972 -0.3391 -0.4751 -0.2273
 9162SOL    HW128456   3.610   2.753   4.055  1.7571  0.0245 -1.3568
 9162SOL    HW228457   3.571   2.807   3.918  0.9282 -1.4857 -1.7426
 9163SOL     OW28458   0.388   1.643   6.184 -0.4113 -0.7135  0.0699
 9163SOL    HW128459   0.442   1.706   6.136 -0.9975  1.5721  2.1963
 9163SOL    HW228460   0.303   1.647   6.140 -0.5498  0.3042  0.4011
 9164SOL     OW28461   0.476   1.215   0.822  0.2335  0.1527 -0.3620
 9164SOL    HW128462   0.446   1.306   0.826 -1.2678 -0.3666  0.6093
 9164SOL    HW228463   0.454   1.186   0.733 -2.7410 -0.3660  0.4560
 9165SOL     OW28464   4.214   0.645   2.173 -0.0392  0.0429  0.2399
 9165SOL    HW128465   4.121   0.658   2.194 -0.5667 -1.5320 -0.8777
 9165SOL    HW228466   4.236   0.561   2.215  1.3040  1.0667  1.6827
 9166SOL     OW28467   0.966   5.852   0.309 -0.1162 -0.0740 -0.1184
 9166SOL    HW128468   0.943   5.921   0.371 -1.2337  0.7095 -1.3445
 9166SOL    HW228469   0.946   5.771   0.354 -0.4797  0.4648  0.7031
 9167SOL     OW28470   3.571   5.489   0.162  0.9081 -0.1775 -0.1326
 9167SOL    HW128471   3.654   5.536   0.159  2.2558 -2.2676  1.1118
 9167SOL    HW228472   3.567   5.442   0.078  0.6803  0.3959 -0.4431
 9168SOL     OW28473   6.148   4.693   4.569  0.1403  0.1977 -0.4649
 9168SOL    HW128474   6.074   4.636   4.548  0.6975 -1.0285  0.7760
 9168SOL    HW228475   6.225   4.645   4.539  0.6628  0.0086  1.0816
 9169SOL     OW28476   5.671   3.603   7.265 -0.3364  0.4257 -0.7009
 9169SOL    HW128477   5.716   3.625   7.183  0.2465  0.6733 -0.3143
 9169SOL    HW228478   5.622   3.682   7.288  0.1796  0.6461 -0.3595
 9170SOL     OW28479   1.489   5.913   6.854 -0.1337 -0.6522  0.1572
 9170SOL    HW128480   1.459   5.856   6.784 -0.4327 -1.3399  0.8372
 9170SOL    HW228481   1.447   5.997   6.836 -0.7077 -1.0001 -0.1287
 9171SOL     OW28482   3.885   0.077   5.779  0.0697  0.1566  0.7008
 9171SOL    HW128483   3.950   0.135   5.741  0.6076 -0.5514  0.5246
 9171SOL    HW228484   3.804   0.128   5.778  0.0194  0.1338 -1.5096
 9172SOL     OW28485   5.882   0.985   6.586  0.4367  0.0834  0.2692
 9172SOL    HW128486   5.905   1.068   6.542  0.2177  0.1222  0.2263
 9172SOL    HW228487   5.950   0.973   6.651 -0.3969  1.1283  1.3841
 9173SOL     OW28488   1.831   1.991   1.126  0.4755  0.3591 -0.4285
 9173SOL    HW128489   1.905   2.017   1.072  2.5264 -0.3047  1.9150
 9173SOL    HW228490   1.854   2.018   1.215 -0.4883 -2.9147  0.9579
 9174SOL     OW28491   2.646   5.630   2.574  0.0112  0.4944  0.0265
 9174SOL    HW128492   2.662   5.630   2.668  0.2300 -2.5676  0.0817
 9174SOL    HW228493   2.584   5.702   2.560  1.9224  2.6898  2.0581
 9175SOL     OW28494   2.965   1.215   1.169 -0.1526  0.0901 -0.1858
 9175SOL    HW128495   2.917   1.197   1.250  0.3869 -3.4711 -0.5172
 9175SOL    HW228496   3.057   1.209   1.194  0.0438 -2.7027 -1.2251
 9176SOL     OW28497   2.741   6.314   5.137  0.3700  0.7154 -0.2697
 9176SOL    HW128498   2.725   6.229   5.178 -0.5672 -0.5088 -2.9441
 9176SOL    HW228499   2.706   6.378   5.200  0.7934 -0.8364  1.6600
 9177SOL     OW28500   4.158   1.375   0.532  0.0095 -0.0601  0.0798
 9177SOL    HW128501   4.137   1.468   0.532 -0.4106 -0.1505  0.3510
 9177SOL    HW228502   4.214   1.363   0.608 -0.3605 -0.1183  0.3451
 9178SOL     OW28503   6.054   4.129   4.543 -0.1159 -0.1152 -0.2173
 9178SOL    HW128504   6.012   4.098   4.462  1.2353  0.3017 -1.1225
 9178SOL    HW228505   5.982   4.161   4.597 -1.0001  0.1764 -1.5204
 9179SOL     OW28506   4.153   3.213   4.817 -0.2225 -0.2356 -1.2441
 9179SOL    HW128507   4.119   3.189   4.904 -0.2633  0.1304 -1.1576
 9179SOL    HW228508   4.164   3.129   4.772  1.0882 -0.5370 -0.4195
 9180SOL     OW28509   0.417   3.507   0.290 -0.3760  0.5779  0.9564
 9180SOL    HW128510   0.439   3.586   0.340 -1.6417  0.9818  0.9145
 9180SOL    HW228511   0.358   3.538   0.222 -0.9525 -0.4257  0.9815
 9181SOL     OW28512   5.430   3.791   2.366  0.2166  0.5768 -0.0876
 9181SOL    HW128513   5.508   3.740   2.344  0.3340  0.7662 -0.1196
 9181SOL    HW228514   5.357   3.742   2.330  0.4878  1.4542 -1.9374
 9182SOL     OW28515   6.568   7.318   6.405  0.4296  0.0291 -0.2732
 9182SOL    HW128516   6.549   7.409   6.382 -0.0239 -0.2013 -0.8342
 9182SOL    HW228517   6.663   7.312   6.402  0.4303  0.3051 -0.9430
 9183SOL     OW28518   0.104   4.089   2.079 -0.8325 -0.0855 -0.0155
 9183SOL    HW128519   0.088   4.078   1.985 -0.4582 -0.4542 -0.0371
 9183SOL    HW228520   0.087   4.182   2.095  0.4937  0.3065 -0.7275
 9184SOL     OW28521   5.496   4.901   4.158  0.1764 -0.4173 -0.4078
 9184SOL    HW128522   5.422   4.942   4.113  0.1291 -0.8420 -0.7143
 9184SOL    HW228523   5.460   4.871   4.241  0.5728  1.6157  0.5581
 9185SOL     OW28524   0.869   1.340   4.974 -0.3194 -0.3270  0.3073
 9185SOL    HW128525   0.940   1.388   5.017  1.0819 -0.9123 -1.2370
 9185SOL    HW228526   0.851   1.266   5.032  0.1828 -0.0448  0.8316
 9186SOL     OW28527   4.197   1.656   3.217 -0.8425  0.4446  0.3572
 9186SOL    HW128528   4.125   1.657   3.279 -1.9537 -0.4262 -0.8548
 9186SOL    HW228529   4.183   1.734   3.163  0.1463  1.2271  1.2066
 9187SOL     OW28530   7.050   1.510   7.016  0.3718 -0.1059 -0.9967
 9187SOL    HW128531   7.093   1.525   6.932 -1.6172  1.1529 -1.8648
 9187SOL    HW228532   6.998   1.431   7.004 -0.4714  0.4694 -1.2117
 9188SOL     OW28533   4.990   4.205   2.602 -0.1098  0.2396 -0.1728
 9188SOL    HW128534   5.007   4.294   2.572 -2.4401  1.4481  1.7967
 9188SOL    HW228535   4.925   4.170   2.540  1.8298 -0.7431 -1.8014
 9189SOL     OW28536   1.332   1.834   0.313 -0.0972 -0.1334  0.6572
 9189SOL    HW128537   1.412   1.812   0.360 -0.4914 -0.6383  1.0976
 9189SOL    HW228538   1.285   1.894   0.372 -0.7290 -0.9966  1.0461
 9190SOL     OW28539   1.715   1.101   3.127  0.8781 -0.0459  0.4230
 9190SOL    HW128540   1.621   1.102   3.149  0.5884  0.9104 -0.8022
 9190SOL    HW228541   1.737   1.192   3.112  1.9953 -0.2852  0.5634
 9191SOL     OW28542   4.000   6.709   5.431  0.0767  0.2958 -0.2831
 9191SOL    HW128543   3.913   6.732   5.398 -0.2405 -1.2292 -0.5628
 9191SOL    HW228544   4.000   6.741   5.522 -0.6563  0.5868 -0.3786
 9192SOL     OW28545   4.977   4.526   1.818 -0.0636 -0.2393  0.4974
 9192SOL    HW128546   4.891   4.537   1.858 -0.4749 -2.2562  0.2547
 9192SOL    HW228547   4.963   4.542   1.725 -0.3173 -1.1305  0.3752
 9193SOL     OW28548   3.730   1.547   4.934 -0.3931 -0.7323 -0.0543
 9193SOL    HW128549   3.800   1.551   4.999 -0.5877 -0.1023  0.1215
 9193SOL    HW228550   3.772   1.574   4.852 -0.4935 -0.0845  0.1059
 9194SOL     OW28551   4.004   0.752   6.382  0.6027  0.3059  0.2013
 9194SOL    HW128552   4.028   0.813   6.451  1.0974 -0.3991  0.6582
 9194SOL    HW228553   3.939   0.800   6.330 -0.3566  0.5678  1.5930
 9195SOL     OW28554   4.733   4.266   2.783 -0.7950 -0.0538 -0.4376
 9195SOL    HW128555   4.690   4.334   2.732 -1.2842 -0.9659 -1.2678
 9195SOL    HW228556   4.814   4.247   2.735  0.0213  0.8460  0.5062
 9196SOL     OW28557   0.889   5.675   6.095 -0.0679 -0.4562  0.4145
 9196SOL    HW128558   0.884   5.752   6.152 -0.9018 -0.3154  0.1683
 9196SOL    HW228559   0.982   5.668   6.073  0.3159 -0.7108  2.0375
 9197SOL     OW28560   2.224   5.298   2.848  0.3346  0.1707 -0.3289
 9197SOL    HW128561   2.252   5.370   2.904 -1.6107  1.3297 -0.7217
 9197SOL    HW228562   2.264   5.317   2.763  0.2965  0.4792 -0.2796
 9198SOL     OW28563   5.975   3.591   7.367  0.0658  0.2115 -0.3881
 9198SOL    HW128564   5.880   3.604   7.372 -0.4745 -2.7895 -1.1112
 9198SOL    HW228565   6.007   3.615   7.454 -1.9161 -2.0867  1.1253
 9199SOL     OW28566   4.083   5.060   1.739  0.2577  0.1860  0.0750
 9199SOL    HW128567   4.119   4.989   1.793 -0.6585 -0.2316  0.1477
 9199SOL    HW228568   4.008   5.092   1.789  0.9608  1.5677  0.2973
 9200SOL     OW28569   4.062   2.604   4.790 -0.5899  0.2623  0.3665
 9200SOL    HW128570   4.138   2.623   4.735 -0.3516 -1.7440 -0.0540
 9200SOL    HW228571   4.098   2.591   4.877 -0.2774 -1.5294  0.0139
 9201SOL     OW28572   0.167   1.804   5.482 -0.5908  0.0587 -0.0960
 9201SOL    HW128573   0.122   1.738   5.429 -0.1140 -1.5430  1.4102
 9201SOL    HW228574   0.240   1.833   5.427 -1.2070 -0.1275 -1.0435
 9202SOL     OW28575   6.896   7.121   3.479 -0.0323 -0.1465  0.0421
 9202SOL    HW128576   6.955   7.050   3.454  0.8591  0.8187 -0.6493
 9202SOL    HW228577   6.810   7.093   3.446 -0.1496 -1.8123  1.5313
 9203SOL     OW28578   2.249   1.641   4.695  0.3914 -0.3935 -0.3147
 9203SOL    HW128579   2.212   1.598   4.618  0.5886 -0.8138 -0.1826
 9203SOL    HW228580   2.173   1.658   4.751  0.3824 -1.2188 -0.0594
 9204SOL     OW28581   3.134   2.866   6.516  0.4538 -0.1190  0.2257
 9204SOL    HW128582   3.214   2.853   6.464  0.6972  0.0515  0.5489
 9204SOL    HW228583   3.163   2.920   6.590 -0.5432  2.6020 -1.2317
 9205SOL     OW28584   3.573   1.714   2.726 -0.0946  0.4064 -0.2053
 9205SOL    HW128585   3.628   1.731   2.802 -0.1669 -2.9778  0.8051
 9205SOL    HW228586   3.623   1.651   2.674 -1.2676  0.4701 -1.4643
 9206SOL     OW28587   4.402   4.558   6.382 -0.5924  0.3944  0.3836
 9206SOL    HW128588   4.457   4.536   6.458 -1.5230 -2.6399  0.2873
 9206SOL    HW228589   4.312   4.547   6.414 -1.1333  2.4141 -0.2908
 9207SOL     OW28590   5.247   2.990   3.631 -0.1060  0.1336 -0.0134
 9207SOL    HW128591   5.327   2.949   3.662 -1.4215 -3.0305 -0.4396
 9207SOL    HW228592   5.249   2.979   3.536 -1.4470 -0.8486  0.0467
 9208SOL     OW28593   2.023   5.674   6.468  0.1405  0.0229 -0.2316
 9208SOL    HW128594   2.032   5.764   6.501 -0.2847  0.8078 -2.1042
 9208SOL    HW228595   1.995   5.685   6.378  2.2273 -1.9633 -1.2277
 9209SOL     OW28596   3.329   5.237   5.045  0.4438  0.3957  1.3298
 9209SOL    HW128597   3.350   5.312   4.990 -2.3142 -0.2115 -0.7998
 9209SOL    HW228598   3.240   5.254   5.076 -0.2838 -1.9184  0.7657
 9210SOL     OW28599   1.890   5.194   6.968 -0.1785  0.3055  0.4176
 9210SOL    HW128600   1.849   5.219   7.051 -0.0033  4.0852 -0.4641
 9210SOL    HW228601   1.822   5.207   6.903  0.5493  0.3007 -0.3575
 9211SOL     OW28602   1.007   5.036   1.478  0.3222  0.0272  1.1169
 9211SOL    HW128603   1.072   4.977   1.440  0.4502  1.3152 -0.8164
 9211SOL    HW228604   0.922   4.996   1.458  0.4151  0.3389  0.0593
 9212SOL     OW28605   5.735   1.338   6.608  0.0334 -0.1704 -0.2584
 9212SOL    HW128606   5.758   1.427   6.633  2.1594 -0.6866 -0.2152
 9212SOL    HW228607   5.723   1.292   6.692 -1.6156  0.1599 -0.2755
 9213SOL     OW28608   2.214   4.824   4.349 -0.7053 -0.1946 -0.3280
 9213SOL    HW128609   2.189   4.917   4.355 -0.1525 -0.1366  1.4456
 9213SOL    HW228610   2.303   4.821   4.383 -0.4355 -1.2802 -1.0880
 9214SOL     OW28611   2.494   4.905   7.301  0.3029  0.8494 -0.8061
 9214SOL    HW128612   2.484   5.001   7.298  3.0170  1.3223  1.1046
 9214SOL    HW228613   2.447   4.879   7.381 -0.2176  0.6040 -1.1881
 9215SOL     OW28614   4.842   4.051   4.955  0.9942  0.2378  0.1490
 9215SOL    HW128615   4.797   4.001   5.023  2.2314 -0.1039  0.7565
 9215SOL    HW228616   4.926   4.075   4.994  2.2120 -0.8953 -1.6051
 9216SOL     OW28617   3.710   5.057   4.617 -0.4181 -0.2334 -0.2451
 9216SOL    HW128618   3.689   4.983   4.674 -0.7203  0.1002  0.0770
 9216SOL    HW228619   3.666   5.132   4.657 -0.2932  0.0810 -0.6903
 9217SOL     OW28620   0.631   1.956   0.548 -0.0693  0.3616  0.0014
 9217SOL    HW128621   0.703   1.919   0.600  0.9205 -0.7408 -2.0274
 9217SOL    HW228622   0.660   1.947   0.458 -1.6449  2.3642 -0.7830
 9218SOL     OW28623   5.165   5.819   1.027  0.5162  0.2515  0.0939
 9218SOL    HW128624   5.099   5.871   0.982  0.3935  0.4147  0.4583
 9218SOL    HW228625   5.216   5.882   1.077  1.3760  0.2103 -0.6914
 9219SOL     OW28626   5.681   0.492   0.212 -0.4031  0.1578 -0.0529
 9219SOL    HW128627   5.604   0.492   0.269  0.2906  2.5017  1.0277
 9219SOL    HW228628   5.657   0.550   0.140  0.5223  1.4484  0.6365
 9220SOL     OW28629   0.525   1.015   4.571 -0.0837  0.2334  0.1751
 9220SOL    HW128630   0.614   1.026   4.606  0.1686  0.3922 -0.4920
 9220SOL    HW228631   0.476   1.090   4.606 -0.3486 -0.6164  1.7130
 9221SOL     OW28632   2.949   2.407   1.937 -0.1050 -0.3606  0.4188
 9221SOL    HW128633   2.929   2.499   1.952 -1.7871 -0.6062 -0.1289
 9221SOL    HW228634   3.017   2.409   1.869 -1.3367  0.4685 -0.8456
 9222SOL     OW28635   3.645   0.465   2.114 -0.1180 -0.2469 -0.1885
 9222SOL    HW128636   3.570   0.406   2.119  1.0243 -1.6934  0.9676
 9222SOL    HW228637   3.669   0.465   2.021 -0.6237 -0.9935 -0.3359
 9223SOL     OW28638   2.039   2.873   2.759  0.5756 -0.1026  0.0182
 9223SOL    HW128639   2.046   2.781   2.786  0.4067 -0.0627  0.2001
 9223SOL    HW228640   2.065   2.923   2.837 -1.9892  0.0702  0.8760
 9224SOL     OW28641   6.540   5.358   0.620 -0.6221  0.0203  0.1203
 9224SOL    HW128642   6.559   5.393   0.533 -2.9602  0.9431 -0.0966
 9224SOL    HW228643   6.528   5.436   0.675 -0.5654 -0.5262  0.9297
 9225SOL     OW28644   6.620   5.061   4.729  0.3230 -0.0910  0.2685
 9225SOL    HW128645   6.559   5.115   4.779  0.3367 -0.6321  0.8834
 9225SOL    HW228646   6.567   4.990   4.695  0.4054  0.0235 -0.0990
 9226SOL     OW28647   6.099   4.749   1.725  0.3802  0.1122  0.2530
 9226SOL    HW128648   6.107   4.812   1.797  2.2116 -0.2838  0.4629
 9226SOL    HW228649   6.134   4.794   1.649  1.6039 -0.5632  0.3809
 9227SOL     OW28650   1.342   7.248   5.700 -0.3407  0.2298  0.4130
 9227SOL    HW128651   1.265   7.255   5.645 -0.6283  1.2590  0.9239
 9227SOL    HW228652   1.308   7.234   5.788  0.0029  1.6423  0.7940
 9228SOL     OW28653   3.928   4.789   7.127 -0.1442  0.6142  0.7062
 9228SOL    HW128654   3.860   4.756   7.070 -1.9279  2.2645  1.7592
 9228SOL    HW228655   3.973   4.711   7.160  2.1112 -0.4172 -4.0478
 9229SOL     OW28656   1.441   1.855   6.652  0.4156 -0.2643  0.4725
 9229SOL    HW128657   1.482   1.920   6.709 -0.2148  1.0021 -0.4528
 9229SOL    HW228658   1.508   1.834   6.587  0.4664 -0.1923  0.5019
 9230SOL     OW28659   4.931   6.000   1.096 -0.4428  0.0161  0.4351
 9230SOL    HW128660   4.918   5.968   1.007 -1.0077 -0.0754  0.5515
 9230SOL    HW228661   4.993   6.072   1.086 -0.8709  0.3193 -0.0949
 9231SOL     OW28662   0.303   5.714   1.658  0.1279 -0.1188  0.2241
 9231SOL    HW128663   0.232   5.708   1.721 -0.0219 -0.3450  0.0326
 9231SOL    HW228664   0.279   5.788   1.601  0.3176  0.1564  0.4968
 9232SOL     OW28665   0.804   3.831   6.553  0.6496 -0.0307 -0.0336
 9232SOL    HW128666   0.835   3.884   6.480  1.3600 -0.5956 -0.1499
 9232SOL    HW228667   0.873   3.767   6.568  0.5132  0.0614  1.1298
 9233SOL     OW28668   7.076   5.649   2.374  0.3312 -0.1293  0.1216
 9233SOL    HW128669   7.070   5.741   2.400  0.1590  0.0786 -0.6238
 9233SOL    HW228670   7.110   5.651   2.285  2.5020 -0.8964  0.8581
 9234SOL     OW28671   3.032   4.802   6.211  0.0839 -0.3183 -0.4768
 9234SOL    HW128672   3.061   4.828   6.298 -0.0552  3.0995 -1.3186
 9234SOL    HW228673   2.990   4.717   6.224  1.0704 -0.4401  2.5661
 9235SOL     OW28674   2.522   5.863   1.958 -0.1539  0.1414  0.3069
 9235SOL    HW128675   2.540   5.771   1.977 -1.7637 -0.7664 -2.0849
 9235SOL    HW228676   2.590   5.911   2.006  1.7878 -2.3680  0.2840
 9236SOL     OW28677   5.555   3.403   0.747 -0.3355 -0.4188 -0.2906
 9236SOL    HW128678   5.495   3.461   0.702  0.1818  0.5049  0.1739
 9236SOL    HW228679   5.499   3.348   0.802 -0.8558 -0.6123 -0.9989
 9237SOL     OW28680   3.572   0.713   2.785  0.0283  0.2748  0.6279
 9237SOL    HW128681   3.592   0.671   2.701  0.1442  0.2257  0.6805
 9237SOL    HW228682   3.656   0.716   2.831  0.5533  2.7442 -0.3313
 9238SOL     OW28683   0.786   6.321   0.964  0.5141  0.6413  0.6514
 9238SOL    HW128684   0.819   6.407   0.938  0.0802  0.7326  0.3983
 9238SOL    HW228685   0.717   6.340   1.028 -1.0006  0.5964 -0.8815
 9239SOL     OW28686   0.509   0.325   7.327  0.3715  0.4239 -0.2388
 9239SOL    HW128687   0.579   0.260   7.321  0.8994  1.0247 -0.6649
 9239SOL    HW228688   0.547   0.397   7.377  0.5954  1.4095 -1.7378
 9240SOL     OW28689   4.185   5.935   1.379  0.2445 -0.1163  0.0520
 9240SOL    HW128690   4.148   5.908   1.295  0.3900 -0.2781  0.0408
 9240SOL    HW228691   4.279   5.935   1.366  0.2872 -0.5734  0.3446
 9241SOL     OW28692   3.362   2.803   3.784 -0.4584  0.1377  0.6594
 9241SOL    HW128693   3.415   2.883   3.787 -1.1437  0.5878  0.8736
 9241SOL    HW228694   3.321   2.806   3.697 -0.3275 -0.0889  0.5890
 9242SOL     OW28695   1.801   1.037   6.390 -0.6425 -0.1398 -0.7836
 9242SOL    HW128696   1.769   1.119   6.352 -0.7036 -1.0926 -2.9875
 9242SOL    HW228697   1.887   1.025   6.350  0.3826 -0.0468  1.3042
 9243SOL     OW28698   4.104   1.868   4.264  0.0460 -0.3302 -0.1871
 9243SOL    HW128699   4.131   1.809   4.194  0.6377 -1.5936  1.0420
 9243SOL    HW228700   4.167   1.851   4.334  0.5547  2.1614  0.0410
 9244SOL     OW28701   4.310   6.533   4.911 -0.2737  0.3027  0.0573
 9244SOL    HW128702   4.215   6.521   4.907 -0.0931 -1.4040 -0.1641
 9244SOL    HW228703   4.343   6.490   4.832  0.6452  1.6223 -0.3127
 9245SOL     OW28704   4.574   0.954   2.685 -0.2734 -0.1272  0.1818
 9245SOL    HW128705   4.664   0.941   2.655 -0.3483 -0.8568  0.2547
 9245SOL    HW228706   4.520   0.942   2.607 -0.4294 -1.4858  0.4821
 9246SOL     OW28707   5.583   5.614   2.155 -0.1625 -0.1274 -0.1046
 9246SOL    HW128708   5.561   5.557   2.228 -1.1982 -1.9370 -1.7061
 9246SOL    HW228709   5.498   5.637   2.116  0.3271  1.3472 -0.3636
 9247SOL     OW28710   3.770   5.008   5.872  0.0872 -0.2427  0.0744
 9247SOL    HW128711   3.739   4.950   5.803 -0.0918  0.0014 -0.0552
 9247SOL    HW228712   3.864   4.993   5.877 -0.0819 -1.2474  0.6996
 9248SOL     OW28713   2.155   0.030   1.450  0.1080  0.0751  0.3331
 9248SOL    HW128714   2.102   0.069   1.519  0.0316 -0.2228  0.4438
 9248SOL    HW228715   2.127   0.075   1.370  2.4175  2.7279  0.8682
 9249SOL     OW28716   2.088   3.506   0.999  0.8795  0.5323 -0.0140
 9249SOL    HW128717   2.132   3.516   0.915  1.0620  2.8824  0.2726
 9249SOL    HW228718   2.144   3.448   1.050  1.3505  0.0045 -1.1088
 9250SOL     OW28719   5.341   2.292   1.287  0.1824  0.1831  0.2012
 9250SOL    HW128720   5.308   2.256   1.205 -1.8882  2.6804 -0.2106
 9250SOL    HW228721   5.410   2.353   1.261 -0.0796  0.5456  0.3385
 9251SOL     OW28722   1.131   0.840   2.783  0.4510 -0.2740 -1.3259
 9251SOL    HW128723   1.131   0.744   2.781 -1.2017 -0.3286 -0.2558
 9251SOL    HW228724   1.159   0.862   2.872  2.3717  0.3164 -2.0230
 9252SOL     OW28725   2.623   3.841   4.094 -0.1815 -0.4327  0.1949
 9252SOL    HW128726   2.645   3.898   4.021 -2.0493  0.3738  0.2169
 9252SOL    HW228727   2.595   3.759   4.053 -2.0544  0.3035 -0.0938
 9253SOL     OW28728   2.157   3.934   2.669  0.0757  0.4901  0.0186
 9253SOL    HW128729   2.185   3.960   2.581 -0.8962  0.3409 -0.3472
 9253SOL    HW228730   2.103   3.857   2.655  0.7956 -0.1831  0.8625
 9254SOL     OW28731   6.690   2.358   1.231 -0.0747  0.1756  0.4523
 9254SOL    HW128732   6.646   2.322   1.154 -2.4412  0.8362  1.4280
 9254SOL    HW228733   6.703   2.284   1.289 -0.1684  0.0196  0.2739
 9255SOL     OW28734   3.080   6.765   2.966  0.1943 -0.0418  1.1086
 9255SOL    HW128735   3.042   6.759   3.054  0.8687 -2.3463  1.3168
 9255SOL    HW228736   3.171   6.734   2.978 -0.1244 -1.8692 -0.5920
 9256SOL     OW28737   3.450   7.057   3.400 -0.2284  0.1664  0.2580
 9256SOL    HW128738   3.488   7.106   3.327 -0.8878 -0.5422 -0.5817
 9256SOL    HW228739   3.515   6.990   3.420 -0.1717  0.1792  0.1199
 9257SOL     OW28740   6.959   1.467   0.009  0.4276 -0.3436  0.6619
 9257SOL    HW128741   7.048   1.454  -0.023  0.2311 -0.2548  0.0685
 9257SOL    HW228742   6.919   1.380   0.004 -0.0018 -0.0882 -0.5793
 9258SOL     OW28743   0.797   6.997   4.566  0.4113 -0.5107  0.5305
 9258SOL    HW128744   0.756   6.911   4.567  0.0999 -0.4101 -0.8112
 9258SOL    HW228745   0.752   7.044   4.495  1.6575  0.1907  0.1656
 9259SOL     OW28746   6.850   0.320   7.366 -0.7933  0.3068  0.1944
 9259SOL    HW128747   6.904   0.395   7.341 -2.4057  1.7353  0.8109
 9259SOL    HW228748   6.902   0.244   7.340  1.6769  1.5627  1.0917
 9260SOL     OW28749   0.119   3.037   2.261 -0.1241 -0.0138 -0.0017
 9260SOL    HW128750   0.183   3.012   2.194 -1.6120 -3.1356 -0.4105
 9260SOL    HW228751   0.038   3.054   2.211  0.1102  3.5247  0.5361
 9261SOL     OW28752   4.581   6.107   2.497 -0.7185  0.3773 -0.1644
 9261SOL    HW128753   4.639   6.061   2.557 -0.1648  0.9896 -0.2229
 9261SOL    HW228754   4.541   6.176   2.549  0.4933  1.5257 -0.7012
 9262SOL     OW28755   4.913   2.173   6.714 -0.6562  0.7568  0.3075
 9262SOL    HW128756   4.935   2.253   6.761  0.2875  0.3289  0.6114
 9262SOL    HW228757   4.953   2.103   6.765 -0.0599  0.2387 -0.8484
 9263SOL     OW28758   2.300   2.687   4.546 -0.0446 -0.3335  0.3578
 9263SOL    HW128759   2.297   2.623   4.618  0.7529 -0.7544  0.0215
 9263SOL    HW228760   2.281   2.636   4.468  2.8582 -0.6731 -0.2356
 9264SOL     OW28761   1.866   3.169   5.795 -0.1044 -0.3921  0.0519
 9264SOL    HW128762   1.781   3.208   5.771  0.4857  0.1148 -1.3205
 9264SOL    HW228763   1.865   3.082   5.755  0.1260 -0.2771 -0.2089
 9265SOL     OW28764   7.359   2.768   4.115 -0.0946 -0.2384  0.2980
 9265SOL    HW128765   7.429   2.749   4.052  1.0811  0.7985  1.2230
 9265SOL    HW228766   7.322   2.683   4.137 -0.4361 -0.6413 -1.6472
 9266SOL     OW28767   4.232   0.989   6.011  0.3637 -0.0095 -0.5089
 9266SOL    HW128768   4.196   1.039   5.938  1.4913 -1.2986 -2.0332
 9266SOL    HW228769   4.206   1.037   6.089 -1.6493  0.9491 -1.7048
 9267SOL     OW28770   4.892   1.823   0.216 -0.1080 -0.1226  0.9328
 9267SOL    HW128771   4.866   1.781   0.298 -1.7091 -1.0322  0.0103
 9267SOL    HW228772   4.815   1.874   0.190 -0.9635 -2.4464 -1.6048
 9268SOL     OW28773   6.833   2.253   3.850 -0.2348  0.0678  0.2209
 9268SOL    HW128774   6.898   2.217   3.790  0.1211 -0.5956  0.9885
 9268SOL    HW228775   6.871   2.336   3.880 -0.7324  0.7543 -0.9985
 9269SOL     OW28776   0.449   5.340   0.253  0.7752 -0.7655  0.3924
 9269SOL    HW128777   0.415   5.326   0.165 -2.9240  1.9776  1.1501
 9269SOL    HW228778   0.520   5.404   0.242 -1.7886  2.1518 -0.5325
 9270SOL     OW28779   1.233   7.076   1.927  0.0926  0.2362  0.0018
 9270SOL    HW128780   1.221   7.001   1.985  1.5505  0.3163  0.4451
 9270SOL    HW228781   1.146   7.091   1.888 -0.3058 -1.4375  0.1807
 9271SOL     OW28782   6.513   1.385   6.074 -0.3693 -0.3998  0.2199
 9271SOL    HW128783   6.492   1.299   6.040  1.8824 -0.1928 -2.0142
 9271SOL    HW228784   6.593   1.372   6.125  0.1997  0.3948 -0.4418
 9272SOL     OW28785   3.429   1.574   1.584  0.3853 -0.1692 -0.4449
 9272SOL    HW128786   3.355   1.627   1.553  0.1963  1.5106  2.4844
 9272SOL    HW228787   3.409   1.556   1.676  2.6723 -1.4602 -0.1149
 9273SOL     OW28788   7.170   7.303   3.126  0.5667  0.0543  0.2421
 9273SOL    HW128789   7.105   7.337   3.187 -0.6481 -0.8269 -0.5059
 9273SOL    HW228790   7.190   7.376   3.068 -0.8941 -0.0429 -0.4285
 9274SOL     OW28791   1.301   3.077   6.498  0.2649  0.1223 -0.0651
 9274SOL    HW128792   1.317   3.076   6.403  1.1427  0.9176  0.0602
 9274SOL    HW228793   1.362   3.142   6.532 -0.4151  0.2380  0.9886
 9275SOL     OW28794   3.644   4.654   3.060  0.0875  0.0976  0.1336
 9275SOL    HW128795   3.661   4.734   3.009 -0.3646  0.6550  0.8436
 9275SOL    HW228796   3.550   4.639   3.049  0.4456 -1.3324 -1.4017
 9276SOL     OW28797   6.558   4.792   2.984 -0.1616 -0.6461  0.0517
 9276SOL    HW128798   6.480   4.739   2.967 -0.6373 -0.1285  0.5719
 9276SOL    HW228799   6.524   4.877   3.013  0.5697  0.2077 -1.4740
 9277SOL     OW28800   6.618   0.913   4.946  0.7291  0.2777 -0.1182
 9277SOL    HW128801   6.581   0.834   4.986 -0.1948  0.0333 -1.3919
 9277SOL    HW228802   6.597   0.983   5.007  1.0414 -0.3675  0.7487
 9278SOL     OW28803   7.092   6.349   3.215  0.1945  0.2506  0.2251
 9278SOL    HW128804   6.999   6.326   3.217  0.2505 -0.3059 -1.7641
 9278SOL    HW228805   7.099   6.425   3.272 -1.0576 -1.0310  2.2387
 9279SOL     OW28806   3.845   2.622   3.303  0.0107  0.2117  0.4530
 9279SOL    HW128807   3.905   2.680   3.350  0.6692  0.3260 -0.4794
 9279SOL    HW228808   3.889   2.538   3.300  0.2030  0.3258 -0.3398
 9280SOL     OW28809   5.180   2.971   6.754  0.0771 -0.0342  0.5155
 9280SOL    HW128810   5.272   2.978   6.778 -0.5743  0.5806  3.1641
 9280SOL    HW228811   5.149   3.061   6.748 -0.3295 -0.2291 -0.5755
 9281SOL     OW28812   3.609   5.987   6.981 -0.8133 -0.7304  0.1560
 9281SOL    HW128813   3.685   5.955   7.031 -0.1761  2.2332  1.3004
 9281SOL    HW228814   3.629   6.079   6.964 -3.9261  0.0251  0.0414
 9282SOL     OW28815   4.227   0.944   3.368  0.5364  0.3839  0.2816
 9282SOL    HW128816   4.189   0.999   3.436  1.7585  1.4386  0.1539
 9282SOL    HW228817   4.230   1.000   3.290 -0.3038 -0.6158 -0.4882
 9283SOL     OW28818   3.143   0.136   1.734 -0.5764 -0.7753 -0.2142
 9283SOL    HW128819   3.122   0.179   1.817  0.5416 -1.8703  0.6657
 9283SOL    HW228820   3.103   0.049   1.741  0.1290 -1.1336 -0.5075
 9284SOL     OW28821   1.121   7.333   0.555  0.6045  0.3941 -0.1345
 9284SOL    HW128822   1.050   7.396   0.566  0.3673  0.1980 -0.5332
 9284SOL    HW228823   1.180   7.350   0.629  0.9459  1.6098 -0.6753
 9285SOL     OW28824   1.443   2.516   3.734  0.0090  0.3538 -0.3946
 9285SOL    HW128825   1.374   2.450   3.741 -0.2180  0.1912 -3.1943
 9285SOL    HW228826   1.397   2.600   3.739 -0.1510  0.2660 -0.3871
 9286SOL     OW28827   7.326   4.540   1.582  0.4282 -0.0289 -0.0456
 9286SOL    HW128828   7.354   4.499   1.501 -0.1310 -0.4152 -0.0457
 9286SOL    HW228829   7.382   4.618   1.590  0.8229 -0.2574 -0.5387
 9287SOL     OW28830   0.178   5.853   4.837  0.1920  0.0351  0.6988
 9287SOL    HW128831   0.236   5.796   4.888  1.2907  0.1449 -0.3886
 9287SOL    HW228832   0.217   5.856   4.750 -1.5613 -0.0155 -0.1320
 9288SOL     OW28833   3.556   1.426   5.278 -0.2959 -0.1596 -0.4318
 9288SOL    HW128834   3.494   1.357   5.301 -0.0916 -0.2200 -0.0518
 9288SOL    HW228835   3.584   1.404   5.189  0.0260 -0.7666 -0.1927
 9289SOL     OW28836   5.142   3.011   3.152  0.2470  0.3143 -0.1741
 9289SOL    HW128837   5.107   3.048   3.071  0.4620  1.9856  0.4553
 9289SOL    HW228838   5.085   2.936   3.170  0.2051 -0.1146 -1.8494
 9290SOL     OW28839   5.703   3.413   5.100  0.3674  0.1007  0.5376
 9290SOL    HW128840   5.609   3.432   5.095  0.2153 -0.4294  1.2891
 9290SOL    HW228841   5.745   3.489   5.060 -0.4137 -0.0562 -0.6412
 9291SOL     OW28842   1.954   1.958   1.648  0.7240  0.4467  0.2482
 9291SOL    HW128843   2.049   1.947   1.660  1.0027  2.5213  0.3196
 9291SOL    HW228844   1.941   2.052   1.645 -1.5282  0.2459  1.4785
 9292SOL     OW28845   1.516   2.748   5.958 -0.0021 -0.0181 -0.6316
 9292SOL    HW128846   1.457   2.822   5.966  0.8361  0.7127 -1.0619
 9292SOL    HW228847   1.512   2.724   5.865  0.2774 -0.0471 -0.6362
 9293SOL     OW28848   5.039   1.375   0.961 -0.3641 -0.6145 -0.3067
 9293SOL    HW128849   5.011   1.323   0.886  0.6650 -0.3253 -0.9032
 9293SOL    HW228850   5.127   1.406   0.938 -0.8794  1.2629  0.0820
 9294SOL     OW28851   1.883   1.382   5.697 -0.2799 -0.0344 -0.3668
 9294SOL    HW128852   1.922   1.434   5.767 -0.2660 -0.4581 -0.0538
 9294SOL    HW228853   1.789   1.401   5.702 -0.2031  0.4193 -0.6430
 9295SOL     OW28854   0.427   1.849   1.191  0.1298  0.0559  0.1496
 9295SOL    HW128855   0.340   1.812   1.176 -0.4129  1.8639 -1.5298
 9295SOL    HW228856   0.484   1.800   1.131 -0.2653  0.7411 -0.8023
 9296SOL     OW28857   1.774   2.857   6.395 -0.0822 -0.6003  0.5289
 9296SOL    HW128858   1.728   2.941   6.391  0.9781 -0.0395 -0.5127
 9296SOL    HW228859   1.782   2.830   6.304  1.7735 -0.5924  0.6593
 9297SOL     OW28860   3.094   3.084   1.929 -0.8642 -0.8275  0.0107
 9297SOL    HW128861   3.037   3.156   1.903  0.6603 -0.1392 -1.6196
 9297SOL    HW228862   3.034   3.014   1.954 -2.3973  0.3686 -0.1357
 9298SOL     OW28863   6.748   6.265   0.754 -0.3066  0.1013  0.1425
 9298SOL    HW128864   6.742   6.357   0.779  0.8303  0.5428 -1.0462
 9298SOL    HW228865   6.684   6.220   0.809 -1.7970  1.7739 -0.1332
 9299SOL     OW28866   2.080   5.872   2.659 -0.2967  0.3516  0.3458
 9299SOL    HW128867   2.109   5.959   2.629 -1.2384  0.3980 -0.4979
 9299SOL    HW228868   2.079   5.819   2.579 -0.5317 -0.1967  0.7124
 9300SOL     OW28869   1.733   6.665   4.159  0.3520  1.2602 -0.1521
 9300SOL    HW128870   1.795   6.603   4.119  0.6576  2.2273 -1.2052
 9300SOL    HW228871   1.748   6.747   4.114 -1.0402  1.7689  0.2589
 9301SOL     OW28872   5.787   1.858   1.966  0.1453 -0.4956 -0.0439
 9301SOL    HW128873   5.836   1.878   2.046 -0.8140  0.8020  0.2520
 9301SOL    HW228874   5.703   1.825   1.998  0.6289 -2.2920 -0.5456
 9302SOL     OW28875   0.784   7.213   4.390  0.0426 -0.0184 -0.6311
 9302SOL    HW128876   0.802   7.245   4.302 -0.0366  1.3366 -0.1814
 9302SOL    HW228877   0.689   7.218   4.398 -0.2622 -2.8602 -1.4255
 9303SOL     OW28878   4.180   5.453   3.296  0.6320  0.3470  0.0806
 9303SOL    HW128879   4.235   5.520   3.337  0.4919 -0.4801  1.6634
 9303SOL    HW228880   4.151   5.398   3.368 -0.7122 -0.3787 -0.9744
 9304SOL     OW28881   6.538   0.902   6.314  0.4198  0.2349  0.4431
 9304SOL    HW128882   6.593   0.980   6.315  1.5732 -0.5283 -0.0640
 9304SOL    HW228883   6.600   0.830   6.300 -0.6562 -0.7250  0.4635
 9305SOL     OW28884   2.244   0.242   2.719  0.4379  0.7078 -0.0436
 9305SOL    HW128885   2.262   0.173   2.655 -0.7725  0.1914  0.1482
 9305SOL    HW228886   2.180   0.299   2.677  0.3063  0.8703  0.3729
 9306SOL     OW28887   4.864   7.175   4.472 -0.4392  0.6828 -0.2130
 9306SOL    HW128888   4.838   7.267   4.471  0.8902  1.0995 -2.4254
 9306SOL    HW228889   4.783   7.127   4.454 -1.0839  1.4032  0.6425
 9307SOL     OW28890   5.447   0.220   3.682 -0.3769  0.5633 -0.4981
 9307SOL    HW128891   5.527   0.264   3.653 -2.0457  3.4338 -1.1071
 9307SOL    HW228892   5.382   0.240   3.615 -1.9345 -0.6524  0.5680
 9308SOL     OW28893   5.297   6.032   2.200 -0.2319  0.4631 -0.2969
 9308SOL    HW128894   5.275   5.949   2.241 -0.8430  1.2332  1.0137
 9308SOL    HW228895   5.360   6.010   2.132 -1.3677 -1.2137 -0.8416
 9309SOL     OW28896   1.041   6.624   4.843 -0.1241 -0.5527  0.1831
 9309SOL    HW128897   1.127   6.653   4.812  0.1085  0.1855  1.4502
 9309SOL    HW228898   1.060   6.565   4.916 -0.6607  0.9126  1.5832
 9310SOL     OW28899   6.387   2.810   2.914  0.4641 -0.0268  0.1370
 9310SOL    HW128900   6.313   2.761   2.877 -0.3588  0.5731  0.9231
 9310SOL    HW228901   6.446   2.743   2.947 -0.2867 -0.5165  0.5224
 9311SOL     OW28902   5.987   1.188   1.489 -0.4552 -0.1928  0.1425
 9311SOL    HW128903   5.995   1.173   1.394  2.2099 -0.2907  0.3038
 9311SOL    HW228904   5.923   1.123   1.518 -0.4896 -0.9221 -1.4495
 9312SOL     OW28905   3.735   6.384   0.919 -0.4196  0.0031 -0.7577
 9312SOL    HW128906   3.703   6.306   0.965 -1.3954  0.5628 -0.4506
 9312SOL    HW228907   3.727   6.362   0.826  0.1885 -0.5972 -0.6783
 9313SOL     OW28908   3.228   5.115   0.830  0.0479  0.4915 -0.4118
 9313SOL    HW128909   3.273   5.033   0.850  0.4827  0.8826  0.2269
 9313SOL    HW228910   3.142   5.087   0.798  0.5467 -0.2393 -1.1441
 9314SOL     OW28911   2.301   2.193   4.345  0.3906  0.5414  0.4006
 9314SOL    HW128912   2.297   2.212   4.251  2.2421 -0.4606  0.0599
 9314SOL    HW228913   2.390   2.218   4.370  0.1219  0.2063  1.7602
 9315SOL     OW28914   3.012   2.690   3.905  0.3528  0.2435 -0.3960
 9315SOL    HW128915   3.081   2.632   3.936  1.0683  0.7406 -1.0499
 9315SOL    HW228916   2.984   2.738   3.983  0.7878  0.0865 -0.1429
 9316SOL     OW28917   0.877   1.758   7.144  0.3586  0.4833  0.4912
 9316SOL    HW128918   0.900   1.683   7.199  1.0556  0.1500 -0.2282
 9316SOL    HW228919   0.955   1.774   7.091 -1.3504 -1.5994 -3.0670
 9317SOL     OW28920   2.905   3.852   3.506  0.3104  0.1370 -0.5339
 9317SOL    HW128921   2.812   3.854   3.483  0.0372 -0.0905  0.5205
 9317SOL    HW228922   2.932   3.761   3.488  0.2156  0.0814 -0.3921
 9318SOL     OW28923   1.260   7.034   7.085  0.4039 -0.1747  0.1169
 9318SOL    HW128924   1.202   7.033   7.009 -0.6382 -0.9884  0.8831
 9318SOL    HW228925   1.346   7.009   7.051  0.2897  0.8967 -1.0199
 9319SOL     OW28926   0.637   0.132   6.804 -0.4642 -0.1791 -0.4454
 9319SOL    HW128927   0.679   0.113   6.888 -0.6718 -0.6357 -0.4456
 9319SOL    HW228928   0.586   0.054   6.784  1.0332 -0.8498 -1.8975
 9320SOL     OW28929   5.752   5.314   1.147  0.2597 -0.0934  0.3457
 9320SOL    HW128930   5.781   5.325   1.057 -0.9192  1.8267  0.1451
 9320SOL    HW228931   5.715   5.225   1.149  0.7133 -0.3303 -0.9325
 9321SOL     OW28932   6.109   4.006   1.838  0.0622 -0.0299 -0.0643
 9321SOL    HW128933   6.129   3.933   1.897  0.1979  0.3982  0.4258
 9321SOL    HW228934   6.049   4.061   1.888  0.0402  0.2488 -0.3943
 9322SOL     OW28935   6.558   5.550   6.795  0.2467  0.0346 -0.8198
 9322SOL    HW128936   6.650   5.540   6.819  0.2534  0.3203 -0.7258
 9322SOL    HW228937   6.543   5.481   6.730  1.5571  2.3333 -3.8241
 9323SOL     OW28938   5.650   2.649   0.608  0.5648  0.4895 -0.2784
 9323SOL    HW128939   5.567   2.696   0.613  0.5970  0.5564 -0.3771
 9323SOL    HW228940   5.625   2.560   0.584  0.5448  0.5882 -0.6335
 9324SOL     OW28941   6.273   1.939   6.660  0.3716 -0.3132  0.5250
 9324SOL    HW128942   6.201   1.963   6.718 -0.9079  1.6562 -1.7134
 9324SOL    HW228943   6.347   1.991   6.691  0.4169 -1.1395  1.8601
 9325SOL     OW28944   5.759   6.589   2.363 -0.0583  0.9707 -0.0919
 9325SOL    HW128945   5.732   6.509   2.318 -0.0256  1.7688 -1.5938
 9325SOL    HW228946   5.834   6.621   2.312 -0.4001  2.2207  0.1611
 9326SOL     OW28947   3.897   3.687   0.403 -0.2530  0.5054 -0.7289
 9326SOL    HW128948   3.910   3.697   0.497 -0.4805  3.2940 -0.9250
 9326SOL    HW228949   3.831   3.618   0.395  0.5660 -0.5762  1.0468
 9327SOL     OW28950   3.417   0.974   1.167  0.6680  0.6329  0.1937
 9327SOL    HW128951   3.490   0.931   1.213  0.9651  0.4917 -0.4019
 9327SOL    HW228952   3.347   0.908   1.166  1.7842 -0.6682 -2.4778
 9328SOL     OW28953   3.848   3.216   0.052  0.3733 -0.4577  0.2065
 9328SOL    HW128954   3.813   3.127   0.052 -1.0461 -0.0028 -2.5987
 9328SOL    HW228955   3.934   3.208   0.093 -0.0792 -2.9549  0.8107
 9329SOL     OW28956   4.325   5.238   6.698 -0.5400 -0.2765 -0.1604
 9329SOL    HW128957   4.301   5.168   6.759 -1.5322  0.1474 -0.0523
 9329SOL    HW228958   4.243   5.262   6.655  0.1216 -0.4871 -1.5995
 9330SOL     OW28959   6.059   0.232   4.650  0.4159  0.4197 -0.1839
 9330SOL    HW128960   6.085   0.141   4.662 -1.4356 -0.1875 -0.5785
 9330SOL    HW228961   6.069   0.272   4.736 -0.3297 -0.5738  0.3678
 9331SOL     OW28962   0.363   0.508   0.159  0.2994  0.1458 -0.5956
 9331SOL    HW128963   0.451   0.534   0.132  0.4173  0.0232 -0.3401
 9331SOL    HW228964   0.347   0.555   0.241  1.4888 -2.3420  1.2040
 9332SOL     OW28965   3.116   4.773   0.769 -0.0639  0.0247 -0.1206
 9332SOL    HW128966   3.139   4.736   0.684  1.6504  3.5142 -1.3607
 9332SOL    HW228967   3.195   4.762   0.822 -0.4910 -0.4622  0.4375
 9333SOL     OW28968   1.344   4.170   0.290 -0.7435 -0.0524  0.0005
 9333SOL    HW128969   1.356   4.183   0.384  1.0566 -0.3291 -0.1545
 9333SOL    HW228970   1.256   4.133   0.282 -0.9075 -0.0716  1.5791
 9334SOL     OW28971   1.165   3.249   0.939 -1.2707 -0.2028  0.4348
 9334SOL    HW128972   1.105   3.232   1.012 -0.1112 -0.8467  1.2762
 9334SOL    HW228973   1.130   3.197   0.867 -0.8957 -1.8132  1.3674
 9335SOL     OW28974   0.191   0.536   1.863  0.1022  0.2754 -0.1328
 9335SOL    HW128975   0.158   0.520   1.774 -1.1717  1.3909  0.1121
 9335SOL    HW228976   0.177   0.629   1.877  2.1142  0.5359  0.5392
 9336SOL     OW28977   5.462   0.262   6.028  0.2073 -0.3748  0.0596
 9336SOL    HW128978   5.526   0.216   5.972  2.2582  1.8599  0.4195
 9336SOL    HW228979   5.488   0.239   6.117 -0.1783 -0.2862  0.1943
 9337SOL     OW28980   2.196   5.677   3.095  0.0033 -0.3842  0.3100
 9337SOL    HW128981   2.244   5.752   3.060  1.7272 -0.3909  2.4704
 9337SOL    HW228982   2.254   5.602   3.081  0.4307 -0.4988  2.4131
 9338SOL     OW28983   4.169   0.728   1.777  0.4465  0.4961 -0.8387
 9338SOL    HW128984   4.098   0.739   1.713 -0.1313  1.7268 -0.0368
 9338SOL    HW228985   4.148   0.647   1.823 -2.7466  2.6834  2.0516
 9339SOL     OW28986   2.669   0.291   1.092 -0.2375  0.1248  0.0588
 9339SOL    HW128987   2.609   0.261   1.024 -0.8790 -0.6038  0.9186
 9339SOL    HW228988   2.682   0.215   1.148  0.0100  0.7929  0.9385
 9340SOL     OW28989   4.247   4.122   4.883 -0.2096 -0.3478 -0.0114
 9340SOL    HW128990   4.336   4.151   4.866  0.0418 -0.0781  1.6723
 9340SOL    HW228991   4.242   4.109   4.977 -2.0606  0.0334 -0.0017
 9341SOL     OW28992   5.863   4.777   2.880 -0.0796  0.6900 -0.7787
 9341SOL    HW128993   5.795   4.718   2.849 -0.1550  0.2718  0.1300
 9341SOL    HW228994   5.936   4.719   2.904 -0.1917  0.9381  0.2126
 9342SOL     OW28995   1.497   4.975   4.922  0.5836  0.1656 -0.3374
 9342SOL    HW128996   1.545   4.931   4.851  1.4277 -0.9040  0.8656
 9342SOL    HW228997   1.565   5.001   4.984 -0.1316  1.2814  0.0004
 9343SOL     OW28998   6.631   3.887   0.820 -0.1418 -0.1893 -0.2294
 9343SOL    HW128999   6.704   3.939   0.854  1.6822 -1.6986 -1.6432
 9343SOL    HW229000   6.617   3.919   0.732  0.5844 -1.5695 -0.8905
 9344SOL     OW29001   2.883   2.156   6.549 -0.0660  0.1420 -0.0693
 9344SOL    HW129002   2.946   2.228   6.545  1.2674 -0.7421  2.6335
 9344SOL    HW229003   2.936   2.079   6.568 -1.6968 -1.1984 -0.6966
 9345SOL     OW29004   0.454   3.617   6.661  0.1089  0.2923 -0.4020
 9345SOL    HW129005   0.478   3.700   6.620  0.2528  0.1952 -0.5139
 9345SOL    HW229006   0.508   3.551   6.617  0.3044  0.1944 -0.0157
 9346SOL     OW29007   3.217   6.600   6.897 -0.5442 -0.0915 -0.1526
 9346SOL    HW129008   3.280   6.550   6.950  2.3179  0.8439 -2.3791
 9346SOL    HW229009   3.136   6.551   6.903  1.1733 -3.1142  0.5389
 9347SOL     OW29010   6.435   2.635   6.274 -0.2595 -0.0861 -0.1784
 9347SOL    HW129011   6.442   2.631   6.178 -1.7810 -0.8478 -0.2909
 9347SOL    HW229012   6.341   2.625   6.291 -0.0592  0.5392  1.3790
 9348SOL     OW29013   6.411   1.873   3.428  0.2508  0.6037 -0.6867
 9348SOL    HW129014   6.459   1.842   3.351  3.4086 -0.3175  1.4488
 9348SOL    HW229015   6.324   1.835   3.419  1.5650 -2.4182 -2.1340
 9349SOL     OW29016   0.375   0.119   5.652  0.3792  0.3952  0.2600
 9349SOL    HW129017   0.377   0.030   5.617 -1.2033  0.5145 -0.1768
 9349SOL    HW229018   0.378   0.108   5.747  0.6438 -0.0985  0.1959
 9350SOL     OW29019   2.193   5.222   5.912 -0.1270  0.0220 -0.4424
 9350SOL    HW129020   2.122   5.159   5.902 -0.1217 -0.2452  1.0106
 9350SOL    HW229021   2.245   5.189   5.986  1.6022  0.1224 -1.5352
 9351SOL     OW29022   0.439   6.610   0.918  0.6965 -0.2619  0.0254
 9351SOL    HW129023   0.382   6.561   0.858 -0.6511  0.5227  0.6200
 9351SOL    HW229024   0.521   6.621   0.869  0.2562 -1.1641 -0.9677
 9352SOL     OW29025   5.006   1.222   6.575 -0.1849 -0.0738  0.2205
 9352SOL    HW129026   4.931   1.253   6.523  1.0914  2.6646 -0.1902
 9352SOL    HW229027   5.068   1.190   6.510 -1.1618 -3.0800  0.6016
 9353SOL     OW29028   1.981   0.552   5.392  0.3105 -0.1424  0.5494
 9353SOL    HW129029   2.060   0.592   5.427  0.0983  0.6402  0.1494
 9353SOL    HW229030   1.910   0.591   5.444  0.1116 -0.1015  0.2454
 9354SOL     OW29031   6.805   6.545   3.194  0.5486  0.2636  0.3564
 9354SOL    HW129032   6.870   6.597   3.242  0.1019 -0.4588  1.7939
 9354SOL    HW229033   6.728   6.545   3.251  0.4983 -1.8656  0.3579
 9355SOL     OW29034   0.648   6.913   0.149 -0.0937  0.0130 -0.2521
 9355SOL    HW129035   0.735   6.904   0.111  0.4965  0.7547  0.8703
 9355SOL    HW229036   0.591   6.862   0.092  1.0877 -0.5418 -0.9566
 9356SOL     OW29037   1.280   6.798   5.219  0.0819  0.0878  1.2463
 9356SOL    HW129038   1.246   6.877   5.263 -0.1188 -0.0327  1.3094
 9356SOL    HW229039   1.264   6.728   5.282 -3.2366 -0.6969 -0.2394
 9357SOL     OW29040   1.430   4.330   6.026  0.1066 -0.1815  0.4516
 9357SOL    HW129041   1.478   4.264   6.076  1.6552  0.8649  0.4101
 9357SOL    HW229042   1.412   4.399   6.090  1.0164  0.6107 -0.1293
 9358SOL     OW29043   4.818   3.842   2.340 -0.1154  0.3853 -0.0395
 9358SOL    HW129044   4.799   3.749   2.326 -0.0663  0.3841 -0.1002
 9358SOL    HW229045   4.897   3.858   2.289  0.6986  0.1295  1.1107
 9359SOL     OW29046   3.573   5.711   3.014  1.1059  0.1301 -0.7279
 9359SOL    HW129047   3.533   5.634   3.052  1.9707  0.2943  0.5773
 9359SOL    HW229048   3.500   5.760   2.975  0.5644 -1.3551 -1.6657
 9360SOL     OW29049   5.079   2.495   0.963 -0.2550 -0.3393  0.8054
 9360SOL    HW129050   5.066   2.580   0.921  1.3455  0.0830  1.0872
 9360SOL    HW229051   4.993   2.472   0.998 -2.0408 -1.2494 -3.5752
 9361SOL     OW29052   2.103   4.752   1.079  0.1291 -0.0704  0.3831
 9361SOL    HW129053   2.152   4.670   1.074  0.8499  0.3577  0.1647
 9361SOL    HW229054   2.040   4.739   1.149  0.3785 -0.7386  0.4864
 9362SOL     OW29055   3.009   1.272   3.329 -0.1647 -0.0750 -0.0946
 9362SOL    HW129056   2.998   1.187   3.288 -0.2371  0.2350 -0.7240
 9362SOL    HW229057   3.104   1.288   3.329 -0.1359 -0.2340  0.1941
 9363SOL     OW29058   4.275   2.762   3.533  0.0935  0.1357  0.1267
 9363SOL    HW129059   4.303   2.834   3.477  0.7874  0.4519  0.8505
 9363SOL    HW229060   4.311   2.684   3.493 -0.2357  0.2454 -0.3902
 9364SOL     OW29061   4.749   2.494   6.981 -0.2085  0.4562 -0.4062
 9364SOL    HW129062   4.695   2.457   6.911 -0.8299  0.2454  0.1761
 9364SOL    HW229063   4.732   2.588   6.978 -1.9582  0.2268  0.8657
 9365SOL     OW29064   7.294   3.079   3.869  0.5131  0.5097  0.9292
 9365SOL    HW129065   7.277   2.985   3.872 -0.8306  0.6686 -0.5829
 9365SOL    HW229066   7.208   3.119   3.870  0.7042  1.4881 -3.4541
 9366SOL     OW29067   6.758   3.053   3.552 -0.1554  0.0003  0.3900
 9366SOL    HW129068   6.829   3.012   3.502  0.3505  1.0486  0.1986
 9366SOL    HW229069   6.788   3.051   3.643 -0.7643 -1.2850  0.5804
 9367SOL     OW29070   4.622   5.335   3.999 -0.5391 -0.6231 -0.5459
 9367SOL    HW129071   4.668   5.318   3.917 -0.2750 -0.6277 -0.3974
 9367SOL    HW229072   4.599   5.427   3.995  0.3646 -0.3748 -0.1807
 9368SOL     OW29073   1.658   6.763   2.836  0.7749 -0.3808 -0.1116
 9368SOL    HW129074   1.655   6.685   2.892  1.5224 -1.1109 -1.0767
 9368SOL    HW229075   1.655   6.729   2.747  0.6997  0.7255 -0.5443
 9369SOL     OW29076   3.779   1.836   0.487  0.7787 -0.8168 -0.1197
 9369SOL    HW129077   3.808   1.878   0.568 -0.2076  0.8049 -0.5425
 9369SOL    HW229078   3.739   1.754   0.515  0.8352 -0.4765  1.0066
 9370SOL     OW29079   0.258   3.038   5.340 -0.1272 -0.5117  0.3307
 9370SOL    HW129080   0.333   2.989   5.306  0.2549  0.3898 -0.1783
 9370SOL    HW229081   0.191   2.972   5.356  0.3909 -1.1986 -0.2646
 9371SOL     OW29082   1.630   4.314   0.286 -0.8329 -0.4780  0.7659
 9371SOL    HW129083   1.697   4.247   0.269 -1.0499 -0.7039  0.7937
 9371SOL    HW229084   1.547   4.268   0.272 -0.9715  0.0202 -0.0819
 9372SOL     OW29085   0.953   4.118   6.645  0.1332  0.0187  0.2200
 9372SOL    HW129086   0.898   4.142   6.720 -0.6966 -0.8126 -0.1000
 9372SOL    HW229087   1.023   4.065   6.683  0.3282  0.4984  0.5424
 9373SOL     OW29088   0.649   0.520   1.639  0.1224  0.4040 -0.1015
 9373SOL    HW129089   0.577   0.539   1.700 -0.7845 -0.3384 -0.9035
 9373SOL    HW229090   0.721   0.574   1.669  0.2340 -1.0926  2.6141
 9374SOL     OW29091   2.277   5.962   3.597  0.2226  0.1235 -0.3591
 9374SOL    HW129092   2.373   5.969   3.592  0.4955 -1.5214  1.5390
 9374SOL    HW229093   2.248   6.053   3.609  1.6626  0.5175  0.5019
 9375SOL     OW29094   5.570   3.983   1.626  0.2763 -0.3774 -0.2787
 9375SOL    HW129095   5.483   3.972   1.663  0.1314 -1.6096 -0.9439
 9375SOL    HW229096   5.570   4.071   1.589 -0.5072 -0.1780  0.1751
 9376SOL     OW29097   4.479   1.226   6.201  0.1010  0.1104  0.4392
 9376SOL    HW129098   4.406   1.272   6.243 -0.3833 -0.1485 -0.1101
 9376SOL    HW229099   4.454   1.219   6.109 -0.3385 -2.1737  0.6708
 9377SOL     OW29100   2.924   2.839   3.423  0.1022 -0.1085 -0.2604
 9377SOL    HW129101   2.914   2.869   3.333 -1.1538 -0.9322 -0.4253
 9377SOL    HW229102   2.888   2.910   3.476 -0.3189 -0.1503 -0.4877
 9378SOL     OW29103   0.009   2.199   1.926  0.4142  0.5439 -0.0956
 9378SOL    HW129104   0.067   2.137   1.971  0.1550  1.3591  1.4501
 9378SOL    HW229105  -0.045   2.145   1.869  0.5461 -0.5955  0.8247
 9379SOL     OW29106   1.610   5.082   5.493  0.1030 -0.0105 -0.1828
 9379SOL    HW129107   1.565   4.998   5.507 -0.8574  0.3481 -0.9388
 9379SOL    HW229108   1.599   5.129   5.576 -0.9244  0.0487 -0.3300
 9380SOL     OW29109   1.287   7.112   6.621 -0.1652 -0.1372  0.5934
 9380SOL    HW129110   1.364   7.167   6.607 -0.6264  0.5389  0.6625
 9380SOL    HW229111   1.256   7.092   6.533 -2.1903  2.8704  0.5042
 9381SOL     OW29112   1.005   4.893   3.722  0.2991 -0.8952 -0.3045
 9381SOL    HW129113   0.994   4.969   3.665  1.5540 -1.1413 -0.8918
 9381SOL    HW229114   1.095   4.900   3.755 -0.3516 -0.7980  1.6024
 9382SOL     OW29115   2.778   2.701   1.626 -0.1198 -0.0465  0.1743
 9382SOL    HW129116   2.756   2.779   1.677  0.2920 -0.7615  1.5023
 9382SOL    HW229117   2.694   2.658   1.611 -0.2796  0.3352 -0.0240
 9383SOL     OW29118   4.681   6.984   0.475 -0.1651 -0.0835 -0.3406
 9383SOL    HW129119   4.650   6.896   0.455  2.2043 -1.3949  1.2642
 9383SOL    HW229120   4.758   6.995   0.420  1.8415 -0.6796  2.1259
 9384SOL     OW29121   3.273   1.613   3.862 -0.3415 -0.2179 -0.9957
 9384SOL    HW129122   3.219   1.636   3.938  0.1684 -0.3104 -0.5938
 9384SOL    HW229123   3.350   1.669   3.870  0.0934 -0.8076 -0.9812
 9385SOL     OW29124   5.984   0.610   1.179  0.5761  0.0605 -0.0743
 9385SOL    HW129125   5.958   0.573   1.263 -0.7494  1.6863  0.3093
 9385SOL    HW229126   6.073   0.643   1.193  1.4198 -2.0337 -0.1664
 9386SOL     OW29127   1.261   4.403   2.964  0.3034 -0.5110 -0.5469
 9386SOL    HW129128   1.312   4.470   2.918 -0.9256 -0.4781 -1.9633
 9386SOL    HW229129   1.277   4.323   2.915 -1.2799 -0.4139 -1.2794
 9387SOL     OW29130   7.356   2.791   5.979  0.5280 -0.4786 -0.3142
 9387SOL    HW129131   7.321   2.723   5.922  1.1804 -0.2815 -0.9660
 9387SOL    HW229132   7.326   2.768   6.067 -1.5288 -0.1266 -0.8808
 9388SOL     OW29133   0.921   6.581   0.843  0.6272  0.7054  0.6267
 9388SOL    HW129134   0.947   6.572   0.751 -0.0597 -0.8935  0.5557
 9388SOL    HW229135   0.999   6.559   0.892 -0.1612 -3.2147  0.4085
 9389SOL     OW29136   6.074   0.906   6.254  0.4444 -0.0510  0.1405
 9389SOL    HW129137   6.014   0.978   6.235  1.1924  0.5546 -0.0113
 9389SOL    HW229138   6.157   0.950   6.275  0.9093 -0.8752  0.0574
 9390SOL     OW29139   3.634   3.763   2.799 -0.3144 -0.5632  0.4619
 9390SOL    HW129140   3.649   3.691   2.861  0.0464 -0.4182  0.5465
 9390SOL    HW229141   3.705   3.825   2.817 -1.1755  0.2854  1.0748
 9391SOL     OW29142   5.395   0.131   4.813  0.1347  0.3495  0.2194
 9391SOL    HW129143   5.485   0.114   4.838  0.6646  1.8185 -0.5835
 9391SOL    HW229144   5.400   0.163   4.723 -0.9133  2.6746  0.9010
 9392SOL     OW29145   4.035   0.615   2.526  0.2619 -0.2214  0.3575
 9392SOL    HW129146   3.999   0.582   2.444  2.0415  0.8781 -0.9540
 9392SOL    HW229147   3.978   0.688   2.550  0.7303  0.5818 -0.8971
 9393SOL     OW29148   5.453   4.467   0.315  0.1682 -0.0250 -0.1368
 9393SOL    HW129149   5.361   4.491   0.305 -0.0177 -0.6651  0.0012
 9393SOL    HW229150   5.501   4.548   0.295 -0.3756  0.0336 -1.2630
 9394SOL     OW29151   5.979   5.801   2.991 -0.1718  0.1178 -0.2468
 9394SOL    HW129152   5.958   5.836   2.905  0.3508  2.6431  0.5476
 9394SOL    HW229153   5.896   5.802   3.038 -0.0899  0.7999 -0.0975
 9395SOL     OW29154   2.402   4.909   3.491  0.6370 -0.1994 -0.0898
 9395SOL    HW129155   2.465   4.839   3.505  0.6842 -0.3386 -0.9316
 9395SOL    HW229156   2.404   4.924   3.396  1.5916  1.8438  0.2098
 9396SOL     OW29157   5.594   1.988   4.117 -0.0353 -0.3390  0.2241
 9396SOL    HW129158   5.559   1.999   4.205 -1.3185 -0.7338 -0.2226
 9396SOL    HW229159   5.677   1.941   4.129  0.6793  1.1299  1.3438
 9397SOL     OW29160   2.172   1.478   1.316 -0.3547 -0.0314 -0.2862
 9397SOL    HW129161   2.096   1.530   1.342 -0.6980 -0.9903  0.7094
 9397SOL    HW229162   2.247   1.525   1.353 -0.6552 -0.1809  0.5465
 9398SOL     OW29163   4.686   6.770   5.227  0.5594  0.0152 -0.4212
 9398SOL    HW129164   4.670   6.735   5.315  2.3397 -0.8801 -0.4103
 9398SOL    HW229165   4.676   6.864   5.237 -1.7302 -0.2288  0.1451
 9399SOL     OW29166   2.870   5.178   5.018 -0.1088 -0.4376 -0.6176
 9399SOL    HW129167   2.777   5.154   5.012  0.1747 -1.3005 -1.8621
 9399SOL    HW229168   2.885   5.190   5.112 -1.0831 -1.9981 -0.2127
 9400SOL     OW29169   4.603   3.736   5.732 -0.1951 -0.6914  0.2956
 9400SOL    HW129170   4.676   3.773   5.682 -0.3777  0.2094  0.6754
 9400SOL    HW229171   4.644   3.672   5.790  0.2912 -0.2742  0.4248
 9401SOL     OW29172   2.127   5.167   0.543  0.2148  0.2584 -0.6102
 9401SOL    HW129173   2.190   5.130   0.481 -1.2422 -3.9773  0.1507
 9401SOL    HW229174   2.172   5.163   0.628  1.2250  3.6060 -0.8317
 9402SOL     OW29175   4.269   6.001   3.606  0.2497 -0.2547  0.4387
 9402SOL    HW129176   4.304   5.922   3.647 -0.5360  1.1704  4.3769
 9402SOL    HW229177   4.174   5.993   3.616 -0.0954 -0.2459 -2.2471
 9403SOL     OW29178   0.101   1.720   1.796 -0.3194  0.2080  0.3149
 9403SOL    HW129179   0.053   1.657   1.742 -0.4405  0.0197  0.6423
 9403SOL    HW229180   0.044   1.735   1.871 -1.4004  2.4503 -0.8193
 9404SOL     OW29181   2.434   1.460   7.289  0.0581  0.5904 -0.2128
 9404SOL    HW129182   2.431   1.405   7.211  0.1802 -0.9601  0.8378
 9404SOL    HW229183   2.344   1.489   7.302 -0.1027  0.2199 -0.4971
 9405SOL     OW29184   5.372   7.010   0.557 -0.2264 -1.0046  0.1422
 9405SOL    HW129185   5.286   7.018   0.517 -0.2459 -0.6166  0.2650
 9405SOL    HW229186   5.431   7.054   0.496 -0.3788  0.3775  0.9606
 9406SOL     OW29187   5.313   6.765   2.498 -0.8494 -0.0130  0.3850
 9406SOL    HW129188   5.364   6.694   2.459  0.2301  0.8800  0.1389
 9406SOL    HW229189   5.224   6.750   2.467 -0.3507 -0.3526 -0.9639
 9407SOL     OW29190   1.202   0.146   0.219 -0.3682  0.6436 -0.0909
 9407SOL    HW129191   1.108   0.142   0.202  0.0172 -2.2420 -2.3553
 9407SOL    HW229192   1.235   0.060   0.193  2.7344  1.0117  2.0616
 9408SOL     OW29193   3.748   4.593   6.025  0.3184  0.0290  0.1571
 9408SOL    HW129194   3.803   4.550   5.960  0.6362 -0.7667  0.9330
 9408SOL    HW229195   3.681   4.528   6.047 -1.8881  1.4620 -1.8354
 9409SOL     OW29196   4.202   1.521   6.945  0.5946  0.2000 -0.2430
 9409SOL    HW129197   4.241   1.536   7.031 -1.9072  0.8330  0.8656
 9409SOL    HW229198   4.165   1.432   6.951  1.3071 -0.1609 -1.0522
 9410SOL     OW29199   5.736   5.609   6.469 -0.3677 -0.2305  0.1608
 9410SOL    HW129200   5.772   5.584   6.554  0.7059  1.7432  0.3369
 9410SOL    HW229201   5.722   5.526   6.424 -0.3107 -1.2873  1.9916
 9411SOL     OW29202   5.359   0.938   5.969 -0.6183 -0.1699  0.1082
 9411SOL    HW129203   5.426   0.926   6.036 -0.8445  0.6399  0.5003
 9411SOL    HW229204   5.399   0.997   5.905 -0.5887 -0.5231 -0.2022
 9412SOL     OW29205   0.668   4.833   1.875  0.2528 -0.1178  0.1460
 9412SOL    HW129206   0.754   4.794   1.885  0.0119 -0.5056  0.7817
 9412SOL    HW229207   0.612   4.761   1.846 -0.7815 -1.0366  3.8262
 9413SOL     OW29208   3.906   5.859   7.207 -0.3729 -1.0023 -0.1299
 9413SOL    HW129209   3.985   5.897   7.170 -2.1747  0.7461 -2.5142
 9413SOL    HW229210   3.868   5.929   7.261 -0.2130 -1.9120  1.2188
 9414SOL     OW29211   1.851   0.686   1.594 -0.2229 -0.0810 -0.4192
 9414SOL    HW129212   1.926   0.632   1.617 -1.0402 -1.0880 -0.0273
 9414SOL    HW229213   1.779   0.652   1.647 -0.6784  1.7062  0.1879
 9415SOL     OW29214   2.951   6.782   5.923  0.2151  0.3696  0.2637
 9415SOL    HW129215   3.021   6.754   5.982 -0.6690 -0.8566  0.7661
 9415SOL    HW229216   2.871   6.776   5.975 -0.3398  1.2917 -0.4411
 9416SOL     OW29217   1.480   5.963   0.138  0.1097  0.3840 -0.0281
 9416SOL    HW129218   1.415   5.944   0.205 -0.7997 -0.0353 -0.9856
 9416SOL    HW229219   1.523   5.879   0.122 -0.4021  0.2291 -0.6787
 9417SOL     OW29220   4.367   3.060   6.820  0.0778  0.0542 -0.3181
 9417SOL    HW129221   4.368   3.103   6.905  0.9747  0.8236 -0.7086
 9417SOL    HW229222   4.414   3.119   6.762 -0.5132 -0.4596 -1.3582
 9418SOL     OW29223   2.001   2.339   4.258 -0.5583 -0.2054  0.8747
 9418SOL    HW129224   2.090   2.366   4.277 -0.3147 -0.4660  0.1182
 9418SOL    HW229225   2.003   2.244   4.262 -0.1216 -0.3870 -1.9233
 9419SOL     OW29226   7.071   5.187   4.695  0.8450  0.0455  0.1778
 9419SOL    HW129227   7.137   5.209   4.629 -0.8154 -0.8995 -1.9055
 9419SOL    HW229228   7.071   5.091   4.697 -2.8513 -0.2387 -2.6421
 9420SOL     OW29229   0.508   1.034   1.006 -0.2196 -0.2688  0.6459
 9420SOL    HW129230   0.593   1.063   1.040 -0.1905  0.6322 -0.1634
 9420SOL    HW229231   0.486   1.098   0.938 -0.9636 -1.1958 -0.0087
 9421SOL     OW29232   2.430   2.629   3.235  0.1433  1.0453  0.4875
 9421SOL    HW129233   2.365   2.579   3.186 -1.2308  1.6368  1.6603
 9421SOL    HW229234   2.379   2.684   3.293  1.7170  0.7691  2.2064
 9422SOL     OW29235   0.740   0.435   2.432  0.3959 -0.2688  0.5691
 9422SOL    HW129236   0.645   0.429   2.427  0.1883  1.6374  1.2634
 9422SOL    HW229237   0.763   0.392   2.514 -0.0712  0.7934  1.2758
 9423SOL     OW29238   7.011   7.148   6.073  0.0381 -0.4311  0.9436
 9423SOL    HW129239   7.062   7.172   5.996 -0.8725 -1.2892  0.0453
 9423SOL    HW229240   7.076   7.141   6.143  1.0830 -0.9233 -0.0306
 9424SOL     OW29241   1.841   5.346   0.687  0.4132  0.4002  0.4838
 9424SOL    HW129242   1.781   5.281   0.651  0.6144  0.6965 -0.4235
 9424SOL    HW229243   1.920   5.339   0.633  0.1085  1.9931 -0.2339
 9425SOL     OW29244   6.468   0.102   2.998  0.8397  0.1070  0.2968
 9425SOL    HW129245   6.562   0.082   3.003  1.1716  1.1375 -1.1298
 9425SOL    HW229246   6.439   0.102   3.089  2.5093  1.0282  0.8839
 9426SOL     OW29247   0.124   5.196   5.116  0.3766  0.2193 -0.6831
 9426SOL    HW129248   0.217   5.177   5.105  0.6748 -0.8068  2.4553
 9426SOL    HW229249   0.086   5.112   5.144 -0.9169  1.2287  0.7449
 9427SOL     OW29250   2.042   6.893   6.037 -0.3250 -0.2122  0.1685
 9427SOL    HW129251   2.044   6.987   6.025  1.1005 -0.3238 -0.7019
 9427SOL    HW229252   2.131   6.870   6.066 -0.9552 -1.1629  1.4737
 9428SOL     OW29253   5.236   4.785   3.191  0.3108 -0.3656 -0.0033
 9428SOL    HW129254   5.260   4.875   3.212  0.7532 -0.7172  1.0165
 9428SOL    HW229255   5.235   4.783   3.095  0.5339  0.6571 -0.0404
 9429SOL     OW29256   6.624   6.296   0.346  0.0482 -0.1734  0.8389
 9429SOL    HW129257   6.559   6.236   0.383 -0.2573  0.8947  2.1278
 9429SOL    HW229258   6.602   6.381   0.385  0.2360  0.8576 -1.2057
 9430SOL     OW29259   1.199   2.683   1.108  0.1337 -0.0854  0.5319
 9430SOL    HW129260   1.284   2.726   1.096 -0.4434  1.0936  0.5817
 9430SOL    HW229261   1.138   2.754   1.129 -0.8353 -0.9366  0.6904
 9431SOL     OW29262   0.038   3.142   2.510 -0.4218  0.0351  0.2549
 9431SOL    HW129263   0.070   3.102   2.429  0.7830  0.7336  0.3710
 9431SOL    HW229264   0.068   3.083   2.579 -1.0709 -0.3275  0.2364
 9432SOL     OW29265   1.823   2.812   2.095 -1.1383 -0.2483  0.0437
 9432SOL    HW129266   1.764   2.742   2.121 -1.4562  0.0431  0.1072
 9432SOL    HW229267   1.911   2.773   2.102 -1.2207 -0.2572  1.3163
 9433SOL     OW29268   3.395   1.726   0.396 -0.2095 -0.0386 -0.0970
 9433SOL    HW129269   3.329   1.663   0.367  1.9500 -1.6586 -1.8440
 9433SOL    HW229270   3.433   1.761   0.316  0.8050  1.1551  0.8559
 9434SOL     OW29271   4.521   5.353   4.988  0.5728  0.3597  0.5799
 9434SOL    HW129272   4.454   5.421   4.992 -0.3724 -0.4756 -0.4211
 9434SOL    HW229273   4.496   5.290   5.056 -0.2666 -0.4668 -0.4721
 9435SOL     OW29274   5.829   6.093   3.729  0.0227 -0.0159  0.0725
 9435SOL    HW129275   5.750   6.147   3.730  0.8364  1.2068 -0.3017
 9435SOL    HW229276   5.800   6.009   3.694 -0.6119  1.2546 -2.7148
 9436SOL     OW29277   7.172   6.700   2.098 -0.1740  0.3600  0.2856
 9436SOL    HW129278   7.266   6.701   2.080 -0.0043  0.0985  1.0964
 9436SOL    HW229279   7.164   6.738   2.186 -0.5438 -1.8781  1.2948
 9437SOL     OW29280   1.962   1.997   3.355  0.5648  0.5848  0.0690
 9437SOL    HW129281   1.901   1.962   3.420 -1.1665 -0.6251 -2.0475
 9437SOL    HW229282   2.047   1.961   3.380 -0.1377 -0.3120  1.3229
 9438SOL     OW29283   2.444   2.118   2.103 -0.0059  0.0117  1.1191
 9438SOL    HW129284   2.536   2.124   2.129  0.1775 -2.1576  1.1452
 9438SOL    HW229285   2.426   2.024   2.100 -1.5617  0.2981 -1.2341
 9439SOL     OW29286   2.446   7.149   1.423  0.8114 -0.7967 -0.4180
 9439SOL    HW129287   2.402   7.092   1.360 -1.0321 -0.0413  0.1400
 9439SOL    HW229288   2.449   7.099   1.504  0.8752 -0.7951 -0.4190
 9440SOL     OW29289   0.265   1.022   1.803 -0.0652  0.0709  0.4394
 9440SOL    HW129290   0.277   1.097   1.861 -1.2508  0.8023 -0.2427
 9440SOL    HW229291   0.227   1.058   1.723  1.1649 -0.9775 -0.6687
 9441SOL     OW29292   4.386   2.783   6.882 -0.4401 -0.4782  0.2012
 9441SOL    HW129293   4.373   2.876   6.863  2.4566 -0.0681 -0.2374
 9441SOL    HW229294   4.323   2.738   6.825 -0.3263  1.1577 -1.3228
 9442SOL     OW29295   2.949   5.284   3.508 -0.7021 -0.1337  0.0945
 9442SOL    HW129296   3.036   5.262   3.542 -1.2198 -1.8017  0.4335
 9442SOL    HW229297   2.957   5.274   3.413  0.1053  2.2013 -0.1558
 9443SOL     OW29298   4.766   1.058   0.695 -0.3814 -0.8923  0.4423
 9443SOL    HW129299   4.766   1.016   0.781  2.6979 -0.5949  0.6698
 9443SOL    HW229300   4.809   0.996   0.637  0.4421  0.2114 -0.1563
 9444SOL     OW29301   3.055   2.146   0.082  0.2774 -0.4461  0.5701
 9444SOL    HW129302   2.982   2.091   0.055  0.8216 -0.1356 -1.8379
 9444SOL    HW229303   3.015   2.229   0.109 -0.3404  0.9762 -3.8376
 9445SOL     OW29304   3.453   6.714   5.695  0.0840 -0.2734 -0.5543
 9445SOL    HW129305   3.428   6.673   5.778  1.2216 -0.0217 -0.0785
 9445SOL    HW229306   3.466   6.806   5.716  2.4427 -0.5594 -0.5224
 9446SOL     OW29307   3.076   2.913   6.981 -0.0399 -0.2944  0.6407
 9446SOL    HW129308   3.122   2.983   7.026 -0.7636 -0.2311  1.2985
 9446SOL    HW229309   3.005   2.888   7.040 -2.0309  0.8936 -1.0970
 9447SOL     OW29310   2.905   0.608   6.077  1.0251  0.3178  0.6138
 9447SOL    HW129311   2.984   0.584   6.029  1.2893 -0.3168  1.3494
 9447SOL    HW229312   2.858   0.526   6.089 -0.0661  0.7785 -0.3535
 9448SOL     OW29313   6.335   5.299   2.577 -0.1714 -0.8213 -0.4203
 9448SOL    HW129314   6.324   5.387   2.542 -1.6787 -1.4975 -1.8139
 9448SOL    HW229315   6.275   5.296   2.652  0.4192 -0.4493  0.0707
 9449SOL     OW29316   7.271   2.872   1.580  0.0179  0.2030  0.5623
 9449SOL    HW129317   7.193   2.833   1.542 -0.2945  0.8890  0.4768
 9449SOL    HW229318   7.343   2.816   1.552 -0.3023  0.2467 -0.3780
 9450SOL     OW29319   2.318   5.716   3.446 -0.5823  0.3176  0.4130
 9450SOL    HW129320   2.402   5.697   3.403 -1.1985 -0.0196 -0.6876
 9450SOL    HW229321   2.326   5.808   3.473  0.2456  0.2087  0.5764
 9451SOL     OW29322   5.143   0.495   4.792  0.2070  0.5968 -0.1124
 9451SOL    HW129323   5.180   0.495   4.704 -0.5013  0.1267 -0.4170
 9451SOL    HW229324   5.132   0.588   4.814  1.4111  0.7416 -0.0718
 9452SOL     OW29325   1.504   0.985   4.326 -0.0616  0.6832  0.0713
 9452SOL    HW129326   1.579   1.037   4.357  0.8185 -0.9538  0.8332
 9452SOL    HW229327   1.513   0.986   4.231  0.0707  1.7223  0.0844
 9453SOL     OW29328   5.959   1.536   6.789 -0.4937  0.3930  0.0382
 9453SOL    HW129329   5.984   1.556   6.699 -0.4663  0.3612  0.0387
 9453SOL    HW229330   5.871   1.572   6.798 -1.4671 -1.6768 -0.7113
 9454SOL     OW29331   5.315   6.475   0.417  0.2695  0.1531  0.1034
 9454SOL    HW129332   5.312   6.500   0.510 -0.5666  0.8408 -0.0887
 9454SOL    HW229333   5.311   6.379   0.418 -2.0026  0.1935  0.7505
 9455SOL     OW29334   2.070   2.837   6.668 -0.2594 -0.1107 -0.4361
 9455SOL    HW129335   2.062   2.768   6.733  0.4776  0.1428 -0.0645
 9455SOL    HW229336   2.120   2.798   6.596  0.6965  0.1933  0.0377
 9456SOL     OW29337   7.284   0.787   0.986  0.2154  0.0176 -0.2252
 9456SOL    HW129338   7.251   0.874   0.962 -1.0908 -0.1293  0.9153
 9456SOL    HW229339   7.324   0.754   0.905 -1.2112  0.7969 -1.3006
 9457SOL     OW29340   4.675   5.584   5.707 -0.5905  0.0702  0.0937
 9457SOL    HW129341   4.590   5.625   5.696 -0.2713  0.3008 -1.8444
 9457SOL    HW229342   4.729   5.622   5.637  1.2670  0.3402  1.5935
 9458SOL     OW29343   0.999   1.829   2.180  0.2176  0.0844 -0.2154
 9458SOL    HW129344   1.035   1.788   2.259 -2.2047 -1.7130  0.0422
 9458SOL    HW229345   0.972   1.756   2.125 -1.0924  1.3331 -1.2915
 9459SOL     OW29346   3.083   3.277   0.411 -0.1086 -0.3337  0.3906
 9459SOL    HW129347   3.060   3.185   0.403 -0.6923 -0.2309  0.9010
 9459SOL    HW229348   3.052   3.303   0.497  0.7733  0.1365  0.5813
 9460SOL     OW29349   2.419   5.363   3.723  0.6396 -0.1277  0.1532
 9460SOL    HW129350   2.419   5.267   3.731  1.0370 -0.2334 -0.9417
 9460SOL    HW229351   2.456   5.380   3.637 -0.9689  0.9638 -0.3675
 9461SOL     OW29352   7.381   5.200   2.424  0.5762 -0.0418  0.2436
 9461SOL    HW129353   7.459   5.244   2.456 -0.1435  1.9335 -0.5383
 9461SOL    HW229354   7.360   5.246   2.342 -2.3442  0.6979  1.2798
 9462SOL     OW29355   3.039   4.074   0.306 -0.2276  0.3033 -0.1814
 9462SOL    HW129356   3.037   4.113   0.219 -1.0888 -0.6358 -0.5974
 9462SOL    HW229357   3.129   4.086   0.335 -0.0724  1.1372 -0.9558
 9463SOL     OW29358   5.863   5.389   3.418 -0.0816  0.4829 -0.1169
 9463SOL    HW129359   5.788   5.428   3.464 -1.9121 -2.4594 -0.3498
 9463SOL    HW229360   5.862   5.430   3.331  0.4649  2.5908  0.8004
 9464SOL     OW29361   5.901   0.797   4.962  0.0961 -0.7737  0.4994
 9464SOL    HW129362   5.923   0.723   5.018  0.3744 -0.2008  1.1699
 9464SOL    HW229363   5.986   0.837   4.942  0.1155 -1.6349 -1.2996
 9465SOL     OW29364   4.295   4.252   4.382 -0.5325 -0.1684  0.1978
 9465SOL    HW129365   4.299   4.157   4.392 -1.3175 -0.1627  0.7002
 9465SOL    HW229366   4.344   4.287   4.456  0.9192 -0.1723 -0.7211
 9466SOL     OW29367   0.795   0.040   0.411  0.2238  0.2367 -0.2718
 9466SOL    HW129368   0.814   0.011   0.500  1.0767  0.9227 -0.2166
 9466SOL    HW229369   0.709   0.081   0.416  1.1192  2.1265  0.7046
 9467SOL     OW29370   6.370   5.205   2.113 -0.6182 -0.4252  0.1532
 9467SOL    HW129371   6.293   5.242   2.155 -1.2975  1.1093 -2.2038
 9467SOL    HW229372   6.443   5.262   2.141 -1.1005  0.7262 -0.8139
 9468SOL     OW29373   3.506   2.943   2.716  0.2735 -0.6926  0.3844
 9468SOL    HW129374   3.449   2.904   2.782 -0.9727  0.7034  0.2041
 9468SOL    HW229375   3.531   2.870   2.659 -2.0755 -1.2718 -0.0243
 9469SOL     OW29376   2.999   4.015   6.951 -0.1446  0.4551  0.4118
 9469SOL    HW129377   3.015   4.065   7.031 -0.0284  2.0788 -0.5795
 9469SOL    HW229378   2.984   4.082   6.884 -1.5403 -0.8793 -0.6682
 9470SOL     OW29379   0.850   1.909   6.686  0.1700  0.7055  0.0250
 9470SOL    HW129380   0.844   1.867   6.600 -2.7142  0.6564  0.1706
 9470SOL    HW229381   0.885   1.840   6.744 -0.9710 -0.3414 -0.4857
 9471SOL     OW29382   4.871   3.912   1.535  0.1780 -0.4447  0.2139
 9471SOL    HW129383   4.859   3.996   1.490 -0.2706 -0.0731  1.0250
 9471SOL    HW229384   4.817   3.851   1.485  1.4252 -0.5254 -1.0998
 9472SOL     OW29385   2.078   2.066   4.386 -0.1935 -0.0763 -0.1351
 9472SOL    HW129386   2.156   2.108   4.421 -1.7344  1.7730  1.3678
 9472SOL    HW229387   2.034   2.029   4.463 -1.7222  0.5970 -0.6418
 9473SOL     OW29388   0.218   4.923   1.748 -0.4886  0.4316 -0.9775
 9473SOL    HW129389   0.270   4.997   1.718  0.1316  0.5311  0.2759
 9473SOL    HW229390   0.230   4.923   1.843 -1.3394 -0.6359 -0.8570
 9474SOL     OW29391   5.896   5.642   3.874 -0.0780  0.3835 -0.6606
 9474SOL    HW129392   5.924   5.572   3.815  0.0593 -1.3213  1.3078
 9474SOL    HW229393   5.953   5.715   3.852  0.4125 -0.3997 -2.1684
 9475SOL     OW29394   1.909   3.263   4.693 -0.0119 -0.4942 -0.0937
 9475SOL    HW129395   1.973   3.243   4.762  0.4416 -1.2267 -0.7061
 9475SOL    HW229396   1.824   3.248   4.734  0.1906  0.4782  0.7316
 9476SOL     OW29397   7.100   1.174   4.868  0.3252 -0.0545 -0.1003
 9476SOL    HW129398   7.183   1.148   4.907 -0.7907  0.2344  2.7260
 9476SOL    HW229399   7.109   1.269   4.854  0.4665 -0.0218  0.2044
 9477SOL     OW29400   6.769   0.542   0.974 -0.2818 -0.2479 -0.4962
 9477SOL    HW129401   6.703   0.511   1.035 -1.2932  1.5540 -0.6283
 9477SOL    HW229402   6.720   0.570   0.897  0.5333  1.6963 -0.3630
 9478SOL     OW29403   6.332   7.043   0.880 -0.3269  0.0709  0.1544
 9478SOL    HW129404   6.311   7.137   0.873  0.0001  0.2858  1.7233
 9478SOL    HW229405   6.425   7.041   0.902 -0.0356 -0.6889 -1.0633
 9479SOL     OW29406   2.592   4.475   1.579  0.4192  0.3583  0.0535
 9479SOL    HW129407   2.530   4.414   1.539  1.1232  0.1698 -0.7829
 9479SOL    HW229408   2.634   4.425   1.649  0.3524  0.1702 -0.0426
 9480SOL     OW29409   3.882   6.196   6.183 -0.2095  0.1956  0.2659
 9480SOL    HW129410   3.879   6.144   6.263  1.3913  1.4676  1.2012
 9480SOL    HW229411   3.803   6.170   6.135 -0.7867 -1.1849  1.8666
 9481SOL     OW29412   3.445   5.357   1.418 -0.2861 -0.3438 -0.5054
 9481SOL    HW129413   3.393   5.303   1.477  0.2460  0.8436  1.1458
 9481SOL    HW229414   3.398   5.356   1.335 -1.8784 -0.8832  0.3707
 9482SOL     OW29415   3.645   4.741   3.338  0.4163 -0.4482  0.2421
 9482SOL    HW129416   3.668   4.754   3.245  0.1455  0.8818  0.3464
 9482SOL    HW229417   3.650   4.646   3.350  0.3014 -0.6636 -1.1773
 9483SOL     OW29418   7.317   6.526   3.858 -0.2784 -0.8619  1.0728
 9483SOL    HW129419   7.349   6.544   3.946 -0.3840 -0.4649  1.0319
 9483SOL    HW229420   7.234   6.573   3.852 -0.1218 -0.6302  0.6555
 9484SOL     OW29421   1.638   4.719   0.853 -0.1905 -0.5780 -0.1867
 9484SOL    HW129422   1.669   4.790   0.909  0.4221 -1.4235  0.5841
 9484SOL    HW229423   1.572   4.760   0.797  0.6751  0.7531 -0.2775
 9485SOL     OW29424   4.503   4.780   3.128  1.0394  0.0894 -0.4912
 9485SOL    HW129425   4.487   4.800   3.035  0.8001 -1.1886 -0.7390
 9485SOL    HW229426   4.569   4.711   3.126  0.1005 -0.8466  0.2396
 9486SOL     OW29427   3.293   7.164   1.187 -0.1505  0.0870  0.0816
 9486SOL    HW129428   3.294   7.073   1.159 -0.9450  0.2384 -0.4614
 9486SOL    HW229429   3.361   7.169   1.254 -1.5320 -1.3861  1.6853
 9487SOL     OW29430   7.092   2.051   6.276 -0.2145  0.4948 -0.4672
 9487SOL    HW129431   7.115   1.961   6.253 -0.4780  0.4229 -0.4487
 9487SOL    HW229432   7.045   2.044   6.359 -0.4975  0.6204 -0.6154
 9488SOL     OW29433   1.017   5.897   1.832  0.3962  0.3744 -0.2560
 9488SOL    HW129434   1.091   5.862   1.882  0.4991  1.7756  0.6266
 9488SOL    HW229435   1.057   5.940   1.756  0.3724 -0.1525 -0.5701
 9489SOL     OW29436   2.965   2.544   1.497  0.0930 -0.2269 -0.4421
 9489SOL    HW129437   2.944   2.504   1.413  2.1670  0.9204 -1.5880
 9489SOL    HW229438   2.882   2.581   1.528 -0.9729 -1.7900 -1.3286
 9490SOL     OW29439   0.111   1.801   1.259 -0.8932 -0.0104 -0.0956
 9490SOL    HW129440   0.026   1.836   1.232 -0.1714  1.2250 -0.8026
 9490SOL    HW229441   0.140   1.860   1.328 -0.0876  0.2498 -0.6519
 9491SOL     OW29442   3.507   1.351   3.095 -0.3992 -0.3604  0.3293
 9491SOL    HW129443   3.455   1.431   3.093 -0.6623 -0.5441 -0.8928
 9491SOL    HW229444   3.443   1.281   3.104 -0.4459 -0.6104 -1.4940
 9492SOL     OW29445   2.751   6.016   1.517  0.2307  0.8755 -0.2318
 9492SOL    HW129446   2.818   6.053   1.575  0.8373 -0.3100 -0.1503
 9492SOL    HW229447   2.800   5.970   1.449 -0.4855  1.9016 -1.4875
 9493SOL     OW29448   4.841   6.834   5.687  0.1282  0.3870  0.0333
 9493SOL    HW129449   4.870   6.887   5.613  0.9439 -0.6657 -0.4235
 9493SOL    HW229450   4.749   6.858   5.700  0.5777  2.1865  0.0966
 9494SOL     OW29451   1.327   3.422   7.312  0.6359 -0.0986 -0.5369
 9494SOL    HW129452   1.326   3.454   7.403  1.8301  0.8296 -0.8124
 9494SOL    HW229453   1.316   3.328   7.320 -1.0368  0.1365  0.4461
 9495SOL     OW29454   3.120   0.454   3.982  0.0776  0.0129  0.0538
 9495SOL    HW129455   3.051   0.506   4.025 -0.7233 -1.6518  0.8745
 9495SOL    HW229456   3.105   0.466   3.889 -1.5532 -0.5588  0.2170
 9496SOL     OW29457   6.713   6.821   5.094  0.1834 -0.3068  0.2935
 9496SOL    HW129458   6.805   6.827   5.122  0.0464  1.5033  0.4489
 9496SOL    HW229459   6.663   6.829   5.175 -0.1528 -2.0233  0.3062
 9497SOL     OW29460   2.659   0.731   6.851 -0.6692  0.1917  0.3584
 9497SOL    HW129461   2.637   0.824   6.849  0.2261  0.4117  0.6492
 9497SOL    HW229462   2.705   0.718   6.934 -0.8797 -0.5351  0.3709
 9498SOL     OW29463   6.130   4.315   2.915 -0.3308  0.3076  0.2030
 9498SOL    HW129464   6.158   4.283   2.829 -1.0649  2.3839 -0.8800
 9498SOL    HW229465   6.040   4.344   2.902  0.4754  3.3966  0.8484
 9499SOL     OW29466   5.546   5.294   5.148  0.2929 -0.6427  0.5694
 9499SOL    HW129467   5.533   5.293   5.243 -0.2709 -2.6627  0.5115
 9499SOL    HW229468   5.491   5.366   5.117  1.2060  0.6697  1.8259
 9500SOL     OW29469   3.463   4.391   0.074  0.3381  0.1971 -0.3848
 9500SOL    HW129470   3.405   4.381   0.149 -0.0085  1.5988 -0.4350
 9500SOL    HW229471   3.410   4.438   0.009  1.4855  1.4775 -0.4408
 9501SOL     OW29472   6.223   0.684   2.540  0.0253  0.1314  0.4586
 9501SOL    HW129473   6.211   0.593   2.511  0.9098 -0.5964  2.1739
 9501SOL    HW229474   6.263   0.675   2.626  1.2216  2.1870  0.1651
 9502SOL     OW29475   1.392   6.835   0.565  0.3753  0.3568  0.0299
 9502SOL    HW129476   1.425   6.923   0.581  2.9459 -0.5640  0.1360
 9502SOL    HW229477   1.429   6.810   0.481 -1.1393 -0.2928 -0.4765
 9503SOL     OW29478   7.213   1.785   5.914  0.0868 -0.2811  0.0705
 9503SOL    HW129479   7.265   1.814   5.988 -0.8316  1.3685  0.1060
 9503SOL    HW229480   7.268   1.801   5.837 -0.0181  0.6333  0.1790
 9504SOL     OW29481   2.440   2.892   6.885 -0.0645 -0.5762  0.5465
 9504SOL    HW129482   2.527   2.918   6.916  0.0020 -0.1300  0.0118
 9504SOL    HW229483   2.453   2.867   6.794 -0.6555  0.4794  0.1464
 9505SOL     OW29484   1.519   6.137   4.073 -1.2843 -0.4341 -0.0381
 9505SOL    HW129485   1.499   6.052   4.033 -2.1942 -0.4402  0.3919
 9505SOL    HW229486   1.504   6.201   4.003 -1.4461 -0.5574 -0.1166
 9506SOL     OW29487   2.956   4.883   4.553 -0.4132 -0.2277 -0.5305
 9506SOL    HW129488   3.045   4.860   4.580 -0.7348 -0.2892  0.5047
 9506SOL    HW229489   2.942   4.970   4.591 -0.3279  0.3708 -1.8105
 9507SOL     OW29490   4.824   0.302   5.303  0.2537  0.1931 -0.1165
 9507SOL    HW129491   4.877   0.341   5.234 -0.8703 -1.1544 -1.8212
 9507SOL    HW229492   4.766   0.373   5.332  1.6890  1.1593  0.5055
 9508SOL     OW29493   3.098   5.386   0.800 -0.1130  0.0864  0.5464
 9508SOL    HW129494   3.136   5.304   0.768  0.0153  0.6573 -0.8685
 9508SOL    HW229495   3.018   5.397   0.749  0.6608  1.5885 -0.4290
 9509SOL     OW29496   0.014   1.827   5.737  0.1438  0.2518 -0.3854
 9509SOL    HW129497   0.105   1.821   5.764  0.4689  2.4151 -0.8814
 9509SOL    HW229498   0.014   1.806   5.644  0.1671  0.5134 -0.4437
 9510SOL     OW29499   1.621   5.579   0.809 -0.2126 -0.2568  0.2115
 9510SOL    HW129500   1.614   5.624   0.893 -2.1793  0.2422 -0.1712
 9510SOL    HW229501   1.671   5.499   0.829  1.7454  1.1592  1.2633
 9511SOL     OW29502   6.972   6.889   6.386 -0.2218 -0.1558 -0.6515
 9511SOL    HW129503   7.063   6.918   6.383 -0.0712 -0.3972  0.9739
 9511SOL    HW229504   6.959   6.858   6.475 -1.5776 -1.2091 -1.1757
 9512SOL     OW29505   3.976   0.609   1.141 -0.2107  0.5529  0.4326
 9512SOL    HW129506   4.014   0.617   1.228  2.0549 -2.2808 -0.1465
 9512SOL    HW229507   3.920   0.532   1.147 -1.1825  1.1786 -0.3048
 9513SOL     OW29508   7.185   3.044   0.506 -0.1967  0.3772  0.4926
 9513SOL    HW129509   7.263   3.072   0.553 -0.2874 -0.6920  1.3049
 9513SOL    HW229510   7.187   3.094   0.424  1.9609 -0.5015 -0.0470
 9514SOL     OW29511   4.527   3.589   1.191  0.4183  0.0204  0.0300
 9514SOL    HW129512   4.494   3.596   1.101  0.1527 -0.6802  0.0727
 9514SOL    HW229513   4.459   3.631   1.245 -0.4872 -1.4916  0.1281
 9515SOL     OW29514   2.328   3.377   3.739  0.1967  0.1312  0.1731
 9515SOL    HW129515   2.356   3.468   3.734 -0.5785  0.3606 -0.2495
 9515SOL    HW229516   2.268   3.366   3.665 -3.1103  0.5057  2.5495
 9516SOL     OW29517   3.960   0.998   0.625  0.3732 -0.8628  0.2198
 9516SOL    HW129518   4.013   1.048   0.563 -1.5940 -1.7597 -2.4291
 9516SOL    HW229519   3.924   1.063   0.684  0.2762  0.4908 -1.2546
 9517SOL     OW29520   3.094   3.280   4.661  0.1069 -0.1718 -0.3037
 9517SOL    HW129521   3.112   3.294   4.568  0.3452  1.7250 -0.0132
 9517SOL    HW229522   3.006   3.314   4.675  0.0410 -0.5124  0.1528
 9518SOL     OW29523   7.020   1.126   5.881  0.4938 -0.2994 -0.0743
 9518SOL    HW129524   7.005   1.169   5.796  2.6646  0.5237 -0.1024
 9518SOL    HW229525   7.077   1.187   5.928  1.7607 -2.0965  0.8059
 9519SOL     OW29526   7.151   6.747   0.550 -0.3227 -0.8275  0.0085
 9519SOL    HW129527   7.150   6.769   0.643 -3.5543  1.0116 -0.3006
 9519SOL    HW229528   7.076   6.689   0.538 -0.1881 -0.7370 -1.4889
 9520SOL     OW29529   3.037   4.978   3.134 -0.0500  0.0173  0.0813
 9520SOL    HW129530   2.970   5.028   3.086  0.7017  1.4994  0.4956
 9520SOL    HW229531   3.013   4.887   3.122 -1.0644  0.4423 -1.3717
 9521SOL     OW29532   1.844   1.245   2.306  0.1832  0.3450 -0.0009
 9521SOL    HW129533   1.911   1.187   2.271 -2.7502 -2.6251 -1.2686
 9521SOL    HW229534   1.848   1.234   2.401 -0.5382 -2.4087 -0.2157
 9522SOL     OW29535   6.597   6.662   2.440  0.3305  0.0185  0.5496
 9522SOL    HW129536   6.680   6.643   2.484  2.1129 -1.7028 -3.1303
 9522SOL    HW229537   6.554   6.577   2.433  0.5006  0.0770 -1.6342
 9523SOL     OW29538   2.858   3.743   2.388 -0.5656 -0.4825 -0.4938
 9523SOL    HW129539   2.784   3.801   2.370 -0.1840 -0.2598 -1.4020
 9523SOL    HW229540   2.823   3.676   2.446 -0.6238  1.5700  2.0336
 9524SOL     OW29541   2.642   3.570   3.292  0.3766  0.0778 -0.5742
 9524SOL    HW129542   2.702   3.604   3.225  0.6341  0.7090 -0.0368
 9524SOL    HW229543   2.652   3.475   3.288  0.0167  0.0733 -1.7713
 9525SOL     OW29544   4.846   4.874   1.219  0.2709  0.9125 -0.2898
 9525SOL    HW129545   4.913   4.806   1.217 -0.3474  0.2603  0.1522
 9525SOL    HW229546   4.848   4.913   1.131  0.0723 -0.2599 -0.8370
 9526SOL     OW29547   5.788   4.144   2.784  0.2131 -0.1408  0.0292
 9526SOL    HW129548   5.704   4.174   2.750  0.1595 -0.4545 -0.1225
 9526SOL    HW229549   5.782   4.049   2.783  0.7440 -0.1774 -0.4392
 9527SOL     OW29550   5.229   6.269   6.129  0.0831  0.3172 -0.1174
 9527SOL    HW129551   5.259   6.349   6.087  0.8060 -0.5993 -1.3900
 9527SOL    HW229552   5.137   6.260   6.102  0.2127  0.3387 -0.5673
 9528SOL     OW29553   2.896   6.369   2.604  0.0450 -0.5596 -0.3848
 9528SOL    HW129554   2.895   6.442   2.665  0.6380  0.0707 -1.1044
 9528SOL    HW229555   2.972   6.386   2.547 -0.5572 -1.0541 -1.3734
 9529SOL     OW29556   4.009   5.670   7.374  0.3343  0.2700  0.0852
 9529SOL    HW129557   3.971   5.743   7.326 -3.7845 -2.4388 -1.3651
 9529SOL    HW229558   4.054   5.618   7.307 -0.6674 -0.7290  0.1540
 9530SOL     OW29559   2.269   0.392   4.152 -0.2864 -0.2321  0.3586
 9530SOL    HW129560   2.339   0.326   4.148 -1.1725 -1.2145  0.6908
 9530SOL    HW229561   2.315   0.475   4.146  0.7638 -0.8892 -1.2507
 9531SOL     OW29562   1.649   3.447   4.405  0.2075 -0.6701 -0.1665
 9531SOL    HW129563   1.708   3.373   4.423  1.9241  0.5405 -0.6000
 9531SOL    HW229564   1.566   3.406   4.384  0.7929 -2.4466  0.7680
 9532SOL     OW29565   1.600   5.668   6.221  0.0803 -0.2383 -0.0219
 9532SOL    HW129566   1.546   5.669   6.300  0.8880 -0.6070  0.5423
 9532SOL    HW229567   1.667   5.602   6.238  1.7863  1.4124  0.0095
 9533SOL     OW29568   2.608   4.841   2.730  0.2797  0.5218 -0.0429
 9533SOL    HW129569   2.613   4.790   2.811  1.0039  1.6107  0.6298
 9533SOL    HW229570   2.544   4.910   2.750 -0.9116 -0.2647 -1.0360
 9534SOL     OW29571   6.741   5.168   6.920  0.0975 -0.0321  0.4146
 9534SOL    HW129572   6.789   5.088   6.941 -1.0500 -1.1453 -0.9679
 9534SOL    HW229573   6.775   5.234   6.980  3.9510 -0.4807 -1.0192
 9535SOL     OW29574   1.511   0.019   3.840  0.0349  0.3278 -0.5774
 9535SOL    HW129575   1.428  -0.028   3.839  0.8209 -1.1733 -2.5716
 9535SOL    HW229576   1.491   0.105   3.802 -0.7975  0.4210  0.0490
 9536SOL     OW29577   6.212   4.007   6.395 -0.1738 -0.0056  0.3287
 9536SOL    HW129578   6.287   4.033   6.449  0.9859  0.2301 -1.3241
 9536SOL    HW229579   6.251   3.984   6.311 -1.7701 -1.8327  0.0502
 9537SOL     OW29580   6.885   1.708   5.527  0.0767 -0.1297  0.5819
 9537SOL    HW129581   6.969   1.687   5.569  0.4932 -1.6865 -0.8890
 9537SOL    HW229582   6.854   1.623   5.494 -0.5437  0.8991 -1.6178
 9538SOL     OW29583   0.167   3.386   0.391  0.2573 -0.0199 -0.4710
 9538SOL    HW129584   0.153   3.437   0.471 -0.4262  2.6509 -2.1689
 9538SOL    HW229585   0.257   3.406   0.365 -0.0139  0.3386 -1.1562
 9539SOL     OW29586   7.073   4.415   1.544  0.4173 -0.5372 -0.3285
 9539SOL    HW129587   7.165   4.440   1.539  0.7069 -1.6644 -1.0398
 9539SOL    HW229588   7.026   4.489   1.506  0.8377  0.8916  1.7829
 9540SOL     OW29589   6.170   0.351   3.765 -0.2630  0.0179 -0.5805
 9540SOL    HW129590   6.075   0.358   3.757 -0.2703  1.4920  0.2401
 9540SOL    HW229591   6.184   0.278   3.825 -1.0163  1.0013  0.8829
 9541SOL     OW29592   2.926   2.605   5.703  0.0110 -0.1971  0.3382
 9541SOL    HW129593   2.910   2.539   5.635  1.3597  0.2881 -0.4980
 9541SOL    HW229594   2.939   2.554   5.783 -1.0228 -0.8089  0.1360
 9542SOL     OW29595   4.305   2.679   3.830  0.2768 -0.2867 -0.8348
 9542SOL    HW129596   4.295   2.714   3.741  0.0846  0.1930 -0.6293
 9542SOL    HW229597   4.340   2.753   3.880 -0.3572 -0.3145 -0.3425
 9543SOL     OW29598   7.357   4.495   5.563 -0.4668 -0.5516  0.1476
 9543SOL    HW129599   7.291   4.514   5.497 -0.2207 -1.0090 -0.2302
 9543SOL    HW229600   7.361   4.400   5.567  0.7369 -0.5456 -0.4115
 9544SOL     OW29601   1.425   5.739   2.843 -0.9673  0.2960  0.3187
 9544SOL    HW129602   1.483   5.668   2.817 -0.4870  1.4654 -2.0760
 9544SOL    HW229603   1.341   5.718   2.804 -1.0512  0.6218  0.3183
 9545SOL     OW29604   3.679   0.431   5.671 -0.0391 -0.4789 -0.2372
 9545SOL    HW129605   3.682   0.383   5.589 -1.2599 -1.0145 -0.0015
 9545SOL    HW229606   3.596   0.404   5.712 -1.5449  2.8504 -0.7160
 9546SOL     OW29607   2.570   0.442   4.852  0.1227  0.0734  0.4464
 9546SOL    HW129608   2.525   0.486   4.924  0.6311  0.6649  0.4073
 9546SOL    HW229609   2.514   0.366   4.833 -0.6162  0.5348  0.6990
 9547SOL     OW29610   2.039   2.104   0.981 -0.3558 -0.1576 -0.1092
 9547SOL    HW129611   2.022   2.106   0.887 -1.1228  1.9631  0.0329
 9547SOL    HW229612   2.128   2.068   0.988  0.4081  1.2668 -1.7747
 9548SOL     OW29613   4.297   1.975   3.261  0.1131 -0.6503  0.2450
 9548SOL    HW129614   4.286   1.957   3.168  2.1907  0.6753 -0.3287
 9548SOL    HW229615   4.391   1.972   3.275 -0.0754  0.4578  2.0313
 9549SOL     OW29616   7.027   4.999   2.778  0.2269 -0.4979 -0.0657
 9549SOL    HW129617   7.038   4.926   2.717  2.4188 -1.3608  1.2521
 9549SOL    HW229618   6.974   5.062   2.730 -0.4134 -2.2737 -1.8339
 9550SOL     OW29619   5.509   4.666   6.536  0.1877 -0.5675 -0.0287
 9550SOL    HW129620   5.504   4.716   6.454  0.9352 -0.2627  0.1010
 9550SOL    HW229621   5.597   4.682   6.569  0.1412 -1.2735  0.4736
 9551SOL     OW29622   7.237   6.151   4.448 -0.8391 -0.3153  0.0545
 9551SOL    HW129623   7.214   6.219   4.512 -1.5415  1.6828 -2.1765
 9551SOL    HW229624   7.167   6.154   4.384  0.2193 -1.7122 -1.2301
 9552SOL     OW29625   7.074   3.869   6.908 -0.1968 -1.0109  0.2166
 9552SOL    HW129626   7.005   3.907   6.963  1.9592  1.1086  1.6600
 9552SOL    HW229627   7.093   3.937   6.844  1.4433 -0.9650  0.7099
 9553SOL     OW29628   0.976   3.588   0.682  0.0834  0.1345  0.2331
 9553SOL    HW129629   0.995   3.650   0.752 -0.0626  0.6804 -0.2042
 9553SOL    HW229630   0.934   3.641   0.614 -1.8227 -0.7652  0.6333
 9554SOL     OW29631   0.900   6.665   4.607  0.1286 -0.3791 -0.0653
 9554SOL    HW129632   0.938   6.634   4.689  2.5905 -1.4667 -1.5056
 9554SOL    HW229633   0.849   6.591   4.574  1.4020 -0.9851 -0.7767
 9555SOL     OW29634   6.350   6.691   6.290  0.2752  0.0800 -0.1336
 9555SOL    HW129635   6.317   6.768   6.245  1.3551  0.4444 -0.3265
 9555SOL    HW229636   6.434   6.673   6.249  0.1964 -1.0025  0.1451
 9556SOL     OW29637   4.836   4.880   2.281 -0.2965  0.0445  0.0274
 9556SOL    HW129638   4.770   4.890   2.212 -0.3696 -2.0530 -0.2970
 9556SOL    HW229639   4.916   4.915   2.242 -0.1594 -1.7733 -1.5100
 9557SOL     OW29640   1.231   0.724   1.369  0.3142 -0.7126  0.3322
 9557SOL    HW129641   1.306   0.783   1.363  0.9126 -1.5268 -0.5910
 9557SOL    HW229642   1.178   0.744   1.291  0.7586 -1.6735 -0.2396
 9558SOL     OW29643   6.700   2.410   3.263 -0.4008 -0.0328  0.1775
 9558SOL    HW129644   6.634   2.421   3.332 -0.3023 -1.6022  0.5633
 9558SOL    HW229645   6.673   2.329   3.218  0.4732  0.0745 -0.5543
 9559SOL     OW29646   3.874   7.236   2.168  0.2910 -0.1775  0.1148
 9559SOL    HW129647   3.905   7.320   2.134 -3.2275  0.1733 -2.7165
 9559SOL    HW229648   3.792   7.256   2.213 -0.7524 -2.0842 -0.8301
 9560SOL     OW29649   2.485   0.427   0.081 -0.4517 -0.4679  0.2844
 9560SOL    HW129650   2.484   0.336   0.049  2.0659 -1.0564  1.6283
 9560SOL    HW229651   2.560   0.467   0.039 -0.1079  0.2481  1.5134
 9561SOL     OW29652   6.565   1.397   2.884 -0.2320 -0.2969  0.2497
 9561SOL    HW129653   6.485   1.346   2.894  0.1100 -1.0020 -0.4617
 9561SOL    HW229654   6.554   1.443   2.800 -1.2344  2.1188  1.6152
 9562SOL     OW29655   6.088   2.421   0.698 -0.0506 -0.6786  0.2143
 9562SOL    HW129656   6.089   2.481   0.623 -0.7074 -0.0995  0.6663
 9562SOL    HW229657   5.996   2.406   0.716  0.1032 -0.9254  0.8258
 9563SOL     OW29658   0.295   7.233   4.167  0.0527  0.5479  0.0641
 9563SOL    HW129659   0.249   7.158   4.129 -0.5687  1.7701 -1.7266
 9563SOL    HW229660   0.373   7.244   4.113  0.3707  0.9402  0.5843
 9564SOL     OW29661   1.684   6.222   4.743 -0.0796 -0.3716 -0.0761
 9564SOL    HW129662   1.771   6.260   4.751  0.0415 -0.7673  0.6237
 9564SOL    HW229663   1.654   6.246   4.656 -0.2503  1.8243  0.5331
 9565SOL     OW29664   0.806   6.301   5.665  0.7102  0.5001 -0.0328
 9565SOL    HW129665   0.714   6.274   5.670  0.9853 -0.3043  1.3360
 9565SOL    HW229666   0.807   6.372   5.601 -1.1482  1.6679  1.1249
 9566SOL     OW29667   3.856   4.966   6.728  0.5460 -0.0100  0.1129
 9566SOL    HW129668   3.938   4.916   6.725  0.8885  0.5942 -1.7998
 9566SOL    HW229669   3.791   4.908   6.688 -0.1458 -0.7281  2.1707
 9567SOL     OW29670   3.091   3.131   1.198 -0.4329 -0.6921 -0.1444
 9567SOL    HW129671   3.117   3.123   1.106 -0.3261 -1.9832 -0.0297
 9567SOL    HW229672   3.165   3.173   1.241  0.1506 -1.4324 -0.3953
 9568SOL     OW29673   3.554   1.598   2.141 -0.1784  0.2433  0.0533
 9568SOL    HW129674   3.567   1.620   2.049  0.6749  1.8015  0.5033
 9568SOL    HW229675   3.624   1.536   2.161 -0.2294  0.0760 -0.2793
 9569SOL     OW29676   6.113   1.962   6.221 -0.4782  0.0791  0.1797
 9569SOL    HW129677   6.068   1.991   6.142  1.5409  0.2080 -1.0113
 9569SOL    HW229678   6.192   2.016   6.225  0.5571 -1.3938  1.0502
 9570SOL     OW29679   4.911   0.991   7.170 -1.1644 -0.6801  0.6355
 9570SOL    HW129680   4.882   1.069   7.218  1.9528  1.4033 -0.5280
 9570SOL    HW229681   4.947   0.934   7.237 -2.2709 -0.5805  1.3540
 9571SOL     OW29682   0.995   5.988   3.889 -0.0727 -0.7970  0.0097
 9571SOL    HW129683   1.012   6.046   3.963  0.3429  0.4713 -1.0506
 9571SOL    HW229684   0.911   6.016   3.854  0.8213  0.2347 -1.4335
 9572SOL     OW29685   4.179   6.268   4.498 -0.1487 -0.2874  0.0740
 9572SOL    HW129686   4.115   6.334   4.525  1.7718  2.8062 -2.2851
 9572SOL    HW229687   4.162   6.255   4.405  2.0037 -0.0153 -0.4154
 9573SOL     OW29688   0.296   1.144   6.160  0.3310  0.5699 -0.3167
 9573SOL    HW129689   0.305   1.049   6.171  1.0321  0.5611 -0.9131
 9573SOL    HW229690   0.276   1.156   6.067 -0.4151  0.9709 -0.1101
 9574SOL     OW29691   4.935   0.183   1.979  0.5511 -0.3287  0.5034
 9574SOL    HW129692   5.011   0.207   1.927  1.3460 -1.3812  1.1592
 9574SOL    HW229693   4.940   0.088   1.988 -2.8546 -1.0638 -2.5830
 9575SOL     OW29694   1.263   7.118   1.008 -0.2897 -0.0922  0.3378
 9575SOL    HW129695   1.346   7.165   0.996  0.0652 -0.6928  0.3902
 9575SOL    HW229696   1.227   7.109   0.920  0.2226 -0.7507  0.1857
 9576SOL     OW29697   2.297   5.813   6.315 -0.7639  0.5953  0.2846
 9576SOL    HW129698   2.381   5.858   6.312  0.8025 -2.1531 -0.2163
 9576SOL    HW229699   2.239   5.866   6.261  1.1507  1.6109 -0.8669
 9577SOL     OW29700   3.510   7.171   1.360  0.2204 -0.2850  0.4137
 9577SOL    HW129701   3.585   7.117   1.334  1.1115  0.8505  0.5730
 9577SOL    HW229702   3.548   7.245   1.406 -0.9717  0.5476  0.1075
 9578SOL     OW29703   1.150   1.032   0.888  0.3026 -0.4319 -0.0271
 9578SOL    HW129704   1.228   0.977   0.891  0.2807 -0.4348  1.0101
 9578SOL    HW229705   1.078   0.970   0.878  0.3816 -0.4885 -0.2371
 9579SOL     OW29706   2.938   1.331   1.868  0.2429  0.2713  0.1981
 9579SOL    HW129707   2.851   1.319   1.831 -0.2203  1.9819  0.6553
 9579SOL    HW229708   2.978   1.399   1.814  0.7695  0.4825  0.8433
 9580SOL     OW29709   7.041   5.825   3.943  0.0981  0.2854 -0.6209
 9580SOL    HW129710   7.121   5.780   3.915 -0.0572 -0.6754  0.4025
 9580SOL    HW229711   7.038   5.905   3.890  0.9122 -0.4232 -1.7847
 9581SOL     OW29712   3.957   5.367   0.116  0.3381  0.0461  0.5278
 9581SOL    HW129713   3.992   5.295   0.063  1.6324  1.4542 -0.6051
 9581SOL    HW229714   3.908   5.421   0.053 -0.8847  0.0334  1.4230
 9582SOL     OW29715   1.979   2.075   0.374 -0.2530 -0.0117  0.2687
 9582SOL    HW129716   2.051   2.071   0.437 -0.2202 -2.7010  0.1817
 9582SOL    HW229717   2.009   2.136   0.306  1.1869  0.2646  1.1211
 9583SOL     OW29718   5.104   5.750   0.704  0.5444 -0.1156 -0.3349
 9583SOL    HW129719   5.094   5.809   0.778  0.1204 -0.3008 -0.2446
 9583SOL    HW229720   5.016   5.739   0.669  0.8210  0.4452 -1.2351
 9584SOL     OW29721   4.520   7.158   0.853  0.2854 -0.3707 -0.1367
 9584SOL    HW129722   4.442   7.138   0.800  0.7590 -0.9391 -0.6352
 9584SOL    HW229723   4.555   7.072   0.876  0.1907 -0.1232  0.9613
 9585SOL     OW29724   2.373   0.381   3.780 -0.0854  0.3197 -0.3797
 9585SOL    HW129725   2.384   0.342   3.694 -2.8285 -0.5924 -0.3963
 9585SOL    HW229726   2.304   0.446   3.768  0.4118  1.1200  0.8806
 9586SOL     OW29727   4.578   2.564   4.282  0.1689 -0.6341 -0.7850
 9586SOL    HW129728   4.602   2.496   4.344  2.2867  0.1844 -0.6039
 9586SOL    HW229729   4.483   2.561   4.277  0.1347 -2.6244  0.2972
 9587SOL     OW29730   4.079   3.889   3.980 -0.2604  0.3925 -0.3849
 9587SOL    HW129731   4.120   3.909   4.064 -0.3864 -0.4103 -0.1286
 9587SOL    HW229732   4.096   3.967   3.927  1.3267  0.2041 -0.2008
 9588SOL     OW29733   0.358   0.384   5.785 -0.0261 -0.2093 -0.1343
 9588SOL    HW129734   0.343   0.296   5.751 -0.5474 -0.6726  1.2135
 9588SOL    HW229735   0.282   0.435   5.756 -0.9587 -0.8483  1.0845
 9589SOL     OW29736   4.709   2.050   2.117 -0.3191  0.4267 -0.2479
 9589SOL    HW129737   4.734   2.082   2.030  0.5757 -0.3922 -0.3119
 9589SOL    HW229738   4.645   1.982   2.100  2.5443 -2.4032 -0.5895
 9590SOL     OW29739   2.845   2.256   2.367  0.0741  0.2833 -0.2549
 9590SOL    HW129740   2.889   2.246   2.282 -0.0790 -0.8128 -0.2156
 9590SOL    HW229741   2.824   2.167   2.394 -1.2302  0.7104  0.2316
 9591SOL     OW29742   3.162   6.882   5.765  0.5172  0.1723 -0.1345
 9591SOL    HW129743   3.225   6.905   5.834 -0.5360  0.9495  0.6186
 9591SOL    HW229744   3.088   6.844   5.813  1.2352 -2.8107 -1.1615
 9592SOL     OW29745   7.117   0.545   5.501  0.3760  0.3835 -0.3001
 9592SOL    HW129746   7.155   0.461   5.475  1.9737  1.0817 -0.3104
 9592SOL    HW229747   7.192   0.599   5.524 -0.7422  0.7286  3.1247
 9593SOL     OW29748   0.414   1.515   4.554  0.5683 -0.4655  0.8435
 9593SOL    HW129749   0.333   1.561   4.577  0.9235  0.4474  0.3394
 9593SOL    HW229750   0.441   1.555   4.472  0.9041 -1.5984  0.3825
 9594SOL     OW29751   4.074   2.267   1.860  0.4162  0.3254 -0.2042
 9594SOL    HW129752   4.099   2.182   1.896  1.3580  0.2066 -1.1003
 9594SOL    HW229753   4.115   2.330   1.918 -0.3272  0.1873  0.4938
 9595SOL     OW29754   6.201   0.512   5.398 -0.9353 -0.1146 -0.0984
 9595SOL    HW129755   6.111   0.490   5.372 -0.6502  0.9985 -2.2244
 9595SOL    HW229756   6.193   0.596   5.443 -1.0638 -0.5181  0.6438
 9596SOL     OW29757   3.378   2.503   5.893  0.1405  0.2529  0.0820
 9596SOL    HW129758   3.333   2.534   5.814  2.0210  1.0487 -0.7586
 9596SOL    HW229759   3.400   2.583   5.941  0.2787 -0.1395  0.6896
 9597SOL     OW29760   3.104   4.792   1.746 -0.6193 -0.2286 -0.3422
 9597SOL    HW129761   3.062   4.713   1.781  0.9594 -0.6441  0.7290
 9597SOL    HW229762   3.183   4.760   1.704  0.5880  0.8344  1.0082
 9598SOL     OW29763   3.069   5.830   3.057  0.3552  0.7136  0.5122
 9598SOL    HW129764   3.046   5.752   3.108 -0.6374  0.5246 -0.1826
 9598SOL    HW229765   3.098   5.796   2.972 -2.5192  1.0807 -0.7518
 9599SOL     OW29766   7.192   5.704   1.023  0.0231  0.6111  0.3185
 9599SOL    HW129767   7.204   5.709   0.928  0.4778  0.0947  0.3437
 9599SOL    HW229768   7.262   5.758   1.059  2.2565 -2.1289  0.4541
 9600SOL     OW29769   3.302   4.776   1.006 -0.1084 -0.0171 -0.3068
 9600SOL    HW129770   3.247   4.805   1.079 -2.2699 -3.4654 -0.3171
 9600SOL    HW229771   3.390   4.767   1.044 -0.2251  2.2940  0.6603
 9601SOL     OW29772   7.007   4.959   5.859 -0.1952 -0.3864 -0.1472
 9601SOL    HW129773   7.019   4.867   5.885  0.8012  0.1298  1.3630
 9601SOL    HW229774   7.068   5.007   5.914 -0.1303  1.1222 -1.4909
 9602SOL     OW29775   2.851   2.209   5.394  0.1428 -0.3337  0.1018
 9602SOL    HW129776   2.896   2.241   5.316  0.1907 -3.4788 -1.3052
 9602SOL    HW229777   2.897   2.129   5.417 -1.8958 -1.2272  1.3799
 9603SOL     OW29778   2.441   4.488   0.846 -0.1549 -0.7294  0.2123
 9603SOL    HW129779   2.531   4.457   0.843 -0.6648 -2.4838  1.5739
 9603SOL    HW229780   2.407   4.471   0.759  1.0195  0.6845 -0.5672
 9604SOL     OW29781   5.854   4.903   0.208 -0.3485  0.3885 -0.1550
 9604SOL    HW129782   5.935   4.940   0.175 -1.0359  1.7447 -0.4111
 9604SOL    HW229783   5.794   4.977   0.213 -1.0458 -0.2470  1.7319
 9605SOL     OW29784   5.381   4.502   6.044  0.1532  0.2481  0.2644
 9605SOL    HW129785   5.332   4.472   6.120  0.2837  0.8132  0.5731
 9605SOL    HW229786   5.421   4.584   6.072  1.2044 -0.1590 -0.0045
 9606SOL     OW29787   6.844   5.270   5.614  0.2272  0.1221  0.3912
 9606SOL    HW129788   6.758   5.230   5.626 -0.0144 -0.1311 -1.7503
 9606SOL    HW229789   6.841   5.305   5.525  1.6439  1.9095  1.0001
 9607SOL     OW29790   6.343   3.284   0.213  0.5796 -0.0483  0.4052
 9607SOL    HW129791   6.372   3.267   0.302  0.3218 -0.5308  0.4037
 9607SOL    HW229792   6.261   3.332   0.223 -0.0300 -1.0686  0.4540
 9608SOL     OW29793   5.878   4.725   2.294 -0.4654  0.1171 -0.3820
 9608SOL    HW129794   5.889   4.805   2.345 -0.1333 -0.6073  0.7236
 9608SOL    HW229795   5.851   4.660   2.358  1.2092 -1.1427 -0.8902
 9609SOL     OW29796   6.940   0.244   0.228 -0.0800 -1.0738  0.4963
 9609SOL    HW129797   7.022   0.289   0.247 -0.5982 -0.0556  0.3766
 9609SOL    HW229798   6.906   0.288   0.150 -0.7227 -1.5122  0.5187
 9610SOL     OW29799   6.652   5.329   4.574 -0.0463 -0.5808  0.2465
 9610SOL    HW129800   6.681   5.311   4.664 -0.0824  0.1834  0.4253
 9610SOL    HW229801   6.724   5.297   4.519  0.7075  0.3795  0.6369
 9611SOL     OW29802   5.975   3.718   5.154 -0.2329  0.2826 -0.1672
 9611SOL    HW129803   5.938   3.670   5.080  0.4820  0.6396 -0.7629
 9611SOL    HW229804   6.069   3.723   5.136  0.0405 -0.0916  1.0274
 9612SOL     OW29805   0.882   6.785   5.028 -0.1912 -0.4358 -0.3469
 9612SOL    HW129806   0.930   6.731   4.965  0.0366 -0.4704 -0.1445
 9612SOL    HW229807   0.823   6.724   5.072 -0.2889 -0.4274 -0.4649
 9613SOL     OW29808   2.109   2.644   1.348 -0.1071  0.3955 -0.3652
 9613SOL    HW129809   2.176   2.577   1.362 -0.8060 -0.5569 -1.3189
 9613SOL    HW229810   2.051   2.636   1.423  0.2199  0.4349 -0.1080
 9614SOL     OW29811   0.237   6.975   3.010 -0.0146 -0.4464 -0.1257
 9614SOL    HW129812   0.215   7.068   3.011  0.6939 -0.2797  0.0738
 9614SOL    HW229813   0.167   6.935   2.958 -0.3032  0.1986 -0.2449
 9615SOL     OW29814   6.371   4.283   3.408 -0.0998 -0.2744  0.3041
 9615SOL    HW129815   6.386   4.377   3.420  1.5330 -0.4276 -0.2965
 9615SOL    HW229816   6.346   4.275   3.316 -2.3465 -0.2288  0.8638
 9616SOL     OW29817   2.027   2.079   2.591 -0.1312  0.4276  0.8556
 9616SOL    HW129818   1.958   2.128   2.635 -1.0326 -0.7273  0.7748
 9616SOL    HW229819   1.988   1.994   2.571  0.3384  0.7395 -1.8335
 9617SOL     OW29820   6.135   1.891   3.667 -0.1753 -0.0749  0.1225
 9617SOL    HW129821   6.086   1.902   3.585 -1.0607  0.0310  0.6522
 9617SOL    HW229822   6.186   1.812   3.653 -1.4378 -0.9033 -0.0151
 9618SOL     OW29823   4.502   7.272   2.566  0.3715 -0.3854  0.3627
 9618SOL    HW129824   4.452   7.190   2.570 -0.0394 -0.0993  1.4999
 9618SOL    HW229825   4.472   7.322   2.642  0.4134  0.9447 -0.4580
 9619SOL     OW29826   0.960   5.362   3.663 -0.4945 -0.2151  0.0031
 9619SOL    HW129827   1.013   5.301   3.714  0.4090  0.4669 -0.1092
 9619SOL    HW229828   0.997   5.358   3.575 -0.0772  0.8749  0.1117
 9620SOL     OW29829   7.003   0.535   7.296 -0.0865 -0.6130 -0.1663
 9620SOL    HW129830   7.083   0.583   7.316  0.4677 -1.8752  0.7953
 9620SOL    HW229831   7.006   0.520   7.201 -0.0501  0.8001 -0.4070
 9621SOL     OW29832   3.604   5.364   6.158 -0.0032  0.2055 -0.7388
 9621SOL    HW129833   3.681   5.313   6.134  2.0651  1.5040  2.4346
 9621SOL    HW229834   3.612   5.445   6.107  0.1441 -0.0801 -1.1730
 9622SOL     OW29835   5.899   0.485   2.425 -0.3496  0.5103  0.1049
 9622SOL    HW129836   5.890   0.393   2.449 -1.3331  1.0758  2.0787
 9622SOL    HW229837   5.811   0.522   2.437  0.0096  1.7000 -0.7396
 9623SOL     OW29838   3.229   1.070   1.479 -0.0283 -0.1649  0.3960
 9623SOL    HW129839   3.251   0.994   1.533 -1.0917  0.8768  2.3904
 9623SOL    HW229840   3.135   1.062   1.463 -0.1873  0.8261  0.7927
 9624SOL     OW29841   4.025   2.628   1.900 -0.0850 -0.1521  0.2931
 9624SOL    HW129842   4.095   2.674   1.944  1.7063 -1.8371 -0.6472
 9624SOL    HW229843   4.012   2.676   1.818 -1.2234  1.1144  1.1733
 9625SOL     OW29844   3.911   4.834   3.472 -0.0428  0.2635  0.2087
 9625SOL    HW129845   3.854   4.816   3.547 -0.8632  0.4367 -0.3644
 9625SOL    HW229846   3.907   4.755   3.419  1.3522 -0.2662  0.8378
 9626SOL     OW29847   6.126   2.364   4.329  0.2184 -1.2184 -0.2747
 9626SOL    HW129848   6.190   2.428   4.359  0.8557 -1.7688 -0.4410
 9626SOL    HW229849   6.156   2.339   4.242 -1.6853  0.4713 -1.5121
 9627SOL     OW29850   4.605   3.751   3.160 -0.3138  0.6323  0.1372
 9627SOL    HW129851   4.593   3.803   3.240  0.2684  1.3281 -0.2214
 9627SOL    HW229852   4.642   3.669   3.191 -2.4798 -0.1469  0.8619
 9628SOL     OW29853   1.455   0.246   5.040 -0.2195  0.5686  0.3083
 9628SOL    HW129854   1.543   0.239   5.076 -1.1633 -0.4442  2.6532
 9628SOL    HW229855   1.441   0.163   4.994  0.4597  1.2530 -1.1905
 9629SOL     OW29856   6.114   1.122   0.350 -0.3844 -0.0760 -0.4661
 9629SOL    HW129857   6.187   1.131   0.411 -0.2748  0.8857 -0.7337
 9629SOL    HW229858   6.108   1.027   0.335 -1.1353 -0.4627  1.8682
 9630SOL     OW29859   5.698   3.916   6.986  0.1720  0.7943  0.0863
 9630SOL    HW129860   5.621   3.925   7.042  0.1121 -0.5269  0.2440
 9630SOL    HW229861   5.770   3.950   7.038  0.0014  0.2531  0.6829
 9631SOL     OW29862   0.966   1.608   2.011  0.1968  0.5635 -0.5635
 9631SOL    HW129863   0.943   1.539   2.073 -0.9742  0.7365 -0.7797
 9631SOL    HW229864   0.949   1.569   1.925  1.4054  0.4706 -0.7812
 9632SOL     OW29865   6.824   0.679   1.248 -0.3091 -0.1538 -0.5818
 9632SOL    HW129866   6.851   0.612   1.185  1.4073  0.3397 -0.4060
 9632SOL    HW229867   6.891   0.746   1.242 -1.5773  1.1994 -0.1684
 9633SOL     OW29868   6.022   2.770   2.954 -0.6131 -0.1058  0.4270
 9633SOL    HW129869   6.072   2.699   2.913 -1.3901  0.6675 -2.0012
 9633SOL    HW229870   6.068   2.787   3.037  0.4368 -2.4253  0.3948
 9634SOL     OW29871   0.611   3.932   3.040  0.2986  0.1394 -0.6234
 9634SOL    HW129872   0.596   3.974   3.124  1.8362  0.2354 -0.3662
 9634SOL    HW229873   0.545   3.863   3.036  1.4385 -1.1994  1.6071
 9635SOL     OW29874   4.546   7.239   6.746  0.3637 -0.1148  0.7466
 9635SOL    HW129875   4.506   7.190   6.674  0.7567  0.6284  0.0047
 9635SOL    HW229876   4.477   7.296   6.778  0.0079 -0.8731  1.3818
 9636SOL     OW29877   0.028   1.112   2.925  0.1050 -0.5170 -0.5057
 9636SOL    HW129878   0.078   1.151   2.997 -1.1490  1.8727 -0.8374
 9636SOL    HW229879  -0.003   1.029   2.960 -0.5610  0.6262  1.8108
 9637SOL     OW29880   2.386   2.321   5.208 -0.4398  0.4336 -0.3114
 9637SOL    HW129881   2.385   2.399   5.152  0.0838  1.2982  0.8504
 9637SOL    HW229882   2.468   2.277   5.186 -0.2077  0.8018 -0.1933
 9638SOL     OW29883   0.726   1.679   0.347  0.0024 -0.1977 -0.3324
 9638SOL    HW129884   0.745   1.765   0.310 -0.8921  0.4886  0.7231
 9638SOL    HW229885   0.636   1.661   0.320 -1.3796  1.1636  2.8634
 9639SOL     OW29886   1.773   0.817   4.818 -0.0954  0.1262 -0.0009
 9639SOL    HW129887   1.706   0.827   4.750  0.0579  2.3487  0.0915
 9639SOL    HW229888   1.820   0.900   4.817  0.9339 -0.3872  1.7600
 9640SOL     OW29889   3.588   3.839   0.798 -1.1168  0.4164  0.0906
 9640SOL    HW129890   3.557   3.895   0.868  0.9215  1.3950  0.3033
 9640SOL    HW229891   3.647   3.895   0.746  0.2558 -1.2275 -0.2508
 9641SOL     OW29892   3.409   3.905   1.134 -0.2952 -0.5852 -0.1347
 9641SOL    HW129893   3.459   3.863   1.203  1.6521 -0.0784 -1.1440
 9641SOL    HW229894   3.470   3.969   1.096 -1.3725 -0.6230 -2.0842
 9642SOL     OW29895   5.776   2.617   3.828 -0.0826  0.2733 -0.4931
 9642SOL    HW129896   5.741   2.529   3.835  1.6102 -0.2893  1.5684
 9642SOL    HW229897   5.775   2.651   3.917  0.9487  1.6852 -0.9831
 9643SOL     OW29898   2.492   1.398   5.922  0.6400 -0.2497  0.2654
 9643SOL    HW129899   2.558   1.343   5.878  0.2834 -1.3236  1.0197
 9643SOL    HW229900   2.542   1.449   5.986  1.1087  1.0369 -1.0607
 9644SOL     OW29901   2.407   3.981   3.353 -0.3218 -0.4803  0.4597
 9644SOL    HW129902   2.502   3.978   3.369 -0.2089 -1.0134 -0.2504
 9644SOL    HW229903   2.371   4.026   3.429  0.8459  3.0286 -0.8324
 9645SOL     OW29904   1.972   5.657   1.930  0.5941 -0.8549 -0.5279
 9645SOL    HW129905   2.058   5.622   1.908  0.6039 -1.3861  0.3346
 9645SOL    HW229906   1.988   5.749   1.952  0.9657 -0.9866 -0.2352
 9646SOL     OW29907   1.862   2.925   4.526 -0.1143 -0.4633 -0.1123
 9646SOL    HW129908   1.829   2.850   4.477 -0.4787 -2.5751  3.0482
 9646SOL    HW229909   1.872   2.892   4.616 -0.4603  3.3212  1.4904
 9647SOL     OW29910   1.885   1.542   2.090  0.0251  0.2091  0.2110
 9647SOL    HW129911   1.851   1.621   2.048  0.9208  1.5441  1.8816
 9647SOL    HW229912   1.964   1.571   2.135 -0.2502 -1.3987  1.8175
 9648SOL     OW29913   2.934   1.732   4.657 -0.1103  0.1182 -0.0542
 9648SOL    HW129914   3.013   1.703   4.702 -0.4813 -2.0569 -0.7032
 9648SOL    HW229915   2.964   1.757   4.569  0.0320  0.6575  0.1390
 9649SOL     OW29916   4.038   2.680   7.097 -0.1593  0.0077  0.3375
 9649SOL    HW129917   4.040   2.656   7.004 -3.0715 -0.3230  0.2882
 9649SOL    HW229918   4.073   2.769   7.099  1.4145 -0.5171 -0.8040
 9650SOL     OW29919   5.950   1.498   4.648  0.0196  0.3514  0.0755
 9650SOL    HW129920   6.013   1.429   4.669 -0.0840 -0.3220 -1.6543
 9650SOL    HW229921   5.989   1.544   4.573 -0.7273  1.0609  0.1066
 9651SOL     OW29922   1.227   3.400   5.498  0.1569  0.2586  0.2154
 9651SOL    HW129923   1.253   3.348   5.422  0.9299  2.0819 -0.8311
 9651SOL    HW229924   1.131   3.402   5.494  0.1135 -1.0664  0.2916
 9652SOL     OW29925   6.903   5.024   1.168  0.0578 -0.3248 -0.0628
 9652SOL    HW129926   6.906   5.114   1.136 -1.4702  0.3985  1.6452
 9652SOL    HW229927   6.937   4.971   1.095 -1.3703  1.3800 -2.0749
 9653SOL     OW29928   4.663   6.819   4.287 -0.2261 -0.2776  0.5352
 9653SOL    HW129929   4.707   6.753   4.233  0.0457  0.8779 -0.7470
 9653SOL    HW229930   4.597   6.857   4.228 -2.2720 -1.2403  2.0900
 9654SOL     OW29931   1.533   2.686   5.712  0.2468  0.0182 -0.0311
 9654SOL    HW129932   1.449   2.701   5.669 -0.9934 -2.2855  1.4010
 9654SOL    HW229933   1.589   2.650   5.644 -0.6076 -0.4021 -0.5278
 9655SOL     OW29934   1.963   5.475   6.671 -0.1093  0.3243 -0.1715
 9655SOL    HW129935   1.994   5.530   6.599 -1.0553  0.3507 -0.5702
 9655SOL    HW229936   1.923   5.536   6.733 -0.6750  0.1527 -0.3602
 9656SOL     OW29937   5.371   4.043   6.317  0.0908 -0.4823  0.1276
 9656SOL    HW129938   5.373   3.954   6.353 -1.6114 -0.6761 -0.1428
 9656SOL    HW229939   5.287   4.078   6.347  0.0527  0.4767 -1.0602
 9657SOL     OW29940   5.823   1.170   0.326 -0.0132 -0.5319 -0.3519
 9657SOL    HW129941   5.917   1.154   0.317  0.2746  0.3388  0.8555
 9657SOL    HW229942   5.785   1.084   0.345  0.3046 -1.1478 -2.2884
 9658SOL     OW29943   7.243   6.955   0.408 -0.1689 -0.1314  0.5640
 9658SOL    HW129944   7.230   6.882   0.468  0.0013  0.0361  0.8090
 9658SOL    HW229945   7.335   6.981   0.422 -0.4668  0.6706  1.0902
 9659SOL     OW29946   5.405   1.581   6.634  0.1514  0.1386  0.6506
 9659SOL    HW129947   5.393   1.637   6.711  2.6610  0.2357  1.0845
 9659SOL    HW229948   5.419   1.494   6.671  0.3094 -0.0132  0.2345
 9660SOL     OW29949   4.550   2.808   2.642  0.3475 -0.2462 -0.5041
 9660SOL    HW129950   4.620   2.872   2.654 -0.0155 -0.1499  1.4952
 9660SOL    HW229951   4.594   2.723   2.644  0.9616 -0.1686 -4.1409
 9661SOL     OW29952   3.501   3.478   6.670  0.1209  0.2585  0.0619
 9661SOL    HW129953   3.498   3.384   6.654  0.0870  0.2125  0.3343
 9661SOL    HW229954   3.477   3.488   6.762  1.9706  0.3851  0.5694
 9662SOL     OW29955   1.908   0.278   6.545 -1.0403  0.1876  0.6257
 9662SOL    HW129956   1.884   0.215   6.613 -2.0722 -0.1473 -0.0289
 9662SOL    HW229957   1.842   0.266   6.477 -0.5538  1.1544 -0.0359
 9663SOL     OW29958   3.208   6.140   3.540  0.5311 -0.0410  0.1214
 9663SOL    HW129959   3.161   6.144   3.624  1.1357  0.1152  0.4629
 9663SOL    HW229960   3.139   6.144   3.474  0.1027  0.8809  0.6039
 9664SOL     OW29961   3.356   3.453   0.430  0.1608  0.1740 -0.0579
 9664SOL    HW129962   3.282   3.393   0.424 -0.3982  0.7570  0.7035
 9664SOL    HW229963   3.323   3.536   0.395  1.1647 -0.1391 -1.8396
 9665SOL     OW29964   2.658   6.942   5.395  0.5998 -0.0408 -0.1170
 9665SOL    HW129965   2.681   6.950   5.302 -1.1370  0.9373 -0.5136
 9665SOL    HW229966   2.645   6.848   5.409 -0.3921 -0.0796 -1.2082
 9666SOL     OW29967   1.499   1.619   3.890 -0.1828 -0.0710 -0.6004
 9666SOL    HW129968   1.560   1.578   3.829  0.7000 -0.8966  0.7618
 9666SOL    HW229969   1.501   1.562   3.967  1.1265  2.4416  1.4217
 9667SOL     OW29970   6.227   1.426   1.301  0.1292 -0.3540 -0.1695
 9667SOL    HW129971   6.298   1.387   1.249 -0.4800 -1.1106 -0.4443
 9667SOL    HW229972   6.185   1.351   1.343  0.9464  0.2590  1.8868
 9668SOL     OW29973   5.528   0.708   4.160  0.1051  0.0165 -0.1805
 9668SOL    HW129974   5.588   0.763   4.108 -1.1428  3.8180  2.0243
 9668SOL    HW229975   5.584   0.668   4.226  0.8444 -0.3159 -0.9810
 9669SOL     OW29976   2.580   0.657   4.396  0.1438 -0.2394  0.2163
 9669SOL    HW129977   2.558   0.740   4.438 -0.7216  0.3693 -1.3260
 9669SOL    HW229978   2.663   0.631   4.436 -2.4298 -1.8233  5.1698
 9670SOL     OW29979   0.318   3.024   6.205  0.0432  0.3990  0.0345
 9670SOL    HW129980   0.227   3.025   6.176 -0.2876  3.2879  0.8521
 9670SOL    HW229981   0.370   3.039   6.126 -0.4884  2.3885  0.0042
 9671SOL     OW29982   3.939   1.218   6.598  0.6488 -0.0626  0.2995
 9671SOL    HW129983   3.929   1.278   6.523  2.9803  0.6395  0.4703
 9671SOL    HW229984   3.912   1.133   6.564 -0.5817  0.6688 -0.6258
 9672SOL     OW29985   2.698   2.763   1.069  0.2302  0.1994  0.5304
 9672SOL    HW129986   2.706   2.852   1.103 -1.3074  0.6356 -0.1342
 9672SOL    HW229987   2.630   2.723   1.123 -0.3307  0.0205 -0.2898
 9673SOL     OW29988   6.086   1.622   3.098 -0.3477  0.0097 -0.6640
 9673SOL    HW129989   6.146   1.650   3.168 -1.2172 -0.5356  0.3404
 9673SOL    HW229990   6.131   1.548   3.057 -1.1129 -1.7348  1.4092
 9674SOL     OW29991   6.597   5.186   0.266  0.6259  0.3737  0.2506
 9674SOL    HW129992   6.510   5.192   0.305  1.5344 -1.0264  2.7140
 9674SOL    HW229993   6.593   5.108   0.210  0.6208 -0.4863  1.4128
 9675SOL     OW29994   1.707   5.231   0.310 -0.1013  0.7875  0.0557
 9675SOL    HW129995   1.728   5.183   0.390 -0.2013  1.2532  0.3699
 9675SOL    HW229996   1.659   5.308   0.341 -2.0769 -0.1064 -0.6070
 9676SOL     OW29997   3.157   5.317   0.500 -0.6798 -0.1740 -0.4004
 9676SOL    HW129998   3.141   5.223   0.491 -0.1275 -0.2845 -0.2907
 9676SOL    HW229999   3.183   5.346   0.412  0.2698 -0.3580 -0.1961
 9677SOL     OW30000   2.200   3.864   1.833  0.1778 -0.2931  0.1886
 9677SOL    HW130001   2.105   3.857   1.844 -0.0668  0.9929 -0.9379
 9677SOL    HW230002   2.233   3.871   1.923 -0.9482  0.8576  0.5477
 9678SOL     OW30003   0.656   4.670   0.647  0.1127 -0.2966 -0.1102
 9678SOL    HW130004   0.615   4.584   0.656 -1.0715  0.2672  0.0466
 9678SOL    HW230005   0.707   4.680   0.727  0.2599 -0.8481 -0.1297
 9679SOL     OW30006   5.562   4.872   0.950  0.2427 -0.3566 -0.1427
 9679SOL    HW130007   5.568   4.935   1.021  0.0138 -0.2081 -0.2548
 9679SOL    HW230008   5.653   4.858   0.922  0.1700  1.6322 -1.6017
 9680SOL     OW30009   3.794   6.784   0.860  0.0903  0.2711 -0.0998
 9680SOL    HW130010   3.713   6.754   0.901  0.7712 -0.8336  0.4834
 9680SOL    HW230011   3.856   6.713   0.874  0.9218  0.7260 -1.3097
 9681SOL     OW30012   1.680   2.671   6.185  0.3950  0.1850  0.7141
 9681SOL    HW130013   1.623   2.703   6.115 -0.3673 -0.5367  0.9870
 9681SOL    HW230014   1.636   2.592   6.217  1.6611 -0.5145  0.7811
 9682SOL     OW30015   5.265   0.244   7.076 -0.2471 -0.1473  0.0117
 9682SOL    HW130016   5.282   0.158   7.036 -0.0773 -0.8707  1.5638
 9682SOL    HW230017   5.352   0.279   7.093 -0.3135 -0.2143  0.4916
 9683SOL     OW30018   3.316   1.570   7.329 -0.2517 -0.5702 -0.2464
 9683SOL    HW130019   3.274   1.652   7.356  0.8269 -0.2588  0.5153
 9683SOL    HW230020   3.346   1.587   7.240  0.3153 -0.0025  0.0513
 9684SOL     OW30021   6.267   3.072   5.609  0.2321  0.6267 -0.1024
 9684SOL    HW130022   6.234   3.101   5.524 -0.4180  0.1514 -0.0212
 9684SOL    HW230023   6.303   2.985   5.593  1.3799  1.0848 -0.1644
 9685SOL     OW30024   3.826   2.639   5.038  0.0794  0.1265  0.0188
 9685SOL    HW130025   3.841   2.545   5.043  2.3121  0.4917  1.3488
 9685SOL    HW230026   3.761   2.649   4.968  0.7516 -2.2893 -1.0498
 9686SOL     OW30027   0.944   3.437   4.311  0.5172  0.0866 -0.3887
 9686SOL    HW130028   0.947   3.513   4.369 -0.2023 -0.3053  0.1794
 9686SOL    HW230029   0.913   3.366   4.367  1.4969 -0.7026 -0.8272
 9687SOL     OW30030   6.842   6.556   3.934  0.4301  0.0334  0.0365
 9687SOL    HW130031   6.750   6.582   3.942  0.1696  0.0398 -2.4025
 9687SOL    HW230032   6.840   6.470   3.892  1.5345 -0.0665  0.1502
 9688SOL     OW30033   0.737   6.033   3.730 -0.3105  0.2698  0.1344
 9688SOL    HW130034   0.692   6.051   3.812 -2.1495 -1.4326 -0.4393
 9688SOL    HW230035   0.730   6.114   3.680 -0.3827  0.8669  1.0971
 9689SOL     OW30036   1.995   0.995   6.829 -0.6563 -0.3404 -0.1373
 9689SOL    HW130037   1.916   0.978   6.777 -0.0798 -1.6798 -0.6461
 9689SOL    HW230038   1.965   0.991   6.919 -1.4372  0.6809 -0.3340
 9690SOL     OW30039   0.472   4.436   7.380  0.0350 -0.2525 -0.4804
 9690SOL    HW130040   0.463   4.353   7.332 -2.0545 -0.7104  0.6258
 9690SOL    HW230041   0.499   4.410   7.468 -1.2590  0.1661  0.0558
 9691SOL     OW30042   5.881   7.249   2.307 -0.0696  0.1977 -0.0269
 9691SOL    HW130043   5.817   7.267   2.376 -0.8635  0.3853 -0.7884
 9691SOL    HW230044   5.949   7.197   2.350 -0.1184  1.0313  1.0878
 9692SOL     OW30045   0.080   2.481   2.756 -0.4653  0.4069 -0.2040
 9692SOL    HW130046   0.175   2.480   2.751 -0.4485  0.4082  0.1388
 9692SOL    HW230047   0.054   2.555   2.701 -0.2500  0.6662  0.0440
 9693SOL     OW30048   3.886   5.577   2.030  0.1194  0.3169 -0.0742
 9693SOL    HW130049   3.901   5.613   2.117  0.4081  0.3935 -0.1554
 9693SOL    HW230050   3.926   5.640   1.970 -1.1298  0.9030 -0.3473
 9694SOL     OW30051   5.358   5.691   0.652  0.6525 -0.0243 -0.1385
 9694SOL    HW130052   5.262   5.686   0.652  0.5978  0.2274  1.6804
 9694SOL    HW230053   5.386   5.615   0.704  1.3627  0.6079  0.4271
 9695SOL     OW30054   2.495   6.176   6.511 -0.4656  0.4216 -0.6432
 9695SOL    HW130055   2.468   6.259   6.550  0.5755  0.9949 -1.0904
 9695SOL    HW230056   2.587   6.190   6.486  0.2559 -1.3592  0.7117
 9696SOL     OW30057   5.487   2.293   2.617 -0.2874 -0.2503  0.0969
 9696SOL    HW130058   5.552   2.362   2.618 -0.9237  0.3915 -0.9197
 9696SOL    HW230059   5.437   2.305   2.698 -0.1218  0.2182  0.1293
 9697SOL     OW30060   1.198   4.788   1.462 -0.1161  0.2699 -0.1864
 9697SOL    HW130061   1.257   4.854   1.425 -0.3761 -0.3163 -1.6898
 9697SOL    HW230062   1.167   4.738   1.387  1.1041 -2.4479  0.9854
 9698SOL     OW30063   6.036   5.367   4.325 -0.0351 -0.0591  0.0258
 9698SOL    HW130064   6.047   5.304   4.253 -1.8367 -0.6891  0.2445
 9698SOL    HW230065   6.024   5.451   4.282 -1.7110 -0.5261 -0.4661
 9699SOL     OW30066   2.864   0.463   1.736 -0.5791 -0.0966  0.1858
 9699SOL    HW130067   2.867   0.436   1.828 -1.8701 -0.7074  0.0668
 9699SOL    HW230068   2.806   0.538   1.734 -0.6257 -0.1387 -0.1491
 9700SOL     OW30069   3.641   2.625   4.822 -0.1634 -0.1787  0.4346
 9700SOL    HW130070   3.644   2.534   4.794 -0.4843  0.3739 -1.5250
 9700SOL    HW230071   3.548   2.646   4.828 -0.1986  0.8467 -2.2337
 9701SOL     OW30072   0.042   1.993   5.055 -0.0556 -0.2023 -0.4617
 9701SOL    HW130073   0.086   1.908   5.054  0.7460  0.1879 -2.5324
 9701SOL    HW230074   0.106   2.053   5.093 -0.4443 -0.4109  0.5527
 9702SOL     OW30075   6.282   4.358   5.019  0.7777 -0.3649 -0.6739
 9702SOL    HW130076   6.376   4.377   5.021  0.5913  0.5877 -0.5971
 9702SOL    HW230077   6.277   4.262   5.024  1.7412 -0.4250 -0.6656
 9703SOL     OW30078   5.365   2.674   0.733 -0.5232  0.5085 -0.0686
 9703SOL    HW130079   5.280   2.714   0.717 -1.1125 -0.1336  1.2898
 9703SOL    HW230080   5.349   2.580   0.730  0.6223  0.3297 -2.0992
 9704SOL     OW30081   6.863   7.238   1.549  0.1531  0.2839 -0.1464
 9704SOL    HW130082   6.857   7.302   1.620 -1.2444  1.2327 -1.0731
 9704SOL    HW230083   6.891   7.289   1.472 -0.5217 -0.2979 -0.7936
 9705SOL     OW30084   5.538   2.624   2.289  0.5317  0.3466  0.3496
 9705SOL    HW130085   5.585   2.541   2.286  1.2599  0.7683 -0.6745
 9705SOL    HW230086   5.605   2.690   2.270  0.3573  1.3760  2.8987
 9706SOL     OW30087   5.914   6.559   3.462  0.0543  0.1093 -0.4190
 9706SOL    HW130088   5.899   6.637   3.409 -1.7367  0.4414  0.5186
 9706SOL    HW230089   5.922   6.592   3.552 -0.5494 -0.7534 -0.0325
 9707SOL     OW30090   1.870   6.644   2.373  0.3329  0.0460  0.0661
 9707SOL    HW130091   1.952   6.604   2.402  0.3837 -1.0746 -1.4565
 9707SOL    HW230092   1.864   6.726   2.421  0.5650 -1.4654  2.8626
 9708SOL     OW30093   2.790   4.522   0.567 -0.1729  0.1613  0.1467
 9708SOL    HW130094   2.758   4.554   0.483  0.9019  0.4870 -0.1510
 9708SOL    HW230095   2.881   4.497   0.550  0.1977  0.6559  1.3123
 9709SOL     OW30096   0.043   2.990   4.851 -0.1045  0.5982 -0.2939
 9709SOL    HW130097   0.016   2.953   4.936 -0.5335  2.0272  0.2170
 9709SOL    HW230098  -0.027   2.964   4.791 -0.9670  1.5000  0.3019
 9710SOL     OW30099   1.633   7.360   0.283 -0.3997  0.3456 -0.0103
 9710SOL    HW130100   1.629   7.330   0.193  0.5939 -1.2984  0.4473
 9710SOL    HW230101   1.643   7.455   0.276  4.7914 -0.0073 -1.9110
 9711SOL     OW30102   0.630   1.889   0.907 -0.1543 -0.0302  0.5249
 9711SOL    HW130103   0.698   1.881   0.839 -0.2662  1.1946  0.2336
 9711SOL    HW230104   0.566   1.949   0.868 -1.3644 -1.0738  0.8406
 9712SOL     OW30105   6.067   3.815   5.872 -0.3388  0.3121  0.2904
 9712SOL    HW130106   6.047   3.909   5.870  0.1241  0.5403  2.8170
 9712SOL    HW230107   5.984   3.772   5.852 -0.8347  1.2644  0.2513
 9713SOL     OW30108   0.199   0.971   7.182 -0.1239  0.0472 -0.1182
 9713SOL    HW130109   0.140   1.044   7.164  0.5637  0.4486 -0.8034
 9713SOL    HW230110   0.277   1.013   7.219  0.5510 -0.2532 -1.1553
 9714SOL     OW30111   5.305   4.611   7.181  0.3378  0.3152  0.1382
 9714SOL    HW130112   5.369   4.540   7.174 -0.5782 -0.5918  0.5968
 9714SOL    HW230113   5.305   4.634   7.274 -1.3581 -1.0358  0.5183
 9715SOL     OW30114   4.807   0.869   1.689  0.0118 -0.5387  0.2019
 9715SOL    HW130115   4.723   0.901   1.720  0.0299  1.5655 -1.6658
 9715SOL    HW230116   4.872   0.919   1.739  0.0504  1.2702 -1.5395
 9716SOL     OW30117   5.336   1.157   1.520  0.5927  0.0331  0.1368
 9716SOL    HW130118   5.266   1.116   1.571  0.0619 -0.0443 -0.6317
 9716SOL    HW230119   5.293   1.227   1.471  0.6967 -1.0033 -1.5484
 9717SOL     OW30120   6.565   2.618   5.572 -0.3294  0.1318  0.3503
 9717SOL    HW130121   6.559   2.711   5.549 -1.6081  0.6154  2.3011
 9717SOL    HW230122   6.596   2.619   5.663  1.5241 -1.4651 -0.2230
 9718SOL     OW30123   6.067   2.021   7.377 -0.5860 -0.6111  0.1911
 9718SOL    HW130124   6.161   2.013   7.363 -0.8297 -0.9090 -1.6107
 9718SOL    HW230125   6.035   1.931   7.377 -1.0677 -0.4649 -1.1249
 9719SOL     OW30126   3.495   3.153   3.494 -0.1141 -0.5913 -0.1025
 9719SOL    HW130127   3.532   3.226   3.543 -0.9052 -1.3856  1.7733
 9719SOL    HW230128   3.541   3.155   3.410  1.9038  0.3120  0.9506
 9720SOL     OW30129   1.444   4.221   2.836 -0.1856  0.3667 -0.1898
 9720SOL    HW130130   1.386   4.145   2.829  0.2153 -0.0013  0.3936
 9720SOL    HW230131   1.490   4.209   2.919 -1.2508  2.0550  0.7172
 9721SOL     OW30132   1.284   3.611   5.648 -0.0814 -0.4285 -0.2985
 9721SOL    HW130133   1.252   3.539   5.593  2.3562 -1.3389 -0.6805
 9721SOL    HW230134   1.369   3.633   5.610 -0.7973  2.8162 -0.2699
 9722SOL     OW30135   3.595   3.821   3.281  0.0001 -0.3548  0.0189
 9722SOL    HW130136   3.619   3.737   3.241  1.6412  0.2033 -0.2474
 9722SOL    HW230137   3.505   3.836   3.252  0.1964 -1.2909 -1.1824
 9723SOL     OW30138   2.746   0.540   4.588 -0.3533 -0.1842  0.7099
 9723SOL    HW130139   2.704   0.498   4.664  1.3103  0.8227  2.2465
 9723SOL    HW230140   2.827   0.577   4.622 -0.3023  1.6839 -1.2460
 9724SOL     OW30141   5.598   4.159   2.471 -0.5417  0.0302 -0.0015
 9724SOL    HW130142   5.586   4.205   2.555  0.4692  2.8288 -1.2400
 9724SOL    HW230143   5.510   4.132   2.445 -0.9313 -0.4434  1.6991
 9725SOL     OW30144   2.560   1.482   2.681 -0.3763 -0.0738  0.0791
 9725SOL    HW130145   2.556   1.451   2.590 -0.6959 -1.4783  0.5577
 9725SOL    HW230146   2.472   1.466   2.715  0.2106 -1.1548  1.1356
 9726SOL     OW30147   2.436   5.221   5.681 -0.3562  0.3132  0.0627
 9726SOL    HW130148   2.442   5.194   5.589  0.3082  2.0670 -0.4539
 9726SOL    HW230149   2.520   5.264   5.698 -1.0821  1.4074  1.0070
 9727SOL     OW30150   4.465   2.469   3.822  0.2763  0.4649  0.3664
 9727SOL    HW130151   4.399   2.537   3.838 -0.4314 -0.3198  0.8263
 9727SOL    HW230152   4.541   2.498   3.873  0.4986  1.6673 -0.6209
 9728SOL     OW30153   4.517   3.828   1.537  0.7336  0.0040  0.0396
 9728SOL    HW130154   4.452   3.758   1.546 -0.1207  0.7013 -0.6086
 9728SOL    HW230155   4.499   3.886   1.611  1.8315 -0.7375  0.9299
 9729SOL     OW30156   7.150   2.530   2.888  0.1377 -0.3993 -0.4043
 9729SOL    HW130157   7.161   2.515   2.794  0.3425 -1.6114 -0.1997
 9729SOL    HW230158   7.230   2.495   2.928 -0.6731 -1.4626  0.3572
 9730SOL     OW30159   1.180   3.684   2.520 -0.1154 -0.3417 -0.2642
 9730SOL    HW130160   1.108   3.743   2.499  0.3869  0.2303 -0.4055
 9730SOL    HW230161   1.221   3.723   2.597  0.2239 -0.4958 -0.3642
 9731SOL     OW30162   1.239   1.741   4.377 -0.2428 -0.2588  0.0164
 9731SOL    HW130163   1.239   1.645   4.379 -0.1057 -0.3123 -1.7101
 9731SOL    HW230164   1.177   1.766   4.446 -0.2956 -1.5811  0.4735
 9732SOL     OW30165   0.543   2.688   0.472  0.4879  0.2495 -0.3483
 9732SOL    HW130166   0.502   2.756   0.525  1.4370  0.0704  0.6654
 9732SOL    HW230167   0.577   2.733   0.396  2.0153  1.1350  0.8019
 9733SOL     OW30168   3.815   3.246   2.609  0.2193  0.3898 -0.1245
 9733SOL    HW130169   3.888   3.268   2.666 -0.3107 -0.3741  0.8689
 9733SOL    HW230170   3.852   3.248   2.521  0.9413  2.0086  0.1801
 9734SOL     OW30171   2.140   3.085   5.533  0.3118  0.2011 -0.4006
 9734SOL    HW130172   2.169   2.997   5.556  0.1204  0.5318  1.1625
 9734SOL    HW230173   2.084   3.072   5.456  0.1896 -1.0493 -0.1229
 9735SOL     OW30174   5.492   5.730   6.676  0.4603  0.0889  0.3403
 9735SOL    HW130175   5.500   5.655   6.618  0.1974  1.1375 -1.1157
 9735SOL    HW230176   5.572   5.781   6.660  0.8465 -0.0878  1.6305
 9736SOL     OW30177   3.866   5.181   6.531 -0.2066  0.4682 -0.6046
 9736SOL    HW130178   3.814   5.142   6.461 -0.4653  0.6279 -0.5070
 9736SOL    HW230179   3.854   5.123   6.605  0.3054  0.1411 -0.7751
 9737SOL     OW30180   7.037   0.369   4.276 -0.0847 -0.1029 -0.3101
 9737SOL    HW130181   7.068   0.428   4.206 -1.1061  0.1175 -0.5891
 9737SOL    HW230182   7.080   0.286   4.258  0.5125  0.2507 -0.5601
 9738SOL     OW30183   5.440   2.864   4.192  0.2612 -0.6388  0.6272
 9738SOL    HW130184   5.530   2.838   4.172  0.4279  0.4003 -0.0645
 9738SOL    HW230185   5.401   2.885   4.108 -0.6689 -1.1507  0.9171
 9739SOL     OW30186   0.214   5.049   4.520  0.0224  0.2386 -0.3644
 9739SOL    HW130187   0.276   4.976   4.531  0.0958  0.0622 -1.7801
 9739SOL    HW230188   0.132   5.006   4.497  0.6925  0.6087 -4.0020
 9740SOL     OW30189   5.034   6.439   1.605  0.3334 -0.1396 -0.0099
 9740SOL    HW130190   5.005   6.349   1.591  1.5891 -0.4675 -0.6429
 9740SOL    HW230191   5.066   6.440   1.695  0.1039 -0.2488  0.0758
 9741SOL     OW30192   1.079   1.247   1.927 -0.0010 -0.9730  0.3032
 9741SOL    HW130193   1.166   1.283   1.943 -0.5052  0.1630  0.6084
 9741SOL    HW230194   1.073   1.171   1.984  0.2302 -0.1480  1.4587
 9742SOL     OW30195   4.730   7.017   0.774 -0.4142  0.1627  0.1360
 9742SOL    HW130196   4.746   6.938   0.826  2.9589 -0.1147 -1.0554
 9742SOL    HW230197   4.730   6.986   0.683  0.2651  1.4216 -0.3219
 9743SOL     OW30198   4.770   4.958   3.004  0.3877  0.6483 -0.0512
 9743SOL    HW130199   4.737   4.952   2.914 -1.8289 -1.1150  0.7897
 9743SOL    HW230200   4.701   5.004   3.052  0.0547 -1.1941  1.3448
 9744SOL     OW30201   4.296   3.403   3.047  0.1344 -0.1699  0.2310
 9744SOL    HW130202   4.206   3.369   3.043  0.3968 -0.7680 -2.6450
 9744SOL    HW230203   4.312   3.440   2.960  1.9091  2.1113  1.4208
 9745SOL     OW30204   3.324   6.502   0.297  0.3568 -0.0410 -0.2841
 9745SOL    HW130205   3.403   6.469   0.340 -0.0742  1.1583  1.5325
 9745SOL    HW230206   3.352   6.583   0.253  0.5424 -0.6565 -1.3304
 9746SOL     OW30207   3.142   3.547   5.697  0.0637 -0.0818  0.0610
 9746SOL    HW130208   3.141   3.567   5.791  0.1315  3.8383 -0.5917
 9746SOL    HW230209   3.050   3.548   5.672  0.1458  3.4770 -0.5483
 9747SOL     OW30210   2.491   6.140   5.847 -0.4997  0.0817  0.4596
 9747SOL    HW130211   2.500   6.064   5.904  1.6877  0.4763  0.7478
 9747SOL    HW230212   2.572   6.189   5.860 -1.5219  2.0823 -0.2817
 9748SOL     OW30213   6.588   6.580   0.079  0.1120  0.0220 -0.4782
 9748SOL    HW130214   6.625   6.635   0.010 -0.0744  0.7543 -0.0062
 9748SOL    HW230215   6.575   6.494   0.038 -1.1269  0.7592 -1.7137
 9749SOL     OW30216   3.205   1.362   0.602  0.2245 -0.2513  0.2214
 9749SOL    HW130217   3.210   1.441   0.656 -1.8824 -0.8072  1.3426
 9749SOL    HW230218   3.188   1.395   0.514 -0.5148  0.5772  0.6547
 9750SOL     OW30219   4.747   5.547   3.207  0.1671 -0.1249  0.3274
 9750SOL    HW130220   4.792   5.626   3.236  3.5770 -0.8513 -2.3080
 9750SOL    HW230221   4.787   5.476   3.257  0.0464 -0.5459 -0.1609
 9751SOL     OW30222   1.252   5.055   5.816  0.2181 -0.1711 -0.0161
 9751SOL    HW130223   1.297   5.077   5.734 -0.4623 -0.6083 -0.5223
 9751SOL    HW230224   1.194   5.130   5.832 -1.1337 -0.9525 -1.0365
 9752SOL     OW30225   7.333   0.565   2.616 -0.2592  0.1966  0.3780
 9752SOL    HW130226   7.419   0.567   2.657 -0.1647  2.7564  0.1673
 9752SOL    HW230227   7.293   0.484   2.649  0.6803  0.9576  3.7191
 9753SOL     OW30228   3.228   4.351   3.067 -0.4429  0.3538 -0.4793
 9753SOL    HW130229   3.209   4.270   3.115 -0.6772  1.1506  0.8282
 9753SOL    HW230230   3.290   4.398   3.123 -0.9922  1.4703 -0.7852
 9754SOL     OW30231   6.131   6.889   1.010 -0.1404  0.4752  0.0385
 9754SOL    HW130232   6.178   6.953   0.957  0.1270  0.1083 -0.1703
 9754SOL    HW230233   6.079   6.942   1.071 -0.2981  0.9014 -0.4520
 9755SOL     OW30234   7.201   3.376   4.897  0.1676 -0.2998  0.0564
 9755SOL    HW130235   7.123   3.390   4.844 -0.3228 -5.1962 -0.8993
 9755SOL    HW230236   7.169   3.377   4.988 -0.7821 -0.9537 -0.2624
 9756SOL     OW30237   6.623   6.889   6.045  0.2293  0.3097  0.3389
 9756SOL    HW130238   6.666   6.961   6.091  0.7412  0.5988 -0.5807
 9756SOL    HW230239   6.533   6.920   6.032  0.3685  0.6595  0.2063
 9757SOL     OW30240   2.780   5.249   4.438 -0.3346 -0.5337  0.0702
 9757SOL    HW130241   2.836   5.281   4.367  0.3985 -1.9006  0.0054
 9757SOL    HW230242   2.759   5.327   4.489  1.4845  0.0454 -0.0156
 9758SOL     OW30243   0.331   4.675   2.403  0.2768 -0.0770 -0.0996
 9758SOL    HW130244   0.384   4.614   2.351  1.6175 -1.5348  2.7620
 9758SOL    HW230245   0.367   4.761   2.381  1.3213 -0.7075 -0.9978
 9759SOL     OW30246   3.342   2.957   4.927 -0.0755 -0.2584 -0.3833
 9759SOL    HW130247   3.357   2.939   4.834 -0.6595 -1.4332 -0.2579
 9759SOL    HW230248   3.268   3.017   4.928  1.4223  1.7259 -0.7621
 9760SOL     OW30249   6.663   3.043   1.076  0.9221  0.0705  0.3176
 9760SOL    HW130250   6.603   3.117   1.066  1.0532  0.0837 -0.4176
 9760SOL    HW230251   6.606   2.971   1.103  0.7684  0.3885  0.8694
 9761SOL     OW30252   0.982   5.325   1.364 -0.2996 -0.2970  0.0176
 9761SOL    HW130253   0.892   5.354   1.375 -0.4350 -0.7217  0.0402
 9761SOL    HW230254   0.990   5.250   1.421  0.5149  0.6514  1.1967
 9762SOL     OW30255   1.005   4.913   4.826  0.1634  0.2878 -0.2132
 9762SOL    HW130256   1.013   4.846   4.893  0.1153  0.2707 -0.2244
 9762SOL    HW230257   1.069   4.980   4.851 -0.6874  0.8457  0.5136
 9763SOL     OW30258   0.131   0.791   1.895  0.1413  0.2401  0.0764
 9763SOL    HW130259   0.051   0.804   1.844  0.1374  0.3807  0.1181
 9763SOL    HW230260   0.196   0.848   1.853  0.5717 -0.8414 -0.7547
 9764SOL     OW30261   1.810   1.777   6.720  0.3023  0.0067  0.8375
 9764SOL    HW130262   1.761   1.710   6.768  0.6872  0.4638  1.9017
 9764SOL    HW230263   1.902   1.762   6.744  0.8308 -1.2487 -1.6250
 9765SOL     OW30264   1.306   5.841   3.307 -0.3956  0.5095 -0.2023
 9765SOL    HW130265   1.382   5.800   3.268  1.2114  3.5918 -0.6609
 9765SOL    HW230266   1.231   5.794   3.271  1.2044 -0.6802 -2.1665
 9766SOL     OW30267   4.513   7.177   3.819 -0.4453 -0.8181  0.3150
 9766SOL    HW130268   4.465   7.127   3.753  1.9485 -1.8323 -0.7894
 9766SOL    HW230269   4.505   7.124   3.899  0.5795 -2.1536 -0.4103
 9767SOL     OW30270   1.586   2.339   1.062 -0.2652 -0.1827 -0.2016
 9767SOL    HW130271   1.636   2.272   1.109 -1.2751 -1.1770 -0.5132
 9767SOL    HW230272   1.502   2.342   1.107 -1.0262 -0.7071 -1.5551
 9768SOL     OW30273   1.410   6.235   2.411 -0.2233  0.3222 -0.0916
 9768SOL    HW130274   1.441   6.147   2.389  0.0155  0.3042  0.3020
 9768SOL    HW230275   1.433   6.288   2.335 -1.6335 -0.2348 -0.9329
 9769SOL     OW30276   4.793   2.159   2.909  0.0373  0.0272 -0.4796
 9769SOL    HW130277   4.708   2.132   2.875  0.5299 -0.6404 -1.2417
 9769SOL    HW230278   4.786   2.254   2.920 -1.2939 -0.2128  0.9425
 9770SOL     OW30279   1.938   1.293   1.636  0.0510 -0.5477 -0.3212
 9770SOL    HW130280   1.941   1.260   1.726 -1.0204 -0.8676 -0.3885
 9770SOL    HW230281   2.001   1.364   1.634  0.3615 -0.7860  0.5828
 9771SOL     OW30282   3.452   3.630   6.925  0.0137 -0.9772  0.1852
 9771SOL    HW130283   3.368   3.640   6.879 -0.4874 -0.9013  1.0914
 9771SOL    HW230284   3.443   3.686   7.002  1.1787 -0.4172 -0.0700
 9772SOL     OW30285   0.740   6.194   2.915  0.1442 -0.5721 -0.2700
 9772SOL    HW130286   0.811   6.150   2.960 -0.4555  0.5438  1.9321
 9772SOL    HW230287   0.660   6.153   2.948 -0.3141 -0.5631 -1.2995
 9773SOL     OW30288   7.254   2.246   4.235  0.2055  0.3269  0.0669
 9773SOL    HW130289   7.163   2.265   4.212  0.3435  1.0701  0.1121
 9773SOL    HW230290   7.249   2.196   4.316 -0.2206 -1.0004 -0.7451
 9774SOL     OW30291   5.639   4.342   1.042 -0.0924  0.1396  0.0339
 9774SOL    HW130292   5.565   4.326   1.100  0.3190  0.4174  0.6526
 9774SOL    HW230293   5.648   4.438   1.041 -0.1536  0.1417 -0.5652
 9775SOL     OW30294   7.339   5.411   0.182 -0.3693 -0.6007 -0.2150
 9775SOL    HW130295   7.339   5.368   0.096  0.0396 -0.5388 -0.2453
 9775SOL    HW230296   7.407   5.478   0.176 -1.5606  0.6186 -0.4408
 9776SOL     OW30297   5.351   1.428   5.276 -0.5047 -0.0700  0.0846
 9776SOL    HW130298   5.312   1.438   5.362  0.3513 -1.0722  0.6075
 9776SOL    HW230299   5.332   1.511   5.232 -1.5751  0.1778  0.9635
 9777SOL     OW30300   5.435   6.073   7.259  0.3698 -0.2340 -0.2221
 9777SOL    HW130301   5.366   6.026   7.211 -0.1439 -1.2142  1.4099
 9777SOL    HW230302   5.418   6.165   7.240 -1.3584 -0.4605  0.0530
 9778SOL     OW30303   2.674   2.861   1.840  0.0470 -0.2270  0.3188
 9778SOL    HW130304   2.579   2.850   1.844 -0.2959  1.4895 -1.3751
 9778SOL    HW230305   2.689   2.952   1.868  1.4804 -1.0926  2.7460
 9779SOL     OW30306   4.780   5.255   2.338  0.7448 -0.0305  0.5063
 9779SOL    HW130307   4.703   5.227   2.387 -1.6028  1.0668 -2.2279
 9779SOL    HW230308   4.843   5.184   2.348 -0.1451 -0.4930  3.7289
 9780SOL     OW30309   4.642   0.374   5.547 -0.2597 -0.7636  0.2118
 9780SOL    HW130310   4.584   0.444   5.577 -1.5195 -0.9237 -1.6576
 9780SOL    HW230311   4.730   0.405   5.569 -0.8952  0.6381  0.8995
 9781SOL     OW30312   4.726   1.893   4.181 -0.4313 -0.0567 -0.0167
 9781SOL    HW130313   4.683   1.812   4.208  0.2984 -0.1575  0.8957
 9781SOL    HW230314   4.798   1.903   4.243  0.3838  0.5113 -1.0424
 9782SOL     OW30315   4.352   2.238   4.824 -0.1677  0.1361 -0.2731
 9782SOL    HW130316   4.379   2.223   4.914  0.5171 -0.5524 -0.5826
 9782SOL    HW230317   4.280   2.177   4.810 -0.1409  0.1028 -0.2631
 9783SOL     OW30318   3.674   2.639   4.437 -0.1571 -0.1076 -0.2079
 9783SOL    HW130319   3.649   2.553   4.405  0.4357 -0.3701  0.0275
 9783SOL    HW230320   3.611   2.658   4.507  0.0719 -0.6029  0.1327
 9784SOL     OW30321   4.151   6.833   0.546 -0.0924 -0.5704  1.1502
 9784SOL    HW130322   4.241   6.862   0.533  0.0360 -1.4068  0.0294
 9784SOL    HW230323   4.156   6.738   0.542 -1.1931 -0.6006 -0.2303
 9785SOL     OW30324   5.933   5.530   4.555 -0.2918  0.2374 -0.2682
 9785SOL    HW130325   5.976   5.474   4.490  0.7355  0.3633  0.2730
 9785SOL    HW230326   5.933   5.617   4.515 -0.4551  0.1520 -0.4560
 9786SOL     OW30327   0.572   1.584   3.689 -0.5282 -0.0259 -0.6793
 9786SOL    HW130328   0.576   1.675   3.718 -0.4616 -0.3321  0.3242
 9786SOL    HW230329   0.600   1.586   3.598  0.1973  0.8650 -0.4459
 9787SOL     OW30330   0.540   5.057   5.211  0.1850 -0.5826  0.0055
 9787SOL    HW130331   0.465   5.022   5.259  0.5670  1.7389  2.5802
 9787SOL    HW230332   0.612   4.998   5.233 -0.1653 -0.8744  0.3882
 9788SOL     OW30333   2.426   2.674   2.022  0.7017 -0.6045  0.5539
 9788SOL    HW130334   2.339   2.709   2.041  0.5784 -1.2132  1.1424
 9788SOL    HW230335   2.481   2.705   2.095  1.4497  1.3830 -0.7720
 9789SOL     OW30336   0.121   1.916   3.853 -0.2422 -0.1963  0.2373
 9789SOL    HW130337   0.029   1.937   3.838  0.4086  2.1667 -0.9751
 9789SOL    HW230338   0.160   1.997   3.886  1.6650 -0.7369 -0.5150
 9790SOL     OW30339   3.117   3.678   6.257 -0.2959  0.2638 -0.1234
 9790SOL    HW130340   3.170   3.740   6.308 -0.1431  0.4036 -0.4478
 9790SOL    HW230341   3.038   3.665   6.309 -0.3012  0.6886 -0.0239
 9791SOL     OW30342   4.024   2.794   5.245  0.0132  0.4779 -0.0085
 9791SOL    HW130343   4.071   2.764   5.323 -1.5996  0.0048  0.8280
 9791SOL    HW230344   4.084   2.857   5.204  0.5779  1.3869  2.0727
 9792SOL     OW30345   1.111   5.824   6.650  0.1704 -0.2246 -0.0649
 9792SOL    HW130346   1.146   5.885   6.715 -2.5759  1.2310  0.2250
 9792SOL    HW230347   1.110   5.740   6.695  0.6143  0.2602  0.8925
 9793SOL     OW30348   1.485   3.276   5.204  0.0534  0.4576 -0.2068
 9793SOL    HW130349   1.409   3.270   5.146  0.2514  0.9228 -0.5274
 9793SOL    HW230350   1.521   3.188   5.207  0.3573  0.5410 -1.2313
 9794SOL     OW30351   0.861   3.489   7.319  0.5159  0.2090  0.2369
 9794SOL    HW130352   0.796   3.449   7.377  0.3480  1.3336  0.8362
 9794SOL    HW230353   0.809   3.539   7.256  0.7764  0.9682  0.6116
 9795SOL     OW30354   6.143   1.702   4.564  0.3037 -0.7712  0.2803
 9795SOL    HW130355   6.214   1.753   4.525 -0.1652  0.5611  1.0977
 9795SOL    HW230356   6.097   1.764   4.620 -2.3042 -1.2386 -1.1723
 9796SOL     OW30357   3.228   0.798   6.483 -0.3001 -0.0808  0.1181
 9796SOL    HW130358   3.258   0.718   6.526 -2.3182 -1.1109 -0.2723
 9796SOL    HW230359   3.189   0.850   6.554 -3.1522 -1.5474 -0.2558
 9797SOL     OW30360   4.071   6.576   2.146  1.0034  0.4211  0.2147
 9797SOL    HW130361   4.093   6.612   2.232 -3.7378  0.8802  1.5777
 9797SOL    HW230362   4.058   6.482   2.162  2.1814  0.1124 -0.5601
 9798SOL     OW30363   0.210   0.573   6.069 -0.2158 -0.1742 -1.1654
 9798SOL    HW130364   0.272   0.634   6.029 -1.8496  1.8731 -0.7484
 9798SOL    HW230365   0.261   0.494   6.086  1.4505  0.2259 -3.8033
 9799SOL     OW30366   3.289   2.549   6.533  0.0091 -0.1865  0.0857
 9799SOL    HW130367   3.266   2.579   6.621 -1.2025  1.5131 -0.7455
 9799SOL    HW230368   3.384   2.533   6.538  0.5106  2.4460  1.0709
 9800SOL     OW30369   2.826   1.234   6.048  0.5549 -0.0431  1.3835
 9800SOL    HW130370   2.791   1.241   5.959  2.8974  1.0389  0.4551
 9800SOL    HW230371   2.862   1.146   6.052  0.7564  0.0247  1.1178
 9801SOL     OW30372   2.357   3.084   0.084 -0.9180 -0.1669  1.1624
 9801SOL    HW130373   2.334   2.991   0.079  1.9384 -0.9377 -2.6875
 9801SOL    HW230374   2.310   3.124   0.010  0.6291  0.6321  0.5626
 9802SOL     OW30375   1.204   3.054   1.685 -0.1465  0.2127  0.2960
 9802SOL    HW130376   1.293   3.043   1.652 -0.5292 -0.8611 -0.4385
 9802SOL    HW230377   1.212   3.048   1.780  0.2244 -2.9623  0.1524
 9803SOL     OW30378   7.178   4.177   0.960  0.3589  0.2655 -0.1765
 9803SOL    HW130379   7.110   4.216   1.014  1.6959 -0.1653  1.8964
 9803SOL    HW230380   7.219   4.251   0.915 -1.3098  0.5433 -1.3591
 9804SOL     OW30381   0.844   5.136   1.044  0.4277 -0.1673 -0.1417
 9804SOL    HW130382   0.783   5.207   1.059  1.8160  0.7745  1.3081
 9804SOL    HW230383   0.793   5.056   1.057 -1.1975  0.4823 -1.9737
 9805SOL     OW30384   6.282   0.648   4.343  0.5395 -0.0905 -0.0233
 9805SOL    HW130385   6.195   0.628   4.378 -0.7058  1.2551 -2.0834
 9805SOL    HW230386   6.319   0.712   4.405 -1.2169  1.5698 -0.5941
 9806SOL     OW30387   0.990   5.492   1.149 -0.4735  0.3079  0.0513
 9806SOL    HW130388   1.072   5.539   1.162  0.2995 -0.8028 -0.6261
 9806SOL    HW230389   0.981   5.437   1.227  0.8998 -1.6308 -1.0638
 9807SOL     OW30390   0.691   5.973   0.397  0.0372  0.0059 -0.1754
 9807SOL    HW130391   0.669   5.942   0.310 -0.9862  0.5619 -0.1329
 9807SOL    HW230392   0.610   5.963   0.448 -0.0177  1.6579  0.1232
 9808SOL     OW30393   4.121   3.064   0.559 -0.1637  0.4309 -0.3651
 9808SOL    HW130394   4.108   3.105   0.645  1.2609  1.4336 -0.5999
 9808SOL    HW230395   4.054   2.995   0.556 -0.4414  0.5567  1.4159
 9809SOL     OW30396   0.398   5.344   1.109  0.0459 -0.2240 -0.2582
 9809SOL    HW130397   0.338   5.404   1.151  0.2412 -1.8486  2.6076
 9809SOL    HW230398   0.342   5.284   1.060 -0.5655 -0.6076  0.8758
 9810SOL     OW30399   0.276   1.202   2.226 -0.0161  0.5464  0.0928
 9810SOL    HW130400   0.365   1.218   2.195  0.5416 -0.1333  1.2482
 9810SOL    HW230401   0.225   1.183   2.147  1.1405 -0.2351 -0.4885
 9811SOL     OW30402   0.117   6.809   0.543  0.1918  0.2931  0.0745
 9811SOL    HW130403   0.125   6.867   0.467 -2.8161 -0.0669 -0.6602
 9811SOL    HW230404   0.099   6.868   0.616  1.8365  0.5535  0.2951
 9812SOL     OW30405   3.533   6.689   4.210  0.6770  0.1309  0.1091
 9812SOL    HW130406   3.442   6.715   4.225  0.6128 -0.8257  1.4892
 9812SOL    HW230407   3.528   6.625   4.139  0.3081  0.2846 -0.0074
 9813SOL     OW30408   5.452   4.083   0.882  0.2843  0.1964  0.4888
 9813SOL    HW130409   5.498   3.999   0.872  1.3800  0.6007  1.8741
 9813SOL    HW230410   5.463   4.127   0.798  2.0327  0.0711  0.6240
 9814SOL     OW30411   1.453   4.113   1.436  0.2957  0.3337 -0.2320
 9814SOL    HW130412   1.539   4.076   1.413 -0.0476 -1.0952  0.6338
 9814SOL    HW230413   1.390   4.053   1.398 -0.2938  0.3010  0.7461
 9815SOL     OW30414   0.590   6.255   7.050 -0.8664 -0.4194  0.1119
 9815SOL    HW130415   0.577   6.255   6.955 -2.1806 -0.3276  0.2724
 9815SOL    HW230416   0.613   6.346   7.071 -0.3242 -0.4939 -0.1394
 9816SOL     OW30417   6.565   3.124   6.116 -0.2002 -0.5384 -0.3382
 9816SOL    HW130418   6.593   3.033   6.122 -0.4884 -0.6138 -0.1126
 9816SOL    HW230419   6.528   3.132   6.028  0.9354 -0.3148 -0.8157
 9817SOL     OW30420   0.690   2.030   4.776  0.7866  0.6612  0.4351
 9817SOL    HW130421   0.680   1.983   4.858 -0.3304  0.6950  0.3253
 9817SOL    HW230422   0.602   2.035   4.740  1.1232  1.4686 -0.3084
 9818SOL     OW30423   6.353   7.374   5.877  0.5825 -0.4624  0.4131
 9818SOL    HW130424   6.284   7.354   5.814 -0.4026  0.2609  1.2344
 9818SOL    HW230425   6.365   7.469   5.871  0.1174 -0.3088  1.6567
 9819SOL     OW30426   3.749   6.994   2.079 -0.0526  0.2157  0.5775
 9819SOL    HW130427   3.809   7.063   2.107  0.3227  0.6304 -1.1439
 9819SOL    HW230428   3.785   6.914   2.117  0.6889  0.6822  0.8787
 9820SOL     OW30429   2.131   0.885   6.586  0.1908 -0.3038  0.4484
 9820SOL    HW130430   2.069   0.924   6.647  0.2760 -1.2052  1.1298
 9820SOL    HW230431   2.215   0.887   6.631  0.8258  1.4941 -0.7173
 9821SOL     OW30432   0.983   6.821   7.145 -0.0600 -0.0752  0.0022
 9821SOL    HW130433   0.981   6.831   7.050  0.1199 -4.9045 -0.7608
 9821SOL    HW230434   1.076   6.823   7.167 -0.1287  1.7547  0.2873
 9822SOL     OW30435   5.526   0.020   4.073  0.9578 -0.2960 -0.2495
 9822SOL    HW130436   5.592  -0.032   4.026  1.8353 -1.0796  1.7696
 9822SOL    HW230437   5.451  -0.040   4.083  0.2091  0.3212 -1.7893
 9823SOL     OW30438   5.621   0.188   2.959 -0.3123  0.2533 -0.1164
 9823SOL    HW130439   5.669   0.260   3.000 -0.1399 -0.6401  1.3256
 9823SOL    HW230440   5.628   0.205   2.865 -0.0537  1.9596  0.1808
 9824SOL     OW30441   2.221   3.260   7.306  0.1165  0.1450  0.5189
 9824SOL    HW130442   2.145   3.289   7.356  0.8357  0.4059  1.4800
 9824SOL    HW230443   2.189   3.251   7.216 -0.8530  1.0253  0.7636
 9825SOL     OW30444   2.083   6.211   6.443  0.1366 -0.2938  0.3714
 9825SOL    HW130445   2.081   6.274   6.371 -0.8219 -0.6400  0.0794
 9825SOL    HW230446   2.032   6.253   6.512  2.4153  0.7769  1.5255
 9826SOL     OW30447   4.503   6.043   0.685  0.2545 -0.2132  0.0566
 9826SOL    HW130448   4.472   5.953   0.671  0.6059 -0.0961 -1.7425
 9826SOL    HW230449   4.455   6.094   0.619  0.3974  0.8458  0.7650
 9827SOL     OW30450   6.849   3.029   4.124 -0.1692  0.5398  0.4583
 9827SOL    HW130451   6.928   2.994   4.165  0.4373  1.0819 -0.2162
 9827SOL    HW230452   6.799   3.067   4.195  1.0589  1.8521  0.6639
 9828SOL     OW30453   1.660   3.321   5.741 -0.1439  0.0641  0.7905
 9828SOL    HW130454   1.639   3.381   5.812  2.5401  0.6531  1.1660
 9828SOL    HW230455   1.609   3.353   5.667 -0.9283  1.0747  1.7305
 9829SOL     OW30456   5.720   6.066   3.001 -0.4805 -0.4511 -0.1067
 9829SOL    HW130457   5.715   6.069   2.905 -2.7049  0.0102 -0.0336
 9829SOL    HW230458   5.706   5.974   3.023 -0.6776 -0.4476 -0.2130
 9830SOL     OW30459   3.063   1.898   6.038 -0.3195  0.1849 -0.4924
 9830SOL    HW130460   3.130   1.895   6.106  0.3986 -0.7010 -1.2015
 9830SOL    HW230461   3.045   1.991   6.025 -1.2135  0.3473  1.5929
 9831SOL     OW30462   4.309   3.248   5.172 -0.4690 -0.0071 -0.1115
 9831SOL    HW130463   4.372   3.305   5.215  0.7160 -1.5049  0.2097
 9831SOL    HW230464   4.357   3.209   5.099 -1.8849  1.0073 -1.6815
 9832SOL     OW30465   2.980   1.631   3.472 -0.0867 -0.3585 -0.3218
 9832SOL    HW130466   3.060   1.606   3.518  0.7219  0.7135 -1.0624
 9832SOL    HW230467   3.001   1.618   3.380 -0.7972 -0.1373 -0.5187
 9833SOL     OW30468   3.778   4.503   5.642  0.2101  0.2092  0.1366
 9833SOL    HW130469   3.767   4.482   5.549  2.2619  2.7427 -0.8109
 9833SOL    HW230470   3.829   4.429   5.677 -1.9292 -1.5591 -0.2557
 9834SOL     OW30471   4.767   4.463   6.218  0.3265 -0.0565 -0.4731
 9834SOL    HW130472   4.804   4.436   6.134  1.9045 -0.3127  0.2687
 9834SOL    HW230473   4.836   4.517   6.258  0.3871 -1.4563  1.4459
 9835SOL     OW30474   6.522   2.337   0.168 -0.2539  0.1191  0.4807
 9835SOL    HW130475   6.590   2.389   0.126 -1.1692  0.9617 -0.0149
 9835SOL    HW230476   6.441   2.363   0.124 -0.6065 -2.8247 -0.8666
 9836SOL     OW30477   4.925   6.635   0.583  0.4957 -0.7482 -0.2410
 9836SOL    HW130478   4.906   6.634   0.677  1.9661 -0.0571  0.0938
 9836SOL    HW230479   4.840   6.631   0.541 -0.2268 -0.3535  1.1385
 9837SOL     OW30480   3.014   5.127   1.693 -0.1621 -0.0486  0.1143
 9837SOL    HW130481   2.973   5.166   1.615  0.5862 -0.3202 -0.4264
 9837SOL    HW230482   3.013   5.033   1.676  2.5434  0.0192 -0.9084
 9838SOL     OW30483   5.228   6.305   5.003 -0.0028  0.1480  0.7208
 9838SOL    HW130484   5.210   6.306   5.097 -1.2453  1.7340  0.5127
 9838SOL    HW230485   5.170   6.237   4.968 -0.7823  0.7088  0.9015
 9839SOL     OW30486   0.832   3.014   7.319  0.0873  0.3345 -0.0324
 9839SOL    HW130487   0.920   3.020   7.281 -0.5699  0.4101 -1.6530
 9839SOL    HW230488   0.799   2.930   7.289 -0.0216 -0.1636  1.4497
 9840SOL     OW30489   0.840   1.784   4.122  0.3115  0.0537 -0.3324
 9840SOL    HW130490   0.867   1.782   4.031 -0.2656  0.4179 -0.5172
 9840SOL    HW230491   0.745   1.771   4.119  0.0466  1.6700  0.0899
 9841SOL     OW30492   7.259   1.387   2.231 -0.0070 -0.6811 -0.4324
 9841SOL    HW130493   7.255   1.346   2.145  0.7843 -0.9397 -0.3557
 9841SOL    HW230494   7.289   1.476   2.213 -0.5094 -0.5201 -0.4841
 9842SOL     OW30495   0.052   2.835   5.357 -0.1502 -0.3982 -0.1548
 9842SOL    HW130496  -0.008   2.872   5.422 -0.2921 -0.4085 -0.2776
 9842SOL    HW230497   0.059   2.743   5.382  0.2875 -0.2643  0.2134
 9843SOL     OW30498   0.811   3.465   1.707  0.3202 -0.2205  0.5600
 9843SOL    HW130499   0.762   3.519   1.645  0.3314 -0.3993  0.3944
 9843SOL    HW230500   0.807   3.513   1.789  0.4593  0.1106  0.3778
 9844SOL     OW30501   1.037   0.467   0.024  0.3314  0.0428 -0.0846
 9844SOL    HW130502   1.037   0.506  -0.063  1.0337  0.5040  0.1081
 9844SOL    HW230503   0.955   0.496   0.064 -0.3327 -0.7503 -0.8294
 9845SOL     OW30504   5.753   0.579   4.339 -0.0219 -0.3616  0.5665
 9845SOL    HW130505   5.817   0.622   4.395  2.7008 -2.3794 -0.7658
 9845SOL    HW230506   5.783   0.597   4.250 -0.9436 -1.8988 -0.0975
 9846SOL     OW30507   0.646   5.554   0.183  0.3011  0.2472 -0.1682
 9846SOL    HW130508   0.652   5.463   0.153  3.7671  1.3012 -3.3734
 9846SOL    HW230509   0.694   5.555   0.266  1.1403 -0.6762 -0.6253
 9847SOL     OW30510   2.722   0.757   7.126  0.1888 -0.7042  1.0440
 9847SOL    HW130511   2.810   0.745   7.162 -0.1518  0.3245  2.2892
 9847SOL    HW230512   2.665   0.760   7.203 -1.2270 -3.2175  0.2255
 9848SOL     OW30513   6.285   6.748   5.873  0.4210  0.6298 -0.0656
 9848SOL    HW130514   6.350   6.707   5.816 -0.7360  0.3972 -1.2594
 9848SOL    HW230515   6.268   6.833   5.834 -1.6080 -0.1897 -1.0808
 9849SOL     OW30516   1.359   2.929   2.269  0.2551  0.1126  0.1092
 9849SOL    HW130517   1.307   2.889   2.199 -0.7466 -1.5328  1.7168
 9849SOL    HW230518   1.443   2.949   2.227 -0.8049  0.5905 -1.9310
 9850SOL     OW30519   3.676   3.190   3.833 -0.0068 -0.2827 -0.3653
 9850SOL    HW130520   3.623   3.240   3.895  0.1104 -1.1256  0.4447
 9850SOL    HW230521   3.696   3.252   3.763  1.5566  1.3252  1.3942
 9851SOL     OW30522   0.482   5.854   4.890 -0.4054 -0.2599  0.0151
 9851SOL    HW130523   0.541   5.921   4.857 -0.4214 -0.1820  0.1443
 9851SOL    HW230524   0.533   5.773   4.885 -0.3897 -0.2406 -0.1497
 9852SOL     OW30525   0.372   4.855   3.695 -0.0601  0.0173  0.8781
 9852SOL    HW130526   0.356   4.820   3.783  0.5407  0.7753  1.3010
 9852SOL    HW230527   0.450   4.808   3.665 -0.6529 -0.7360  0.4528
 9853SOL     OW30528   1.629   6.259   4.474  0.2101 -0.1832  0.1645
 9853SOL    HW130529   1.609   6.173   4.439 -0.5779  0.3927 -0.8209
 9853SOL    HW230530   1.697   6.294   4.416  0.3308 -0.0259  0.3967
 9854SOL     OW30531   5.123   0.893   4.341 -0.6524 -0.2068  0.4782
 9854SOL    HW130532   5.175   0.960   4.386 -0.9397  1.3108 -1.3402
 9854SOL    HW230533   5.183   0.855   4.277 -1.2509  0.2970 -0.4006
 9855SOL     OW30534   2.586   3.573   0.320  0.5730  0.0190  0.3944
 9855SOL    HW130535   2.497   3.605   0.308 -0.9777 -3.1691  1.9470
 9855SOL    HW230536   2.627   3.637   0.378 -1.9926 -0.1737  2.6094
 9856SOL     OW30537   3.247   0.213   0.105  0.2166  0.4160  0.5733
 9856SOL    HW130538   3.185   0.285   0.120 -0.1215  0.1873  0.2806
 9856SOL    HW230539   3.194   0.134   0.114  0.2356  0.2416 -0.7320
 9857SOL     OW30540   1.463   6.052   3.468 -0.2406 -0.5388 -0.0994
 9857SOL    HW130541   1.494   6.015   3.551  0.8539  1.6118  0.5122
 9857SOL    HW230542   1.427   5.977   3.421  1.3588 -2.2645  1.2766
 9858SOL     OW30543   6.527   5.666   4.835 -0.1154  0.5131  0.0616
 9858SOL    HW130544   6.521   5.760   4.853 -1.7879  0.3399  0.5724
 9858SOL    HW230545   6.437   5.639   4.817  0.4994 -0.7657 -1.3397
 9859SOL     OW30546   4.044   4.809   1.150  0.0138  0.1527 -0.3275
 9859SOL    HW130547   4.063   4.834   1.241  0.8751  1.1034 -0.7356
 9859SOL    HW230548   4.035   4.893   1.105 -1.2474 -0.3159 -0.9662
 9860SOL     OW30549   4.459   5.694   4.003  0.1829 -0.1867 -0.6351
 9860SOL    HW130550   4.386   5.708   3.943 -0.0265 -0.9413 -0.5724
 9860SOL    HW230551   4.537   5.697   3.948  0.2750  2.2337 -0.4778
 9861SOL     OW30552   5.186   1.946   6.478  0.3254 -0.1634  0.2212
 9861SOL    HW130553   5.138   1.907   6.552  1.2305 -1.0601  0.3625
 9861SOL    HW230554   5.260   1.887   6.464  0.7978  0.6150 -0.6807
 9862SOL     OW30555   4.541   4.545   0.831  0.5453 -0.0640  0.0203
 9862SOL    HW130556   4.458   4.541   0.783  1.2296  0.9028 -1.3022
 9862SOL    HW230557   4.567   4.454   0.842 -0.7241 -0.3860  0.5420
 9863SOL     OW30558   0.734   5.754   5.713  0.0792 -0.0966 -0.1630
 9863SOL    HW130559   0.785   5.789   5.787  0.6202  0.0145 -0.5833
 9863SOL    HW230560   0.756   5.811   5.640 -1.4031  0.5585 -0.1354
 9864SOL     OW30561   0.698   0.522   6.732  0.3914 -0.2561 -0.5786
 9864SOL    HW130562   0.705   0.505   6.638 -0.0174 -1.8536 -0.3677
 9864SOL    HW230563   0.632   0.459   6.762  1.4192 -0.6568  0.9758
 9865SOL     OW30564   7.309   7.200   0.866  0.1662  0.3422  0.1406
 9865SOL    HW130565   7.341   7.126   0.918  0.7170  0.3610 -0.1621
 9865SOL    HW230566   7.249   7.246   0.925 -0.4241 -0.5179  0.2247
 9866SOL     OW30567   5.141   4.151   4.635  0.5262  0.1060  0.2202
 9866SOL    HW130568   5.191   4.227   4.663  2.0541 -0.8663  0.2545
 9866SOL    HW230569   5.170   4.080   4.692 -0.4375 -0.6361 -0.1771
 9867SOL     OW30570   2.346   0.110   5.305  0.2387 -0.0714  0.0302
 9867SOL    HW130571   2.293   0.070   5.374 -0.4716  0.4544 -0.1955
 9867SOL    HW230572   2.369   0.038   5.247 -0.7327 -0.2261 -0.1844
 9868SOL     OW30573   1.034   1.825   1.097  0.5224  0.2257  0.8108
 9868SOL    HW130574   1.065   1.851   1.010  1.0697 -0.2586  0.8593
 9868SOL    HW230575   0.956   1.879   1.111  1.5027  1.7223  0.8303
 9869SOL     OW30576   5.635   3.025   5.990  0.2896 -0.1195  0.0029
 9869SOL    HW130577   5.730   3.019   5.995  0.3963  0.7328 -0.6718
 9869SOL    HW230578   5.617   3.119   5.987 -0.6601 -0.2376  1.3439
 9870SOL     OW30579   4.031   0.605   5.675  0.5119 -0.0379 -0.0057
 9870SOL    HW130580   4.058   0.696   5.684  1.9993 -0.5525  1.2358
 9870SOL    HW230581   4.060   0.563   5.756  0.8192 -1.8267 -0.9820
 9871SOL     OW30582   0.947   3.142   4.825  0.1434  0.6454 -0.5297
 9871SOL    HW130583   1.018   3.198   4.857 -0.5050  0.8079  0.6784
 9871SOL    HW230584   0.943   3.070   4.888  0.1156 -0.0892 -1.3495
 9872SOL     OW30585   1.694   5.819   0.445  0.1241  0.4539 -0.2243
 9872SOL    HW130586   1.695   5.723   0.448 -3.7705  0.2300 -1.0944
 9872SOL    HW230587   1.684   5.845   0.537 -0.5444 -0.1016 -0.1281
 9873SOL     OW30588   6.344   5.074   0.033  0.0902  0.8269  0.1889
 9873SOL    HW130589   6.267   5.042   0.080  0.4008 -0.2843 -0.0195
 9873SOL    HW230590   6.417   5.026   0.072  0.3068 -0.4549 -1.6809
 9874SOL     OW30591   6.260   6.029   4.310  0.1968  0.4881 -0.0834
 9874SOL    HW130592   6.167   6.051   4.320  0.2686  0.2792  1.2550
 9874SOL    HW230593   6.306   6.101   4.353  0.7876  1.6746 -2.5426
 9875SOL     OW30594   3.916   1.202   5.911 -0.5024  0.1159  0.0848
 9875SOL    HW130595   3.861   1.124   5.907 -0.8868  0.4164 -0.7844
 9875SOL    HW230596   3.857   1.271   5.939  0.1954 -0.1913  2.5217
 9876SOL     OW30597   4.928   5.173   1.194 -0.7284  0.6515  0.4368
 9876SOL    HW130598   4.849   5.184   1.141 -1.3855 -0.1092  1.2265
 9876SOL    HW230599   4.928   5.080   1.216  0.4675  0.6177  0.3376
 9877SOL     OW30600   3.906   4.786   0.078 -0.2819  0.0030  0.5197
 9877SOL    HW130601   3.898   4.798   0.173 -4.2403  1.7768  0.1472
 9877SOL    HW230602   3.830   4.732   0.055 -0.2612  0.8946 -1.8285
 9878SOL     OW30603   0.684   6.123   0.788  0.0224  0.3422  0.2050
 9878SOL    HW130604   0.674   6.180   0.713 -0.8299  1.5585  1.2065
 9878SOL    HW230605   0.734   6.175   0.851 -1.9153  0.5547  1.6610
 9879SOL     OW30606   6.101   5.251   2.703  0.4956  0.1677  0.9316
 9879SOL    HW130607   6.063   5.338   2.690  0.3310 -0.0706 -0.3020
 9879SOL    HW230608   6.032   5.190   2.675  0.8154 -0.3403  1.2383
 9880SOL     OW30609   1.278   5.613   0.899  0.0040  0.1451  0.1586
 9880SOL    HW130610   1.314   5.549   0.837  0.3154  0.6402 -0.1804
 9880SOL    HW230611   1.328   5.693   0.883  0.5389  0.1096  1.4905
 9881SOL     OW30612   2.168   6.574   7.173 -0.4642  0.1574 -0.7376
 9881SOL    HW130613   2.245   6.630   7.169 -0.7404  0.4895 -2.4756
 9881SOL    HW230614   2.201   6.488   7.198  0.5037  0.2621 -1.5943
 9882SOL     OW30615   1.872   4.811   1.827 -0.0430  0.9855 -0.0936
 9882SOL    HW130616   1.790   4.780   1.864 -0.6136  1.4825 -0.9103
 9882SOL    HW230617   1.848   4.890   1.779  0.4964 -0.0363 -2.1751
 9883SOL     OW30618   3.895   7.319   6.484  0.0256  0.0931 -0.0493
 9883SOL    HW130619   3.920   7.353   6.570  3.5256 -1.7835 -0.1202
 9883SOL    HW230620   3.892   7.224   6.497 -0.0185 -0.1802 -1.8479
 9884SOL     OW30621   6.671   0.199   0.360 -0.6951 -0.0927  0.2762
 9884SOL    HW130622   6.705   0.270   0.414  1.2988 -1.4736  0.9287
 9884SOL    HW230623   6.646   0.241   0.278 -0.3535  1.4821  0.9475
 9885SOL     OW30624   6.966   3.131   1.581 -0.3141 -0.0219 -0.3180
 9885SOL    HW130625   7.059   3.123   1.602 -0.4108  0.2849  0.2483
 9885SOL    HW230626   6.943   3.046   1.545  0.5557  0.4136 -2.0052
 9886SOL     OW30627   0.501   1.050   3.115 -0.1212  0.2357 -0.1299
 9886SOL    HW130628   0.475   0.962   3.143  1.5432 -0.1270  0.4045
 9886SOL    HW230629   0.482   1.053   3.022  1.5292 -1.3956 -0.5662
 9887SOL     OW30630   5.019   6.488   5.665  0.2681 -0.1403  0.8406
 9887SOL    HW130631   5.087   6.453   5.723  2.2842 -1.4849 -2.0578
 9887SOL    HW230632   4.970   6.412   5.636 -0.3820  0.4322  0.4065
 9888SOL     OW30633   0.402   2.251   3.065 -0.0535 -0.5675  0.0457
 9888SOL    HW130634   0.416   2.191   2.992  2.6575  0.0491 -0.0639
 9888SOL    HW230635   0.332   2.309   3.036  0.3229 -0.9304 -1.6872
 9889SOL     OW30636   0.718   1.445   7.070 -0.2446  0.7541  0.6423
 9889SOL    HW130637   0.787   1.433   7.135 -2.0446 -0.8289  2.3695
 9889SOL    HW230638   0.763   1.436   6.986  1.5013 -1.2865  1.7055
 9890SOL     OW30639   3.338   4.353   3.835 -0.1296  0.7599 -0.3297
 9890SOL    HW130640   3.310   4.406   3.910 -2.0718 -1.0917  0.3457
 9890SOL    HW230641   3.402   4.292   3.871 -2.0800 -1.0551  0.2206
 9891SOL     OW30642   1.776   4.310   5.068  0.2672 -0.0343  0.0409
 9891SOL    HW130643   1.737   4.228   5.039  1.8084 -0.2231 -1.6390
 9891SOL    HW230644   1.826   4.341   4.992  1.2727  1.4910  1.2750
 9892SOL     OW30645   4.735   6.849   4.652  0.0012 -0.2184 -0.2855
 9892SOL    HW130646   4.798   6.789   4.691 -0.7177 -1.6315 -1.2030
 9892SOL    HW230647   4.739   6.830   4.558 -0.1224  1.3127 -0.6315
 9893SOL     OW30648   2.905   7.138   2.572 -0.6392  0.3644  0.1758
 9893SOL    HW130649   2.965   7.069   2.601 -0.4336  0.9763  1.2880
 9893SOL    HW230650   2.955   7.219   2.583 -0.4382  0.6307 -2.2855
 9894SOL     OW30651   0.923   4.751   5.772 -0.7128 -0.0649 -0.0463
 9894SOL    HW130652   1.001   4.707   5.806 -0.7373  1.0933  1.6325
 9894SOL    HW230653   0.860   4.746   5.844 -2.9472 -2.5963 -1.9665
 9895SOL     OW30654   3.046   6.501   0.190  0.4139 -0.5148  0.0209
 9895SOL    HW130655   2.987   6.503   0.266  0.4055  0.9580 -0.0034
 9895SOL    HW230656   3.132   6.522   0.226  0.4661 -0.1234 -0.3295
 9896SOL     OW30657   4.559   5.833   3.518 -0.1187 -0.3169 -0.2026
 9896SOL    HW130658   4.650   5.858   3.534 -0.6766  1.4299  0.4605
 9896SOL    HW230659   4.520   5.830   3.605 -0.8459 -0.5032 -0.5318
 9897SOL     OW30660   5.645   6.861   6.376 -0.1060  0.5249  0.2460
 9897SOL    HW130661   5.575   6.923   6.353  0.3462  0.5730 -1.1158
 9897SOL    HW230662   5.600   6.791   6.423 -1.2848  0.0704 -1.4406
 9898SOL     OW30663   4.476   6.603   4.169  0.0132 -0.2527  0.5351
 9898SOL    HW130664   4.464   6.582   4.076  0.4384 -1.2802  0.6967
 9898SOL    HW230665   4.396   6.649   4.194 -0.1201  0.0099 -0.3308
 9899SOL     OW30666   4.303   7.057   4.472 -0.1562  0.2357  0.1596
 9899SOL    HW130667   4.368   7.018   4.531 -0.8714 -0.2844  0.6130
 9899SOL    HW230668   4.225   7.067   4.526 -1.6687 -2.6300 -1.2819
 9900SOL     OW30669   3.292   1.406   0.273 -0.0482  0.0995 -0.2145
 9900SOL    HW130670   3.326   1.341   0.334 -0.1634 -0.3762 -0.6559
 9900SOL    HW230671   3.301   1.366   0.187 -0.7236  0.4025 -0.4305
 9901SOL     OW30672   4.243   6.403   5.780 -0.6481 -0.9655  0.1541
 9901SOL    HW130673   4.170   6.388   5.719 -1.9825  2.0094  0.8397
 9901SOL    HW230674   4.220   6.351   5.857 -1.6999 -0.6211  0.0896
 9902SOL     OW30675   3.964   7.046   4.265  0.7227  1.0533  0.2316
 9902SOL    HW130676   3.975   7.123   4.321 -0.7017 -0.0209  2.0924
 9902SOL    HW230677   3.870   7.045   4.243  0.5683 -0.5116  0.8369
 9903SOL     OW30678   4.238   2.002   2.786 -0.0229  0.5365  0.2086
 9903SOL    HW130679   4.172   2.051   2.737 -0.6026  0.0701  0.5142
 9903SOL    HW230680   4.240   1.916   2.744 -0.0144  0.3688  0.5500
 9904SOL     OW30681   4.445   2.776   0.802  0.2816  0.4553 -0.0497
 9904SOL    HW130682   4.374   2.754   0.743  1.3401 -0.7926 -0.9166
 9904SOL    HW230683   4.448   2.872   0.802 -2.3520  0.6528  1.2465
 9905SOL     OW30684   6.590   4.053   2.607  0.4438  0.1776  0.0605
 9905SOL    HW130685   6.677   4.080   2.636  0.7424  0.5297 -1.1481
 9905SOL    HW230686   6.561   4.123   2.548 -1.3169  0.8603  1.6060
 9906SOL     OW30687   3.448   5.994   5.560 -0.2343 -0.8525  0.2115
 9906SOL    HW130688   3.355   6.009   5.577  0.1164  2.5655 -0.1400
 9906SOL    HW230689   3.459   6.015   5.467  0.9232 -1.0892  0.2814
 9907SOL     OW30690   3.025   2.878   1.294 -0.2248  0.5452 -0.2724
 9907SOL    HW130691   3.051   2.969   1.284  2.5645 -0.1467  0.0319
 9907SOL    HW230692   3.054   2.853   1.382  0.3114 -1.0047 -0.8560
 9908SOL     OW30693   6.541   5.015   3.524 -0.1642 -0.0104  0.4951
 9908SOL    HW130694   6.506   5.017   3.435  0.9101 -0.1007  0.0468
 9908SOL    HW230695   6.591   5.096   3.532 -1.6879  0.8600  1.6512
 9909SOL     OW30696   1.829   5.759   1.505  0.0788  0.4522 -0.0068
 9909SOL    HW130697   1.881   5.781   1.428 -0.3117 -0.2715 -0.4949
 9909SOL    HW230698   1.881   5.790   1.579  0.6343  0.8253 -0.5431
 9910SOL     OW30699   6.928   7.302   3.756  0.2245 -0.3433 -0.0101
 9910SOL    HW130700   6.932   7.254   3.838  2.1126 -0.4896 -0.1482
 9910SOL    HW230701   6.937   7.236   3.688  0.1316 -0.0700 -0.2939
 9911SOL     OW30702   4.452   4.532   6.687 -0.1095 -0.5803  0.2296
 9911SOL    HW130703   4.519   4.588   6.725 -1.2904  1.7553 -0.9149
 9911SOL    HW230704   4.489   4.444   6.690  2.6950  0.5244  0.2272
 9912SOL     OW30705   2.209   1.050   5.174 -0.4496 -0.8190 -0.2497
 9912SOL    HW130706   2.126   1.011   5.147 -0.6013 -0.1966 -0.7070
 9912SOL    HW230707   2.251   1.076   5.092  0.0602 -0.8511 -0.0028
 9913SOL     OW30708   3.791   4.520   7.267 -0.2608  0.4012 -0.0705
 9913SOL    HW130709   3.723   4.586   7.264  0.6067  1.3194 -0.0247
 9913SOL    HW230710   3.758   4.449   7.212 -0.3297  1.7281 -1.8183
 9914SOL     OW30711   5.684   5.707   6.115 -0.1120  0.9941 -0.1960
 9914SOL    HW130712   5.738   5.756   6.052 -0.4651  0.0814 -1.2355
 9914SOL    HW230713   5.742   5.694   6.190  1.5852 -0.8979 -1.6896
 9915SOL     OW30714   3.678   4.555   3.656  0.0084  0.3287 -0.4992
 9915SOL    HW130715   3.616   4.541   3.727  3.2078 -2.0866  2.1364
 9915SOL    HW230716   3.728   4.632   3.682  1.4377 -0.7821  0.1795
 9916SOL     OW30717   1.377   3.362   3.459 -0.5510 -0.0261  0.2358
 9916SOL    HW130718   1.465   3.399   3.454 -0.5591  0.1703  1.2251
 9916SOL    HW230719   1.388   3.279   3.505 -0.6331 -0.9435 -1.3423
 9917SOL     OW30720   5.779   7.281   4.042 -0.5198  0.6828 -0.0385
 9917SOL    HW130721   5.764   7.209   3.980  0.3516  0.8373 -0.4524
 9917SOL    HW230722   5.851   7.250   4.097 -0.8432  0.8197  0.4635
 9918SOL     OW30723   1.571   6.689   4.759  0.2600  0.4114 -0.4237
 9918SOL    HW130724   1.504   6.665   4.823 -0.3249 -0.5813 -1.3564
 9918SOL    HW230725   1.545   6.776   4.729  1.7862  1.8614  2.2285
 9919SOL     OW30726   7.065   5.387   2.659 -0.2189  0.0919  0.5753
 9919SOL    HW130727   7.026   5.404   2.573  0.9232 -0.1229 -0.0017
 9919SOL    HW230728   7.157   5.414   2.649  0.0263 -0.3327  1.6026
 9920SOL     OW30729   6.995   0.120   7.263  0.3958  0.4870  0.3545
 9920SOL    HW130730   7.009   0.140   7.171  1.9880 -2.4878 -0.1722
 9920SOL    HW230731   6.953   0.034   7.263  0.4625  0.3971  2.3901
 9921SOL     OW30732   6.124   7.103   0.102  0.4326  0.3020 -0.5958
 9921SOL    HW130733   6.138   7.057   0.185  0.2718  0.4593 -0.4821
 9921SOL    HW230734   6.141   7.037   0.035  1.5983  0.4450 -0.4582
 9922SOL     OW30735   4.752   4.199   0.968  0.0528 -0.0341 -0.3246
 9922SOL    HW130736   4.804   4.276   0.940  0.8716 -1.0737 -1.8426
 9922SOL    HW230737   4.670   4.207   0.919 -0.5377  0.6885  0.7449
 9923SOL     OW30738   0.505   2.106   7.323 -0.5190 -0.2582 -0.1667
 9923SOL    HW130739   0.487   2.017   7.353  3.2259 -0.5544  1.8209
 9923SOL    HW230740   0.554   2.094   7.241 -0.0751 -0.0457  0.0648
 9924SOL     OW30741   2.426   5.044   1.591 -0.4603  0.4246 -0.1086
 9924SOL    HW130742   2.486   5.098   1.539  0.5114 -2.1552 -1.8414
 9924SOL    HW230743   2.453   5.060   1.682  2.3644  0.0071 -0.7656
 9925SOL     OW30744   6.585   2.196   4.037 -0.3539 -0.6998  0.1350
 9925SOL    HW130745   6.678   2.213   4.025 -0.5780  0.5363  0.1069
 9925SOL    HW230746   6.576   2.177   4.131  0.0273 -1.5523  0.0069
 9926SOL     OW30747   2.164   0.957   3.153  0.0633  0.1485 -0.7896
 9926SOL    HW130748   2.166   0.861   3.145 -0.3651  0.2514 -2.6093
 9926SOL    HW230749   2.077   0.975   3.188  0.7596 -0.1829  1.2192
 9927SOL     OW30750   3.160   7.349   1.021 -0.4680  0.1046  0.0315
 9927SOL    HW130751   3.220   7.292   1.070  0.8610 -0.3867 -2.0326
 9927SOL    HW230752   3.093   7.290   0.987 -0.5074  0.1819 -0.0262
 9928SOL     OW30753   4.681   1.483   0.958  0.0351  0.0284  0.2828
 9928SOL    HW130754   4.712   1.394   0.968  1.7720  0.7599  2.1018
 9928SOL    HW230755   4.662   1.513   1.047 -1.0438  1.3178 -0.3244
 9929SOL     OW30756   3.421   5.607   4.518  0.5227  0.0326  0.1318
 9929SOL    HW130757   3.403   5.565   4.602  0.1001  0.3351  0.1961
 9929SOL    HW230758   3.371   5.555   4.455  3.2224 -2.1287 -0.4295
 9930SOL     OW30759   4.500   6.522   3.902 -0.2436 -0.1377  0.6477
 9930SOL    HW130760   4.455   6.489   3.824 -2.0567 -1.0338  1.9952
 9930SOL    HW230761   4.533   6.608   3.876  4.2778 -2.5002 -2.9168
 9931SOL     OW30762   5.013   2.821   0.609 -0.4421  0.0258  0.7659
 9931SOL    HW130763   5.033   2.778   0.526  0.1061  1.8390 -0.0924
 9931SOL    HW230764   5.029   2.914   0.593  0.6069  0.3530  3.1831
 9932SOL     OW30765   3.539   3.964   3.563 -0.4051  0.4287  0.0066
 9932SOL    HW130766   3.536   3.879   3.518 -1.7577  0.6940 -0.4416
 9932SOL    HW230767   3.448   3.994   3.564 -0.0050  1.6756  0.5465
 9933SOL     OW30768   2.958   5.996   4.053 -0.1404 -0.0169 -0.6157
 9933SOL    HW130769   2.914   6.042   3.981 -0.4318 -2.4389 -2.0681
 9933SOL    HW230770   2.887   5.949   4.097  0.3259 -0.1026  0.0502
 9934SOL     OW30771   2.973   0.795   0.071 -0.4166 -0.4268  0.5689
 9934SOL    HW130772   2.993   0.878   0.029 -1.8184 -1.1600 -1.6671
 9934SOL    HW230773   3.047   0.781   0.132  0.5391  1.7402 -0.0011
 9935SOL     OW30774   0.831   2.888   3.111 -0.3703  0.4115  0.1396
 9935SOL    HW130775   0.801   2.803   3.141 -2.3446  1.1268  0.3267
 9935SOL    HW230776   0.815   2.888   3.017  2.5534 -0.5192 -0.4671
 9936SOL     OW30777   0.191   3.713   0.449 -0.1726  0.6185  0.1702
 9936SOL    HW130778   0.161   3.641   0.505  0.1883 -1.1574 -1.8044
 9936SOL    HW230779   0.113   3.767   0.435 -0.5723  0.3537  1.2476
 9937SOL     OW30780   7.071   4.683   2.683 -0.3693 -0.8589 -0.6400
 9937SOL    HW130781   7.156   4.724   2.665 -0.6998  0.4558  0.6081
 9937SOL    HW230782   7.093   4.594   2.712  0.7847  0.1307  1.8054
 9938SOL     OW30783   5.342   4.056   2.425  0.3346 -0.7112 -0.4719
 9938SOL    HW130784   5.387   3.973   2.411  1.4966 -0.4469  1.2375
 9938SOL    HW230785   5.272   4.035   2.487 -0.5883 -0.7401 -1.5098
 9939SOL     OW30786   1.024   7.189   2.709  0.7163 -0.0516 -0.0213
 9939SOL    HW130787   1.042   7.283   2.713 -1.0638  0.3823 -1.1026
 9939SOL    HW230788   0.948   7.182   2.652  0.6709 -2.1467  0.2344
 9940SOL     OW30789   7.058   7.265   2.747 -0.1266  0.6149  0.2763
 9940SOL    HW130790   7.030   7.294   2.660 -0.9855  0.1158  0.3783
 9940SOL    HW230791   7.056   7.343   2.801  0.2612  0.8985 -0.1125
 9941SOL     OW30792   0.981   0.230   5.723 -0.2442 -0.0888 -0.8897
 9941SOL    HW130793   0.934   0.292   5.667  0.0043  0.3452 -0.6276
 9941SOL    HW230794   1.033   0.286   5.781 -1.6554 -0.4706  0.8298
 9942SOL     OW30795   0.363   2.560   0.048  0.3967 -0.0688  0.1036
 9942SOL    HW130796   0.278   2.517   0.052  0.3115  0.1515  0.7061
 9942SOL    HW230797   0.347   2.639  -0.003  0.1107  0.2642  0.7047
 9943SOL     OW30798   7.209   6.994   2.565  0.3619  0.1786 -0.0466
 9943SOL    HW130799   7.303   7.014   2.564  0.4146 -0.0491 -1.6136
 9943SOL    HW230800   7.167   7.076   2.537  0.1590 -0.0380 -0.3736
 9944SOL     OW30801   6.354   5.335   1.097 -0.0785 -0.3336 -0.1730
 9944SOL    HW130802   6.317   5.298   1.177  0.0157  0.5802  0.3062
 9944SOL    HW230803   6.279   5.372   1.050  0.1424  1.1910  0.6222
 9945SOL     OW30804   4.226   1.736   6.788  0.3473  0.2484 -0.2780
 9945SOL    HW130805   4.228   1.647   6.823 -0.6100  0.0157 -0.7763
 9945SOL    HW230806   4.271   1.789   6.854  1.3234 -0.6712 -0.1919
 9946SOL     OW30807   6.317   4.897   2.383 -0.5202  0.7126 -0.4489
 9946SOL    HW130808   6.282   4.811   2.407  0.3631  0.3583 -0.3999
 9946SOL    HW230809   6.260   4.959   2.427  0.9576  0.0981  2.5491
 9947SOL     OW30810   4.966   6.287   4.746  0.1281 -0.4113 -0.0234
 9947SOL    HW130811   5.042   6.268   4.691  0.1055 -1.4856  0.2974
 9947SOL    HW230812   4.913   6.347   4.693 -0.3860 -2.1839 -1.6459
 9948SOL     OW30813   4.807   3.506   1.139 -0.0698  0.0038 -0.1755
 9948SOL    HW130814   4.764   3.554   1.067 -0.0819  1.0775  0.5164
 9948SOL    HW230815   4.735   3.467   1.188 -0.1159 -0.0047 -0.2491
 9949SOL     OW30816   0.665   4.683   3.983 -0.1415 -0.4752  0.5171
 9949SOL    HW130817   0.659   4.768   4.027  1.5248 -0.6539  1.1346
 9949SOL    HW230818   0.719   4.699   3.906 -0.5328 -0.8188  0.1622
 9950SOL     OW30819   3.816   1.390   3.750 -0.5388 -0.3496  0.4835
 9950SOL    HW130820   3.853   1.308   3.718 -1.5151 -0.1792 -1.1986
 9950SOL    HW230821   3.722   1.374   3.757 -0.6449  0.3880  0.9236
 9951SOL     OW30822   1.633   6.657   7.046  0.5995 -0.0157  0.1968
 9951SOL    HW130823   1.580   6.650   6.967  0.9842  0.2275 -0.0853
 9951SOL    HW230824   1.605   6.584   7.101  0.2992 -0.1569 -0.1435
 9952SOL     OW30825   1.996   6.715   4.682  0.0620  0.1832 -0.9992
 9952SOL    HW130826   1.934   6.749   4.618  1.1480  1.8278 -1.2337
 9952SOL    HW230827   2.053   6.657   4.632  0.4185  0.8427 -1.3657
 9953SOL     OW30828   3.903   3.918   5.470  0.2188  0.4047  0.4299
 9953SOL    HW130829   3.994   3.904   5.495 -0.7299 -0.0473  4.1165
 9953SOL    HW230830   3.873   3.832   5.440  1.0528  0.6586 -1.2419
 9954SOL     OW30831   1.881   7.273   4.210 -0.2046 -0.1469 -0.0871
 9954SOL    HW130832   1.796   7.230   4.199  0.0092 -0.7089  0.4069
 9954SOL    HW230833   1.871   7.358   4.167 -0.9320 -0.3174 -0.2611
 9955SOL     OW30834   6.172   5.544   1.831 -0.4395  0.1808  0.0201
 9955SOL    HW130835   6.105   5.601   1.870 -0.7894 -0.9658  1.1558
 9955SOL    HW230836   6.255   5.582   1.859 -0.6098  1.2053 -0.8102
 9956SOL     OW30837   2.109   0.349   4.894  0.2235  0.7557 -0.1625
 9956SOL    HW130838   2.155   0.335   4.976 -0.5364  1.1995  0.3530
 9956SOL    HW230839   2.016   0.340   4.916 -0.0093  1.1517 -0.9141
 9957SOL     OW30840   2.378   0.237   4.853  0.2499 -0.5663 -0.1309
 9957SOL    HW130841   2.370   0.142   4.844  0.4100 -0.4765 -1.3185
 9957SOL    HW230842   2.289   0.267   4.870  0.0242 -0.8240 -0.8406
 9958SOL     OW30843   4.249   4.751   3.510 -0.2381  0.4223  0.0163
 9958SOL    HW130844   4.197   4.801   3.572 -0.8264  1.1678 -1.0555
 9958SOL    HW230845   4.271   4.813   3.440 -1.2456 -0.8491 -1.5036
 9959SOL     OW30846   7.241   2.974   6.367  0.2522  0.0289  0.5219
 9959SOL    HW130847   7.239   2.990   6.461 -0.3076  1.7744  0.2510
 9959SOL    HW230848   7.160   3.013   6.334  0.3555 -0.6998 -0.6641
 9960SOL     OW30849   6.724   2.547   4.591  0.4024 -0.4526 -0.9963
 9960SOL    HW130850   6.787   2.562   4.520  0.2624 -3.4258 -1.8839
 9960SOL    HW230851   6.679   2.466   4.566 -1.8518  0.0840  0.9949
 9961SOL     OW30852   6.658   2.543   5.831 -0.2819  0.4627  0.5154
 9961SOL    HW130853   6.726   2.475   5.826  0.2781  0.9805  0.9474
 9961SOL    HW230854   6.689   2.602   5.899 -0.9181  0.9926  0.3501
 9962SOL     OW30855   4.244   1.824   0.061  0.0169  0.2630  0.1360
 9962SOL    HW130856   4.151   1.810   0.044 -0.0620  0.2670  0.5563
 9962SOL    HW230857   4.256   1.798   0.152  0.9736 -2.5265 -0.6593
 9963SOL     OW30858   6.176   3.033   6.051 -0.6676 -0.0607 -0.0050
 9963SOL    HW130859   6.257   3.038   6.000 -0.8904 -0.7775 -0.4377
 9963SOL    HW230860   6.186   3.102   6.117  1.0335 -1.2224  1.0364
 9964SOL     OW30861   7.353   4.953   5.141 -0.2079  0.1787 -0.0524
 9964SOL    HW130862   7.323   4.910   5.221  0.1983 -0.0228 -0.0066
 9964SOL    HW230863   7.280   4.943   5.079 -1.0851  1.5296  0.7176
 9965SOL     OW30864   1.510   5.763   5.495  0.3832 -0.0112 -0.3874
 9965SOL    HW130865   1.513   5.786   5.588 -1.0726  0.3801 -0.4217
 9965SOL    HW230866   1.438   5.815   5.460  1.2676  0.2738 -1.8707
 9966SOL     OW30867   3.103   0.474   3.707 -0.1289 -0.2825  0.5867
 9966SOL    HW130868   3.179   0.513   3.663 -0.9514  1.7423  0.8509
 9966SOL    HW230869   3.044   0.449   3.636 -0.2947  0.5154  0.4266
 9967SOL     OW30870   2.206   7.243   1.173 -0.0474 -0.5410  0.2423
 9967SOL    HW130871   2.229   7.326   1.215  1.1986 -0.6163 -0.2437
 9967SOL    HW230872   2.157   7.269   1.095  0.1027 -0.2644  0.2357
 9968SOL     OW30873   5.666   2.983   7.357  0.7257  0.1905 -0.7329
 9968SOL    HW130874   5.633   2.934   7.432  1.2155  1.0907  0.0889
 9968SOL    HW230875   5.709   2.917   7.303 -0.1072 -0.5611 -0.5206
 9969SOL     OW30876   3.653   3.358   3.593  0.6536  0.5512 -0.0501
 9969SOL    HW130877   3.740   3.341   3.556  0.9142  2.1257 -0.2467
 9969SOL    HW230878   3.630   3.445   3.560 -0.6107  0.5340  0.7360
 9970SOL     OW30879   2.733   3.388   7.285  0.1477  0.3413  0.7145
 9970SOL    HW130880   2.756   3.333   7.209  0.6250  1.9171 -0.3309
 9970SOL    HW230881   2.741   3.329   7.360 -2.5253 -1.9610 -0.5758
 9971SOL     OW30882   1.495   2.296   4.247 -0.0380 -0.0197  0.0908
 9971SOL    HW130883   1.559   2.241   4.200  2.0719  3.3078 -1.2679
 9971SOL    HW230884   1.548   2.344   4.310 -1.8013  0.4733  1.2364
 9972SOL     OW30885   0.550   6.640   4.401 -0.2522 -0.0320  0.2458
 9972SOL    HW130886   0.514   6.709   4.346  0.8089  0.8670  0.6155
 9972SOL    HW230887   0.619   6.600   4.348 -1.5502 -1.5648 -0.3651
 9973SOL     OW30888   1.863   1.464   7.339  0.2124 -0.1485 -0.1847
 9973SOL    HW130889   1.874   1.545   7.290 -0.7939  0.9152  1.2413
 9973SOL    HW230890   1.863   1.492   7.431 -0.1458 -1.7626  0.3305
 9974SOL     OW30891   2.112   4.749   7.112  0.2352 -0.6911  0.0787
 9974SOL    HW130892   2.130   4.843   7.113 -0.2883 -0.5619 -0.8840
 9974SOL    HW230893   2.021   4.742   7.085  0.4628 -1.4922 -0.5492
 9975SOL     OW30894   1.971   4.441   0.127  0.1432 -0.2220  0.2289
 9975SOL    HW130895   1.958   4.414   0.036 -0.7822 -0.6498  0.4748
 9975SOL    HW230896   1.922   4.522   0.136  2.1695  1.1428 -0.2574
 9976SOL     OW30897   3.356   6.795   3.590  0.2977  0.4702  1.1533
 9976SOL    HW130898   3.335   6.804   3.497  0.0137 -1.4411  1.0007
 9976SOL    HW230899   3.440   6.750   3.591  0.4048  0.6771  1.8212
 9977SOL     OW30900   5.284   1.420   5.528  0.0177  0.3339 -0.3639
 9977SOL    HW130901   5.224   1.351   5.557  1.5996 -1.2050 -0.5955
 9977SOL    HW230902   5.273   1.490   5.593 -2.7861  0.6377 -1.0004
 9978SOL     OW30903   6.597   0.636   1.617  0.4109  0.0002 -0.1353
 9978SOL    HW130904   6.625   0.620   1.708  0.2306 -1.8924 -0.3935
 9978SOL    HW230905   6.507   0.667   1.625  0.0014 -1.2675  0.2847
 9979SOL     OW30906   2.583   4.999   6.753  0.1838  0.1542 -0.4615
 9979SOL    HW130907   2.570   4.938   6.826  0.8861  2.9355  2.1960
 9979SOL    HW230908   2.522   4.969   6.685 -1.4505 -1.8727  1.7397
 9980SOL     OW30909   5.349   2.428   2.200  0.3247 -0.0672  0.1639
 9980SOL    HW130910   5.396   2.502   2.237  2.5300 -0.8581 -0.9161
 9980SOL    HW230911   5.401   2.401   2.125 -0.8378 -2.2287  0.0527
 9981SOL     OW30912   3.398   5.758   6.550  0.7267  0.2405 -0.1259
 9981SOL    HW130913   3.441   5.676   6.524 -0.8011  0.4973 -4.1470
 9981SOL    HW230914   3.443   5.826   6.501 -0.0543  1.4112  0.7171
 9982SOL     OW30915   1.642   4.826   2.880  0.4548 -0.8147  0.3779
 9982SOL    HW130916   1.641   4.845   2.786  1.3890 -1.3102  0.2621
 9982SOL    HW230917   1.713   4.879   2.915 -1.1831  0.9998  1.2027
 9983SOL     OW30918   4.891   6.811   1.225 -0.1350 -0.0397  0.5213
 9983SOL    HW130919   4.974   6.765   1.214  0.1431  0.3091  1.1667
 9983SOL    HW230920   4.829   6.742   1.249  0.4356 -0.0086  2.2257
 9984SOL     OW30921   5.517   6.468   5.679 -0.1755 -0.7001  0.3519
 9984SOL    HW130922   5.545   6.558   5.669 -2.9476  0.5618  2.4436
 9984SOL    HW230923   5.579   6.430   5.741  0.4220  0.0728  0.2403
 9985SOL     OW30924   2.156   5.432   1.741  0.3324 -0.2043  0.4647
 9985SOL    HW130925   2.180   5.409   1.651 -0.4107  1.5867 -0.2440
 9985SOL    HW230926   2.196   5.518   1.755 -1.5363  0.6230  0.9878
 9986SOL     OW30927   0.244   3.266   2.707  0.2512 -0.1534 -0.2065
 9986SOL    HW130928   0.222   3.346   2.659 -0.2632 -0.7993 -1.0850
 9986SOL    HW230929   0.272   3.205   2.639  2.1144 -0.2605  0.5988
 9987SOL     OW30930   3.311   4.409   3.566  0.7307  0.5578 -0.1895
 9987SOL    HW130931   3.330   4.407   3.660  0.2675  0.5958 -0.0974
 9987SOL    HW230932   3.284   4.499   3.549 -3.2486 -0.3489  0.4393
 9988SOL     OW30933   0.372   2.546   3.718 -0.1055 -0.0543  0.1014
 9988SOL    HW130934   0.426   2.618   3.685  0.7133 -0.3612  0.7438
 9988SOL    HW230935   0.375   2.480   3.649 -0.5265  0.3494 -0.3135
 9989SOL     OW30936   2.043   5.987   4.084 -0.5764 -0.0810 -0.0739
 9989SOL    HW130937   1.948   5.996   4.072 -0.8698 -3.3427 -1.0612
 9989SOL    HW230938   2.081   6.040   4.014 -1.5506  2.2920  1.0847
 9990SOL     OW30939   2.783   0.265   3.818  0.2349  0.4513  0.3838
 9990SOL    HW130940   2.876   0.274   3.796  0.0237  0.4708 -0.5601
 9990SOL    HW230941   2.740   0.337   3.772 -0.4679 -0.6394 -0.7537
 9991SOL     OW30942   4.909   6.630   5.436 -0.3922 -0.2930 -0.0844
 9991SOL    HW130943   4.963   6.617   5.514  1.1582 -0.8025 -1.1960
 9991SOL    HW230944   4.840   6.564   5.442 -0.7897  0.2194  1.2526
 9992SOL     OW30945   5.779   1.042   5.209  0.4162  0.3070 -0.0364
 9992SOL    HW130946   5.845   1.062   5.142  0.1575 -2.0428 -1.1053
 9992SOL    HW230947   5.697   1.035   5.160  0.4546 -2.9096  0.1627
 9993SOL     OW30948   0.008   5.835   0.383 -0.4823 -0.0219  0.2450
 9993SOL    HW130949  -0.017   5.808   0.295  2.4739 -1.5325 -0.2728
 9993SOL    HW230950   0.025   5.753   0.429  0.5160  0.7991  1.3827
 9994SOL     OW30951   1.372   3.453   3.830 -0.0531 -0.3628  0.0201
 9994SOL    HW130952   1.380   3.360   3.810 -1.8534 -0.6194  0.3171
 9994SOL    HW230953   1.354   3.455   3.924 -1.7630  0.1385 -0.2820
 9995SOL     OW30954   2.411   0.323   2.923  0.5731 -0.3898 -0.6451
 9995SOL    HW130955   2.348   0.292   2.858 -0.4027  0.5114 -0.1651
 9995SOL    HW230956   2.484   0.356   2.871 -0.0328 -0.0132 -1.2890
 9996SOL     OW30957   0.651   6.594   0.755 -0.6427 -0.0023 -0.2681
 9996SOL    HW130958   0.742   6.589   0.782 -0.4643  1.4610 -0.5435
 9996SOL    HW230959   0.650   6.553   0.668 -0.0613  0.7607 -0.6486
 9997SOL     OW30960   4.980   0.328   4.278 -0.4100  0.1576  0.1305
 9997SOL    HW130961   4.945   0.356   4.363 -1.2265 -1.2190  0.2739
 9997SOL    HW230962   5.068   0.295   4.298 -0.3654  0.3854  0.3285
 9998SOL     OW30963   4.420   2.433   2.351 -0.1014 -0.4732 -0.2759
 9998SOL    HW130964   4.504   2.435   2.396  0.8743 -1.4006 -1.9548
 9998SOL    HW230965   4.400   2.340   2.341 -1.6311 -0.2709  0.5941
 9999SOL     OW30966   1.226   2.972   3.366 -0.0455 -0.4348 -0.2010
 9999SOL    HW130967   1.166   3.010   3.302  1.8087  0.8618 -1.2742
 9999SOL    HW230968   1.198   2.881   3.374 -1.4277 -0.1697 -1.5163
10000SOL     OW30969   0.772   2.157   6.786 -0.1339  0.2321 -0.2436
10000SOL    HW130970   0.789   2.179   6.877 -0.3681  2.0754 -0.5886
10000SOL    HW230971   0.815   2.073   6.772  0.2910  0.1465  1.4330
10001SOL     OW30972   2.184   0.519   2.153  0.2472  0.1850  0.2074
10001SOL    HW130973   2.217   0.472   2.230 -0.6568 -0.9141 -0.0553
10001SOL    HW230974   2.263   0.553   2.110  1.0146 -1.7741 -0.0217
10002SOL     OW30975   2.671   4.271   3.732 -0.5878 -0.4127  0.1402
10002SOL    HW130976   2.596   4.285   3.674 -0.1184  2.5740  0.1161
10002SOL    HW230977   2.734   4.224   3.677 -0.9294  0.5674 -1.1318
10003SOL     OW30978   3.433   6.568   6.731  0.5559 -0.1434 -0.0673
10003SOL    HW130979   3.409   6.489   6.779  0.7046 -0.8957 -1.1895
10003SOL    HW230980   3.358   6.626   6.740  1.2061  0.4327  2.4327
10004SOL     OW30981   3.010   0.363   4.354  0.1421 -0.5107 -0.4467
10004SOL    HW130982   3.004   0.411   4.271 -0.7368  0.4303  0.1372
10004SOL    HW230983   2.926   0.318   4.361  0.5015 -1.1919 -0.4074
10005SOL     OW30984   5.172   3.976   2.224 -0.0308  0.2565 -0.0206
10005SOL    HW130985   5.237   4.011   2.286  0.6690 -1.1295  0.0502
10005SOL    HW230986   5.214   3.983   2.139 -0.6128  1.2481 -0.2457
10006SOL     OW30987   7.089   1.818   0.629  0.2692  0.1899 -0.3361
10006SOL    HW130988   7.133   1.866   0.559  0.0063  0.9144 -0.0080
10006SOL    HW230989   7.039   1.751   0.583 -1.0896  1.5864 -0.9744
10007SOL     OW30990   0.851   0.009   0.678 -0.1096  0.2481 -0.1714
10007SOL    HW130991   0.904   0.035   0.753  1.4722  1.1700 -1.5529
10007SOL    HW230992   0.854  -0.087   0.679  0.6888  0.2673  0.4052
10008SOL     OW30993   3.597   6.296   0.166 -0.1674 -0.6828 -0.3514
10008SOL    HW130994   3.679   6.250   0.185  0.9649  0.9277 -1.0872
10008SOL    HW230995   3.606   6.380   0.211 -1.2137 -0.2879 -0.8526
10009SOL     OW30996   3.155   7.230   4.682 -0.5472  0.2754 -0.0878
10009SOL    HW130997   3.121   7.314   4.652 -0.7538 -0.1888 -1.2129
10009SOL    HW230998   3.249   7.243   4.687 -0.5545  0.5123 -0.4949
10010SOL     OW30999   0.947   6.118   4.565 -0.0907 -0.2771  0.1514
10010SOL    HW131000   0.896   6.174   4.506  1.9455  0.6931 -0.7531
10010SOL    HW231001   0.883   6.053   4.595 -1.9935  1.1588 -0.5225
10011SOL     OW31002   1.857   1.469   1.208 -0.7481 -0.1731 -0.2893
10011SOL    HW131003   1.906   1.551   1.211 -0.2605 -0.4737  0.9388
10011SOL    HW231004   1.792   1.477   1.278 -0.1123 -1.1536  0.4565
10012SOL     OW31005   3.661   2.769   0.047  0.2401  0.3731  0.0581
10012SOL    HW131006   3.630   2.717  -0.026 -0.1280  1.1892 -0.3823
10012SOL    HW231007   3.649   2.713   0.124  0.5232 -0.4455 -0.4838
10013SOL     OW31008   3.835   5.739   2.249 -0.2963  0.5367 -0.2363
10013SOL    HW131009   3.870   5.774   2.331  0.7344 -1.8370  0.4504
10013SOL    HW231010   3.740   5.744   2.259 -0.2294 -0.8354  1.7142
10014SOL     OW31011   2.989   7.371   7.234 -0.0294  0.3870 -0.7371
10014SOL    HW131012   2.939   7.333   7.306  2.7678  2.1796  2.4522
10014SOL    HW231013   3.040   7.299   7.198 -0.3024 -0.2691  0.1663
10015SOL     OW31014   1.628   7.253   0.040  0.3613  0.3824  0.0815
10015SOL    HW131015   1.544   7.245  -0.005  0.8903 -0.1755 -0.8156
10015SOL    HW231016   1.674   7.323  -0.006  0.0862  1.2485  1.0785
10016SOL     OW31017   6.119   3.773   5.526 -0.2970  0.2769  0.6705
10016SOL    HW131018   6.139   3.685   5.492  1.7804  0.7554  0.5382
10016SOL    HW231019   6.064   3.757   5.602  0.4807 -1.1958  0.9592
10017SOL     OW31020   6.829   6.141   2.965 -0.3565  0.0711 -0.9007
10017SOL    HW131021   6.768   6.211   2.941  0.2892  0.0092 -2.9076
10017SOL    HW231022   6.874   6.174   3.043 -2.1497  0.5806 -0.0401
10018SOL     OW31023   1.855   5.021   6.139  0.0148 -0.1255 -0.1870
10018SOL    HW131024   1.806   4.986   6.214 -0.9801 -1.3777 -1.3626
10018SOL    HW231025   1.945   4.992   6.154  0.0087  0.3921  0.9445
10019SOL     OW31026   1.731   1.105   0.680 -0.1602  0.5079  0.2581
10019SOL    HW131027   1.737   1.196   0.706 -2.0444  0.4629  0.9593
10019SOL    HW231028   1.746   1.106   0.585  1.2996  1.3178  0.4555
10020SOL     OW31029   4.701   5.691   0.371  0.4072 -0.2721 -0.1317
10020SOL    HW131030   4.707   5.600   0.341  1.8175 -0.2903  0.1454
10020SOL    HW231031   4.733   5.743   0.298  2.8907 -0.2541  0.8752
10021SOL     OW31032   5.260   3.867   3.100  0.4579  0.2998 -0.3402
10021SOL    HW131033   5.168   3.877   3.076  0.2545  0.5261  0.4838
10021SOL    HW231034   5.282   3.948   3.145  1.5704  0.9871 -2.0337
10022SOL     OW31035   2.200   1.239   7.134  0.3591 -0.3076 -0.6287
10022SOL    HW131036   2.176   1.270   7.221 -1.5051 -0.2098 -1.1479
10022SOL    HW231037   2.165   1.304   7.073 -2.1493 -2.4472 -1.6508
10023SOL     OW31038   2.663   0.775   5.671 -0.0097  0.3741  0.1156
10023SOL    HW131039   2.603   0.840   5.708 -0.1084  1.1202 -1.3093
10023SOL    HW231040   2.612   0.694   5.668  0.2692  0.0329  2.3719
10024SOL     OW31041   6.444   6.259   3.325  0.3726 -0.2230 -0.1089
10024SOL    HW131042   6.504   6.250   3.399  1.7485 -0.1413 -1.1699
10024SOL    HW231043   6.377   6.192   3.340  0.6133 -0.1841  1.2162
10025SOL     OW31044   3.886   3.891   6.623  0.0690 -0.2522  0.2764
10025SOL    HW131045   3.846   3.938   6.696  0.7100  1.5467 -0.4795
10025SOL    HW231046   3.979   3.912   6.628 -0.0705  1.3103 -1.9650
10026SOL     OW31047   1.041   2.354   6.134 -0.0956 -0.5018 -0.0768
10026SOL    HW131048   1.120   2.362   6.081 -0.6558 -0.2335 -0.8815
10026SOL    HW231049   0.986   2.291   6.086 -0.0047 -1.3817  0.9368
10027SOL     OW31050   5.232   4.092   3.276  0.1027  0.4412 -0.4937
10027SOL    HW131051   5.282   4.174   3.282 -2.4839  2.0443  1.1923
10027SOL    HW231052   5.142   4.118   3.294 -0.9870 -2.6911 -0.8412
10028SOL     OW31053   0.186   0.152   6.190  0.2219  0.6036 -0.4883
10028SOL    HW131054   0.238   0.216   6.141 -0.7173  2.7214  1.1223
10028SOL    HW231055   0.225   0.152   6.278 -1.5241  1.1880  0.3428
10029SOL     OW31056   3.996   1.971   5.699  0.2950  0.0316  0.0948
10029SOL    HW131057   4.000   1.906   5.769 -1.2775 -0.0390  0.1468
10029SOL    HW231058   3.941   1.930   5.632  0.7246  0.6190 -0.6281
10030SOL     OW31059   3.205   2.059   3.669  0.1995  0.5470 -0.3595
10030SOL    HW131060   3.155   2.026   3.594  2.4294  0.1255 -1.7558
10030SOL    HW231061   3.152   2.036   3.745 -0.4043 -2.4790 -1.5565
10031SOL     OW31062   3.862   7.249   5.571  0.2654 -0.0464  0.1951
10031SOL    HW131063   3.877   7.303   5.648  0.0566  0.4256 -0.0850
10031SOL    HW231064   3.885   7.306   5.497  0.8467 -0.6220 -0.0729
10032SOL     OW31065   3.232   0.374   5.496  0.2428  0.6147  0.2793
10032SOL    HW131066   3.286   0.307   5.453 -1.2558 -0.2607 -0.3395
10032SOL    HW231067   3.179   0.411   5.425 -1.2047  0.2056  1.0889
10033SOL     OW31068   1.136   0.226   0.781 -0.4985 -0.4372 -0.1459
10033SOL    HW131069   1.061   0.207   0.837 -0.0019  0.2514  0.7727
10033SOL    HW231070   1.184   0.144   0.777  0.2443 -0.1345  1.6630
10034SOL     OW31071   2.796   4.294   6.017 -0.3374  0.3698 -0.2332
10034SOL    HW131072   2.827   4.288   6.108  0.5945  1.3531 -0.4681
10034SOL    HW231073   2.844   4.226   5.971  0.4622  0.9851 -0.3198
10035SOL     OW31074   5.109   4.064   1.902 -0.3109 -0.5467 -0.5768
10035SOL    HW131075   5.086   4.100   1.817 -2.0580  2.4332  0.9889
10035SOL    HW231076   5.032   4.016   1.930  0.0561 -1.0632 -0.4421
10036SOL     OW31077   1.643   1.009   5.087 -0.0691  0.1101  0.0393
10036SOL    HW131078   1.567   1.036   5.035 -0.2978 -0.8876 -0.1560
10036SOL    HW231079   1.631   0.915   5.099  0.8802  0.0382  0.4366
10037SOL     OW31080   3.356   1.261   6.229 -0.2439  0.2957 -0.0558
10037SOL    HW131081   3.263   1.270   6.212 -0.4343 -0.4065  0.5558
10037SOL    HW231082   3.362   1.193   6.296  0.6695  0.7758  0.3717
10038SOL     OW31083   6.768   1.602   1.175  0.0409  0.5122 -0.0882
10038SOL    HW131084   6.814   1.681   1.148 -0.0400  0.2422 -1.0397
10038SOL    HW231085   6.765   1.548   1.096  0.4243 -0.6010  0.6337
10039SOL     OW31086   1.673   3.994   7.214 -0.3387 -0.0929 -0.0023
10039SOL    HW131087   1.596   4.043   7.241 -0.5037 -0.5167  0.2970
10039SOL    HW231088   1.746   4.039   7.256 -0.1927  1.4578 -1.7715
10040SOL     OW31089   0.268   3.057   3.126  0.1831  0.0222 -0.6606
10040SOL    HW131090   0.348   3.087   3.083  0.5004 -0.2074 -0.2417
10040SOL    HW231091   0.259   2.966   3.099  1.9072 -1.0214  1.8641
10041SOL     OW31092   4.661   3.586   5.940 -0.1017 -0.1663  0.1747
10041SOL    HW131093   4.611   3.599   6.020  0.8595 -2.4258  1.2193
10041SOL    HW231094   4.626   3.505   5.903 -0.0534  0.4739 -1.3443
10042SOL     OW31095   0.486   4.925   2.265  0.0134 -0.4471 -0.1888
10042SOL    HW131096   0.456   5.002   2.313 -0.5573 -0.0506 -1.1372
10042SOL    HW231097   0.578   4.914   2.291 -0.9747 -1.9914  3.1611
10043SOL     OW31098   4.943   3.544   5.899  0.1642 -0.2761 -0.0013
10043SOL    HW131099   4.996   3.619   5.927  0.0753 -0.6412  1.1907
10043SOL    HW231100   4.853   3.570   5.916  0.1968 -1.1178  1.6696
10044SOL     OW31101   4.397   4.754   2.723  0.7685 -0.4681  0.5339
10044SOL    HW131102   4.349   4.694   2.666 -1.0764 -0.9685  2.4722
10044SOL    HW231103   4.470   4.702   2.756  1.1142 -0.5692 -0.3694
10045SOL     OW31104   2.899   6.132   7.186 -0.4648 -0.4785 -0.3967
10045SOL    HW131105   2.909   6.222   7.217 -0.8358 -0.6262  0.1808
10045SOL    HW231106   2.852   6.140   7.104  0.5663 -0.0722 -0.9606
10046SOL     OW31107   0.972   0.585   7.127  0.0364  0.5461 -0.4781
10046SOL    HW131108   0.931   0.498   7.126  0.1300  0.4746  1.0024
10046SOL    HW231109   0.974   0.611   7.034  0.1472 -1.0903 -0.9643
10047SOL     OW31110   3.082   2.202   0.920  0.7544 -0.1195  0.7438
10047SOL    HW131111   3.013   2.256   0.958 -0.1434 -0.3550 -0.4690
10047SOL    HW231112   3.146   2.265   0.887  0.3504  0.1740  0.5025
10048SOL     OW31113   0.271   0.257   0.150 -0.2801 -0.0932  0.3006
10048SOL    HW131114   0.323   0.337   0.144 -0.4016 -0.0861 -1.2465
10048SOL    HW231115   0.332   0.190   0.181  0.5046  0.0582 -0.8597
10049SOL     OW31116   1.752   4.835   1.091 -0.0796 -0.3456  0.3116
10049SOL    HW131117   1.792   4.786   1.163 -2.0821  0.7335  2.2658
10049SOL    HW231118   1.767   4.927   1.113 -1.4767  0.0245 -0.1841
10050SOL     OW31119   2.757   6.422   2.315 -0.5761  0.0109 -1.0878
10050SOL    HW131120   2.796   6.463   2.238 -0.0833 -1.1071 -1.4535
10050SOL    HW231121   2.774   6.328   2.304 -0.4847 -0.1720  0.3906
10051SOL     OW31122   0.414   2.058   4.776  0.2837 -0.3087  0.0564
10051SOL    HW131123   0.377   2.019   4.855  0.8456  1.9433  1.4976
10051SOL    HW231124   0.342   2.108   4.738  0.2541 -0.6885 -0.3952
10052SOL     OW31125   2.342   6.381   4.798  0.0881 -0.5921  0.0145
10052SOL    HW131126   2.345   6.473   4.771  1.5120 -0.3674  0.7833
10052SOL    HW231127   2.311   6.334   4.722 -2.2093  0.6772  0.0800
10053SOL     OW31128   3.444   2.792   6.992  0.2410 -0.5890 -1.0950
10053SOL    HW131129   3.473   2.702   7.007 -0.4279 -0.8460 -1.3071
10053SOL    HW231130   3.412   2.822   7.078 -0.7172 -0.9988 -1.2950
10054SOL     OW31131   0.009   1.120   2.032  0.4811 -0.1848  0.3334
10054SOL    HW131132  -0.003   1.066   1.954 -1.9488  1.2747 -0.3932
10054SOL    HW231133  -0.066   1.098   2.088  0.1192  1.5066  0.5552
10055SOL     OW31134   0.774   4.128   5.900 -0.0725 -0.1559  0.0479
10055SOL    HW131135   0.745   4.042   5.867  0.5038  0.4140 -2.0918
10055SOL    HW231136   0.864   4.113   5.930  0.3001 -0.1721 -1.0296
10056SOL     OW31137   5.879   3.068   1.077  0.0665 -0.0397  0.7451
10056SOL    HW131138   5.785   3.080   1.084  0.2413  2.2151  0.0297
10056SOL    HW231139   5.916   3.150   1.109  1.6684  0.2427 -1.5885
10057SOL     OW31140   3.956   3.883   5.957  0.4555 -0.1879  0.1121
10057SOL    HW131141   4.046   3.874   5.928  1.0477  0.9478  1.4665
10057SOL    HW231142   3.961   3.940   6.034 -1.7516  2.6988 -1.6821
10058SOL     OW31143   1.637   0.576   6.404 -1.0512  0.0116 -0.1431
10058SOL    HW131144   1.652   0.511   6.473  0.5547  0.7290  0.2257
10058SOL    HW231145   1.567   0.631   6.438 -2.0454 -1.1551 -0.2182
10059SOL     OW31146   4.350   1.704   0.778 -0.0220  0.0635 -0.0386
10059SOL    HW131147   4.266   1.658   0.777  0.1312 -0.2283  0.2558
10059SOL    HW231148   4.364   1.726   0.870  0.4297 -0.2740 -0.0225
10060SOL     OW31149   0.001   4.142   0.521 -0.0709  0.7431  0.1468
10060SOL    HW131150  -0.005   4.048   0.507  0.8184  0.6490  0.2964
10060SOL    HW231151   0.027   4.151   0.613  0.5833  1.0978 -0.0647
10061SOL     OW31152   4.111   4.345   0.136  0.2651  0.0179  0.4810
10061SOL    HW131153   4.179   4.288   0.101  0.2169  1.0468 -1.4175
10061SOL    HW231154   4.147   4.379   0.218  1.7991  0.0534 -0.1776
10062SOL     OW31155   5.064   0.604   3.938 -0.0287  0.2438  1.1305
10062SOL    HW131156   4.971   0.588   3.955 -0.3176  0.2375 -0.3185
10062SOL    HW231157   5.108   0.523   3.963 -0.7415 -0.6890 -0.4580
10063SOL     OW31158   5.022   4.599   1.535  0.1285  0.3882  0.1338
10063SOL    HW131159   5.015   4.551   1.452 -0.2735 -0.0746  0.4305
10063SOL    HW231160   4.955   4.667   1.528 -0.7905 -0.4368  0.5853
10064SOL     OW31161   2.955   0.372   4.740 -0.1208  0.6463 -0.2891
10064SOL    HW131162   3.018   0.432   4.700  0.3322 -0.3252 -1.0793
10064SOL    HW231163   2.948   0.401   4.831 -0.4421  2.3124 -0.8172
10065SOL     OW31164   6.709   3.514   5.900  0.5850  0.3356  0.7874
10065SOL    HW131165   6.708   3.609   5.888  2.1998  0.2281 -0.4270
10065SOL    HW231166   6.616   3.489   5.903  0.0990  1.6435 -1.4905
10066SOL     OW31167   2.646   5.932   3.346 -0.2223 -0.0153  0.1825
10066SOL    HW131168   2.633   5.842   3.377 -0.7917 -0.1155 -0.3224
10066SOL    HW231169   2.617   5.987   3.418  1.1841 -0.2151  0.9415
10067SOL     OW31170   5.551   0.086   5.121  0.2732 -0.5806 -0.5143
10067SOL    HW131171   5.516   0.013   5.071  0.6296  0.5799 -2.5361
10067SOL    HW231172   5.646   0.075   5.118  0.3033 -0.5157 -0.0404
10068SOL     OW31173   2.255   6.478   5.909  0.0664  0.4189  0.0928
10068SOL    HW131174   2.350   6.480   5.911  0.1619  0.5213 -2.1197
10068SOL    HW231175   2.233   6.389   5.883 -0.4120  0.5814 -0.0777
10069SOL     OW31176   4.815   0.932   0.462  0.2692 -0.3001 -0.1835
10069SOL    HW131177   4.910   0.944   0.468  0.0950  1.3944 -0.2817
10069SOL    HW231178   4.783   1.013   0.422 -1.4839  0.2780  2.1575
10070SOL     OW31179   4.111   2.953   4.805 -0.0757 -0.7390 -0.0643
10070SOL    HW131180   4.175   2.894   4.844  0.7894 -0.4900 -1.0543
10070SOL    HW231181   4.105   2.925   4.713  0.8730  1.1009 -0.7358
10071SOL     OW31182   1.767   4.901   4.302  0.1033 -0.4022 -0.4210
10071SOL    HW131183   1.780   4.806   4.299 -0.1084 -0.4017 -2.6029
10071SOL    HW231184   1.704   4.919   4.233 -0.7143  1.2314  0.6972
10072SOL     OW31185   4.485   0.879   5.990  0.2545 -0.2762 -0.4764
10072SOL    HW131186   4.389   0.884   5.996  0.1315 -1.3887 -1.2305
10072SOL    HW231187   4.501   0.809   5.927  1.5759 -1.4533  1.0879
10073SOL     OW31188   5.461   1.035   4.606 -0.1974 -0.0461  0.1957
10073SOL    HW131189   5.412   1.068   4.531  2.8488 -0.5024 -2.1553
10073SOL    HW231190   5.466   1.110   4.666  0.1361  1.4229 -1.5907
10074SOL     OW31191   1.873   7.333   5.608  0.4157 -0.6564  0.0645
10074SOL    HW131192   1.846   7.331   5.517 -0.7573 -1.0403  0.3976
10074SOL    HW231193   1.904   7.244   5.626 -1.6361 -1.3038  0.6583
10075SOL     OW31194   7.232   4.482   2.304  0.0669  0.6464  0.2605
10075SOL    HW131195   7.258   4.567   2.269 -0.7476  0.7283 -0.1828
10075SOL    HW231196   7.300   4.460   2.368  2.7181 -0.3379 -2.6288
10076SOL     OW31197   7.317   0.273   1.230  0.0410  0.2823  0.1063
10076SOL    HW131198   7.285   0.256   1.141 -0.2203  0.6927  0.1180
10076SOL    HW231199   7.412   0.277   1.221  0.1020 -0.8822  0.0566
10077SOL     OW31200   2.164   5.126   4.439  0.5893  0.4913 -0.9857
10077SOL    HW131201   2.109   5.173   4.501  0.2071  1.0198 -1.7002
10077SOL    HW231202   2.105   5.103   4.367  0.6829 -1.4158 -0.5032
10078SOL     OW31203   1.279   5.153   4.005  0.3017 -0.3201 -0.4331
10078SOL    HW131204   1.228   5.081   4.043  0.4501 -0.4828 -0.5407
10078SOL    HW231205   1.369   5.132   4.027  0.2643  0.3610  0.4143
10079SOL     OW31206   6.618   0.255   5.004  0.0839 -0.4843  0.6205
10079SOL    HW131207   6.599   0.249   5.098  1.3351  0.0339  0.9272
10079SOL    HW231208   6.564   0.328   4.973 -0.9329 -1.1556  0.7524
10080SOL     OW31209   3.473   3.236   6.541  0.0745 -0.3466  0.0692
10080SOL    HW131210   3.475   3.223   6.446  4.3620 -1.4154  0.0968
10080SOL    HW231211   3.495   3.150   6.577 -3.4279 -0.5169  2.3098
10081SOL     OW31212   2.864   0.261   0.506  0.0792 -0.4481 -0.0882
10081SOL    HW131213   2.806   0.312   0.450 -0.6213 -0.0288  0.9936
10081SOL    HW231214   2.952   0.282   0.475 -0.1762  1.5482  0.4034
10082SOL     OW31215   6.100   4.660   0.451 -0.4483 -0.2623 -0.2059
10082SOL    HW131216   6.088   4.745   0.493  0.7609 -0.0076 -0.3477
10082SOL    HW231217   6.097   4.679   0.357 -1.1781 -0.5344 -0.2441
10083SOL     OW31218   4.917   6.208   6.747  0.1476 -0.4357 -0.2359
10083SOL    HW131219   4.840   6.188   6.800  2.0375 -0.0371  2.9593
10083SOL    HW231220   4.973   6.130   6.756  2.1230  1.0806  1.6752
10084SOL     OW31221   2.343   0.733   2.315 -0.4674  0.1052  0.0958
10084SOL    HW131222   2.263   0.682   2.306 -2.4041  3.1918 -2.6737
10084SOL    HW231223   2.321   0.801   2.378 -1.0495  2.3189 -2.2875
10085SOL     OW31224   1.641   2.558   1.816 -0.4825 -0.6167 -0.0497
10085SOL    HW131225   1.679   2.599   1.739 -1.5661  0.4545 -0.0513
10085SOL    HW231226   1.715   2.516   1.860  0.5150  0.5197 -0.5807
10086SOL     OW31227   4.682   1.781   5.928  0.2635 -0.4883  0.7212
10086SOL    HW131228   4.646   1.863   5.893  0.4643  0.1209  1.8759
10086SOL    HW231229   4.699   1.727   5.851 -0.2350  0.4082 -0.0380
10087SOL     OW31230   6.108   7.234   7.253 -0.3776  0.1062 -0.5697
10087SOL    HW131231   6.117   7.205   7.344 -0.7535 -1.3605 -0.9725
10087SOL    HW231232   6.124   7.328   7.257  3.1326 -0.3525  0.5091
10088SOL     OW31233   3.786   5.910   5.565  0.1448  0.3935  0.1261
10088SOL    HW131234   3.775   5.987   5.621  2.3758 -0.4997  1.9298
10088SOL    HW231235   3.709   5.856   5.584 -0.1043  0.9925  0.8773
10089SOL     OW31236   0.329   6.526   4.056 -0.1629  0.1746  0.8109
10089SOL    HW131237   0.365   6.454   4.108 -1.6629  1.0919  3.2852
10089SOL    HW231238   0.348   6.604   4.107 -1.8145  1.1355  0.0254
10090SOL     OW31239   0.620   2.571   6.204 -0.0081 -0.2320  0.5498
10090SOL    HW131240   0.538   2.614   6.229  0.1024  0.9374 -0.9077
10090SOL    HW231241   0.597   2.519   6.127  0.3999 -0.7474  0.7739
10091SOL     OW31242   7.098   1.398   0.849  0.6987  0.0022 -0.3672
10091SOL    HW131243   7.192   1.385   0.856  0.9079 -0.3181 -2.8293
10091SOL    HW231244   7.066   1.320   0.803 -0.8987 -0.2483  1.0761
10092SOL     OW31245   3.064   0.672   2.493 -0.5774 -0.1150 -0.4766
10092SOL    HW131246   2.986   0.716   2.459 -0.7721  0.7212  1.0116
10092SOL    HW231247   3.030   0.609   2.557  0.0215  1.2435  1.2335
10093SOL     OW31248   4.985   0.515   3.343 -0.3089 -0.0758 -0.2188
10093SOL    HW131249   4.990   0.565   3.425  0.3830 -0.2432 -0.1606
10093SOL    HW231250   5.055   0.550   3.289  0.9962 -1.8031  0.2804
10094SOL     OW31251   0.919   3.808   0.478  0.0922 -0.2176  0.8329
10094SOL    HW131252   0.994   3.783   0.424 -0.6129  1.3367 -0.9604
10094SOL    HW231253   0.946   3.892   0.518 -0.2993 -0.1772  1.0146
10095SOL     OW31254   2.619   1.547   3.381 -0.2135 -0.3619 -0.6573
10095SOL    HW131255   2.648   1.630   3.418 -1.4848  0.3001 -1.0948
10095SOL    HW231256   2.572   1.504   3.453 -1.9763  0.5628 -1.2107
10096SOL     OW31257   0.197   2.725   1.649 -0.1014  0.1272 -0.0108
10096SOL    HW131258   0.164   2.769   1.727  0.2959  0.2927  0.0682
10096SOL    HW231259   0.283   2.766   1.633  0.1311 -0.3966 -0.1245
10097SOL     OW31260   5.122   7.134   3.515  0.1129 -0.7653  0.3822
10097SOL    HW131261   5.096   7.218   3.553 -1.1934 -1.0557  0.1716
10097SOL    HW231262   5.140   7.155   3.423 -0.8065 -0.7976  0.1778
10098SOL     OW31263   0.086   1.227   6.645 -0.6634  0.2017 -0.1659
10098SOL    HW131264   0.097   1.322   6.656 -0.9455  0.4790 -2.0043
10098SOL    HW231265   0.023   1.202   6.712  0.7661  0.9693  1.5450
10099SOL     OW31266   2.437   5.119   4.423  0.3394  0.5737 -0.0664
10099SOL    HW131267   2.458   5.026   4.413 -0.3263  0.2902  1.0356
10099SOL    HW231268   2.342   5.123   4.424  0.3508  1.1036  1.1388
10100SOL     OW31269   5.197   1.750   5.895  0.0174  0.9871 -0.2927
10100SOL    HW131270   5.123   1.734   5.953  1.9336  1.9410  2.6693
10100SOL    HW231271   5.175   1.831   5.849 -0.7528  1.2712  0.5638
10101SOL     OW31272   1.073   1.784   2.951  0.2937 -0.8757 -0.1787
10101SOL    HW131273   1.039   1.695   2.964  0.8304 -1.2566 -1.2452
10101SOL    HW231274   1.168   1.773   2.948  0.4271 -0.0949  0.8044
10102SOL     OW31275   5.940   0.193   6.669 -0.4481 -0.5944 -0.1159
10102SOL    HW131276   5.870   0.141   6.629 -1.2422  0.9663 -0.8790
10102SOL    HW231277   5.970   0.141   6.743 -1.7593 -1.7462 -0.3533
10103SOL     OW31278   6.711   3.643   0.707  0.0200  0.2901  0.0816
10103SOL    HW131279   6.689   3.569   0.764  0.1353 -0.3989 -0.7383
10103SOL    HW231280   6.731   3.715   0.767  1.4362 -0.7756  0.9526
10104SOL     OW31281   0.735   3.401   1.281 -0.0812 -0.1348 -0.0119
10104SOL    HW131282   0.695   3.487   1.271  1.6234  0.7176  0.3447
10104SOL    HW231283   0.756   3.374   1.192 -0.1009  0.0719 -0.0797
10105SOL     OW31284   2.463   2.017   7.089  0.0545 -0.3162  0.8711
10105SOL    HW131285   2.437   1.942   7.036 -1.8663 -0.2991  1.6979
10105SOL    HW231286   2.554   2.034   7.063 -0.4102 -1.0256 -1.5065
10106SOL     OW31287   5.859   4.554   2.492 -0.1289 -0.2035 -0.0713
10106SOL    HW131288   5.940   4.546   2.542 -1.5440  0.4096  2.4849
10106SOL    HW231289   5.791   4.568   2.558 -2.0587  1.3842 -2.2134
10107SOL     OW31290   3.348   5.479   5.313  0.5440 -0.2420  0.0011
10107SOL    HW131291   3.429   5.432   5.330  0.6971  0.2483  0.6646
10107SOL    HW231292   3.354   5.505   5.221  1.3781  0.2384  0.1814
10108SOL     OW31293   3.912   1.255   1.661  0.0117  0.2831 -0.3063
10108SOL    HW131294   3.846   1.221   1.721 -0.3030  2.7910  0.9083
10108SOL    HW231295   3.957   1.323   1.711  1.3372  0.8589 -2.1771
10109SOL     OW31296   1.815   4.778   6.551  0.6772  0.3126 -0.3820
10109SOL    HW131297   1.811   4.832   6.630  2.7213  0.7374 -0.5003
10109SOL    HW231298   1.736   4.725   6.554  0.1558  1.1117  1.3648
10110SOL     OW31299   0.170   7.217   1.946  0.2491 -0.2151  0.4258
10110SOL    HW131300   0.241   7.243   1.887 -1.0021  0.1546 -0.9900
10110SOL    HW231301   0.151   7.127   1.922 -1.0547  0.3009 -0.6317
10111SOL     OW31302   2.954   4.693   5.275  0.1764 -0.3346  0.0765
10111SOL    HW131303   2.876   4.681   5.220  1.0140 -0.0560 -1.2225
10111SOL    HW231304   3.006   4.614   5.260  0.1952 -0.4725  0.8543
10112SOL     OW31305   2.940   0.519   2.218  0.7248 -0.2597 -0.2626
10112SOL    HW131306   2.915   0.459   2.148  0.0060 -0.1792 -0.0858
10112SOL    HW231307   2.952   0.463   2.295 -1.5182 -0.0615  0.3132
10113SOL     OW31308   3.461   5.422   5.653 -0.2566 -0.2868  0.1481
10113SOL    HW131309   3.429   5.440   5.565  0.3033 -2.3156 -0.5118
10113SOL    HW231310   3.490   5.508   5.686 -1.1692  0.6230 -1.3293
10114SOL     OW31311   1.859   7.044   4.437  0.1850  0.1552 -0.3689
10114SOL    HW131312   1.815   6.960   4.447  1.8998 -0.8908 -1.2023
10114SOL    HW231313   1.811   7.088   4.367 -0.1788 -0.5076 -0.5425
10115SOL     OW31314   3.255   5.646   6.902 -0.1998  0.9140  0.6072
10115SOL    HW131315   3.272   5.668   6.993  2.1899 -2.2265  1.0821
10115SOL    HW231316   3.341   5.632   6.864 -1.2418 -1.1957 -1.1789
10116SOL     OW31317   0.212   2.378   2.446 -0.1634 -0.2624 -0.0945
10116SOL    HW131318   0.287   2.437   2.451 -1.0244  0.9429 -1.0263
10116SOL    HW231319   0.217   2.341   2.357 -0.0241 -1.0827  0.2429
10117SOL     OW31320   0.739   2.775   6.583  0.0134  0.1942  0.5778
10117SOL    HW131321   0.777   2.846   6.636 -1.1939  0.7017  0.7945
10117SOL    HW231322   0.718   2.816   6.499  1.4129 -0.4814 -0.1397
10118SOL     OW31323   3.630   4.030   2.314 -0.0991  0.2757 -0.0399
10118SOL    HW131324   3.584   4.095   2.260  0.2508 -1.1115 -2.1084
10118SOL    HW231325   3.686   3.983   2.253  0.3024 -1.4146  1.5373
10119SOL     OW31326   5.914   1.191   5.015  0.1897  0.3850 -0.1115
10119SOL    HW131327   5.879   1.280   5.004  1.5043  0.8282 -0.9727
10119SOL    HW231328   5.877   1.142   4.942  1.0351  0.7571 -0.8063
10120SOL     OW31329   1.379   6.682   5.940  0.7943 -0.1542  0.0110
10120SOL    HW131330   1.332   6.764   5.959 -0.9552 -1.0326 -0.3239
10120SOL    HW231331   1.437   6.705   5.867 -1.8626  0.1840 -2.1943
10121SOL     OW31332   2.880   1.930   1.803  0.1074  0.1043 -0.4190
10121SOL    HW131333   2.823   2.000   1.770  0.2110  0.2584 -0.2752
10121SOL    HW231334   2.968   1.956   1.776  0.0055 -0.6318 -1.4915
10122SOL     OW31335   4.385   2.182   6.694  0.0330  0.0469 -0.2098
10122SOL    HW131336   4.307   2.185   6.639 -0.0550  0.1813 -0.0790
10122SOL    HW231337   4.377   2.259   6.751  1.5332  1.5954 -1.9385
10123SOL     OW31338   2.953   7.104   1.193  0.2743  0.1291  0.1261
10123SOL    HW131339   2.862   7.101   1.163  0.1085 -0.3790  0.6610
10123SOL    HW231340   3.005   7.102   1.113 -0.1850  0.6518 -0.1946
10124SOL     OW31341   5.735   5.809   5.475  0.6769 -0.0955 -0.4746
10124SOL    HW131342   5.687   5.838   5.553 -1.9467 -0.4297 -1.8272
10124SOL    HW231343   5.798   5.745   5.507 -0.2361 -0.1160  1.3953
10125SOL     OW31344   0.008   0.125   6.512 -0.0176 -0.3331 -0.2559
10125SOL    HW131345   0.034   0.158   6.598 -1.2490 -0.7966  0.3256
10125SOL    HW231346  -0.085   0.148   6.506  0.0670 -0.2524 -1.4987
10126SOL     OW31347   1.837   6.476   2.044  0.0982 -0.2307 -0.8521
10126SOL    HW131348   1.848   6.441   2.132  0.3277  2.4149  0.2865
10126SOL    HW231349   1.755   6.526   2.049 -0.5628 -1.0715 -2.5556
10127SOL     OW31350   1.811   1.394   4.277  0.3947  0.0799 -0.1285
10127SOL    HW131351   1.860   1.467   4.240  0.8881 -0.7334 -1.1475
10127SOL    HW231352   1.872   1.353   4.339  0.0183  0.6846  0.6557
10128SOL     OW31353   1.764   5.480   3.425 -0.9017 -0.4273  0.2916
10128SOL    HW131354   1.831   5.482   3.356  0.6092 -0.9699  1.6865
10128SOL    HW231355   1.703   5.549   3.400  0.0835 -0.0206 -1.1308
10129SOL     OW31356   3.443   3.291   1.021  0.5284 -0.0291  0.1432
10129SOL    HW131357   3.520   3.346   1.013 -0.6399  1.4837 -1.3555
10129SOL    HW231358   3.404   3.316   1.105  1.1810 -0.2022  0.5101
10130SOL     OW31359   6.263   2.263   2.617 -0.0415  0.9746  0.5361
10130SOL    HW131360   6.211   2.276   2.697 -1.3572  1.0655 -0.3002
10130SOL    HW231361   6.264   2.349   2.575 -0.4596  0.6488 -0.1696
10131SOL     OW31362   0.646   2.216   6.125 -0.0942 -0.2655  0.6005
10131SOL    HW131363   0.737   2.242   6.110 -0.3232  0.0535 -0.3345
10131SOL    HW231364   0.628   2.150   6.058 -0.7060  0.0580  0.4373
10132SOL     OW31365   5.838   3.577   4.174 -0.3962 -0.2230 -0.1760
10132SOL    HW131366   5.857   3.565   4.081 -0.3049 -0.2767 -0.1508
10132SOL    HW231367   5.870   3.496   4.215 -1.0463 -0.4940 -0.1849
10133SOL     OW31368   4.083   7.060   5.360 -0.1931  0.0917  0.2332
10133SOL    HW131369   4.131   7.135   5.395  2.0446 -0.7430 -0.8954
10133SOL    HW231370   4.052   7.014   5.437 -0.4449  1.4310  0.9666
10134SOL     OW31371   1.078   2.583   4.823  0.8177 -0.0247  0.1979
10134SOL    HW131372   1.157   2.624   4.857 -0.2019  2.6782 -0.4261
10134SOL    HW231373   1.095   2.572   4.730  0.8934 -0.6156  0.2757
10135SOL     OW31374   5.069   3.780   1.697 -0.0385  0.1103  0.1619
10135SOL    HW131375   5.015   3.720   1.646 -0.0704  0.5055 -0.2782
10135SOL    HW231376   5.018   3.861   1.700  1.1799  1.0203 -1.6179
10136SOL     OW31377   5.766   3.676   1.260  0.4234 -0.5734  0.4372
10136SOL    HW131378   5.829   3.607   1.240  0.0865 -0.8373  0.2827
10136SOL    HW231379   5.814   3.735   1.318  0.8038 -0.7880  0.3498
10137SOL     OW31380   1.218   4.094   5.676 -0.4060 -0.6811 -0.2150
10137SOL    HW131381   1.177   4.179   5.660 -1.6221 -1.3889 -1.0042
10137SOL    HW231382   1.150   4.030   5.657  0.4349 -1.8421  0.5268
10138SOL     OW31383   2.119   3.355   4.560  0.2997 -0.4103  0.6548
10138SOL    HW131384   2.111   3.278   4.503 -0.2221 -0.5169  0.8685
10138SOL    HW231385   2.031   3.369   4.594  0.6992 -0.6413  1.8272
10139SOL     OW31386   6.508   4.433   0.189 -0.7702  0.3503 -0.5143
10139SOL    HW131387   6.585   4.398   0.234 -1.5555 -0.2022  0.4191
10139SOL    HW231388   6.433   4.395   0.235 -1.6209 -0.4953 -2.4813
10140SOL     OW31389   1.987   5.681   6.187  0.2309  0.2342  0.0462
10140SOL    HW131390   1.922   5.726   6.133 -0.2882  0.9739  1.2526
10140SOL    HW231391   2.065   5.736   6.182  0.0068  0.5944  0.4860
10141SOL     OW31392   5.442   2.302   3.585 -0.0767  0.0759  0.1804
10141SOL    HW131393   5.436   2.222   3.533 -1.1394 -0.4133  1.0162
10141SOL    HW231394   5.390   2.366   3.536 -0.7412 -0.2707  0.4196
10142SOL     OW31395   2.897   6.393   3.389 -0.5285 -0.6661  0.4695
10142SOL    HW131396   2.937   6.439   3.463  0.5850 -1.5425  0.4380
10142SOL    HW231397   2.880   6.305   3.422 -2.1559 -0.4247  0.3675
10143SOL     OW31398   3.394   5.810   7.140  0.2132 -0.4443 -0.1835
10143SOL    HW131399   3.377   5.736   7.198 -1.1400 -0.0511 -0.0487
10143SOL    HW231400   3.453   5.774   7.073  1.1961 -1.0939  0.9837
10144SOL     OW31401   5.122   1.811   1.312  0.5025  0.1520  0.1605
10144SOL    HW131402   5.068   1.867   1.256  0.7956 -0.4721 -0.7755
10144SOL    HW231403   5.209   1.851   1.310  0.7254 -0.3463 -0.5528
10145SOL     OW31404   3.872   2.869   4.512 -0.6746 -0.0372  0.2009
10145SOL    HW131405   3.864   2.804   4.442  0.5020 -1.0708  0.9712
10145SOL    HW231406   3.884   2.816   4.591 -1.0435  1.1215  1.0530
10146SOL     OW31407   6.362   0.446   3.300  0.0984 -0.5365  0.4256
10146SOL    HW131408   6.355   0.424   3.393  1.7520 -0.6452  0.5452
10146SOL    HW231409   6.441   0.402   3.270  0.4721  0.7851 -0.6466
10147SOL     OW31410   0.819   1.807   0.697  0.0860 -0.2557  0.0239
10147SOL    HW131411   0.910   1.836   0.708 -0.7094  1.9235  1.6183
10147SOL    HW231412   0.826   1.714   0.674  2.6901 -0.3119  0.7094
10148SOL     OW31413   4.881   6.024   2.047 -0.6285 -0.0715 -0.2963
10148SOL    HW131414   4.794   6.011   2.009 -0.3982 -3.5883  0.0347
10148SOL    HW231415   4.916   5.936   2.058  1.0764  0.8797  4.1251
10149SOL     OW31416   5.287   4.885   5.873  0.0404 -0.3596 -0.9320
10149SOL    HW131417   5.277   4.948   5.802  1.7620  0.2786 -0.6353
10149SOL    HW231418   5.303   4.801   5.828  1.2806  0.0679 -1.3248
10150SOL     OW31419   0.483   0.896   0.396 -0.4025  0.4020 -0.8066
10150SOL    HW131420   0.454   0.956   0.327 -0.3454 -0.9859 -2.0710
10150SOL    HW231421   0.414   0.830   0.402 -0.9158  1.0316  1.2227
10151SOL     OW31422   6.688   0.661   5.491 -0.2461  0.2994 -0.4540
10151SOL    HW131423   6.606   0.686   5.534 -0.7513 -2.5115  0.4195
10151SOL    HW231424   6.753   0.661   5.561 -0.3950 -1.2410 -0.2751
10152SOL     OW31425   2.084   4.411   2.965  0.5639  0.4744 -0.3550
10152SOL    HW131426   2.089   4.323   2.927 -4.2693 -0.4102  0.3973
10152SOL    HW231427   2.069   4.469   2.890 -0.4165  0.0077 -0.5271
10153SOL     OW31428   0.218   3.895   2.214  0.8903  0.5343  0.6856
10153SOL    HW131429   0.167   3.956   2.161  2.1549  0.2970 -0.8510
10153SOL    HW231430   0.266   3.841   2.151  0.7147 -1.2999  2.0094
10154SOL     OW31431   5.173   1.883   4.004  0.1674  0.8222  0.1128
10154SOL    HW131432   5.103   1.820   4.021 -0.0683  1.0099 -0.1718
10154SOL    HW231433   5.221   1.847   3.930  0.6091  0.4996  0.5453
10155SOL     OW31434   7.155   4.968   0.727 -0.0019  0.2717 -0.2092
10155SOL    HW131435   7.238   4.965   0.775 -0.0463  0.5316 -0.1139
10155SOL    HW231436   7.176   4.930   0.641 -0.1066 -0.9202  0.2767
10156SOL     OW31437   1.408   4.400   4.850 -0.0119 -0.3902 -0.5711
10156SOL    HW131438   1.410   4.495   4.835 -1.5992  0.0543  1.5761
10156SOL    HW231439   1.431   4.390   4.942  1.3712 -2.2517 -1.0455
10157SOL     OW31440   1.371   2.102   1.667  0.5584  0.2550  0.1735
10157SOL    HW131441   1.395   2.069   1.581  0.9568 -0.2271  0.4626
10157SOL    HW231442   1.316   2.034   1.705 -0.0986  0.7199  0.0823
10158SOL     OW31443   4.650   3.698   5.053 -0.6732 -0.1820 -0.0161
10158SOL    HW131444   4.617   3.628   4.996  1.0600 -1.9017  0.9535
10158SOL    HW231445   4.608   3.682   5.137 -1.5016  0.9671 -0.1980
10159SOL     OW31446   2.163   0.692   3.219  0.0954 -0.0245  0.1800
10159SOL    HW131447   2.257   0.674   3.228 -0.0664 -2.2270 -1.4586
10159SOL    HW231448   2.121   0.627   3.276 -0.4316 -1.0125 -1.2678
10160SOL     OW31449   5.380   3.153   3.845  0.2229  0.3413 -0.3555
10160SOL    HW131450   5.367   3.113   3.759 -2.6652 -0.3010  0.2468
10160SOL    HW231451   5.348   3.243   3.834 -1.1590 -0.0414  0.2083
10161SOL     OW31452   2.001   2.647   1.600  0.4862 -0.2427  0.0239
10161SOL    HW131453   1.914   2.687   1.603  0.0363 -1.1308 -0.6914
10161SOL    HW231454   2.058   2.711   1.644 -0.6519 -0.0228  1.2527
10162SOL     OW31455   5.477   7.174   0.752 -0.0251 -0.3699 -0.0388
10162SOL    HW131456   5.566   7.181   0.718 -0.6182 -1.4338 -1.9100
10162SOL    HW231457   5.444   7.092   0.717 -2.0400  0.4037 -0.0647
10163SOL     OW31458   5.230   6.828   4.346 -0.1213  0.0833  0.6632
10163SOL    HW131459   5.137   6.837   4.363 -0.5202 -0.5046 -1.0349
10163SOL    HW231460   5.270   6.824   4.433 -1.8506 -1.4952  1.4583
10164SOL     OW31461   6.936   2.189   4.985  0.6863  0.7674  0.1051
10164SOL    HW131462   6.936   2.277   4.948  0.9115  0.5513 -0.4266
10164SOL    HW231463   7.027   2.160   4.977  0.0134 -0.8731 -3.0899
10165SOL     OW31464   3.859   7.062   6.505 -0.0125  0.4238  0.9486
10165SOL    HW131465   3.885   6.990   6.447 -1.3557  0.7983 -0.1570
10165SOL    HW231466   3.804   7.020   6.571 -1.0601  0.4441  0.1235
10166SOL     OW31467   0.155   4.100   3.788  0.2906 -0.5132 -0.4119
10166SOL    HW131468   0.187   4.016   3.753  0.4175  0.1565 -2.0100
10166SOL    HW231469   0.217   4.164   3.753 -1.6889  0.6236 -2.0586
10167SOL     OW31470   3.195   3.963   6.710 -0.4506 -0.1625  0.3932
10167SOL    HW131471   3.247   3.893   6.671 -0.4760  0.3966 -0.6853
10167SOL    HW231472   3.112   3.922   6.733  0.5199 -1.1604  2.4566
10168SOL     OW31473   5.255   0.882   4.790 -0.4710 -0.0243  0.3873
10168SOL    HW131474   5.301   0.828   4.725  0.5532 -3.2902  3.5135
10168SOL    HW231475   5.309   0.961   4.797  1.8682 -1.5077  0.2790
10169SOL     OW31476   4.800   6.423   2.424 -0.1284  0.6713 -0.0779
10169SOL    HW131477   4.879   6.417   2.370  0.8557 -1.7569  1.4916
10169SOL    HW231478   4.730   6.388   2.369  0.7477 -1.2343 -0.0426
10170SOL     OW31479   1.430   2.795   1.006 -0.4965  0.3193  0.1845
10170SOL    HW131480   1.459   2.878   1.043 -0.6632  0.3051  0.3469
10170SOL    HW231481   1.504   2.735   1.020  0.5827  1.0121 -1.9764
10171SOL     OW31482   6.988   5.535   6.054  0.3129 -0.0939 -0.3489
10171SOL    HW131483   7.029   5.449   6.051 -0.6996 -0.5800 -0.5883
10171SOL    HW231484   6.895   5.517   6.071  0.4691  1.0444  2.1905
10172SOL     OW31485   0.205   3.398   3.109  0.1707 -0.0387 -1.3744
10172SOL    HW131486   0.255   3.465   3.156 -0.2314  0.1674 -1.2392
10172SOL    HW231487   0.191   3.329   3.173 -0.9375  0.5262 -0.9896
10173SOL     OW31488   6.426   3.747   6.960  0.6118  0.3498 -0.6789
10173SOL    HW131489   6.518   3.751   6.986  0.0660 -0.5547  1.6564
10173SOL    HW231490   6.379   3.736   7.042 -1.5647  0.2493 -1.8727
10174SOL     OW31491   5.539   2.417   0.536 -0.0195  0.4091  0.2421
10174SOL    HW131492   5.570   2.351   0.474  2.6158  1.2776  0.5126
10174SOL    HW231493   5.469   2.374   0.584 -1.0959 -0.8289 -2.2311
10175SOL     OW31494   0.513   0.120   4.200 -0.0152  0.2483 -0.0538
10175SOL    HW131495   0.588   0.177   4.184 -0.2070  0.5731  0.1741
10175SOL    HW231496   0.452   0.141   4.129 -1.0952  2.0821  1.3033
10176SOL     OW31497   5.519   4.716   3.237  0.5936 -0.2576 -0.1512
10176SOL    HW131498   5.522   4.647   3.170 -0.2760 -1.2247  0.7613
10176SOL    HW231499   5.428   4.747   3.235  0.5092 -0.4310  0.7038
10177SOL     OW31500   1.071   6.481   7.207 -0.3716 -0.2756  0.4208
10177SOL    HW131501   1.128   6.528   7.269 -0.5550  1.0590 -0.3811
10177SOL    HW231502   0.983   6.495   7.241 -0.5159  0.8572 -0.3454
10178SOL     OW31503   1.419   6.096   2.662  0.3873 -0.3380 -0.0126
10178SOL    HW131504   1.415   6.187   2.692  1.0416 -0.2877 -0.0775
10178SOL    HW231505   1.507   6.067   2.683  0.2650 -0.8800 -0.2290
10179SOL     OW31506   3.910   4.609   2.883  0.5126 -0.0516  0.3633
10179SOL    HW131507   3.851   4.670   2.927 -0.5759  0.4345 -1.6559
10179SOL    HW231508   3.946   4.556   2.953 -2.0454 -0.1222  1.7504
10180SOL     OW31509   5.557   1.636   7.302 -0.2996 -0.5526  0.2348
10180SOL    HW131510   5.570   1.582   7.224 -0.8987  1.7557 -1.5855
10180SOL    HW231511   5.584   1.580   7.375  1.2129 -2.5090 -1.6815
10181SOL     OW31512   2.846   3.817   5.446 -0.0987  0.0233  0.4688
10181SOL    HW131513   2.911   3.752   5.420 -0.3851  0.5241 -1.6255
10181SOL    HW231514   2.815   3.856   5.364 -2.9420 -0.0819  1.3653
10182SOL     OW31515   4.572   1.014   1.760 -0.3476  0.5877  0.8252
10182SOL    HW131516   4.577   1.086   1.697 -2.3483  1.2708  1.3792
10182SOL    HW231517   4.504   0.956   1.724 -0.0357 -0.0968  1.3130
10183SOL     OW31518   0.010   4.428   0.194 -0.0617  0.0040 -0.3617
10183SOL    HW131519   0.064   4.396   0.121  1.7262 -1.4348  1.4647
10183SOL    HW231520  -0.062   4.366   0.200  0.4269 -0.5608 -0.2148
10184SOL     OW31521   3.203   1.688   1.533 -0.2625  0.1799 -0.1622
10184SOL    HW131522   3.192   1.767   1.586  1.4719  0.5923 -0.3628
10184SOL    HW231523   3.134   1.695   1.467 -2.0552 -0.0334  1.5953
10185SOL     OW31524   4.654   1.322   1.285 -0.0576  0.6433 -0.2703
10185SOL    HW131525   4.582   1.260   1.273  0.3601  0.3702 -1.5036
10185SOL    HW231526   4.728   1.268   1.312  0.6100  0.3894 -2.4156
10186SOL     OW31527   5.083   4.995   4.571  0.2083 -0.4648 -0.4751
10186SOL    HW131528   5.019   5.066   4.568 -0.3426 -0.8993  0.6626
10186SOL    HW231529   5.128   5.007   4.655  2.2846  0.3738 -1.6024
10187SOL     OW31530   3.323   6.802   6.279  0.1311 -0.0504 -0.1574
10187SOL    HW131531   3.296   6.889   6.250  0.8388  0.5060  0.8072
10187SOL    HW231532   3.261   6.780   6.349 -0.0605 -0.3326 -0.4147
10188SOL     OW31533   2.215   0.683   1.651  0.6952  0.2276  0.4536
10188SOL    HW131534   2.140   0.665   1.708  0.3382  1.0258  0.2544
10188SOL    HW231535   2.241   0.598   1.617 -1.5369  0.1447 -1.2391
10189SOL     OW31536   6.738   2.624   3.458 -0.5592  0.0577  0.4498
10189SOL    HW131537   6.822   2.595   3.494  0.5125  2.0114 -0.3616
10189SOL    HW231538   6.683   2.545   3.461  1.6180 -1.5940 -0.0382
10190SOL     OW31539   2.669   7.099   1.156  0.4120 -0.1019 -0.2491
10190SOL    HW131540   2.624   7.015   1.146  0.8936 -0.2834 -0.9284
10190SOL    HW231541   2.630   7.156   1.090  0.5689  0.0024 -0.2534
10191SOL     OW31542   4.011   5.153   4.234  0.0538  0.2115  0.2703
10191SOL    HW131543   4.027   5.177   4.325 -2.0652  1.1524  0.4595
10191SOL    HW231544   3.936   5.093   4.237 -0.3083  0.5739 -0.8550
10192SOL     OW31545   4.980   5.467   1.302  0.2855  0.0801  0.0983
10192SOL    HW131546   5.041   5.504   1.239  1.7057 -0.3705  1.1306
10192SOL    HW231547   5.006   5.375   1.308 -2.2201 -0.8228 -1.3506
10193SOL     OW31548   4.845   2.692   4.010 -0.2401 -0.3091  0.3055
10193SOL    HW131549   4.809   2.780   4.020  0.6792  0.4581 -2.3633
10193SOL    HW231550   4.935   2.699   4.042 -0.5490 -0.6429  1.2820
10194SOL     OW31551   1.255   2.131   5.761  0.8422  0.0332  1.0548
10194SOL    HW131552   1.222   2.055   5.712  0.7984  0.6054  0.1768
10194SOL    HW231553   1.201   2.204   5.730  1.2115  0.5126  1.5334
10195SOL     OW31554   4.634   5.618   0.972 -0.3586 -0.1061  0.1082
10195SOL    HW131555   4.593   5.542   1.014 -0.5723 -0.4872 -0.7496
10195SOL    HW231556   4.651   5.588   0.882  2.9508 -0.3958  0.7068
10196SOL     OW31557   5.299   0.160   1.637  0.1797 -0.4931 -0.4564
10196SOL    HW131558   5.339   0.081   1.601  0.2249 -0.5135 -0.3617
10196SOL    HW231559   5.210   0.134   1.661  1.1665 -1.4477  2.6874
10197SOL     OW31560   6.856   3.590   1.029  0.2846  0.6637  0.2163
10197SOL    HW131561   6.772   3.615   0.991  0.3224  1.3422  0.5649
10197SOL    HW231562   6.869   3.499   1.001 -1.1595  0.1230  1.1776
10198SOL     OW31563   6.583   6.126   1.154 -0.1281 -0.1353  0.1199
10198SOL    HW131564   6.664   6.173   1.171 -0.2012  0.9378 -2.1424
10198SOL    HW231565   6.536   6.127   1.237  1.2500  1.0694  0.9203
10199SOL     OW31566   1.397   0.131   3.490 -0.3706 -0.6854  0.6374
10199SOL    HW131567   1.466   0.075   3.455 -0.0402 -0.2094  0.5199
10199SOL    HW231568   1.443   0.208   3.524 -0.8350 -0.4009  0.6342
10200SOL     OW31569   4.896   5.486   2.479  0.2361 -0.9323 -0.1649
10200SOL    HW131570   4.961   5.431   2.522  0.7724 -0.5801 -0.5073
10200SOL    HW231571   4.840   5.424   2.431 -0.6657 -1.3639  1.3905
10201SOL     OW31572   3.323   3.258   1.276 -0.3115 -0.0556 -0.2571
10201SOL    HW131573   3.386   3.315   1.321 -0.3408 -0.7430  0.6782
10201SOL    HW231574   3.318   3.180   1.331 -2.1398  0.0626 -0.1891
10202SOL     OW31575   6.385   0.750   4.116  0.1863  0.2582 -0.6433
10202SOL    HW131576   6.313   0.797   4.074  1.1714  3.0248  0.4909
10202SOL    HW231577   6.346   0.709   4.193 -0.4547  0.4375 -0.8701
10203SOL     OW31578   3.315   1.292   3.880  0.2532  0.1623  0.0213
10203SOL    HW131579   3.302   1.301   3.974 -0.2697 -0.6313  0.0386
10203SOL    HW231580   3.235   1.327   3.841  1.1710  2.1348 -0.2398
10204SOL     OW31581   0.407   1.230   3.966  0.3562  0.4742 -0.2436
10204SOL    HW131582   0.347   1.288   4.012  2.1761  1.8925  0.4453
10204SOL    HW231583   0.440   1.282   3.893  1.2938 -0.0223 -0.1835
10205SOL     OW31584   5.423   6.703   6.543 -0.3424 -0.4009  0.4644
10205SOL    HW131585   5.341   6.687   6.590 -0.1086  0.6904  1.2927
10205SOL    HW231586   5.401   6.688   6.451 -1.3673 -0.5282  0.7134
10206SOL     OW31587   2.472   2.763   1.469 -0.0735 -0.1648 -0.4041
10206SOL    HW131588   2.484   2.784   1.561 -0.5285 -0.1708 -0.3391
10206SOL    HW231589   2.420   2.835   1.434 -1.8215 -1.2374 -0.1324
10207SOL     OW31590   2.573   7.057   0.122  0.7914  0.2300  0.4399
10207SOL    HW131591   2.619   6.995   0.178 -0.2500  0.4009  1.5311
10207SOL    HW231592   2.517   7.106   0.182 -0.1052  0.6610 -0.7083
10208SOL     OW31593   4.034   4.194   4.724  0.3676  0.1305  0.4478
10208SOL    HW131594   4.066   4.271   4.678 -0.0046  0.6073  0.9714
10208SOL    HW231595   4.110   4.162   4.772  0.2761  0.7950  1.0595
10209SOL     OW31596   0.058   0.255   6.741  0.1437 -0.3175 -0.9214
10209SOL    HW131597  -0.025   0.283   6.779  0.0193 -0.5477 -1.0190
10209SOL    HW231598   0.106   0.214   6.813  0.3376  0.1735 -0.7717
10210SOL     OW31599   4.391   3.846   1.042 -0.2974  0.1604  0.5057
10210SOL    HW131600   4.371   3.903   0.968  1.1558 -1.8141 -1.5287
10210SOL    HW231601   4.443   3.902   1.101  1.3070  0.9434 -1.5262
10211SOL     OW31602   0.582   1.746   6.390  0.2580  0.3259 -1.1499
10211SOL    HW131603   0.525   1.783   6.457  0.0731  1.2586 -1.7959
10211SOL    HW231604   0.522   1.720   6.320  0.4147 -0.9852 -0.8148
10212SOL     OW31605   6.747   1.544   1.541  0.3706  0.2805  0.1415
10212SOL    HW131606   6.750   1.639   1.556 -0.7893  0.0109  2.7214
10212SOL    HW231607   6.655   1.526   1.521  0.9542 -0.1154 -2.4847
10213SOL     OW31608   4.021   2.408   1.639 -0.4186 -0.1641 -0.2178
10213SOL    HW131609   4.042   2.346   1.709 -1.0827  1.2242  1.2570
10213SOL    HW231610   4.105   2.429   1.599 -0.1127 -1.4982 -0.3358
10214SOL     OW31611   2.590   2.791   7.258 -0.2011  0.0028 -0.4383
10214SOL    HW131612   2.526   2.811   7.326  0.6827 -1.0585  0.7688
10214SOL    HW231613   2.607   2.875   7.216 -1.2334  0.5791  0.2434
10215SOL     OW31614   2.488   4.590   4.172 -0.1900  0.0006 -0.3170
10215SOL    HW131615   2.497   4.580   4.267 -0.9072 -1.4231 -0.3621
10215SOL    HW231616   2.575   4.614   4.141 -0.1926  1.6046  0.8090
10216SOL     OW31617   3.547   7.049   2.800  0.8685 -0.0991 -0.0786
10216SOL    HW131618   3.550   6.988   2.874 -0.0608 -0.6516 -0.4708
10216SOL    HW231619   3.619   7.022   2.743  0.9229 -0.3533  0.1109
10217SOL     OW31620   0.979   3.030   1.531 -0.3765  0.4212 -0.3524
10217SOL    HW131621   0.944   2.941   1.526  0.9215 -0.2245  1.1474
10217SOL    HW231622   1.052   3.023   1.592  1.1936  2.0917 -1.9506
10218SOL     OW31623   1.563   3.471   7.156  0.0801  0.5999  0.0115
10218SOL    HW131624   1.511   3.479   7.236 -0.6322 -0.3919 -0.3297
10218SOL    HW231625   1.498   3.460   7.086  0.7179  0.2662 -0.5390
10219SOL     OW31626   6.517   1.949   2.009 -0.2231  0.0884  0.0681
10219SOL    HW131627   6.496   1.875   1.953 -0.0112 -0.9998  1.3648
10219SOL    HW231628   6.544   1.909   2.092  0.6505  1.5993  0.5514
10220SOL     OW31629   5.756   5.652   7.348 -0.5977  0.0885  0.2373
10220SOL    HW131630   5.673   5.691   7.322 -0.5475  0.9272  1.2769
10220SOL    HW231631   5.734   5.560   7.366 -1.2275  0.2136  0.1477
10221SOL     OW31632   0.176   5.614   5.266  0.0480 -0.3774  0.6762
10221SOL    HW131633   0.256   5.591   5.218 -0.3830  0.2166 -0.3635
10221SOL    HW231634   0.156   5.703   5.236 -1.5243 -0.8662  0.1920
10222SOL     OW31635   1.624   5.212   0.565 -0.0800 -0.3620  0.1486
10222SOL    HW131636   1.667   5.126   0.558 -1.7002 -1.0651 -2.4814
10222SOL    HW231637   1.558   5.200   0.633 -0.5894 -1.3729 -0.5021
10223SOL     OW31638   2.555   3.520   5.513  0.3917 -0.0900 -0.6297
10223SOL    HW131639   2.508   3.483   5.438  1.7319 -0.6219 -1.2382
10223SOL    HW231640   2.555   3.450   5.578 -0.6449  0.3206 -0.1708
10224SOL     OW31641   3.933   4.955   0.810 -0.0579 -1.0870  0.1174
10224SOL    HW131642   3.922   5.024   0.745 -1.3069 -0.3357  1.0851
10224SOL    HW231643   3.874   4.980   0.882  0.9344 -2.1350  1.3327
10225SOL     OW31644   3.634   0.931   5.103 -0.2569  0.1579 -0.2330
10225SOL    HW131645   3.699   0.866   5.131  0.0593  1.2218  1.6394
10225SOL    HW231646   3.661   1.012   5.145 -2.8271  0.6405  0.6754
10226SOL     OW31647   2.375   3.439   6.243 -0.2956  0.2302  0.2309
10226SOL    HW131648   2.318   3.515   6.231 -0.5835 -0.2792 -2.0524
10226SOL    HW231649   2.318   3.371   6.278 -0.8035  0.1490 -0.7134
10227SOL     OW31650   3.172   4.043   6.315  0.3183  0.3586  0.6934
10227SOL    HW131651   3.237   3.974   6.303  0.7970  0.7844  0.7795
10227SOL    HW231652   3.203   4.093   6.391 -0.1204  0.5582  0.7484
10228SOL     OW31653   2.243   1.961   1.625 -0.0164  0.3201 -0.0621
10228SOL    HW131654   2.233   2.054   1.641  0.0409 -0.1210  3.1792
10228SOL    HW231655   2.328   1.939   1.663  1.4863 -0.6033 -3.5662
10229SOL     OW31656   6.819   2.945   3.191  0.0921  0.1043 -0.1194
10229SOL    HW131657   6.855   2.910   3.273  0.5536 -0.6951 -0.6487
10229SOL    HW231658   6.790   2.867   3.143  1.2215  0.4162 -1.3756
10230SOL     OW31659   4.032   3.699   7.277  0.0972  0.2615 -0.3964
10230SOL    HW131660   4.099   3.766   7.290 -1.0747  1.2228  0.8980
10230SOL    HW231661   4.072   3.619   7.311  1.2059  0.4361 -1.2128
10231SOL     OW31662   1.514   1.257   3.790  0.1374 -0.2673  0.0500
10231SOL    HW131663   1.423   1.264   3.818 -0.5951 -0.0737 -2.2047
10231SOL    HW231664   1.517   1.302   3.705  2.0885 -1.1732 -0.4186
10232SOL     OW31665   5.701   1.175   5.992  0.0997 -0.6089  0.2531
10232SOL    HW131666   5.628   1.146   5.938  0.2496 -0.5330  0.0111
10232SOL    HW231667   5.769   1.200   5.930  1.0321 -2.4271  0.4970
10233SOL     OW31668   2.133   6.621   0.458 -0.0591 -0.2865 -0.4477
10233SOL    HW131669   2.112   6.594   0.369  0.6919  0.8467 -1.0108
10233SOL    HW231670   2.229   6.630   0.458 -0.0632 -0.1364  0.4289
10234SOL     OW31671   6.441   1.092   7.092 -0.2966 -0.4636  0.7309
10234SOL    HW131672   6.448   1.042   7.173 -0.3787 -0.1205  0.9529
10234SOL    HW231673   6.484   1.176   7.111  0.4665 -0.7116  0.1391
10235SOL     OW31674   0.150   6.324   4.048 -0.1405 -0.0303  0.3889
10235SOL    HW131675   0.205   6.401   4.045 -0.6464  0.3303  0.1204
10235SOL    HW231676   0.177   6.277   4.127  2.5292 -1.3729 -1.1805
10236SOL     OW31677   2.679   1.043   0.464  0.3954  0.4479 -0.4784
10236SOL    HW131678   2.750   1.003   0.514 -1.6133 -0.5130  1.8202
10236SOL    HW231679   2.653   1.119   0.516 -0.2129  0.8480 -1.3379
10237SOL     OW31680   7.189   0.365   4.516  0.2077  0.2244  0.2897
10237SOL    HW131681   7.150   0.394   4.599  1.3555 -0.3688  1.0572
10237SOL    HW231682   7.126   0.394   4.450 -1.1007  0.0743  1.4052
10238SOL     OW31683   7.206   3.511   0.653  0.5795  0.1522 -0.2954
10238SOL    HW131684   7.257   3.461   0.716 -0.4386 -1.7441 -0.8977
10238SOL    HW231685   7.154   3.571   0.706  0.4498 -0.7238  0.5935
10239SOL     OW31686   4.065   4.286   5.098 -0.1754 -0.0632  0.1684
10239SOL    HW131687   4.046   4.379   5.109 -1.7632 -0.4785  1.3920
10239SOL    HW231688   4.155   4.282   5.067 -0.6678  1.9567 -1.7294
10240SOL     OW31689   1.960   5.897   0.331  0.4856 -0.2025  0.1806
10240SOL    HW131690   1.878   5.864   0.367  1.2354 -0.6711  1.5202
10240SOL    HW231691   1.954   5.879   0.237 -0.7952 -0.5163  0.3075
10241SOL     OW31692   0.811   4.199   3.372  0.6300 -0.8766 -0.1664
10241SOL    HW131693   0.781   4.288   3.389  3.6997  0.1310  0.6946
10241SOL    HW231694   0.901   4.210   3.340  1.8442 -3.6889  1.8759
10242SOL     OW31695   4.285   5.865   3.261  0.5634 -0.3688  0.6315
10242SOL    HW131696   4.217   5.832   3.319 -0.6899  1.8616  0.5453
10242SOL    HW231697   4.252   5.848   3.173  0.5544 -0.1740  0.5950
10243SOL     OW31698   4.462   3.156   2.507 -0.0056  0.2127 -0.7309
10243SOL    HW131699   4.546   3.186   2.471 -0.4132  3.2562  0.5684
10243SOL    HW231700   4.440   3.079   2.454  3.5120 -0.6772 -1.1917
10244SOL     OW31701   5.007   3.362   1.800  0.4629  0.2473  0.0501
10244SOL    HW131702   5.076   3.413   1.843  1.0088 -0.6937  0.3317
10244SOL    HW231703   5.054   3.288   1.761 -0.1199  0.6855 -1.5476
10245SOL     OW31704   0.684   4.194   0.454  0.2664 -0.5760 -0.1370
10245SOL    HW131705   0.707   4.177   0.545  0.7413 -0.9000 -0.3148
10245SOL    HW231706   0.659   4.108   0.420  2.5382 -0.9516 -1.0057
10246SOL     OW31707   4.355   3.407   0.142 -0.2183 -0.3249 -0.1655
10246SOL    HW131708   4.280   3.417   0.083  0.3160 -1.8065 -1.1398
10246SOL    HW231709   4.316   3.398   0.229 -1.1143 -0.0378 -0.5271
10247SOL     OW31710   3.029   6.928   0.732  0.2493  0.3585 -0.5398
10247SOL    HW131711   3.097   6.943   0.666 -1.7318 -0.1077 -2.7989
10247SOL    HW231712   2.958   6.886   0.684 -1.2874 -0.0409  1.9375
10248SOL     OW31713   5.482   2.159   3.021  0.1622  0.0048  0.2502
10248SOL    HW131714   5.558   2.136   2.967 -1.7702 -1.0948 -2.1741
10248SOL    HW231715   5.448   2.075   3.051 -1.8662  0.2187 -1.3043
10249SOL     OW31716   4.997   5.792   2.105  0.2172  0.0758  0.2552
10249SOL    HW131717   4.986   5.719   2.044 -0.0456  0.4699 -0.1755
10249SOL    HW231718   4.951   5.764   2.184 -1.4451  0.4854 -0.5101
10250SOL     OW31719   0.966   5.490   5.236 -0.1493 -0.7903  0.1444
10250SOL    HW131720   1.020   5.412   5.225  1.0569 -0.0400  0.5374
10250SOL    HW231721   1.004   5.554   5.176 -1.3902 -0.6179 -0.4861
10251SOL     OW31722   2.511   4.019   0.022 -0.0830 -0.5174 -0.3141
10251SOL    HW131723   2.488   3.934  -0.017  0.4807 -0.8705  0.1086
10251SOL    HW231724   2.427   4.057   0.046 -0.4398 -0.3586 -1.7035
10252SOL     OW31725   1.270   2.985   3.005 -0.2010  0.1986 -0.3523
10252SOL    HW131726   1.255   3.031   2.922 -0.0723  0.3321 -0.3015
10252SOL    HW231727   1.255   3.052   3.072 -1.0825 -0.1053 -0.2355
10253SOL     OW31728   0.324   1.350   7.010 -0.1451  0.2281 -0.3556
10253SOL    HW131729   0.243   1.312   7.045 -0.5184  1.1853 -0.1642
10253SOL    HW231730   0.316   1.339   6.915 -0.4314  0.1890 -0.3291
10254SOL     OW31731   3.773   4.621   4.013 -0.1859  0.3668 -0.2345
10254SOL    HW131732   3.725   4.680   4.070 -0.2753 -1.1167  1.2851
10254SOL    HW231733   3.853   4.669   3.991 -0.1871  1.0172  1.0778
10255SOL     OW31734   3.152   4.577   0.262  0.8538 -0.3215  0.1349
10255SOL    HW131735   3.176   4.492   0.301  1.1444 -0.6932 -0.8349
10255SOL    HW231736   3.074   4.558   0.210  0.3811  0.2047  0.6371
10256SOL     OW31737   7.334   2.193   2.720 -0.4691 -0.0428  0.4422
10256SOL    HW131738   7.426   2.216   2.736 -0.3148  0.6146 -1.2053
10256SOL    HW231739   7.290   2.278   2.709 -0.8088 -0.3986 -1.0936
10257SOL     OW31740   5.590   4.108   1.936  0.2291  0.0821  0.7745
10257SOL    HW131741   5.608   4.168   2.009 -2.4689  1.9669  0.0387
10257SOL    HW231742   5.561   4.165   1.865  0.2533 -1.9209 -0.9290
10258SOL     OW31743   2.978   1.140   4.556 -0.4067 -0.1133  0.3126
10258SOL    HW131744   2.938   1.056   4.537 -0.7530  0.5472 -2.1829
10258SOL    HW231745   2.939   1.167   4.640  1.0247 -3.1190  2.1040
10259SOL     OW31746   5.350   7.291   1.475  0.1999  0.3672  0.2018
10259SOL    HW131747   5.440   7.323   1.487  0.3786  0.6277 -1.5661
10259SOL    HW231748   5.348   7.259   1.386 -0.9416 -1.4924  0.8476
10260SOL     OW31749   0.184   1.517   5.365  0.4168  0.3905  0.1957
10260SOL    HW131750   0.092   1.514   5.339  0.7163  0.5388 -0.9273
10260SOL    HW231751   0.227   1.568   5.296  1.6446 -1.2316 -0.3076
10261SOL     OW31752   2.296   2.728   2.852 -0.4211 -0.0502 -0.6320
10261SOL    HW131753   2.246   2.646   2.845  0.6264 -0.6762 -1.0200
10261SOL    HW231754   2.309   2.756   2.761  0.8290 -0.4685 -0.5964
10262SOL     OW31755   2.067   4.838   5.490 -0.4929  0.6087  0.1364
10262SOL    HW131756   1.998   4.836   5.556  1.5367 -2.9652  2.4658
10262SOL    HW231757   2.137   4.891   5.529  0.0235 -0.0326  0.1052
10263SOL     OW31758   3.615   6.983   7.354  0.5758  0.2603 -0.0891
10263SOL    HW131759   3.672   7.055   7.326  1.1523 -0.0883  0.1631
10263SOL    HW231760   3.668   6.935   7.417 -0.8018  1.2461  1.9287
10264SOL     OW31761   6.927   2.960   1.311 -0.2177 -0.3071 -0.5131
10264SOL    HW131762   6.904   2.916   1.230  0.9192 -0.1710 -0.9278
10264SOL    HW231763   6.998   3.020   1.287  0.2894 -0.4210  0.6091
10265SOL     OW31764   2.411   1.065   4.981 -0.2014 -1.0858 -0.5712
10265SOL    HW131765   2.426   1.136   4.919 -0.0319 -1.3232 -0.8022
10265SOL    HW231766   2.492   1.060   5.033  0.0770 -1.5979 -1.0474
10266SOL     OW31767   0.058   0.977   5.449 -0.5064 -0.4351 -0.8236
10266SOL    HW131768   0.046   0.896   5.498  0.5329 -0.0578  0.1096
10266SOL    HW231769   0.123   0.956   5.382 -0.1075 -0.3340 -0.4706
10267SOL     OW31770   1.238   6.823   0.936  0.4627  0.1748  0.1273
10267SOL    HW131771   1.250   6.900   0.991  1.8725  0.2804 -0.2639
10267SOL    HW231772   1.187   6.854   0.861 -0.7656  0.2152  0.9574
10268SOL     OW31773   0.033   0.335   5.236  0.4709 -0.3143 -0.4571
10268SOL    HW131774  -0.056   0.319   5.203  0.0548 -0.0947  0.5309
10268SOL    HW231775   0.058   0.253   5.278  0.2671  0.0102  0.3030
10269SOL     OW31776   0.395   1.059   5.000  0.3101  0.2031 -1.1165
10269SOL    HW131777   0.486   1.034   4.985  0.5514 -0.1873  0.7891
10269SOL    HW231778   0.399   1.117   5.076 -0.9403  0.9937 -1.6254
10270SOL     OW31779   1.544   6.926   4.602  0.6571  0.6683 -0.2632
10270SOL    HW131780   1.605   6.874   4.550  1.7347 -0.0769  1.6428
10270SOL    HW231781   1.510   6.992   4.541  1.2234 -0.6517 -2.0756
10271SOL     OW31782   7.021   1.907   2.871  0.2401  0.6179 -0.3142
10271SOL    HW131783   7.030   1.942   2.782  0.4513  2.0611  0.2501
10271SOL    HW231784   7.075   1.965   2.925 -1.8159  1.2850  1.1435
10272SOL     OW31785   4.213   1.336   2.122  0.4784  0.0952  0.1922
10272SOL    HW131786   4.200   1.265   2.058 -1.0702  0.4206  0.1103
10272SOL    HW231787   4.303   1.325   2.152  0.2577 -1.9606  0.2393
10273SOL     OW31788   5.611   1.509   7.050  0.3365  0.1879 -0.2978
10273SOL    HW131789   5.652   1.594   7.036 -1.1148  0.9098 -0.3200
10273SOL    HW231790   5.575   1.485   6.965 -1.4991  0.8077  0.2528
10274SOL     OW31791   2.056   2.718   0.178 -0.3840  0.0038 -0.1314
10274SOL    HW131792   2.076   2.731   0.085 -1.1349  2.5946  0.0127
10274SOL    HW231793   1.962   2.701   0.180 -0.5390  0.8641  0.2074
10275SOL     OW31794   0.205   1.249   5.376  0.3184  0.4912 -0.0684
10275SOL    HW131795   0.199   1.341   5.403 -1.1612  0.2633  0.4934
10275SOL    HW231796   0.145   1.203   5.435  0.9560 -0.8294 -0.4078
10276SOL     OW31797   1.328   4.006   6.441  0.0813 -0.3572  0.6114
10276SOL    HW131798   1.287   4.091   6.424 -1.1657 -0.9136  0.7087
10276SOL    HW231799   1.417   4.028   6.470 -0.1690  0.8988  0.5069
10277SOL     OW31800   2.321   0.993   6.273 -0.4677 -0.2770 -0.1676
10277SOL    HW131801   2.347   1.032   6.189 -1.0680  3.2355  1.1255
10277SOL    HW231802   2.404   0.964   6.312  0.4311  2.1110 -0.1552
10278SOL     OW31803   1.782   5.563   0.484  1.1570 -0.2188  0.0702
10278SOL    HW131804   1.865   5.518   0.499  0.9354  0.1522  2.9886
10278SOL    HW231805   1.729   5.542   0.561 -0.3258  1.9808 -0.2581
10279SOL     OW31806   6.292   6.657   3.015 -0.2478  0.4319 -0.1007
10279SOL    HW131807   6.248   6.593   2.959 -1.9321 -1.6130  3.2618
10279SOL    HW231808   6.232   6.731   3.019 -1.0187 -0.2218  0.4951
10280SOL     OW31809   5.288   2.812   5.193  0.0027  0.2494 -0.3720
10280SOL    HW131810   5.380   2.829   5.171  0.0453  0.9128  0.2831
10280SOL    HW231811   5.269   2.728   5.151  0.8438  0.2089 -0.7033
10281SOL     OW31812   6.232   2.932   6.429  0.0642  0.4265 -0.2400
10281SOL    HW131813   6.320   2.929   6.466  0.2916 -0.2265 -0.8264
10281SOL    HW231814   6.175   2.903   6.500  0.3850  0.2293 -0.0630
10282SOL     OW31815   3.054   6.997   4.900 -0.3995 -0.3359  0.4739
10282SOL    HW131816   3.129   7.056   4.911  0.1486 -0.8447 -0.3956
10282SOL    HW231817   3.093   6.914   4.872 -1.2712 -0.6892  0.2613
10283SOL     OW31818   5.002   5.733   5.616  0.5727  0.3746 -0.0986
10283SOL    HW131819   5.044   5.744   5.701  3.1281 -1.5218 -1.0096
10283SOL    HW231820   5.015   5.817   5.571  3.0141  0.0353 -0.1328
10284SOL     OW31821   2.213   4.866   4.994 -0.2355  0.1279  0.6870
10284SOL    HW131822   2.178   4.797   5.051 -0.1803 -0.6723 -0.2310
10284SOL    HW231823   2.278   4.821   4.939  0.1593  1.0140  0.4056
10285SOL     OW31824   6.392   0.055   1.410 -0.5272  0.4232  0.0284
10285SOL    HW131825   6.426   0.125   1.467 -0.5933  0.2872  0.2359
10285SOL    HW231826   6.317   0.020   1.458  1.3126 -1.8737  1.4202
10286SOL     OW31827   5.634   1.127   3.877 -0.3502 -0.2930 -0.2871
10286SOL    HW131828   5.687   1.186   3.931  1.2964 -0.0022 -2.0908
10286SOL    HW231829   5.607   1.181   3.803 -2.8360 -0.5835  0.3207
10287SOL     OW31830   3.773   5.746   6.534  0.1259  0.7722  0.2838
10287SOL    HW131831   3.718   5.729   6.457  0.2771 -2.4962  0.7349
10287SOL    HW231832   3.711   5.750   6.606  0.0904  2.6193  0.1879
10288SOL     OW31833   4.579   0.368   3.695 -0.3043 -0.2432 -0.1783
10288SOL    HW131834   4.567   0.296   3.633 -1.0116 -1.6093  1.4658
10288SOL    HW231835   4.673   0.390   3.690 -0.2707 -0.6343 -1.3637
10289SOL     OW31836   1.248   1.540   0.349  0.6701  0.3703  0.3319
10289SOL    HW131837   1.297   1.602   0.295  0.5011  1.5210  1.4611
10289SOL    HW231838   1.179   1.592   0.390  1.4727 -0.1870  2.5381
10290SOL     OW31839   7.110   5.072   2.096  0.3180 -0.2373  0.2626
10290SOL    HW131840   7.088   4.980   2.082  1.1400 -0.5317  0.8941
10290SOL    HW231841   7.168   5.094   2.022  2.3674 -1.0142  1.5647
10291SOL     OW31842   6.666   0.368   7.055 -0.1630  0.1467  0.3638
10291SOL    HW131843   6.634   0.378   7.145  0.3541  2.2937  0.3552
10291SOL    HW231844   6.639   0.448   7.011  1.7991  0.2963 -0.6929
10292SOL     OW31845   5.781   5.551   0.724 -0.1288  0.2833  0.1239
10292SOL    HW131846   5.842   5.548   0.651  2.5354  0.3257  2.2076
10292SOL    HW231847   5.778   5.643   0.749  0.1348  0.0791  0.9380
10293SOL     OW31848   6.370   0.843   7.056 -0.1728  0.7085 -0.0000
10293SOL    HW131849   6.386   0.937   7.042  1.2259  0.4972 -0.0148
10293SOL    HW231850   6.356   0.808   6.968 -1.2855  0.9909  0.0570
10294SOL     OW31851   6.403   2.422   5.847 -0.3742  0.0855 -0.1211
10294SOL    HW131852   6.398   2.477   5.925  1.8198 -1.1337  0.9578
10294SOL    HW231853   6.485   2.447   5.804 -0.9624 -0.0947 -1.4022
10295SOL     OW31854   6.991   6.544   4.244  1.1789  0.2618  0.2446
10295SOL    HW131855   6.943   6.573   4.167 -0.5692 -0.1254  1.1250
10295SOL    HW231856   7.046   6.473   4.213 -0.1512 -0.4770 -0.5217
10296SOL     OW31857   2.333   5.830   5.929  0.4823 -0.2373  0.1060
10296SOL    HW131858   2.396   5.830   6.001  0.0883  0.1114  0.4569
10296SOL    HW231859   2.302   5.740   5.925  1.2309 -0.4884 -0.2788
10297SOL     OW31860   4.849   6.281   5.631 -0.2708  0.0911  0.0734
10297SOL    HW131861   4.764   6.293   5.589 -0.0472  0.3799 -0.3046
10297SOL    HW231862   4.839   6.201   5.682 -0.5155 -0.3261 -0.6091
10298SOL     OW31863   3.720   0.913   4.410  0.3546  0.1596 -0.2267
10298SOL    HW131864   3.769   0.960   4.477 -0.3071 -0.2453  0.5545
10298SOL    HW231865   3.632   0.904   4.445 -0.2967  0.8543 -1.6079
10299SOL     OW31866   5.417   3.759   7.322  0.2898 -0.8169  0.0075
10299SOL    HW131867   5.390   3.823   7.388  0.4257 -1.6248  0.8698
10299SOL    HW231868   5.357   3.686   7.334 -0.1235 -0.7186 -1.2390
10300SOL     OW31869   3.224   1.234   6.588 -0.0311 -0.3901 -0.4165
10300SOL    HW131870   3.234   1.328   6.601 -0.8342 -0.0220 -2.1188
10300SOL    HW231871   3.159   1.208   6.653  0.5321  0.1134  0.3788
10301SOL     OW31872   3.146   5.686   5.073  0.5338  0.0004  0.4834
10301SOL    HW131873   3.159   5.667   4.980  2.1934  1.7135  0.2986
10301SOL    HW231874   3.066   5.640   5.096 -1.3975  1.5549 -2.4697
10302SOL     OW31875   2.724   4.607   4.375  0.0239 -0.1878 -0.4087
10302SOL    HW131876   2.757   4.609   4.285  3.3130  0.2278  0.6551
10302SOL    HW231877   2.777   4.672   4.421 -0.3721 -1.5508  2.1600
10303SOL     OW31878   5.304   6.410   6.740  0.0430 -0.0524  0.3252
10303SOL    HW131879   5.378   6.385   6.796  0.9375  0.4434 -0.6024
10303SOL    HW231880   5.242   6.451   6.800  0.7364 -0.0364  1.0545
10304SOL     OW31881   2.546   0.718   6.583  0.0750 -0.1645  0.5537
10304SOL    HW131882   2.549   0.630   6.545 -0.7456 -0.2505  0.6765
10304SOL    HW231883   2.612   0.716   6.652  1.8605  0.1076 -1.0522
10305SOL     OW31884   1.925   5.437   6.090  0.1260  0.2019 -0.2203
10305SOL    HW131885   1.948   5.522   6.129 -1.8983  0.7847 -0.2030
10305SOL    HW231886   1.933   5.452   5.995 -0.0837  0.3743 -0.2125
10306SOL     OW31887   1.602   1.889   0.751  0.3805  0.2474 -0.5764
10306SOL    HW131888   1.679   1.946   0.749 -0.3015  1.5371  3.0086
10306SOL    HW231889   1.623   1.822   0.816 -0.5081 -1.1312 -1.6286
10307SOL     OW31890   5.597   4.749   4.572 -0.6057 -0.8682  0.5693
10307SOL    HW131891   5.503   4.738   4.562 -1.0060  1.3910  1.3791
10307SOL    HW231892   5.628   4.769   4.484 -1.0828 -0.3931  0.5044
10308SOL     OW31893   3.134   0.485   0.173  0.3749 -0.0401  0.2661
10308SOL    HW131894   3.211   0.493   0.115  0.1764  0.8769  0.1110
10308SOL    HW231895   3.123   0.573   0.210 -0.4789 -0.2125  0.4384
10309SOL     OW31896   6.226   6.477   2.832 -0.0685 -0.2588  0.0380
10309SOL    HW131897   6.132   6.462   2.826 -0.0550 -0.0608 -0.6618
10309SOL    HW231898   6.265   6.390   2.819 -0.1231 -0.1947 -0.5798
10310SOL     OW31899   4.555   5.049   4.850  0.1942 -0.1727 -0.3116
10310SOL    HW131900   4.575   5.049   4.944 -0.1355  0.2263 -0.2379
10310SOL    HW231901   4.461   5.028   4.846  0.3853 -1.0377 -0.5984
10311SOL     OW31902   4.055   7.322   6.244 -0.1312 -0.4550 -0.2141
10311SOL    HW131903   4.016   7.353   6.325 -0.7289  0.9817 -1.0117
10311SOL    HW231904   4.093   7.236   6.266 -2.2321 -1.1274  1.0155
10312SOL     OW31905   5.835   6.044   5.373  0.3681  0.6027  0.2526
10312SOL    HW131906   5.799   6.105   5.436  0.0947  0.6749  0.0255
10312SOL    HW231907   5.808   5.958   5.405 -0.1663  0.6675 -0.0195
10313SOL     OW31908   2.598   6.278   1.124  0.6880  0.5105 -0.1696
10313SOL    HW131909   2.666   6.327   1.080 -0.1272  0.1907 -1.8583
10313SOL    HW231910   2.520   6.291   1.071  0.2526 -1.9618 -0.2825
10314SOL     OW31911   0.665   1.697   4.379 -0.5168 -0.1775  0.2717
10314SOL    HW131912   0.634   1.661   4.296  0.2272  0.5171 -0.3311
10314SOL    HW231913   0.729   1.634   4.410 -0.0136  0.0797 -0.2299
10315SOL     OW31914   3.550   6.943   3.032  0.4785 -0.3948 -0.6654
10315SOL    HW131915   3.602   6.997   3.091  0.6227  0.5056 -1.5846
10315SOL    HW231916   3.555   6.855   3.069 -1.1366  0.4754  1.8115
10316SOL     OW31917   4.144   2.849   6.568 -0.2073  0.4599  0.2930
10316SOL    HW131918   4.109   2.867   6.655  0.4927  2.2009  0.2482
10316SOL    HW231919   4.067   2.829   6.514 -0.6832 -0.1465  1.1773
10317SOL     OW31920   7.069   1.655   2.141 -0.0477  0.7250  0.1449
10317SOL    HW131921   6.991   1.629   2.091  1.4159 -1.6564 -1.0830
10317SOL    HW231922   7.043   1.648   2.233 -1.4459  0.5828 -0.2431
10318SOL     OW31923   7.238   5.139   1.877 -0.0862  0.4398 -0.2142
10318SOL    HW131924   7.165   5.184   1.834 -1.3127 -0.3661  0.9649
10318SOL    HW231925   7.263   5.070   1.815 -2.5130 -1.3748  0.6577
10319SOL     OW31926   6.063   6.811   2.996  0.4443  0.3684  0.3136
10319SOL    HW131927   6.024   6.898   3.000 -0.6061 -0.1173  4.0703
10319SOL    HW231928   5.991   6.754   2.967  0.1661  0.3261  1.0731
10320SOL     OW31929   1.857   3.514   2.760  0.5780 -0.0566  0.3147
10320SOL    HW131930   1.784   3.482   2.707  1.3852 -2.0039  0.2916
10320SOL    HW231931   1.857   3.458   2.838  2.1906 -0.3105  0.1736
10321SOL     OW31932   2.652   1.019   2.189 -0.4679 -0.2942 -0.3315
10321SOL    HW131933   2.588   0.949   2.179 -0.1154 -0.7779  0.7068
10321SOL    HW231934   2.600   1.098   2.205 -0.8507 -0.3700 -1.1391
10322SOL     OW31935   0.818   0.734   2.798  0.0194 -0.4687  0.4989
10322SOL    HW131936   0.746   0.673   2.816  0.7563 -1.3178  0.6324
10322SOL    HW231937   0.846   0.711   2.709  0.6986 -0.7540  0.7763
10323SOL     OW31938   4.448   3.548   2.562  0.1472 -0.3677 -0.0010
10323SOL    HW131939   4.433   3.640   2.539 -0.5316 -0.4374  0.1392
10323SOL    HW231940   4.468   3.505   2.479  0.9248 -0.0186 -0.0112
10324SOL     OW31941   1.379   5.439   1.784  0.4084 -0.1848  0.2889
10324SOL    HW131942   1.405   5.497   1.712 -2.4175  0.1020 -0.6352
10324SOL    HW231943   1.338   5.498   1.848  0.7807 -0.7444  1.0532
10325SOL     OW31944   5.129   5.365   3.686 -0.2195  0.4174 -0.2735
10325SOL    HW131945   5.079   5.289   3.716 -2.7848  2.3199  0.6586
10325SOL    HW231946   5.118   5.364   3.590 -1.8584  0.5923 -0.1209
10326SOL     OW31947   1.511   0.009   6.973 -0.1223  0.1430 -0.0568
10326SOL    HW131948   1.573   0.050   7.034 -1.2065  2.0201 -0.1540
10326SOL    HW231949   1.556   0.010   6.889  0.2910  0.1067  0.1609
10327SOL     OW31950   5.792   2.695   3.120 -0.1184 -0.4298 -0.0591
10327SOL    HW131951   5.873   2.735   3.091  0.6539 -0.5226  1.8394
10327SOL    HW231952   5.724   2.760   3.099  0.6914  0.4786  0.0700
10328SOL     OW31953   2.276   0.803   0.647  0.2010 -0.7778 -0.2088
10328SOL    HW131954   2.360   0.804   0.694 -0.2521  0.2663  0.6081
10328SOL    HW231955   2.238   0.718   0.668  0.6065 -0.8554  0.2405
10329SOL     OW31956   4.181   6.976   1.084  0.7895  0.6895  0.2266
10329SOL    HW131957   4.228   7.060   1.078  0.7643  0.6475 -0.7618
10329SOL    HW231958   4.139   6.967   0.999 -2.4023  1.5201  1.5851
10330SOL     OW31959   3.836   2.783   4.755 -0.5576  0.3218 -0.4176
10330SOL    HW131960   3.767   2.724   4.786 -0.8491  0.3332 -1.0370
10330SOL    HW231961   3.911   2.761   4.810 -1.9838  2.8164  2.8791
10331SOL     OW31962   6.797   4.807   4.648  0.1265  0.0865  0.1164
10331SOL    HW131963   6.788   4.897   4.677  1.2324  0.1990  0.1719
10331SOL    HW231964   6.774   4.809   4.555 -3.1930 -0.2336  0.8038
10332SOL     OW31965   3.668   4.493   0.384 -0.6242 -0.1714 -0.2548
10332SOL    HW131966   3.646   4.551   0.311  0.0872 -0.2208 -0.5206
10332SOL    HW231967   3.607   4.420   0.376 -2.3962  1.0918  0.8201
10333SOL     OW31968   5.951   5.658   1.937 -0.5297  0.1731  0.2121
10333SOL    HW131969   5.875   5.607   1.963 -0.4324  0.5347  1.2648
10333SOL    HW231970   5.932   5.747   1.968 -1.0336  0.9786 -2.2411
10334SOL     OW31971   2.421   5.666   1.679 -0.6488 -0.6389 -0.0254
10334SOL    HW131972   2.487   5.730   1.705  0.3122 -1.7616  0.3966
10334SOL    HW231973   2.438   5.649   1.587 -1.4654  0.3419 -0.3700
10335SOL     OW31974   2.718   3.739   0.036  0.1912  0.2579 -0.4870
10335SOL    HW131975   2.746   3.769   0.123  2.0188  0.7266 -1.1950
10335SOL    HW231976   2.768   3.659   0.021 -1.8512 -1.1816 -0.1979
10336SOL     OW31977   3.244   4.009   3.909  0.4521 -0.7139 -0.1850
10336SOL    HW131978   3.331   4.039   3.934 -0.9904  3.1225  0.8996
10336SOL    HW231979   3.229   4.049   3.823 -0.5050 -0.7267 -0.0345
10337SOL     OW31980   2.941   7.006   5.138  0.2119  0.0443  0.5993
10337SOL    HW131981   2.990   6.994   5.057  0.8726 -2.0102  1.2381
10337SOL    HW231982   2.866   6.947   5.130 -0.6384  1.0776  0.8071
10338SOL     OW31983   0.635   1.911   4.999 -0.1966  0.4170 -0.5578
10338SOL    HW131984   0.604   1.827   5.032 -0.3783  0.2648 -1.1064
10338SOL    HW231985   0.618   1.973   5.070 -2.5822  0.5221 -1.1141
10339SOL     OW31986   4.208   2.987   5.144 -0.1427 -0.0603  0.2560
10339SOL    HW131987   4.248   3.074   5.142 -1.9979  0.8426 -2.1588
10339SOL    HW231988   4.251   2.940   5.073 -1.9172  0.3164 -1.1451
10340SOL     OW31989   4.877   6.833   5.953 -0.6100  0.3863 -0.7263
10340SOL    HW131990   4.854   6.744   5.982 -1.2201  1.2459  1.6982
10340SOL    HW231991   4.883   6.827   5.858  1.2962 -2.6985 -0.5463
10341SOL     OW31992   5.235   6.702   2.118 -0.0257  0.4185 -0.5417
10341SOL    HW131993   5.247   6.791   2.151  1.3314  0.2588 -0.5504
10341SOL    HW231994   5.324   6.667   2.111 -0.5881 -1.3538  0.6023
10342SOL     OW31995   1.033   0.531   3.145  0.0344  0.1583  0.1474
10342SOL    HW131996   0.944   0.497   3.140  0.0194  0.2050  0.0936
10342SOL    HW231997   1.081   0.483   3.078  0.0410  0.1586  0.1520
10343SOL     OW31998   7.051   0.537   7.036 -0.4474 -0.1548 -0.1755
10343SOL    HW131999   6.978   0.538   6.974  0.9610 -1.1516 -1.9283
10343SOL    HW232000   7.085   0.626   7.035 -1.2389  0.1641  0.2065
10344SOL     OW32001   3.314   6.475   6.217  0.1841 -0.7544 -0.3698
10344SOL    HW132002   3.365   6.438   6.144  0.2180 -1.8408  0.1761
10344SOL    HW232003   3.372   6.465   6.293 -1.1512 -2.9350  0.4631
10345SOL     OW32004   7.303   3.822   0.259 -0.2786 -0.2356 -0.3302
10345SOL    HW132005   7.337   3.751   0.204  0.6209 -0.0648  0.0056
10345SOL    HW232006   7.338   3.902   0.219 -0.0517 -0.0778  0.1790
10346SOL     OW32007   0.334   6.767   6.011 -0.1012  0.2696  0.3858
10346SOL    HW132008   0.351   6.830   6.081  0.9121  0.2491  0.1767
10346SOL    HW232009   0.411   6.773   5.955 -1.0769  0.5740 -0.9593
10347SOL     OW32010   1.093   4.647   6.870 -0.1289 -0.0709 -0.1231
10347SOL    HW132011   1.136   4.711   6.926  0.1818 -1.1846  0.9702
10347SOL    HW232012   1.108   4.563   6.914 -1.1773 -0.8023 -1.0941
10348SOL     OW32013   7.237   7.011   3.731  0.2841  0.3771  0.6222
10348SOL    HW132014   7.190   7.086   3.694 -0.6102  1.3773  3.4843
10348SOL    HW232015   7.170   6.962   3.779  1.3285 -0.8724  0.8491
10349SOL     OW32016   1.603   0.478   0.657  0.0958 -0.0663  0.8335
10349SOL    HW132017   1.595   0.558   0.709 -2.5507 -0.7863  1.6932
10349SOL    HW232018   1.515   0.463   0.623  1.1326 -1.1909 -1.5680
10350SOL     OW32019   3.573   2.959   3.763 -0.4691  0.1159 -0.1900
10350SOL    HW132020   3.609   2.952   3.674 -0.1741  2.7238 -0.3679
10350SOL    HW232021   3.591   3.050   3.788  1.0836 -0.9790  3.2809
10351SOL     OW32022   6.532   6.925   0.416  0.8421 -0.8752 -0.2408
10351SOL    HW132023   6.467   6.917   0.486  0.7712 -2.7886 -0.4780
10351SOL    HW232024   6.557   6.835   0.395  0.0835 -0.4935 -3.4007
10352SOL     OW32025   4.503   5.093   6.457  0.0472 -0.3408  0.1215
10352SOL    HW132026   4.549   5.176   6.444 -1.0259 -0.0646 -2.4582
10352SOL    HW232027   4.482   5.063   6.369 -3.7146 -1.0046  1.0645
10353SOL     OW32028   2.323   7.248   5.530 -0.0351  0.4820 -0.1380
10353SOL    HW132029   2.265   7.290   5.593  0.1706  1.7896 -0.7708
10353SOL    HW232030   2.408   7.244   5.574 -0.2054  0.1136  0.1655
10354SOL     OW32031   0.768   6.947   5.941  0.1002  0.1014  0.2949
10354SOL    HW132032   0.728   6.978   5.859 -1.4107 -0.5282  0.7481
10354SOL    HW232033   0.846   6.899   5.913 -0.3951 -0.1069 -0.7951
10355SOL     OW32034   5.917   5.034   7.180 -0.2888  0.3437  0.6570
10355SOL    HW132035   6.008   5.009   7.167 -0.3679  0.8366 -1.0133
10355SOL    HW232036   5.875   4.955   7.215  0.2109 -0.8011 -1.1731
10356SOL     OW32037   1.439   4.323   5.411 -0.5471  0.0829 -0.6897
10356SOL    HW132038   1.450   4.234   5.446  1.5839  0.9125  0.9846
10356SOL    HW232039   1.351   4.349   5.438 -0.7036 -1.0420 -0.0504
10357SOL     OW32040   0.010   7.154   5.940 -0.4192  0.0627 -0.3785
10357SOL    HW132041   0.006   7.224   6.006  1.3151 -1.3538  1.3676
10357SOL    HW232042   0.088   7.174   5.889 -1.1679  0.5679 -1.3652
10358SOL     OW32043   3.857   6.735   1.474  0.1709  0.0077 -0.5568
10358SOL    HW132044   3.890   6.824   1.488 -1.4140  0.5876 -0.3377
10358SOL    HW232045   3.901   6.705   1.394  3.4459 -0.4030  1.2086
10359SOL     OW32046   1.778   4.919   3.405 -0.5298  0.4362 -0.0060
10359SOL    HW132047   1.779   4.891   3.496  1.0516 -0.2598 -0.1963
10359SOL    HW232048   1.836   4.995   3.402 -0.3607  0.2960 -0.4532
10360SOL     OW32049   3.370   4.951   6.679  0.5278  0.4833 -0.0093
10360SOL    HW132050   3.348   4.899   6.757  1.0163  0.9213  0.4336
10360SOL    HW232051   3.460   4.926   6.659  0.6021  0.8050 -0.0790
10361SOL     OW32052   6.935   0.697   2.490  0.0631  0.1158 -0.5399
10361SOL    HW132053   6.880   0.775   2.496  1.3819  0.9567  2.4970
10361SOL    HW232054   6.887   0.631   2.539  0.2693 -0.1179 -0.6529
10362SOL     OW32055   1.340   4.292   3.978  0.2558  0.2797  0.1983
10362SOL    HW132056   1.363   4.340   3.898 -0.2046 -0.8423 -0.6481
10362SOL    HW232057   1.424   4.266   4.015  0.4640  0.1693 -0.3365
10363SOL     OW32058   2.851   3.129   6.764 -0.0174  0.0673  0.2840
10363SOL    HW132059   2.941   3.163   6.768 -0.0755  0.6171 -1.8370
10363SOL    HW232060   2.798   3.198   6.805  0.4375  0.0237  0.9727
10364SOL     OW32061   1.585   7.070   0.895  0.0549 -0.1761  0.0266
10364SOL    HW132062   1.597   6.983   0.934  1.2533  0.5616  1.3798
10364SOL    HW232063   1.665   7.086   0.845  0.1744  0.4632  0.4130
10365SOL     OW32064   3.203   5.236   2.056 -0.3830  0.7774  1.2379
10365SOL    HW132065   3.220   5.295   1.983  0.9535  1.2878  1.9265
10365SOL    HW232066   3.110   5.214   2.049 -0.1183  0.1780 -1.0622
10366SOL     OW32067   2.578   7.223   0.905  0.5401  0.1296  0.9371
10366SOL    HW132068   2.492   7.215   0.864  0.0553 -1.1970  2.0942
10366SOL    HW232069   2.630   7.153   0.866  0.2318 -0.8078  2.1393
10367SOL     OW32070   1.012   4.314   0.722 -0.4678 -0.3623  0.0154
10367SOL    HW132071   1.087   4.256   0.723 -0.1087 -0.0463 -2.6148
10367SOL    HW232072   1.009   4.350   0.811  2.0584 -0.8897  0.3953
10368SOL     OW32073   3.096   1.416   2.195 -0.2090 -0.3660  0.0781
10368SOL    HW132074   3.114   1.411   2.289 -0.6844 -1.9482  0.1030
10368SOL    HW232075   3.105   1.327   2.163 -0.6201  0.0517 -1.2908
10369SOL     OW32076   4.647   6.688   3.176 -0.7268 -0.6065 -0.6799
10369SOL    HW132077   4.727   6.701   3.126  0.2086  0.3286  1.0012
10369SOL    HW232078   4.621   6.775   3.204 -2.8177 -0.7809 -1.8289
10370SOL     OW32079   5.272   5.913   4.545 -0.0946 -0.2725 -0.1526
10370SOL    HW132080   5.205   5.928   4.478 -1.0230  0.9147  0.9842
10370SOL    HW232081   5.347   5.966   4.516 -0.5594  0.3867 -0.1854
10371SOL     OW32082   0.136   2.025   5.932 -0.1429  0.1415  0.1551
10371SOL    HW132083   0.094   2.111   5.923 -1.0088 -0.3447 -0.5936
10371SOL    HW232084   0.109   1.977   5.854  2.6530  0.1195 -0.8944
10372SOL     OW32085   5.484   2.181   2.336  0.2395 -0.5322  0.0268
10372SOL    HW132086   5.429   2.232   2.395 -1.3955  0.0411 -1.8850
10372SOL    HW232087   5.553   2.241   2.309  0.4700 -0.5181  0.6336
10373SOL     OW32088   5.932   4.078   4.265 -0.0927  0.2109  0.5804
10373SOL    HW132089   5.898   4.162   4.294 -0.9132 -0.5323  1.8866
10373SOL    HW232090   5.860   4.017   4.278  0.5991 -0.7612 -0.0039
10374SOL     OW32091   2.422   0.024   1.411 -0.1365 -0.0561  0.5534
10374SOL    HW132092   2.332   0.054   1.416 -0.3130  0.0223 -1.8479
10374SOL    HW232093   2.416  -0.072   1.415 -0.3120 -0.0454  0.5346
10375SOL     OW32094   7.057   4.205   3.028 -0.3368  0.6812 -0.3318
10375SOL    HW132095   6.967   4.232   3.047 -1.1682 -0.7796 -1.9256
10375SOL    HW232096   7.092   4.274   2.972 -0.4515  1.2501  0.2877
10376SOL     OW32097   3.142   6.207   4.069 -0.6223 -0.1800 -0.7598
10376SOL    HW132098   3.052   6.174   4.070 -0.7441  0.1440  0.0980
10376SOL    HW232099   3.164   6.213   3.977 -0.7963 -2.1030 -0.9741
10377SOL     OW32100   6.841   5.955   0.904  0.1177  0.5480 -0.2319
10377SOL    HW132101   6.894   5.988   0.832 -0.5626  2.0369 -0.0713
10377SOL    HW232102   6.763   6.010   0.905 -1.5790 -1.6935 -0.5627
10378SOL     OW32103   2.652   4.450   5.574 -0.2313  0.0093 -0.4659
10378SOL    HW132104   2.682   4.454   5.665  0.1788 -0.1839 -0.5874
10378SOL    HW232105   2.571   4.501   5.573 -0.4910 -0.3789  0.1061
10379SOL     OW32106   1.109   1.590   2.691 -0.0797 -0.1571  0.8091
10379SOL    HW132107   1.023   1.550   2.692 -0.1285 -0.2049 -1.0977
10379SOL    HW232108   1.153   1.555   2.769 -1.0803 -1.7205  0.7169
10380SOL     OW32109   3.129   6.393   6.528  0.3353 -0.4794 -0.5996
10380SOL    HW132110   3.059   6.328   6.528  0.0976 -0.3297 -3.4521
10380SOL    HW232111   3.208   6.342   6.509  0.6049 -0.2929  0.0046
10381SOL     OW32112   0.636   3.144   4.994 -0.3531 -0.0121  0.4910
10381SOL    HW132113   0.653   3.049   4.993 -1.0338 -0.1596  1.6044
10381SOL    HW232114   0.544   3.152   4.968  0.4464  0.5731 -2.5036
10382SOL     OW32115   5.519   4.532   2.343 -0.0348 -0.2782  0.0967
10382SOL    HW132116   5.507   4.572   2.429  1.0464 -0.4571  0.3415
10382SOL    HW232117   5.490   4.442   2.354 -0.9347 -0.0131 -0.0264
10383SOL     OW32118   1.225   4.868   0.125  0.4209 -0.1889 -0.1529
10383SOL    HW132119   1.155   4.915   0.170  0.1699 -1.2747  0.6310
10383SOL    HW232120   1.301   4.877   0.183 -0.1730 -2.4776  1.1029
10384SOL     OW32121   6.960   4.502   3.086  0.5336  0.0412  0.0427
10384SOL    HW132122   6.886   4.537   3.036  1.5978  0.8923 -0.9983
10384SOL    HW232123   7.020   4.469   3.019  2.4449  2.0776  0.6272
10385SOL     OW32124   0.254   2.301   0.750  0.1660  1.5061  0.6465
10385SOL    HW132125   0.224   2.314   0.660 -0.2840  0.5605  0.6506
10385SOL    HW232126   0.342   2.264   0.741 -0.8952 -1.2140  0.4949
10386SOL     OW32127   7.255   3.403   1.335 -0.1272 -0.0495  0.1572
10386SOL    HW132128   7.308   3.401   1.256  0.5680  1.1523  0.5540
10386SOL    HW232129   7.200   3.481   1.325  0.2304  0.3285  0.9991
10387SOL     OW32130   0.940   1.489   7.264 -0.0047  0.6661  0.9110
10387SOL    HW132131   1.034   1.493   7.282  0.2996 -0.9149 -0.1422
10387SOL    HW232132   0.901   1.465   7.349  0.6147  0.6260  1.1935
10388SOL     OW32133   0.577   0.899   3.443  0.6416 -0.0383  0.0477
10388SOL    HW132134   0.641   0.942   3.499 -0.6132  0.5867  1.0536
10388SOL    HW232135   0.499   0.955   3.448  0.4111 -0.0573 -2.1713
10389SOL     OW32136   6.904   5.189   2.204 -0.4750  0.4507 -0.1317
10389SOL    HW132137   6.844   5.174   2.130 -0.3900 -0.7535  0.0293
10389SOL    HW232138   6.986   5.148   2.177  0.0282  1.3408  0.0114
10390SOL     OW32139   3.238   4.662   4.969  0.3134  0.0639  0.1374
10390SOL    HW132140   3.171   4.730   4.964  0.9830  0.7842  0.8090
10390SOL    HW232141   3.219   4.615   5.050 -0.9099 -1.3979 -0.9343
10391SOL     OW32142   5.371   5.428   3.859 -0.4144 -0.1912 -0.4276
10391SOL    HW132143   5.387   5.359   3.924 -0.1836  1.1835  1.0444
10391SOL    HW232144   5.334   5.382   3.784 -0.6246 -1.8701  0.6420
10392SOL     OW32145   0.402   6.112   0.809  0.3726  0.3102  0.7803
10392SOL    HW132146   0.495   6.096   0.795  0.3217  0.6340  0.0625
10392SOL    HW232147   0.382   6.189   0.755 -0.8246 -1.1211 -0.9286
10393SOL     OW32148   4.890   4.941   6.305  0.0143 -0.3748  0.1160
10393SOL    HW132149   4.830   4.881   6.349 -1.2576  0.6378 -0.1753
10393SOL    HW232150   4.865   4.937   6.213  0.7859 -0.3608 -0.1002
10394SOL     OW32151   7.362   7.333   6.978 -0.2947  0.0143  0.3026
10394SOL    HW132152   7.309   7.363   6.904  0.6733 -1.1153 -0.9003
10394SOL    HW232153   7.434   7.285   6.938  1.4425  1.1578  1.9109
10395SOL     OW32154   0.754   7.008   3.090  0.7889  0.9164 -0.0409
10395SOL    HW132155   0.668   7.013   3.048  0.4388  4.0310  0.8286
10395SOL    HW232156   0.814   6.990   3.018 -0.5776 -2.4567 -0.5239
10396SOL     OW32157   6.026   4.927   4.464 -0.2287  0.1355 -0.1387
10396SOL    HW132158   6.042   4.838   4.496 -0.0599  0.6956  1.4675
10396SOL    HW232159   6.104   4.949   4.414 -0.4831 -0.7797 -0.9648
10397SOL     OW32160   1.732   1.519   5.296  0.1083  0.3517 -0.2401
10397SOL    HW132161   1.730   1.615   5.304 -0.5475  0.3496 -0.3222
10397SOL    HW232162   1.642   1.495   5.274 -0.2519 -0.4709  1.9375
10398SOL     OW32163   4.411   3.161   7.375 -0.0540  0.3228 -0.4020
10398SOL    HW132164   4.405   3.245   7.420  0.8915 -0.1391  0.6384
10398SOL    HW232165   4.389   3.096   7.442 -1.4825 -0.2445 -1.3683
10399SOL     OW32166   3.344   3.455   1.944  0.0265  0.0665  0.7733
10399SOL    HW132167   3.261   3.418   1.973 -0.1515 -0.3612 -0.2498
10399SOL    HW232168   3.408   3.386   1.962 -0.1482 -0.3623 -0.2019
10400SOL     OW32169   4.132   6.064   6.001  0.1098 -0.7532  0.1109
10400SOL    HW132170   4.157   6.045   6.092  0.1526 -1.3182 -0.0179
10400SOL    HW232171   4.124   6.160   5.999  1.0947 -0.6500  0.4520
10401SOL     OW32172   1.345   3.101   7.110 -0.4736  0.8084  0.2791
10401SOL    HW132173   1.338   3.032   7.044  0.9637  0.4512  0.4809
10401SOL    HW232174   1.384   3.175   7.063  0.0784  0.7241  0.6005
10402SOL     OW32175   3.657   1.170   0.396  0.1239  0.9842  0.3646
10402SOL    HW132176   3.746   1.194   0.372  0.4804 -0.5786 -0.0054
10402SOL    HW232177   3.661   1.158   0.491  0.5367  0.1447  0.2575
10403SOL     OW32178   0.484   1.836   0.044 -0.8515 -0.0880  0.3112
10403SOL    HW132179   0.435   1.754   0.049  2.6239 -2.5019 -0.8445
10403SOL    HW232180   0.537   1.837   0.124 -2.1870  2.1483  1.2684
10404SOL     OW32181   1.642   5.153   1.958  0.5244 -0.3815 -0.1185
10404SOL    HW132182   1.592   5.155   1.876  0.1865 -1.3552  0.0494
10404SOL    HW232183   1.699   5.230   1.953 -1.0506  0.8157 -0.2586
10405SOL     OW32184   5.866   1.868   5.148 -0.7859 -0.1617  0.1466
10405SOL    HW132185   5.772   1.886   5.143 -0.6442  0.5527 -0.1884
10405SOL    HW232186   5.883   1.853   5.241 -1.4880 -1.8680  0.0312
10406SOL     OW32187   4.001   4.457   3.094  0.1515 -0.3584 -0.1476
10406SOL    HW132188   3.987   4.363   3.082 -1.8338  0.1058 -2.1217
10406SOL    HW232189   4.095   4.468   3.081  0.1557 -1.8621 -1.9986
10407SOL     OW32190   7.164   2.320   7.283 -0.7763 -0.4694  0.5586
10407SOL    HW132191   7.114   2.244   7.252 -0.9465  0.0273 -0.4319
10407SOL    HW232192   7.256   2.296   7.269 -0.8340  0.9072 -3.4836
10408SOL     OW32193   5.260   4.690   0.934  0.5520  0.0326 -0.4143
10408SOL    HW132194   5.298   4.761   0.985 -2.7339  0.0609  2.3834
10408SOL    HW232195   5.206   4.734   0.868  0.1600  0.1187 -0.0398
10409SOL     OW32196   3.557   4.382   6.132  0.6325 -0.1793  0.2762
10409SOL    HW132197   3.539   4.290   6.148 -2.1936  0.3243  0.4025
10409SOL    HW232198   3.525   4.427   6.210 -0.3759  1.0965 -0.8174
10410SOL     OW32199   1.901   2.647   4.536 -0.3254 -0.2120 -0.4550
10410SOL    HW132200   1.830   2.626   4.596 -0.2075 -2.5820 -1.0198
10410SOL    HW232201   1.971   2.681   4.591 -1.0746 -0.0378  0.4055
10411SOL     OW32202   3.502   1.835   0.096  0.1052  0.0383 -0.3898
10411SOL    HW132203   3.572   1.900   0.096 -1.4503  1.7818  0.4339
10411SOL    HW232204   3.422   1.886   0.088 -1.3664 -1.5206  2.7733
10412SOL     OW32205   0.712   2.561   0.913 -0.5054 -0.3725  0.5080
10412SOL    HW132206   0.800   2.599   0.906  0.4307 -2.2052  1.5950
10412SOL    HW232207   0.670   2.609   0.984 -0.0612 -0.0987  0.5885
10413SOL     OW32208   1.796   3.410   1.080  0.3009  0.1014 -0.2022
10413SOL    HW132209   1.850   3.435   1.155  0.2314 -0.4571  0.0393
10413SOL    HW232210   1.805   3.482   1.018  1.6500 -0.1620 -0.3372
10414SOL     OW32211   4.466   4.589   3.528 -0.1932  0.2856  0.6492
10414SOL    HW132212   4.427   4.503   3.517  2.1781 -0.7727 -0.1883
10414SOL    HW232213   4.394   4.651   3.514 -1.5604 -1.5049 -0.6564
10415SOL     OW32214   2.713   0.358   2.997  0.1637 -0.0447  0.5208
10415SOL    HW132215   2.760   0.361   3.080  0.4785 -1.0221  0.3875
10415SOL    HW232216   2.686   0.267   2.987  0.6192 -0.0762 -0.7053
10416SOL     OW32217   0.852   2.483   6.658  0.5836  0.3316  0.2253
10416SOL    HW132218   0.859   2.388   6.666 -0.5874  0.1961 -0.1308
10416SOL    HW232219   0.896   2.517   6.736  1.5437 -0.4696  0.0564
10417SOL     OW32220   6.153   7.174   5.249  0.2864 -0.1590  0.0247
10417SOL    HW132221   6.208   7.100   5.223 -0.4604 -0.6508 -0.1813
10417SOL    HW232222   6.212   7.250   5.245  0.5794 -0.4399 -1.6949
10418SOL     OW32223   3.552   2.108   1.069 -0.0125  0.4640  0.4124
10418SOL    HW132224   3.475   2.061   1.101 -0.5601  1.1852  0.1707
10418SOL    HW232225   3.626   2.067   1.115 -0.7824  1.6294  2.8565
10419SOL     OW32226   3.521   3.250   2.670  0.4689 -0.0642 -0.2141
10419SOL    HW132227   3.512   3.158   2.695  1.9060 -0.9042 -2.4408
10419SOL    HW232228   3.613   3.270   2.684  0.1348  1.1127  0.4046
10420SOL     OW32229   5.254   6.701   6.907  0.4580  0.1066 -0.7025
10420SOL    HW132230   5.216   6.751   6.835  0.0554  2.4934  1.0231
10420SOL    HW232231   5.190   6.708   6.978  1.0903 -1.6705  0.0999
10421SOL     OW32232   6.992   1.083   5.370 -0.3931 -0.0710  0.0535
10421SOL    HW132233   7.087   1.082   5.357 -0.3938 -1.7124 -0.0405
10421SOL    HW232234   6.957   1.107   5.284 -0.0727  0.2947  0.0201
10422SOL     OW32235   2.832   4.938   1.552  0.7132  0.4592 -0.0192
10422SOL    HW132236   2.778   4.858   1.548  0.7034  0.4234  0.6324
10422SOL    HW232237   2.802   4.991   1.479  1.0517 -0.3406 -0.7605
10423SOL     OW32238   0.162   6.947   2.229  0.0062  0.1838  0.8612
10423SOL    HW132239   0.207   7.030   2.246  1.9991 -0.8378  0.8838
10423SOL    HW232240   0.195   6.888   2.297 -0.3320 -0.9884  0.0432
10424SOL     OW32241   0.088   5.313   3.583 -0.2179  0.2106  0.0510
10424SOL    HW132242   0.168   5.263   3.598 -0.3153  0.1513  0.4037
10424SOL    HW232243   0.068   5.301   3.490 -0.0583 -0.1360  0.0605
10425SOL     OW32244   0.082   2.130   2.330 -0.2088 -0.2517 -0.2188
10425SOL    HW132245   0.024   2.189   2.377 -2.2817 -1.7411 -0.7743
10425SOL    HW232246   0.053   2.135   2.239  1.4172 -0.0744 -0.7736
10426SOL     OW32247   1.255   0.990   4.103 -0.5263 -0.5426 -0.5579
10426SOL    HW132248   1.238   1.064   4.162  1.2116  0.0087 -0.6619
10426SOL    HW232249   1.171   0.971   4.062 -0.9423  1.6873 -0.8540
10427SOL     OW32250   3.568   0.442   3.616  1.0259  0.0367  0.1159
10427SOL    HW132251   3.610   0.489   3.544 -1.0189 -0.7268 -1.7160
10427SOL    HW232252   3.522   0.510   3.665 -0.6705  0.2543 -1.6252
10428SOL     OW32253   0.556   1.384   1.209  0.4695  0.7058 -0.3420
10428SOL    HW132254   0.622   1.449   1.184  2.0809 -0.8271 -0.2581
10428SOL    HW232255   0.561   1.381   1.305  0.9471 -0.0528 -0.3836
10429SOL     OW32256   6.798   1.624   0.145  0.1806  0.8288  0.1939
10429SOL    HW132257   6.754   1.547   0.182  0.6250  0.7316  0.5216
10429SOL    HW232258   6.865   1.587   0.087  2.0318  0.8882  2.1654
10430SOL     OW32259   1.094   0.767   1.822  0.6646 -0.0602  0.5276
10430SOL    HW132260   1.141   0.801   1.746  1.9167 -2.7871 -0.0236
10430SOL    HW232261   1.154   0.705   1.862 -0.8893 -0.4892  2.3627
10431SOL     OW32262   0.162   6.141   4.885  0.1722 -0.2436  0.4821
10431SOL    HW132263   0.071   6.170   4.881 -0.2620 -1.6629 -1.6916
10431SOL    HW232264   0.157   6.045   4.880  1.7997 -0.3236 -0.0632
10432SOL     OW32265   2.566   0.227   5.447  0.2148  0.0552 -0.1519
10432SOL    HW132266   2.481   0.198   5.413  1.1551 -0.1869 -2.5014
10432SOL    HW232267   2.569   0.320   5.427  0.5191  0.0463 -0.1495
10433SOL     OW32268   6.580   3.392   2.612 -0.2274 -0.0559 -0.3269
10433SOL    HW132269   6.646   3.359   2.551 -0.2949 -0.8186  0.0071
10433SOL    HW232270   6.626   3.400   2.696 -0.3367  0.2375 -0.2932
10434SOL     OW32271   4.062   4.274   0.751 -1.0169  0.3005 -0.2294
10434SOL    HW132272   4.053   4.334   0.825  0.1855 -0.7778  0.8572
10434SOL    HW232273   4.049   4.187   0.789 -0.7222 -0.2635 -1.3611
10435SOL     OW32274   7.220   0.087   0.741  0.7089 -0.4842  0.3270
10435SOL    HW132275   7.187   0.117   0.657 -0.2249 -1.7164  0.2188
10435SOL    HW232276   7.266   0.005   0.721  1.0498 -0.4477  0.9303
10436SOL     OW32277   3.236   1.449   4.660  0.1941 -0.7081 -0.1131
10436SOL    HW132278   3.318   1.482   4.696 -1.0801  0.7380  1.6352
10436SOL    HW232279   3.184   1.423   4.736 -1.7984  0.4564 -0.9895
10437SOL     OW32280   1.301   2.715   5.572 -0.1382  0.3089 -0.1704
10437SOL    HW132281   1.268   2.779   5.509 -1.3110  1.0682  1.1723
10437SOL    HW232282   1.233   2.648   5.576 -0.0937  0.2915  0.3325
10438SOL     OW32283   0.670   0.721   4.033  0.3313  0.6579 -0.6828
10438SOL    HW132284   0.761   0.696   4.017  0.9508  1.6722  0.8986
10438SOL    HW232285   0.641   0.760   3.951  1.6945  1.2634 -0.9149
10439SOL     OW32286   5.779   2.614   5.068 -0.1995 -0.3304  0.1381
10439SOL    HW132287   5.862   2.611   5.116 -0.6666  1.2988  1.1223
10439SOL    HW232288   5.726   2.546   5.108 -1.2245  2.0690  3.3683
10440SOL     OW32289   6.872   4.608   5.261  0.4719  0.0855 -0.1498
10440SOL    HW132290   6.885   4.699   5.232 -2.1493  0.6289  0.1756
10440SOL    HW232291   6.857   4.559   5.180  0.2250  0.2560 -0.2074
10441SOL     OW32292   4.058   6.419   6.553  0.8351  0.0973  0.0656
10441SOL    HW132293   4.101   6.338   6.526  0.3522 -0.0556 -0.2538
10441SOL    HW232294   3.965   6.397   6.558  0.9710 -0.0936  2.6542
10442SOL     OW32295   5.407   4.013   2.798 -0.3527  0.1582  0.1459
10442SOL    HW132296   5.339   3.983   2.736 -0.3356 -2.1446  1.1572
10442SOL    HW232297   5.393   4.108   2.803 -1.2303  0.2520 -2.3199
10443SOL     OW32298   1.370   0.747   4.150  0.1778 -0.1438 -0.5565
10443SOL    HW132299   1.440   0.737   4.215 -2.3488 -0.9451  2.3218
10443SOL    HW232300   1.347   0.839   4.154 -0.7287 -0.3866  0.6906
10444SOL     OW32301   7.006   4.066   5.452 -0.7887  0.1687  0.3118
10444SOL    HW132302   7.004   3.971   5.443 -0.5240  0.0918  0.9897
10444SOL    HW232303   6.934   4.097   5.398 -0.7640 -0.4069 -0.0550
10445SOL     OW32304   1.222   4.616   3.565 -0.3754 -0.3789 -0.2960
10445SOL    HW132305   1.238   4.642   3.475 -1.8679  2.2273  0.0721
10445SOL    HW232306   1.144   4.560   3.561  1.2271 -2.6761 -0.8340
10446SOL     OW32307   1.617   2.590   0.731  0.0908 -0.4788  0.6540
10446SOL    HW132308   1.683   2.656   0.750  0.0983 -0.4371  0.4827
10446SOL    HW232309   1.608   2.591   0.636  1.0357 -1.6300  0.5176
10447SOL     OW32310   2.426   0.586   3.013  0.1199 -0.4305 -0.3315
10447SOL    HW132311   2.424   0.498   2.977 -0.0235 -0.8077  0.5602
10447SOL    HW232312   2.491   0.632   2.960  0.7187 -1.2819 -0.3652
10448SOL     OW32313   3.566   3.820   5.288  0.2927 -0.1461 -0.9709
10448SOL    HW132314   3.587   3.793   5.377 -0.3770 -0.9016 -1.0271
10448SOL    HW232315   3.637   3.786   5.234  0.1906 -0.5599 -0.8486
10449SOL     OW32316   5.462   7.061   6.299 -0.1706  0.0725 -0.1691
10449SOL    HW132317   5.426   7.024   6.219 -0.4701 -0.6514  0.2905
10449SOL    HW232318   5.389   7.108   6.339  0.2697  1.4276 -0.8737
10450SOL     OW32319   1.019   6.353   4.725  0.2337  0.6654 -0.5987
10450SOL    HW132320   1.101   6.381   4.686  1.1116 -0.2697  0.5143
10450SOL    HW232321   1.021   6.257   4.721 -1.3151  0.6392 -1.5682
10451SOL     OW32322   4.318   6.728   3.143 -0.1324  0.8148 -0.2601
10451SOL    HW132323   4.379   6.795   3.112  0.9014 -0.1852 -0.4410
10451SOL    HW232324   4.266   6.705   3.066  1.3501 -0.5102 -0.9213
10452SOL     OW32325   6.249   6.419   3.420  0.5137  0.0902 -0.1187
10452SOL    HW132326   6.332   6.395   3.378 -0.0159 -1.2116 -0.4879
10452SOL    HW232327   6.248   6.369   3.502  0.3230  0.5035  0.1349
10453SOL     OW32328   4.596   3.771   3.559 -0.1082 -0.2846 -0.7159
10453SOL    HW132329   4.526   3.736   3.615  0.2047  0.3067  0.0643
10453SOL    HW232330   4.672   3.717   3.580  0.3125  0.6685  0.3124
10454SOL     OW32331   2.019   7.300   3.051  0.1043  0.3578  0.4431
10454SOL    HW132332   2.017   7.241   3.127  1.3988 -0.2534  0.0306
10454SOL    HW232333   1.984   7.383   3.084 -0.0166 -0.1092  1.5181
10455SOL     OW32334   0.490   0.225   2.582  0.0117  0.3692 -0.2658
10455SOL    HW132335   0.570   0.273   2.605 -0.8060  1.8297 -0.3707
10455SOL    HW232336   0.440   0.286   2.528 -0.6282 -0.9790 -1.2580
10456SOL     OW32337   6.180   7.294   5.679 -0.2164  0.1736  0.0798
10456SOL    HW132338   6.098   7.323   5.721 -1.3238 -2.5647  0.0306
10456SOL    HW232339   6.151   7.250   5.599  1.3417 -0.5918 -0.0947
10457SOL     OW32340   0.998   4.336   5.326 -0.0293 -0.7020  0.0712
10457SOL    HW132341   1.005   4.250   5.285 -0.0610 -1.4851  1.6518
10457SOL    HW232342   1.082   4.377   5.308 -0.6006 -0.3582 -2.1263
10458SOL     OW32343   2.792   0.834   0.854 -0.6668  0.6465 -0.0198
10458SOL    HW132344   2.775   0.916   0.900  0.8045  1.7118 -1.2898
10458SOL    HW232345   2.794   0.857   0.762  1.1194 -0.5233 -0.3466
10459SOL     OW32346   1.672   3.461   1.493  0.0970  0.3621  0.0676
10459SOL    HW132347   1.726   3.392   1.455  0.4001  0.3700  0.4702
10459SOL    HW232348   1.584   3.426   1.492  0.3833 -0.4430  1.1575
10460SOL     OW32349   1.217   2.365   3.578  0.2292 -0.5521  0.3482
10460SOL    HW132350   1.279   2.356   3.506  0.6161  0.8657  0.4756
10460SOL    HW232351   1.255   2.313   3.649  1.3593  0.3976  0.4712
10461SOL     OW32352   3.374   4.476   3.262 -0.0354  0.7396 -0.6587
10461SOL    HW132353   3.458   4.475   3.307 -0.0617 -0.8128 -0.5889
10461SOL    HW232354   3.323   4.542   3.309  0.7196  0.8065  0.1017
10462SOL     OW32355   4.616   1.958   4.551 -0.4787  0.0730  0.4034
10462SOL    HW132356   4.592   2.035   4.603  1.5437  1.8207 -1.0840
10462SOL    HW232357   4.560   1.962   4.474 -0.4610 -0.0419  0.3842
10463SOL     OW32358   0.111   6.655   0.171  0.3323 -0.7335  0.3332
10463SOL    HW132359   0.054   6.581   0.151 -0.3901 -0.3844  1.0535
10463SOL    HW232360   0.054   6.732   0.162  0.8699 -0.3249  0.3745
10464SOL     OW32361   5.540   6.932   5.703  0.3352 -0.0595 -0.0596
10464SOL    HW132362   5.586   7.010   5.733 -0.3492 -0.1777  1.4088
10464SOL    HW232363   5.498   6.958   5.621  1.2271  0.6876 -0.2950
10465SOL     OW32364   2.726   3.512   3.708 -0.3060  0.2265  0.6069
10465SOL    HW132365   2.810   3.544   3.740  0.0245  0.2660 -0.2850
10465SOL    HW232366   2.705   3.569   3.633 -0.3143 -0.8295 -0.2166
10466SOL     OW32367   2.385   2.670   6.051  0.2261  0.0742  0.3829
10466SOL    HW132368   2.363   2.763   6.049  0.8925  0.3366  2.6406
10466SOL    HW232369   2.402   2.651   6.144  1.6916 -1.9171 -0.2213
10467SOL     OW32370   6.587   7.314   5.169  0.0293 -0.1271 -0.1160
10467SOL    HW132371   6.562   7.297   5.078  1.9343  1.5000 -0.9984
10467SOL    HW232372   6.651   7.246   5.189  1.1559  0.7260 -0.7235
10468SOL     OW32373   0.585   1.037   1.842  0.2993 -0.2266 -0.0988
10468SOL    HW132374   0.508   1.040   1.899 -0.5209  0.4884 -1.2139
10468SOL    HW232375   0.615   0.946   1.849 -0.5679 -0.4882  0.4570
10469SOL     OW32376   0.044   3.078   0.101  0.6474  0.1498  0.4774
10469SOL    HW132377   0.134   3.099   0.126 -0.1144  1.4335  2.3581
10469SOL    HW232378   0.031   2.987   0.130  1.3058 -0.0204  0.2472
10470SOL     OW32379   6.067   5.962   1.029 -0.5064 -0.1234  0.0980
10470SOL    HW132380   6.073   6.055   1.051  0.9340 -0.1069 -0.2156
10470SOL    HW232381   6.089   5.958   0.936 -2.1243 -0.6378 -0.2847
10471SOL     OW32382   4.344   1.326   0.759  0.1085  0.1665 -0.3136
10471SOL    HW132383   4.378   1.280   0.836  0.2039  1.2416  0.2973
10471SOL    HW232384   4.317   1.412   0.792 -0.7856  0.2797 -1.2896
10472SOL     OW32385   1.512   2.353   0.773  0.9400  0.0918  0.3547
10472SOL    HW132386   1.545   2.437   0.742  0.6263 -0.2165 -0.8889
10472SOL    HW232387   1.519   2.357   0.868  1.2553  1.3829  0.2877
10473SOL     OW32388   3.742   1.713   3.257 -0.5233  0.4068  0.6525
10473SOL    HW132389   3.717   1.654   3.328  1.7393  1.6492  2.6534
10473SOL    HW232390   3.716   1.800   3.288 -0.2695  0.8712 -0.4119
10474SOL     OW32391   0.859   1.713   6.874 -0.4160  0.8205 -0.5894
10474SOL    HW132392   0.900   1.626   6.870 -0.8890  0.5233  0.7057
10474SOL    HW232393   0.839   1.726   6.966 -1.7989  1.6419 -0.9832
10475SOL     OW32394   1.683   3.893   6.113  0.3445 -0.3493 -0.3933
10475SOL    HW132395   1.757   3.883   6.052  0.9557  1.9469 -0.1039
10475SOL    HW232396   1.723   3.893   6.200 -0.2641 -1.2560 -0.1019
10476SOL     OW32397   6.177   0.705   0.118 -0.0915  0.5079  0.1151
10476SOL    HW132398   6.125   0.626   0.134  1.2178 -0.2282  0.8990
10476SOL    HW232399   6.161   0.725   0.026 -0.4352 -0.6832 -0.1100
10477SOL     OW32400   6.343   0.669   3.136 -0.5466  0.1786  0.1088
10477SOL    HW132401   6.405   0.645   3.068 -0.6261  0.2683  0.0049
10477SOL    HW232402   6.359   0.606   3.207 -0.4223  0.1257  0.0332
10478SOL     OW32403   1.061   4.213   2.622  0.4579  0.9206  0.2031
10478SOL    HW132404   1.000   4.252   2.559 -1.6584 -2.0137  0.2390
10478SOL    HW232405   1.039   4.255   2.705 -2.0177 -0.3781  0.3164
10479SOL     OW32406   2.803   7.071   5.577  0.2666  0.0415 -0.6161
10479SOL    HW132407   2.758   7.024   5.507 -0.0908 -2.1447  0.9508
10479SOL    HW232408   2.889   7.030   5.581  1.3796  2.1491 -1.6237
10480SOL     OW32409   4.946   0.192   2.267  0.7791 -0.4021  0.0875
10480SOL    HW132410   4.933   0.127   2.336 -1.1170 -0.3025 -0.1074
10480SOL    HW232411   4.918   0.148   2.187  0.2996  0.3626 -0.1779
10481SOL     OW32412   3.791   4.897   2.334  0.2196  0.2424 -0.0273
10481SOL    HW132413   3.860   4.834   2.311 -0.2234 -0.5303  0.7349
10481SOL    HW232414   3.788   4.896   2.429  0.5622  1.8242  0.0150
10482SOL     OW32415   0.097   0.985   4.108 -0.2087  0.0613  0.2982
10482SOL    HW132416   0.003   0.968   4.102 -0.4131  1.3479 -0.6453
10482SOL    HW232417   0.110   1.012   4.199 -1.1827  2.0090 -0.0914
10483SOL     OW32418   0.395   1.124   4.355 -0.1407 -0.3241  0.3234
10483SOL    HW132419   0.433   1.085   4.434 -1.8113 -0.8752  0.9131
10483SOL    HW232420   0.458   1.106   4.286 -0.0937 -2.7065  0.8991
10484SOL     OW32421   6.210   3.405   6.132 -0.6089 -0.5230  0.3008
10484SOL    HW132422   6.275   3.394   6.063 -1.9226 -1.4189 -0.8558
10484SOL    HW232423   6.211   3.321   6.179 -0.6563 -0.3933  0.5355
10485SOL     OW32424   3.654   6.782   5.899  0.0036  0.1228 -0.3546
10485SOL    HW132425   3.652   6.826   5.984  0.5378 -1.4565  0.5163
10485SOL    HW232426   3.660   6.853   5.835  2.5186  1.3042  1.0548
10486SOL     OW32427   4.374   7.315   6.278  0.5855  0.1921  0.0125
10486SOL    HW132428   4.331   7.398   6.298 -1.2075 -0.9123  0.9981
10486SOL    HW232429   4.371   7.308   6.183  0.2726  1.0188 -0.0400
10487SOL     OW32430   2.628   0.379   2.707  0.1150 -0.0101  0.5438
10487SOL    HW132431   2.713   0.347   2.737 -0.0348 -1.1304 -0.1306
10487SOL    HW232432   2.588   0.302   2.664 -0.8574  0.7347  0.0802
10488SOL     OW32433   0.519   6.046   6.802 -0.4126 -0.0470  0.0361
10488SOL    HW132434   0.566   6.128   6.790  0.6380 -0.7171 -0.5950
10488SOL    HW232435   0.577   5.993   6.857 -1.7119  0.1373  1.6543
10489SOL     OW32436   7.211   4.324   7.363  0.4706 -0.2437 -0.3199
10489SOL    HW132437   7.275   4.326   7.292 -1.5675  0.7567 -2.2330
10489SOL    HW232438   7.169   4.238   7.355  0.2965 -0.1651 -0.2503
10490SOL     OW32439   1.803   6.967   0.712 -0.0134 -0.0033  0.1788
10490SOL    HW132440   1.769   6.965   0.623 -2.0180 -0.2870  0.8773
10490SOL    HW232441   1.800   6.876   0.741  0.3796  0.1195  0.6064
10491SOL     OW32442   6.969   1.240   3.159  0.2312 -0.2239 -0.0743
10491SOL    HW132443   6.913   1.220   3.234  1.0885  0.4821  0.7733
10491SOL    HW232444   6.920   1.305   3.109  0.4666  0.7448  0.9164
10492SOL     OW32445   3.639   0.500   0.137 -0.7150 -0.3288  0.2329
10492SOL    HW132446   3.692   0.573   0.105 -0.9935  0.1116  0.7574
10492SOL    HW232447   3.664   0.426   0.083 -0.7036  0.2484 -0.5639
10493SOL     OW32448   0.082   1.853   6.678 -0.0012  0.5030  0.3236
10493SOL    HW132449   0.148   1.799   6.635 -0.3147 -0.4033  0.9697
10493SOL    HW232450   0.128   1.936   6.696  0.7319  0.1564  0.0968
10494SOL     OW32451   0.948   3.882   6.952 -0.0351 -0.4643 -0.3808
10494SOL    HW132452   0.895   3.946   6.904 -0.2692 -0.2403  0.1691
10494SOL    HW232453   0.951   3.916   7.041 -1.1035 -1.7937  0.1999
10495SOL     OW32454   7.261   3.364   2.539  0.0238  0.3319 -0.1300
10495SOL    HW132455   7.300   3.277   2.539 -0.7023 -0.0039  0.3243
10495SOL    HW232456   7.175   3.352   2.578 -0.4809  1.0845 -0.9630
10496SOL     OW32457   5.436   0.686   0.969 -0.1040  0.4587 -0.2932
10496SOL    HW132458   5.455   0.737   0.890 -1.4251 -0.4165 -1.2242
10496SOL    HW232459   5.371   0.738   1.015 -0.6438  0.1437 -0.6903
10497SOL     OW32460   3.934   2.967   0.259  0.1494 -0.0405 -0.1478
10497SOL    HW132461   3.964   2.954   0.349  2.0970 -0.8841 -0.8646
10497SOL    HW232462   3.838   2.963   0.264  0.0090  2.8989  2.3071
10498SOL     OW32463   7.090   6.841   1.082  0.3160 -0.0389  0.3578
10498SOL    HW132464   7.138   6.921   1.060  0.6273 -0.1197  0.7272
10498SOL    HW232465   7.063   6.854   1.173  3.1461 -1.6581  1.5486
10499SOL     OW32466   2.587   2.041   2.660 -0.0203 -0.0415 -0.2733
10499SOL    HW132467   2.513   2.102   2.661 -0.0888 -0.0770  1.8758
10499SOL    HW232468   2.550   1.959   2.628 -1.1019 -0.1957  1.2163
10500SOL     OW32469   3.543   2.966   5.453 -0.2075 -0.0489  0.6292
10500SOL    HW132470   3.593   2.948   5.533 -0.4136 -1.1155  0.5343
10500SOL    HW232471   3.459   2.921   5.467  0.1050 -1.0643 -0.5633
10501SOL     OW32472   5.829   7.051   2.798  0.0772 -0.3271 -0.5219
10501SOL    HW132473   5.875   6.998   2.733 -0.1470 -0.0055 -0.9485
10501SOL    HW232474   5.888   7.053   2.873  0.5985 -0.2262 -0.9236
10502SOL     OW32475   4.408   2.214   3.695  0.1891 -0.2604  0.2020
10502SOL    HW132476   4.435   2.297   3.735  0.2618  0.4230 -1.2016
10502SOL    HW232477   4.422   2.149   3.763  1.0555  0.7420  1.0213
10503SOL     OW32478   0.965   4.737   2.888 -0.3839 -0.0843  0.2587
10503SOL    HW132479   0.923   4.662   2.930  1.1903 -1.4188 -0.4282
10503SOL    HW232480   0.960   4.719   2.794  1.0508  0.0286  0.1286
10504SOL     OW32481   1.061   6.788   6.805  0.3251 -0.5031 -0.1353
10504SOL    HW132482   1.129   6.732   6.843  0.7946 -0.4602 -0.8944
10504SOL    HW232483   1.021   6.734   6.737  0.6135 -0.0119 -0.7045
10505SOL     OW32484   6.968   6.041   4.949 -0.5844  0.4274  0.6314
10505SOL    HW132485   6.984   6.087   5.031 -0.1533  1.2543  0.0989
10505SOL    HW232486   7.040   6.068   4.892  0.5639 -2.1154  0.7635
10506SOL     OW32487   2.553   4.466   6.119  0.2722  0.0852  0.6327
10506SOL    HW132488   2.595   4.409   6.184 -0.5570  1.1314  2.1737
10506SOL    HW232489   2.531   4.409   6.046  3.6277 -0.6606  0.0464
10507SOL     OW32490   0.834   1.690   1.403 -0.0195 -0.2876 -0.3551
10507SOL    HW132491   0.887   1.699   1.482  0.1479 -2.0462 -0.2260
10507SOL    HW232492   0.750   1.730   1.426  0.5735  0.7349  0.1112
10508SOL     OW32493   2.204   3.461   0.743 -0.0370 -0.1578  0.5080
10508SOL    HW132494   2.298   3.477   0.737 -0.2892  1.3501  0.3312
10508SOL    HW232495   2.170   3.486   0.657 -0.8753  1.4297  1.2626
10509SOL     OW32496   4.648   4.133   5.296 -0.1590  0.0508  0.8556
10509SOL    HW132497   4.709   4.059   5.291 -1.1871 -0.9369  2.1267
10509SOL    HW232498   4.674   4.191   5.224  0.9471 -1.3320  0.0893
10510SOL     OW32499   0.099   5.872   0.692 -0.0427 -0.1241  0.2176
10510SOL    HW132500   0.171   5.837   0.745  1.0488 -0.2455 -1.2987
10510SOL    HW232501   0.080   5.802   0.629  0.2960  0.9133 -1.0692
10511SOL     OW32502   6.514   4.437   3.188 -0.0672  0.1575 -0.0494
10511SOL    HW132503   6.559   4.508   3.234  0.5459  0.2538 -0.7890
10511SOL    HW232504   6.538   4.448   3.096 -1.4739  0.1125 -0.4471
10512SOL     OW32505   3.561   4.109   5.247 -0.1810  0.1374  0.1289
10512SOL    HW132506   3.493   4.079   5.187  0.9597  2.2547 -2.4200
10512SOL    HW232507   3.605   4.029   5.276 -0.9027 -0.9910 -1.7343
10513SOL     OW32508   1.407   1.915   5.039 -0.6675 -0.3266  0.3731
10513SOL    HW132509   1.326   1.967   5.040 -0.1445  0.5227  1.6747
10513SOL    HW232510   1.471   1.972   4.996 -0.3307 -0.2782  0.9326
10514SOL     OW32511   1.868   3.505   3.577  0.2039  0.5028  0.0853
10514SOL    HW132512   1.936   3.564   3.543  1.2414 -1.2119 -0.9494
10514SOL    HW232513   1.878   3.511   3.672  2.5861 -0.4786 -0.0209
10515SOL     OW32514   0.125   0.921   2.718  0.2212 -0.2335  0.1259
10515SOL    HW132515   0.104   0.918   2.625  0.2329 -2.7738  0.1360
10515SOL    HW232516   0.062   0.983   2.755  1.2216  2.0488 -1.7379
10516SOL     OW32517   2.350   5.616   0.918  0.5096  0.0317 -0.2686
10516SOL    HW132518   2.413   5.545   0.932  0.6397 -0.0233 -1.0855
10516SOL    HW232519   2.404   5.695   0.912  0.2135  0.8426  4.0870
10517SOL     OW32520   4.469   2.432   0.438 -0.3214 -0.4050  0.0541
10517SOL    HW132521   4.504   2.431   0.527 -1.8274  0.2436  0.6917
10517SOL    HW232522   4.471   2.525   0.412 -3.6606  0.0776  1.0543
10518SOL     OW32523   5.908   4.030   7.133 -0.1316  0.4458  0.7106
10518SOL    HW132524   5.919   4.008   7.226 -0.7465  2.3529  1.3022
10518SOL    HW232525   5.997   4.043   7.101  0.0547  1.1349  1.4435
10519SOL     OW32526   3.099   1.112   4.993  0.3194  0.1827  0.3902
10519SOL    HW132527   3.043   1.034   4.991 -1.0176  1.1239 -0.3135
10519SOL    HW232528   3.173   1.090   4.936  0.3115 -0.8157  0.7521
10520SOL     OW32529   1.881   3.870   4.850  0.1718 -0.0982  0.2328
10520SOL    HW132530   1.902   3.777   4.843  0.2251 -0.1392  0.8122
10520SOL    HW232531   1.915   3.910   4.770 -1.6497 -0.8947 -0.9826
10521SOL     OW32532   6.087   1.395   2.226 -0.6091 -0.2615  0.1986
10521SOL    HW132533   6.020   1.457   2.254 -0.1701 -0.1378  1.0122
10521SOL    HW232534   6.121   1.431   2.145 -1.1367 -0.0298  0.0782
10522SOL     OW32535   2.300   4.393   6.956 -0.8342  0.3127 -0.1976
10522SOL    HW132536   2.290   4.381   7.050 -0.0214  0.5788 -0.0668
10522SOL    HW232537   2.253   4.319   6.917 -0.3449 -0.3497  0.4480
10523SOL     OW32538   1.229   6.884   3.888 -0.0648 -0.5209 -0.1996
10523SOL    HW132539   1.298   6.946   3.864 -2.7898  2.9222  0.0109
10523SOL    HW232540   1.256   6.850   3.973  1.3375  0.7591 -0.0854
10524SOL     OW32541   3.844   5.933   6.331  0.4404  0.0825  0.0882
10524SOL    HW132542   3.870   5.875   6.403 -1.2758  0.2474  0.8663
10524SOL    HW232543   3.776   5.884   6.284  0.3107  0.7009 -0.3724
10525SOL     OW32544   4.119   6.827   6.013 -0.1708 -0.1560 -0.1053
10525SOL    HW132545   4.174   6.758   5.976  1.1690  1.3318 -1.0185
10525SOL    HW232546   4.044   6.832   5.953  0.8279  0.6368 -1.3461
10526SOL     OW32547   4.874   5.685   3.549  0.3868  0.0329  0.3690
10526SOL    HW132548   4.870   5.780   3.543  1.4661  0.2162  1.9064
10526SOL    HW232549   4.941   5.668   3.616  1.2283 -1.8373 -0.8527
10527SOL     OW32550   2.922   0.916   5.054 -0.1296 -0.3977  0.7519
10527SOL    HW132551   2.896   0.825   5.067  0.8694 -0.7447  0.3725
10527SOL    HW232552   2.931   0.951   5.143 -1.8549 -0.2524  0.9037
10528SOL     OW32553   5.151   2.345   3.078  0.3773 -0.4532  0.2966
10528SOL    HW132554   5.115   2.308   2.997  0.0267  0.5243 -0.0066
10528SOL    HW232555   5.078   2.394   3.116  0.6061 -0.7241  1.0975
10529SOL     OW32556   0.433   1.072   7.258 -0.3445 -0.2593 -0.7107
10529SOL    HW132557   0.426   1.152   7.310 -0.5668 -0.1665 -0.8838
10529SOL    HW232558   0.477   1.100   7.178 -1.2549 -0.1285 -1.1652
10530SOL     OW32559   0.683   5.903   6.952  0.5825 -0.2713 -0.3853
10530SOL    HW132560   0.688   5.879   7.045 -0.9842  0.2434 -0.1362
10530SOL    HW232561   0.767   5.945   6.934  0.9012 -0.3440  0.8127
10531SOL     OW32562   4.548   0.787   1.182  0.4673  0.2143  0.1779
10531SOL    HW132563   4.624   0.773   1.126 -0.6204 -0.4715 -1.1873
10531SOL    HW232564   4.556   0.720   1.250 -0.2020 -1.6184 -1.4277
10532SOL     OW32565   6.806   5.376   0.143  0.1941 -0.4622 -0.5117
10532SOL    HW132566   6.743   5.304   0.139 -0.9141  0.4509 -0.0118
10532SOL    HW232567   6.760   5.450   0.103 -0.8541  1.4829  3.7789
10533SOL     OW32568   0.797   1.620   2.991  0.4006  0.1356 -0.2516
10533SOL    HW132569   0.744   1.658   3.060  0.1066 -0.4623 -0.1349
10533SOL    HW232570   0.853   1.557   3.036 -1.0218 -1.5573 -0.7285
10534SOL     OW32571   2.215   5.201   1.038 -0.1240 -0.2303  0.1135
10534SOL    HW132572   2.281   5.131   1.036 -0.6085 -0.6741 -0.3870
10534SOL    HW232573   2.143   5.165   1.090 -0.5273 -0.2405 -0.4472
10535SOL     OW32574   5.930   4.324   5.935  0.0083  0.0593  0.1949
10535SOL    HW132575   5.958   4.331   6.027 -0.8547  2.3532  0.3695
10535SOL    HW232576   5.984   4.388   5.889  1.4260 -2.0538 -1.2299
10536SOL     OW32577   1.169   5.710   6.109  0.2231 -0.6780 -0.0313
10536SOL    HW132578   1.228   5.784   6.119  1.4300 -1.3965 -1.4751
10536SOL    HW232579   1.145   5.687   6.199 -0.2006  1.4255  0.4573
10537SOL     OW32580   6.127   2.536   7.256 -0.2844 -0.8270  0.2914
10537SOL    HW132581   6.111   2.548   7.350 -0.2668 -0.4880  0.2531
10537SOL    HW232582   6.040   2.542   7.217 -0.1469  0.4302  0.1444
10538SOL     OW32583   4.417   3.429   3.638  0.3856  0.1978 -0.1492
10538SOL    HW132584   4.354   3.428   3.566  1.0105 -1.5029 -0.7211
10538SOL    HW232585   4.397   3.509   3.686 -1.1859  0.4859 -1.2035
10539SOL     OW32586   0.665   1.157   3.835  0.3299 -0.8711 -0.0916
10539SOL    HW132587   0.574   1.152   3.807  0.1014  1.7047  0.0137
10539SOL    HW232588   0.701   1.233   3.790  1.5688 -0.0170  2.1473
10540SOL     OW32589   1.832   6.465   5.731 -0.1961 -0.3373 -0.7414
10540SOL    HW132590   1.867   6.554   5.728  1.2032 -0.8600 -2.6739
10540SOL    HW232591   1.891   6.415   5.674 -0.8914 -2.5245  0.3410
10541SOL     OW32592   1.624   0.974   1.852 -0.4806  0.5473 -0.4539
10541SOL    HW132593   1.620   0.944   1.761  1.0374 -2.6816  0.3674
10541SOL    HW232594   1.717   0.995   1.866 -0.5645  0.3505  0.5032
10542SOL     OW32595   1.365   1.764   2.678 -0.2742 -0.3644 -0.3930
10542SOL    HW132596   1.279   1.731   2.652 -0.4607  0.3126 -0.6635
10542SOL    HW232597   1.426   1.718   2.621 -0.4814 -0.6798 -0.3588
10543SOL     OW32598   6.761   0.999   0.945 -0.2727 -0.3188 -0.5646
10543SOL    HW132599   6.816   0.921   0.948  0.6734  0.3275 -0.3572
10543SOL    HW232600   6.752   1.025   1.037 -0.1195  0.1167 -0.6699
10544SOL     OW32601   4.011   1.528   0.148 -0.1057  0.0272 -0.0159
10544SOL    HW132602   4.079   1.476   0.189 -0.8427 -0.4858  0.5911
10544SOL    HW232603   3.991   1.597   0.211 -0.4967 -0.1293  0.0386
10545SOL     OW32604   6.790   1.082   3.325 -0.4087  0.0027 -0.3659
10545SOL    HW132605   6.698   1.110   3.321  0.0095  1.4432 -0.4547
10545SOL    HW232606   6.821   1.116   3.409  0.5550  1.2269 -1.1857
10546SOL     OW32607   1.468   6.904   3.009  0.1037  0.4640  0.2170
10546SOL    HW132608   1.423   6.856   3.078  1.0473 -1.3872 -0.4003
10546SOL    HW232609   1.539   6.847   2.981  0.1777  1.4461 -1.8252
10547SOL     OW32610   5.668   1.769   3.744 -0.0946 -0.1877  0.2367
10547SOL    HW132611   5.730   1.726   3.685 -0.3591  1.4745 -1.3335
10547SOL    HW232612   5.604   1.811   3.687  0.3767  2.6509  1.5547
10548SOL     OW32613   2.417   2.837   6.606  0.5395  0.7933 -0.2515
10548SOL    HW132614   2.499   2.789   6.589  1.0463  0.4109  2.7077
10548SOL    HW232615   2.352   2.768   6.621 -0.4303  1.0951 -2.6249
10549SOL     OW32616   1.924   5.497   5.833  0.6477  0.4495 -0.5543
10549SOL    HW132617   1.864   5.568   5.810  1.5638  1.3337 -0.2962
10549SOL    HW232618   1.925   5.441   5.756  1.4951  1.8391 -1.6040
10550SOL     OW32619   4.407   5.524   7.037  0.0876  0.2307 -0.1689
10550SOL    HW132620   4.478   5.498   6.978 -1.0808 -1.6809 -0.7970
10550SOL    HW232621   4.404   5.454   7.103 -1.1873  0.3065 -0.1322
10551SOL     OW32622   4.698   4.728   6.465  0.0332 -0.3521  0.1755
10551SOL    HW132623   4.784   4.690   6.451  0.4809  0.4074  0.7998
10551SOL    HW232624   4.637   4.661   6.433  0.8636 -0.4868 -1.2212
10552SOL     OW32625   4.907   0.690   2.250  0.3857 -0.1226  0.8798
10552SOL    HW132626   4.863   0.772   2.271 -0.1574  0.2560 -1.4919
10552SOL    HW232627   4.999   0.713   2.240 -0.1149  0.8933 -2.5699
10553SOL     OW32628   0.897   2.790   5.291 -0.5066 -0.4564 -0.2862
10553SOL    HW132629   0.864   2.708   5.328 -3.2105  0.7066  0.0689
10553SOL    HW232630   0.862   2.858   5.349 -0.0963  1.0824 -1.7733
10554SOL     OW32631   0.024   7.048   0.638  0.4760 -0.1623 -0.3864
10554SOL    HW132632   0.015   7.122   0.578  1.1803 -0.9455 -1.4813
10554SOL    HW232633  -0.021   7.077   0.718  0.3359  1.2586 -0.9492
10555SOL     OW32634   6.539   5.906   3.881 -0.6586 -0.1260 -0.3441
10555SOL    HW132635   6.527   5.982   3.824 -2.2237 -1.1563 -1.4457
10555SOL    HW232636   6.630   5.879   3.867  0.7654  2.9062  1.8762
10556SOL     OW32637   1.324   3.477   1.023 -0.2789 -0.0571  0.2450
10556SOL    HW132638   1.393   3.427   1.068 -0.8013 -1.8158 -0.8073
10556SOL    HW232639   1.269   3.410   0.982 -1.2485  1.3977 -0.9252
10557SOL     OW32640   7.166   3.158   0.246 -0.0210 -0.1628  0.9114
10557SOL    HW132641   7.106   3.220   0.204 -0.9263 -1.7689 -0.2660
10557SOL    HW232642   7.251   3.176   0.206 -0.2044  0.5248  0.8145
10558SOL     OW32643   4.175   5.538   3.015  0.0556 -0.1385 -0.3574
10558SOL    HW132644   4.081   5.523   3.004 -0.1889  1.9442 -1.5603
10558SOL    HW232645   4.190   5.524   3.108 -1.4544 -0.4523 -0.1230
10559SOL     OW32646   3.692   1.472   2.496 -0.5255 -0.7877  0.2003
10559SOL    HW132647   3.651   1.429   2.571 -0.4445 -1.7815 -0.3004
10559SOL    HW232648   3.769   1.516   2.532 -0.4994 -1.2340  0.7048
10560SOL     OW32649   6.075   1.680   1.284 -0.2805  0.0444 -0.5609
10560SOL    HW132650   6.110   1.594   1.305  2.0683  0.9204 -0.5238
10560SOL    HW232651   6.025   1.667   1.204  1.7598 -1.0353 -1.7403
10561SOL     OW32652   1.389   0.995   0.373 -0.1013  0.1447 -0.4678
10561SOL    HW132653   1.456   0.931   0.397 -1.9469 -1.5982  0.2904
10561SOL    HW232654   1.398   1.065   0.438  0.5944 -0.3524 -0.0138
10562SOL     OW32655   2.908   3.053   4.535  0.0322  0.1612 -0.3107
10562SOL    HW132656   2.985   3.080   4.486  0.3373  0.5566  0.3631
10562SOL    HW232657   2.931   2.967   4.571  0.6626  0.8066  0.9056
10563SOL     OW32658   4.774   5.835   0.129 -0.0664  0.1653 -0.3361
10563SOL    HW132659   4.758   5.915   0.178 -1.1467 -0.0840 -0.2371
10563SOL    HW232660   4.728   5.848   0.045 -0.8938 -0.6150 -0.0273
10564SOL     OW32661   7.078   4.779   3.254  0.3338 -0.0748 -0.2826
10564SOL    HW132662   7.049   4.792   3.164  1.4303  0.6768 -0.5370
10564SOL    HW232663   7.050   4.690   3.275 -0.9813  0.1463 -0.9493
10565SOL     OW32664   1.499   4.660   5.210 -0.1877  0.6716  0.9393
10565SOL    HW132665   1.532   4.620   5.130  1.8986  0.3638  1.8822
10565SOL    HW232666   1.519   4.753   5.201 -0.7181  0.7689  0.7518
10566SOL     OW32667   4.636   6.059   5.339  0.0067 -0.5370  0.0492
10566SOL    HW132668   4.552   6.104   5.334 -0.1749 -0.6082  1.8193
10566SOL    HW232669   4.691   6.104   5.276 -0.7671  0.8350  0.3132
10567SOL     OW32670   6.042   1.360   2.922  0.5832 -0.0962 -0.3884
10567SOL    HW132671   5.954   1.394   2.908  1.4089  1.5837 -2.0817
10567SOL    HW232672   6.030   1.277   2.967 -1.8552 -0.0290 -0.8082
10568SOL     OW32673   3.380   3.805   2.759 -0.3315 -0.2681 -0.0728
10568SOL    HW132674   3.466   3.770   2.783 -0.5181  0.2078  1.3821
10568SOL    HW232675   3.391   3.836   2.669  0.8911 -0.6203 -0.0623
10569SOL     OW32676   2.039   3.569   4.399 -0.2451  0.2906 -0.1937
10569SOL    HW132677   2.077   3.515   4.468 -0.9527 -0.3461 -0.2860
10569SOL    HW232678   1.949   3.585   4.429 -0.5506  0.0237 -0.9657
10570SOL     OW32679   7.102   4.002   6.447 -0.6066  0.0429  0.3338
10570SOL    HW132680   7.144   3.927   6.489  0.0194  0.6817  0.8589
10570SOL    HW232681   7.161   4.025   6.375  0.4167  1.4347  1.5458
10571SOL     OW32682   6.998   6.869   2.661  0.0981  0.0803  0.3961
10571SOL    HW132683   6.977   6.924   2.737  0.4867 -0.7407  1.1203
10571SOL    HW232684   7.082   6.904   2.629 -0.3548  0.8004 -0.0272
10572SOL     OW32685   5.222   3.375   5.301 -0.0299 -0.4477 -0.1282
10572SOL    HW132686   5.293   3.332   5.253  1.2846 -0.0915  1.3976
10572SOL    HW232687   5.266   3.419   5.374 -1.7568  0.4144  0.4474
10573SOL     OW32688   6.269   0.529   7.259  0.1574  0.3748  0.2902
10573SOL    HW132689   6.253   0.612   7.214  0.1821 -0.1923 -0.7940
10573SOL    HW232690   6.185   0.506   7.298  0.2406  1.0804  0.9052
10574SOL     OW32691   6.408   2.875   0.552  0.1722  0.1856 -0.3804
10574SOL    HW132692   6.439   2.794   0.511  0.5359 -0.4710  1.1089
10574SOL    HW232693   6.321   2.853   0.585  0.8717 -0.1428  1.3840
10575SOL     OW32694   4.843   5.779   1.530 -0.0247  0.4392  0.2688
10575SOL    HW132695   4.816   5.867   1.556  1.6444  0.4660  2.1837
10575SOL    HW232696   4.909   5.794   1.462  0.6943  0.7369  1.0094
10576SOL     OW32697   1.553   2.455   5.971 -0.0351  0.0785  0.1299
10576SOL    HW132698   1.555   2.408   5.887  1.1675 -0.0320  0.1981
10576SOL    HW232699   1.634   2.506   5.971 -0.5290  0.8761  0.7833
10577SOL     OW32700   6.104   6.014   6.206  0.4154  0.3849  0.8573
10577SOL    HW132701   6.102   5.926   6.244  2.5351  0.9180  2.3550
10577SOL    HW232702   6.023   6.055   6.237 -1.2915 -1.3855 -0.9672
10578SOL     OW32703   3.070   3.307   3.617 -0.2967  0.5617 -0.2912
10578SOL    HW132704   3.138   3.239   3.617 -1.0834 -0.2618 -0.7544
10578SOL    HW232705   3.066   3.337   3.707  0.6143  0.5491 -0.2399
10579SOL     OW32706   3.796   7.213   7.280  0.0707 -0.5852  0.2575
10579SOL    HW132707   3.810   7.297   7.237 -0.9620 -1.2033 -1.3739
10579SOL    HW232708   3.821   7.228   7.371  0.8034  1.2170 -0.2036
10580SOL     OW32709   1.189   1.746   3.345 -0.0795  0.4450  0.5189
10580SOL    HW132710   1.237   1.792   3.413 -1.5315  0.7537  1.3758
10580SOL    HW232711   1.124   1.810   3.314 -0.7653 -0.3473  0.2741
10581SOL     OW32712   3.262   3.958   0.053  0.0611 -0.1222  0.6578
10581SOL    HW132713   3.217   3.878   0.081 -3.3128  1.3562  0.0525
10581SOL    HW232714   3.288   4.001   0.134 -1.7735  0.0231  1.2119
10582SOL     OW32715   2.798   3.954   0.328 -0.0084 -0.3775  0.6213
10582SOL    HW132716   2.740   4.002   0.269 -0.3148 -1.0797  0.3409
10582SOL    HW232717   2.881   4.001   0.323 -0.8527  1.3747  1.9560
10583SOL     OW32718   0.573   3.759   7.127 -0.3263  0.1567 -0.2777
10583SOL    HW132719   0.590   3.782   7.219 -0.3182  0.2306 -0.2981
10583SOL    HW232720   0.653   3.715   7.099 -1.4532 -2.7704  0.6982
10584SOL     OW32721   5.131   5.618   2.385 -0.4210 -0.0972 -0.5099
10584SOL    HW132722   5.037   5.604   2.384 -0.7033  0.8519  2.2283
10584SOL    HW232723   5.168   5.540   2.344 -2.3773 -0.1789 -2.2494
10585SOL     OW32724   0.497   5.032   3.115  0.2152  0.1910  0.1962
10585SOL    HW132725   0.501   5.036   3.019 -2.5098 -0.2335 -0.0258
10585SOL    HW232726   0.441   5.106   3.139 -3.1755 -2.3527  0.9331
10586SOL     OW32727   4.246   2.774   4.612  0.4862 -0.2759 -0.1457
10586SOL    HW132728   4.229   2.809   4.525 -0.9301 -0.5692  0.0028
10586SOL    HW232729   4.339   2.748   4.609  1.5163  2.9696 -0.4123
10587SOL     OW32730   5.003   0.837   2.852 -0.5271  0.0097  0.1059
10587SOL    HW132731   4.942   0.875   2.789  0.5200  1.6471  0.0244
10587SOL    HW232732   4.985   0.884   2.934  0.7657  0.7182  0.0140
10588SOL     OW32733   0.217   1.644   1.049  0.0659  0.9406 -0.2975
10588SOL    HW132734   0.169   1.691   1.117 -0.6364 -0.2222  0.0457
10588SOL    HW232735   0.155   1.578   1.017  1.8151 -1.5505  1.1163
10589SOL     OW32736   1.240   5.474   4.489 -0.1880  0.5064  0.2672
10589SOL    HW132737   1.325   5.432   4.501 -0.2334  0.7572  1.5975
10589SOL    HW232738   1.261   5.563   4.460  0.0327  0.7587  1.1829
10590SOL     OW32739   2.505   3.262   1.627 -0.3380 -0.1309  0.0024
10590SOL    HW132740   2.522   3.345   1.581 -1.3764  0.1837  0.1420
10590SOL    HW232741   2.489   3.289   1.718  1.0666 -0.6829  0.4381
10591SOL     OW32742   0.286   6.138   7.322  0.3501 -0.2440 -0.5888
10591SOL    HW132743   0.307   6.193   7.398  0.3671 -1.9882  0.7206
10591SOL    HW232744   0.192   6.153   7.307 -0.4084 -2.1199  1.7436
10592SOL     OW32745   3.087   2.723   1.070 -0.0504  0.4991  0.0651
10592SOL    HW132746   3.020   2.738   1.003 -0.4161 -0.3060  0.2421
10592SOL    HW232747   3.066   2.786   1.139 -0.2527  0.6694 -0.1486
10593SOL     OW32748   1.374   3.043   0.299  0.1945 -0.1368  0.1464
10593SOL    HW132749   1.416   2.995   0.370  0.6805  0.2309  0.1119
10593SOL    HW232750   1.446   3.086   0.253 -0.3108  1.3916  0.7475
10594SOL     OW32751   4.833   2.130   3.702 -0.5000  0.1497  0.1146
10594SOL    HW132752   4.925   2.154   3.714  0.0379 -1.6211 -0.2559
10594SOL    HW232753   4.815   2.067   3.772 -0.9373 -0.7792 -0.8058
10595SOL     OW32754   6.125   5.589   2.184  0.2017  0.0838 -0.6401
10595SOL    HW132755   6.109   5.659   2.122 -1.2906  1.3804  1.1065
10595SOL    HW232756   6.038   5.554   2.204  0.8144 -1.5359 -0.6082
10596SOL     OW32757   4.593   6.779   3.860 -0.3454  0.5325 -0.6866
10596SOL    HW132758   4.554   6.852   3.908 -1.0064 -0.1699 -0.1364
10596SOL    HW232759   4.667   6.752   3.914 -0.2053  0.6775 -0.8039
10597SOL     OW32760   4.723   6.660   0.771  0.3339  0.5911 -0.0147
10597SOL    HW132761   4.745   6.705   0.853 -0.5953  0.3988  0.3572
10597SOL    HW232762   4.671   6.584   0.799  3.4672 -1.8955 -0.4495
10598SOL     OW32763   3.399   6.295   4.804  0.4154  0.4473 -0.2647
10598SOL    HW132764   3.478   6.248   4.777 -0.0783 -0.3210 -0.3952
10598SOL    HW232765   3.426   6.345   4.881  0.6557 -1.0178  0.6400
10599SOL     OW32766   2.245   6.291   4.430 -0.3116 -0.1235 -0.0086
10599SOL    HW132767   2.243   6.272   4.523  0.6632 -1.8296 -0.2980
10599SOL    HW232768   2.201   6.216   4.389 -0.8015  0.6341 -0.9266
10600SOL     OW32769   0.984   0.857   4.637  0.5537 -0.2223 -0.1461
10600SOL    HW132770   0.987   0.842   4.543 -0.2797 -0.4372 -0.1434
10600SOL    HW232771   0.897   0.895   4.653  0.6314 -0.3189  0.5507
10601SOL     OW32772   4.234   3.401   0.392 -0.2360  0.0379 -0.1071
10601SOL    HW132773   4.208   3.486   0.427  1.5514  0.4795  0.2761
10601SOL    HW232774   4.274   3.356   0.466  1.3501 -0.0104 -0.9479
10602SOL     OW32775   2.257   1.361   5.773  0.1400 -0.3333 -0.4763
10602SOL    HW132776   2.186   1.401   5.821 -1.4513 -2.3479 -1.0169
10602SOL    HW232777   2.332   1.365   5.832 -1.3642 -1.4251  1.6127
10603SOL     OW32778   6.199   4.078   5.052  0.4811  0.0658  0.1970
10603SOL    HW132779   6.215   4.072   4.958 -1.1133  1.4022 -0.2081
10603SOL    HW232780   6.109   4.047   5.063  0.7429 -0.3459  1.3438
10604SOL     OW32781   6.687   1.676   0.469 -0.0612 -0.3084  0.0939
10604SOL    HW132782   6.661   1.735   0.540 -0.8911 -0.2783 -0.2202
10604SOL    HW232783   6.634   1.597   0.483  1.1263 -1.0423  0.5809
10605SOL     OW32784   5.859   3.079   4.742  0.1099 -0.2121 -0.1664
10605SOL    HW132785   5.838   3.126   4.662  0.9120  0.4337 -0.0129
10605SOL    HW232786   5.777   3.039   4.770 -0.5372  0.9298 -0.4074
10606SOL     OW32787   7.016   1.837   3.868 -0.3373 -0.2901  0.1970
10606SOL    HW132788   7.007   1.812   3.960  0.5992 -1.9830 -0.1256
10606SOL    HW232789   7.045   1.756   3.824 -0.9837  0.4194 -1.6229
10607SOL     OW32790   6.582   0.334   3.180 -0.0147  0.3721 -1.3195
10607SOL    HW132791   6.670   0.324   3.216 -0.4585  0.1163 -0.2753
10607SOL    HW232792   6.579   0.272   3.107  0.0717 -1.0099 -0.1897
10608SOL     OW32793   6.134   3.861   2.875  0.5571  0.2402 -0.2524
10608SOL    HW132794   6.084   3.941   2.854  1.3701  0.1563 -2.9648
10608SOL    HW232795   6.074   3.790   2.852 -0.0457  0.0228  1.8492
10609SOL     OW32796   3.168   2.448   1.030  0.0684 -0.2619  0.2146
10609SOL    HW132797   3.154   2.449   0.936 -0.3016 -0.4824  0.2628
10609SOL    HW232798   3.100   2.506   1.065  0.3620  0.0171  0.3272
10610SOL     OW32799   1.482   1.434   4.091 -0.0311 -0.4160  0.3421
10610SOL    HW132800   1.504   1.418   4.183 -0.8010  1.1255  0.8277
10610SOL    HW232801   1.390   1.409   4.084 -0.5983  1.5000  0.5576
10611SOL     OW32802   1.090   5.105   6.851  0.0235  0.0403  0.2192
10611SOL    HW132803   1.041   5.183   6.880 -0.1558 -0.2230  0.6281
10611SOL    HW232804   1.025   5.035   6.852  0.4358 -0.3407  0.8825
10612SOL     OW32805   4.002   6.867   3.531  0.3628  0.3422  0.1584
10612SOL    HW132806   4.078   6.828   3.574 -0.6485 -2.0083 -0.0363
10612SOL    HW232807   3.938   6.878   3.601 -0.2365 -0.7311 -0.1978
10613SOL     OW32808   4.355   6.134   4.950  0.0500  0.3527  0.7451
10613SOL    HW132809   4.307   6.068   4.899  2.0993  0.2253 -1.1591
10613SOL    HW232810   4.344   6.107   5.041  0.6732 -2.5508  0.0393
10614SOL     OW32811   3.818   4.669   1.126 -0.0447  0.3279  0.1716
10614SOL    HW132812   3.796   4.674   1.219  0.1595 -0.5159  0.2697
10614SOL    HW232813   3.910   4.696   1.122 -0.0043  0.1980  0.2331
10615SOL     OW32814   4.176   4.293   1.423 -0.4822  0.4405 -0.2362
10615SOL    HW132815   4.184   4.214   1.368  0.4763  0.8822 -0.7467
10615SOL    HW232816   4.208   4.266   1.509  1.8486  0.7844 -0.9278
10616SOL     OW32817   7.148   1.532   6.755 -0.4207  0.1192  0.2152
10616SOL    HW132818   7.118   1.494   6.673 -0.1679  0.2456  0.0647
10616SOL    HW232819   7.163   1.624   6.736 -1.3550  0.3755  0.6665
10617SOL     OW32820   0.447   1.638   0.273  0.3609 -0.1012  0.1853
10617SOL    HW132821   0.375   1.622   0.333 -0.2638 -1.0147 -0.7564
10617SOL    HW232822   0.415   1.605   0.189  2.0153 -0.9251 -0.1663
10618SOL     OW32823   1.299   0.769   1.630  0.3094 -0.4094  0.5836
10618SOL    HW132824   1.387   0.733   1.621  0.0087 -0.8680 -0.7329
10618SOL    HW232825   1.256   0.749   1.547 -0.9440  0.0768  1.0869
10619SOL     OW32826   2.742   2.572   2.526 -0.6596  0.1176 -0.4796
10619SOL    HW132827   2.817   2.599   2.579 -0.8541 -0.2521 -0.0120
10619SOL    HW232828   2.773   2.497   2.476 -1.2067 -1.1512  1.0091
10620SOL     OW32829   3.604   5.649   7.294  0.0500 -0.0906  0.3854
10620SOL    HW132830   3.514   5.619   7.306  0.1847 -0.5277  0.3296
10620SOL    HW232831   3.613   5.724   7.353  0.0911 -0.9351  1.4906
10621SOL     OW32832   4.748   0.286   2.611  0.6778  0.2322 -0.0411
10621SOL    HW132833   4.707   0.222   2.553 -4.2761  0.9088  2.2576
10621SOL    HW232834   4.694   0.364   2.603  2.5101  1.8679  2.2407
10622SOL     OW32835   7.083   3.585   5.736 -0.4656 -0.3602 -0.0625
10622SOL    HW132836   7.025   3.512   5.757 -2.3813  1.0937  0.0180
10622SOL    HW232837   7.165   3.544   5.711 -0.9012 -2.4692  1.6492
10623SOL     OW32838   2.397   6.622   5.578  0.5078  0.0155 -0.5613
10623SOL    HW132839   2.337   6.671   5.521 -0.7061  0.2040  0.8286
10623SOL    HW232840   2.483   6.658   5.557  0.1269 -0.0396 -2.3825
10624SOL     OW32841   1.775   2.304   7.296  0.1619  0.5464  0.0107
10624SOL    HW132842   1.688   2.265   7.299  0.7770 -0.8568  0.1089
10624SOL    HW232843   1.787   2.343   7.382  0.4865 -1.2221  0.8119
10625SOL     OW32844   4.585   0.372   0.613  0.1889  0.0204  0.0531
10625SOL    HW132845   4.493   0.348   0.598  0.3146 -0.3577 -0.1225
10625SOL    HW232846   4.614   0.411   0.531 -0.2723  1.6129  0.6253
10626SOL     OW32847   2.095   7.134   4.337 -0.4708  0.4287  0.5196
10626SOL    HW132848   2.029   7.096   4.395 -0.8264  1.1416  0.5915
10626SOL    HW232849   2.047   7.200   4.287 -0.0473  0.2021 -0.2005
10627SOL     OW32850   6.101   6.954   4.096 -0.2348 -0.4640 -0.1514
10627SOL    HW132851   6.117   6.962   4.002 -0.4648 -0.5410 -0.1972
10627SOL    HW232852   6.188   6.953   4.135 -0.1478  0.2819 -0.3067
10628SOL     OW32853   6.521   2.161   0.848 -0.0990  0.0128  0.3337
10628SOL    HW132854   6.495   2.176   0.757 -0.5105 -0.6686  0.3261
10628SOL    HW232855   6.617   2.157   0.846 -0.0693  0.8005  0.0650
10629SOL     OW32856   4.462   1.762   6.571  0.2187  0.3041 -0.2489
10629SOL    HW132857   4.513   1.780   6.492  1.5526 -1.0316  0.2688
10629SOL    HW232858   4.499   1.820   6.638  0.8300 -0.3997  0.0330
10630SOL     OW32859   6.432   5.709   6.623  0.1477 -0.2457 -1.0761
10630SOL    HW132860   6.409   5.642   6.559 -1.1835 -0.2864 -0.5830
10630SOL    HW232861   6.483   5.662   6.689  0.4827 -0.4541 -1.4794
10631SOL     OW32862   6.798   4.195   5.327 -0.4597  0.6171 -0.1922
10631SOL    HW132863   6.773   4.205   5.235 -0.9585  0.6839 -0.0512
10631SOL    HW232864   6.723   4.227   5.376 -0.3511  0.2201  0.2445
10632SOL     OW32865   3.710   0.331   7.114  0.3368  0.1419 -0.1171
10632SOL    HW132866   3.698   0.313   7.207 -0.7150  0.6715 -0.1290
10632SOL    HW232867   3.652   0.406   7.097  0.7037  0.2063 -1.1390
10633SOL     OW32868   0.244   6.105   6.881  0.0003 -0.5833  0.2155
10633SOL    HW132869   0.213   6.072   6.966  1.0122  1.1840  1.3407
10633SOL    HW232870   0.331   6.068   6.871  0.2890  0.0176  0.4569
10634SOL     OW32871   6.757   5.401   6.137  0.1375  0.6257  0.4017
10634SOL    HW132872   6.775   5.341   6.065  1.6075 -2.3691  3.0252
10634SOL    HW232873   6.669   5.377   6.167  0.4622  0.1920  1.0339
10635SOL     OW32874   3.512   1.897   2.155  0.4871  0.2567 -0.7554
10635SOL    HW132875   3.467   1.835   2.098  0.6131 -0.2568 -0.3060
10635SOL    HW232876   3.516   1.853   2.240  0.6793  0.8353 -0.4597
10636SOL     OW32877   6.186   6.484   4.652 -0.2280 -0.1549  0.1110
10636SOL    HW132878   6.277   6.488   4.623 -0.7631 -1.1040 -1.8206
10636SOL    HW232879   6.134   6.494   4.572 -1.8235 -0.3912  1.0727
10637SOL     OW32880   0.045   0.077   1.528  0.2452 -0.3179 -0.6513
10637SOL    HW132881  -0.030   0.090   1.469 -0.1635  1.1763  0.1527
10637SOL    HW232882   0.121   0.080   1.470 -0.1411  1.2838 -1.1279
10638SOL     OW32883   1.982   5.351   5.000 -0.1047 -0.1279 -0.0068
10638SOL    HW132884   1.923   5.296   4.947  0.6121 -0.0110 -0.9488
10638SOL    HW232885   1.932   5.370   5.079 -0.9765 -0.8123 -0.3744
10639SOL     OW32886   3.823   1.309   0.044 -0.0806 -0.1144  0.7658
10639SOL    HW132887   3.899   1.332   0.098  2.3675  0.5148 -2.6014
10639SOL    HW232888   3.824   1.213   0.040  1.1287 -0.0886  0.0627
10640SOL     OW32889   2.050   1.377   4.801 -0.3006 -0.4720  0.0206
10640SOL    HW132890   1.974   1.376   4.744 -0.1995  0.3838 -0.1464
10640SOL    HW232891   2.036   1.453   4.858  0.3127 -0.4375  0.1331
10641SOL     OW32892   6.546   0.038   7.160 -0.3045  0.1966 -0.3718
10641SOL    HW132893   6.631   0.082   7.167  1.1673 -2.2055 -1.7387
10641SOL    HW232894   6.550  -0.034   7.222 -1.9359  0.8077  0.5124
10642SOL     OW32895   6.098   1.111   3.010 -0.0245 -0.2071  0.4086
10642SOL    HW132896   6.049   1.065   2.942 -0.9664 -0.3740  1.1714
10642SOL    HW232897   6.139   1.041   3.061 -0.2197 -0.1367  0.6643
10643SOL     OW32898   2.529   3.633   2.983  0.1565 -0.4071  0.1865
10643SOL    HW132899   2.615   3.643   3.024  0.4517  1.0432 -0.7106
10643SOL    HW232900   2.480   3.709   3.011  0.2903  0.5192 -1.8885
10644SOL     OW32901   1.139   1.687   5.273 -0.6344 -0.1526  0.5493
10644SOL    HW132902   1.096   1.772   5.275  1.9619  1.4390 -2.2934
10644SOL    HW232903   1.229   1.704   5.300  0.1173 -1.8533 -0.6502
10645SOL     OW32904   2.105   7.104   5.706  0.2104  0.1730  0.3976
10645SOL    HW132905   2.153   7.187   5.709  1.4257 -0.5008  0.3685
10645SOL    HW232906   2.173   7.037   5.717 -0.5363 -0.8788 -1.1502
10646SOL     OW32907   6.431   3.369   7.153 -0.0717 -0.0802 -0.0352
10646SOL    HW132908   6.376   3.312   7.208 -2.4025  1.0476 -1.0798
10646SOL    HW232909   6.460   3.438   7.213 -0.7245 -0.0910  0.3103
10647SOL     OW32910   6.416   4.767   6.342  0.1444  0.5755 -0.1746
10647SOL    HW132911   6.378   4.696   6.291  1.0030  0.8884 -1.2819
10647SOL    HW232912   6.498   4.731   6.376 -0.3658  0.4029  0.9455
10648SOL     OW32913   2.611   2.128   0.361 -0.1800  0.4864 -0.3755
10648SOL    HW132914   2.562   2.086   0.290  0.4641  1.2976 -1.3272
10648SOL    HW232915   2.550   2.192   0.397 -0.5021  0.0896 -0.2083
10649SOL     OW32916   4.999   7.239   7.203  0.4538 -0.4742  0.1205
10649SOL    HW132917   5.007   7.283   7.118 -0.5510 -0.6794 -0.0959
10649SOL    HW232918   4.918   7.188   7.196 -1.1430  1.5816  2.1298
10650SOL     OW32919   5.285   5.379   1.082 -0.0959  0.2948  0.4372
10650SOL    HW132920   5.305   5.296   1.040 -1.9289 -0.3898  0.7854
10650SOL    HW232921   5.267   5.355   1.173 -2.6964  0.6709  0.1082
10651SOL     OW32922   0.119   0.051   3.153 -0.2787 -0.1287  0.3728
10651SOL    HW132923   0.123  -0.006   3.076 -0.9179 -0.9244  0.9070
10651SOL    HW232924   0.200   0.032   3.201  0.1558  0.4217 -0.1247
10652SOL     OW32925   3.179   1.361   1.480 -0.7014  0.3951 -0.2554
10652SOL    HW132926   3.232   1.282   1.473 -0.5766  0.3947  0.6547
10652SOL    HW232927   3.229   1.428   1.432 -1.4060 -0.3493 -2.1226
10653SOL     OW32928   7.281   4.468   6.760 -1.6087 -0.3993 -0.2244
10653SOL    HW132929   7.354   4.498   6.706 -1.1147 -0.6617  0.2848
10653SOL    HW232930   7.306   4.380   6.787 -1.9951 -0.3943  0.1608
10654SOL     OW32931   0.848   7.354   5.656  0.4172  1.0080 -0.0414
10654SOL    HW132932   0.878   7.445   5.668 -2.3443  2.1459 -0.9207
10654SOL    HW232933   0.799   7.356   5.574  0.8935 -1.4995 -0.4431
10655SOL     OW32934   0.167   3.176   3.929  0.2005  0.3081 -0.0692
10655SOL    HW132935   0.075   3.150   3.920  0.3571  0.1200 -1.3992
10655SOL    HW232936   0.163   3.272   3.936 -0.1041  0.3135 -0.2571
10656SOL     OW32937   1.737   1.151   4.144  0.3327 -0.0446 -0.0302
10656SOL    HW132938   1.750   1.178   4.053 -0.9940  1.0279  0.0602
10656SOL    HW232939   1.759   1.229   4.195  0.0053 -0.2897  0.4900
10657SOL     OW32940   5.334   1.583   5.762 -0.1537  0.4740 -0.6568
10657SOL    HW132941   5.298   1.650   5.819  0.7144  0.8609 -0.5503
10657SOL    HW232942   5.429   1.591   5.772 -0.0083  0.0950 -1.6321
10658SOL     OW32943   1.090   2.882   5.970  0.0055  0.3813  0.1805
10658SOL    HW132944   1.075   2.804   6.023  0.0599  1.2450  1.5252
10658SOL    HW232945   1.077   2.955   6.031 -2.9950  1.5748 -1.6849
10659SOL     OW32946   6.822   0.909   0.060 -0.1899 -0.1565  0.6366
10659SOL    HW132947   6.787   0.819   0.055  0.0095 -0.1954 -0.1775
10659SOL    HW232948   6.913   0.900   0.032 -0.7988  0.6458 -1.8654
10660SOL     OW32949   6.292   0.038   1.134  0.5330  0.0721 -0.0884
10660SOL    HW132950   6.367   0.041   1.194  0.0435  1.5357  0.4981
10660SOL    HW232951   6.226  -0.012   1.182  0.4976  0.3734  0.1812
10661SOL     OW32952   3.448   5.110   3.629  0.1226 -0.4852  0.1086
10661SOL    HW132953   3.466   5.199   3.601  1.1426 -0.0425  2.0189
10661SOL    HW232954   3.503   5.055   3.573 -0.6653  0.0185 -1.2112
10662SOL     OW32955   4.223   3.256   3.337 -0.2377 -0.5717 -0.1608
10662SOL    HW132956   4.181   3.340   3.354  0.4146 -0.2013 -0.3346
10662SOL    HW232957   4.306   3.278   3.296  0.7380 -1.2057  1.3408
10663SOL     OW32958   4.594   6.076   6.777 -0.2002 -0.5350 -0.3945
10663SOL    HW132959   4.611   5.989   6.812 -1.0987 -1.3620 -1.8947
10663SOL    HW232960   4.521   6.063   6.716 -1.3921  1.5487  0.4877
10664SOL     OW32961   6.129   5.286   2.224  0.2246 -0.3246  0.0238
10664SOL    HW132962   6.087   5.270   2.139 -1.0613 -0.0324  0.5755
10664SOL    HW232963   6.103   5.375   2.247  0.5099 -0.4246  0.7537
10665SOL     OW32964   2.363   5.995   6.673 -0.2339  0.1339  0.1118
10665SOL    HW132965   2.432   6.026   6.614  0.9457 -1.1837  0.7259
10665SOL    HW232966   2.339   6.071   6.725  0.3003  0.7706 -0.5657
10666SOL     OW32967   2.802   5.953   1.893 -0.1390 -0.4943  0.6122
10666SOL    HW132968   2.856   6.017   1.846 -1.6385  0.1718 -0.2749
10666SOL    HW232969   2.760   6.003   1.963 -0.0637 -0.8698  0.9288
10667SOL     OW32970   6.502   5.289   1.469 -0.3700  0.0356 -0.3221
10667SOL    HW132971   6.589   5.270   1.505  0.4773 -0.5692 -2.5460
10667SOL    HW232972   6.464   5.350   1.531  0.9800 -0.9431  1.5870
10668SOL     OW32973   1.173   0.910   3.675  0.1850 -0.3457  0.1313
10668SOL    HW132974   1.151   0.819   3.695  0.1432 -0.5448 -0.7668
10668SOL    HW232975   1.180   0.912   3.579 -0.3180  0.7087  0.1082
10669SOL     OW32976   1.870   6.324   4.944 -0.4239 -0.2552  0.5066
10669SOL    HW132977   1.856   6.416   4.923 -0.7535  0.1185  2.1879
10669SOL    HW232978   1.958   6.320   4.980 -0.0747 -0.7777 -0.3624
10670SOL     OW32979   2.564   3.062   5.982 -0.3339 -0.5145 -0.4945
10670SOL    HW132980   2.498   3.046   6.050  0.4109 -1.5277  0.0185
10670SOL    HW232981   2.563   3.157   5.969  0.4984 -0.0898  1.9760
10671SOL     OW32982   0.519   1.299   2.207 -0.1493 -0.0183  0.7623
10671SOL    HW132983   0.612   1.310   2.225  0.0695  0.8318 -0.6827
10671SOL    HW232984   0.488   1.387   2.186 -1.0713 -0.4284  0.3387
10672SOL     OW32985   6.575   7.232   1.435 -0.2629  0.2936  0.0135
10672SOL    HW132986   6.526   7.305   1.399 -0.6926 -0.7216 -1.5746
10672SOL    HW232987   6.665   7.248   1.409  0.3889  2.2077  3.0115
10673SOL     OW32988   6.337   5.690   0.632  0.0874 -0.0163 -0.2542
10673SOL    HW132989   6.413   5.718   0.580 -1.0370  2.6102 -0.6621
10673SOL    HW232990   6.262   5.729   0.587 -1.2150 -0.0821  1.7540
10674SOL     OW32991   5.798   1.799   4.173  0.3615 -1.1716 -0.9115
10674SOL    HW132992   5.844   1.842   4.245  0.0193  1.0526 -1.9546
10674SOL    HW232993   5.742   1.734   4.216  2.6776 -2.3717  0.5543
10675SOL     OW32994   2.553   1.017   2.477 -0.7900  0.1820  0.2476
10675SOL    HW132995   2.546   1.072   2.398 -1.1664 -2.4283 -1.6737
10675SOL    HW232996   2.466   0.981   2.489 -0.3136 -0.8348  0.7680
10676SOL     OW32997   3.801   0.071   4.621  0.2301  0.0156  0.1227
10676SOL    HW132998   3.826   0.163   4.626 -1.0137  0.3758  0.1247
10676SOL    HW232999   3.821   0.036   4.708 -0.2884  0.5685  0.4720
10677SOL     OW33000   6.137   0.601   6.846  0.3120 -0.0168  0.4250
10677SOL    HW133001   6.205   0.664   6.821 -1.5504  2.1010  0.3089
10677SOL    HW233002   6.064   0.619   6.786 -0.8502 -1.2692  1.3735
10678SOL     OW33003   7.127   4.574   1.203 -0.5817  0.0348 -0.2703
10678SOL    HW133004   7.107   4.481   1.193 -1.1585 -0.0175  1.1405
10678SOL    HW233005   7.055   4.609   1.256 -1.4315  1.7209 -2.3737
10679SOL     OW33006   2.863   3.418   5.980  0.1866 -0.1852 -0.2695
10679SOL    HW133007   2.860   3.511   5.958 -1.1105 -0.0598  0.2875
10679SOL    HW233008   2.858   3.417   6.076  1.2587 -0.8063 -0.2167
10680SOL     OW33009   4.378   4.574   2.000  0.6226  0.2059 -0.1346
10680SOL    HW133010   4.350   4.491   1.961 -0.5555  0.7120 -0.4062
10680SOL    HW233011   4.456   4.551   2.051  0.8523 -0.8908 -0.9348
10681SOL     OW33012   6.823   3.624   0.461 -0.2425  0.0677 -0.3710
10681SOL    HW133013   6.808   3.625   0.556  0.1764  4.1154 -0.1683
10681SOL    HW233014   6.752   3.570   0.427 -1.2216 -0.4059  2.1560
10682SOL     OW33015   1.624   4.608   6.760  0.2827  0.3730 -0.2160
10682SOL    HW133016   1.586   4.520   6.758  1.7639 -0.2958 -0.7629
10682SOL    HW233017   1.554   4.664   6.794  0.1047 -1.4153  2.6991
10683SOL     OW33018   4.129   3.647   1.667  0.2021  0.5141  0.3117
10683SOL    HW133019   4.113   3.556   1.641  1.5730  0.0780  0.9312
10683SOL    HW233020   4.173   3.641   1.752  0.5663  1.7515  0.2327
10684SOL     OW33021   2.801   2.908   6.598  0.4687 -0.3814  0.7843
10684SOL    HW133022   2.753   2.939   6.521  1.0262 -0.2635  0.4796
10684SOL    HW233023   2.807   2.985   6.655 -1.7426 -0.9532  1.9087
10685SOL     OW33024   6.137   1.145   0.728 -0.1053 -0.2081 -1.1100
10685SOL    HW133025   6.070   1.106   0.671 -2.2260  1.8176 -0.2174
10685SOL    HW233026   6.126   1.101   0.812 -0.2613  0.0356 -0.9995
10686SOL     OW33027   5.959   3.385   4.300  0.0710 -0.3332  0.2104
10686SOL    HW133028   6.043   3.398   4.344  1.1335 -2.3328 -1.0770
10686SOL    HW233029   5.960   3.293   4.273 -1.6289  0.1349 -1.6822
10687SOL     OW33030   1.226   0.652   4.541  0.0538  0.3858  0.2455
10687SOL    HW133031   1.310   0.654   4.588  1.6634  0.0659 -2.3873
10687SOL    HW233032   1.209   0.744   4.521  0.6627  0.3277 -0.6006
10688SOL     OW33033   0.387   4.372   6.503 -0.5401 -0.3218 -0.3097
10688SOL    HW133034   0.319   4.305   6.506 -0.5035 -0.3477  0.0528
10688SOL    HW233035   0.387   4.404   6.413 -1.9497  0.6127 -0.0091
10689SOL     OW33036   4.630   1.425   0.252 -0.3015  0.3273  0.1756
10689SOL    HW133037   4.550   1.474   0.235 -0.9741 -1.0102 -0.6463
10689SOL    HW233038   4.677   1.478   0.317 -0.9448  2.0665 -0.7209
10690SOL     OW33039   3.625   2.736   2.489  0.0892 -0.2544 -0.3206
10690SOL    HW133040   3.673   2.787   2.553 -3.1258  0.8953  1.3892
10690SOL    HW233041   3.667   2.756   2.405  1.0696  2.5241  0.7411
10691SOL     OW33042   4.625   0.716   5.313 -0.1055 -0.3890  0.1746
10691SOL    HW133043   4.546   0.702   5.366 -0.2275  0.1079  0.1330
10691SOL    HW233044   4.593   0.722   5.223  0.1714 -1.8781 -0.0519
10692SOL     OW33045   4.820   3.260   1.363  0.3232 -0.3688 -0.4915
10692SOL    HW133046   4.797   3.287   1.273  0.3538 -1.1931 -0.7530
10692SOL    HW233047   4.915   3.252   1.362  0.4639  0.9515  0.0060
10693SOL     OW33048   5.911   1.833   2.259  0.5219 -0.8654  0.6141
10693SOL    HW133049   5.860   1.894   2.311  1.8877 -0.8909  2.0533
10693SOL    HW233050   5.882   1.746   2.288  0.6844 -0.8823  0.7290
10694SOL     OW33051   0.336   3.603   7.151 -0.8697 -0.1408  0.4111
10694SOL    HW133052   0.420   3.639   7.121 -0.5133 -0.6129  0.8309
10694SOL    HW233053   0.337   3.512   7.120 -1.1745 -0.1854  0.5285
10695SOL     OW33054   5.710   2.301   2.265 -0.0058 -0.1084  0.0205
10695SOL    HW133055   5.750   2.290   2.179 -2.0891 -1.1404 -0.9091
10695SOL    HW233056   5.780   2.281   2.327  1.2695 -0.4364 -1.4517
10696SOL     OW33057   2.053   1.721   6.801 -0.7483 -0.4443 -0.5331
10696SOL    HW133058   2.064   1.763   6.887 -2.3212 -0.2209 -0.4063
10696SOL    HW233059   2.131   1.667   6.791 -1.1949 -1.6517  1.7257
10697SOL     OW33060   0.776   3.254   4.483 -0.4480  0.3405 -0.1040
10697SOL    HW133061   0.710   3.319   4.460 -0.6030  0.0310 -0.5543
10697SOL    HW233062   0.726   3.172   4.490 -0.0952  0.0792 -0.5773
10698SOL     OW33063   7.121   3.880   1.259 -0.2952  0.0456 -0.6318
10698SOL    HW133064   7.119   3.786   1.241  1.8706 -0.4489  1.3108
10698SOL    HW233065   7.203   3.910   1.220  0.0807  0.6708  0.6057
10699SOL     OW33066   5.026   5.127   5.182  0.6952  0.4307  0.3917
10699SOL    HW133067   5.112   5.169   5.178  0.6546  0.8348  2.4680
10699SOL    HW233068   5.017   5.100   5.273 -1.2617  0.1320  0.1561
10700SOL     OW33069   2.542   5.941   6.316 -0.7284  0.0250 -0.3702
10700SOL    HW133070   2.625   5.904   6.346 -0.2286  0.6555 -0.9385
10700SOL    HW233071   2.521   6.007   6.381  0.3052  1.3234 -1.2946
10701SOL     OW33072   5.393   1.901   3.132  0.3981 -0.2443  0.1452
10701SOL    HW133073   5.369   1.872   3.044 -2.4443 -1.5948  1.2492
10701SOL    HW233074   5.427   1.822   3.175  1.5750  0.3558  0.3684
10702SOL     OW33075   6.765   1.615   6.894 -0.8974  0.4184  0.0315
10702SOL    HW133076   6.738   1.533   6.852  1.4220 -0.0632 -0.6385
10702SOL    HW233077   6.789   1.590   6.983 -0.3177  0.3930 -0.1314
10703SOL     OW33078   5.781   7.113   1.354 -0.1820 -0.3665 -0.0842
10703SOL    HW133079   5.724   7.149   1.285 -0.0876 -0.4455 -0.2055
10703SOL    HW233080   5.726   7.049   1.399 -0.1380 -0.5677 -0.3135
10704SOL     OW33081   5.448   5.679   5.350 -0.3747  0.3949 -0.1312
10704SOL    HW133082   5.378   5.738   5.324 -0.3824  0.3755 -0.1559
10704SOL    HW233083   5.522   5.736   5.370 -1.3338  0.7105  3.1255
10705SOL     OW33084   6.524   3.843   3.107 -0.4870 -0.1884 -0.0799
10705SOL    HW133085   6.434   3.817   3.131 -0.0062 -1.2686  0.6574
10705SOL    HW233086   6.563   3.763   3.072  0.7148 -0.2090  1.2199
10706SOL     OW33087   3.264   2.820   0.425 -0.6164  0.1175 -0.2523
10706SOL    HW133088   3.242   2.809   0.333 -1.1534  0.9749 -0.2404
10706SOL    HW233089   3.350   2.778   0.435  0.0024  1.0445 -1.4062
10707SOL     OW33090   7.067   2.435   5.746  0.3807  0.4096 -0.1137
10707SOL    HW133091   7.080   2.439   5.651 -1.3648  1.6961 -0.3629
10707SOL    HW233092   6.982   2.392   5.756  0.4680  0.4560  0.8466
10708SOL     OW33093   0.516   6.626   1.880  0.2135 -0.5222 -0.1115
10708SOL    HW133094   0.432   6.593   1.848 -0.2414  1.2766 -0.8734
10708SOL    HW233095   0.565   6.648   1.800  0.1684  1.3825  0.3437
10709SOL     OW33096   1.318   4.859   6.193  0.2083 -0.0918 -0.0910
10709SOL    HW133097   1.254   4.789   6.198  0.1326 -0.0548 -0.4690
10709SOL    HW233098   1.369   4.852   6.273  0.6821 -1.0471 -0.4679
10710SOL     OW33099   2.024   4.984   4.234  0.6325 -0.8105  0.0132
10710SOL    HW133100   2.053   4.905   4.191  2.1258 -1.4474  2.0126
10710SOL    HW233101   1.930   4.972   4.247  0.7746 -2.0700 -0.0592
10711SOL     OW33102   7.092   4.650   6.887 -0.0365  0.3080  0.4594
10711SOL    HW133103   7.170   4.616   6.843 -0.3779 -1.0806  0.8725
10711SOL    HW233104   7.118   4.654   6.980  0.0181  1.2816  0.4137
10712SOL     OW33105   1.788   7.077   0.154  0.0032 -0.0568 -0.3941
10712SOL    HW133106   1.746   7.160   0.131  2.5254  1.1780 -0.8809
10712SOL    HW233107   1.763   7.062   0.246  0.7717  2.1208  0.2182
10713SOL     OW33108   1.771   6.951   6.625  0.2822 -0.9289  0.2897
10713SOL    HW133109   1.848   7.008   6.630  1.1584 -2.1706  1.6283
10713SOL    HW233110   1.777   6.911   6.538  1.3060 -1.1916  0.4624
10714SOL     OW33111   3.306   0.661   2.722 -0.3874  0.3450 -0.1228
10714SOL    HW133112   3.399   0.675   2.741  0.2272 -1.4058 -1.5309
10714SOL    HW233113   3.287   0.576   2.762 -2.5426  2.3474  3.6312
10715SOL     OW33114   0.625   1.452   2.778  0.3144  0.2700 -0.5428
10715SOL    HW133115   0.686   1.512   2.820  0.9515  0.2305 -1.3931
10715SOL    HW233116   0.679   1.379   2.749 -0.2567 -0.1144 -0.6462
10716SOL     OW33117   0.005   1.583   0.073 -0.0930  0.0223  0.1527
10716SOL    HW133118   0.029   1.574  -0.019 -0.0116 -1.4770  0.2997
10716SOL    HW233119  -0.052   1.509   0.091  0.1961  0.0671  1.4071
10717SOL     OW33120   1.714   0.798   7.159  0.3463 -0.0651 -0.3308
10717SOL    HW133121   1.675   0.747   7.088 -1.6440  0.7171  0.1389
10717SOL    HW233122   1.653   0.789   7.232  1.0736  1.1799  0.4733
10718SOL     OW33123   0.223   4.828   0.961 -0.1181 -0.1423 -0.7314
10718SOL    HW133124   0.195   4.745   1.000 -1.2116  0.2801 -0.6054
10718SOL    HW233125   0.316   4.835   0.986 -0.4686 -0.4528  0.7798
10719SOL     OW33126   2.685   2.343   4.153 -0.1638  0.1772  0.1607
10719SOL    HW133127   2.667   2.267   4.097  1.8791  0.5239 -1.0484
10719SOL    HW233128   2.671   2.418   4.096  4.3112  0.4995 -0.8464
10720SOL     OW33129   7.205   1.243   3.306 -0.2448 -0.1550 -0.4283
10720SOL    HW133130   7.197   1.335   3.329 -0.7605 -0.1348 -0.6852
10720SOL    HW233131   7.139   1.229   3.238  0.3281 -0.5316 -0.9208
10721SOL     OW33132   2.763   6.134   3.178  0.3487  0.5904 -0.2531
10721SOL    HW133133   2.751   6.201   3.110  2.5425  0.2589 -1.0713
10721SOL    HW233134   2.692   6.149   3.240  0.8095  3.7960 -0.3333
10722SOL     OW33135   3.731   1.988   5.305 -0.0528 -0.5126  0.8485
10722SOL    HW133136   3.645   2.010   5.269  0.2530  0.7367  0.8423
10722SOL    HW233137   3.792   2.049   5.262  0.5853 -0.2110  2.1252
10723SOL     OW33138   1.735   6.098   1.784 -0.2171  0.3866  0.2471
10723SOL    HW133139   1.727   6.175   1.841 -1.3382  1.0649 -0.7811
10723SOL    HW233140   1.829   6.091   1.768  0.0961  0.3284  1.9506
10724SOL     OW33141   2.368   3.661   6.874  0.4631  0.1629  0.1528
10724SOL    HW133142   2.355   3.730   6.809  0.0940  0.1995  0.2597
10724SOL    HW233143   2.349   3.580   6.826 -0.2172  0.2189  0.3174
10725SOL     OW33144   0.339   5.568   0.440  0.6026 -0.2209  0.0843
10725SOL    HW133145   0.391   5.566   0.520 -0.1337 -2.5467  0.5811
10725SOL    HW233146   0.364   5.489   0.393 -0.1877  0.2561 -1.2000
10726SOL     OW33147   5.540   1.944   6.351 -0.7969 -0.2910  0.2897
10726SOL    HW133148   5.593   1.866   6.365  0.2965  0.1791 -1.0251
10726SOL    HW233149   5.450   1.912   6.342 -0.4784 -1.2929  0.6128
10727SOL     OW33150   7.029   2.903   2.410 -0.4479  0.0855 -0.0907
10727SOL    HW133151   7.033   2.933   2.500 -4.3285  0.4534  0.1444
10727SOL    HW233152   7.046   2.981   2.357  1.8578 -0.1392  0.2308
10728SOL     OW33153   1.378   3.479   6.372  0.5835 -0.2309  0.2888
10728SOL    HW133154   1.311   3.439   6.316  1.7446 -0.9468 -0.6217
10728SOL    HW233155   1.344   3.567   6.390 -0.0587 -0.1749 -1.1047
10729SOL     OW33156   7.024   5.953   5.770 -0.3823  0.2323  0.0695
10729SOL    HW133157   6.981   5.894   5.708 -1.2552  0.1786  0.7054
10729SOL    HW233158   6.969   6.031   5.773  0.5797  0.9579 -0.5035
10730SOL     OW33159   2.179   5.427   4.473  0.1954  0.5086  0.0438
10730SOL    HW133160   2.233   5.453   4.547  0.9418 -1.7768  0.3840
10730SOL    HW233161   2.105   5.380   4.511 -0.2175  0.6040 -0.6043
10731SOL     OW33162   7.179   0.127   2.287  0.1341 -0.0312  0.4871
10731SOL    HW133163   7.183   0.222   2.281  0.3855 -0.0305  0.6201
10731SOL    HW233164   7.164   0.098   2.197  2.0239  0.0559  0.0879
10732SOL     OW33165   3.566   4.653   7.174  0.3924 -0.1607 -0.1929
10732SOL    HW133166   3.584   4.616   7.088  1.2981 -2.2607  0.8129
10732SOL    HW233167   3.489   4.604   7.206 -0.0646  0.7372  0.1264
10733SOL     OW33168   4.914   3.917   4.728 -0.3925  0.0761 -0.2700
10733SOL    HW133169   4.858   3.842   4.744  2.3916 -2.1018  0.0352
10733SOL    HW233170   4.930   3.954   4.814  0.4327 -0.7285 -0.0640
10734SOL     OW33171   4.148   7.051   7.137 -0.4430  0.1197 -0.1536
10734SOL    HW133172   4.142   6.996   7.216 -0.2463  0.4287  0.0799
10734SOL    HW233173   4.150   6.988   7.065  0.8840 -0.2464  0.1565
10735SOL     OW33174   1.010   6.177   1.039  0.8029 -0.1137  0.6801
10735SOL    HW133175   0.924   6.218   1.027  1.6362  1.3867 -0.5178
10735SOL    HW233176   1.034   6.199   1.129  1.1234  1.9404  0.1419
10736SOL     OW33177   2.280   4.119   6.907  0.0568  0.4632  0.3739
10736SOL    HW133178   2.235   4.036   6.898  2.1746 -0.8215  0.7958
10736SOL    HW233179   2.343   4.121   6.835 -0.1894  1.8840  0.1567
10737SOL     OW33180   6.624   5.104   1.747  0.1112 -0.3965 -0.2897
10737SOL    HW133181   6.580   5.070   1.670  0.3347  0.4541 -0.8108
10737SOL    HW233182   6.717   5.086   1.732  0.1990  0.1407 -0.4247
10738SOL     OW33183   1.094   2.934   6.646  0.4023 -0.0797 -0.1952
10738SOL    HW133184   1.175   2.982   6.663  0.1078 -0.8130  4.7447
10738SOL    HW233185   1.117   2.842   6.662 -0.8065 -0.6691 -1.6123
10739SOL     OW33186   2.245   0.055   2.524  0.5432  0.1707 -0.2097
10739SOL    HW133187   2.217   0.032   2.436 -0.6330  1.0985 -0.0969
10739SOL    HW233188   2.263  -0.029   2.566  2.3050 -0.2535 -1.6727
10740SOL     OW33189   2.503   0.973   5.867  0.0307  0.6489 -0.5521
10740SOL    HW133190   2.442   0.941   5.801  0.7606 -0.7197 -0.5915
10740SOL    HW233191   2.448   0.990   5.944 -0.4300 -0.3895 -0.6432
10741SOL     OW33192   7.166   2.450   0.732 -0.2688  0.1618  0.4457
10741SOL    HW133193   7.159   2.369   0.682  0.6330  0.1245  0.3624
10741SOL    HW233194   7.231   2.431   0.799 -1.6626  0.1200  1.8345
10742SOL     OW33195   7.236   5.514   6.546 -0.2558 -0.1046 -0.3736
10742SOL    HW133196   7.276   5.463   6.616 -0.6121  0.1372  0.0083
10742SOL    HW233197   7.171   5.568   6.590 -2.8229 -2.2599 -1.2066
10743SOL     OW33198   6.604   6.447   2.712 -0.3493 -0.2159  0.1062
10743SOL    HW133199   6.686   6.489   2.685 -0.4689 -0.1398 -0.1418
10743SOL    HW233200   6.536   6.511   2.694 -0.4023 -0.0341  0.9048
10744SOL     OW33201   6.942   1.306   0.542 -0.4932  0.2659 -0.8320
10744SOL    HW133202   7.033   1.296   0.515 -0.0491  1.6161  0.0422
10744SOL    HW233203   6.936   1.261   0.625 -0.6721  0.0343 -0.9692
10745SOL     OW33204   7.046   0.314   0.801 -0.1405 -0.1842 -0.0219
10745SOL    HW133205   7.047   0.249   0.730 -0.7774 -0.6172  0.3535
10745SOL    HW233206   7.037   0.263   0.881  1.7249  0.2277  0.4927
10746SOL     OW33207   2.371   7.167   4.292 -0.3530 -0.5966  0.0214
10746SOL    HW133208   2.381   7.240   4.232 -1.4633 -0.8983 -0.5650
10746SOL    HW233209   2.277   7.164   4.311 -0.1584 -1.1465  0.9562
10747SOL     OW33210   4.916   2.137   5.769 -0.1040 -0.0734 -0.7463
10747SOL    HW133211   4.902   2.143   5.864  0.9528  0.6759 -0.6188
10747SOL    HW233212   4.886   2.221   5.735 -1.1444 -0.6023 -1.1891
10748SOL     OW33213   4.260   7.043   6.084 -0.5768  0.0493 -0.8380
10748SOL    HW133214   4.212   6.964   6.059 -0.7508  0.3740 -1.5600
10748SOL    HW233215   4.251   7.048   6.179  1.8745 -2.3835 -0.3474
10749SOL     OW33216   5.662   6.399   1.718 -0.0248 -0.0719  0.3414
10749SOL    HW133217   5.742   6.360   1.683 -0.4594 -0.7789  0.1148
10749SOL    HW233218   5.633   6.459   1.649  0.4049  0.3255  0.5016
10750SOL     OW33219   3.696   7.216   5.819 -0.1612  0.1027 -0.2789
10750SOL    HW133220   3.765   7.262   5.772  0.2737  0.7781  0.9685
10750SOL    HW233221   3.727   7.213   5.910 -1.5127 -0.0785  0.1960
10751SOL     OW33222   0.867   3.488   2.996  0.4878  0.1114 -0.0518
10751SOL    HW133223   0.837   3.409   3.041  1.6356  0.1666  0.8571
10751SOL    HW233224   0.950   3.510   3.038  0.7700  1.1406 -1.0820
10752SOL     OW33225   4.035   3.562   5.354 -0.0122 -0.3207 -0.1266
10752SOL    HW133226   4.028   3.466   5.352 -0.2471 -0.3016 -0.3457
10752SOL    HW233227   4.001   3.586   5.440 -0.5477 -0.3933 -0.3141
10753SOL     OW33228   5.725   2.032   1.756 -0.6026 -0.5611  0.1839
10753SOL    HW133229   5.805   2.030   1.703 -0.8284 -0.6513 -0.1581
10753SOL    HW233230   5.746   1.983   1.835  0.3007  1.0278  0.9714
10754SOL     OW33231   1.471   1.753   2.205  0.4285  0.2813  0.1310
10754SOL    HW133232   1.460   1.836   2.160 -1.0896  0.1665  0.2326
10754SOL    HW233233   1.558   1.722   2.179 -0.3346  0.2683 -2.6226
10755SOL     OW33234   3.168   6.277   2.249 -0.0964  0.3173  0.0426
10755SOL    HW133235   3.167   6.276   2.344  0.4814  1.9560  0.1078
10755SOL    HW233236   3.088   6.323   2.224  0.8875  2.0343 -0.1307
10756SOL     OW33237   6.149   2.942   6.904 -0.2257  0.4410 -0.3321
10756SOL    HW133238   6.060   2.950   6.940  0.3816  0.2689  1.3163
10756SOL    HW233239   6.191   2.877   6.960  1.2793  1.3368 -0.3671
10757SOL     OW33240   3.878   3.760   7.040 -0.6803  0.1177 -0.2170
10757SOL    HW133241   3.831   3.681   7.013  0.0468 -0.4525  0.1225
10757SOL    HW233242   3.913   3.738   7.127 -1.0117  1.0558  0.1641
10758SOL     OW33243   0.496   5.787   3.231  1.0957 -0.1788 -0.5642
10758SOL    HW133244   0.567   5.797   3.167  2.6080 -2.0111  0.7095
10758SOL    HW233245   0.452   5.707   3.205  1.7865 -0.9953  0.6761
10759SOL     OW33246   6.000   1.645   0.535 -0.1239  0.1656 -0.0984
10759SOL    HW133247   6.025   1.574   0.476 -0.7675 -0.3962  0.2967
10759SOL    HW233248   5.957   1.709   0.478  0.3877  0.2106 -0.4406
10760SOL     OW33249   4.934   4.618   6.349 -0.0067 -0.0321  0.3866
10760SOL    HW133250   5.015   4.669   6.339 -0.2330  0.4333  0.9001
10760SOL    HW233251   4.961   4.541   6.399  0.3873 -0.5570 -0.6041
10761SOL     OW33252   4.185   0.568   4.796  0.0601 -0.1130  0.1811
10761SOL    HW133253   4.135   0.533   4.869 -1.8370 -1.7929 -1.7497
10761SOL    HW233254   4.128   0.554   4.720  2.2621  0.7203 -1.7351
10762SOL     OW33255   3.975   4.837   1.886 -0.4199 -0.3471 -0.0273
10762SOL    HW133256   4.013   4.760   1.929  0.0462  0.9147  2.0121
10762SOL    HW233257   3.962   4.899   1.958 -1.8040  1.0790 -1.4390
10763SOL     OW33258   0.371   4.190   4.917  0.1098  0.1896 -0.4208
10763SOL    HW133259   0.462   4.217   4.909  0.0943 -0.0979 -1.9402
10763SOL    HW233260   0.324   4.249   4.858 -0.6249  0.0110 -0.0219
10764SOL     OW33261   3.639   7.038   3.996 -0.0796  0.8176  0.4380
10764SOL    HW133262   3.545   7.036   4.016  0.1211 -0.8404  1.4074
10764SOL    HW233263   3.646   6.992   3.912 -0.1558  1.0249  0.3194
10765SOL     OW33264   4.124   6.859   0.835 -0.3146  0.1147 -0.4705
10765SOL    HW133265   4.096   6.865   0.744  1.0549 -2.0234 -1.1090
10765SOL    HW233266   4.082   6.780   0.868  0.6487 -0.1439  0.1725
10766SOL     OW33267   0.970   3.476   6.363 -0.0162 -0.0508 -0.3637
10766SOL    HW133268   0.948   3.401   6.418  1.3922  0.0801  0.4296
10766SOL    HW233269   0.985   3.439   6.276  1.9107 -0.9400  0.2814
10767SOL     OW33270   4.653   0.013   3.816  0.0475 -0.4971 -0.2650
10767SOL    HW133271   4.601  -0.064   3.839 -0.5692  0.4178  1.5945
10767SOL    HW233272   4.633   0.029   3.724 -1.1437 -1.5416 -0.2175
10768SOL     OW33273   1.766   5.270   7.184  0.3026 -0.3757  0.0317
10768SOL    HW133274   1.770   5.364   7.168 -1.0066 -0.6574 -2.4977
10768SOL    HW233275   1.727   5.261   7.270 -4.3711  1.4882 -1.6099
10769SOL     OW33276   5.301   6.694   3.391  0.6186  0.0763  0.1069
10769SOL    HW133277   5.208   6.713   3.380  0.0470 -0.9092  2.5308
10769SOL    HW233278   5.322   6.638   3.316 -1.2579 -1.1822  0.4204
10770SOL     OW33279   4.734   2.735   4.949  0.7153  0.4182 -0.2557
10770SOL    HW133280   4.640   2.729   4.967  0.5789  0.7296 -0.8415
10770SOL    HW233281   4.772   2.661   4.996 -0.0910 -1.0490 -1.8179
10771SOL     OW33282   5.522   0.595   5.295 -0.3903  0.4334  0.3336
10771SOL    HW133283   5.545   0.539   5.221  0.8641 -1.6854  2.1747
10771SOL    HW233284   5.430   0.576   5.313 -0.5418  0.5398 -0.3263
10772SOL     OW33285   2.005   5.728   3.270  0.5833 -0.1895  0.1371
10772SOL    HW133286   2.080   5.727   3.211 -0.3938 -1.5863 -1.1364
10772SOL    HW233287   2.018   5.653   3.327 -0.0205 -0.6601 -0.3337
10773SOL     OW33288   5.445   0.270   3.957  0.0250 -0.4165  0.0835
10773SOL    HW133289   5.408   0.259   3.869 -0.5413  0.5205  0.1875
10773SOL    HW233290   5.461   0.181   3.988  0.0757 -0.7593 -0.9095
10774SOL     OW33291   4.238   6.768   3.735  0.2358 -0.1756  0.1146
10774SOL    HW133292   4.325   6.791   3.701 -0.4526 -0.4117 -1.9272
10774SOL    HW233293   4.227   6.824   3.812  1.9156  0.3309  0.0370
10775SOL     OW33294   4.781   1.676   3.831  0.3908  0.1779  0.1483
10775SOL    HW133295   4.803   1.595   3.878 -0.2656 -0.4863 -0.6641
10775SOL    HW233296   4.809   1.660   3.741 -0.7345  0.4264 -0.2633
10776SOL     OW33297   5.247   0.314   4.939 -0.0849  0.4916  0.2747
10776SOL    HW133298   5.289   0.242   4.893  1.3933  1.6312 -0.2736
10776SOL    HW233299   5.198   0.361   4.872 -1.7190 -0.4416  0.7856
10777SOL     OW33300   0.682   6.271   2.673 -0.1115  0.4466 -0.3082
10777SOL    HW133301   0.758   6.255   2.618 -1.3876  0.4442 -2.1781
10777SOL    HW233302   0.714   6.260   2.763  2.2768  1.3955 -0.9770
10778SOL     OW33303   4.624   3.933   3.359 -0.0207  0.2765  0.6599
10778SOL    HW133304   4.714   3.902   3.352 -0.0887 -0.3156  2.1201
10778SOL    HW233305   4.583   3.874   3.422 -1.9938 -0.6782 -1.3750
10779SOL     OW33306   4.365   4.070   3.565 -0.2708  0.1196  1.0193
10779SOL    HW133307   4.438   4.035   3.616  0.8234  1.2256  0.2738
10779SOL    HW233308   4.307   3.995   3.551  1.8894 -1.4099 -0.3892
10780SOL     OW33309   5.469   3.008   0.325  0.2116 -0.1152  0.2344
10780SOL    HW133310   5.470   3.104   0.328  0.6462 -0.1295  0.7853
10780SOL    HW233311   5.528   2.982   0.396 -0.2678 -0.7949  0.3895
10781SOL     OW33312   6.914   6.445   4.871 -0.2872  0.0979  0.3418
10781SOL    HW133313   6.994   6.432   4.922  1.0661  3.4681 -0.6206
10781SOL    HW233314   6.844   6.447   4.936  0.8897  0.5332  1.6496
10782SOL     OW33315   4.708   5.608   2.692  0.2744 -0.2873  0.4714
10782SOL    HW133316   4.693   5.522   2.654 -0.2458 -0.5808  1.3106
10782SOL    HW233317   4.735   5.589   2.782  1.4493  0.3837  0.2792
10783SOL     OW33318   0.974   3.725   5.432 -0.5855  0.3345  0.4109
10783SOL    HW133319   0.923   3.741   5.352 -0.4177  0.2399  0.2832
10783SOL    HW233320   1.061   3.759   5.412 -0.1207 -1.0244 -0.0003
10784SOL     OW33321   2.250   4.398   6.173  0.1490  0.7112  0.2448
10784SOL    HW133322   2.300   4.462   6.122  0.6761  0.4021  0.3632
10784SOL    HW233323   2.159   4.423   6.160  0.2228  0.3076 -1.3270
10785SOL     OW33324   6.971   2.110   7.181 -0.1790  0.2193 -0.3139
10785SOL    HW133325   6.908   2.053   7.226 -1.0787  0.8712 -0.7076
10785SOL    HW233326   6.965   2.085   7.089  0.7942 -0.3086 -0.2444
10786SOL     OW33327   2.014   6.827   1.298  0.3285 -0.6385 -0.2364
10786SOL    HW133328   1.939   6.845   1.355  0.8426  1.4750 -0.1449
10786SOL    HW233329   2.062   6.910   1.294  0.9690 -1.0476 -2.8079
10787SOL     OW33330   4.624   0.571   6.529 -0.2832 -0.1121 -0.0005
10787SOL    HW133331   4.544   0.613   6.559  0.4273  1.2784  0.0108
10787SOL    HW233332   4.641   0.502   6.593 -0.8749  0.3053  0.6187
10788SOL     OW33333   0.464   4.656   4.374 -0.3447 -0.4473  0.0125
10788SOL    HW133334   0.478   4.621   4.285  0.4612 -1.6370  0.5764
10788SOL    HW233335   0.371   4.641   4.391 -0.0692 -2.2512  0.1669
10789SOL     OW33336   3.179   1.953   3.403  0.3509 -0.2498 -0.3153
10789SOL    HW133337   3.200   2.017   3.335 -1.3563  0.4980 -0.1837
10789SOL    HW233338   3.100   1.909   3.371 -0.1485 -0.2764  0.9250
10790SOL     OW33339   0.536   1.993   6.782 -0.3069 -0.1745  0.2131
10790SOL    HW133340   0.516   2.044   6.861 -0.3609 -0.6760  0.5330
10790SOL    HW233341   0.630   2.006   6.768 -0.6112  1.3045 -0.6501
10791SOL     OW33342   3.502   1.537   4.741  0.1618  0.4226 -0.1140
10791SOL    HW133343   3.563   1.478   4.784 -0.8709 -2.1903 -2.0301
10791SOL    HW233344   3.550   1.573   4.667 -0.0397 -0.1228 -0.5080
10792SOL     OW33345   7.089   2.559   7.145 -0.1649  0.2717  0.0856
10792SOL    HW133346   7.090   2.495   7.217  0.6036  2.1263  1.7976
10792SOL    HW233347   7.125   2.511   7.070  1.8095 -0.8987  1.6950
10793SOL     OW33348   6.849   5.118   4.459 -0.1957  0.1576  0.0670
10793SOL    HW133349   6.804   5.056   4.516  1.3922 -0.2754  0.9380
10793SOL    HW233350   6.928   5.071   4.430  1.9121  2.1948  2.0408
10794SOL     OW33351   4.129   5.593   5.063  0.6984  0.6655  0.6640
10794SOL    HW133352   4.075   5.670   5.044 -1.6035 -0.9707  0.2016
10794SOL    HW233353   4.104   5.568   5.152  0.6880 -0.1300  0.4403
10795SOL     OW33354   2.476   4.622   3.861  0.0646 -0.1422  0.0338
10795SOL    HW133355   2.409   4.556   3.846 -0.0952  0.5495 -2.7528
10795SOL    HW233356   2.431   4.691   3.911 -1.4433  0.4240 -1.9792
10796SOL     OW33357   3.897   0.324   1.127 -0.4907  0.4561 -0.6236
10796SOL    HW133358   3.985   0.309   1.092 -0.1019  1.8727 -0.3186
10796SOL    HW233359   3.876   0.243   1.174 -0.2505 -0.7369 -2.4662
10797SOL     OW33360   4.452   3.002   4.744 -0.3056 -0.0131 -0.5849
10797SOL    HW133361   4.447   3.095   4.723 -1.8113  0.0260 -0.1750
10797SOL    HW233362   4.505   2.964   4.673 -0.7228  0.9534 -1.4442
10798SOL     OW33363   0.024   1.312   5.935  0.4613 -0.0588 -0.1577
10798SOL    HW133364  -0.014   1.266   6.010 -0.2395  0.6178 -0.0757
10798SOL    HW233365   0.119   1.301   5.945  0.3422 -0.6172  0.4075
10799SOL     OW33366   0.701   4.901   1.111  0.5135  0.3398  0.7349
10799SOL    HW133367   0.665   4.925   1.196  0.0688  0.7011  0.4551
10799SOL    HW233368   0.625   4.876   1.059  0.9622 -1.6595  0.9862
10800SOL     OW33369   2.593   4.391   3.307  0.4341 -0.1869 -0.1405
10800SOL    HW133370   2.514   4.359   3.264 -1.6585  1.8703  1.9201
10800SOL    HW233371   2.590   4.355   3.395  0.6181  1.5669  0.6366
10801SOL     OW33372   6.512   4.492   2.788  0.0780  0.2609 -0.2099
10801SOL    HW133373   6.596   4.479   2.745  1.0652  2.3167  0.9838
10801SOL    HW233374   6.485   4.404   2.815  2.4085 -0.3275  0.3826
10802SOL     OW33375   3.091   1.885   7.139  0.2420 -0.5597 -1.0392
10802SOL    HW133376   3.154   1.937   7.089  0.1995 -0.5562 -1.0894
10802SOL    HW233377   3.024   1.860   7.075  0.9151 -1.7569 -1.3140
10803SOL     OW33378   5.918   2.193   1.426  0.2696  0.4381  0.0771
10803SOL    HW133379   5.982   2.265   1.423  0.5137  0.3310  1.9246
10803SOL    HW233380   5.837   2.234   1.455  0.4571 -0.0265  1.3312
10804SOL     OW33381   5.930   4.947   3.970  0.8255  0.4960 -0.4262
10804SOL    HW133382   5.943   4.966   3.877 -1.5797 -3.7282 -1.9017
10804SOL    HW233383   5.999   4.885   3.992  0.2749  0.0371  0.0299
10805SOL     OW33384   0.130   0.608   7.346  0.2835  0.6651  0.1486
10805SOL    HW133385   0.178   0.685   7.377 -0.4181  0.3593  2.1536
10805SOL    HW233386   0.186   0.534   7.370  1.1155  0.5059 -2.0800
10806SOL     OW33387   4.463   2.855   1.391 -0.2080  0.3681 -0.1355
10806SOL    HW133388   4.532   2.791   1.374 -1.2892 -0.3671 -2.1338
10806SOL    HW233389   4.491   2.902   1.469  2.1203 -0.4799 -0.4086
10807SOL     OW33390   6.502   1.477   1.959  1.0695 -0.2639  0.7122
10807SOL    HW133391   6.480   1.562   1.921  0.5563  0.4454  2.5084
10807SOL    HW233392   6.524   1.422   1.884 -1.3513  0.6331 -0.7341
10808SOL     OW33393   2.745   3.845   4.355 -0.2346 -0.3581 -0.7585
10808SOL    HW133394   2.695   3.880   4.281 -1.1417 -0.1035 -0.0483
10808SOL    HW233395   2.836   3.843   4.324 -0.2205  2.0987 -1.0304
10809SOL     OW33396   2.210   6.668   4.931 -0.2992  0.1975 -0.0554
10809SOL    HW133397   2.204   6.605   4.860  2.2065  0.7003 -0.8257
10809SOL    HW233398   2.256   6.743   4.893  0.3222  0.8425  1.8444
10810SOL     OW33399   6.279   1.421   0.167  0.1585 -0.3442  0.1166
10810SOL    HW133400   6.338   1.356   0.205  2.0073  0.5900 -1.0308
10810SOL    HW233401   6.260   1.481   0.240 -1.7733 -2.1971  1.2551
10811SOL     OW33402   2.934   6.168   6.141 -0.3371  0.2264 -0.6067
10811SOL    HW133403   2.970   6.085   6.107 -0.3109  0.9283 -2.3875
10811SOL    HW233404   3.010   6.216   6.173 -0.0983  0.3558 -1.3604
10812SOL     OW33405   0.529   7.177   4.043 -0.3676  0.4771 -0.2326
10812SOL    HW133406   0.569   7.219   3.967  1.2769 -0.3590  0.1370
10812SOL    HW233407   0.471   7.110   4.007 -1.6783  1.8583 -0.7807
10813SOL     OW33408   4.460   5.942   1.248 -0.8981  0.1280  0.6444
10813SOL    HW133409   4.442   5.911   1.159  0.3330  0.2837  0.3188
10813SOL    HW233410   4.474   5.862   1.299  0.8216  0.0636  0.1309
10814SOL     OW33411   5.243   1.660   3.794  0.1392 -0.0920 -0.0459
10814SOL    HW133412   5.264   1.692   3.706  2.1074 -2.5399 -0.5812
10814SOL    HW233413   5.162   1.611   3.784 -0.1004  0.3591 -0.3133
10815SOL     OW33414   5.518   2.184   1.835 -0.3753  0.3386 -0.4326
10815SOL    HW133415   5.486   2.174   1.745 -0.4238 -0.4679 -0.3334
10815SOL    HW233416   5.606   2.146   1.833 -0.5727 -0.1428 -0.0249
10816SOL     OW33417   5.008   1.313   3.091  0.1865 -0.0143 -0.6338
10816SOL    HW133418   5.085   1.300   3.036  0.7718 -0.0700  0.2013
10816SOL    HW233419   4.984   1.225   3.120  0.3579  0.1029 -0.1412
10817SOL     OW33420   6.656   1.004   1.193 -0.4405  0.4864  0.5690
10817SOL    HW133421   6.660   0.957   1.276  1.5300 -1.8632 -0.7172
10817SOL    HW233422   6.564   0.996   1.165 -0.8040  0.0789  1.8218
10818SOL     OW33423   5.529   5.915   6.980 -0.2859  0.0994 -0.2723
10818SOL    HW133424   5.495   5.968   6.908 -0.3264  2.3627  1.3061
10818SOL    HW233425   5.620   5.898   6.956 -0.7913 -0.8472 -1.6994
10819SOL     OW33426   0.398   6.384   6.329 -0.1300  0.0122  0.2046
10819SOL    HW133427   0.354   6.381   6.414 -0.6603  0.2613 -0.0612
10819SOL    HW233428   0.491   6.394   6.350 -0.2154 -0.3605  0.7631
10820SOL     OW33429   2.841   4.409   5.380 -0.0777  0.1582 -0.5080
10820SOL    HW133430   2.776   4.415   5.450 -0.1335 -0.2205 -0.5271
10820SOL    HW233431   2.850   4.315   5.363 -0.5085  0.2644 -1.4158
10821SOL     OW33432   6.372   5.614   5.172  0.4808 -0.1196  0.0226
10821SOL    HW133433   6.326   5.678   5.117 -0.8660 -2.0273 -1.2140
10821SOL    HW233434   6.420   5.667   5.235 -0.0154  2.1167 -1.3492
10822SOL     OW33435   6.473   1.367   1.176  0.6542  0.1782  0.4032
10822SOL    HW133436   6.546   1.306   1.173  1.3946  1.0748 -0.3647
10822SOL    HW233437   6.501   1.435   1.237  0.0737  0.0608  0.8102
10823SOL     OW33438   6.298   5.368   5.280 -0.2650 -0.2974 -0.0366
10823SOL    HW133439   6.238   5.336   5.212 -0.0839  0.5244 -0.5986
10823SOL    HW233440   6.340   5.444   5.240 -0.1312  0.1785  0.9992
10824SOL     OW33441   1.445   0.058   5.347  0.4704  0.3910  0.2546
10824SOL    HW133442   1.507  -0.009   5.377 -0.7743 -0.8016  0.2669
10824SOL    HW233443   1.412   0.097   5.428  0.8407  0.7067  0.2596
10825SOL     OW33444   0.095   2.108   6.848 -0.5432  0.1434 -0.5499
10825SOL    HW133445   0.078   2.133   6.758  0.8311  1.7394 -0.4292
10825SOL    HW233446   0.011   2.119   6.893 -0.5673  2.4245 -1.0279
10826SOL     OW33447   2.701   6.130   6.981  0.5055  0.1384 -0.2560
10826SOL    HW133448   2.704   6.034   6.974 -1.6683  0.0316 -0.3642
10826SOL    HW233449   2.646   6.146   7.057 -1.5689  1.2548 -1.8847
10827SOL     OW33450   2.743   1.643   2.870  0.5967 -0.0914 -0.2524
10827SOL    HW133451   2.655   1.681   2.865  0.5792 -0.2359 -1.2942
10827SOL    HW233452   2.754   1.596   2.787  1.4636 -0.5095  0.0803
10828SOL     OW33453   0.449   4.631   3.448 -0.5978 -0.4614  0.5907
10828SOL    HW133454   0.523   4.571   3.455 -0.0882  0.2548  1.5155
10828SOL    HW233455   0.421   4.625   3.356  1.1430 -0.1090  0.0121
10829SOL     OW33456   5.465   4.747   2.527 -0.3204  0.5959  0.0638
10829SOL    HW133457   5.522   4.819   2.501  0.8982 -0.2618  0.2788
10829SOL    HW233458   5.474   4.743   2.623 -1.3843  0.9555  0.1937
10830SOL     OW33459   0.989   6.434   3.338  0.0510  0.1064 -0.1575
10830SOL    HW133460   0.926   6.471   3.399  0.4208 -0.3713  0.5346
10830SOL    HW233461   0.994   6.497   3.266 -0.3436  0.7071  0.3381
10831SOL     OW33462   5.261   7.252   6.291  0.4910 -0.2224  0.1222
10831SOL    HW133463   5.258   7.336   6.245  0.4047 -0.3361 -0.0803
10831SOL    HW233464   5.190   7.257   6.355 -0.3517 -0.6496 -0.7642
10832SOL     OW33465   1.176   2.660   6.621 -0.0648  0.0866 -0.0464
10832SOL    HW133466   1.124   2.666   6.540 -1.0587 -0.6120  0.5186
10832SOL    HW233467   1.224   2.578   6.611 -1.1473 -0.6452  0.6025
10833SOL     OW33468   6.544   3.346   0.656  0.2971  0.0787 -0.5516
10833SOL    HW133469   6.569   3.391   0.736 -0.3676  2.1755 -1.4400
10833SOL    HW233470   6.474   3.400   0.619 -2.6934 -3.2488 -0.2697
10834SOL     OW33471   0.365   0.332   6.046  0.2558 -0.0211  0.1210
10834SOL    HW133472   0.353   0.336   5.952  1.4606 -1.4574 -0.1299
10834SOL    HW233473   0.451   0.372   6.061  0.8584 -1.3489  0.3789
10835SOL     OW33474   0.299   2.546   4.099 -0.5456  0.3832 -0.2255
10835SOL    HW133475   0.309   2.455   4.127  0.3318  0.1129 -1.3721
10835SOL    HW233476   0.360   2.595   4.155 -0.3517  0.1501 -0.2352
10836SOL     OW33477   0.525   1.846   6.007  0.1651 -0.7146 -0.3653
10836SOL    HW133478   0.615   1.866   6.033 -0.7208  0.8636  1.8871
10836SOL    HW233479   0.487   1.932   5.988 -1.0444 -1.2909 -0.6232
10837SOL     OW33480   5.651   4.321   3.311  0.2229  0.7895  0.2857
10837SOL    HW133481   5.670   4.298   3.220 -0.8793 -0.1345  0.2671
10837SOL    HW233482   5.666   4.241   3.360  0.4572  1.1834  0.8658
10838SOL     OW33483   0.235   2.798   6.907 -0.1548 -0.1590 -0.1071
10838SOL    HW133484   0.229   2.880   6.957 -0.1138 -1.0423  1.4193
10838SOL    HW233485   0.236   2.825   6.816  0.3971  1.5733  0.3787
10839SOL     OW33486   5.277   2.855   5.519 -0.3314  0.6231  0.0481
10839SOL    HW133487   5.208   2.901   5.470 -0.1186  1.6544  0.6973
10839SOL    HW233488   5.358   2.891   5.484  0.1036 -2.4435 -2.6208
10840SOL     OW33489   3.384   0.463   5.703  0.4134 -0.0512  0.7145
10840SOL    HW133490   3.349   0.449   5.615 -1.4829  1.7327  1.0998
10840SOL    HW233491   3.349   0.549   5.729  1.2638 -0.3454  3.0358
10841SOL     OW33492   3.934   2.311   7.109 -0.3203 -0.4890 -0.0684
10841SOL    HW133493   4.029   2.314   7.119  0.0969  0.7048 -3.3796
10841SOL    HW233494   3.901   2.374   7.173  1.3358  0.9260 -0.5321
10842SOL     OW33495   1.921   2.197   0.702  0.8852 -0.0749 -0.4967
10842SOL    HW133496   1.951   2.113   0.668  0.7089  0.2838 -1.5563
10842SOL    HW233497   1.854   2.174   0.767  0.6557 -0.7453 -0.9590
10843SOL     OW33498   1.582   1.839   4.615  0.5598 -0.1265  0.2222
10843SOL    HW133499   1.643   1.836   4.541 -0.8784 -0.8766 -0.9988
10843SOL    HW233500   1.526   1.914   4.596  0.1079 -0.3962  0.4775
10844SOL     OW33501   4.940   5.792   2.579  0.3797 -0.2256  0.0652
10844SOL    HW133502   5.029   5.797   2.544 -0.0027  0.9007 -0.8225
10844SOL    HW233503   4.940   5.715   2.635  1.7644 -0.5529 -0.3524
10845SOL     OW33504   7.110   2.297   0.172  0.2340 -0.5814 -0.5094
10845SOL    HW133505   7.133   2.336   0.087 -1.0066 -0.9361 -1.0257
10845SOL    HW233506   7.024   2.333   0.193  0.3075 -0.8908  0.3617
10846SOL     OW33507   2.863   0.899   0.599  0.1886 -0.1181  0.3637
10846SOL    HW133508   2.887   0.806   0.592  0.2850 -0.0650 -0.0544
10846SOL    HW233509   2.944   0.942   0.626  0.9340  0.2220 -2.1878
10847SOL     OW33510   1.417   5.359   6.468 -0.3210  0.1433  0.1923
10847SOL    HW133511   1.459   5.334   6.386 -0.1654  0.9390  0.0147
10847SOL    HW233512   1.483   5.413   6.513 -0.9536  0.9806  0.1385
10848SOL     OW33513   2.621   4.795   4.663 -0.5435 -0.5962 -0.1456
10848SOL    HW133514   2.672   4.862   4.616  0.0040 -2.3489 -2.2305
10848SOL    HW233515   2.681   4.762   4.730 -0.2544 -0.1127 -0.1588
10849SOL     OW33516   6.672   6.325   0.078  0.0921 -0.8467 -0.0164
10849SOL    HW133517   6.762   6.354   0.059 -0.3828 -0.4541 -1.8295
10849SOL    HW233518   6.665   6.331   0.173  2.6165 -2.7862  0.3938
10850SOL     OW33519   5.832   2.398   0.835 -0.2107  0.3899 -0.1135
10850SOL    HW133520   5.865   2.358   0.916 -1.0259 -0.8856 -0.3721
10850SOL    HW233521   5.816   2.489   0.858  1.8229  0.6609  0.4808
10851SOL     OW33522   3.005   2.398   6.544  0.0643 -0.0137 -0.0033
10851SOL    HW133523   2.973   2.485   6.568 -0.0757  0.3973 -1.6208
10851SOL    HW233524   3.059   2.411   6.467 -0.6343 -1.4554 -0.7839
10852SOL     OW33525   0.675   5.763   4.637  0.1261  0.1483 -0.3295
10852SOL    HW133526   0.669   5.778   4.542  1.7155 -0.1591 -0.4990
10852SOL    HW233527   0.671   5.850   4.675  1.8161  0.4838 -0.8470
10853SOL     OW33528   4.406   6.187   3.134 -0.2972  0.6896  0.9645
10853SOL    HW133529   4.391   6.144   3.219  0.5239 -0.1747  0.6956
10853SOL    HW233530   4.345   6.260   3.133 -1.4528 -0.2222  1.6416
10854SOL     OW33531   0.782   5.538   6.443 -0.0123  0.6025 -0.1381
10854SOL    HW133532   0.803   5.626   6.473 -0.5272  0.4685  0.6411
10854SOL    HW233533   0.700   5.547   6.395 -0.1959  0.5226  0.1514
10855SOL     OW33534   4.958   0.062   3.313  0.5728  0.5035  0.0479
10855SOL    HW133535   4.933   0.126   3.380  1.3204  0.1207  0.7149
10855SOL    HW233536   4.897   0.078   3.240 -1.4331 -0.2408  1.4790
10856SOL     OW33537   1.513   7.258   6.629 -0.1894  0.1678 -0.2672
10856SOL    HW133538   1.565   7.203   6.687  0.4913 -0.5528 -1.5167
10856SOL    HW233539   1.567   7.335   6.614 -1.4566  1.6523  2.0985
10857SOL     OW33540   0.882   4.781   4.615 -0.1349 -0.3831 -0.2360
10857SOL    HW133541   0.932   4.817   4.688  3.4704 -2.4252 -1.4871
10857SOL    HW233542   0.834   4.707   4.653  2.8957 -2.4062  0.0021
10858SOL     OW33543   7.218   1.021   7.251  0.1160 -0.0414 -0.0618
10858SOL    HW133544   7.292   1.072   7.217 -0.1900  0.6846  0.3427
10858SOL    HW233545   7.140   1.071   7.226 -0.3213 -1.2530 -1.2781
10859SOL     OW33546   4.992   5.232   0.930 -0.1787 -0.7356 -0.1838
10859SOL    HW133547   4.963   5.321   0.949 -0.2134 -0.6556 -0.6008
10859SOL    HW233548   4.985   5.186   1.013 -0.1262 -0.3390  0.0402
10860SOL     OW33549   0.538   3.349   2.238  0.5918  0.3818 -0.1634
10860SOL    HW133550   0.598   3.380   2.170  0.6568 -1.3949 -0.9649
10860SOL    HW233551   0.463   3.314   2.190  0.8782 -1.4068  0.6157
10861SOL     OW33552   5.007   1.890   5.385 -0.7963  0.3805  0.3965
10861SOL    HW133553   4.929   1.906   5.439 -0.7788 -1.3105  0.9874
10861SOL    HW233554   5.069   1.958   5.411 -0.3562 -1.0236  3.4146
10862SOL     OW33555   4.813   2.720   1.715 -0.2980  0.8809 -0.4346
10862SOL    HW133556   4.765   2.795   1.749  0.9273  1.3704  0.3081
10862SOL    HW233557   4.810   2.730   1.620 -3.3670 -0.2311 -0.5546
10863SOL     OW33558   3.712   3.061   1.924 -0.3041 -0.0967 -0.5128
10863SOL    HW133559   3.756   3.034   1.844  2.4102  2.1062  0.0445
10863SOL    HW233560   3.766   3.026   1.995 -0.2796  1.3429  0.2374
10864SOL     OW33561   1.680   0.468   5.624 -0.4534 -0.1798 -0.5662
10864SOL    HW133562   1.711   0.394   5.572 -0.2610 -1.0568  0.7632
10864SOL    HW233563   1.648   0.429   5.705  1.2101  1.2925  0.8939
10865SOL     OW33564   1.856   3.681   0.973  0.3618  0.3539 -0.7855
10865SOL    HW133565   1.872   3.749   1.039  1.6526 -0.3150 -0.3772
10865SOL    HW233566   1.943   3.651   0.947 -0.0622  1.0095 -3.2702
10866SOL     OW33567   4.823   1.472   6.244 -0.3762 -0.1138 -0.1744
10866SOL    HW133568   4.918   1.480   6.247 -0.4393  0.3902  1.5421
10866SOL    HW233569   4.806   1.378   6.241  0.1870 -0.2803  1.1446
10867SOL     OW33570   0.306   0.759   1.301  0.5424  0.0553  0.6850
10867SOL    HW133571   0.236   0.711   1.255  0.4783  0.0158  0.8235
10867SOL    HW233572   0.350   0.692   1.353  1.1464 -0.0600  0.0421
10868SOL     OW33573   3.488   3.808   6.114  0.1114  0.2603 -0.1623
10868SOL    HW133574   3.483   3.739   6.047  0.2774 -0.2271  0.3257
10868SOL    HW233575   3.498   3.889   6.064 -1.8281  0.1433 -0.8278
10869SOL     OW33576   7.045   7.040   7.264  0.4619 -0.3504  0.7804
10869SOL    HW133577   7.016   7.112   7.320 -2.2573 -1.2992  0.7339
10869SOL    HW233578   7.063   7.082   7.179 -0.3784  0.3959  0.9533
10870SOL     OW33579   3.937   3.333   4.205 -0.5530 -0.1908 -0.2146
10870SOL    HW133580   4.030   3.340   4.224 -0.5581 -1.5658  0.4203
10870SOL    HW233581   3.926   3.380   4.122  1.2185 -2.3901 -1.8011
10871SOL     OW33582   4.784   2.904   3.526  0.1440 -0.3472 -0.5762
10871SOL    HW133583   4.841   2.962   3.577  1.9220 -1.6887 -0.9432
10871SOL    HW233584   4.775   2.948   3.442 -1.1624  0.9047  0.1703
10872SOL     OW33585   5.389   5.701   3.495 -0.6685  0.6139 -0.1293
10872SOL    HW133586   5.416   5.609   3.492 -0.4085  0.7034 -0.8123
10872SOL    HW233587   5.402   5.732   3.405  0.4492  1.6641  0.3653
10873SOL     OW33588   3.042   5.608   4.153 -0.4623  0.0911 -0.3176
10873SOL    HW133589   3.130   5.644   4.169 -0.9335  0.6700  1.1490
10873SOL    HW233590   2.986   5.653   4.217 -1.4742 -1.6853  0.0970
10874SOL     OW33591   4.310   0.429   4.443  0.3065 -0.3053 -0.2287
10874SOL    HW133592   4.301   0.520   4.470 -0.9142 -0.9321  1.6296
10874SOL    HW233593   4.396   0.402   4.475  1.4467  0.6280 -2.3116
10875SOL     OW33594   4.967   0.843   3.298  0.0705 -0.3085 -0.0598
10875SOL    HW133595   5.052   0.805   3.277  0.2778 -0.0207  0.2604
10875SOL    HW233596   4.940   0.798   3.379  0.4552  0.4416  0.4892
10876SOL     OW33597   4.725   2.965   1.828 -0.3835  0.0713  0.1765
10876SOL    HW133598   4.702   3.017   1.905 -1.9088 -0.0980 -0.1402
10876SOL    HW233599   4.754   3.029   1.763  0.1375  0.2825  0.6060
10877SOL     OW33600   0.338   1.888   3.657 -0.0674 -0.0921  0.3202
10877SOL    HW133601   0.246   1.911   3.668 -0.1311  0.7480 -1.5123
10877SOL    HW233602   0.385   1.950   3.713 -0.5762  0.2630  0.3603
10878SOL     OW33603   0.853   5.331   0.420  0.6736  1.2933  0.5681
10878SOL    HW133604   0.798   5.291   0.353  2.1685  1.4157 -0.7762
10878SOL    HW233605   0.812   5.416   0.438 -1.0724  0.2911  1.5921
10879SOL     OW33606   0.613   5.969   5.198 -0.0607 -0.2814 -0.1238
10879SOL    HW133607   0.633   5.877   5.215 -0.7265 -0.3619  0.2467
10879SOL    HW233608   0.671   5.993   5.126 -0.8000 -1.3578 -1.1195
10880SOL     OW33609   6.327   2.165   6.269 -0.4487  0.5007 -0.4192
10880SOL    HW133610   6.388   2.232   6.241 -0.8623  1.4880  0.9407
10880SOL    HW233611   6.382   2.092   6.298  0.0804  1.0860  0.0731
10881SOL     OW33612   6.571   2.754   0.345  0.5538  0.3277 -0.6593
10881SOL    HW133613   6.571   2.658   0.346 -0.2131  0.2324 -3.0496
10881SOL    HW233614   6.631   2.777   0.274  0.1523  1.5959 -0.6119
10882SOL     OW33615   1.589   0.702   6.948  0.3251  0.1911  0.5073
10882SOL    HW133616   1.612   0.736   6.862 -0.0027 -1.9588 -0.5017
10882SOL    HW233617   1.503   0.739   6.967  0.0557  0.0867 -0.4630
10883SOL     OW33618   2.252   6.164   6.205 -0.1386 -0.3865  0.1737
10883SOL    HW133619   2.343   6.179   6.180 -0.5752 -1.6678 -2.4597
10883SOL    HW233620   2.250   6.182   6.299  2.8442 -0.4948  0.3426
10884SOL     OW33621   7.224   7.284   5.241  0.4556  0.2051  0.5251
10884SOL    HW133622   7.138   7.313   5.209  0.6258  0.5951  0.4163
10884SOL    HW233623   7.234   7.196   5.204  0.2188  0.2627  0.3179
10885SOL     OW33624   6.943   3.634   5.083  0.2082  0.1898  0.1725
10885SOL    HW133625   6.866   3.644   5.140  0.8337  0.3215  1.0031
10885SOL    HW233626   6.936   3.545   5.048  0.2363 -0.1829  1.0869
10886SOL     OW33627   3.024   4.825   4.959  0.7269  0.4519  0.1019
10886SOL    HW133628   3.006   4.912   4.922 -0.0183  0.5559  0.6846
10886SOL    HW233629   2.965   4.766   4.912  0.1830  0.4969  0.7056
10887SOL     OW33630   2.507   2.333   3.839  0.6213  0.0364  0.1952
10887SOL    HW133631   2.575   2.400   3.833 -0.7905  1.4329 -1.1113
10887SOL    HW233632   2.510   2.289   3.754 -0.5218  0.5821 -0.1506
10888SOL     OW33633   0.455   3.222   5.494  0.0670  0.0904  0.0054
10888SOL    HW133634   0.394   3.190   5.427 -0.2176 -0.0851  0.3442
10888SOL    HW233635   0.403   3.285   5.544  0.2212  0.0741  0.1847
10889SOL     OW33636   4.026   2.924   1.999  0.5302  0.0350 -0.1079
10889SOL    HW133637   4.030   3.012   1.963  0.9892 -0.3110 -0.9400
10889SOL    HW233638   3.961   2.879   1.944 -0.4827  0.1367  0.9699
10890SOL     OW33639   0.812   1.829   4.643  0.0605 -0.2364  0.3016
10890SOL    HW133640   0.761   1.778   4.580  0.4279 -0.9264  0.5455
10890SOL    HW233641   0.749   1.889   4.682 -0.0981  0.4664 -0.9853
10891SOL     OW33642   1.354   3.893   3.471 -0.0680  0.3987 -0.2453
10891SOL    HW133643   1.260   3.895   3.492 -0.3578 -2.2755 -0.9838
10891SOL    HW233644   1.396   3.922   3.552 -1.4880  0.1221  0.6445
10892SOL     OW33645   5.660   5.396   4.594  0.6028 -0.8497 -0.1765
10892SOL    HW133646   5.696   5.484   4.602 -0.6449 -0.4584  1.6891
10892SOL    HW233647   5.729   5.346   4.549  2.2653  0.5223  0.7280
10893SOL     OW33648   3.141   5.402   2.260 -0.3844  0.1581 -0.2466
10893SOL    HW133649   3.167   5.341   2.191 -0.9311 -2.6962  1.8681
10893SOL    HW233650   3.086   5.466   2.216 -0.6537 -1.4670 -2.4643
10894SOL     OW33651   5.908   2.272   6.694  0.2470 -0.1629 -0.6601
10894SOL    HW133652   5.948   2.357   6.710  2.6676 -1.2823 -0.3781
10894SOL    HW233653   5.963   2.230   6.627 -0.0780 -2.0279  0.1595
10895SOL     OW33654   1.014   2.905   6.369 -0.0507 -0.5233 -0.5399
10895SOL    HW133655   0.974   2.825   6.404 -0.5249 -0.4468 -0.8972
10895SOL    HW233656   1.075   2.934   6.438 -0.7759 -0.5116  0.1091
10896SOL     OW33657   2.753   5.871   1.031  0.1912 -0.7884 -0.4417
10896SOL    HW133658   2.668   5.827   1.030 -0.6671  0.7816  0.2780
10896SOL    HW233659   2.755   5.918   1.114  1.8621 -0.9448 -0.3608
10897SOL     OW33660   2.353   3.662   4.503 -0.0114 -0.0405  0.7428
10897SOL    HW133661   2.340   3.602   4.576 -1.9931  1.9514  2.1321
10897SOL    HW233662   2.325   3.747   4.536  1.6743  1.5053 -1.4842
10898SOL     OW33663   3.351   4.153   3.474 -0.1616 -0.1600  0.1514
10898SOL    HW133664   3.351   4.247   3.495 -0.4476 -0.0902 -0.1329
10898SOL    HW233665   3.377   4.150   3.382 -0.9284 -0.2917 -0.0724
10899SOL     OW33666   4.838   6.472   6.792  0.1394 -0.1841  0.2282
10899SOL    HW133667   4.841   6.463   6.887 -0.2577 -1.8381  0.1141
10899SOL    HW233668   4.883   6.395   6.759  1.1851  0.8883 -0.9394
10900SOL     OW33669   0.754   2.771   7.239 -0.0635 -0.2500 -0.3541
10900SOL    HW133670   0.819   2.703   7.258 -0.3453 -0.5191 -0.3389
10900SOL    HW233671   0.671   2.723   7.233 -0.5748  0.3161  1.5559
10901SOL     OW33672   5.070   4.063   4.209  0.0535  0.5030 -0.1792
10901SOL    HW133673   5.037   4.152   4.200 -0.6316  0.1584 -1.4056
10901SOL    HW233674   5.033   4.031   4.291 -3.3106 -0.0583 -1.7401
10902SOL     OW33675   3.760   3.508   6.940 -0.2952  0.4421 -0.2304
10902SOL    HW133676   3.753   3.429   6.994 -3.0420  0.9362  0.3129
10902SOL    HW233677   3.669   3.530   6.919  0.4086  3.1479 -0.8157
10903SOL     OW33678   4.639   5.363   6.932  0.3936  0.3107 -0.4559
10903SOL    HW133679   4.636   5.323   6.845  0.2958 -1.9055  0.5214
10903SOL    HW233680   4.641   5.290   6.993 -0.8508  1.7987  1.5022
10904SOL     OW33681   6.635   4.414   7.180  0.3140 -0.2042 -0.1755
10904SOL    HW133682   6.613   4.331   7.222 -1.6872  1.0464  1.4665
10904SOL    HW233683   6.721   4.437   7.217 -0.2507 -0.3712  1.3232
10905SOL     OW33684   4.880   5.977   5.461 -0.7305  0.3432 -0.0417
10905SOL    HW133685   4.793   5.989   5.423 -0.3353  2.1219 -0.4753
10905SOL    HW233686   4.939   6.017   5.398  0.6612 -2.4752 -0.6756
10906SOL     OW33687   0.243   1.283   2.889 -0.4989  0.5795  0.0871
10906SOL    HW133688   0.276   1.333   2.815  0.1325  1.0982  0.7059
10906SOL    HW233689   0.183   1.219   2.850 -1.9094  2.2719 -0.6606
10907SOL     OW33690   1.118   3.255   6.637 -0.0031  0.2136  0.0208
10907SOL    HW133691   1.171   3.178   6.618 -0.0089  0.2657 -0.2046
10907SOL    HW233692   1.133   3.272   6.730  0.2928  0.1689 -0.0202
10908SOL     OW33693   6.621   2.352   5.507 -0.3892  0.1205 -0.3808
10908SOL    HW133694   6.608   2.286   5.576 -1.2512 -0.5624 -1.1752
10908SOL    HW233695   6.619   2.436   5.553 -2.3508 -0.2410  0.2657
10909SOL     OW33696   3.913   0.544   6.220 -0.0786 -0.2027  0.4664
10909SOL    HW133697   3.897   0.596   6.141  0.4163 -1.1979 -0.3071
10909SOL    HW233698   3.949   0.606   6.283  1.4577  0.2006 -0.7692
10910SOL     OW33699   7.062   3.237   5.975 -0.1883 -0.6636 -0.2816
10910SOL    HW133700   7.155   3.250   5.956  0.0141  0.7033  1.3622
10910SOL    HW233701   7.016   3.282   5.904  0.4665  0.6434  0.0869
10911SOL     OW33702   4.995   4.967   1.801 -0.3275 -0.1539  0.3438
10911SOL    HW133703   4.955   4.999   1.882 -0.1570 -0.2665  0.4740
10911SOL    HW233704   5.068   5.027   1.786 -1.2783  0.8272 -0.5728
10912SOL     OW33705   0.523   6.740   2.866 -0.2009  0.5108 -0.2918
10912SOL    HW133706   0.491   6.686   2.938  1.7632  0.2372  0.4465
10912SOL    HW233707   0.563   6.677   2.805  1.4720  1.0139  0.2291
10913SOL     OW33708   0.746   3.820   1.522 -0.1222  0.1053 -0.3404
10913SOL    HW133709   0.836   3.849   1.506 -1.2460  4.3045 -0.1573
10913SOL    HW233710   0.728   3.759   1.451  2.7360 -0.7372 -0.4955
10914SOL     OW33711   7.157   5.264   3.127  0.3968  0.1127 -0.6869
10914SOL    HW133712   7.122   5.333   3.071  0.1701 -1.5587 -2.7423
10914SOL    HW233713   7.170   5.190   3.068 -0.4503 -1.9937  1.5878
10915SOL     OW33714   2.085   0.599   2.448 -0.1703 -0.0249  0.0006
10915SOL    HW133715   2.030   0.526   2.420 -0.7116  0.3518  0.0773
10915SOL    HW233716   2.025   0.672   2.460  0.5636  0.9301 -1.7461
10916SOL     OW33717   2.664   5.026   5.615  0.2701 -0.0066 -0.1396
10916SOL    HW133718   2.624   4.963   5.676 -0.3052 -1.3904 -1.8735
10916SOL    HW233719   2.590   5.077   5.582  0.2068 -0.9050 -1.4735
10917SOL     OW33720   6.767   4.844   5.435 -0.1123  0.0194  0.0649
10917SOL    HW133721   6.840   4.875   5.488  1.6637 -1.0102 -1.6229
10917SOL    HW233722   6.728   4.774   5.488  1.3257 -0.6895  0.2540
10918SOL     OW33723   4.844   6.884   1.866 -0.3015  0.2068  0.6473
10918SOL    HW133724   4.808   6.842   1.788  0.8772  0.1005  0.1474
10918SOL    HW233725   4.767   6.903   1.920 -1.3439  1.7059 -1.2142
10919SOL     OW33726   2.665   0.345   1.561  0.4467  0.6026 -0.3883
10919SOL    HW133727   2.744   0.348   1.615 -0.0677 -0.7595  0.4939
10919SOL    HW233728   2.616   0.271   1.594 -0.6293  0.6556 -1.7529
10920SOL     OW33729   1.661   5.434   1.323 -0.4303  0.3273 -0.0627
10920SOL    HW133730   1.655   5.385   1.241 -2.1735  1.8748 -0.9428
10920SOL    HW233731   1.731   5.498   1.307  0.8470 -0.8724  0.5577
10921SOL     OW33732   4.751   4.976   4.415 -0.4804  0.4961 -0.2078
10921SOL    HW133733   4.796   5.060   4.422 -0.1002  0.1747  1.7852
10921SOL    HW233734   4.663   4.993   4.450  0.1371 -0.2672  1.8518
10922SOL     OW33735   6.694   5.767   7.118  0.4082  0.3972 -0.3830
10922SOL    HW133736   6.756   5.840   7.108  0.9085 -0.2346 -2.1623
10922SOL    HW233737   6.612   5.809   7.144  0.8535  1.5342 -0.7480
10923SOL     OW33738   0.990   0.662   6.548 -0.5957 -0.3845 -0.1035
10923SOL    HW133739   0.969   0.755   6.542  0.7200 -0.1321 -4.2976
10923SOL    HW233740   0.913   0.617   6.512 -0.6312 -0.8081  0.4847
10924SOL     OW33741   2.746   5.458   3.366 -0.2400  0.5166 -0.1721
10924SOL    HW133742   2.768   5.441   3.274 -0.9557  2.3430 -0.7321
10924SOL    HW233743   2.791   5.389   3.415  0.8294 -0.0184 -1.8231
10925SOL     OW33744   0.039   2.774   0.078  0.2092  0.2654  0.2923
10925SOL    HW133745   0.031   2.679   0.084 -0.8409  0.1097 -2.1445
10925SOL    HW233746  -0.051   2.805   0.068  0.6383  1.3493 -0.4024
10926SOL     OW33747   3.229   3.607   4.512 -0.1318 -0.6878 -0.1279
10926SOL    HW133748   3.287   3.596   4.588  0.1654  1.1419 -0.0336
10926SOL    HW233749   3.158   3.662   4.544  1.3563  2.4178 -1.7096
10927SOL     OW33750   1.832   6.248   6.601  0.2141  0.1120 -0.0808
10927SOL    HW133751   1.748   6.290   6.580  0.8507  1.3040 -0.3681
10927SOL    HW233752   1.867   6.300   6.673 -0.1058 -1.4905  1.2735
10928SOL     OW33753   0.906   4.750   0.576 -1.1276  0.2044  0.1881
10928SOL    HW133754   0.810   4.750   0.581 -1.1482 -0.1767 -0.1639
10928SOL    HW233755   0.933   4.811   0.644 -1.6203  0.2568  0.3434
10929SOL     OW33756   5.378   6.504   1.537 -0.5265  0.3115  0.2545
10929SOL    HW133757   5.357   6.447   1.464  1.4864  0.2029 -0.2910
10929SOL    HW233758   5.392   6.445   1.611 -0.7539  0.2930  0.2850
10930SOL     OW33759   2.052   5.914   5.381  0.0167 -0.0043  0.1273
10930SOL    HW133760   2.000   5.993   5.366 -0.8972 -0.6035  0.0491
10930SOL    HW233761   2.073   5.882   5.293 -0.3682 -0.3136  0.1396
10931SOL     OW33762   0.706   4.468   6.479 -0.5721  0.1916  0.1935
10931SOL    HW133763   0.641   4.398   6.487  1.7337 -2.2500 -0.8481
10931SOL    HW233764   0.766   4.453   6.553 -0.2531  1.3229  0.1793
10932SOL     OW33765   6.717   1.270   1.268  0.4958  0.0846 -0.5587
10932SOL    HW133766   6.800   1.318   1.272  0.7271 -0.2086 -1.5036
10932SOL    HW233767   6.742   1.182   1.241  0.0658 -0.5848  1.1211
10933SOL     OW33768   4.773   0.738   4.034 -0.8448  0.3044 -0.0410
10933SOL    HW133769   4.679   0.760   4.028 -1.0618 -0.5713  0.0512
10933SOL    HW233770   4.800   0.777   4.117 -0.8255  1.5943 -0.6172
10934SOL     OW33771   1.864   5.531   2.996  0.0532 -0.6673  0.2535
10934SOL    HW133772   1.923   5.486   3.057 -0.1005  0.4440  1.2488
10934SOL    HW233773   1.795   5.566   3.051  0.0054  0.5241 -0.5320
10935SOL     OW33774   1.617   3.853   0.431 -0.3505 -0.2158 -0.1997
10935SOL    HW133775   1.669   3.782   0.469 -2.2898 -1.3561  0.4568
10935SOL    HW233776   1.606   3.916   0.502 -0.4940 -0.3562 -0.0946
10936SOL     OW33777   1.848   1.993   6.391  0.3169  0.4360 -0.5340
10936SOL    HW133778   1.918   1.929   6.403 -0.9421 -1.1870 -1.3972
10936SOL    HW233779   1.893   2.073   6.366  1.9255 -0.2438  0.0448
10937SOL     OW33780   3.007   6.716   3.216  0.2248  0.7687 -0.2279
10937SOL    HW133781   2.941   6.706   3.285 -0.9406  1.4098 -1.2090
10937SOL    HW233782   3.012   6.630   3.174 -1.2004  1.1158 -1.1763
10938SOL     OW33783   6.890   5.001   1.725 -0.6206 -0.1690  0.0304
10938SOL    HW133784   6.824   4.932   1.722 -0.6116 -0.2885  1.7183
10938SOL    HW233785   6.950   4.980   1.653 -1.4884 -1.0035 -0.4764
10939SOL     OW33786   6.710   4.399   3.451  0.2852 -0.3100  0.3766
10939SOL    HW133787   6.745   4.356   3.529 -2.0641 -2.7391  0.2323
10939SOL    HW233788   6.653   4.468   3.485 -2.5598 -2.8115  1.0551
10940SOL     OW33789   3.638   3.269   2.299  1.1117  0.3179 -0.1858
10940SOL    HW133790   3.731   3.275   2.322  0.9572 -0.6965  0.7384
10940SOL    HW233791   3.625   3.178   2.274  1.1742  1.1722 -4.0970
10941SOL     OW33792   7.064   6.667   6.949  0.3224  0.3297 -0.1022
10941SOL    HW133793   7.080   6.737   6.886  1.2804  1.0542  0.9084
10941SOL    HW233794   7.083   6.586   6.901  2.7159  0.9416 -0.3079
10942SOL     OW33795   2.494   5.381   1.681  0.0010  0.1361  0.0826
10942SOL    HW133796   2.548   5.450   1.643  0.4082  0.4500  1.1840
10942SOL    HW233797   2.454   5.337   1.606  1.2322  0.3557 -0.7250
10943SOL     OW33798   6.485   3.810   4.508 -0.0385 -0.2824 -0.0043
10943SOL    HW133799   6.547   3.846   4.571 -0.6386 -2.4698  1.9987
10943SOL    HW233800   6.431   3.885   4.483  2.2890  1.3287 -0.5467
10944SOL     OW33801   3.577   0.717   7.257  0.2140  0.2403  0.2144
10944SOL    HW133802   3.653   0.732   7.313  0.5380  2.1769 -0.6475
10944SOL    HW233803   3.518   0.791   7.275  0.0532  0.5886 -1.4983
10945SOL     OW33804   4.325   5.040   2.710  0.3287 -0.5586  0.0592
10945SOL    HW133805   4.279   4.975   2.656 -2.0841 -0.0488  1.3469
10945SOL    HW233806   4.404   5.061   2.660 -0.2602 -2.3368 -1.7702
10946SOL     OW33807   0.026   5.018   6.184 -0.7038  0.3044 -0.1656
10946SOL    HW133808   0.007   5.004   6.277 -1.8897 -2.9061 -0.7452
10946SOL    HW233809   0.091   4.951   6.163  1.3528  2.5093 -1.2159
10947SOL     OW33810   6.245   1.713   6.153 -0.0906  0.2648  0.0982
10947SOL    HW133811   6.179   1.782   6.154  0.0254  0.3777  1.2157
10947SOL    HW233812   6.305   1.738   6.084 -0.2667  1.0873  0.2330
10948SOL     OW33813   3.855   3.486   0.583  0.1917 -0.2203  0.1352
10948SOL    HW133814   3.882   3.471   0.674  0.5724  0.7309  0.1934
10948SOL    HW233815   3.861   3.400   0.542 -1.6485 -1.0272  1.4068
10949SOL     OW33816   5.371   4.259   2.223 -0.3730 -0.1216  0.3885
10949SOL    HW133817   5.448   4.235   2.173 -0.7409 -1.1061  0.2623
10949SOL    HW233818   5.364   4.191   2.291 -0.5070  0.5664  1.0744
10950SOL     OW33819   2.286   5.073   1.880  0.3280  0.0689 -0.6233
10950SOL    HW133820   2.264   5.163   1.904  1.4405  0.8176 -2.2764
10950SOL    HW233821   2.217   5.046   1.820  0.6176  0.2443 -1.0389
10951SOL     OW33822   4.994   6.105   4.942 -0.0739  0.1443 -0.2238
10951SOL    HW133823   5.063   6.050   4.906 -1.1934 -0.5530 -1.3782
10951SOL    HW233824   4.966   6.160   4.869 -0.2841  0.9048  0.4113
10952SOL     OW33825   1.444   1.054   4.924  0.6332  0.3984 -0.7899
10952SOL    HW133826   1.357   1.016   4.908  0.3710  0.7713 -0.3038
10952SOL    HW233827   1.429   1.149   4.922  0.3394  0.5386  2.5330
10953SOL     OW33828   6.092   3.011   0.460 -0.6678 -0.4125 -0.0028
10953SOL    HW133829   6.168   3.068   0.446 -1.7699  0.7620 -1.7151
10953SOL    HW233830   6.044   3.052   0.531 -0.6839 -0.0462 -0.2216
10954SOL     OW33831   1.908   3.814   1.233  0.0262  0.5198 -0.3757
10954SOL    HW133832   1.970   3.823   1.305 -0.5432  0.6340  0.1077
10954SOL    HW233833   1.829   3.777   1.273  0.6565 -2.2312 -1.4601
10955SOL     OW33834   5.422   1.888   3.621  0.3113  0.2520  0.8435
10955SOL    HW133835   5.327   1.878   3.617  0.3540 -1.3754  2.6855
10955SOL    HW233836   5.444   1.941   3.544 -2.2802  2.4458  1.4626
10956SOL     OW33837   0.346   0.286   5.430  0.2459  0.4739  1.1826
10956SOL    HW133838   0.354   0.228   5.506 -1.0299 -0.0253  0.9623
10956SOL    HW233839   0.394   0.241   5.361  1.5189  0.9893  1.6940
10957SOL     OW33840   6.398   2.097   3.031  0.4331 -0.7512  0.2591
10957SOL    HW133841   6.438   2.021   2.990 -1.3155 -1.2796 -0.5768
10957SOL    HW233842   6.313   2.066   3.062  0.0203  0.6578  0.6345
10958SOL     OW33843   3.792   2.364   5.035  0.1005  0.1255  0.7718
10958SOL    HW133844   3.727   2.338   5.101 -0.0428  0.2489  0.6796
10958SOL    HW233845   3.747   2.354   4.952 -0.4899  2.1473  0.7991
10959SOL     OW33846   3.242   6.808   0.217  0.0822  0.1508  0.7060
10959SOL    HW133847   3.335   6.815   0.238  0.8175 -1.8733 -1.3533
10959SOL    HW233848   3.216   6.896   0.190  0.7785  1.2286  3.2409
10960SOL     OW33849   6.791   2.566   0.019 -0.0528 -0.5384  0.4273
10960SOL    HW133850   6.820   2.483  -0.018  0.0513  0.1735 -1.1650
10960SOL    HW233851   6.698   2.571  -0.004 -0.6503 -1.1703  2.4244
10961SOL     OW33852   1.797   5.851   4.530  0.1836  0.1663  0.5710
10961SOL    HW133853   1.728   5.794   4.564 -0.5369  0.1135 -0.8969
10961SOL    HW233854   1.752   5.908   4.467  1.5769 -0.2589 -0.8504
10962SOL     OW33855   1.403   0.506   3.411  0.4172  0.1410 -0.1365
10962SOL    HW133856   1.441   0.588   3.378  0.9396 -0.5066 -1.1959
10962SOL    HW233857   1.413   0.445   3.339 -1.3207 -0.4718  0.1084
10963SOL     OW33858   5.707   2.000   6.151 -0.0058 -0.5623  0.3792
10963SOL    HW133859   5.637   1.995   6.217 -0.3293 -0.6023  0.0367
10963SOL    HW233860   5.693   1.924   6.095 -1.6771  1.0581 -1.6156
10964SOL     OW33861   3.378   1.589   7.058  0.0554  0.5104 -0.1055
10964SOL    HW133862   3.427   1.634   6.989 -0.9049  1.2066 -0.3547
10964SOL    HW233863   3.431   1.512   7.079 -0.8660 -1.2408 -3.5091
10965SOL     OW33864   4.633   6.300   3.011 -0.0132  0.4314  0.0606
10965SOL    HW133865   4.603   6.387   2.986  0.4211  0.8759  1.0423
10965SOL    HW233866   4.553   6.250   3.024 -0.2780  0.1043 -2.3282
10966SOL     OW33867   1.095   2.778   2.943  0.1616  0.5825 -0.8899
10966SOL    HW133868   1.061   2.807   2.858  0.1376  0.1408 -1.0348
10966SOL    HW233869   1.159   2.845   2.967  1.0287  0.1179 -1.8094
10967SOL     OW33870   4.082   7.214   0.308 -0.0105 -0.2171 -0.5105
10967SOL    HW133871   4.174   7.232   0.287  0.3608 -0.4695  0.8068
10967SOL    HW233872   4.070   7.122   0.284 -0.0572 -0.0570 -1.1158
10968SOL     OW33873   0.132   3.026   6.012 -0.2077  0.3331  0.6294
10968SOL    HW133874   0.063   2.960   6.021 -0.9940  1.1693  0.9353
10968SOL    HW233875   0.155   3.023   5.919 -2.0522  1.3422  0.0704
10969SOL     OW33876   2.415   0.655   3.260 -0.0847 -0.3199  0.1881
10969SOL    HW133877   2.487   0.719   3.255  0.7564 -1.0935  1.6364
10969SOL    HW233878   2.408   0.620   3.171  0.9227  0.2050 -0.1174
10970SOL     OW33879   4.775   6.712   1.517 -0.4042  0.1257  0.1055
10970SOL    HW133880   4.719   6.746   1.587  0.3217 -0.6561  1.1001
10970SOL    HW233881   4.714   6.679   1.451 -1.1065  0.6106  0.5049
10971SOL     OW33882   3.075   2.555   0.768 -0.1198  0.1442 -0.2366
10971SOL    HW133883   3.009   2.560   0.838  0.1046 -1.3767  0.1296
10971SOL    HW233884   3.037   2.605   0.696 -2.0296 -1.2560 -0.2755
10972SOL     OW33885   5.783   0.391   3.042 -0.3960  0.3990 -0.1173
10972SOL    HW133886   5.748   0.477   3.064 -2.4030 -0.4779  0.3545
10972SOL    HW233887   5.838   0.406   2.966 -0.9549  2.0628 -0.2289
10973SOL     OW33888   0.099   0.345   5.573  0.3121 -0.2030  0.7111
10973SOL    HW133889   0.068   0.433   5.551 -1.6264 -0.4250  2.3027
10973SOL    HW233890   0.165   0.326   5.506 -1.3919  1.2280 -1.5309
10974SOL     OW33891   3.767   4.475   5.308  0.4154  0.2156  0.4560
10974SOL    HW133892   3.766   4.559   5.354 -0.0644 -0.7949  2.4257
10974SOL    HW233893   3.812   4.493   5.226  1.0602  2.2150  1.1849
10975SOL     OW33894   3.318   3.831   3.255 -0.3752 -0.2952  0.5094
10975SOL    HW133895   3.296   3.813   3.163 -2.4804  2.1380  0.4131
10975SOL    HW233896   3.294   3.750   3.301  0.0535 -1.3159 -0.9709
10976SOL     OW33897   6.114   4.175   4.019 -0.2224 -0.3662  0.1105
10976SOL    HW133898   6.112   4.219   3.933 -0.3002  0.3085  0.4520
10976SOL    HW233899   6.041   4.113   4.015 -2.3072  1.8642  0.7991
10977SOL     OW33900   6.556   6.040   2.098 -0.0801 -0.2343  0.2428
10977SOL    HW133901   6.572   6.108   2.164  1.0258  0.4760 -0.7070
10977SOL    HW233902   6.565   5.958   2.145  0.0601  0.2643  1.1094
10978SOL     OW33903   7.217   6.633   2.453  0.1457  0.1275  0.4361
10978SOL    HW133904   7.256   6.634   2.540  1.6507  0.5811 -0.2023
10978SOL    HW233905   7.256   6.708   2.409 -1.4147  0.5508 -0.2988
10979SOL     OW33906   5.868   4.377   2.897  0.3536 -0.0768 -0.0280
10979SOL    HW133907   5.832   4.448   2.843  0.3927  0.2106  0.3166
10979SOL    HW233908   5.825   4.298   2.864  0.6020  0.0545 -0.6769
10980SOL     OW33909   0.980   3.356   3.500 -0.2456 -0.2595  0.5457
10980SOL    HW133910   1.028   3.276   3.518  2.3370  0.8171 -1.0433
10980SOL    HW233911   0.979   3.363   3.404  1.7512  2.7384  0.6097
10981SOL     OW33912   0.402   2.729   6.285 -0.6009  0.0828  0.3158
10981SOL    HW133913   0.387   2.822   6.300  0.2603  0.3742 -0.5371
10981SOL    HW233914   0.317   2.695   6.256 -0.4597  1.0317 -1.3301
10982SOL     OW33915   3.159   0.636   0.487  0.0920  0.3085 -0.1174
10982SOL    HW133916   3.129   0.700   0.552 -1.4345  0.2539 -0.7121
10982SOL    HW233917   3.185   0.559   0.538  0.7840  0.9489  0.5283
10983SOL     OW33918   0.347   5.568   2.551  0.1244  0.6785  0.1554
10983SOL    HW133919   0.296   5.647   2.537 -0.0007  0.8797  1.6324
10983SOL    HW233920   0.357   5.562   2.646  2.8186  0.6514 -0.0426
10984SOL     OW33921   0.634   6.117   5.501  0.1042 -0.4861  0.3613
10984SOL    HW133922   0.669   6.029   5.510 -3.0485 -1.9465 -0.1055
10984SOL    HW233923   0.685   6.157   5.430  1.9403 -1.6891  0.9358
10985SOL     OW33924   2.811   7.175   2.071 -0.0538 -0.1209 -0.3638
10985SOL    HW133925   2.741   7.152   2.132  1.7227  0.3873  1.9895
10985SOL    HW233926   2.821   7.097   2.016 -0.5759 -1.2875  1.1415
10986SOL     OW33927   3.182   4.155   3.695 -0.1949 -0.0278 -0.7482
10986SOL    HW133928   3.205   4.146   3.603 -1.2346  0.0535 -1.0223
10986SOL    HW233929   3.233   4.230   3.725  0.6206 -0.4289 -1.0846
10987SOL     OW33930   5.524   3.974   4.666 -0.0971  0.3467 -0.7460
10987SOL    HW133931   5.499   4.056   4.710 -1.9446 -0.0954 -0.9143
10987SOL    HW233932   5.446   3.947   4.618 -0.1820 -2.4999  0.7708
10988SOL     OW33933   4.053   5.475   3.815 -0.2247  0.2498  0.1292
10988SOL    HW133934   4.142   5.470   3.849 -0.4638 -0.3936  0.6838
10988SOL    HW233935   4.005   5.406   3.862 -1.2606  1.2459  0.5876
10989SOL     OW33936   3.297   0.824   1.968  0.0858 -0.6320  0.4616
10989SOL    HW133937   3.282   0.784   2.053  0.7875 -0.3737  0.7103
10989SOL    HW233938   3.255   0.764   1.905 -1.1226 -0.4277  1.0395
10990SOL     OW33939   3.520   4.332   0.678  0.2663 -0.5466 -0.2765
10990SOL    HW133940   3.594   4.392   0.681 -0.4929  0.4216 -0.3658
10990SOL    HW233941   3.460   4.363   0.746 -0.0599 -1.3022 -0.2104
10991SOL     OW33942   4.344   2.158   1.613 -0.7450  0.0183 -0.3804
10991SOL    HW133943   4.301   2.232   1.570  0.1634  0.9449  0.2471
10991SOL    HW233944   4.323   2.082   1.558 -1.5350  0.7743 -1.1430
10992SOL     OW33945   3.568   2.397   4.349 -0.3812  0.0963 -0.2915
10992SOL    HW133946   3.657   2.395   4.312 -0.8041 -1.0329 -1.3334
10992SOL    HW233947   3.540   2.306   4.348 -1.3389  0.3677  0.5919
10993SOL     OW33948   3.682   1.114   0.661  0.2681  0.2864 -0.7025
10993SOL    HW133949   3.722   1.173   0.725 -1.6459  0.8008  0.0964
10993SOL    HW233950   3.671   1.032   0.709  0.9436 -0.0565 -1.1259
10994SOL     OW33951   0.797   4.168   2.048 -0.5089 -0.2335 -0.1905
10994SOL    HW133952   0.753   4.189   1.965  1.3827 -0.7277 -1.3721
10994SOL    HW233953   0.870   4.230   2.053 -1.1179  0.4099  1.6134
10995SOL     OW33954   1.411   6.454   6.072  0.5855  0.1889  0.9455
10995SOL    HW133955   1.324   6.414   6.068  0.3002  0.8094  0.8310
10995SOL    HW233956   1.399   6.542   6.036  1.5126 -0.1345 -0.2182
10996SOL     OW33957   0.148   7.105   7.121  0.1659 -0.0918 -0.3943
10996SOL    HW133958   0.068   7.083   7.074  0.6002 -0.1770 -1.1107
10996SOL    HW233959   0.203   7.027   7.111  0.1245 -0.2544  0.5737
10997SOL     OW33960   2.016   6.361   7.044  0.3188 -0.2164  0.0290
10997SOL    HW133961   2.069   6.438   7.063  0.1641 -0.0183 -0.3460
10997SOL    HW233962   2.032   6.303   7.119  0.3729  0.2094  0.3558
10998SOL     OW33963   1.490   5.825   4.221 -0.0183  0.2646 -0.4113
10998SOL    HW133964   1.462   5.834   4.130  1.2022 -0.5006 -0.8856
10998SOL    HW233965   1.582   5.799   4.216 -0.1564 -0.6427  1.0329
10999SOL     OW33966   0.160   1.255   1.426  0.3258  0.0103  0.2815
10999SOL    HW133967   0.145   1.225   1.515  0.2863 -1.6321 -0.2251
10999SOL    HW233968   0.255   1.253   1.415  0.3094 -0.2571  0.1595
11000SOL     OW33969   1.334   2.443   1.432  0.1363 -0.2770  0.3213
11000SOL    HW133970   1.365   2.531   1.411 -0.5097 -0.3877 -1.1827
11000SOL    HW233971   1.288   2.453   1.515  1.1568  0.5380  0.8195
11001SOL     OW33972   3.417   0.090   5.901  0.5267 -0.6055 -0.3175
11001SOL    HW133973   3.414   0.172   5.950 -1.0260 -0.1987 -1.0468
11001SOL    HW233974   3.436   0.024   5.968  0.5701  0.1907  0.4815
11002SOL     OW33975   3.222   1.681   6.203 -0.2548 -0.0369  0.2359
11002SOL    HW133976   3.147   1.625   6.223 -1.3479  0.5463 -1.8734
11002SOL    HW233977   3.290   1.653   6.263 -1.5483 -1.9323  0.9057
11003SOL     OW33978   5.189   2.997   0.076  0.5324  0.1890  0.2497
11003SOL    HW133979   5.271   3.045   0.088  0.8039  0.0987 -1.0857
11003SOL    HW233980   5.213   2.921   0.023 -0.1975 -0.5273  0.9104
11004SOL     OW33981   4.142   1.109   3.567  0.2033 -0.3123 -0.4263
11004SOL    HW133982   4.049   1.116   3.587  0.4434 -1.6494  1.5821
11004SOL    HW233983   4.173   1.199   3.560 -0.3320  0.4804  4.1508
11005SOL     OW33984   4.588   3.802   2.168 -0.0835  0.4928 -0.1269
11005SOL    HW133985   4.646   3.853   2.225 -1.6119  0.8148  1.2205
11005SOL    HW233986   4.521   3.864   2.140 -0.2346 -0.0552 -1.0217
11006SOL     OW33987   2.441   4.882   2.023 -0.2520  0.4448 -0.5368
11006SOL    HW133988   2.380   4.932   1.969 -1.0074 -1.3265 -1.4366
11006SOL    HW233989   2.396   4.798   2.037  1.7205 -0.6936 -0.7070
11007SOL     OW33990   4.918   6.176   0.424  0.5430  0.0595  0.3324
11007SOL    HW133991   5.000   6.134   0.450  1.6347  1.3186 -0.8807
11007SOL    HW233992   4.899   6.237   0.495  1.0155  0.2154  0.3297
11008SOL     OW33993   0.523   1.601   5.871  0.3146  0.6821 -0.0303
11008SOL    HW133994   0.502   1.683   5.916  0.9719  0.4245  0.7965
11008SOL    HW233995   0.564   1.628   5.789 -0.8620  1.1698 -0.4703
11009SOL     OW33996   1.844   7.002   5.743 -0.0341  0.4995 -0.2236
11009SOL    HW133997   1.806   7.072   5.796  0.7969  0.5119  0.3813
11009SOL    HW233998   1.936   7.028   5.732 -0.2994  0.7242 -2.0779
11010SOL     OW33999   5.222   6.353   2.551  0.0505  0.3130 -0.0955
11010SOL    HW134000   5.284   6.316   2.488  1.3988 -1.1785  1.9881
11010SOL    HW234001   5.145   6.297   2.544  1.1165 -1.4192  1.2139
11011SOL     OW34002   4.265   0.707   0.105 -0.7134  0.6280 -0.4124
11011SOL    HW134003   4.191   0.767   0.102  0.0615  1.5528 -1.3120
11011SOL    HW234004   4.241   0.635   0.046 -1.2724  0.4605  0.0105
11012SOL     OW34005   3.511   1.982   2.460 -0.2227 -0.0927 -0.9112
11012SOL    HW134006   3.505   1.887   2.467 -2.0879  0.0270 -0.3629
11012SOL    HW234007   3.429   2.008   2.418 -0.0407  1.3195 -0.4406
11013SOL     OW34008   6.583   1.048   1.838 -0.4509 -0.4711  0.8630
11013SOL    HW134009   6.565   1.126   1.786  2.4652 -2.0958 -3.1407
11013SOL    HW234010   6.525   0.981   1.801  0.0322 -1.1514  1.3225
11014SOL     OW34011   2.671   0.822   4.753  0.2937  0.0643  0.0510
11014SOL    HW134012   2.745   0.782   4.708  0.1525  0.0937 -0.2121
11014SOL    HW234013   2.602   0.827   4.686 -0.0408 -0.2288  0.3698
11015SOL     OW34014   5.071   2.671   6.077 -0.3177 -0.1466 -0.0734
11015SOL    HW134015   5.016   2.740   6.042  1.1071  1.6626  1.0916
11015SOL    HW234016   5.152   2.676   6.025  1.2341  1.5815  2.3404
11016SOL     OW34017   6.366   5.499   2.285 -0.2528  0.3116 -0.4178
11016SOL    HW134018   6.340   5.544   2.366 -0.8822 -0.4494 -0.1824
11016SOL    HW234019   6.298   5.522   2.222  1.2581  2.5391 -1.3845
11017SOL     OW34020   5.561   1.473   4.481 -0.9893 -0.5526 -0.1005
11017SOL    HW134021   5.559   1.563   4.447  2.8054 -0.5515 -0.7902
11017SOL    HW234022   5.586   1.420   4.405  1.3492 -1.4651  1.2164
11018SOL     OW34023   0.474   7.009   2.060 -0.2253  0.5509  0.3738
11018SOL    HW134024   0.379   6.999   2.060 -0.1238 -0.6166  1.3383
11018SOL    HW234025   0.508   6.923   2.084  1.2894 -0.4873 -4.3770
11019SOL     OW34026   5.750   0.131   5.653 -0.0018  0.0377  0.0484
11019SOL    HW134027   5.774   0.213   5.698  1.5438  0.8672 -2.1217
11019SOL    HW234028   5.806   0.065   5.693  2.0666  0.9440 -1.1763
11020SOL     OW34029   7.285   6.058   0.506 -0.2405 -0.2821 -0.5783
11020SOL    HW134030   7.326   6.108   0.435  0.8577  0.9806  0.9032
11020SOL    HW234031   7.301   5.966   0.482 -1.7712 -0.0232 -3.0357
11021SOL     OW34032   6.151   5.164   1.513 -0.7605  0.0533  0.1084
11021SOL    HW134033   6.211   5.179   1.587 -1.1118 -0.5804  0.5362
11021SOL    HW234034   6.109   5.249   1.499  0.0416  0.4421 -0.0315
11022SOL     OW34035   2.630   6.429   2.554 -0.5328 -0.2336 -0.5865
11022SOL    HW134036   2.705   6.384   2.591  0.2687  1.4652 -0.0232
11022SOL    HW234037   2.659   6.457   2.467 -0.3231  0.7885 -0.2068
11023SOL     OW34038   4.129   0.770   3.117  0.2825  0.1188  0.1995
11023SOL    HW134039   4.194   0.701   3.100  0.6409  0.2725  0.9326
11023SOL    HW234040   4.148   0.801   3.205  0.4781  1.5492 -0.3151
11024SOL     OW34041   5.831   1.800   2.640 -0.0823  0.1663 -0.5422
11024SOL    HW134042   5.838   1.865   2.570  0.3006  0.5961 -0.1078
11024SOL    HW234043   5.777   1.730   2.602 -0.4963  0.7331 -1.0134
11025SOL     OW34044   7.282   6.207   4.858  0.2481  0.1777 -0.0369
11025SOL    HW134045   7.257   6.268   4.927 -0.8496 -1.3716  1.0075
11025SOL    HW234046   7.204   6.200   4.803  0.1259 -0.7442  0.2308
11026SOL     OW34047   4.525   3.574   1.677 -0.2286 -0.2790  0.0928
11026SOL    HW134048   4.457   3.530   1.726 -1.7489  0.6492 -1.0863
11026SOL    HW234049   4.564   3.506   1.622  0.2596 -0.9432  1.2348
11027SOL     OW34050   0.568   6.062   5.764  0.0336 -0.2241 -0.2123
11027SOL    HW134051   0.580   6.065   5.669 -0.6664  1.8565 -0.2966
11027SOL    HW234052   0.474   6.049   5.776  0.1399 -0.6241  0.1898
11028SOL     OW34053   4.295   3.224   1.980  0.2767 -0.7015  0.2218
11028SOL    HW134054   4.360   3.228   2.051 -0.7502  0.9200  1.1315
11028SOL    HW234055   4.303   3.135   1.946  3.3338 -0.4397 -0.0829
11029SOL     OW34056   3.321   6.657   3.017  0.2001  0.4222  0.5074
11029SOL    HW134057   3.309   6.562   3.011  1.5755  0.2392  0.3034
11029SOL    HW234058   3.399   6.668   3.072 -0.1768  1.4590  0.8690
11030SOL     OW34059   4.137   6.949   2.211  0.3633  0.2801  0.7954
11030SOL    HW134060   4.145   7.000   2.130 -2.0452 -0.4111  0.0445
11030SOL    HW234061   4.150   7.014   2.281 -1.0449  1.6766 -0.1498
11031SOL     OW34062   3.484   4.882   5.387  0.3014 -0.2197  0.4265
11031SOL    HW134063   3.578   4.896   5.403  0.2713  1.3308 -0.5399
11031SOL    HW234064   3.441   4.958   5.427 -0.6141 -1.1551  1.2836
11032SOL     OW34065   3.675   6.547   2.044  0.2763 -0.2512  0.4078
11032SOL    HW134066   3.584   6.556   2.072 -0.6465 -1.3773 -2.0091
11032SOL    HW234067   3.690   6.622   1.987  1.1587  0.3601  1.4028
11033SOL     OW34068   2.437   1.581   2.294  0.2179  0.3649 -0.3029
11033SOL    HW134069   2.503   1.643   2.321  1.2131  0.2910 -2.3636
11033SOL    HW234070   2.387   1.562   2.374  0.5838  2.9027  0.6090
11034SOL     OW34071   5.422   5.762   3.200 -0.0827 -0.5009  0.0222
11034SOL    HW134072   5.455   5.752   3.111  0.4862  0.7875  0.0633
11034SOL    HW234073   5.359   5.834   3.194  0.8501  0.4105  0.8582
11035SOL     OW34074   3.957   6.151   3.059 -0.3901  0.4321 -0.3153
11035SOL    HW134075   4.012   6.151   3.138  0.1673  0.9120 -0.6922
11035SOL    HW234076   3.934   6.059   3.047 -1.2251  0.4483  0.8988
11036SOL     OW34077   6.613   1.105   3.686  0.1314 -0.0784  0.4676
11036SOL    HW134078   6.572   1.037   3.739 -0.3173  0.1880  0.4638
11036SOL    HW234079   6.594   1.187   3.733  2.4549 -0.1250  1.6409
11037SOL     OW34080   5.808   6.082   0.325  0.0149 -0.0809  0.3014
11037SOL    HW134081   5.808   6.114   0.415  0.9424 -0.3348  0.3986
11037SOL    HW234082   5.745   6.010   0.326  0.1364 -0.1865  0.7846
11038SOL     OW34083   4.029   7.075   0.568  0.3430  0.0483  0.0398
11038SOL    HW134084   4.081   7.000   0.541 -0.9941 -1.8932  2.3622
11038SOL    HW234085   4.038   7.138   0.497  3.2252 -1.4298 -1.0686
11039SOL     OW34086   4.028   1.610   7.211  0.1679 -0.0993  0.0689
11039SOL    HW134087   4.012   1.582   7.301 -0.5651  0.8693  0.2655
11039SOL    HW234088   4.123   1.615   7.203  0.2659  2.4093  1.6857
11040SOL     OW34089   4.467   1.209   4.761 -0.0338 -0.2201 -0.1403
11040SOL    HW134090   4.555   1.174   4.750  0.1113  0.0310  0.2147
11040SOL    HW234091   4.423   1.148   4.821 -0.7718 -1.4964 -1.9042
11041SOL     OW34092   0.865   5.284   6.553 -0.6644  0.5301 -0.7755
11041SOL    HW134093   0.809   5.222   6.600  0.1155  0.3139 -0.1057
11041SOL    HW234094   0.818   5.367   6.557  0.1632  0.9586  1.9692
11042SOL     OW34095   7.244   3.638   7.292  0.1603  0.0030 -0.1891
11042SOL    HW134096   7.181   3.625   7.221 -0.3879  1.0226  0.0827
11042SOL    HW234097   7.274   3.728   7.281  0.2302  0.1037  0.7308
11043SOL     OW34098   3.503   6.820   0.283  0.1108  0.1752  0.1469
11043SOL    HW134099   3.528   6.845   0.371 -0.1291 -2.0722  0.9113
11043SOL    HW234100   3.585   6.818   0.234  0.4486 -0.0286  0.7154
11044SOL     OW34101   1.237   1.925   2.043  0.4877 -0.3102  0.0038
11044SOL    HW134102   1.175   1.870   2.092 -2.1832  2.8110  0.4825
11044SOL    HW234103   1.222   1.901   1.952  1.8311 -2.5823  0.2829
11045SOL     OW34104   0.040   7.358   5.622  0.0926  0.2167  0.1663
11045SOL    HW134105   0.106   7.344   5.690 -1.2521  1.1058  1.7150
11045SOL    HW234106  -0.005   7.438   5.649 -0.3768  0.6919 -1.8886
11046SOL     OW34107   2.410   4.596   3.129 -0.2981 -0.5443  0.0015
11046SOL    HW134108   2.366   4.675   3.157  1.2880 -0.4134  2.3598
11046SOL    HW234109   2.340   4.535   3.107 -1.5382  1.1864 -1.0711
11047SOL     OW34110   7.268   4.074   4.546 -0.3009 -0.2662  0.0965
11047SOL    HW134111   7.359   4.091   4.569  0.7828 -1.9954 -2.4929
11047SOL    HW234112   7.244   3.998   4.599  1.1013 -2.1860 -1.8432
11048SOL     OW34113   1.661   6.590   5.121 -0.1320 -0.3387 -0.3637
11048SOL    HW134114   1.675   6.663   5.181 -1.0696 -0.8172  0.4670
11048SOL    HW234115   1.742   6.586   5.069  0.2355  0.8007  0.0857
11049SOL     OW34116   4.852   3.174   2.118 -0.4244  0.1929 -0.3849
11049SOL    HW134117   4.797   3.234   2.068 -0.0019  0.4338 -0.5631
11049SOL    HW234118   4.917   3.144   2.055  0.8225  1.3806  0.3019
11050SOL     OW34119   7.356   1.149   4.930  0.2611 -0.2155  0.2100
11050SOL    HW134120   7.426   1.151   4.865  0.6247  0.0577  0.6031
11050SOL    HW234121   7.374   1.073   4.984  0.2190 -0.1760  0.2798
11051SOL     OW34122   2.200   0.283   5.167 -0.3075 -0.1096  0.0009
11051SOL    HW134123   2.254   0.228   5.225 -0.5821 -2.0116 -1.4356
11051SOL    HW234124   2.111   0.269   5.198 -0.4074 -0.7575 -0.5491
11052SOL     OW34125   3.857   1.657   6.649  0.0894  0.3041  0.3756
11052SOL    HW134126   3.935   1.621   6.691  1.3105  3.5021  1.1236
11052SOL    HW234127   3.795   1.671   6.721 -0.4271 -0.3490  0.0722
11053SOL     OW34128   3.173   4.088   3.217 -0.4121  0.4264  0.2556
11053SOL    HW134129   3.083   4.073   3.186 -0.0408  0.2265 -0.7792
11053SOL    HW234130   3.198   4.006   3.259 -0.8522  0.6239  0.9157
11054SOL     OW34131   2.378   4.549   4.491  0.0776  0.4160 -0.2086
11054SOL    HW134132   2.464   4.518   4.519 -0.9667 -1.6469  0.9311
11054SOL    HW234133   2.328   4.556   4.572 -1.6961 -1.3354 -1.0709
11055SOL     OW34134   3.600   7.276   2.232 -0.0087  0.3121  0.1341
11055SOL    HW134135   3.611   7.235   2.147  1.4306  1.4531 -0.2784
11055SOL    HW234136   3.549   7.213   2.283 -0.5203 -0.5817 -1.4151
11056SOL     OW34137   4.771   1.825   0.646  0.5399  0.4624  0.0419
11056SOL    HW134138   4.707   1.857   0.582 -1.0509  0.1621  1.4024
11056SOL    HW234139   4.756   1.878   0.724  0.5566 -0.9532  1.0501
11057SOL     OW34140   4.987   0.431   7.110 -0.2135 -0.1800 -0.3861
11057SOL    HW134141   4.986   0.364   7.043 -1.1323  1.2715 -1.9032
11057SOL    HW234142   5.074   0.425   7.150  0.7371 -0.4110 -2.4040
11058SOL     OW34143   3.889   4.206   0.022  0.2834 -0.0756  0.5270
11058SOL    HW134144   3.844   4.248  -0.052  0.5930  2.4399  1.6863
11058SOL    HW234145   3.957   4.268   0.047  0.7909 -1.3022  2.3532
11059SOL     OW34146   6.870   1.469   4.994 -0.3011  0.1397 -0.3523
11059SOL    HW134147   6.838   1.471   4.904 -0.1132 -0.6615 -0.4508
11059SOL    HW234148   6.843   1.552   5.032 -2.1536 -0.3348 -0.5455
11060SOL     OW34149   3.285   0.497   3.142  0.2862 -0.1641 -0.0553
11060SOL    HW134150   3.291   0.483   3.237  0.0818 -0.4513 -0.0845
11060SOL    HW234151   3.365   0.546   3.120 -1.3136  3.1875  0.8506
11061SOL     OW34152   2.068   4.897   3.814  0.0644 -0.2716 -0.5062
11061SOL    HW134153   2.150   4.919   3.857  0.0126  1.2572 -1.1411
11061SOL    HW234154   2.092   4.888   3.721 -0.5476  0.6743 -0.7685
11062SOL     OW34155   4.735   5.533   1.412 -0.2895  0.2653  0.1087
11062SOL    HW134156   4.789   5.596   1.460 -0.4119  0.3607  0.1199
11062SOL    HW234157   4.798   5.479   1.364 -0.0525 -0.8646  1.6226
11063SOL     OW34158   0.765   1.156   0.676 -0.2919 -0.3444 -0.6935
11063SOL    HW134159   0.761   1.243   0.717 -0.3057 -0.1718 -1.0608
11063SOL    HW234160   0.680   1.116   0.696 -0.8964  0.3237 -1.8501
11064SOL     OW34161   5.478   0.591   4.883  0.3627 -0.1710 -0.0128
11064SOL    HW134162   5.431   0.602   4.800 -0.3683 -0.7413  0.3095
11064SOL    HW234163   5.549   0.655   4.879  0.4224 -0.2831 -1.1298
11065SOL     OW34164   5.821   7.237   4.455  0.0375 -0.1688  0.5092
11065SOL    HW134165   5.726   7.237   4.452 -0.0058  1.5586  0.8187
11065SOL    HW234166   5.849   7.200   4.371 -0.9040  0.2654 -0.0029
11066SOL     OW34167   5.637   3.865   1.078 -0.1125 -0.1989 -0.2461
11066SOL    HW134168   5.656   3.790   1.134  1.3826 -1.2963 -2.1095
11066SOL    HW234169   5.698   3.932   1.107 -0.3742 -0.2250  0.3920
11067SOL     OW34170   6.602   4.625   1.141 -0.0695 -0.2886 -0.0444
11067SOL    HW134171   6.665   4.677   1.190 -1.1177 -0.6185  1.7731
11067SOL    HW234172   6.581   4.677   1.064  0.2525  1.1592  0.8205
11068SOL     OW34173   1.187   1.036   1.462 -0.4187 -0.3851  0.0243
11068SOL    HW134174   1.182   0.980   1.539 -1.2631  0.2692  0.4595
11068SOL    HW234175   1.097   1.042   1.430 -0.3603  0.7775  0.0332
11069SOL     OW34176   3.810   4.998   4.364  0.3798 -0.3134  0.2319
11069SOL    HW134177   3.723   4.974   4.332  0.3246  0.6757 -0.4093
11069SOL    HW234178   3.795   5.026   4.454 -0.1987  0.9931 -0.2296
11070SOL     OW34179   6.368   2.357   4.635 -0.2890  0.2237  0.3954
11070SOL    HW134180   6.454   2.374   4.598 -0.2795  0.1306  0.3737
11070SOL    HW234181   6.348   2.267   4.609 -0.2835  0.1599  0.6123
11071SOL     OW34182   7.354   5.511   6.804 -0.2387 -0.8555  0.0730
11071SOL    HW134183   7.438   5.550   6.779 -1.2274  0.9154 -0.6967
11071SOL    HW234184   7.331   5.553   6.886 -0.9034 -0.4690 -0.3053
11072SOL     OW34185   6.561   0.860   0.636  0.6628 -0.0833  0.1710
11072SOL    HW134186   6.598   0.859   0.547  1.5346  0.6842  0.5146
11072SOL    HW234187   6.623   0.911   0.687  1.5721 -2.6798  1.8345
11073SOL     OW34188   3.116   1.059   2.197 -0.4339 -0.2060  0.4538
11073SOL    HW134189   3.036   1.007   2.206 -1.2720  0.5830 -1.6404
11073SOL    HW234190   3.133   1.060   2.102  1.1271  1.0228  0.6996
11074SOL     OW34191   3.327   1.244   4.867  0.5330 -0.0411 -0.7137
11074SOL    HW134192   3.397   1.285   4.918 -0.1770 -1.0238  1.1497
11074SOL    HW234193   3.247   1.289   4.896  0.1702 -0.3071 -1.2860
11075SOL     OW34194   3.767   0.655   6.015  0.1716  0.3515 -0.3595
11075SOL    HW134195   3.674   0.669   6.029  0.3912  1.1111  0.4466
11075SOL    HW234196   3.783   0.684   5.925 -0.3531  0.3062 -0.4659
11076SOL     OW34197   4.993   5.323   6.679 -0.2531  0.1318  0.4299
11076SOL    HW134198   4.964   5.237   6.649  0.9342 -0.6464  1.3975
11076SOL    HW234199   4.999   5.375   6.599 -0.6950 -0.7739 -0.2173
11077SOL     OW34200   2.790   4.176   2.179  0.5972  0.4075 -0.5617
11077SOL    HW134201   2.878   4.144   2.199 -0.1121 -0.5090  1.2859
11077SOL    HW234202   2.753   4.201   2.263 -2.0211 -2.2649 -0.7254
11078SOL     OW34203   1.953   7.365   7.026  0.2479 -0.5887 -0.3690
11078SOL    HW134204   2.037   7.334   7.060  0.1040 -0.0365  0.5183
11078SOL    HW234205   1.937   7.447   7.073 -0.2315 -0.0871 -1.3783
11079SOL     OW34206   1.381   4.530   7.110  0.2056  0.1900  0.2660
11079SOL    HW134207   1.367   4.623   7.093  0.8787  0.0156 -1.4047
11079SOL    HW234208   1.295   4.498   7.139 -0.3451  1.0905 -0.3137
11080SOL     OW34209   6.274   2.627   4.374 -0.1838  0.1807 -0.0092
11080SOL    HW134210   6.354   2.646   4.423  0.9559 -1.6822 -1.0502
11080SOL    HW234211   6.241   2.713   4.348  2.6939  0.9859 -1.4255
11081SOL     OW34212   2.613   6.526   3.952 -0.2430 -0.0225  0.4450
11081SOL    HW134213   2.555   6.492   3.884  0.0328 -2.9316  1.5172
11081SOL    HW234214   2.554   6.553   4.022 -0.3875 -1.4445  0.8864
11082SOL     OW34215   2.493   6.305   2.097  0.1680  0.5858  0.1164
11082SOL    HW134216   2.461   6.291   2.008  0.9288 -1.0696  0.0639
11082SOL    HW234217   2.486   6.400   2.111 -3.4748  0.5189 -0.3268
11083SOL     OW34218   2.085   6.505   2.435  0.1096  0.0786  0.8248
11083SOL    HW134219   2.070   6.421   2.479 -0.6565 -0.5971 -0.6469
11083SOL    HW234220   2.179   6.521   2.446  0.5717 -1.7360 -0.1070
11084SOL     OW34221   5.047   7.014   7.381 -0.7732  0.2130 -0.4310
11084SOL    HW134222   5.139   6.993   7.401 -0.7410  0.3832 -0.4031
11084SOL    HW234223   5.049   7.106   7.354 -0.8726  0.0992 -0.8367
11085SOL     OW34224   3.971   0.928   2.959 -0.3902 -0.5840 -0.0670
11085SOL    HW134225   4.047   0.985   2.945 -1.1378  0.1604 -1.2680
11085SOL    HW234226   3.988   0.887   3.044  0.8505  0.3569  0.1791
11086SOL     OW34227   5.154   1.890   7.199 -0.0107 -0.3135 -0.0987
11086SOL    HW134228   5.063   1.913   7.214  0.1410 -0.3690  0.9669
11086SOL    HW234229   5.174   1.824   7.266  0.6953 -0.6087 -0.5821
11087SOL     OW34230   1.388   0.592   0.000  0.0084  0.4943 -0.2975
11087SOL    HW134231   1.321   0.659  -0.004  0.2136  0.6341 -2.0039
11087SOL    HW234232   1.367   0.541   0.079 -0.3526  2.2992  0.8370
11088SOL     OW34233   2.769   1.678   5.232 -0.2425  0.7022  0.5315
11088SOL    HW134234   2.683   1.648   5.202 -0.0205 -0.3776  0.9377
11088SOL    HW234235   2.830   1.644   5.167 -0.1905  2.3984 -0.3715
11089SOL     OW34236   3.012   6.794   5.358  0.1725 -0.2277  0.1249
11089SOL    HW134237   2.981   6.732   5.424 -2.4785  2.2778  1.4500
11089SOL    HW234238   2.949   6.785   5.286  1.0362 -0.5050 -0.6200
11090SOL     OW34239   7.358   6.910   6.778 -0.1806  0.6311  0.3086
11090SOL    HW134240   7.451   6.931   6.766 -0.2966  0.3255 -1.3446
11090SOL    HW234241   7.358   6.823   6.816  0.2088  0.8800  0.9007
11091SOL     OW34242   3.537   1.951   6.134 -0.2485 -0.9163  0.1756
11091SOL    HW134243   3.575   1.988   6.054  0.3369 -1.3568  0.2439
11091SOL    HW234244   3.542   1.856   6.121  0.0944 -0.9969  0.8467
11092SOL     OW34245   0.315   3.424   4.420  0.0655 -0.9637  0.1745
11092SOL    HW134246   0.282   3.351   4.366  1.2635 -1.1062 -0.3844
11092SOL    HW234247   0.405   3.437   4.391 -0.6071  1.8863 -0.9413
11093SOL     OW34248   5.218   0.031   7.289 -0.0875 -0.2922  0.4649
11093SOL    HW134249   5.150  -0.027   7.254 -1.7140  1.6099  0.2565
11093SOL    HW234250   5.214   0.108   7.233  2.4472 -0.1873  0.3311
11094SOL     OW34251   7.235   1.191   6.114 -0.1787  0.4790  0.2858
11094SOL    HW134252   7.230   1.226   6.203 -0.9883  1.2376 -0.0510
11094SOL    HW234253   7.244   1.096   6.126 -0.6247  0.5411  1.1669
11095SOL     OW34254   3.521   6.121   5.300  0.1623 -0.0446 -0.1038
11095SOL    HW134255   3.594   6.083   5.252  0.3534  0.6578 -0.3755
11095SOL    HW234256   3.451   6.130   5.235  0.1250  0.0893 -0.0451
11096SOL     OW34257   6.656   2.907   5.279  0.1823  0.1130  0.1166
11096SOL    HW134258   6.667   2.992   5.235 -1.3513  0.2172 -0.0936
11096SOL    HW234259   6.670   2.843   5.210  1.2324  0.1793  0.2509
11097SOL     OW34260   3.766   1.848   2.085 -0.1112 -0.2102 -0.0644
11097SOL    HW134261   3.832   1.902   2.128  0.2611 -2.0039  1.7517
11097SOL    HW234262   3.683   1.877   2.121  0.0057 -0.2470  0.2364
11098SOL     OW34263   1.664   0.566   6.069  0.4698 -0.4980 -0.4794
11098SOL    HW134264   1.682   0.611   6.151 -1.3768  0.9185 -0.7817
11098SOL    HW234265   1.632   0.480   6.095  1.3692 -0.6258  0.2223
11099SOL     OW34266   5.041   5.323   2.864  0.4378  0.3148  0.0422
11099SOL    HW134267   4.952   5.341   2.833 -0.3508 -0.7493  1.5559
11099SOL    HW234268   5.056   5.387   2.933  1.2142  1.0497 -0.7761
11100SOL     OW34269   1.307   3.263   4.043  0.6080 -0.8009 -0.2013
11100SOL    HW134270   1.291   3.175   4.077 -1.2728 -1.1953 -1.9062
11100SOL    HW234271   1.232   3.281   3.986  1.2934  1.6407 -0.4663
11101SOL     OW34272   3.076   0.929   6.704 -0.0431  0.3041 -0.3349
11101SOL    HW134273   3.025   0.860   6.747  0.6112 -0.3456 -0.5920
11101SOL    HW234274   3.090   0.994   6.773  1.7231 -1.1078  0.7449
11102SOL     OW34275   0.158   0.575   2.930  0.0035 -0.2189 -0.2126
11102SOL    HW134276   0.095   0.507   2.954  0.0809 -0.7073 -1.3001
11102SOL    HW234277   0.183   0.617   3.012  0.0251 -1.5731  0.4816
11103SOL     OW34278   0.371   0.244   1.778 -0.0350  0.6696  0.1906
11103SOL    HW134279   0.440   0.178   1.783  0.1643  0.7705 -0.8817
11103SOL    HW234280   0.306   0.205   1.719  0.2216  1.5373 -0.6829
11104SOL     OW34281   6.335   0.692   1.592 -0.4963 -0.7495 -0.3159
11104SOL    HW134282   6.316   0.612   1.541  1.0202 -0.3446 -1.5917
11104SOL    HW234283   6.301   0.763   1.537  0.9688 -0.3216 -0.7156
11105SOL     OW34284   4.875   1.039   4.878 -0.1095  0.0893 -0.4196
11105SOL    HW134285   4.910   1.127   4.862  0.4687 -0.2907 -1.2791
11105SOL    HW234286   4.808   1.028   4.811 -0.8186  0.2112  0.2531
11106SOL     OW34287   0.268   4.600   5.623  0.0730 -0.0878  1.1031
11106SOL    HW134288   0.229   4.590   5.536  1.4837 -0.8538  0.5327
11106SOL    HW234289   0.215   4.667   5.665  0.2184  1.3603 -0.8799
11107SOL     OW34290   1.471   3.760   5.199  0.1058 -0.0135 -0.3521
11107SOL    HW134291   1.489   3.840   5.248  0.7303 -1.5486  2.1682
11107SOL    HW234292   1.558   3.724   5.180 -0.1640 -0.0417 -1.5788
11108SOL     OW34293   7.174   1.767   6.361 -0.5205 -1.0032 -0.0740
11108SOL    HW134294   7.180   1.708   6.286 -1.6012  0.8377 -1.6731
11108SOL    HW234295   7.260   1.809   6.365 -0.7319 -0.4763 -0.8465
11109SOL     OW34296   1.400   7.050   4.922 -0.2148 -0.8176 -0.1250
11109SOL    HW134297   1.356   6.988   4.863 -0.3836 -1.4436  0.6380
11109SOL    HW234298   1.425   7.123   4.865 -0.8551 -1.1527 -0.8689
11110SOL     OW34299   2.745   0.220   4.678 -0.1389 -0.1250 -0.0909
11110SOL    HW134300   2.711   0.197   4.765 -0.5550 -0.3258 -0.3013
11110SOL    HW234301   2.817   0.280   4.695  0.9846 -1.5920  0.4762
11111SOL     OW34302   7.355   0.865   3.014  0.6748  0.0354  0.0640
11111SOL    HW134303   7.413   0.833   3.083  1.0827  2.5974  1.0330
11111SOL    HW234304   7.404   0.851   2.933  1.2902 -0.6910  0.5491
11112SOL     OW34305   6.376   7.279   7.375 -0.1285  0.3806 -0.4826
11112SOL    HW134306   6.339   7.360   7.340  0.9110  0.0310 -2.5259
11112SOL    HW234307   6.327   7.209   7.330  0.8274 -0.0913 -0.8139
11113SOL     OW34308   6.769   1.465   4.666  0.2232 -0.6519  0.1293
11113SOL    HW134309   6.789   1.380   4.705  0.2834  0.5003  2.8679
11113SOL    HW234310   6.716   1.510   4.732  2.7287  2.5527  0.2625
11114SOL     OW34311   1.059   1.438   5.893  0.1414  0.5699 -0.3929
11114SOL    HW134312   1.132   1.448   5.954 -0.1671 -0.2041  0.1234
11114SOL    HW234313   0.981   1.439   5.948 -0.3376  2.3149 -1.0199
11115SOL     OW34314   7.344   4.049   3.577  0.5199  0.3761  0.1775
11115SOL    HW134315   7.325   3.968   3.625  1.0743 -0.5690 -1.1253
11115SOL    HW234316   7.434   4.071   3.601  1.3639 -0.9600 -1.5063
11116SOL     OW34317   2.416   6.004   4.544  0.1062  0.3543  0.2390
11116SOL    HW134318   2.427   6.019   4.637 -2.5394  3.2531  0.2279
11116SOL    HW234319   2.458   6.078   4.502 -1.5869  0.8884 -0.6305
11117SOL     OW34320   4.597   4.013   4.675  0.0911 -0.6006  0.0919
11117SOL    HW134321   4.615   4.008   4.581 -0.6892 -1.4575 -0.0319
11117SOL    HW234322   4.673   3.972   4.716 -0.1512 -1.4177 -0.2497
11118SOL     OW34323   0.529   3.148   1.645 -0.0749 -0.9092 -0.0840
11118SOL    HW134324   0.617   3.145   1.683  0.3977  1.5440 -0.8243
11118SOL    HW234325   0.541   3.191   1.560 -1.9651 -0.7998 -0.3407
11119SOL     OW34326   1.597   4.773   2.325  0.6522  0.0888 -0.4230
11119SOL    HW134327   1.518   4.720   2.333 -0.3392  1.7551  2.6127
11119SOL    HW234328   1.566   4.858   2.294  0.5271  1.7059  3.4585
11120SOL     OW34329   5.021   0.085   4.481  0.4413  0.2520  0.3976
11120SOL    HW134330   4.939   0.093   4.432 -0.6468  2.6517  2.3528
11120SOL    HW234331   5.089   0.109   4.418 -0.6803  1.1523 -0.5256
11121SOL     OW34332   0.823   6.162   6.583 -0.1366 -0.5950 -0.6506
11121SOL    HW134333   0.849   6.253   6.571  3.2615 -1.5470 -1.4135
11121SOL    HW234334   0.767   6.143   6.507 -1.2775  0.9344 -0.2271
11122SOL     OW34335   2.710   1.125   4.224 -0.6524  0.0060 -0.6803
11122SOL    HW134336   2.615   1.127   4.206 -0.8648 -0.0007  0.3929
11122SOL    HW234337   2.748   1.179   4.155 -1.6492  1.8141  0.1008
11123SOL     OW34338   1.737   0.229   6.337  0.1673 -0.1855 -0.0407
11123SOL    HW134339   1.709   0.259   6.251  1.7800  1.7901  0.0279
11123SOL    HW234340   1.660   0.239   6.393  0.3699  3.3762 -0.2017
11124SOL     OW34341   3.904   3.954   1.799  0.1920  0.4101 -0.4748
11124SOL    HW134342   3.858   3.869   1.797  0.7717 -0.0526  2.2445
11124SOL    HW234343   3.972   3.946   1.732 -0.1690 -1.0252 -0.7021
11125SOL     OW34344   5.332   2.263   0.722  0.7063  0.1241 -0.1355
11125SOL    HW134345   5.263   2.323   0.692  1.7857  0.6661 -1.6948
11125SOL    HW234346   5.285   2.184   0.750 -0.5212 -0.2261 -2.8222
11126SOL     OW34347   1.629   0.924   4.007 -0.3501  0.7124  0.0084
11126SOL    HW134348   1.667   1.000   4.050  1.0329 -0.9713  2.0130
11126SOL    HW234349   1.672   0.920   3.921  3.3598 -0.3920  1.6809
11127SOL     OW34350   3.360   4.642   5.400 -0.4978  0.5371  0.0535
11127SOL    HW134351   3.399   4.729   5.390 -0.1435  0.4618  0.7051
11127SOL    HW234352   3.398   4.609   5.481 -0.7202 -0.1793 -0.1325
11128SOL     OW34353   0.502   2.759   3.641  0.2743  0.2212 -0.2780
11128SOL    HW134354   0.495   2.854   3.650  0.5804  0.4379 -1.9024
11128SOL    HW234355   0.555   2.746   3.562  0.1678 -1.3034 -0.1378
11129SOL     OW34356   0.504   6.469   5.580 -0.2781  0.1657  0.3663
11129SOL    HW134357   0.473   6.448   5.492 -0.5625  1.2088  0.2141
11129SOL    HW234358   0.550   6.552   5.571  1.0997 -0.5190  0.9167
11130SOL     OW34359   2.296   6.495   1.457  0.0674 -0.3250 -0.5867
11130SOL    HW134360   2.317   6.414   1.410  0.9460 -1.5724  1.7823
11130SOL    HW234361   2.232   6.468   1.523  1.1993  0.6329  0.9801
11131SOL     OW34362   4.615   1.176   0.096  0.8736 -0.1369  0.2671
11131SOL    HW134363   4.610   1.265   0.131  1.8858 -0.5625  1.5783
11131SOL    HW234364   4.527   1.140   0.110  0.3395  0.7590 -0.6394
11132SOL     OW34365   2.661   6.302   3.013 -0.0682 -0.0493  0.6020
11132SOL    HW134366   2.577   6.276   2.976  0.5586 -1.3085 -0.0183
11132SOL    HW234367   2.673   6.393   2.986 -0.6603 -0.2449 -0.3634
11133SOL     OW34368   4.727   4.354   3.409  0.5625 -0.1809 -0.2848
11133SOL    HW134369   4.727   4.315   3.322 -0.1409 -0.1527 -0.3037
11133SOL    HW234370   4.648   4.318   3.451  0.7835 -0.0340  0.2668
11134SOL     OW34371   2.078   1.055   5.898  0.1212  0.1493  0.0101
11134SOL    HW134372   2.129   1.107   5.961  2.5890  0.6686 -2.2591
11134SOL    HW234373   1.988   1.059   5.932  1.0044  1.9032  2.4818
11135SOL     OW34374   0.363   2.138   4.116  0.1628  0.3910 -0.1236
11135SOL    HW134375   0.313   2.076   4.169  1.0415  0.8079  1.2368
11135SOL    HW234376   0.449   2.098   4.107  0.3772  0.8696 -0.2456
11136SOL     OW34377   3.968   3.814   4.570  0.9464 -0.3680  0.3439
11136SOL    HW134378   3.947   3.897   4.613  2.0794  0.0340  0.1753
11136SOL    HW234379   3.945   3.747   4.634 -1.5412 -0.0556 -0.1322
11137SOL     OW34380   6.632   5.982   5.713  0.3832  0.3777 -0.2032
11137SOL    HW134381   6.686   5.953   5.640  0.4805  1.8297 -0.7325
11137SOL    HW234382   6.592   6.063   5.683 -0.6565  0.2914  0.8623
11138SOL     OW34383   0.332   0.761   3.785 -0.5303  0.3380 -0.5868
11138SOL    HW134384   0.418   0.785   3.751 -0.0703  1.4762  1.2573
11138SOL    HW234385   0.320   0.816   3.862 -1.2268 -2.4669  1.4591
11139SOL     OW34386   1.854   6.063   4.934  0.2990 -0.2582 -0.6709
11139SOL    HW134387   1.874   6.043   5.025  1.8126  0.7498 -0.7478
11139SOL    HW234388   1.837   6.157   4.933  1.4173 -0.0407 -1.5941
11140SOL     OW34389   4.084   6.523   3.568  0.2367 -0.1909 -0.1503
11140SOL    HW134390   4.041   6.472   3.499 -1.5598  2.6548 -1.3006
11140SOL    HW234391   4.146   6.579   3.521 -0.2465  1.0503  0.6467
11141SOL     OW34392   6.193   1.035   4.705 -0.2706  0.0156  0.7534
11141SOL    HW134393   6.287   1.046   4.695 -0.2725 -0.3999  0.2014
11141SOL    HW234394   6.158   1.048   4.617 -0.6056 -0.9715  0.7333
11142SOL     OW34395   0.759   2.578   3.774 -0.0827 -0.6827  0.0293
11142SOL    HW134396   0.814   2.653   3.797  0.6733 -1.5713  1.2422
11142SOL    HW234397   0.686   2.583   3.836 -1.0333  0.0805 -1.1060
11143SOL     OW34398   0.892   4.450   0.494  0.5168 -0.1088 -0.3365
11143SOL    HW134399   0.818   4.494   0.536 -0.7540 -0.9350 -1.5670
11143SOL    HW234400   0.925   4.389   0.560 -2.3309 -2.4123 -0.7895
11144SOL     OW34401   7.032   2.343   3.076 -0.1886 -0.0452 -0.7008
11144SOL    HW134402   7.063   2.425   3.038 -0.0863 -0.2324 -1.0253
11144SOL    HW234403   7.015   2.364   3.168  0.1675  0.2529 -0.6999
11145SOL     OW34404   0.609   1.423   5.609  0.0345 -0.2404 -0.3372
11145SOL    HW134405   0.638   1.510   5.639 -0.0083 -0.8548  1.6431
11145SOL    HW234406   0.514   1.425   5.620 -0.0273 -0.3562 -0.8373
11146SOL     OW34407   1.092   4.122   0.010  0.2711 -0.1199 -0.2945
11146SOL    HW134408   1.108   4.104   0.102  0.0059  0.6307 -0.0988
11146SOL    HW234409   1.029   4.194   0.009 -0.2350 -0.5599 -1.0620
11147SOL     OW34410   0.025   5.016   7.058 -0.2153 -0.2910 -0.2515
11147SOL    HW134411   0.073   5.083   7.106 -1.1731  1.0460 -1.0851
11147SOL    HW234412  -0.051   4.997   7.113 -0.8270  0.5671 -0.7734
11148SOL     OW34413   6.206   1.716   1.788  0.2074 -0.2161  0.2690
11148SOL    HW134414   6.172   1.628   1.803  1.7596 -0.8586  0.1687
11148SOL    HW234415   6.186   1.734   1.696 -0.0028 -0.5082  0.2562
11149SOL     OW34416   0.922   0.655   2.561  0.3869  0.1569  0.1451
11149SOL    HW134417   0.968   0.717   2.505 -0.2189  1.3453  0.9100
11149SOL    HW234418   0.853   0.618   2.505 -0.7962  2.0058  0.2899
11150SOL     OW34419   7.285   6.864   3.989  0.1694 -0.6053  0.0118
11150SOL    HW134420   7.203   6.838   3.947  0.4117 -1.2354 -0.0731
11150SOL    HW234421   7.333   6.782   4.002  1.5941 -0.0860 -1.5926
11151SOL     OW34422   0.368   3.056   1.023 -0.2588 -0.8809 -0.3132
11151SOL    HW134423   0.308   2.985   0.997 -0.2897 -0.5991 -1.0430
11151SOL    HW234424   0.452   3.012   1.037 -0.5103 -1.2035  0.2050
11152SOL     OW34425   2.156   0.577   6.199 -0.2065 -0.0113 -0.7243
11152SOL    HW134426   2.067   0.610   6.189 -0.5134 -1.0349 -1.6280
11152SOL    HW234427   2.175   0.587   6.292 -0.8625  1.1963 -0.7033
11153SOL     OW34428   3.515   1.031   6.078  0.1652 -0.3187 -0.6521
11153SOL    HW134429   3.545   1.041   6.168  0.7595  0.1939 -0.9028
11153SOL    HW234430   3.503   1.120   6.046  1.4387 -0.4573 -1.5669
11154SOL     OW34431   6.845   0.947   3.895 -0.0377  0.3120  0.5057
11154SOL    HW134432   6.791   1.018   3.930 -0.8971 -0.6635  1.2282
11154SOL    HW234433   6.928   0.990   3.872 -0.5762  1.5689  0.7902
11155SOL     OW34434   3.597   3.200   3.243 -0.5319 -0.3350  0.5744
11155SOL    HW134435   3.527   3.174   3.183 -1.1533 -3.0068  2.3130
11155SOL    HW234436   3.659   3.248   3.188 -1.2002 -2.3883 -2.1427
11156SOL     OW34437   4.420   5.512   4.578 -0.0178 -0.0726  0.2946
11156SOL    HW134438   4.463   5.431   4.605 -0.4696 -0.1272  0.8553
11156SOL    HW234439   4.384   5.493   4.491  0.1866 -0.3556  0.2717
11157SOL     OW34440   5.333   6.303   4.320 -0.3505  0.5002 -0.0606
11157SOL    HW134441   5.383   6.384   4.310 -1.1486  0.8805 -1.1341
11157SOL    HW234442   5.244   6.326   4.297 -0.4564 -0.8428 -1.1392
11158SOL     OW34443   3.832   7.319   5.168 -0.3626  0.7508 -0.0926
11158SOL    HW134444   3.845   7.227   5.189 -0.4391  1.0533  1.3471
11158SOL    HW234445   3.842   7.365   5.251  0.2796  2.1171 -0.8865
11159SOL     OW34446   5.434   0.705   1.655 -0.3475 -0.2157  0.3774
11159SOL    HW134447   5.341   0.709   1.631 -0.4702  1.7398  0.9732
11159SOL    HW234448   5.434   0.716   1.750  0.5202  0.2581  0.3259
11160SOL     OW34449   2.007   6.381   6.201  0.1629 -0.4517 -0.1045
11160SOL    HW134450   1.942   6.449   6.187 -0.2260 -0.6468  0.7402
11160SOL    HW234451   1.989   6.317   6.132 -0.3231 -0.3487 -0.0764
11161SOL     OW34452   7.136   3.128   2.790  0.2797  0.3522  0.3247
11161SOL    HW134453   7.222   3.171   2.793  1.1790 -1.3727  2.0469
11161SOL    HW234454   7.080   3.190   2.745  2.8633  0.7406 -2.7489
11162SOL     OW34455   0.551   6.575   0.200 -0.0975 -0.8550 -0.1653
11162SOL    HW134456   0.557   6.603   0.291 -1.3250 -0.3077 -0.2315
11162SOL    HW234457   0.640   6.547   0.177  0.6194  0.6370  0.6774
11163SOL     OW34458   2.719   6.702   1.148  0.4339  0.3000  0.3334
11163SOL    HW134459   2.733   6.665   1.235 -1.2738 -3.6519 -0.8400
11163SOL    HW234460   2.639   6.754   1.156  0.0249 -0.4191  1.0657
11164SOL     OW34461   3.633   0.711   2.516  0.2180  0.0438 -0.0889
11164SOL    HW134462   3.698   0.767   2.559 -0.7436  1.6023 -0.6042
11164SOL    HW234463   3.684   0.637   2.483  2.0205  1.8261 -1.5895
11165SOL     OW34464   5.308   0.909   4.133  0.4382 -0.1341  0.0194
11165SOL    HW134465   5.369   0.835   4.131  1.0857  0.3401  1.0501
11165SOL    HW234466   5.355   0.977   4.182 -1.0436  0.1326  1.1493
11166SOL     OW34467   4.248   7.088   0.729 -0.0433  0.3321 -0.1264
11166SOL    HW134468   4.219   7.012   0.779  0.2595  1.0780  1.2251
11166SOL    HW234469   4.167   7.128   0.698 -0.1925 -1.9509 -3.1814
11167SOL     OW34470   2.981   3.527   4.332  0.0900  0.2954 -0.2732
11167SOL    HW134471   2.926   3.582   4.388  0.1369 -0.7648  0.8507
11167SOL    HW234472   2.934   3.522   4.249 -0.4647  1.1055 -0.0173
11168SOL     OW34473   4.355   3.714   3.708  0.4663  0.7005 -0.6512
11168SOL    HW134474   4.308   3.733   3.789  1.2804  0.1913 -0.0539
11168SOL    HW234475   4.302   3.756   3.640  0.3527  2.0627  0.2413
11169SOL     OW34476   6.366   0.470   5.200  0.5427 -0.6245 -0.1359
11169SOL    HW134477   6.422   0.546   5.184  0.2936 -0.5355 -0.6136
11169SOL    HW234478   6.317   0.493   5.278 -0.0009 -0.0122 -0.6441
11170SOL     OW34479   2.289   0.684   5.994  0.4957 -0.3882 -0.7749
11170SOL    HW134480   2.378   0.698   6.027  0.0443  0.2155  0.2246
11170SOL    HW234481   2.245   0.635   6.064 -0.6308  1.3747 -0.1968
11171SOL     OW34482   0.462   2.484   5.991  0.5403  0.6196 -0.6384
11171SOL    HW134483   0.460   2.413   5.927  0.4623  1.1997 -1.2886
11171SOL    HW234484   0.374   2.523   5.986  0.4446  0.4930  0.0182
11172SOL     OW34485   0.845   0.376   0.556 -0.4935 -0.0341  0.6121
11172SOL    HW134486   0.775   0.431   0.520  0.3061  2.0694  2.1505
11172SOL    HW234487   0.798   0.309   0.606 -1.4407  0.9264  1.0582
11173SOL     OW34488   2.981   0.935   7.002  0.0230  0.7762  0.5158
11173SOL    HW134489   2.907   0.992   7.023 -2.3917 -1.9610  0.0373
11173SOL    HW234490   2.975   0.864   7.065  2.2770  0.4313  0.4136
11174SOL     OW34491   1.873   5.626   6.881  0.2423 -0.3520 -0.2285
11174SOL    HW134492   1.852   5.706   6.832  0.0639  0.4367  1.0639
11174SOL    HW234493   1.944   5.653   6.939  0.5731 -1.3054 -0.1861
11175SOL     OW34494   4.739   2.165   1.168 -1.3539  0.5139  0.6831
11175SOL    HW134495   4.727   2.165   1.263  0.6390  0.9069  0.9778
11175SOL    HW234496   4.668   2.110   1.135 -2.7019  1.2084  2.3006
11176SOL     OW34497   0.418   4.889   1.995  0.4714 -0.4250 -0.3286
11176SOL    HW134498   0.500   4.900   1.946  1.7435 -1.9689  1.3385
11176SOL    HW234499   0.440   4.912   2.085 -1.0264 -0.5626  0.1066
11177SOL     OW34500   1.405   2.705   1.652 -0.5780  0.0306 -0.2588
11177SOL    HW134501   1.498   2.712   1.630 -0.5493  1.1900  0.1342
11177SOL    HW234502   1.361   2.764   1.591 -0.7541  1.4061  1.1359
11178SOL     OW34503   1.428   3.744   6.645  0.6848  0.3650  0.4569
11178SOL    HW134504   1.358   3.716   6.704  1.1457  0.6756  1.1544
11178SOL    HW234505   1.382   3.775   6.567  0.0934 -0.5662  0.4170
11179SOL     OW34506   1.757   5.256   6.045 -0.2338  0.1335 -0.6788
11179SOL    HW134507   1.814   5.332   6.056 -1.9698  1.3357  0.6999
11179SOL    HW234508   1.809   5.182   6.073  1.0800  0.9831 -0.7767
11180SOL     OW34509   2.898   5.589   5.025  0.3770 -0.1936 -0.2739
11180SOL    HW134510   2.865   5.587   4.935  0.8204 -1.3461 -0.4403
11180SOL    HW234511   2.870   5.673   5.060  0.6450  0.4990 -1.6623
11181SOL     OW34512   0.409   6.001   7.136  0.0139  0.6101 -0.3416
11181SOL    HW134513   0.478   6.058   7.104 -0.2555  0.4168 -1.2937
11181SOL    HW234514   0.375   6.046   7.214  0.5616  1.1808 -0.4269
11182SOL     OW34515   2.239   2.717   2.281 -0.1826 -0.4212  0.3040
11182SOL    HW134516   2.235   2.775   2.205 -2.0107 -1.7428 -0.6946
11182SOL    HW234517   2.229   2.776   2.357  2.3929  1.0105 -0.3154
11183SOL     OW34518   5.478   4.218   6.502 -0.5195 -0.2005 -0.1455
11183SOL    HW134519   5.407   4.240   6.562 -1.0483  0.3101 -0.9335
11183SOL    HW234520   5.438   4.158   6.439  0.2524 -1.4330  0.4994
11184SOL     OW34521   3.133   7.167   6.578  0.1969 -0.6964  0.0765
11184SOL    HW134522   3.218   7.121   6.578 -0.1003 -1.3127  1.5328
11184SOL    HW234523   3.147   7.242   6.636 -0.0205 -0.3517 -0.3236
11185SOL     OW34524   5.511   1.321   5.635  0.3092  0.1851  0.7224
11185SOL    HW134525   5.591   1.353   5.593  0.6665 -0.2124  1.0861
11185SOL    HW234526   5.440   1.358   5.583  0.7406 -0.8359 -0.6640
11186SOL     OW34527   2.746   6.926   2.383  0.2208 -0.0042 -0.0936
11186SOL    HW134528   2.767   6.875   2.461 -0.0889 -1.2601 -0.8171
11186SOL    HW234529   2.650   6.923   2.378  0.0520  2.0772  0.7813
11187SOL     OW34530   4.622   4.461   2.110  0.4074  0.0450 -0.4063
11187SOL    HW134531   4.656   4.377   2.078  2.4633 -0.0706  1.7650
11187SOL    HW234532   4.701   4.510   2.135 -0.7729  2.4315 -1.0762
11188SOL     OW34533   1.248   5.726   7.302 -0.7525 -0.1719 -0.1795
11188SOL    HW134534   1.278   5.686   7.383 -0.8836 -0.6585 -0.3679
11188SOL    HW234535   1.194   5.799   7.330 -1.1297 -0.5831  0.1777
11189SOL     OW34536   5.593   0.305   2.720  0.1185 -0.0763  0.2769
11189SOL    HW134537   5.543   0.385   2.739 -0.2656 -0.1962 -0.2149
11189SOL    HW234538   5.653   0.331   2.651 -1.7643 -0.8289 -1.7670
11190SOL     OW34539   4.452   6.018   4.269  0.3358  0.1890  0.1858
11190SOL    HW134540   4.394   6.077   4.222 -0.6029  1.0765  2.2920
11190SOL    HW234541   4.531   6.012   4.215 -0.1718  2.1250 -0.8564
11191SOL     OW34542   1.264   2.808   0.579  0.2128  0.0119  0.0976
11191SOL    HW134543   1.348   2.834   0.617  1.3642 -0.5039 -1.9695
11191SOL    HW234544   1.273   2.715   0.561 -1.1889 -0.2746  0.7041
11192SOL     OW34545   3.519   3.548   1.561 -0.2432 -0.3794  0.4085
11192SOL    HW134546   3.546   3.545   1.653 -1.3634 -0.2054  0.7640
11192SOL    HW234547   3.424   3.536   1.564 -0.5585  1.5458 -0.5787
11193SOL     OW34548   6.044   6.195   3.014 -0.5947  0.2497 -0.0695
11193SOL    HW134549   5.951   6.191   2.992 -0.5925 -0.1887 -0.0081
11193SOL    HW234550   6.046   6.236   3.100 -0.6436  1.3834 -0.5845
11194SOL     OW34551   1.633   7.158   4.204  0.2202 -0.1834  0.2607
11194SOL    HW134552   1.607   7.235   4.255  1.7531  0.2290  0.4537
11194SOL    HW234553   1.566   7.093   4.225 -1.0762  1.0584  0.1426
11195SOL     OW34554   5.946   2.244   5.008  0.5909  0.1434 -0.0043
11195SOL    HW134555   5.954   2.202   5.093  2.1335  0.7626  0.1835
11195SOL    HW234556   5.941   2.338   5.028  1.9906  0.3645 -0.6281
11196SOL     OW34557   2.259   1.260   2.037  0.2674 -0.0724 -0.5842
11196SOL    HW134558   2.236   1.244   2.129  1.6899 -0.9266 -0.3377
11196SOL    HW234559   2.303   1.345   2.038 -0.6538  0.4238 -0.6727
11197SOL     OW34560   6.266   3.662   5.109  0.0291  0.0191 -0.1733
11197SOL    HW134561   6.326   3.702   5.172 -2.3164 -0.6502  2.7182
11197SOL    HW234562   6.308   3.578   5.087  0.9698  0.3194  0.4074
11198SOL     OW34563   1.916   0.064   2.522  0.0628 -0.5760 -0.3407
11198SOL    HW134564   1.913   0.018   2.605  0.2677 -0.0331 -0.0284
11198SOL    HW234565   1.824   0.082   2.501  0.0720  0.6544  0.5495
11199SOL     OW34566   7.345   6.393   1.538 -0.0700 -0.1089  0.0026
11199SOL    HW134567   7.302   6.415   1.455 -0.0758  1.6969  0.4428
11199SOL    HW234568   7.433   6.365   1.513 -0.4034 -0.5650 -0.6783
11200SOL     OW34569   2.423   5.841   5.671  0.0003  0.2548  0.5234
11200SOL    HW134570   2.393   5.844   5.762  0.8177 -1.1724  0.8654
11200SOL    HW234571   2.518   5.829   5.678 -0.1125 -1.4321 -0.4907
11201SOL     OW34572   5.238   4.650   0.583  0.0188  0.3679  0.3409
11201SOL    HW134573   5.199   4.704   0.652 -0.6534  1.7504 -1.0740
11201SOL    HW234574   5.331   4.673   0.585  0.3515 -0.9060  1.8956
11202SOL     OW34575   5.640   3.464   2.578 -0.0748  0.4920  0.6653
11202SOL    HW134576   5.663   3.501   2.492  1.8247 -0.4553  0.7087
11202SOL    HW234577   5.547   3.484   2.588 -0.2346  1.0713 -1.3892
11203SOL     OW34578   2.242   4.202   0.558 -0.3915  0.4543  0.4041
11203SOL    HW134579   2.262   4.292   0.534 -2.3169  1.6239  2.6580
11203SOL    HW234580   2.291   4.187   0.639 -0.6242 -0.2605  0.4218
11204SOL     OW34581   6.323   6.975   4.293 -0.0961  0.1111  0.0803
11204SOL    HW134582   6.409   6.939   4.272 -1.3800 -2.1565 -1.9069
11204SOL    HW234583   6.297   6.930   4.373 -0.2193 -0.7658 -0.4367
11205SOL     OW34584   1.006   6.467   2.687 -0.0024  0.2781  0.0592
11205SOL    HW134585   0.982   6.461   2.595  1.6631  3.4176 -0.7125
11205SOL    HW234586   0.924   6.488   2.732 -0.6627 -0.3708 -0.8191
11206SOL     OW34587   5.648   2.211   6.660 -0.1164  0.4743 -0.1064
11206SOL    HW134588   5.694   2.135   6.625  0.1020 -2.1596  4.8972
11206SOL    HW234589   5.717   2.270   6.690 -0.0758 -0.1027  1.0014
11207SOL     OW34590   6.997   6.186   5.549 -0.0467 -0.0495  0.2404
11207SOL    HW134591   6.950   6.105   5.525  0.6108 -0.6238  0.8368
11207SOL    HW234592   6.970   6.250   5.484 -0.6238 -0.7434 -0.2135
11208SOL     OW34593   1.847   3.488   6.096 -0.4698 -0.1873  0.2238
11208SOL    HW134594   1.915   3.437   6.052 -0.7954  1.1766 -2.0249
11208SOL    HW234595   1.895   3.547   6.154  0.2046 -0.1261 -0.3761
11209SOL     OW34596   4.616   2.034   5.855  0.6677 -0.3755  0.0370
11209SOL    HW134597   4.655   2.066   5.937 -0.3153  1.0572 -0.0251
11209SOL    HW234598   4.522   2.049   5.866  0.2236 -2.4879 -0.3747
11210SOL     OW34599   2.248   7.161   2.088 -0.4698  0.7837 -0.3654
11210SOL    HW134600   2.322   7.153   2.028 -0.8847  1.8604 -1.0500
11210SOL    HW234601   2.178   7.110   2.047 -1.1069  2.4108 -1.4365
11211SOL     OW34602   1.100   6.355   5.952  0.0875  0.4688  0.3369
11211SOL    HW134603   1.057   6.283   5.906 -0.0083  1.1944 -0.7465
11211SOL    HW234604   1.029   6.403   5.995  0.1251  0.0577  0.8591
11212SOL     OW34605   2.394   3.011   1.609 -0.3280 -0.2170 -0.0189
11212SOL    HW134606   2.322   2.996   1.548 -0.1160  0.4916 -0.4435
11212SOL    HW234607   2.426   3.099   1.588  0.0015 -0.1216  0.8452
11213SOL     OW34608   2.445   1.326   1.581  0.0817  0.3979  0.3583
11213SOL    HW134609   2.457   1.287   1.495 -0.0946 -1.5758  1.1710
11213SOL    HW234610   2.401   1.410   1.564 -1.5998 -0.7595 -1.3640
11214SOL     OW34611   3.366   2.142   3.002 -0.6798 -0.1114 -0.1953
11214SOL    HW134612   3.340   2.214   3.060 -1.5603 -0.3883 -0.2294
11214SOL    HW234613   3.319   2.160   2.920  0.0138 -0.0995 -0.5969
11215SOL     OW34614   0.100   4.463   6.566  0.4303  0.3010  0.0354
11215SOL    HW134615   0.166   4.467   6.497 -1.2111  1.5337 -1.5542
11215SOL    HW234616   0.087   4.369   6.581  1.6572  0.0352 -0.4893
11216SOL     OW34617   4.324   2.365   2.012 -0.2339 -0.0315 -0.1727
11216SOL    HW134618   4.326   2.279   1.971  2.4668 -1.1239  1.9159
11216SOL    HW234619   4.413   2.398   2.004 -0.5571  1.3815  1.3449
11217SOL     OW34620   6.127   2.391   1.429  0.0357  0.4637  0.3173
11217SOL    HW134621   6.206   2.391   1.375  1.1278  0.1695  1.8580
11217SOL    HW234622   6.100   2.483   1.432 -2.0364  0.1626 -3.4110
11218SOL     OW34623   1.193   4.130   0.807  0.1710 -0.4086 -0.1417
11218SOL    HW134624   1.185   4.163   0.897  0.5624 -1.1198  0.1682
11218SOL    HW234625   1.268   4.070   0.811  0.5938  0.0376 -1.0989
11219SOL     OW34626   3.694   5.145   2.593 -0.3061 -0.1828  0.0513
11219SOL    HW134627   3.705   5.202   2.669 -4.0128  0.0410  0.6184
11219SOL    HW234628   3.647   5.198   2.529 -0.5007 -1.4584 -0.9207
11220SOL     OW34629   3.139   6.356   1.628  0.4042  0.3673  0.4255
11220SOL    HW134630   3.062   6.325   1.676  0.3216  0.9519  0.6805
11220SOL    HW234631   3.206   6.369   1.695  0.7898 -0.3241  0.1801
11221SOL     OW34632   1.024   7.005   5.194  0.0888 -0.3402  0.4687
11221SOL    HW134633   0.993   7.040   5.278  0.7287 -1.8709  1.3961
11221SOL    HW234634   0.947   6.967   5.153 -0.3606  0.9929  0.0253
11222SOL     OW34635   3.681   2.555   2.226  0.1649  0.3077 -0.2532
11222SOL    HW134636   3.688   2.555   2.130 -0.2310  0.2723 -0.2844
11222SOL    HW234637   3.770   2.536   2.256  0.7574  2.3415 -0.5731
11223SOL     OW34638   6.372   3.091   5.865 -0.6540  0.1528  0.0913
11223SOL    HW134639   6.342   3.081   5.775 -1.1799 -0.4265  0.3295
11223SOL    HW234640   6.378   3.186   5.877 -1.4186  0.2610 -0.2881
11224SOL     OW34641   7.136   1.159   6.629  0.3297  0.2628  0.4782
11224SOL    HW134642   7.174   1.072   6.622  1.5684  0.8207  0.0684
11224SOL    HW234643   7.118   1.170   6.722  0.8738 -0.1477  0.6352
11225SOL     OW34644   6.105   0.913   5.365  0.0272  0.1143  0.0904
11225SOL    HW134645   6.127   0.922   5.273  0.9072 -0.5622  0.2181
11225SOL    HW234646   6.106   1.003   5.399 -1.6209  0.4931 -0.8254
11226SOL     OW34647   6.571   2.330   2.513 -0.0263  0.5079  0.2487
11226SOL    HW134648   6.573   2.356   2.605 -1.3291  0.9827  0.1708
11226SOL    HW234649   6.503   2.263   2.509 -1.1553  1.6478 -0.6118
11227SOL     OW34650   7.329   4.088   1.793  0.1582 -0.0190 -0.2256
11227SOL    HW134651   7.299   4.054   1.708  0.3218 -1.2252  0.1793
11227SOL    HW234652   7.263   4.059   1.855  0.8403 -0.5061  0.2879
11228SOL     OW34653   6.299   3.515   2.049 -0.1280 -0.0661 -0.0717
11228SOL    HW134654   6.256   3.587   2.094 -0.2391 -0.0390 -0.2206
11228SOL    HW234655   6.347   3.469   2.118 -0.8152 -0.4083  0.1929
11229SOL     OW34656   3.705   1.298   3.431 -0.4380  0.1360 -0.0721
11229SOL    HW134657   3.622   1.252   3.434 -0.3822 -0.1532 -1.9464
11229SOL    HW234658   3.683   1.390   3.447 -0.6127 -0.3525  3.1126
11230SOL     OW34659   5.980   6.189   0.675 -0.4452 -0.2671  0.3948
11230SOL    HW134660   5.937   6.256   0.727 -1.0907 -0.5657  0.2459
11230SOL    HW234661   6.065   6.227   0.653 -0.6026  0.2918  0.7459
11231SOL     OW34662   2.513   1.927   5.317 -0.2924 -0.6603  0.4798
11231SOL    HW134663   2.572   1.949   5.245 -1.5519  0.2259 -0.3089
11231SOL    HW234664   2.478   1.841   5.294 -0.9163 -0.2512 -0.1328
11232SOL     OW34665   1.732   1.944   2.865 -0.0951  0.3551  0.9268
11232SOL    HW134666   1.727   1.908   2.776 -0.4036  1.9927  0.2468
11232SOL    HW234667   1.651   1.994   2.875  0.5461  1.2966  1.6117
11233SOL     OW34668   0.906   3.564   2.227  0.4731  0.3351  0.5441
11233SOL    HW134669   0.920   3.471   2.247  0.5756 -0.1153 -1.3824
11233SOL    HW234670   0.838   3.592   2.288  1.1429 -0.7261  1.8378
11234SOL     OW34671   5.274   5.303   0.095  0.3648 -0.2962  0.3229
11234SOL    HW134672   5.337   5.312   0.023 -0.0330 -0.7892 -0.0953
11234SOL    HW234673   5.200   5.359   0.068  0.1872 -0.5349  0.3125
11235SOL     OW34674   0.072   3.931   6.902  0.4012  0.6686 -0.1137
11235SOL    HW134675   0.047   4.023   6.911 -1.0410  0.2021  0.9101
11235SOL    HW234676   0.154   3.924   6.950  0.2134  1.2875  0.3064
11236SOL     OW34677   6.382   4.004   5.249  0.0421  0.0937 -0.4602
11236SOL    HW134678   6.475   3.986   5.234  0.1140 -0.2032  0.2790
11236SOL    HW234679   6.347   4.021   5.162  0.9027  0.7706 -0.6882
11237SOL     OW34680   3.426   5.000   3.048 -0.3267  0.0716 -0.4322
11237SOL    HW134681   3.464   5.003   2.961 -0.4963 -0.0198 -0.5096
11237SOL    HW234682   3.370   5.077   3.053  0.0848  0.3608 -0.2173
11238SOL     OW34683   3.079   3.477   2.266  0.5430  0.5233  0.5683
11238SOL    HW134684   3.119   3.442   2.346 -1.2397  0.2261  1.3783
11238SOL    HW234685   3.026   3.405   2.232 -1.4031  1.6449  1.0297
11239SOL     OW34686   0.725   3.109   0.187 -0.4357 -0.4149  0.2642
11239SOL    HW134687   0.754   3.058   0.111  0.7408  0.7136 -0.0843
11239SOL    HW234688   0.630   3.116   0.176 -0.2245  0.2966 -1.5085
11240SOL     OW34689   3.480   7.320   2.777 -0.9243  0.1754 -0.1673
11240SOL    HW134690   3.481   7.225   2.794  0.3781  0.2969  0.5527
11240SOL    HW234691   3.570   7.341   2.755 -1.6381  0.8816 -2.7329
11241SOL     OW34692   5.620   6.246   1.414 -0.2130 -0.4937  0.3686
11241SOL    HW134693   5.656   6.311   1.354 -1.0658 -0.0109  0.3602
11241SOL    HW234694   5.687   6.235   1.482 -1.2071  2.6642  2.0522
11242SOL     OW34695   0.535   1.986   2.434 -0.1907 -0.3886 -0.1513
11242SOL    HW134696   0.469   2.047   2.403  0.3107 -0.8922 -2.3541
11242SOL    HW234697   0.612   2.041   2.451  0.0464 -0.2897 -1.4675
11243SOL     OW34698   6.724   5.590   1.675 -0.1709 -0.3686  0.1117
11243SOL    HW134699   6.782   5.586   1.599  1.7300 -0.3776  1.4597
11243SOL    HW234700   6.734   5.505   1.717  1.2842  0.6522  2.0016
11244SOL     OW34701   2.909   0.217   2.778 -0.0374 -0.3266 -0.6155
11244SOL    HW134702   2.925   0.128   2.747 -1.4731 -0.9961  0.4377
11244SOL    HW234703   2.921   0.212   2.873  0.4630  0.7536 -0.6067
11245SOL     OW34704   1.486   5.385   4.513 -0.0328  0.3813 -0.5302
11245SOL    HW134705   1.525   5.369   4.599  3.2374  0.4299 -1.8535
11245SOL    HW234706   1.479   5.298   4.473 -1.1692  0.4012 -0.4152
11246SOL     OW34707   3.239   1.204   4.517 -0.0756  0.5831 -0.1747
11246SOL    HW134708   3.170   1.140   4.534 -1.2702  1.9917  0.4851
11246SOL    HW234709   3.230   1.270   4.586  2.1911  0.6361  0.1551
11247SOL     OW34710   3.843   5.274   4.911  0.0578 -0.1705 -0.1385
11247SOL    HW134711   3.788   5.342   4.873  1.0979  1.1561  0.6195
11247SOL    HW234712   3.784   5.225   4.968 -0.5511  0.6046 -0.0841
11248SOL     OW34713   4.073   4.100   7.108 -0.7136 -0.4077 -0.3832
11248SOL    HW134714   4.146   4.129   7.162 -1.6189  0.5399  0.3651
11248SOL    HW234715   4.110   4.031   7.053  0.7113 -0.0170  0.0448
11249SOL     OW34716   7.176   2.703   6.730 -0.1924 -0.1302 -0.3970
11249SOL    HW134717   7.176   2.626   6.788 -1.1043 -0.0966 -0.3362
11249SOL    HW234718   7.259   2.746   6.748  0.1684 -0.9088 -0.1613
11250SOL     OW34719   2.363   0.117   6.187 -0.2143 -0.5346 -0.3599
11250SOL    HW134720   2.387   0.034   6.228  0.2177 -0.2353  0.0109
11250SOL    HW234721   2.427   0.128   6.117  1.0410  0.4677  0.8958
11251SOL     OW34722   5.982   3.158   0.719  0.6229 -0.2855 -0.5858
11251SOL    HW134723   6.055   3.214   0.745 -0.9772  0.7350  2.2164
11251SOL    HW234724   5.920   3.217   0.676 -0.8291  0.1487  1.8923
11252SOL     OW34725   3.780   2.114   2.442  0.2965 -0.4678  0.0915
11252SOL    HW134726   3.753   2.184   2.382  2.3561  0.1163 -0.2149
11252SOL    HW234727   3.722   2.041   2.421 -0.5034  0.4535 -1.0477
11253SOL     OW34728   0.697   5.458   0.847  0.4809  0.0126  0.0121
11253SOL    HW134729   0.783   5.496   0.863  0.4295  0.1695 -0.0821
11253SOL    HW234730   0.664   5.436   0.934  1.7738 -2.6265 -0.0808
11254SOL     OW34731   4.807   1.241   7.303 -0.2744  0.7512 -0.1033
11254SOL    HW134732   4.847   1.301   7.366 -1.1453 -0.2669  1.4887
11254SOL    HW234733   4.720   1.224   7.339 -0.0952 -1.3744 -0.5563
11255SOL     OW34734   0.987   0.779   3.038 -0.3934 -0.1609  0.6917
11255SOL    HW134735   0.954   0.748   2.954 -1.9057  0.2736  1.0924
11255SOL    HW234736   1.001   0.699   3.089 -0.1108 -0.3916  0.2537
11256SOL     OW34737   4.801   0.037   0.553  0.2388  0.1258  0.1412
11256SOL    HW134738   4.739  -0.034   0.533  0.9173 -0.3775 -0.2383
11256SOL    HW234739   4.886  -0.007   0.558  0.9401  1.1358 -1.8033
11257SOL     OW34740   2.945   2.661   6.538  0.1240 -0.1846 -0.0273
11257SOL    HW134741   2.879   2.729   6.552  0.6242 -0.1737  3.0152
11257SOL    HW234742   3.029   2.706   6.551  0.5403 -0.9781  0.1126
11258SOL     OW34743   1.771   1.226   3.894 -0.4993 -0.0748 -0.3063
11258SOL    HW134744   1.687   1.222   3.848 -0.4700  0.3442 -0.3930
11258SOL    HW234745   1.812   1.307   3.863 -0.8493  0.6581  1.1053
11259SOL     OW34746   0.158   6.172   1.029 -0.4153 -0.1531 -0.0821
11259SOL    HW134747   0.161   6.207   0.941  1.1687 -0.2049 -0.0688
11259SOL    HW234748   0.204   6.088   1.024 -1.0462 -0.5583  0.6163
11260SOL     OW34749   4.097   6.725   4.592 -0.2691 -0.2472  0.2320
11260SOL    HW134750   4.191   6.707   4.583  0.3930  2.3518  1.0863
11260SOL    HW234751   4.087   6.751   4.683 -1.8318 -0.3596  0.1113
11261SOL     OW34752   4.090   6.256   3.988 -0.3553 -0.1917 -0.3843
11261SOL    HW134753   4.170   6.237   3.940  0.7518 -0.8931  1.6337
11261SOL    HW234754   4.082   6.185   4.051 -1.9677  0.4674  0.2106
11262SOL     OW34755   5.371   3.282   5.043 -0.2820 -0.4248 -0.1614
11262SOL    HW134756   5.371   3.298   4.949 -1.1321  2.1115  0.1888
11262SOL    HW234757   5.298   3.222   5.057  1.3768 -2.8880 -1.3027
11263SOL     OW34758   2.473   7.247   6.672  0.2844  0.5539  0.5289
11263SOL    HW134759   2.416   7.264   6.747  0.2843  0.9666  0.4356
11263SOL    HW234760   2.556   7.287   6.695 -0.0124  1.5714 -0.1094
11264SOL     OW34761   2.624   3.302   5.782  0.0409 -0.3414  1.0250
11264SOL    HW134762   2.715   3.319   5.808  0.7166 -0.5058 -1.0089
11264SOL    HW234763   2.571   3.342   5.851  1.6435 -0.6225  2.4945
11265SOL     OW34764   5.835   2.907   6.573 -0.3754 -0.5210 -0.2414
11265SOL    HW134765   5.743   2.907   6.599 -0.7329 -0.0492 -1.4560
11265SOL    HW234766   5.834   2.903   6.477  0.8711 -0.7545 -0.2700
11266SOL     OW34767   0.743   7.011   4.909  0.6186  0.3161  0.0647
11266SOL    HW134768   0.805   6.954   4.954 -0.0476 -0.4156  0.0921
11266SOL    HW234769   0.797   7.077   4.866  1.4170 -0.3867 -0.0336
11267SOL     OW34770   5.533   1.425   1.510 -0.1455  0.2410 -0.1787
11267SOL    HW134771   5.452   1.469   1.537 -0.2220  1.3073 -2.0006
11267SOL    HW234772   5.524   1.414   1.416 -0.1308 -3.8233  0.1384
11268SOL     OW34773   4.686   7.380   4.838  0.8007 -0.3339  0.0260
11268SOL    HW134774   4.780   7.372   4.822  0.8271 -0.4587  0.2573
11268SOL    HW234775   4.649   7.395   4.751  0.9027 -1.4527 -0.2248
11269SOL     OW34776   0.780   4.074   3.647  0.3980 -0.6938 -0.2196
11269SOL    HW134777   0.858   4.047   3.599  2.8158  2.5583  1.5275
11269SOL    HW234778   0.735   4.135   3.588 -1.3085 -2.9289 -1.4252
11270SOL     OW34779   1.171   4.861   0.910  0.0116  0.5600 -0.7742
11270SOL    HW134780   1.158   4.923   0.838  0.7963  0.9617 -0.5730
11270SOL    HW234781   1.168   4.914   0.989 -0.0952  0.2265 -0.5510
11271SOL     OW34782   0.763   1.398   3.739 -0.5626 -0.7720 -0.6084
11271SOL    HW134783   0.703   1.468   3.716  0.5119  0.1528 -0.6676
11271SOL    HW234784   0.828   1.398   3.669  2.2633  1.4947  1.7559
11272SOL     OW34785   0.372   1.072   3.509  0.3062  0.5351  0.5196
11272SOL    HW134786   0.352   1.164   3.526  0.1477  0.5402  0.3178
11272SOL    HW234787   0.286   1.031   3.494  0.3907  0.3979  0.4024
11273SOL     OW34788   6.407   0.423   5.528 -0.3916  0.4281 -0.0327
11273SOL    HW134789   6.339   0.445   5.465  0.1937  1.5225 -0.3122
11273SOL    HW234790   6.416   0.502   5.582  0.8110  0.3959 -0.1488
11274SOL     OW34791   5.906   1.026   0.640  0.1750  0.1215  0.3675
11274SOL    HW134792   5.851   1.047   0.715 -0.6783  1.0893 -0.4931
11274SOL    HW234793   5.882   0.937   0.616 -1.5451  0.7562 -0.4010
11275SOL     OW34794   1.213   6.300   1.483  0.2876 -0.1664  0.2168
11275SOL    HW134795   1.291   6.330   1.436 -1.1262 -0.0747 -2.1884
11275SOL    HW234796   1.247   6.272   1.568  3.0433 -0.7612 -0.9663
11276SOL     OW34797   1.317   6.505   1.691  0.9161 -0.6053 -0.1653
11276SOL    HW134798   1.226   6.513   1.719  0.2395 -1.1409 -2.0285
11276SOL    HW234799   1.334   6.411   1.688  0.0810 -0.7857 -3.8108
11277SOL     OW34800   4.603   7.045   2.967  0.2211 -0.4659 -0.4679
11277SOL    HW134801   4.656   7.019   3.042 -0.0559  0.0166 -0.0986
11277SOL    HW234802   4.656   7.110   2.922  0.0286 -0.1235 -0.2053
11278SOL     OW34803   0.358   1.965   0.488  0.1105  0.5772  0.3193
11278SOL    HW134804   0.451   1.955   0.509  0.0103 -1.2433  0.0056
11278SOL    HW234805   0.356   1.973   0.392 -0.1458 -1.1248  0.1523
11279SOL     OW34806   6.783   5.932   2.309 -0.0445 -0.1911 -0.4543
11279SOL    HW134807   6.765   5.899   2.397  2.0375  0.6049  0.3449
11279SOL    HW234808   6.807   5.855   2.258  0.3539 -0.4638  0.1427
11280SOL     OW34809   2.462   3.521   0.999  0.2546  0.0552  0.2197
11280SOL    HW134810   2.516   3.569   0.937  1.8602  0.4393  1.8367
11280SOL    HW234811   2.453   3.434   0.961  1.0721  0.3129 -0.5949
11281SOL     OW34812   0.735   6.058   3.173  0.5608 -0.7040 -0.1484
11281SOL    HW134813   0.775   6.069   3.259 -1.5305 -0.6515  0.8869
11281SOL    HW234814   0.701   5.969   3.173 -2.5766  0.3630  0.5908
11282SOL     OW34815   3.928   0.674   2.152 -0.0405 -0.4268 -0.3675
11282SOL    HW134816   3.924   0.657   2.058  1.6003  1.1946 -0.7890
11282SOL    HW234817   3.927   0.770   2.159  0.0213 -0.5144  1.2681
11283SOL     OW34818   2.044   3.611   0.571  0.3725  0.4588 -0.4812
11283SOL    HW134819   2.038   3.684   0.510 -1.2278 -0.3092 -1.2879
11283SOL    HW234820   2.031   3.533   0.518  1.1209 -0.3817  0.5144
11284SOL     OW34821   3.404   5.683   5.120 -0.0954  0.1069  0.1978
11284SOL    HW134822   3.435   5.755   5.066  1.6503 -0.8118 -0.1048
11284SOL    HW234823   3.308   5.688   5.114  0.0090  1.5551 -0.8999
11285SOL     OW34824   5.642   5.471   2.419 -0.2482 -0.2042 -0.2297
11285SOL    HW134825   5.708   5.530   2.455  0.8319 -1.9182  0.7883
11285SOL    HW234826   5.624   5.410   2.491 -0.6045 -1.6593 -1.4964
11286SOL     OW34827   4.669   5.665   6.271 -0.0355 -0.4842 -0.5797
11286SOL    HW134828   4.735   5.648   6.339  0.5084  0.8128 -0.7635
11286SOL    HW234829   4.599   5.602   6.290  0.4512 -0.6724  0.7117
11287SOL     OW34830   5.382   6.056   6.115  0.3310 -0.2560 -0.3208
11287SOL    HW134831   5.318   6.124   6.138  0.2901 -0.1668 -0.6930
11287SOL    HW234832   5.366   5.985   6.177 -0.5275 -0.4807 -0.7919
11288SOL     OW34833   3.350   4.883   7.119 -0.3693 -0.3900  0.0953
11288SOL    HW134834   3.437   4.848   7.138 -0.4712 -0.8711 -0.2913
11288SOL    HW234835   3.318   4.828   7.047 -1.1501 -0.4729  0.4996
11289SOL     OW34836   6.058   7.113   4.542 -0.1502  0.4225  0.3988
11289SOL    HW134837   6.145   7.152   4.532  0.3903 -0.1229  2.4338
11289SOL    HW234838   6.019   7.119   4.455  1.8368  0.8673 -0.5282
11290SOL     OW34839   5.295   0.772   0.311 -0.1647  0.2005 -0.2610
11290SOL    HW134840   5.359   0.830   0.351 -0.9953  2.0635 -1.5007
11290SOL    HW234841   5.282   0.702   0.375  1.9956  0.5480  0.6257
11291SOL     OW34842   1.515   5.130   4.367 -0.1220 -0.2973  0.0201
11291SOL    HW134843   1.587   5.120   4.428  0.6151  0.6594 -0.6627
11291SOL    HW234844   1.547   5.093   4.285 -0.3393  0.2799 -0.3337
11292SOL     OW34845   1.942   2.429   1.879 -0.1099  0.2540  0.2118
11292SOL    HW134846   1.946   2.343   1.922  0.6204  0.7141  1.1092
11292SOL    HW234847   1.895   2.413   1.798  0.4952 -1.1086  0.0949
11293SOL     OW34848   2.096   3.206   2.749  0.4082 -0.7062 -0.1559
11293SOL    HW134849   2.135   3.151   2.817  0.0503 -0.3292  0.3543
11293SOL    HW234850   2.018   3.244   2.789 -2.4178 -3.8937 -2.0707
11294SOL     OW34851   3.717   0.252   4.260  0.0195  0.2486  0.0603
11294SOL    HW134852   3.689   0.161   4.275 -2.2221  0.8221 -0.2116
11294SOL    HW234853   3.712   0.293   4.346  1.9170 -0.0471  0.3583
11295SOL     OW34854   3.776   2.911   2.187  0.0271 -0.0148  0.0576
11295SOL    HW134855   3.857   2.937   2.231  0.0547  1.4267 -0.7852
11295SOL    HW234856   3.805   2.854   2.115  0.2699  0.3156 -0.1055
11296SOL     OW34857   1.802   6.466   3.596  0.4546 -0.4095 -0.6055
11296SOL    HW134858   1.819   6.372   3.595 -2.9078 -1.1613  0.7644
11296SOL    HW234859   1.836   6.496   3.680 -2.4449 -1.4218  1.0558
11297SOL     OW34860   5.720   0.905   2.319 -0.1292  0.1233 -0.4647
11297SOL    HW134861   5.811   0.928   2.301 -0.2343 -0.1594 -1.3576
11297SOL    HW234862   5.708   0.928   2.412  0.8895  0.0193 -0.2946
11298SOL     OW34863   2.271   6.755   5.383 -0.1193 -0.2486 -0.6100
11298SOL    HW134864   2.287   6.699   5.307 -0.0589 -0.8046 -0.1970
11298SOL    HW234865   2.303   6.841   5.357  1.5879 -0.8348 -0.5806
11299SOL     OW34866   6.177   1.468   6.912  0.0918 -0.0508  0.1211
11299SOL    HW134867   6.175   1.536   6.979 -1.5912 -0.3204  0.3966
11299SOL    HW234868   6.102   1.488   6.856  0.6490 -0.6447 -0.8657
11300SOL     OW34869   4.251   1.982   0.735  0.3458  0.2693  0.5657
11300SOL    HW134870   4.277   1.890   0.742  1.4136  0.3778 -1.3774
11300SOL    HW234871   4.156   1.980   0.749  0.3857 -1.0963  0.8219
11301SOL     OW34872   4.664   6.187   2.235  0.0604  0.1745  0.3677
11301SOL    HW134873   4.672   6.142   2.319  0.0431  0.3916  0.4873
11301SOL    HW234874   4.577   6.166   2.204 -0.6042  1.4828  1.2238
11302SOL     OW34875   3.283   2.651   4.061 -0.1219 -0.1169 -0.1938
11302SOL    HW134876   3.233   2.730   4.084 -2.4537 -1.4930 -0.1663
11302SOL    HW234877   3.277   2.596   4.138 -2.1027 -1.9479 -1.5337
11303SOL     OW34878   6.636   3.588   4.581  0.3430 -0.3516 -0.4138
11303SOL    HW134879   6.638   3.665   4.524  1.2040 -0.5270 -0.6318
11303SOL    HW234880   6.620   3.514   4.522  2.9818 -0.7645 -0.7507
11304SOL     OW34881   2.475   1.772   2.637  0.0979  0.2713 -0.4489
11304SOL    HW134882   2.465   1.681   2.665 -2.5174  0.7790  0.5963
11304SOL    HW234883   2.401   1.817   2.678  0.3762  2.5595 -2.2910
11305SOL     OW34884   5.948   3.202   0.213  0.7581  0.7652  0.0126
11305SOL    HW134885   5.962   3.287   0.255 -2.1404  1.3489  0.0224
11305SOL    HW234886   5.933   3.142   0.285  1.6509  0.4568 -0.0416
11306SOL     OW34887   0.843   4.435   2.037 -0.4261  0.4570  0.7805
11306SOL    HW134888   0.892   4.480   1.968  0.1986 -0.6705  0.4711
11306SOL    HW234889   0.907   4.423   2.108  0.5795 -3.1123 -0.5017
11307SOL     OW34890   1.142   1.331   4.114 -0.3310 -0.1803  0.3039
11307SOL    HW134891   1.144   1.392   4.188 -1.4516 -0.5945  0.7025
11307SOL    HW234892   1.050   1.327   4.089 -0.5762 -2.8786  1.2953
11308SOL     OW34893   4.975   6.807   7.002  0.1630 -0.4885  0.0066
11308SOL    HW134894   4.962   6.834   7.092 -0.0825  1.5924 -0.6034
11308SOL    HW234895   4.898   6.754   6.981  0.3799 -1.2724  1.0804
11309SOL     OW34896   3.259   2.070   2.319  0.1915 -0.0638 -0.8670
11309SOL    HW134897   3.198   2.102   2.386 -0.6432 -0.9060 -1.1996
11309SOL    HW234898   3.203   2.029   2.253  1.1323 -1.4225 -0.8776
11310SOL     OW34899   5.083   0.356   5.142  0.4687  0.3371  0.6349
11310SOL    HW134900   5.135   0.344   5.062 -2.6351 -0.6882 -1.4246
11310SOL    HW234901   5.109   0.284   5.199 -0.6336 -1.9773 -1.5816
11311SOL     OW34902   1.960   3.238   0.863  0.3456 -0.1648  0.1904
11311SOL    HW134903   1.884   3.289   0.891  1.0280  0.6084  0.6620
11311SOL    HW234904   2.035   3.282   0.903  0.8807 -2.1488  1.5116
11312SOL     OW34905   5.082   6.974   0.867 -0.5522  0.0420  0.9203
11312SOL    HW134906   5.065   6.880   0.876 -0.1963  0.0451  1.6252
11312SOL    HW234907   4.996   7.012   0.851 -0.5502 -0.5555 -0.8364
11313SOL     OW34908   0.751   0.688   0.714  0.2475  0.5436 -0.2593
11313SOL    HW134909   0.671   0.739   0.717 -0.1908 -0.1235  3.0323
11313SOL    HW234910   0.733   0.618   0.651 -1.8732  0.2793  0.5624
11314SOL     OW34911   6.497   1.423   3.596 -0.3352  0.4532  0.0499
11314SOL    HW134912   6.504   1.498   3.538  1.1194  1.0444  0.9337
11314SOL    HW234913   6.428   1.446   3.658  0.6447  1.4607  0.8135
11315SOL     OW34914   3.846   7.016   4.579  0.0859  0.4736  0.0995
11315SOL    HW134915   3.873   7.026   4.487 -0.8247 -1.4769 -0.4388
11315SOL    HW234916   3.809   6.928   4.583 -2.7171  1.6052  1.6362
11316SOL     OW34917   4.571   4.727   6.827  0.1704  0.2950  0.0924
11316SOL    HW134918   4.603   4.815   6.809  0.9148  0.2106  0.9059
11316SOL    HW234919   4.632   4.692   6.892 -0.1689 -0.7887 -0.1480
11317SOL     OW34920   0.513   7.154   2.593  0.2259  0.2099 -0.1523
11317SOL    HW134921   0.474   7.224   2.542  0.1690 -0.2060 -0.6886
11317SOL    HW234922   0.445   7.088   2.600  1.0401 -0.8484 -1.7328
11318SOL     OW34923   6.462   0.953   7.317 -0.5626 -0.0057  0.4874
11318SOL    HW134924   6.459   0.870   7.364  0.2887  0.9434  2.3739
11318SOL    HW234925   6.393   1.006   7.358 -1.5667  0.0281 -1.1631
11319SOL     OW34926   1.967   3.531   3.849 -0.4219  0.2595 -0.3381
11319SOL    HW134927   1.992   3.507   3.939  1.4823  0.1456 -0.8466
11319SOL    HW234928   1.937   3.449   3.810  1.8803 -0.4574 -0.7440
11320SOL     OW34929   0.738   4.216   0.724  0.3023  0.4568 -0.2159
11320SOL    HW134930   0.746   4.146   0.789  1.1904  0.9285  0.1945
11320SOL    HW234931   0.821   4.263   0.728  0.1803  0.8149 -1.3320
11321SOL     OW34932   5.418   1.329   6.383 -0.6796  0.4177 -0.2428
11321SOL    HW134933   5.413   1.360   6.474 -1.5283  0.0611 -0.1631
11321SOL    HW234934   5.419   1.409   6.330 -1.9616  0.6210  0.0032
11322SOL     OW34935   1.196   2.066   5.024 -0.4916  0.3789 -0.3671
11322SOL    HW134936   1.127   2.116   4.981 -1.0489  0.2898  0.4042
11322SOL    HW234937   1.150   2.008   5.084  0.2241 -0.1145 -0.2839
11323SOL     OW34938   0.008   2.531   5.094 -0.1157 -0.6484  0.0846
11323SOL    HW134939   0.046   2.564   5.012  0.4439 -0.5094  0.3988
11323SOL    HW234940   0.041   2.590   5.162 -3.2525  1.3499  0.0675
11324SOL     OW34941   3.109   5.619   3.502  0.2149 -0.1011 -0.7442
11324SOL    HW134942   3.016   5.599   3.510  0.2504  0.3707  1.2617
11324SOL    HW234943   3.113   5.683   3.432 -1.0488  0.3299 -0.4506
11325SOL     OW34944   7.129   0.029   6.798  0.5247  0.4193  0.2345
11325SOL    HW134945   7.069  -0.031   6.754  0.9831 -0.1545  0.3860
11325SOL    HW234946   7.132   0.106   6.740 -0.5908  0.5903  0.3835
11326SOL     OW34947   5.962   3.884   4.762  0.0272 -0.5535 -0.2969
11326SOL    HW134948   5.920   3.930   4.689  1.0015  0.1039 -0.4618
11326SOL    HW234949   5.992   3.801   4.724 -0.2331 -0.5899 -0.4244
11327SOL     OW34950   1.271   1.425   2.056 -0.1718  0.9018 -0.0552
11327SOL    HW134951   1.209   1.482   2.101  1.4625  2.8992 -0.1740
11327SOL    HW234952   1.279   1.464   1.969  0.4936  0.0844 -0.3672
11328SOL     OW34953   6.281   0.387   1.163 -0.3073 -0.0611 -0.2173
11328SOL    HW134954   6.233   0.329   1.222 -2.1198  0.7911 -0.7993
11328SOL    HW234955   6.347   0.330   1.123 -1.3139 -1.4724  0.0519
11329SOL     OW34956   6.471   6.383   4.062 -0.3620  0.2404 -0.0684
11329SOL    HW134957   6.515   6.356   3.981  2.7500 -3.6808  2.5289
11329SOL    HW234958   6.382   6.349   4.053 -0.1822  0.1607 -1.9571
11330SOL     OW34959   0.805   3.728   6.250 -0.2864 -0.3456  0.2586
11330SOL    HW134960   0.859   3.659   6.288  0.3162 -0.7056 -1.2024
11330SOL    HW234961   0.841   3.810   6.286  2.9640 -0.3322 -2.5157
11331SOL     OW34962   1.125   0.917   5.489 -0.3007  0.0632  0.5459
11331SOL    HW134963   1.187   0.846   5.476 -1.2832 -0.4687 -1.5531
11331SOL    HW234964   1.164   0.970   5.559  1.8122 -0.9899  0.2356
11332SOL     OW34965   3.370   5.846   2.836 -0.1321  0.5579  0.2508
11332SOL    HW134966   3.334   5.912   2.778 -1.4282 -0.0967  0.2747
11332SOL    HW234967   3.307   5.774   2.833  1.3010 -0.7578  0.0952
11333SOL     OW34968   4.017   6.455   3.221 -0.3206  0.3005  0.2028
11333SOL    HW134969   4.017   6.384   3.284  0.8912  0.7218  0.7081
11333SOL    HW234970   4.082   6.429   3.155  0.3349  1.0403  0.5387
11334SOL     OW34971   2.214   4.164   4.321  0.1012  0.2753 -0.1555
11334SOL    HW134972   2.164   4.175   4.240 -0.5531  1.6140  0.4024
11334SOL    HW234973   2.302   4.196   4.300  0.2443 -0.4133 -0.6333
11335SOL     OW34974   0.224   6.133   2.578  0.4673  1.0115 -0.0882
11335SOL    HW134975   0.288   6.192   2.618  1.0368 -0.5953  1.4748
11335SOL    HW234976   0.139   6.170   2.604  0.7877  1.8856 -0.2519
11336SOL     OW34977   3.696   6.464   2.629 -0.2825  0.9927  0.3805
11336SOL    HW134978   3.764   6.399   2.611  0.0432  1.1006  1.1985
11336SOL    HW234979   3.714   6.535   2.568 -0.0023  0.7764  0.2111
11337SOL     OW34980   4.540   5.401   3.466  0.1254 -0.4138  0.0779
11337SOL    HW134981   4.632   5.412   3.443 -0.2131  1.4462 -0.5377
11337SOL    HW234982   4.494   5.467   3.414 -1.4370 -0.6052  1.1552
11338SOL     OW34983   5.537   0.335   0.709  0.4883  0.2208  0.0647
11338SOL    HW134984   5.598   0.294   0.648 -0.2177  0.8411 -1.0872
11338SOL    HW234985   5.450   0.310   0.677  0.1021  0.6647  0.7309
11339SOL     OW34986   4.043   1.849   5.957 -0.3082  0.2262 -0.0358
11339SOL    HW134987   4.053   1.775   6.017  0.5012 -0.3168 -0.8046
11339SOL    HW234988   4.035   1.925   6.015 -2.4940 -0.5533  0.8010
11340SOL     OW34989   3.784   3.402   7.207  0.0470  0.2449  0.0082
11340SOL    HW134990   3.785   3.358   7.292 -0.0573 -0.1718 -0.2067
11340SOL    HW234991   3.873   3.391   7.173 -0.2001 -0.5154 -0.4105
11341SOL     OW34992   0.318   2.534   5.242 -0.4789 -0.8181  0.6233
11341SOL    HW134993   0.362   2.590   5.307  0.5454 -0.6773 -0.1642
11341SOL    HW234994   0.226   2.536   5.267 -0.3906  0.8076  0.9167
11342SOL     OW34995   6.338   2.918   1.769  0.3008  0.2843  0.3740
11342SOL    HW134996   6.281   2.995   1.767  0.0351  0.0810 -1.6217
11342SOL    HW234997   6.303   2.864   1.840  0.2027  1.7480  1.4960
11343SOL     OW34998   0.921   4.509   5.028 -0.4839  0.3981  0.0176
11343SOL    HW134999   0.974   4.589   5.031 -0.8486  0.6520 -0.2912
11343SOL    HW235000   0.985   4.438   5.017 -0.1590  0.6401  0.3143
11344SOL     OW35001   0.093   3.280   6.572 -0.6368  0.1071 -0.1270
11344SOL    HW135002   0.182   3.269   6.538 -0.4596  0.6858  0.1533
11344SOL    HW235003   0.101   3.267   6.666 -0.9457 -0.3914 -0.1668
11345SOL     OW35004   2.301   2.549   0.558  0.0570 -0.6610 -0.6290
11345SOL    HW135005   2.287   2.627   0.612 -0.1053 -0.0012 -1.6084
11345SOL    HW235006   2.227   2.548   0.497  0.6425 -0.9700 -1.3430
11346SOL     OW35007   6.786   3.318   6.152  0.3786  0.6362 -0.2476
11346SOL    HW135008   6.841   3.276   6.085 -0.5696  0.7877 -1.1417
11346SOL    HW235009   6.704   3.269   6.149 -0.4215  1.9619 -0.6619
11347SOL     OW35010   3.693   2.121   4.739 -0.9719  0.5489  0.6424
11347SOL    HW135011   3.637   2.145   4.813 -0.1687 -1.0685  1.8524
11347SOL    HW235012   3.666   2.032   4.717 -1.3256  1.0617 -1.1951
11348SOL     OW35013   0.956   3.686   4.486  0.0356 -0.4928  0.1070
11348SOL    HW135014   0.867   3.707   4.514  0.2415  1.4618 -0.5817
11348SOL    HW235015   0.978   3.753   4.422  0.7942 -2.9220 -2.3325
11349SOL     OW35016   2.383   0.890   6.683 -0.3695  0.2619  0.0091
11349SOL    HW135017   2.429   0.817   6.641  2.0991  0.3873  2.2306
11349SOL    HW235018   2.397   0.964   6.623  0.2227 -0.2819 -0.5453
11350SOL     OW35019   4.557   5.701   4.264  0.3575 -0.5552 -0.0682
11350SOL    HW135020   4.650   5.700   4.240  0.6884 -0.9092  1.1832
11350SOL    HW235021   4.511   5.693   4.180  1.4685 -3.0590 -0.5343
11351SOL     OW35022   1.869   0.521   4.099 -0.2448  0.1888  0.1698
11351SOL    HW135023   1.774   0.513   4.090 -0.2125 -0.8430  0.6383
11351SOL    HW235024   1.901   0.525   4.009 -0.5220 -2.4551 -0.1358
11352SOL     OW35025   2.076   3.641   4.851  0.5003 -0.0166 -0.1891
11352SOL    HW135026   2.157   3.599   4.823 -0.3399 -2.3789  0.6744
11352SOL    HW235027   2.102   3.694   4.926  1.3663 -0.1758 -0.3659
11353SOL     OW35028   0.085   0.444   0.898 -0.6649  0.2109  0.2388
11353SOL    HW135029   0.098   0.498   0.975  0.4996 -1.0118  0.9370
11353SOL    HW235030   0.035   0.500   0.838 -1.2660  1.3094  1.7078
11354SOL     OW35031   1.527   5.119   2.475 -0.3279  0.5171 -0.2325
11354SOL    HW135032   1.453   5.111   2.416 -0.7806  0.3361  0.3538
11354SOL    HW235033   1.601   5.141   2.418 -0.0669 -2.7136 -1.3116
11355SOL     OW35034   4.193   6.913   3.981  0.1970 -0.7365  0.1785
11355SOL    HW135035   4.159   6.995   4.018  1.3586 -0.8837  1.6541
11355SOL    HW235036   4.142   6.845   4.025  0.8733 -0.8771  0.7580
11356SOL     OW35037   2.570   0.067   5.990  0.6698 -0.2246  0.0837
11356SOL    HW135038   2.486   0.020   5.987 -0.7929  2.0692  1.6793
11356SOL    HW235039   2.575   0.113   5.906  1.1654 -1.6392 -0.6851
11357SOL     OW35040   4.112   4.631   2.033 -0.3995 -0.1267  0.0460
11357SOL    HW135041   4.205   4.629   2.010 -0.8521 -1.1885 -1.9129
11357SOL    HW235042   4.075   4.553   1.991 -2.1724  0.2206  0.8540
11358SOL     OW35043   1.755   1.096   4.462  0.0544 -0.1457 -0.1911
11358SOL    HW135044   1.831   1.136   4.420  0.1913  0.4397  0.5949
11358SOL    HW235045   1.761   1.003   4.438  0.3355  0.1048 -1.1331
11359SOL     OW35046   0.822   1.285   2.027 -0.0651 -0.7287 -0.4320
11359SOL    HW135047   0.764   1.223   1.982 -0.0305 -0.0137 -1.4872
11359SOL    HW235048   0.894   1.299   1.967  0.7793 -0.9286  0.5101
11360SOL     OW35049   6.099   6.381   1.295  0.0119  0.3427  0.3394
11360SOL    HW135050   6.185   6.423   1.300 -0.2135  0.9242 -0.4840
11360SOL    HW235051   6.111   6.311   1.231 -0.4055  1.1699 -0.6804
11361SOL     OW35052   0.373   5.350   6.323 -0.4069  0.0593  0.1723
11361SOL    HW135053   0.416   5.424   6.280 -0.6106  0.3542  0.4796
11361SOL    HW235054   0.292   5.338   6.273  0.5269 -1.2124 -1.1265
11362SOL     OW35055   6.634   0.937   2.112  0.1638 -0.3099  0.0394
11362SOL    HW135056   6.693   0.887   2.056  0.3913  0.5468 -0.5102
11362SOL    HW235057   6.566   0.968   2.053  0.4367  0.6479  0.2125
11363SOL     OW35058   4.538   0.450   6.933 -0.2340 -0.2964  0.3244
11363SOL    HW135059   4.617   0.496   6.904  0.4072 -2.1153 -0.9986
11363SOL    HW235060   4.475   0.464   6.862 -0.7571  0.2503  0.8846
11364SOL     OW35061   1.703   3.280   6.889 -0.3273  0.7206 -0.3478
11364SOL    HW135062   1.641   3.329   6.943  0.1866 -0.2636  1.1965
11364SOL    HW235063   1.779   3.265   6.946  0.0964 -0.6741 -1.2103
11365SOL     OW35064   6.672   2.737   7.062  0.0615  0.7622  0.1938
11365SOL    HW135065   6.649   2.828   7.041  0.3829  0.9474  0.6208
11365SOL    HW235066   6.590   2.689   7.054 -0.1585  1.1354  0.1836
11366SOL     OW35067   2.012   1.682   4.840 -0.2736 -0.6156 -0.5248
11366SOL    HW135068   2.046   1.757   4.889  0.5761 -1.9201  0.9700
11366SOL    HW235069   1.919   1.702   4.828 -0.9128 -0.8516  2.9768
11367SOL     OW35070   2.459   4.417   5.835  0.5577 -0.0625 -0.0627
11367SOL    HW135071   2.376   4.455   5.806 -0.4748  1.1396  3.9317
11367SOL    HW235072   2.526   4.480   5.807 -0.2256  0.6007 -0.4723
11368SOL     OW35073   4.024   3.297   1.106 -0.7498  0.0774  0.5729
11368SOL    HW135074   4.075   3.375   1.128 -1.1009  0.4900 -0.0513
11368SOL    HW235075   4.088   3.227   1.099 -0.3321  0.4796  0.3302
11369SOL     OW35076   2.130   6.152   3.897  0.0743  0.0444 -0.0055
11369SOL    HW135077   2.171   6.160   3.811  2.3236  1.0046  1.0709
11369SOL    HW235078   2.112   6.242   3.924  2.3196  0.0834  1.7552
11370SOL     OW35079   5.292   5.418   6.126  0.3937  0.3480  0.0355
11370SOL    HW135080   5.295   5.342   6.184 -2.7166 -0.4015 -0.6214
11370SOL    HW235081   5.228   5.395   6.059 -0.7462  3.5451 -0.1493
11371SOL     OW35082   2.927   5.503   2.797 -0.8168 -0.0379  0.4427
11371SOL    HW135083   2.894   5.442   2.732 -2.2278 -0.7545  1.7625
11371SOL    HW235084   2.860   5.571   2.802 -0.7409 -0.0086  1.1621
11372SOL     OW35085   6.542   5.093   4.360  0.4557  0.4555  0.1961
11372SOL    HW135086   6.459   5.048   4.342  0.2968  0.8031  0.0416
11372SOL    HW235087   6.606   5.022   4.372  0.0058  0.1649  0.9945
11373SOL     OW35088   4.925   6.360   0.799 -0.2199  0.2812  0.1048
11373SOL    HW135089   4.867   6.397   0.732 -0.8343 -0.5946  0.1405
11373SOL    HW235090   4.867   6.337   0.871  0.3100  0.2962  0.5446
11374SOL     OW35091   4.281   1.788   4.466  0.1353 -0.0599 -0.0396
11374SOL    HW135092   4.332   1.862   4.432 -1.2870  0.7199 -0.5903
11374SOL    HW235093   4.339   1.744   4.528  1.3736  0.9135 -0.4761
11375SOL     OW35094   5.140   1.824   5.104 -0.4990 -0.2643  0.0043
11375SOL    HW135095   5.207   1.756   5.102  1.5346  1.6045  0.4816
11375SOL    HW235096   5.066   1.784   5.151  0.6305 -2.0916  0.3091
11376SOL     OW35097   1.172   6.836   6.501  0.5239  0.0339 -0.3719
11376SOL    HW135098   1.112   6.908   6.522  0.3645 -0.0870 -0.4098
11376SOL    HW235099   1.241   6.842   6.566  0.9227  0.7011 -0.8494
11377SOL     OW35100   4.314   1.417   4.822 -0.2550  0.2601 -0.0272
11377SOL    HW135101   4.224   1.388   4.807 -0.6611  0.7040  1.3899
11377SOL    HW235102   4.368   1.350   4.781 -1.2098 -0.9517  0.6374
11378SOL     OW35103   2.301   4.063   3.603  0.1813  0.3311  0.0677
11378SOL    HW135104   2.213   4.050   3.639  0.5138  2.1881  1.7514
11378SOL    HW235105   2.359   4.023   3.668  0.6174 -0.1976 -0.6404
11379SOL     OW35106   7.198   4.162   5.753  0.0716  0.0008  0.3882
11379SOL    HW135107   7.111   4.201   5.760 -0.1261 -0.6438  1.7958
11379SOL    HW235108   7.182   4.071   5.728  0.3713  0.0062  0.1657
11380SOL     OW35109   1.267   7.216   1.368  0.0663  1.0112  0.7473
11380SOL    HW135110   1.271   7.311   1.353  0.5626  0.9024  0.1138
11380SOL    HW235111   1.252   7.179   1.282  1.3789  0.4390  0.7342
11381SOL     OW35112   5.654   4.621   2.134  0.5380 -0.1331  0.3108
11381SOL    HW135113   5.595   4.579   2.197  1.4646 -0.3840  1.0345
11381SOL    HW235114   5.723   4.659   2.187  1.9980 -1.3867 -0.5895
11382SOL     OW35115   3.859   1.977   3.115 -0.2740  0.1025 -0.1627
11382SOL    HW135116   3.831   2.058   3.073  2.0368  0.6499 -0.8061
11382SOL    HW235117   3.895   2.004   3.199  0.7374 -0.2020 -0.4838
11383SOL     OW35118   3.897   1.477   0.731 -0.0846 -0.0478 -0.0754
11383SOL    HW135119   3.865   1.477   0.821  0.3156 -0.3981  0.0715
11383SOL    HW235120   3.817   1.477   0.677 -0.3881 -2.1886  0.2868
11384SOL     OW35121   6.435   5.604   5.639 -0.4930  0.0936  0.2734
11384SOL    HW135122   6.481   5.603   5.723 -0.5641  0.4216  0.3158
11384SOL    HW235123   6.505   5.615   5.574 -0.6971  4.4693  0.5040
11385SOL     OW35124   2.053   4.738   2.855  0.2347 -0.0051  0.4634
11385SOL    HW135125   2.022   4.680   2.786  0.7508  1.9131 -1.4818
11385SOL    HW235126   1.977   4.791   2.878  0.2445 -0.1734  0.8988
11386SOL     OW35127   2.926   4.944   0.472  0.0476 -0.0946 -0.3376
11386SOL    HW135128   2.997   4.987   0.426  0.2744 -1.6339 -1.4958
11386SOL    HW235129   2.870   4.908   0.403 -0.4842 -1.0743  0.5671
11387SOL     OW35130   1.087   1.744   1.653 -0.0750 -1.0047 -0.1308
11387SOL    HW135131   1.085   1.833   1.689  0.3638 -0.8877 -0.3881
11387SOL    HW235132   1.143   1.751   1.576 -0.4748 -1.3947 -0.4599
11388SOL     OW35133   7.279   4.626   6.438  0.4927  0.6715 -0.6913
11388SOL    HW135134   7.316   4.551   6.485 -0.0398 -0.2117 -1.6317
11388SOL    HW235135   7.193   4.595   6.409  0.2310  1.6876 -1.0099
11389SOL     OW35136   4.766   2.906   5.580  0.1316  0.1575  0.0812
11389SOL    HW135137   4.702   2.844   5.615 -0.3913 -0.1232 -1.2820
11389SOL    HW235138   4.801   2.950   5.657 -1.6620  0.2773  0.8966
11390SOL     OW35139   0.690   2.832   6.150 -0.6492  0.2350  0.3213
11390SOL    HW135140   0.770   2.785   6.172 -0.8670 -1.8789 -2.8607
11390SOL    HW235141   0.646   2.843   6.235  0.1565 -4.0256  1.5636
11391SOL     OW35142   3.839   0.876   0.401  0.2616  0.0310  0.2608
11391SOL    HW135143   3.892   0.916   0.470  1.1014  0.0322 -0.3682
11391SOL    HW235144   3.766   0.937   0.388  0.0802  0.0121  1.1566
11392SOL     OW35145   3.063   4.543   3.890 -0.3165  0.2944 -0.1528
11392SOL    HW135146   2.999   4.612   3.906 -1.5718 -0.9835  0.5628
11392SOL    HW235147   3.141   4.570   3.938 -1.4455  0.2825  1.7528
11393SOL     OW35148   4.681   2.986   0.924  0.0017  0.2486 -0.0548
11393SOL    HW135149   4.758   3.036   0.896  0.9726 -1.4976 -0.6646
11393SOL    HW235150   4.611   3.015   0.866  0.8336  0.1001 -1.1795
11394SOL     OW35151   6.997   2.340   1.545 -0.3473 -0.0895  0.5876
11394SOL    HW135152   6.993   2.246   1.527 -1.0990  0.1620 -0.6302
11394SOL    HW235153   7.086   2.355   1.577  1.2810 -0.5472 -3.2585
11395SOL     OW35154   1.112   0.237   1.776 -0.2637 -0.0342  0.1550
11395SOL    HW135155   1.126   0.292   1.854  1.8296 -1.6578  1.0191
11395SOL    HW235156   1.026   0.263   1.744 -0.0390  2.6442  1.3958
11396SOL     OW35157   1.613   5.101   5.786 -0.6354  0.1772 -0.4623
11396SOL    HW135158   1.557   5.178   5.792  1.6136  1.8824 -0.0591
11396SOL    HW235159   1.625   5.074   5.877  1.7625  1.8948 -0.1617
11397SOL     OW35160   5.764   4.272   5.725 -0.0752 -0.4273  0.0530
11397SOL    HW135161   5.816   4.203   5.683  1.1978  0.6084 -0.0967
11397SOL    HW235162   5.809   4.290   5.807 -0.8848 -0.3382  0.4934
11398SOL     OW35163   7.227   1.434   4.767  1.0943  0.0732  0.2745
11398SOL    HW135164   7.291   1.435   4.696 -1.0347  0.5208 -1.7526
11398SOL    HW235165   7.151   1.481   4.732 -0.1645  0.0698  2.7597
11399SOL     OW35166   3.532   6.000   3.155  0.0766  0.2731 -0.7183
11399SOL    HW135167   3.617   6.017   3.114  0.3205  0.9760  0.0367
11399SOL    HW235168   3.539   5.911   3.189  0.2442  0.0641 -1.3040
11400SOL     OW35169   4.163   4.615   6.604 -0.2681 -0.1297  0.8302
11400SOL    HW135170   4.122   4.691   6.646 -0.2072  0.7391 -0.6560
11400SOL    HW235171   4.244   4.601   6.654  0.1357  1.2952  0.6163
11401SOL     OW35172   4.483   0.066   3.207  0.0369 -0.0073  0.0236
11401SOL    HW135173   4.458  -0.026   3.219 -0.7805 -0.2097 -2.6327
11401SOL    HW235174   4.579   0.065   3.213  0.1393 -1.3026 -1.2285
11402SOL     OW35175   5.983   4.228   1.666 -0.2617  0.1185  0.0175
11402SOL    HW135176   5.914   4.295   1.668 -0.7503 -0.3509 -0.5939
11402SOL    HW235177   5.962   4.170   1.739 -0.8175 -0.2953 -0.4506
11403SOL     OW35178   6.229   2.204   1.662  0.0723 -0.2809  0.0365
11403SOL    HW135179   6.277   2.226   1.742 -0.8347 -1.8542  1.0593
11403SOL    HW235180   6.192   2.287   1.632  0.5523  0.3534  1.1541
11404SOL     OW35181   6.487   4.212   0.004 -0.3411 -0.0933 -0.1739
11404SOL    HW135182   6.492   4.290   0.060  1.8966 -0.3887  0.1532
11404SOL    HW235183   6.567   4.163   0.025 -0.5888 -1.3689 -1.9892
11405SOL     OW35184   5.735   4.585   4.306  0.3652 -1.1139  0.1333
11405SOL    HW135185   5.760   4.668   4.264  0.0962 -1.0534  0.0946
11405SOL    HW235186   5.640   4.585   4.305  0.3641 -1.3796  0.2260
11406SOL     OW35187   1.537   4.844   1.676 -0.5723 -0.2223  0.0858
11406SOL    HW135188   1.447   4.835   1.645 -1.3587  0.1453  2.1118
11406SOL    HW235189   1.538   4.926   1.725  0.7783 -0.3832  0.3757
11407SOL     OW35190   2.085   3.905   1.421 -0.1076 -0.0104 -0.2147
11407SOL    HW135191   2.158   3.894   1.482 -0.1265 -0.2366 -0.2315
11407SOL    HW235192   2.009   3.922   1.477  0.2826  2.1090 -0.2650
11408SOL     OW35193   0.364   6.740   0.062  0.0648  0.1317  0.4684
11408SOL    HW135194   0.415   6.685   0.121 -1.5010 -1.7919  0.1438
11408SOL    HW235195   0.273   6.724   0.088 -0.5013  1.5831 -0.5218
11409SOL     OW35196   4.336   2.845   4.952 -0.1229  0.0949 -0.0607
11409SOL    HW135197   4.390   2.886   4.883 -0.7089  0.1813 -0.4758
11409SOL    HW235198   4.396   2.786   4.997  0.7458  1.4210  0.5678
11410SOL     OW35199   2.849   3.905   0.641  0.3365  0.2534 -0.0497
11410SOL    HW135200   2.804   3.894   0.725  2.3201 -0.9563  0.9352
11410SOL    HW235201   2.803   3.977   0.599 -0.8109  0.8373  2.0322
11411SOL     OW35202   5.756   2.198   6.341  0.4973 -0.6483 -0.4762
11411SOL    HW135203   5.745   2.123   6.283  1.2888 -1.3245  0.2275
11411SOL    HW235204   5.830   2.175   6.397  1.2478  0.9995 -0.7639
11412SOL     OW35205   6.744   3.620   6.179 -0.2601  0.1976 -0.4463
11412SOL    HW135206   6.661   3.658   6.151 -1.1774  0.3589  2.2356
11412SOL    HW235207   6.740   3.529   6.149 -0.6619  0.6152 -1.7354
11413SOL     OW35208   3.857   6.956   7.134 -0.6880  0.0363  0.3183
11413SOL    HW135209   3.888   7.040   7.166 -0.5925  0.4529 -0.8408
11413SOL    HW235210   3.782   6.977   7.079  0.4065 -0.4425 -1.4378
11414SOL     OW35211   1.279   0.297   7.023  0.0764  0.4790  0.6807
11414SOL    HW135212   1.292   0.284   7.117 -0.3083 -1.2318  0.5289
11414SOL    HW235213   1.366   0.319   6.990  0.6406 -0.9683  1.1426
11415SOL     OW35214   5.345   6.701   3.925 -0.1651 -0.1212 -0.3592
11415SOL    HW135215   5.378   6.776   3.975  5.6307 -3.2283  1.4373
11415SOL    HW235216   5.310   6.642   3.991 -2.1653 -0.2273 -1.4358
11416SOL     OW35217   3.910   2.138   3.878  0.0784 -0.4752  0.0870
11416SOL    HW135218   3.926   2.116   3.969  0.2671 -0.6632  0.0078
11416SOL    HW235219   3.909   2.234   3.877  0.0964 -0.4724  0.2819
11417SOL     OW35220   6.493   5.710   1.762  0.2270 -0.3306  0.6125
11417SOL    HW135221   6.558   5.644   1.742  0.6392  0.6211 -1.3821
11417SOL    HW235222   6.544   5.787   1.788 -0.0571  0.4073 -0.9206
11418SOL     OW35223   5.025   2.330   4.966 -0.2736 -0.1059  0.1163
11418SOL    HW135224   5.050   2.378   4.887  0.3461  0.2301  0.5128
11418SOL    HW235225   4.996   2.245   4.933 -0.1451  0.0751 -0.4879
11419SOL     OW35226   0.354   5.109   2.741 -0.0038 -0.3674 -0.0675
11419SOL    HW135227   0.384   5.021   2.762 -1.5368 -0.9543 -0.2272
11419SOL    HW235228   0.263   5.112   2.772 -0.1587  0.9738 -0.5659
11420SOL     OW35229   0.369   3.191   2.459 -0.1886 -0.2420 -0.4081
11420SOL    HW135230   0.283   3.183   2.417 -0.4929  0.1777  0.1241
11420SOL    HW235231   0.390   3.284   2.454 -0.4309 -0.1081  0.7502
11421SOL     OW35232   1.571   2.489   0.263  0.2891 -0.2973 -0.1327
11421SOL    HW135233   1.497   2.549   0.270 -0.0136 -0.5727 -0.8936
11421SOL    HW235234   1.532   2.401   0.262  0.4717 -0.4134 -2.0325
11422SOL     OW35235   0.503   3.624   5.298 -0.3202 -0.0118  0.3358
11422SOL    HW135236   0.598   3.621   5.294 -0.3464  0.1997 -0.6135
11422SOL    HW235237   0.474   3.556   5.238 -0.7682  1.0448 -0.6687
11423SOL     OW35238   2.910   5.872   1.332 -0.2766 -0.5810  0.5001
11423SOL    HW135239   2.956   5.957   1.328 -1.4971  0.0714 -0.2906
11423SOL    HW235240   2.961   5.815   1.274  0.9129 -0.5986  1.5096
11424SOL     OW35241   1.581   6.248   0.920  0.3569  0.7757 -0.4253
11424SOL    HW135242   1.586   6.286   0.832 -1.0664  1.3292 -0.3029
11424SOL    HW235243   1.663   6.273   0.963  1.1973  0.2547 -1.6764
11425SOL     OW35244   5.084   3.332   5.011  0.4346  0.0657 -0.6429
11425SOL    HW135245   5.053   3.380   5.088 -0.0773 -0.8857 -0.2414
11425SOL    HW235246   5.071   3.240   5.033  0.1200 -0.2169 -1.9341
11426SOL     OW35247   1.559   2.033   1.156  0.0292  0.4092 -0.1324
11426SOL    HW135248   1.517   2.086   1.223 -0.6200 -2.5806  2.0273
11426SOL    HW235249   1.653   2.044   1.171 -0.1093 -0.0110  1.1477
11427SOL     OW35250   0.435   6.199   4.927  0.2112  0.3183 -0.0554
11427SOL    HW135251   0.347   6.183   4.895  0.4573 -0.6764 -0.2474
11427SOL    HW235252   0.490   6.137   4.880  1.0461  1.0272 -0.0521
11428SOL     OW35253   5.505   5.091   5.593  0.6635  0.0335  0.4074
11428SOL    HW135254   5.516   5.103   5.688  0.0198 -0.3802  0.5404
11428SOL    HW235255   5.573   5.145   5.554 -0.2411  1.7261  1.0539
11429SOL     OW35256   3.150   0.612   4.431  0.0823  0.7322  0.4151
11429SOL    HW135257   3.155   0.620   4.526 -1.1169  0.5910  0.5068
11429SOL    HW235258   3.115   0.524   4.416  1.5092  0.2351 -0.2103
11430SOL     OW35259   3.352   4.481   2.846  0.9307  0.8757  0.3116
11430SOL    HW135260   3.290   4.441   2.907  2.4639 -0.7073  0.9091
11430SOL    HW235261   3.374   4.565   2.888  2.3488 -0.3995  2.3109
11431SOL     OW35262   2.137   0.157   5.522 -0.1343  0.3978  0.5518
11431SOL    HW135263   2.066   0.158   5.458 -0.1884 -0.2131  0.5982
11431SOL    HW235264   2.175   0.245   5.517  0.6531  0.0066 -1.1972
11432SOL     OW35265   6.489   1.617   5.141 -0.3606  0.2368 -0.1726
11432SOL    HW135266   6.513   1.590   5.053 -0.7554  0.5287 -0.3714
11432SOL    HW235267   6.394   1.625   5.140 -0.3408  0.5864  0.1768
11433SOL     OW35268   5.868   5.452   2.210 -0.1506  0.1064 -0.2884
11433SOL    HW135269   5.790   5.495   2.245 -0.3067  0.4930 -1.0872
11433SOL    HW235270   5.834   5.395   2.140  0.2896  0.4013 -0.7489
11434SOL     OW35271   3.146   1.161   7.076 -0.6173  0.0584  0.1365
11434SOL    HW135272   3.240   1.149   7.066 -0.7509 -0.3328 -0.7949
11434SOL    HW235273   3.109   1.073   7.070 -1.1145  0.2989 -0.5397
11435SOL     OW35274   1.158   3.950   6.753 -0.0159  0.4828 -0.4419
11435SOL    HW135275   1.157   3.870   6.700  1.5460 -0.0664  0.2741
11435SOL    HW235276   1.106   3.928   6.830 -1.4924  0.9606 -1.2637
11436SOL     OW35277   4.290   2.230   0.379  0.4626 -0.2504 -0.2062
11436SOL    HW135278   4.345   2.308   0.379  0.6714 -0.2883  2.7296
11436SOL    HW235279   4.224   2.247   0.312  0.7630  2.2304  0.0422
11437SOL     OW35280   2.093   6.964   3.365 -0.3776 -0.2537 -0.1048
11437SOL    HW135281   2.186   6.964   3.346 -0.6984  1.1832 -1.9109
11437SOL    HW235282   2.073   7.055   3.390 -1.5540 -0.1605 -1.2743
11438SOL     OW35283   5.016   6.733   5.216  0.4151 -0.2957  0.0855
11438SOL    HW135284   5.102   6.702   5.246  0.4592  0.9923  1.4492
11438SOL    HW235285   4.957   6.715   5.289 -0.0595  0.5372 -0.0806
11439SOL     OW35286   0.551   3.404   4.090 -0.0027 -0.0142  0.0327
11439SOL    HW135287   0.561   3.329   4.149 -0.7104  0.5526  0.8999
11439SOL    HW235288   0.629   3.401   4.034  0.7477 -0.4972  1.0735
11440SOL     OW35289   1.639   2.162   5.528  0.1994 -0.2824  0.4341
11440SOL    HW135290   1.667   2.216   5.454  0.2967 -0.8777  0.0333
11440SOL    HW235291   1.721   2.126   5.563  0.1114 -0.3830  0.5374
11441SOL     OW35292   6.216   2.751   7.097 -0.4684  0.3925 -0.5953
11441SOL    HW135293   6.311   2.739   7.093 -0.5551 -0.2518 -0.9626
11441SOL    HW235294   6.184   2.671   7.140 -0.6434  1.6987  1.8429
11442SOL     OW35295   0.132   0.674   1.093  0.0636  0.0591  0.0394
11442SOL    HW135296   0.044   0.707   1.078  0.4665  0.3138 -2.0238
11442SOL    HW235297   0.190   0.745   1.067  0.9218 -1.6076 -3.1058
11443SOL     OW35298   6.423   6.887   0.162 -1.3623  0.0000  0.2790
11443SOL    HW135299   6.429   6.933   0.246 -0.9721 -0.1510  0.3348
11443SOL    HW235300   6.378   6.805   0.184 -1.7497  0.2006  0.2411
11444SOL     OW35301   2.438   4.136   0.783  0.2858  0.5522  0.3389
11444SOL    HW135302   2.500   4.180   0.840 -0.5365  0.0263  1.7134
11444SOL    HW235303   2.401   4.066   0.838 -1.9266  1.2118 -0.2154
11445SOL     OW35304   2.570   3.832   2.741 -0.2326  0.2797 -0.2879
11445SOL    HW135305   2.601   3.867   2.824  1.6987 -0.1815 -0.7578
11445SOL    HW235306   2.525   3.751   2.763  0.9437 -0.2430  0.2688
11446SOL     OW35307   4.692   0.648   6.269  0.3740 -0.0808 -0.2792
11446SOL    HW135308   4.673   0.624   6.359 -0.4628  0.5613 -0.2722
11446SOL    HW235309   4.633   0.594   6.216  0.1772  0.2350 -0.3866
11447SOL     OW35310   3.565   3.624   3.818 -0.2009 -0.7022 -0.1501
11447SOL    HW135311   3.524   3.705   3.848 -1.0678 -1.0409 -0.3885
11447SOL    HW235312   3.586   3.576   3.898  3.2925  1.0872  0.2324
11448SOL     OW35313   6.773   1.033   5.506 -0.1229  0.3082 -0.0641
11448SOL    HW135314   6.721   0.955   5.489  0.4127  0.1484 -1.0751
11448SOL    HW235315   6.843   1.030   5.441 -0.8724  2.3510 -1.0505
11449SOL     OW35316   1.779   0.702   5.484  0.0503  0.6820  0.1060
11449SOL    HW135317   1.714   0.739   5.424  1.1095  1.1769 -0.7881
11449SOL    HW235318   1.732   0.635   5.534 -1.1171  0.9987 -0.5531
11450SOL     OW35319   4.514   3.282   2.111 -0.4366  0.0553  0.0434
11450SOL    HW135320   4.560   3.341   2.052 -0.8653  0.1033 -0.2489
11450SOL    HW235321   4.512   3.329   2.195  2.8414 -1.2432  1.0233
11451SOL     OW35322   2.108   5.775   2.404  0.1610  0.0975  0.1583
11451SOL    HW135323   2.122   5.864   2.371 -2.1817  0.8330  0.9584
11451SOL    HW235324   2.066   5.729   2.332  0.6978 -0.1679  0.0070
11452SOL     OW35325   2.660   1.565   6.072 -0.3941 -0.0320 -0.0841
11452SOL    HW135326   2.719   1.537   6.143  1.1597  2.7150 -0.1305
11452SOL    HW235327   2.718   1.575   5.997 -0.6801  3.2915  0.0063
11453SOL     OW35328   2.756   1.116   5.529  0.0297 -0.1973  0.2691
11453SOL    HW135329   2.806   1.040   5.559  0.1767  0.6353  2.2799
11453SOL    HW235330   2.681   1.079   5.483  0.7750 -1.5223  0.0688
11454SOL     OW35331   3.968   1.999   5.102 -0.3771  0.0599  0.2255
11454SOL    HW135332   4.006   2.083   5.076 -1.3782 -0.0420 -1.8054
11454SOL    HW235333   4.020   1.934   5.054 -0.2667 -0.4149  0.9743
11455SOL     OW35334   5.966   6.194   7.315 -0.4593 -0.1969  0.4879
11455SOL    HW135335   5.903   6.132   7.352 -1.0369 -0.7932 -1.3648
11455SOL    HW235336   5.960   6.271   7.371 -1.2844 -1.0360  1.6009
11456SOL     OW35337   2.790   1.800   6.412 -0.2405 -0.0997  0.5266
11456SOL    HW135338   2.805   1.811   6.318  0.6170 -2.5473  0.3040
11456SOL    HW235339   2.705   1.842   6.428  0.4450  2.0016 -0.9229
11457SOL     OW35340   4.564   3.057   5.456 -0.0445 -0.6045  0.3097
11457SOL    HW135341   4.627   3.010   5.510  1.4568  2.5099  1.5261
11457SOL    HW235342   4.491   3.077   5.515  0.4258  0.5748  0.5255
11458SOL     OW35343   6.986   5.397   3.860 -0.3618  0.0550  0.2255
11458SOL    HW135344   6.895   5.426   3.873 -0.4551  0.3891 -1.0141
11458SOL    HW235345   7.011   5.437   3.777  0.3893 -1.3501 -0.2503
11459SOL     OW35346   2.273   1.737   4.405 -0.7594 -0.0066  0.0217
11459SOL    HW135347   2.178   1.728   4.411 -0.7731 -0.0712 -0.3078
11459SOL    HW235348   2.307   1.652   4.431 -0.7345  0.4849  1.7278
11460SOL     OW35349   5.061   5.631   3.741  0.3739  0.4474  0.8550
11460SOL    HW135350   5.127   5.699   3.732  0.2112  0.4227 -1.0087
11460SOL    HW235351   5.105   5.550   3.714  0.0169  0.1467  1.1455
11461SOL     OW35352   3.841   1.662   6.368 -0.2721 -0.1610  0.0370
11461SOL    HW135353   3.929   1.657   6.331  0.2783  0.6577  1.1863
11461SOL    HW235354   3.854   1.688   6.459 -1.7265  0.3440  0.1295
11462SOL     OW35355   5.444   3.121   0.673 -0.2232 -0.4541  0.5487
11462SOL    HW135356   5.372   3.157   0.622  0.4807  0.4239  0.1608
11462SOL    HW235357   5.510   3.098   0.607  0.0191 -0.8677  0.9350
11463SOL     OW35358   6.056   5.917   1.298  0.0256  0.0740  0.7500
11463SOL    HW135359   6.036   5.914   1.205 -0.5798  0.8438  0.8529
11463SOL    HW235360   6.146   5.883   1.304  0.6864  1.5226 -0.2991
11464SOL     OW35361   2.364   0.987   7.120  1.0423  0.3773  0.0882
11464SOL    HW135362   2.404   0.932   7.188 -0.3352  0.4901  1.0469
11464SOL    HW235363   2.347   1.070   7.164 -0.1835  0.3431 -0.2799
11465SOL     OW35364   0.682   6.232   6.354  0.6210  0.2141  0.6491
11465SOL    HW135365   0.729   6.220   6.271  0.3296  1.0754  0.3588
11465SOL    HW235366   0.679   6.326   6.367 -0.1228  0.1236  1.1958
11466SOL     OW35367   2.146   4.893   3.563  0.4411  0.0121  0.5792
11466SOL    HW135368   2.236   4.901   3.531  0.3921  2.0393  0.8418
11466SOL    HW235369   2.091   4.901   3.485  0.4625 -1.7788  0.3422
11467SOL     OW35370   4.003   1.270   2.665 -0.0990  0.3950  0.2892
11467SOL    HW135371   4.058   1.197   2.695 -1.6242 -0.8138  0.2707
11467SOL    HW235372   3.943   1.287   2.738  0.2326  1.6618  0.2942
11468SOL     OW35373   7.098   3.543   3.372  0.0960 -0.2117  0.1475
11468SOL    HW135374   7.141   3.589   3.444  0.8540  1.2115 -1.1300
11468SOL    HW235375   7.168   3.490   3.332 -0.6956 -2.3113  1.4031
11469SOL     OW35376   0.840   2.685   1.931 -0.4905 -0.3371 -0.3024
11469SOL    HW135377   0.798   2.669   1.846 -0.2099 -1.8864 -0.1775
11469SOL    HW235378   0.930   2.706   1.909 -0.0718 -2.0730 -0.3582
11470SOL     OW35379   1.353   1.194   7.375 -0.0961  0.0250  0.2301
11470SOL    HW135380   1.440   1.156   7.384 -0.0613  0.1492  0.4134
11470SOL    HW235381   1.324   1.209   7.465  0.3151  1.4067  0.1510
11471SOL     OW35382   5.153   2.080   0.833 -0.1394  0.6380 -0.5210
11471SOL    HW135383   5.126   1.995   0.866  0.0505  0.5984 -0.4702
11471SOL    HW235384   5.095   2.096   0.758  0.3243  0.1219 -1.0022
11472SOL     OW35385   3.990   4.108   6.158  0.0376  0.0476  0.1087
11472SOL    HW135386   4.069   4.109   6.212  0.7904  3.7003 -0.7778
11472SOL    HW235387   3.924   4.154   6.211 -1.5583 -2.7549  0.7479
11473SOL     OW35388   4.946   2.051   4.934  0.1031  0.5277  0.2042
11473SOL    HW135389   5.009   1.989   4.970  0.7298  0.5492 -0.8369
11473SOL    HW235390   4.937   2.026   4.842  0.4179  2.0277 -0.2551
11474SOL     OW35391   6.658   2.604   2.450 -0.5272  0.4395 -0.6005
11474SOL    HW135392   6.668   2.597   2.355 -0.7702 -0.4603 -0.5742
11474SOL    HW235393   6.595   2.535   2.472 -0.0637  0.2914  0.2853
11475SOL     OW35394   3.494   0.197   6.713  0.5151  0.0497  0.2895
11475SOL    HW135395   3.424   0.224   6.773  0.9979  1.3448  0.2891
11475SOL    HW235396   3.542   0.130   6.761 -0.1944 -0.2266  0.6354
11476SOL     OW35397   3.622   6.694   7.028  1.0054 -0.2597 -0.3338
11476SOL    HW135398   3.615   6.689   6.933  1.0576 -1.0538 -0.3016
11476SOL    HW235399   3.546   6.745   7.055 -0.6423 -2.3967 -0.6035
11477SOL     OW35400   5.386   6.162   2.974  0.1034 -1.0006  0.4824
11477SOL    HW135401   5.447   6.235   2.979 -0.6467 -0.3390  0.1992
11477SOL    HW235402   5.388   6.123   3.062 -0.4260  0.1576  1.0388
11478SOL     OW35403   6.452   5.176   3.737  0.1540  0.3037  0.0493
11478SOL    HW135404   6.439   5.118   3.662  2.0754 -0.2485  0.1087
11478SOL    HW235405   6.411   5.130   3.811  0.8898 -0.5643 -0.0786
11479SOL     OW35406   4.412   0.944   2.448 -0.3373 -0.3325  0.0908
11479SOL    HW135407   4.335   0.963   2.395 -1.6474 -1.0648  1.6610
11479SOL    HW235408   4.399   0.854   2.478 -0.3785  0.4899  2.7743
11480SOL     OW35409   2.350   1.865   7.287 -0.2097 -0.3005 -0.2144
11480SOL    HW135410   2.397   1.918   7.224 -0.6808 -1.2082 -1.3629
11480SOL    HW235411   2.410   1.793   7.308 -0.9878 -1.4249 -1.6342
11481SOL     OW35412   5.324   1.308   3.577 -0.3575 -0.6440  0.2746
11481SOL    HW135413   5.292   1.231   3.530  1.8763 -1.6125  0.2227
11481SOL    HW235414   5.276   1.381   3.539  0.6701 -1.4803 -2.9115
11482SOL     OW35415   4.648   1.597   3.268 -0.0738 -0.7343  0.4647
11482SOL    HW135416   4.665   1.510   3.304 -1.9363 -2.0415 -1.6114
11482SOL    HW235417   4.695   1.598   3.185 -0.5820  0.0107  0.1746
11483SOL     OW35418   4.194   5.531   6.364 -0.0201 -0.6264 -0.0428
11483SOL    HW135419   4.254   5.480   6.308  0.7319  0.7821 -0.5693
11483SOL    HW235420   4.151   5.591   6.303 -2.0674 -1.6419  0.3224
11484SOL     OW35421   2.954   1.344   0.935 -0.0590  0.1043  0.1790
11484SOL    HW135422   2.947   1.262   0.985  0.0853 -0.4165 -0.6310
11484SOL    HW235423   2.981   1.409   1.000  1.2933 -0.7982  0.5820
11485SOL     OW35424   3.857   6.555   6.174 -0.0369 -0.0768  0.3706
11485SOL    HW135425   3.914   6.481   6.154  0.3052  0.0574  0.8485
11485SOL    HW235426   3.773   6.515   6.197  0.3344 -0.3611  1.2895
11486SOL     OW35427   3.525   2.508   3.750 -0.2680  0.0271 -0.3771
11486SOL    HW135428   3.557   2.419   3.736 -1.8801 -0.3870 -1.6161
11486SOL    HW235429   3.586   2.563   3.700  0.4220 -0.4047 -0.0328
11487SOL     OW35430   2.401   2.925   0.704 -0.4959  0.0499  0.2601
11487SOL    HW135431   2.443   2.911   0.620 -0.7276 -1.0116  0.3145
11487SOL    HW235432   2.473   2.934   0.766 -0.3276 -1.0740  0.2445
11488SOL     OW35433   4.072   6.240   5.512  0.5075 -0.1754  0.3195
11488SOL    HW135434   4.061   6.311   5.449 -1.1235  1.0459  1.8531
11488SOL    HW235435   4.012   6.172   5.483  1.8327 -0.8566 -0.9702
11489SOL     OW35436   4.092   5.178   4.507 -0.2031 -0.7849 -0.1630
11489SOL    HW135437   4.163   5.184   4.570  0.0090  1.2607 -0.5097
11489SOL    HW235438   4.014   5.159   4.560  0.5212 -2.8746  0.2329
11490SOL     OW35439   0.685   5.523   4.760  0.1191  0.0702 -0.3439
11490SOL    HW135440   0.695   5.598   4.701  0.2162 -0.0140 -0.4369
11490SOL    HW235441   0.701   5.558   4.847  4.2563 -0.5636 -0.6389
11491SOL     OW35442   1.732   3.803   2.973 -0.4531 -0.2624 -0.1908
11491SOL    HW135443   1.666   3.750   2.928  0.0929 -0.0785 -1.2643
11491SOL    HW235444   1.762   3.865   2.906 -0.0986  0.4926  0.6413
11492SOL     OW35445   5.750   1.254   4.546  0.1775 -0.0965  0.1749
11492SOL    HW135446   5.671   1.301   4.519  0.0986 -0.7708 -0.8290
11492SOL    HW235447   5.819   1.293   4.492  0.6285  0.7823  1.3509
11493SOL     OW35448   4.276   5.736   6.863 -0.5169 -0.1876 -0.0933
11493SOL    HW135449   4.302   5.646   6.883 -2.3006 -0.9478 -0.9741
11493SOL    HW235450   4.317   5.754   6.778 -1.5043 -0.7933 -0.7117
11494SOL     OW35451   3.030   6.585   2.753  0.2772 -0.2873 -0.2903
11494SOL    HW135452   3.088   6.612   2.825  0.0014 -0.2498 -0.0792
11494SOL    HW235453   3.089   6.566   2.680  0.4458  1.7163 -0.7285
11495SOL     OW35454   3.596   6.873   3.763  0.1069  0.1720 -0.2963
11495SOL    HW135455   3.591   6.788   3.719  0.0417  0.9478 -1.8471
11495SOL    HW235456   3.506   6.890   3.791  0.4431 -1.1025  1.7363
11496SOL     OW35457   0.557   7.138   0.226  0.1850  0.9180 -0.4422
11496SOL    HW135458   0.575   7.054   0.183 -0.2686  1.4262 -1.6741
11496SOL    HW235459   0.557   7.117   0.319  0.2314 -0.4187 -0.7110
11497SOL     OW35460   4.848   1.500   6.826 -0.1873  0.6524  0.2048
11497SOL    HW135461   4.941   1.518   6.810 -0.5783  0.9607 -1.9929
11497SOL    HW235462   4.846   1.467   6.916  2.0697  0.4505  0.2525
11498SOL     OW35463   1.149   3.886   4.885 -0.3892  0.1700  0.1865
11498SOL    HW135464   1.158   3.809   4.942 -1.4982  0.6997  1.0993
11498SOL    HW235465   1.225   3.940   4.906 -0.7488  0.3265  1.1080
11499SOL     OW35466   3.241   4.978   3.336  0.3003  0.1646 -0.4560
11499SOL    HW135467   3.189   4.965   3.257  0.5380  1.9954 -0.9733
11499SOL    HW235468   3.280   4.893   3.354 -0.7994 -0.6022 -1.5518
11500SOL     OW35469   1.996   3.570   2.121  0.1803 -0.1559 -0.4028
11500SOL    HW135470   1.991   3.631   2.047 -0.8576  1.6770  1.0944
11500SOL    HW235471   1.963   3.487   2.085  0.5636  0.4248 -2.2148
11501SOL     OW35472   4.234   3.767   4.609  0.3371 -0.1300 -0.3443
11501SOL    HW135473   4.241   3.762   4.705  0.2404  0.5643 -0.2891
11501SOL    HW235474   4.143   3.790   4.593  0.5700  0.7051 -0.5472
11502SOL     OW35475   0.491   4.205   1.881 -0.4564  0.0666 -0.1926
11502SOL    HW135476   0.441   4.280   1.915 -2.6320 -0.4637 -1.9851
11502SOL    HW235477   0.539   4.241   1.806 -1.2896 -0.2485 -0.8878
11503SOL     OW35478   6.085   5.384   5.755  0.1104  0.0263 -0.2946
11503SOL    HW135479   6.093   5.407   5.663 -0.7774 -0.6163 -0.5389
11503SOL    HW235480   6.006   5.331   5.761  0.8810 -1.0934  0.6133
11504SOL     OW35481   4.055   0.195   2.305 -0.6206 -0.5198  0.4999
11504SOL    HW135482   4.084   0.244   2.382  0.5813  1.0257 -0.8561
11504SOL    HW235483   3.996   0.255   2.259  0.7682 -0.3208 -1.1200
11505SOL     OW35484   5.289   2.562   5.074  0.1665 -0.1901 -0.1721
11505SOL    HW135485   5.363   2.506   5.096  0.2386 -0.3979 -0.9126
11505SOL    HW235486   5.274   2.547   4.981 -0.2077  0.5574 -0.2434
11506SOL     OW35487   2.182   2.152   5.316  0.0232 -0.0611  0.1497
11506SOL    HW135488   2.262   2.198   5.288  1.5675 -1.1948  2.3694
11506SOL    HW235489   2.113   2.218   5.312  0.9137  0.8343 -2.3287
11507SOL     OW35490   3.409   6.107   1.122  0.3147 -0.1475  0.2388
11507SOL    HW135491   3.397   6.078   1.031 -2.6371 -0.6514  0.7137
11507SOL    HW235492   3.415   6.026   1.172  0.9045  0.1330  0.6284
11508SOL     OW35493   5.545   0.540   4.496  0.2279 -0.9443  0.1160
11508SOL    HW135494   5.545   0.625   4.542  2.3196 -0.7827 -0.1140
11508SOL    HW235495   5.621   0.544   4.438 -1.5268 -1.6954 -2.4246
11509SOL     OW35496   7.379   3.263   2.889 -0.0147 -0.4615  0.4202
11509SOL    HW135497   7.449   3.253   2.825 -2.0596 -1.1031 -1.8933
11509SOL    HW235498   7.351   3.354   2.881 -0.5738 -0.6579 -0.0092
11510SOL     OW35499   5.663   5.906   3.994 -0.6046 -0.1280 -0.1643
11510SOL    HW135500   5.638   5.815   3.979 -0.7541 -0.2639  0.8440
11510SOL    HW235501   5.745   5.900   4.043 -0.5540  0.2806 -0.2003
11511SOL     OW35502   4.623   2.676   1.244  0.8829  0.0609  0.5146
11511SOL    HW135503   4.610   2.664   1.150 -4.2263  0.0959  0.9419
11511SOL    HW235504   4.596   2.592   1.283  1.0163  0.6831  2.0082
11512SOL     OW35505   5.330   1.403   2.177 -0.1955 -0.8699  0.9117
11512SOL    HW135506   5.279   1.418   2.258 -1.5993 -0.2557 -0.0341
11512SOL    HW235507   5.282   1.453   2.110  0.1788 -2.4331 -0.5704
11513SOL     OW35508   5.318   6.761   7.195  0.3719  0.1774  0.2050
11513SOL    HW135509   5.334   6.739   7.286  0.3082  0.3035  0.2468
11513SOL    HW235510   5.294   6.678   7.154  0.9525  0.0164  0.1787
11514SOL     OW35511   0.778   2.856   0.636  0.8110  0.4570 -0.1119
11514SOL    HW135512   0.733   2.916   0.696  0.8581 -0.2670  0.6777
11514SOL    HW235513   0.776   2.900   0.551  0.6576  1.4665  0.4018
11515SOL     OW35514   2.980   0.976   6.089  0.1097  0.0419 -0.4211
11515SOL    HW135515   2.940   0.908   6.034  0.8972 -0.0486 -0.9109
11515SOL    HW235516   3.016   0.928   6.164 -2.0135  0.3027  0.8447
11516SOL     OW35517   1.796   0.718   5.861 -0.5053  0.0977 -0.3283
11516SOL    HW135518   1.862   0.750   5.922  0.7910 -1.2128 -0.9712
11516SOL    HW235519   1.760   0.640   5.903 -0.8409  0.1599 -0.4939
11517SOL     OW35520   5.111   3.286   1.328 -0.6084  0.0565  0.3599
11517SOL    HW135521   5.136   3.246   1.244  1.6071  0.9762  0.5058
11517SOL    HW235522   5.121   3.380   1.314  0.0980  0.2086  1.7133
11518SOL     OW35523   3.856   3.249   4.988 -0.4075  0.3860  0.1515
11518SOL    HW135524   3.767   3.256   5.024 -0.1848  0.2029  0.7512
11518SOL    HW235525   3.863   3.323   4.928 -0.8238  0.6477  0.4161
11519SOL     OW35526   5.699   0.965   4.460 -0.0363  0.0064 -0.2398
11519SOL    HW135527   5.764   0.941   4.526  0.2708  0.2495 -0.4515
11519SOL    HW235528   5.622   0.992   4.511  0.6045  1.3522  0.0575
11520SOL     OW35529   0.074   1.352   5.652 -0.6992  0.2390  0.4345
11520SOL    HW135530   0.044   1.300   5.727  0.0306  0.3022  0.7800
11520SOL    HW235531  -0.005   1.372   5.604 -1.0944 -0.4732  0.7659
11521SOL     OW35532   2.845   3.543   2.133  0.4189 -0.3144  0.3774
11521SOL    HW135533   2.938   3.539   2.157  0.1063  0.3300  1.8075
11521SOL    HW235534   2.799   3.521   2.214 -0.6941 -0.3429 -0.2450
11522SOL     OW35535   2.268   6.558   3.473  0.4587  0.0593  0.1486
11522SOL    HW135536   2.240   6.472   3.503 -0.4046 -0.1152 -1.0688
11522SOL    HW235537   2.231   6.619   3.537 -2.1373 -0.2301 -0.9301
11523SOL     OW35538   2.908   4.813   3.930 -0.5469 -0.6935 -0.7577
11523SOL    HW135539   2.824   4.853   3.951 -0.0702  0.2108 -0.4889
11523SOL    HW235540   2.908   4.806   3.834 -0.3306  0.7338 -0.8843
11524SOL     OW35541   4.775   3.577   2.952  0.8375  0.1944 -0.0816
11524SOL    HW135542   4.778   3.570   2.857  3.5383  0.6184 -0.1250
11524SOL    HW235543   4.718   3.652   2.969 -1.6453 -1.3443 -1.1836
11525SOL     OW35544   1.095   6.444   4.364  0.6118 -0.4623 -0.0899
11525SOL    HW135545   1.149   6.433   4.285 -0.1390 -0.9017 -0.5591
11525SOL    HW235546   1.135   6.385   4.428  1.2639 -0.0607 -0.1215
11526SOL     OW35547   4.657   3.011   6.350 -0.3544  0.0148  1.1940
11526SOL    HW135548   4.585   2.954   6.323 -0.3562  0.9834 -1.0670
11526SOL    HW235549   4.736   2.967   6.317 -0.2380  0.5962  0.6684
11527SOL     OW35550   0.551   3.247   1.398 -0.4586 -0.2478 -0.6966
11527SOL    HW135551   0.621   3.310   1.380  0.5618 -0.9420  0.6582
11527SOL    HW235552   0.470   3.297   1.386  0.2716  0.7402 -1.6876
11528SOL     OW35553   1.151   4.521   7.252  0.1768  0.1010 -0.1810
11528SOL    HW135554   1.082   4.585   7.237 -1.4695 -1.6020 -0.2376
11528SOL    HW235555   1.152   4.509   7.347  0.7355  0.4519 -0.1368
11529SOL     OW35556   7.144   3.323   5.449 -0.1130 -0.4486  0.0126
11529SOL    HW135557   7.214   3.343   5.511  1.0501  0.5269 -1.5371
11529SOL    HW235558   7.103   3.408   5.431 -0.7327 -0.7874 -0.2141
11530SOL     OW35559   1.998   4.168   0.196  0.1293  0.1514  0.0513
11530SOL    HW135560   1.928   4.143   0.256 -0.0509 -0.0098 -0.2236
11530SOL    HW235561   2.001   4.264   0.200 -1.0896  0.2542 -1.0263
11531SOL     OW35562   1.581   1.262   6.621  0.2714 -0.2552  0.0075
11531SOL    HW135563   1.605   1.324   6.552 -0.4751  0.7668  0.6353
11531SOL    HW235564   1.517   1.204   6.579 -1.1641  1.1503  0.1271
11532SOL     OW35565   2.510   4.768   5.393  0.3892 -0.1093 -0.0418
11532SOL    HW135566   2.557   4.734   5.317  1.5447 -2.8207  1.7369
11532SOL    HW235567   2.557   4.848   5.416  0.3321  0.4828 -1.8019
11533SOL     OW35568   1.641   6.276   1.984 -0.3095 -0.1256  0.7857
11533SOL    HW135569   1.563   6.307   2.030 -0.3829  0.9912 -0.0504
11533SOL    HW235570   1.709   6.340   2.005  0.3149 -0.9056  1.2336
11534SOL     OW35571   6.910   4.016   1.710 -0.0325 -0.0086 -0.1834
11534SOL    HW135572   6.921   3.989   1.619 -2.2655 -1.2258 -0.1894
11534SOL    HW235573   6.928   4.110   1.710  1.4855 -0.2554 -1.5416
11535SOL     OW35574   0.090   7.103   5.437 -0.0182 -0.2524 -0.9798
11535SOL    HW135575   0.075   7.169   5.369 -1.3970  0.7140  0.1960
11535SOL    HW235576   0.164   7.138   5.488 -1.0039  0.6225 -0.1163
11536SOL     OW35577   6.792   0.177   6.912  0.1638 -0.4027  0.0034
11536SOL    HW135578   6.739   0.238   6.963  0.3136 -0.3319  0.0749
11536SOL    HW235579   6.881   0.191   6.943 -0.1210 -2.7560  2.1516
11537SOL     OW35580   2.848   2.259   5.679  0.4157  0.3658  0.2653
11537SOL    HW135581   2.858   2.249   5.585  0.3837 -0.7358  0.3675
11537SOL    HW235582   2.837   2.170   5.712  1.8964  0.5890  1.4866
11538SOL     OW35583   5.143   6.802   5.660 -0.5105  0.1794 -0.0462
11538SOL    HW135584   5.173   6.735   5.598 -1.0816 -0.3063  0.1863
11538SOL    HW235585   5.050   6.783   5.672 -0.7803  1.2611 -0.2763
11539SOL     OW35586   2.695   0.669   1.742 -0.3208 -0.2610  0.0889
11539SOL    HW135587   2.642   0.715   1.676 -2.4407 -0.4772  1.5223
11539SOL    HW235588   2.688   0.723   1.821  0.9171 -0.7578  0.5684
11540SOL     OW35589   4.041   6.541   1.202  0.2723 -0.5290  0.5449
11540SOL    HW135590   4.088   6.609   1.153 -0.3639 -1.0410 -0.8235
11540SOL    HW235591   4.110   6.481   1.230  0.6259 -0.4489 -0.1115
11541SOL     OW35592   7.038   0.767   5.010  0.0762 -0.1304  0.1321
11541SOL    HW135593   6.965   0.705   5.008 -0.8569  0.9134  0.2970
11541SOL    HW235594   7.064   0.776   4.918 -1.4011  1.0287 -0.2164
11542SOL     OW35595   2.358   6.595   4.625 -0.6696 -0.3619 -0.6305
11542SOL    HW135596   2.344   6.688   4.645 -1.1264 -0.3797 -0.8525
11542SOL    HW235597   2.418   6.596   4.551 -2.5865 -0.1373 -2.2893
11543SOL     OW35598   3.311   0.842   5.604  0.0951 -0.1946  0.4591
11543SOL    HW135599   3.332   0.924   5.648  0.5196  0.3294 -0.6915
11543SOL    HW235600   3.392   0.817   5.559 -0.1927 -0.9538  0.3439
11544SOL     OW35601   0.623   3.987   3.893 -0.0129 -0.7444  0.3716
11544SOL    HW135602   0.678   3.985   3.815 -0.5761 -0.3877 -0.0390
11544SOL    HW235603   0.611   3.895   3.915 -1.5564 -0.9710 -1.1936
11545SOL     OW35604   6.546   1.590   5.427  0.0393  0.3203 -0.3246
11545SOL    HW135605   6.523   1.559   5.340 -0.8352  0.3471 -0.1146
11545SOL    HW235606   6.470   1.642   5.455  0.4102  0.5183  0.3491
11546SOL     OW35607   1.670   5.220   2.967  0.0159  0.1312 -0.6782
11546SOL    HW135608   1.727   5.144   2.978  0.3919  0.5631  0.4218
11546SOL    HW235609   1.703   5.262   2.888  0.1818 -0.5119 -0.9643
11547SOL     OW35610   0.551   1.538   4.779  0.1813 -0.0838 -0.3843
11547SOL    HW135611   0.497   1.521   4.702  1.2995  0.2125 -1.2833
11547SOL    HW235612   0.547   1.458   4.831  1.9001 -1.5329 -2.3395
11548SOL     OW35613   7.042   6.411   5.730  0.0288  0.9948 -0.4840
11548SOL    HW135614   7.048   6.321   5.698 -0.6097  0.8407 -0.1883
11548SOL    HW235615   7.116   6.420   5.791  0.6535  0.9776 -1.2305
11549SOL     OW35616   2.544   2.190   6.806 -0.9557 -0.0007  0.6364
11549SOL    HW135617   2.524   2.227   6.892  0.5450  0.2218  0.9180
11549SOL    HW235618   2.640   2.183   6.804 -0.9243  0.4166 -1.1881
11550SOL     OW35619   3.973   3.062   3.404 -0.4428 -0.4781  0.1137
11550SOL    HW135620   3.901   3.030   3.348 -0.6902  1.0742 -0.5043
11550SOL    HW235621   4.046   3.076   3.343 -0.1456 -0.4372  0.4771
11551SOL     OW35622   6.398   3.938   0.976  0.3108 -0.1756 -0.3204
11551SOL    HW135623   6.471   3.890   0.937  0.8410 -0.5413  1.0737
11551SOL    HW235624   6.323   3.918   0.919  1.4614  1.0993 -2.4406
11552SOL     OW35625   2.043   4.852   0.087 -0.2842  0.1249  0.6290
11552SOL    HW135626   1.981   4.870   0.016 -0.1620 -1.4617  0.0713
11552SOL    HW235627   2.008   4.773   0.128  1.0717 -0.4725  0.6550
11553SOL     OW35628   1.584   6.243   2.979  0.2093 -0.1130 -0.0255
11553SOL    HW135629   1.515   6.295   3.020  0.0488  0.8102 -1.3786
11553SOL    HW235630   1.544   6.158   2.961 -0.1495 -0.0343  0.3983
11554SOL     OW35631   7.357   6.531   0.762  0.4418  0.6825  0.8137
11554SOL    HW135632   7.269   6.545   0.799  1.2080 -1.0992  3.6056
11554SOL    HW235633   7.341   6.506   0.671 -1.8847  1.3054  0.9931
11555SOL     OW35634   2.015   1.938   2.860  0.3493 -0.3064  1.0667
11555SOL    HW135635   2.021   1.994   2.938  1.0911 -0.0829  0.8617
11555SOL    HW235636   1.939   1.882   2.876 -0.3171  0.6612  1.3440
11556SOL     OW35637   5.531   0.509   5.930 -0.6094 -0.4753 -0.0068
11556SOL    HW135638   5.604   0.542   5.982  1.1473 -2.8048 -0.7791
11556SOL    HW235639   5.495   0.437   5.982 -1.8341  0.1288 -0.0054
11557SOL     OW35640   1.405   5.679   5.959  0.0244  0.3674  0.5646
11557SOL    HW135641   1.419   5.702   6.050 -3.0068  0.2400  1.1617
11557SOL    HW235642   1.312   5.658   5.953 -0.0345  0.9618 -2.6917
11558SOL     OW35643   4.384   5.741   7.202 -0.0234  0.5131 -0.4995
11558SOL    HW135644   4.366   5.678   7.131  0.9507  1.1601 -1.3492
11558SOL    HW235645   4.361   5.694   7.282 -2.0494  0.0687 -1.2640
11559SOL     OW35646   7.005   5.586   1.192 -0.2369 -0.3159  0.3455
11559SOL    HW135647   7.055   5.506   1.178  0.7166  0.5341 -1.4373
11559SOL    HW235648   7.064   5.656   1.163 -2.3591  0.7543 -1.6604
11560SOL     OW35649   2.110   5.571   5.124  0.0377  0.3391 -0.2047
11560SOL    HW135650   2.069   5.506   5.067 -0.8746  0.1613  0.6274
11560SOL    HW235651   2.145   5.520   5.197 -1.7023  0.8505  1.0503
11561SOL     OW35652   6.074   4.364   3.527 -0.1812 -0.2252  0.0117
11561SOL    HW135653   6.162   4.401   3.530 -0.4487  0.4831 -0.5520
11561SOL    HW235654   6.059   4.329   3.615  1.2004 -1.6436 -0.2835
11562SOL     OW35655   7.065   3.266   6.791 -0.6632  0.1782  0.3407
11562SOL    HW135656   7.150   3.244   6.829  1.3620 -0.0186 -3.7596
11562SOL    HW235657   7.081   3.344   6.739 -2.8837 -0.1081 -0.9217
11563SOL     OW35658   0.038   4.754   4.820 -0.2494 -0.0174  0.2619
11563SOL    HW135659   0.009   4.762   4.730  0.4949  0.7789  0.0777
11563SOL    HW235660  -0.014   4.682   4.856  0.9591 -1.8492 -1.4270
11564SOL     OW35661   2.558   0.321   4.479  0.3059 -0.0721  0.3126
11564SOL    HW135662   2.624   0.293   4.544  1.6370 -1.1917 -1.4183
11564SOL    HW235663   2.588   0.407   4.451  0.6475 -0.2649  0.0657
11565SOL     OW35664   1.153   4.099   4.052 -0.2354 -0.1863  0.1798
11565SOL    HW135665   1.238   4.129   4.019 -0.9776 -0.2218 -1.9157
11565SOL    HW235666   1.115   4.050   3.979 -2.7877  1.2616  0.4321
11566SOL     OW35667   3.743   3.892   2.095  0.1293 -0.3531 -0.5495
11566SOL    HW135668   3.714   3.939   2.017 -0.3934 -0.4572 -0.4236
11566SOL    HW235669   3.720   3.800   2.078  0.9057 -0.5328 -0.6846
11567SOL     OW35670   2.178   1.817   1.369 -0.1099  0.1251  0.0434
11567SOL    HW135671   2.218   1.863   1.443  0.1191  1.3268 -0.8047
11567SOL    HW235672   2.245   1.755   1.340  0.2192  0.4144  0.1728
11568SOL     OW35673   2.781   3.959   5.970 -0.3279  0.0382  0.5372
11568SOL    HW135674   2.831   3.972   6.050 -0.7448  1.1623  0.6214
11568SOL    HW235675   2.785   3.864   5.955  2.7247  0.1447 -0.0450
11569SOL     OW35676   4.903   1.692   1.461  0.7311 -0.0691 -0.8280
11569SOL    HW135677   4.925   1.607   1.498 -0.2439 -0.0991 -0.2899
11569SOL    HW235678   4.983   1.720   1.417  1.9213 -0.0372  1.2524
11570SOL     OW35679   5.503   2.773   0.145  0.0653  0.1910 -0.2064
11570SOL    HW135680   5.443   2.710   0.185 -0.8220  0.6610 -0.7658
11570SOL    HW235681   5.508   2.846   0.207 -0.0619  0.2233 -0.2351
11571SOL     OW35682   5.171   0.295   1.169  0.4403 -0.0371  0.1788
11571SOL    HW135683   5.161   0.386   1.138  1.5401 -0.5580 -1.9041
11571SOL    HW235684   5.229   0.302   1.245  0.3650  1.0063  0.1632
11572SOL     OW35685   0.030   0.363   0.177  0.1173 -0.9239  0.0198
11572SOL    HW135686   0.123   0.341   0.183  0.3338 -0.5485 -1.5087
11572SOL    HW235687   0.012   0.367   0.083 -0.3810  3.4021  0.0928
11573SOL     OW35688   6.055   6.941   0.616 -0.1577  0.4780  0.5941
11573SOL    HW135689   6.092   6.885   0.685  1.3293  2.6726  1.6907
11573SOL    HW235690   6.064   7.030   0.650 -0.7228  1.5458 -1.8482
11574SOL     OW35691   0.885   3.244   6.469 -0.5155 -0.7654 -0.1618
11574SOL    HW135692   0.836   3.276   6.545 -0.0810  0.1567 -0.2567
11574SOL    HW235693   0.970   3.219   6.505 -0.5032 -0.8641 -0.2596
11575SOL     OW35694   3.806   0.022   4.916  0.5704 -0.2223  0.4841
11575SOL    HW135695   3.713   0.042   4.903  1.0870  1.0885 -1.6410
11575SOL    HW235696   3.809  -0.025   5.000 -1.4317  3.9742  3.2184
11576SOL     OW35697   6.475   3.529   3.110 -0.1425 -0.0892 -0.1859
11576SOL    HW135698   6.552   3.556   3.060 -0.7314 -0.8331 -1.5416
11576SOL    HW235699   6.439   3.455   3.061 -1.2813 -0.2622  0.8521
11577SOL     OW35700   1.430   3.218   3.689  0.3092 -0.4062 -0.6719
11577SOL    HW135701   1.524   3.214   3.672  0.2916 -1.4040 -0.6180
11577SOL    HW235702   1.395   3.139   3.647 -0.3615 -0.5506  0.1282
11578SOL     OW35703   1.548   1.393   4.622  0.5066  0.0862  0.3597
11578SOL    HW135704   1.581   1.322   4.676  2.4741  0.8572  0.2581
11578SOL    HW235705   1.512   1.456   4.685  0.9596  0.0726  0.6419
11579SOL     OW35706   2.420   0.632   0.450 -0.4643 -0.2814 -0.4772
11579SOL    HW135707   2.423   0.565   0.518  0.8810 -0.6471 -0.8715
11579SOL    HW235708   2.365   0.701   0.487  0.9041 -0.0941  1.3476
11580SOL     OW35709   1.538   1.403   4.356  0.0166  0.3323  0.0018
11580SOL    HW135710   1.554   1.380   4.447  1.1628  0.5062 -0.1449
11580SOL    HW235711   1.616   1.373   4.309 -0.4010  0.5654 -0.8632
11581SOL     OW35712   2.611   2.916   0.217 -0.4075  0.6113 -0.6883
11581SOL    HW135713   2.531   2.876   0.182 -0.1223  0.9183 -1.7169
11581SOL    HW235714   2.615   3.002   0.176  0.8674  0.2987 -1.2903
11582SOL     OW35715   0.256   3.312   5.878 -0.0284  0.3355  0.2158
11582SOL    HW135716   0.339   3.305   5.925 -1.1985 -3.2089  2.2146
11582SOL    HW235717   0.190   3.305   5.947 -2.0782  2.9493 -1.3043
11583SOL     OW35718   2.619   0.183   3.247  0.0202  0.2477 -0.0523
11583SOL    HW135719   2.677   0.151   3.316  2.9889  1.4603 -1.7634
11583SOL    HW235720   2.616   0.278   3.261 -0.1425  0.3869 -0.9840
11584SOL     OW35721   1.374   6.369   2.659  0.1066  0.0896 -0.0464
11584SOL    HW135722   1.364   6.307   2.587 -2.7319  0.7414 -0.3414
11584SOL    HW235723   1.361   6.455   2.619  0.3946  0.5997  0.9216
11585SOL     OW35724   4.579   2.173   4.707  0.2474  0.0481 -1.0390
11585SOL    HW135725   4.496   2.192   4.750  0.6471 -1.4296  0.4818
11585SOL    HW235726   4.646   2.206   4.767  0.7866  0.5400 -1.8901
11586SOL     OW35727   3.081   4.474   4.314 -0.0465  0.2010 -0.6010
11586SOL    HW135728   3.118   4.447   4.398  0.4995  1.7046 -0.3280
11586SOL    HW235729   3.084   4.395   4.260  0.4568 -0.5499  0.4955
11587SOL     OW35730   5.266   4.536   6.588  0.3029  0.0232 -0.2379
11587SOL    HW135731   5.238   4.555   6.678 -0.1887 -0.5192 -0.2706
11587SOL    HW235732   5.361   4.534   6.593  0.2677 -0.6035  0.4009
11588SOL     OW35733   4.692   4.205   4.206  0.5471 -0.5274  0.5179
11588SOL    HW135734   4.763   4.232   4.147  0.7712 -0.7713  0.6724
11588SOL    HW235735   4.670   4.116   4.177 -1.4057  0.4270 -1.1478
11589SOL     OW35736   3.509   6.275   6.107 -0.2850 -0.3670 -0.3918
11589SOL    HW135737   3.554   6.345   6.060 -2.0548  0.8390 -0.4008
11589SOL    HW235738   3.507   6.202   6.045 -2.4652  1.1385 -2.3055
11590SOL     OW35739   1.339   0.455   0.557 -0.0225  0.2298 -0.1242
11590SOL    HW135740   1.336   0.360   0.573 -0.6565  0.3891  0.7693
11590SOL    HW235741   1.250   0.478   0.530  0.7521  0.1509 -3.1124
11591SOL     OW35742   1.287   3.490   5.930 -0.0510  0.1952 -0.5436
11591SOL    HW135743   1.265   3.549   5.858 -1.5113 -1.8562 -1.8776
11591SOL    HW235744   1.372   3.453   5.905 -0.3659 -0.2100 -1.0430
11592SOL     OW35745   5.934   4.169   1.976  0.4462  0.3347  0.7218
11592SOL    HW135746   5.980   4.173   2.060 -0.5825  2.2736  1.2635
11592SOL    HW235747   5.901   4.258   1.962 -0.6551 -0.2839 -1.0360
11593SOL     OW35748   6.874   2.618   6.681  0.4970 -0.6651 -0.4501
11593SOL    HW135749   6.960   2.658   6.686 -0.7141  2.0791  3.9486
11593SOL    HW235750   6.869   2.560   6.757 -0.9708 -2.2604 -1.6641
11594SOL     OW35751   0.409   1.233   4.691  0.6488 -0.5085  0.1833
11594SOL    HW135752   0.387   1.306   4.633 -0.8144 -1.6881 -0.8208
11594SOL    HW235753   0.421   1.274   4.777  1.0942  1.0502 -0.5876
11595SOL     OW35754   1.863   3.463   7.163 -0.0149  0.1655  0.0503
11595SOL    HW135755   1.882   3.379   7.206  0.8023  1.0801  1.5690
11595SOL    HW235756   1.769   3.474   7.172 -0.3582 -1.2216 -1.4190
11596SOL     OW35757   0.303   6.745   2.391  0.1383 -0.2303  0.2764
11596SOL    HW135758   0.273   6.676   2.451  1.5221 -0.7424  0.4172
11596SOL    HW235759   0.308   6.702   2.306  2.1324 -0.6842  0.5721
11597SOL     OW35760   1.881   0.516   6.314 -0.1164  0.3469 -0.1272
11597SOL    HW135761   1.788   0.524   6.338 -0.0344  0.4200  0.1729
11597SOL    HW235762   1.926   0.505   6.397  0.3200  2.0023 -0.1023
11598SOL     OW35763   3.949   3.761   4.307 -0.2947  0.2480 -0.6988
11598SOL    HW135764   3.955   3.783   4.400 -1.2352 -0.2755 -0.4998
11598SOL    HW235765   4.034   3.787   4.271 -1.0850  3.6909 -0.4113
11599SOL     OW35766   7.225   5.072   2.948  0.0300 -0.3038 -0.0163
11599SOL    HW135767   7.150   5.037   2.901  1.1551 -2.3052 -0.4523
11599SOL    HW235768   7.276   5.118   2.881  0.7218 -1.6105 -0.4191
11600SOL     OW35769   6.377   7.000   3.729  0.5326  0.0815 -0.3043
11600SOL    HW135770   6.452   6.952   3.692  0.0661 -1.5620  0.7866
11600SOL    HW235771   6.414   7.047   3.804  0.1537 -2.5313  1.6533
11601SOL     OW35772   2.448   5.432   5.938  0.4271 -0.0366  0.1226
11601SOL    HW135773   2.541   5.411   5.944  0.2986 -0.8990 -0.6894
11601SOL    HW235774   2.429   5.480   6.019  1.2066 -1.3105  1.0912
11602SOL     OW35775   2.530   3.055   7.179  0.1956  0.3445 -0.0463
11602SOL    HW135776   2.623   3.038   7.165  0.3420  0.4874  0.6835
11602SOL    HW235777   2.510   3.129   7.122  0.2973 -0.2775 -0.9113
11603SOL     OW35778   2.716   7.235   4.940  0.2950 -0.1157 -0.0991
11603SOL    HW135779   2.807   7.263   4.935  1.2864 -2.6825  1.3569
11603SOL    HW235780   2.718   7.141   4.921 -2.1169 -0.1700 -0.4551
11604SOL     OW35781   6.273   6.449   2.169 -0.0379 -0.2986  0.2172
11604SOL    HW135782   6.329   6.382   2.130 -1.1883 -2.1524  1.6140
11604SOL    HW235783   6.198   6.454   2.110 -0.2896 -0.7696  0.4971
11605SOL     OW35784   4.773   6.313   6.067  0.6865  0.5641  0.0598
11605SOL    HW135785   4.705   6.301   6.133 -0.4202 -0.1473 -1.1623
11605SOL    HW235786   4.854   6.327   6.117  0.0867 -1.0838  1.5712
11606SOL     OW35787   6.319   7.238   4.988  1.0490  0.2156 -0.1651
11606SOL    HW135788   6.293   7.326   5.015  0.8717  0.2082 -0.3092
11606SOL    HW235789   6.242   7.203   4.942 -0.6237 -1.6833  3.6112
11607SOL     OW35790   0.621   4.320   1.672 -0.1062 -0.1417  0.0797
11607SOL    HW135791   0.640   4.254   1.605 -1.0604  0.0380 -0.3978
11607SOL    HW235792   0.659   4.401   1.637  0.8414 -0.3702  0.5462
11608SOL     OW35793   7.374   7.264   4.160 -0.7484 -0.0486 -0.0673
11608SOL    HW135794   7.456   7.307   4.135 -1.5055  0.2458 -2.1923
11608SOL    HW235795   7.337   7.322   4.227 -0.8382  1.6758 -1.5319
11609SOL     OW35796   7.199   2.618   1.085  0.5447  0.2014 -1.2239
11609SOL    HW135797   7.239   2.568   1.014  2.4270 -2.4426  1.4402
11609SOL    HW235798   7.105   2.599   1.079  0.9303 -1.7851 -1.7556
11610SOL     OW35799   7.053   5.692   0.181 -0.1634 -0.3499 -0.6266
11610SOL    HW135800   7.020   5.749   0.112  2.2045 -1.6568 -3.0355
11610SOL    HW235801   7.148   5.692   0.169  0.4583 -0.1591  3.1245
11611SOL     OW35802   2.670   3.039   5.472  0.1424  0.1999 -0.5073
11611SOL    HW135803   2.686   2.993   5.389  0.9764 -0.0207 -0.2352
11611SOL    HW235804   2.696   2.977   5.540 -3.0343 -0.6504  0.0776
11612SOL     OW35805   3.184   1.600   0.761  0.3802  0.0641  0.3542
11612SOL    HW135806   3.239   1.670   0.727 -0.8129  0.2286 -1.3245
11612SOL    HW235807   3.199   1.603   0.856  0.9488  2.0696  0.2565
11613SOL     OW35808   6.115   5.575   1.168  0.4010 -0.2732 -0.3901
11613SOL    HW135809   6.030   5.621   1.166  0.2860 -0.4364  0.4333
11613SOL    HW235810   6.147   5.581   1.078 -1.6952 -2.5105 -1.4034
11614SOL     OW35811   4.823   2.154   5.470 -0.1562 -0.3440  0.2403
11614SOL    HW135812   4.873   2.218   5.521 -2.2745  0.6507  1.2149
11614SOL    HW235813   4.797   2.202   5.391  1.2244 -1.1745 -0.7485
11615SOL     OW35814   3.397   5.159   5.752  0.3870 -0.1527 -0.1649
11615SOL    HW135815   3.334   5.131   5.686 -1.0428 -0.4283  1.2772
11615SOL    HW235816   3.426   5.245   5.722 -0.5155 -0.1134 -0.9584
11616SOL     OW35817   4.390   4.241   5.112 -0.6166  0.3044 -0.0403
11616SOL    HW135818   4.427   4.315   5.160  1.4093 -0.2462 -0.6520
11616SOL    HW235819   4.452   4.225   5.041 -1.6854 -1.1599 -0.7031
11617SOL     OW35820   3.409   0.188   5.316  0.4510 -0.7602  0.1452
11617SOL    HW135821   3.323   0.149   5.301  0.2394 -0.1668 -0.2147
11617SOL    HW235822   3.470   0.129   5.273  0.0195 -0.0541 -1.5265
11618SOL     OW35823   1.668   3.172   0.446  0.1792  0.8716  0.1169
11618SOL    HW135824   1.747   3.188   0.496 -0.3767  0.3840  1.1758
11618SOL    HW235825   1.614   3.116   0.502 -0.4840  0.3514 -0.9988
11619SOL     OW35826   4.782   3.062   4.425 -0.8131  0.3575  0.2841
11619SOL    HW135827   4.858   3.004   4.425 -0.7699  0.3638  1.9671
11619SOL    HW235828   4.711   3.009   4.462 -0.8309  1.2694  1.6207
11620SOL     OW35829   6.097   4.511   2.617 -0.3404 -0.2423 -0.3962
11620SOL    HW135830   6.118   4.542   2.705  1.3376  0.4006 -0.9804
11620SOL    HW235831   6.166   4.448   2.596  0.0121  0.5324 -1.6923
11621SOL     OW35832   0.171   7.234   2.936 -0.1270  0.3364 -0.5102
11621SOL    HW135833   0.206   7.304   2.881  0.1551  0.2537 -0.4373
11621SOL    HW235834   0.083   7.219   2.903 -0.5187  1.3317  0.0347
11622SOL     OW35835   1.147   3.307   6.908  0.1160 -0.1113 -0.3825
11622SOL    HW135836   1.076   3.261   6.952 -0.7804  0.3789 -1.2729
11622SOL    HW235837   1.143   3.397   6.942  0.1465 -0.0168 -0.6251
11623SOL     OW35838   1.268   4.067   5.315  0.2419  0.3685  0.2274
11623SOL    HW135839   1.332   4.003   5.284  0.3233 -0.3884  1.8357
11623SOL    HW235840   1.228   4.025   5.391 -0.8658  1.5823  0.3383
11624SOL     OW35841   3.779   1.160   2.886  0.0144  0.1687 -0.1597
11624SOL    HW135842   3.741   1.186   2.970  0.5211  0.1472  0.0807
11624SOL    HW235843   3.870   1.139   2.907  0.0727 -0.0901 -0.6697
11625SOL     OW35844   5.857   1.892   3.906  0.1870  0.0831 -0.5013
11625SOL    HW135845   5.796   1.845   3.850 -0.5089  1.2386 -0.7638
11625SOL    HW235846   5.815   1.893   3.992 -0.3904  1.2361 -0.7785
11626SOL     OW35847   6.756   3.890   1.875  0.3056 -0.0138  0.3605
11626SOL    HW135848   6.812   3.961   1.845 -1.6803  1.5469  0.1237
11626SOL    HW235849   6.708   3.862   1.798  0.6648 -1.2710  0.5688
11627SOL     OW35850   6.927   5.879   2.836 -0.0978 -0.2888 -0.5186
11627SOL    HW135851   6.898   5.962   2.875 -0.7812 -0.4260 -0.7145
11627SOL    HW235852   6.881   5.812   2.886  2.0385 -0.7134  1.0502
11628SOL     OW35853   0.446   3.547   1.882  0.0695  0.2040  0.3226
11628SOL    HW135854   0.470   3.556   1.790  0.3608  2.4975  0.5763
11628SOL    HW235855   0.385   3.473   1.883 -0.3731  0.4668 -1.7897
11629SOL     OW35856   2.976   5.752   0.402 -0.1625 -0.1324 -0.2773
11629SOL    HW135857   2.924   5.824   0.437 -2.2603 -0.2692 -2.8602
11629SOL    HW235858   2.913   5.681   0.388  0.9940 -0.8849 -1.9749
11630SOL     OW35859   0.068   6.759   2.029 -0.4429  0.2718  0.8212
11630SOL    HW135860   0.102   6.828   2.085  1.8666 -0.7522  0.8213
11630SOL    HW235861   0.060   6.800   1.943 -1.6068  1.1920  1.3515
11631SOL     OW35862   0.982   3.335   5.809  0.2709 -0.4865 -0.2779
11631SOL    HW135863   0.937   3.409   5.849  0.5563 -1.9463  3.1361
11631SOL    HW235864   1.067   3.332   5.853 -0.2090 -3.4709  0.7212
11632SOL     OW35865   0.167   5.121   1.251 -0.0008 -0.9593  0.0736
11632SOL    HW135866   0.196   5.131   1.160 -0.6021  0.9585  0.0595
11632SOL    HW235867   0.078   5.084   1.243  0.2405 -1.5279 -0.0680
11633SOL     OW35868   7.366   2.603   2.548 -0.0421  0.6174  0.0284
11633SOL    HW135869   7.327   2.671   2.493 -0.4885  1.3119  1.1526
11633SOL    HW235870   7.416   2.548   2.488 -0.4685  1.3735 -1.0443
11634SOL     OW35871   5.049   6.036   7.011 -0.2049  0.4824 -0.4585
11634SOL    HW135872   5.075   5.995   7.093  1.3567  1.2929 -0.5082
11634SOL    HW235873   4.970   6.085   7.033 -0.7128 -0.5767  0.1641
11635SOL     OW35874   5.911   3.283   5.815  0.3739 -0.1326  0.4837
11635SOL    HW135875   6.006   3.276   5.814  0.3681 -0.2817 -0.6562
11635SOL    HW235876   5.886   3.261   5.905  1.5179  1.6215  1.2904
11636SOL     OW35877   2.747   6.260   1.851 -0.0275  0.1127 -0.4406
11636SOL    HW135878   2.679   6.211   1.899  0.1736 -1.2041 -1.4426
11636SOL    HW235879   2.741   6.349   1.885 -2.2237  0.0191 -0.4490
11637SOL     OW35880   5.175   0.740   2.310  0.6131 -0.1665  0.9011
11637SOL    HW135881   5.181   0.813   2.371 -1.6778 -0.1072  1.1365
11637SOL    HW235882   5.209   0.774   2.227  0.1074  0.9930  1.1512
11638SOL     OW35883   6.848   1.172   4.757  0.4179 -0.2801  0.2414
11638SOL    HW135884   6.839   1.138   4.668 -0.7359  0.4161  0.0761
11638SOL    HW235885   6.943   1.172   4.773  0.6854  0.1307 -1.2041
11639SOL     OW35886   2.571   5.441   6.998  0.0255 -0.1682 -0.1931
11639SOL    HW135887   2.572   5.350   7.030 -0.3968  0.0866  0.5674
11639SOL    HW235888   2.505   5.440   6.928 -2.0720  0.1275  1.6658
11640SOL     OW35889   4.425   0.923   6.257  0.2188  0.4437 -0.0248
11640SOL    HW135890   4.468   0.892   6.178  0.1652 -1.3162  0.5726
11640SOL    HW235891   4.402   1.014   6.239  0.2620  0.1072 -1.9902
11641SOL     OW35892   7.155   0.875   0.081 -0.5619  0.1803 -0.1592
11641SOL    HW135893   7.193   0.793   0.050 -0.2381  0.5102 -0.6492
11641SOL    HW235894   7.159   0.934   0.006 -2.8439 -0.0191 -0.4912
11642SOL     OW35895   6.368   1.918   4.188  0.0565  0.2714  0.4283
11642SOL    HW135896   6.280   1.907   4.151 -0.2944  0.0431  1.3155
11642SOL    HW235897   6.404   1.994   4.142  0.3587 -1.0968 -1.7388
11643SOL     OW35898   1.084   0.816   5.104  0.1259 -0.1207 -0.1506
11643SOL    HW135899   1.035   0.769   5.172  0.5045  0.0744  0.2596
11643SOL    HW235900   1.175   0.791   5.119  0.1708 -0.3452 -0.8034
11644SOL     OW35901   1.291   0.453   4.879  0.1377  0.8542 -0.0877
11644SOL    HW135902   1.221   0.459   4.944 -0.0979  0.2320 -0.2775
11644SOL    HW235903   1.308   0.359   4.870  0.2641  0.9374 -0.8198
11645SOL     OW35904   7.134   1.177   6.912  0.3533  0.1239 -0.2497
11645SOL    HW135905   7.093   1.146   6.993 -0.8127  1.3626 -0.3376
11645SOL    HW235906   7.216   1.217   6.941  1.0529 -1.4471  0.0413
11646SOL     OW35907   2.041   2.669   6.960  0.8073  0.0277 -0.0524
11646SOL    HW135908   2.012   2.675   7.051 -1.9382  1.9854 -0.8894
11646SOL    HW235909   2.030   2.577   6.937 -1.3947 -0.0124  0.8409
11647SOL     OW35910   1.927   4.485   1.596 -0.2791 -0.4860 -0.0990
11647SOL    HW135911   1.922   4.473   1.501 -0.0152  1.4119 -0.3911
11647SOL    HW235912   1.856   4.546   1.616 -0.5812 -1.1793  0.9952
11648SOL     OW35913   3.690   3.869   5.811 -0.0549 -0.2904 -0.1154
11648SOL    HW135914   3.775   3.855   5.853  0.3797 -1.6703 -1.4110
11648SOL    HW235915   3.644   3.929   5.871  0.5675 -2.0737  2.2839
11649SOL     OW35916   4.300   0.570   2.978  0.0652  0.2083 -0.2227
11649SOL    HW135917   4.275   0.489   3.022  0.6289  0.6902  1.0491
11649SOL    HW235918   4.382   0.548   2.934  0.6179  0.2506  0.7358
11650SOL     OW35919   5.836   6.972   0.206 -0.3379  0.5616  0.4409
11650SOL    HW135920   5.888   6.895   0.182 -2.2484  0.0788 -2.7947
11650SOL    HW235921   5.870   7.042   0.149 -0.2379  1.4920  1.6075
11651SOL     OW35922   6.111   5.304   1.773 -0.0806 -0.0635 -0.0808
11651SOL    HW135923   6.192   5.260   1.799  0.1337  0.0861 -0.4888
11651SOL    HW235924   6.126   5.396   1.793 -0.5264 -0.1691  0.7637
11652SOL     OW35925   2.092   2.403   1.586  0.0599  0.0982  0.3654
11652SOL    HW135926   2.184   2.417   1.564  0.0184  0.4019  0.3784
11652SOL    HW235927   2.054   2.491   1.588  0.0095  0.0641  1.4249
11653SOL     OW35928   5.453   3.540   5.128 -0.4796  0.4725 -0.5309
11653SOL    HW135929   5.408   3.623   5.112  1.7328  2.0320  0.6890
11653SOL    HW235930   5.401   3.475   5.082 -0.6970  2.9371 -4.1813
11654SOL     OW35931   2.597   3.755   6.058  0.1936 -0.1995  0.0727
11654SOL    HW135932   2.555   3.704   5.989  0.2368  0.9384 -0.8050
11654SOL    HW235933   2.554   3.840   6.056 -0.0232 -0.2267  1.6673
11655SOL     OW35934   3.295   3.897   5.296 -0.4253  0.2897 -0.1315
11655SOL    HW135935   3.266   3.871   5.384  1.2293 -0.2850  0.2734
11655SOL    HW235936   3.388   3.873   5.293 -0.0929  1.6240 -1.5343
11656SOL     OW35937   2.603   2.037   4.409 -0.7292  0.0103 -0.3457
11656SOL    HW135938   2.572   2.127   4.395 -2.4502 -0.4739  0.0395
11656SOL    HW235939   2.590   2.021   4.503  0.0048 -0.4852 -0.3205
11657SOL     OW35940   0.873   2.030   6.264 -0.1172 -1.1593 -0.5427
11657SOL    HW135941   0.818   2.000   6.191  0.6916 -0.2331 -1.5685
11657SOL    HW235942   0.955   2.057   6.222  0.0745  0.1356  0.6136
11658SOL     OW35943   5.044   5.678   2.936  0.3025 -0.1978  0.6105
11658SOL    HW135944   5.080   5.747   2.879 -0.0469 -1.3104 -1.0330
11658SOL    HW235945   5.105   5.673   3.009  1.8291  0.0307 -0.5988
11659SOL     OW35946   5.507   5.210   4.298  0.3689  0.0061 -0.0565
11659SOL    HW135947   5.508   5.306   4.292  0.2765 -0.0622 -1.2470
11659SOL    HW235948   5.597   5.184   4.277  0.1447 -0.2182 -0.7513
11660SOL     OW35949   1.046   1.724   0.346 -0.2052  0.3630  0.3612
11660SOL    HW135950   1.024   1.799   0.401  0.8740  1.0214 -0.0725
11660SOL    HW235951   0.970   1.713   0.288 -0.3603  1.1418  0.4130
11661SOL     OW35952   6.011   5.453   6.651 -0.2917  0.5670  0.3666
11661SOL    HW135953   6.064   5.406   6.715  0.6707  1.2716  0.1317
11661SOL    HW235954   5.975   5.385   6.595  3.7816  0.0666 -2.0978
11662SOL     OW35955   4.226   3.660   1.965  0.1593  0.5388 -0.1030
11662SOL    HW135956   4.200   3.749   1.989 -1.4802  0.1366 -0.2564
11662SOL    HW235957   4.252   3.619   2.047  1.5172  1.3182 -0.1137
11663SOL     OW35958   3.374   2.766   3.501 -0.4360 -0.2212 -0.1564
11663SOL    HW135959   3.469   2.771   3.503 -0.4919  1.1557  2.2994
11663SOL    HW235960   3.353   2.677   3.529  0.1180 -0.0339  0.8687
11664SOL     OW35961   2.375   3.807   5.402  0.0026 -0.7286  0.4801
11664SOL    HW135962   2.452   3.822   5.458 -0.5620  1.6222  0.7240
11664SOL    HW235963   2.411   3.794   5.314  0.7182  2.6333  0.1400
11665SOL     OW35964   4.620   0.719   0.512  0.0243 -0.3495 -0.5537
11665SOL    HW135965   4.701   0.768   0.497  0.4951 -0.8713  0.2504
11665SOL    HW235966   4.643   0.629   0.490 -0.9527 -0.2024 -2.4523
11666SOL     OW35967   3.412   5.090   6.447  0.0316 -0.1035  0.2082
11666SOL    HW135968   3.495   5.061   6.409  0.5481  0.1311  1.1238
11666SOL    HW235969   3.407   5.046   6.532 -1.5667 -1.3741 -0.4935
11667SOL     OW35970   1.481   5.777   1.215 -0.3120 -0.5029 -0.5472
11667SOL    HW135971   1.396   5.815   1.191 -1.7170 -0.7933  3.1596
11667SOL    HW235972   1.505   5.824   1.296  2.2820 -1.5494 -0.6328
11668SOL     OW35973   2.360   2.499   2.441 -0.6406  0.4970  0.1752
11668SOL    HW135974   2.343   2.545   2.358 -0.3503  0.7371  0.2479
11668SOL    HW235975   2.397   2.567   2.498 -1.9887  0.6504  0.9079
11669SOL     OW35976   3.835   4.138   5.310  0.2149  0.6840  0.1115
11669SOL    HW135977   3.867   4.094   5.389  0.4923  0.0154 -0.3650
11669SOL    HW235978   3.914   4.152   5.257 -0.1063  0.2103 -0.4973
11670SOL     OW35979   3.312   0.584   6.643 -0.0379 -0.0782  0.2375
11670SOL    HW135980   3.370   0.520   6.603 -0.3115 -0.0751 -0.1729
11670SOL    HW235981   3.229   0.537   6.655 -0.4168  0.3494 -0.5840
11671SOL     OW35982   3.532   3.133   5.102 -0.1250  0.4369  0.4662
11671SOL    HW135983   3.475   3.069   5.059 -0.7983  1.1851  0.2238
11671SOL    HW235984   3.483   3.215   5.099  0.3894  0.8049  1.4621
11672SOL     OW35985   0.282   4.006   1.825 -0.3648  0.5219 -0.6954
11672SOL    HW135986   0.336   4.080   1.854 -1.3924  1.1358 -0.3107
11672SOL    HW235987   0.319   3.930   1.870 -1.4199  1.3325  1.6623
11673SOL     OW35988   4.256   4.200   3.257  0.5115 -0.4891 -0.1455
11673SOL    HW135989   4.266   4.272   3.320  0.9163 -0.9706  0.3602
11673SOL    HW235990   4.162   4.191   3.245  0.4134 -0.5903  0.6462
11674SOL     OW35991   2.760   5.834   4.152 -0.2551  0.1730  0.5746
11674SOL    HW135992   2.674   5.793   4.141  0.4867 -1.3433  0.1348
11674SOL    HW235993   2.807   5.775   4.210  0.6635  0.7446  0.4220
11675SOL     OW35994   2.739   6.237   6.407 -0.0240 -0.7441  0.0721
11675SOL    HW135995   2.817   6.185   6.388 -0.6857 -1.1558 -1.6478
11675SOL    HW235996   2.736   6.302   6.337  0.3927  1.2387  1.7775
11676SOL     OW35997   6.034   3.555   2.527  0.5079 -0.2784  0.3900
11676SOL    HW135998   6.025   3.564   2.432 -0.8430  0.7542  0.5801
11676SOL    HW235999   6.122   3.587   2.546  0.3261  0.7409 -0.3895
11677SOL     OW36000   3.429   3.249   6.927  0.0912 -0.0776  0.2934
11677SOL    HW136001   3.456   3.322   6.982 -0.3673  1.0400 -0.9157
11677SOL    HW236002   3.364   3.202   6.980  0.9434 -0.0712  1.3737
11678SOL     OW36003   0.633   3.119   3.338  0.8218  0.1334 -0.4511
11678SOL    HW136004   0.697   3.081   3.398 -0.4170  0.0970  0.8925
11678SOL    HW236005   0.674   3.111   3.252  3.4438  1.8205  0.5267
11679SOL     OW36006   0.324   1.568   0.050  0.4415 -0.0640 -0.7131
11679SOL    HW136007   0.386   1.559  -0.022  1.0148 -1.7152 -0.0414
11679SOL    HW236008   0.241   1.536   0.014  0.8762 -1.5095 -0.4591
11680SOL     OW36009   0.001   5.753   7.058 -0.1987 -0.2860 -0.5363
11680SOL    HW136010  -0.076   5.698   7.073 -1.3363  0.8725 -1.7451
11680SOL    HW236011  -0.035   5.842   7.050  1.7644  1.1061  3.5420
11681SOL     OW36012   2.179   2.891   6.074  0.6008 -0.3390  0.6951
11681SOL    HW136013   2.099   2.843   6.050 -1.0741  1.0952  2.9738
11681SOL    HW236014   2.167   2.913   6.166  2.2926  2.4261  0.3806
11682SOL     OW36015   2.136   4.881   0.581  0.6275 -0.0278 -0.2075
11682SOL    HW136016   2.198   4.866   0.653 -0.4411  1.6558  1.1268
11682SOL    HW236017   2.116   4.974   0.586 -1.5520 -0.4114 -0.9963
11683SOL     OW36018   4.591   0.504   2.558  0.5082 -0.4786  0.0320
11683SOL    HW136019   4.518   0.560   2.529 -0.6415 -1.1077  1.5847
11683SOL    HW236020   4.642   0.489   2.479 -1.2095 -0.2381 -1.1799
11684SOL     OW36021   4.597   6.554   5.712 -0.6076  0.0963  0.1650
11684SOL    HW136022   4.592   6.462   5.686  1.5235 -0.1713  0.5192
11684SOL    HW236023   4.590   6.602   5.630 -0.8313 -0.4173 -0.1263
11685SOL     OW36024   2.199   6.786   2.895 -0.0649  0.3112 -0.1870
11685SOL    HW136025   2.121   6.760   2.846 -0.5684  3.1011 -1.0338
11685SOL    HW236026   2.187   6.879   2.912  1.4303  0.0769  2.8639
11686SOL     OW36027   7.145   2.007   0.234 -0.3048 -0.0617  0.4699
11686SOL    HW136028   7.128   2.085   0.181  1.8424  0.0164 -0.2088
11686SOL    HW236029   7.081   1.943   0.203  0.0644  0.3982 -1.3790
11687SOL     OW36030   2.723   1.103   0.186  0.0661  0.5765  0.5386
11687SOL    HW136031   2.702   1.186   0.229 -2.3702 -0.2377  1.1090
11687SOL    HW236032   2.760   1.049   0.256  1.7027  1.1477  0.1550
11688SOL     OW36033   5.993   2.170   5.270 -0.0736  0.0369  0.4018
11688SOL    HW136034   6.057   2.219   5.321 -0.2171  0.4943  0.1486
11688SOL    HW236035   5.973   2.094   5.324  1.6515 -0.8145 -0.0690
11689SOL     OW36036   1.891   5.094   5.430  0.0803  0.0522  0.0815
11689SOL    HW136037   1.905   5.000   5.446 -0.2615  0.1521  0.9866
11689SOL    HW236038   1.797   5.106   5.442 -0.0083  0.3668 -0.8513
11690SOL     OW36039   6.580   0.587   6.877  0.1867 -0.3655 -0.5667
11690SOL    HW136040   6.574   0.607   6.783  0.6989 -1.0761 -0.7562
11690SOL    HW236041   6.654   0.639   6.908  0.6002 -0.8438 -0.7519
11691SOL     OW36042   0.582   2.410   6.776 -0.8514  0.5365 -0.1851
11691SOL    HW136043   0.654   2.347   6.776 -0.6508  0.7642  0.1938
11691SOL    HW236044   0.506   2.359   6.745 -0.3053  0.5764 -1.7086
11692SOL     OW36045   6.830   1.932   6.097  0.5729 -0.2612  0.1382
11692SOL    HW136046   6.839   1.848   6.142  0.4500 -0.6328 -0.5241
11692SOL    HW236047   6.884   1.923   6.018 -1.0644 -0.4852 -1.0039
11693SOL     OW36048   2.949   1.710   1.665 -0.6858 -0.1926 -0.5223
11693SOL    HW136049   2.907   1.787   1.704 -0.9435 -0.0787 -1.0244
11693SOL    HW236050   2.876   1.656   1.634 -0.5022 -0.5968 -0.2593
11694SOL     OW36051   1.338   3.440   4.367 -0.0284  0.2317  0.3697
11694SOL    HW136052   1.355   3.353   4.332  0.8612  0.6594 -0.3218
11694SOL    HW236053   1.296   3.487   4.296 -0.0974  0.4956  0.5834
11695SOL     OW36054   0.767   4.581   2.369  0.1964  0.0106  0.2340
11695SOL    HW136055   0.701   4.649   2.351  0.5111  0.6468  1.3988
11695SOL    HW236056   0.725   4.499   2.343  0.0627  0.6938 -1.8927
11696SOL     OW36057   0.123   6.994   0.069 -0.5714 -0.2155 -0.7915
11696SOL    HW136058   0.061   6.944   0.015 -1.4204  2.2403 -2.2127
11696SOL    HW236059   0.197   7.011   0.012  0.7316 -1.6602  0.3843
11697SOL     OW36060   4.534   0.140   5.018 -0.2150  0.9420 -0.3719
11697SOL    HW136061   4.443   0.119   4.995 -0.2436  0.2116  0.3855
11697SOL    HW236062   4.585   0.069   4.978 -0.2481 -0.2560  1.5885
11698SOL     OW36063   6.999   6.793   3.676 -0.2271 -0.2053 -0.3574
11698SOL    HW136064   7.021   6.874   3.629 -1.2215  1.2636  1.5602
11698SOL    HW236065   6.929   6.753   3.623  0.5952 -0.1053 -1.5748
11699SOL     OW36066   2.976   4.990   2.790 -0.3960 -0.3608 -0.6023
11699SOL    HW136067   3.038   5.048   2.745 -2.1051  1.5689 -0.6131
11699SOL    HW236068   3.031   4.923   2.829  1.9921  2.3254  1.1064
11700SOL     OW36069   1.705   0.598   2.928 -0.2098  0.2871 -0.3367
11700SOL    HW136070   1.771   0.604   2.858 -1.3846 -0.5509 -1.5685
11700SOL    HW236071   1.636   0.658   2.901 -0.6715 -0.0307  0.1244
11701SOL     OW36072   5.165   4.295   5.292  0.6802 -0.1187 -0.1507
11701SOL    HW136073   5.128   4.208   5.308  1.7457 -0.4299  0.8170
11701SOL    HW236074   5.184   4.328   5.380  0.9085  0.8179 -0.5470
11702SOL     OW36075   3.607   0.910   3.266  0.1943 -0.2837 -0.0974
11702SOL    HW136076   3.635   0.985   3.214  0.4479 -0.1981  0.1566
11702SOL    HW236077   3.673   0.843   3.250  0.7439  0.0282  0.7515
11703SOL     OW36078   4.859   3.963   6.340 -0.0753 -0.0821  0.5775
11703SOL    HW136079   4.793   3.926   6.282  0.5111 -1.3038  0.6361
11703SOL    HW236080   4.903   3.886   6.378  0.9130  0.6908  1.0581
11704SOL     OW36081   3.464   2.522   1.208 -0.2098  0.2018  0.0218
11704SOL    HW136082   3.393   2.469   1.243 -1.5440  1.0255 -1.3049
11704SOL    HW236083   3.499   2.470   1.135 -1.5370  1.0950 -1.2971
11705SOL     OW36084   2.242   2.442   3.167  0.1433  0.0812  0.2160
11705SOL    HW136085   2.216   2.351   3.178 -0.3006  0.4180  2.3378
11705SOL    HW236086   2.164   2.492   3.193  0.1930  1.0900 -1.4355
11706SOL     OW36087   5.425   0.935   0.776  0.5845 -0.3241 -0.1160
11706SOL    HW136088   5.465   0.978   0.700 -1.5634  2.0598 -0.0576
11706SOL    HW236089   5.423   1.003   0.844  0.6927 -1.8020  1.4394
11707SOL     OW36090   5.650   2.534   1.681 -0.4425 -0.2014 -0.2403
11707SOL    HW136091   5.570   2.488   1.708 -0.9343  1.5683  1.5532
11707SOL    HW236092   5.619   2.602   1.621 -0.5653  1.5089  1.6835
11708SOL     OW36093   2.909   1.545   0.418  0.0382 -0.6382  0.0987
11708SOL    HW136094   2.873   1.632   0.430 -0.6638 -0.9113  0.0061
11708SOL    HW236095   2.906   1.505   0.506 -0.5196 -0.8955 -0.0314
11709SOL     OW36096   7.112   6.416   7.352  0.6046 -0.0045  1.1537
11709SOL    HW136097   7.164   6.495   7.336 -0.8404  0.6606 -0.5846
11709SOL    HW236098   7.146   6.353   7.289  1.3893 -0.6288  2.1726
11710SOL     OW36099   7.243   1.201   0.428  0.0786  0.0105 -0.1750
11710SOL    HW136100   7.252   1.250   0.347 -1.8672  0.0117 -0.4291
11710SOL    HW236101   7.192   1.123   0.403 -1.2475  0.4081  1.1678
11711SOL     OW36102   2.245   3.508   1.614 -0.3737  0.1914  0.1179
11711SOL    HW136103   2.179   3.461   1.664 -0.3832  0.0555 -0.0221
11711SOL    HW236104   2.326   3.496   1.664 -0.0239 -1.3803 -0.7640
11712SOL     OW36105   5.462   4.636   4.324  0.4022 -0.0234  0.3625
11712SOL    HW136106   5.416   4.625   4.240  2.4663  1.0768 -1.0066
11712SOL    HW236107   5.413   4.582   4.386 -0.1157 -2.4210 -1.9523
11713SOL     OW36108   2.169   0.943   5.426  0.3431 -0.0888 -0.9427
11713SOL    HW136109   2.154   1.001   5.500 -1.1714 -1.4604 -0.0894
11713SOL    HW236110   2.187   1.001   5.353 -1.1301  1.4727 -0.1391
11714SOL     OW36111   4.039   4.910   1.428  0.1675  0.1090  0.2745
11714SOL    HW136112   4.101   4.889   1.498  1.0548 -1.7377 -0.9782
11714SOL    HW236113   4.086   4.972   1.372  0.8200 -1.0240 -0.4842
11715SOL     OW36114   7.348   3.503   5.500 -0.0476 -0.3036 -0.0028
11715SOL    HW136115   7.361   3.595   5.478  1.6783  0.3764  3.2599
11715SOL    HW236116   7.392   3.455   5.430  1.9021  1.4979 -0.0993
11716SOL     OW36117   1.435   4.462   1.081  0.3514  0.6842 -0.1811
11716SOL    HW136118   1.415   4.428   1.168  0.9781  4.0357  1.4076
11716SOL    HW236119   1.350   4.478   1.041  0.0486  0.2281  0.2652
11717SOL     OW36120   1.455   1.026   6.839  0.2907 -0.1347  0.4268
11717SOL    HW136121   1.432   0.938   6.872 -0.3142  0.5953  2.0950
11717SOL    HW236122   1.468   1.078   6.919 -0.2792  1.5248 -0.5208
11718SOL     OW36123   4.417   1.450   1.632 -0.1302  0.2786  0.0082
11718SOL    HW136124   4.325   1.460   1.657  0.5796 -0.0629  3.3539
11718SOL    HW236125   4.462   1.519   1.681  1.6308 -1.0700  0.3808
11719SOL     OW36126   4.662   7.257   1.456  0.6219  0.4961  0.3053
11719SOL    HW136127   4.710   7.266   1.538 -0.3191 -2.1055  1.2505
11719SOL    HW236128   4.615   7.339   1.446  2.0374  1.5077  1.4667
11720SOL     OW36129   4.283   1.954   6.318 -0.7568  0.6037  0.1722
11720SOL    HW136130   4.375   1.929   6.311 -0.3290  1.8782  0.8505
11720SOL    HW236131   4.238   1.873   6.341  0.0954 -0.1748 -0.8026
11721SOL     OW36132   4.094   3.914   1.627 -0.0019  0.0216  0.2241
11721SOL    HW136133   4.052   3.938   1.545  1.6885 -0.2930 -0.7966
11721SOL    HW236134   4.110   3.820   1.619 -0.1309 -0.0785  1.0744
11722SOL     OW36135   5.431   4.662   5.128 -1.1462  0.2890  0.0018
11722SOL    HW136136   5.369   4.657   5.200  0.3922 -0.3923  1.3356
11722SOL    HW236137   5.474   4.576   5.127 -1.4151  0.1174 -2.0282
11723SOL     OW36138   2.195   0.948   1.917 -0.0545  0.1068  0.0937
11723SOL    HW136139   2.256   1.014   1.884  1.6704 -1.0079  0.8381
11723SOL    HW236140   2.149   0.916   1.840  2.6381 -1.2349 -1.0899
11724SOL     OW36141   0.338   6.222   2.348 -0.2865  0.2418  0.1476
11724SOL    HW136142   0.334   6.145   2.292 -0.5305  0.4633 -0.1444
11724SOL    HW236143   0.301   6.193   2.431 -0.0449 -0.0528  0.1530
11725SOL     OW36144   5.609   5.777   2.471  0.1471  0.9289 -0.0664
11725SOL    HW136145   5.690   5.770   2.419 -0.1460 -0.0437 -0.4188
11725SOL    HW236146   5.539   5.761   2.408 -0.2089 -0.3962  0.6313
11726SOL     OW36147   2.218   1.619   7.334 -0.4332 -0.0568 -0.0912
11726SOL    HW136148   2.241   1.712   7.322  1.2485 -0.0422  2.5146
11726SOL    HW236149   2.176   1.616   7.420 -1.2388 -1.6410 -0.5071
11727SOL     OW36150   6.765   5.064   4.954  0.2819  0.0561 -0.1041
11727SOL    HW136151   6.726   5.097   4.873  2.2252  0.1267 -1.0492
11727SOL    HW236152   6.757   4.969   4.947  0.3716  0.0663 -0.3468
11728SOL     OW36153   6.858   5.290   4.241  0.3601  0.1624 -0.3370
11728SOL    HW136154   6.831   5.237   4.316  0.0634  1.0355  0.1845
11728SOL    HW236155   6.928   5.239   4.200  1.3560  0.2075  1.2250
11729SOL     OW36156   5.099   5.572   1.081  0.2169  0.1649 -0.8157
11729SOL    HW136157   5.166   5.507   1.060  1.7774  1.2614  0.4788
11729SOL    HW236158   5.140   5.656   1.061 -0.1068  0.9478  1.4619
11730SOL     OW36159   6.856   5.175   0.364 -0.3415 -0.0171 -0.1837
11730SOL    HW136160   6.772   5.174   0.318  0.5036 -1.0715 -1.7622
11730SOL    HW236161   6.908   5.241   0.318 -0.6121  1.4137  1.4580
11731SOL     OW36162   4.239   0.881   1.989 -0.1506 -0.1636  0.2032
11731SOL    HW136163   4.194   0.836   1.917  3.0002 -0.4802 -1.7335
11731SOL    HW236164   4.233   0.820   2.062 -2.1448 -0.5036 -0.1835
11732SOL     OW36165   4.124   5.253   6.447  0.0460  0.2704  0.3794
11732SOL    HW136166   4.119   5.340   6.407  0.6947 -0.1374 -0.6183
11732SOL    HW236167   4.033   5.232   6.470 -0.4107  0.3897 -1.1879
11733SOL     OW36168   5.555   4.492   3.499  0.6042  0.8587  0.5574
11733SOL    HW136169   5.572   4.428   3.430 -1.3773 -0.2927  1.0672
11733SOL    HW236170   5.595   4.573   3.467  1.3791 -0.1156 -1.0431
11734SOL     OW36171   1.794   3.013   6.025  0.1648  0.7276  0.3692
11734SOL    HW136172   1.853   2.939   6.016  0.2700  0.6398  1.5409
11734SOL    HW236173   1.804   3.063   5.944 -0.7186 -1.0951 -0.9072
11735SOL     OW36174   3.826   5.040   7.147 -0.1961  0.0849  0.5959
11735SOL    HW136175   3.762   5.011   7.213  0.2323 -0.1704  0.9008
11735SOL    HW236176   3.876   4.961   7.126  0.8849  0.5591  1.3175
11736SOL     OW36177   0.579   0.917   5.478 -0.0534  0.2930 -0.1193
11736SOL    HW136178   0.673   0.925   5.494  0.0068  0.8308 -0.6891
11736SOL    HW236179   0.540   0.910   5.565  0.6939 -2.4826  0.0769
11737SOL     OW36180   2.500   6.440   4.983 -0.4458 -0.4684  0.6539
11737SOL    HW136181   2.452   6.412   4.905 -0.1063  0.6613  0.0126
11737SOL    HW236182   2.545   6.361   5.013  0.7768 -0.5780 -1.2882
11738SOL     OW36183   6.782   2.162   6.601 -0.0506  0.6831 -0.5799
11738SOL    HW136184   6.817   2.084   6.558 -1.2664  0.4521 -1.1888
11738SOL    HW236185   6.783   2.230   6.534 -1.3937  0.4833 -0.8328
11739SOL     OW36186   3.228   4.760   4.556 -0.2699 -0.0780 -0.0564
11739SOL    HW136187   3.279   4.786   4.632  1.4125 -2.5162 -0.2235
11739SOL    HW236188   3.222   4.839   4.502  1.4047  0.8448  1.0472
11740SOL     OW36189   3.415   1.169   2.836  0.6465  0.0657 -0.1577
11740SOL    HW136190   3.418   1.087   2.885 -2.0263 -0.0812 -0.1031
11740SOL    HW236191   3.334   1.211   2.864  0.1348  1.0274 -2.7730
11741SOL     OW36192   5.478   3.909   4.266 -0.4417 -0.6718 -0.7066
11741SOL    HW136193   5.412   3.921   4.334 -0.3343  1.8039 -0.9497
11741SOL    HW236194   5.444   3.957   4.190  0.3408 -1.7520 -1.7894
11742SOL     OW36195   5.060   0.234   2.572  0.1069  0.0595 -0.3752
11742SOL    HW136196   4.965   0.226   2.563 -0.1446  0.9295  1.1075
11742SOL    HW236197   5.085   0.299   2.507 -0.1524 -0.8296 -1.3982
11743SOL     OW36198   4.980   3.014   3.741 -0.3128  0.0120  0.1326
11743SOL    HW136199   4.941   2.982   3.822 -0.1100  2.0946  1.1234
11743SOL    HW236200   5.074   3.002   3.753 -0.3521 -0.6707 -0.2506
11744SOL     OW36201   6.075   4.581   6.081 -0.5727 -0.1318 -0.0350
11744SOL    HW136202   6.072   4.562   5.988 -1.8720  0.0420 -0.0365
11744SOL    HW236203   5.985   4.601   6.105 -0.3574 -0.7206  1.3720
11745SOL     OW36204   0.972   2.853   1.113  0.4589 -0.2494 -0.8554
11745SOL    HW136205   0.901   2.916   1.121  1.2871  0.5141  0.8787
11745SOL    HW236206   0.936   2.783   1.058 -1.4281  0.3627 -0.4537
11746SOL     OW36207   3.139   6.750   0.469 -0.1675 -0.1539 -0.0921
11746SOL    HW136208   3.072   6.684   0.491  0.3216 -0.4424  0.5614
11746SOL    HW236209   3.162   6.731   0.378 -0.8731 -0.1380 -0.2824
11747SOL     OW36210   0.818   2.485   0.122 -0.2185  0.2389 -0.2436
11747SOL    HW136211   0.730   2.462   0.152  0.0950  0.5714  1.0026
11747SOL    HW236212   0.859   2.527   0.198  1.6181 -1.5114 -0.1742
11748SOL     OW36213   1.732   2.607   2.242  0.6555  0.4589 -0.2863
11748SOL    HW136214   1.749   2.648   2.327  1.3834 -0.8221  0.2274
11748SOL    HW236215   1.744   2.513   2.259  0.9397  0.1943 -1.8367
11749SOL     OW36216   1.308   4.791   7.004 -0.2469  0.4363  0.1605
11749SOL    HW136217   1.381   4.839   6.964 -0.4885  1.5993  1.0756
11749SOL    HW236218   1.265   4.855   7.060 -1.2093 -0.5888  0.6233
11750SOL     OW36219   1.217   2.427   1.676 -0.0706  0.4173 -0.0478
11750SOL    HW136220   1.156   2.422   1.750  1.4242 -3.4682  1.1513
11750SOL    HW236221   1.304   2.429   1.716  0.7556 -0.7959 -1.6447
11751SOL     OW36222   0.316   4.046   6.285 -0.0207  0.4636 -0.3906
11751SOL    HW136223   0.387   3.996   6.246 -0.2623  0.0189 -0.2593
11751SOL    HW236224   0.293   4.112   6.219 -0.7568 -0.5792 -1.2075
11752SOL     OW36225   1.119   3.362   1.829  0.0362 -0.6484 -0.0326
11752SOL    HW136226   1.062   3.435   1.854  0.1506 -0.3421 -0.6511
11752SOL    HW236227   1.123   3.366   1.734 -0.6008 -1.9534 -0.1392
11753SOL     OW36228   1.746   0.621   3.552 -0.7287  0.0391 -0.2469
11753SOL    HW136229   1.666   0.674   3.552 -1.0637 -0.4559 -0.4462
11753SOL    HW236230   1.807   0.669   3.496 -0.3851  1.1443  1.0385
11754SOL     OW36231   3.474   0.421   6.501 -0.1527 -0.9534 -0.0767
11754SOL    HW136232   3.533   0.425   6.426  1.2216 -1.1162  0.9598
11754SOL    HW236233   3.508   0.349   6.554 -1.1271 -0.8696  0.6899
11755SOL     OW36234   7.312   6.092   2.314  0.5789 -0.4953 -0.6082
11755SOL    HW136235   7.363   6.172   2.327 -1.6959  0.6124  3.2435
11755SOL    HW236236   7.225   6.123   2.288  0.4273 -1.9880 -2.0306
11756SOL     OW36237   5.517   7.312   3.734  0.0303 -0.0356  0.0535
11756SOL    HW136238   5.444   7.260   3.769  0.9218 -0.3595  1.5032
11756SOL    HW236239   5.479   7.399   3.720 -0.2811  0.2912  2.4554
11757SOL     OW36240   6.983   6.541   2.334 -0.0444  0.4773  0.1181
11757SOL    HW136241   6.980   6.478   2.262  1.1643 -0.5390  0.9240
11757SOL    HW236242   7.074   6.570   2.338 -0.6883  2.7893 -0.6219
11758SOL     OW36243   5.248   7.017   5.574  0.2335 -0.3996  0.1355
11758SOL    HW136244   5.295   6.976   5.501 -0.5714 -0.3370 -0.4252
11758SOL    HW236245   5.202   6.945   5.616  0.8565 -0.4661  0.7041
11759SOL     OW36246   2.657   1.943   0.583 -0.1610  0.1456  0.5801
11759SOL    HW136247   2.628   1.988   0.663  2.0136  2.1409  0.3361
11759SOL    HW236248   2.640   2.005   0.513  0.9334 -0.2657 -0.0753
11760SOL     OW36249   5.683   1.585   0.477  0.3131 -0.2542  0.1998
11760SOL    HW136250   5.716   1.675   0.480 -0.3044  0.0188 -0.6801
11760SOL    HW236251   5.685   1.555   0.568 -1.0904  1.2500  0.7737
11761SOL     OW36252   6.975   1.379   5.997 -0.1470  0.1750 -0.1669
11761SOL    HW136253   6.949   1.298   6.042 -1.4313  0.5576 -0.1618
11761SOL    HW236254   6.892   1.427   5.985  0.5325  1.2871 -0.5625
11762SOL     OW36255   2.527   1.448   1.154 -0.0919 -0.6505 -0.0063
11762SOL    HW136256   2.537   1.445   1.059  0.2617 -0.5560  0.0262
11762SOL    HW236257   2.604   1.495   1.185  0.0638 -1.1486  0.3713
11763SOL     OW36258   1.106   4.047   0.315 -0.3091 -0.0225 -0.6368
11763SOL    HW136259   1.082   4.020   0.404  0.1844 -0.6364 -0.6859
11763SOL    HW236260   1.033   4.103   0.287  0.0741  1.1485  0.5812
11764SOL     OW36261   1.117   3.715   0.308 -0.7450 -0.1837 -0.6521
11764SOL    HW136262   1.196   3.768   0.320 -1.0225  0.2974 -0.9008
11764SOL    HW236263   1.149   3.631   0.275  0.2782 -2.2053  4.4606
11765SOL     OW36264   1.020   7.109   5.711 -0.3520 -0.0989  0.1951
11765SOL    HW136265   0.947   7.170   5.717 -1.0692 -1.0715  2.6451
11765SOL    HW236266   1.077   7.132   5.785  0.3302 -1.1772  0.0307
11766SOL     OW36267   4.939   1.013   3.733 -0.4678  0.4048  0.4343
11766SOL    HW136268   4.906   1.102   3.738 -1.6648  0.0194 -0.3773
11766SOL    HW236269   4.993   1.004   3.812 -2.1451  1.1186  1.7242
11767SOL     OW36270   1.816   1.769   5.342 -0.2096 -0.0215  0.2050
11767SOL    HW136271   1.907   1.798   5.354  0.0478  0.4584 -2.3367
11767SOL    HW236272   1.779   1.833   5.281 -1.0994 -2.3174 -1.7886
11768SOL     OW36273   0.917   6.479   3.621 -0.3478 -0.1217 -0.3285
11768SOL    HW136274   0.996   6.425   3.612  0.8752  1.0425  2.3153
11768SOL    HW236275   0.950   6.568   3.630 -2.1185  0.6466 -1.0201
11769SOL     OW36276   0.966   3.649   4.801 -0.4146 -0.2317 -0.0767
11769SOL    HW136277   1.040   3.668   4.859 -0.8494  0.1661  0.3559
11769SOL    HW236278   1.003   3.593   4.732 -0.1182 -1.5643  1.1325
11770SOL     OW36279   1.186   3.336   1.308 -0.0202 -0.2479  0.4054
11770SOL    HW136280   1.099   3.325   1.269  0.4368 -1.3737 -0.3391
11770SOL    HW236281   1.243   3.357   1.235  0.3989  0.1423  0.8418
11771SOL     OW36282   2.978   2.801   4.654  0.6727  0.2502  0.1148
11771SOL    HW136283   3.044   2.783   4.586 -0.1215 -1.0597 -0.3466
11771SOL    HW236284   2.961   2.716   4.694  0.6038  0.8942  1.4956
11772SOL     OW36285   2.903   2.743   5.367 -0.7720 -0.2367  0.0315
11772SOL    HW136286   2.829   2.686   5.388 -0.9728  0.1701  0.4495
11772SOL    HW236287   2.968   2.685   5.327 -1.4869 -0.5208 -0.7275
11773SOL     OW36288   1.202   1.897   0.857 -0.0207  0.2346 -0.4460
11773SOL    HW136289   1.290   1.910   0.892 -0.1809  0.6867 -0.1981
11773SOL    HW236290   1.190   1.969   0.795 -0.0013 -0.1587 -0.9087
11774SOL     OW36291   4.519   3.764   4.831  0.7970 -0.1340 -0.2817
11774SOL    HW136292   4.577   3.777   4.756  1.8991  0.5576  0.6605
11774SOL    HW236293   4.568   3.799   4.906  1.2247 -3.8506  1.4099
11775SOL     OW36294   6.262   6.037   4.039 -0.0312  0.1589  0.0799
11775SOL    HW136295   6.328   6.006   3.977 -0.7581 -1.2962  0.0001
11775SOL    HW236296   6.288   5.999   4.123 -1.6103 -1.7836 -0.2523
11776SOL     OW36297   6.562   3.494   5.610 -0.5647  0.0824 -0.0539
11776SOL    HW136298   6.601   3.411   5.586 -0.3768  0.4865 -1.1698
11776SOL    HW236299   6.528   3.479   5.699 -0.7190 -1.2359 -0.3143
11777SOL     OW36300   3.665   0.629   4.077 -0.2192 -0.3819 -0.2066
11777SOL    HW136301   3.636   0.705   4.027  0.0030 -0.0726  0.1316
11777SOL    HW236302   3.585   0.579   4.093 -0.2767 -0.5338 -0.9509
11778SOL     OW36303   1.000   6.207   0.762  0.3236 -0.0850  0.4716
11778SOL    HW136304   1.095   6.198   0.774  0.2730  1.2796  2.2660
11778SOL    HW236305   0.963   6.190   0.848 -1.0060  0.2455 -0.0088
11779SOL     OW36306   4.059   0.403   4.996  0.0576 -0.2216 -0.0150
11779SOL    HW136307   4.086   0.471   5.059 -0.7119  1.1515 -1.1161
11779SOL    HW236308   4.008   0.341   5.048 -0.8067  1.0330  0.6959
11780SOL     OW36309   5.349   4.900   1.521 -0.4281  0.1775  0.0849
11780SOL    HW136310   5.438   4.917   1.552  0.1841 -2.3376 -0.0694
11780SOL    HW236311   5.348   4.806   1.500 -3.2355  0.0185  0.4705
11781SOL     OW36312   3.779   1.953   6.275 -0.1379 -0.3348 -0.6647
11781SOL    HW136313   3.692   1.973   6.240 -0.4756 -0.9629 -0.2151
11781SOL    HW236314   3.773   1.861   6.302 -0.2595  0.3606  2.0175
11782SOL     OW36315   4.143   2.541   5.065 -0.1049  0.1173 -0.9192
11782SOL    HW136316   4.137   2.627   5.108  0.2550  0.4122 -1.4505
11782SOL    HW236317   4.188   2.485   5.129 -1.1750  0.0649 -0.1899
11783SOL     OW36318   1.900   1.377   3.271  0.6286  0.1551 -0.0019
11783SOL    HW136319   1.875   1.316   3.202  1.6387  0.4172 -0.6194
11783SOL    HW236320   1.928   1.456   3.225 -1.1346  1.3194  0.8052
11784SOL     OW36321   0.340   7.138   2.307  0.1036 -0.4171  0.0601
11784SOL    HW136322   0.370   7.178   2.389  1.1367 -1.6411  0.3101
11784SOL    HW236323   0.419   7.130   2.254  0.3196 -3.6097  0.6896
11785SOL     OW36324   3.481   7.265   5.293 -0.6372 -0.1742  0.0864
11785SOL    HW136325   3.528   7.275   5.376  1.1894 -0.3544 -0.8596
11785SOL    HW236326   3.396   7.231   5.318 -0.8262  1.4771  2.0231
11786SOL     OW36327   5.316   4.290   5.041  0.2147 -0.0424 -0.5927
11786SOL    HW136328   5.266   4.338   5.106  0.6097  1.0885 -1.0855
11786SOL    HW236329   5.330   4.353   4.970  1.9030 -0.4581 -0.6768
11787SOL     OW36330   6.120   1.298   4.777 -0.5121  0.3423 -0.0473
11787SOL    HW136331   6.048   1.238   4.794  0.3224 -0.3495  1.2312
11787SOL    HW236332   6.181   1.247   4.723 -0.4547  0.5351 -0.1645
11788SOL     OW36333   2.110   1.012   4.648  0.4688 -0.1779 -0.2784
11788SOL    HW136334   2.059   1.048   4.721  0.6757 -1.7800  0.7038
11788SOL    HW236335   2.054   0.943   4.612  1.3348 -1.0004 -0.0886
11789SOL     OW36336   5.767   4.920   4.388 -0.5379 -0.5033  0.2466
11789SOL    HW136337   5.857   4.905   4.419 -0.8880 -1.9030  0.6320
11789SOL    HW236338   5.774   4.916   4.292 -0.1785 -0.4847  0.2681
11790SOL     OW36339   0.842   1.775   6.452 -0.5752  0.0504 -0.0428
11790SOL    HW136340   0.756   1.734   6.436  0.5469 -2.1162 -1.0140
11790SOL    HW236341   0.857   1.830   6.376 -0.9234  0.1326 -0.0548
11791SOL     OW36342   4.253   2.644   1.419  0.4277 -0.2789 -0.3576
11791SOL    HW136343   4.268   2.668   1.511  1.2792 -0.6408 -0.3940
11791SOL    HW236344   4.301   2.710   1.369  1.0585 -0.8276 -0.5016
11792SOL     OW36345   0.918   5.705   0.604  0.5455 -0.0715  0.0766
11792SOL    HW136346   0.880   5.729   0.688 -1.2207 -0.6285 -0.5249
11792SOL    HW236347   0.986   5.772   0.589  1.2004 -0.2147  2.1001
11793SOL     OW36348   3.733   6.912   3.261 -0.0524  0.4916 -0.4671
11793SOL    HW136349   3.780   6.829   3.268 -1.3718 -0.1293  2.8265
11793SOL    HW236350   3.785   6.974   3.312 -0.5512  0.9305 -0.4742
11794SOL     OW36351   4.933   1.666   3.076  0.1830  0.0820  0.4239
11794SOL    HW136352   4.902   1.753   3.050 -1.1126 -0.5757 -0.3671
11794SOL    HW236353   4.862   1.607   3.050  0.8007 -1.1580  1.4288
11795SOL     OW36354   6.050   3.307   2.638  0.0034 -0.3296  0.3713
11795SOL    HW136355   6.033   3.395   2.605 -0.7334 -0.5944  0.0275
11795SOL    HW236356   6.145   3.304   2.651  0.1197  0.2638 -0.3180
11796SOL     OW36357   2.858   5.237   0.908 -0.2894 -0.1043  0.5670
11796SOL    HW136358   2.915   5.168   0.874  0.8212  0.6481  0.8210
11796SOL    HW236359   2.770   5.200   0.904 -0.0974 -0.4664 -2.0469
11797SOL     OW36360   3.263   5.200   1.581  0.2053 -0.1443  0.4639
11797SOL    HW136361   3.170   5.183   1.594 -0.6294  2.8096 -0.7691
11797SOL    HW236362   3.300   5.206   1.669 -1.0226 -0.2460  0.9965
11798SOL     OW36363   0.838   0.008   3.896 -0.5766 -0.6979 -0.1434
11798SOL    HW136364   0.877   0.087   3.858 -0.8838 -0.0647  0.8203
11798SOL    HW236365   0.762  -0.010   3.839 -0.0351 -0.7903 -0.8521
11799SOL     OW36366   6.594   5.990   1.826 -0.4131  0.3273 -0.6673
11799SOL    HW136367   6.586   5.998   1.921 -0.2336 -0.4789 -0.5804
11799SOL    HW236368   6.649   6.063   1.801  2.3272 -1.2879  0.2691
11800SOL     OW36369   6.331   3.368   6.873 -0.0439  0.2317  0.2604
11800SOL    HW136370   6.356   3.282   6.840  1.2424  0.8986 -0.5962
11800SOL    HW236371   6.379   3.377   6.955  1.0576  0.7256 -0.4153
11801SOL     OW36372   1.022   5.737   3.284 -0.3491  0.5228  0.1834
11801SOL    HW136373   1.014   5.778   3.371 -1.3276  2.3591 -0.7207
11801SOL    HW236374   1.056   5.650   3.302  0.9922  1.4013  2.3062
11802SOL     OW36375   5.321   7.175   3.861 -0.4759 -0.0759 -0.3081
11802SOL    HW136376   5.371   7.113   3.913 -0.1320 -0.6121 -1.2590
11802SOL    HW236377   5.231   7.142   3.863 -0.6772  0.5031  0.8211
11803SOL     OW36378   4.676   4.191   2.202  0.4476  0.2298 -0.8233
11803SOL    HW136379   4.765   4.199   2.165 -0.1422  2.0802 -1.9811
11803SOL    HW236380   4.622   4.168   2.126 -0.1768 -0.1837 -0.2550
11804SOL     OW36381   0.890   5.066   7.063 -0.3258  0.3517 -0.3708
11804SOL    HW136382   0.973   5.112   7.046 -0.8874  0.9531 -1.6422
11804SOL    HW236383   0.845   5.123   7.126  0.2477 -0.0332  0.4131
11805SOL     OW36384   2.741   6.373   6.166  0.0245 -0.6168  0.4870
11805SOL    HW136385   2.776   6.459   6.187 -0.2171 -0.4010  0.0181
11805SOL    HW236386   2.811   6.331   6.115 -0.3542 -0.2063 -0.4020
11806SOL     OW36387   0.982   6.215   3.122 -0.3626 -0.2036 -0.1308
11806SOL    HW136388   0.949   6.220   3.212 -0.7019 -0.0597 -0.2633
11806SOL    HW236389   1.074   6.190   3.132  0.2733  2.1622  0.3547
11807SOL     OW36390   2.951   5.719   2.032  0.3331 -0.1634  0.2554
11807SOL    HW136391   3.006   5.677   1.966  2.6409  1.6931  0.8564
11807SOL    HW236392   2.925   5.802   1.992  0.2468  0.1769  0.9970
11808SOL     OW36393   5.922   7.335   5.308  0.2292 -0.2224 -0.2328
11808SOL    HW136394   5.953   7.380   5.387  0.2756 -0.6635 -0.0004
11808SOL    HW236395   5.987   7.267   5.291  0.1030 -0.2729 -0.5251
11809SOL     OW36396   5.922   3.958   2.480 -0.0246 -0.0186  0.1268
11809SOL    HW136397   5.895   3.874   2.516 -1.0316 -0.1830 -0.9714
11809SOL    HW236398   5.891   3.958   2.389 -0.3642  1.6713  0.1966
11810SOL     OW36399   6.082   0.233   5.962 -0.1991 -0.2787  0.0342
11810SOL    HW136400   6.121   0.268   6.042  0.1056  1.2004 -0.7360
11810SOL    HW236401   6.156   0.221   5.902 -0.6795  0.8914 -0.8316
11811SOL     OW36402   4.215   5.404   3.612 -0.0691  0.5178  0.2072
11811SOL    HW136403   4.258   5.487   3.629 -0.4458  1.4213 -2.6857
11811SOL    HW236404   4.140   5.403   3.671  1.1894  1.1445  1.8764
11812SOL     OW36405   5.069   4.241   6.588 -0.0315  0.4012 -0.3295
11812SOL    HW136406   5.056   4.330   6.620  1.3609  0.0365  1.3892
11812SOL    HW236407   5.016   4.187   6.646 -1.4439  0.1133 -1.8050
11813SOL     OW36408   6.357   6.676   7.243 -0.1964 -0.2283  0.2701
11813SOL    HW136409   6.436   6.723   7.217  0.0353 -0.6003  0.2979
11813SOL    HW236410   6.367   6.663   7.337  0.2240 -1.2144  0.1060
11814SOL     OW36411   3.039   2.815   4.162  0.0508 -0.3212 -0.1790
11814SOL    HW136412   2.949   2.798   4.187  0.4139 -0.9722  0.7244
11814SOL    HW236413   3.052   2.909   4.178 -0.3644 -0.2955  0.0021
11815SOL     OW36414   4.303   6.552   5.474  0.1712  0.7768 -0.3596
11815SOL    HW136415   4.286   6.551   5.380 -0.3920 -1.6384 -0.3032
11815SOL    HW236416   4.216   6.547   5.514  0.3799  2.1330  0.3343
11816SOL     OW36417   6.486   4.965   1.570  0.4332  0.2692  0.0591
11816SOL    HW136418   6.394   4.938   1.565 -0.1610  1.6068  2.3107
11816SOL    HW236419   6.535   4.889   1.538 -1.3919 -0.8817 -0.1642
11817SOL     OW36420   0.843   6.644   1.971 -0.8625  0.0916 -0.0553
11817SOL    HW136421   0.851   6.583   1.898  1.0792 -0.4818  0.5660
11817SOL    HW236422   0.814   6.589   2.044 -1.3336  0.3653 -0.0363
11818SOL     OW36423   1.270   4.252   6.346  0.3957  0.3611 -0.4771
11818SOL    HW136424   1.350   4.301   6.326  0.9910 -0.5394 -0.3601
11818SOL    HW236425   1.209   4.276   6.275  0.1234  2.4153  0.3944
11819SOL     OW36426   6.051   2.800   4.280 -0.3773  0.1115 -0.1662
11819SOL    HW136427   6.028   2.810   4.372  2.8162  0.2755  0.7423
11819SOL    HW236428   6.001   2.868   4.235  0.1075  1.9543  1.8958
11820SOL     OW36429   5.041   5.195   1.469  0.0523  0.0327 -0.1961
11820SOL    HW136430   5.071   5.105   1.480  0.2919  0.0335 -0.8486
11820SOL    HW236431   5.013   5.201   1.378  0.3678  0.7182 -0.2513
11821SOL     OW36432   6.122   1.799   1.527  0.3943  0.8464 -0.0190
11821SOL    HW136433   6.107   1.728   1.464 -1.4331  1.0741  0.0787
11821SOL    HW236434   6.106   1.879   1.476  0.1727  1.0850  0.4190
11822SOL     OW36435   6.879   1.424   2.947 -0.1830 -0.1487 -0.2459
11822SOL    HW136436   6.936   1.493   2.912 -0.7969  1.3356  1.5442
11822SOL    HW236437   6.793   1.465   2.956 -1.3576 -2.0349 -1.8727
11823SOL     OW36438   0.368   5.478   2.809  0.0270  0.1583 -0.1418
11823SOL    HW136439   0.332   5.408   2.864  0.8674  0.1959  0.4915
11823SOL    HW236440   0.463   5.468   2.819  0.1688  0.6779 -0.9563
11824SOL     OW36441   6.304   0.608   6.181  0.4661  0.2026  0.1811
11824SOL    HW136442   6.208   0.612   6.172  0.5541  1.1096 -0.4946
11824SOL    HW236443   6.319   0.603   6.275 -0.2294  1.1904  0.3610
11825SOL     OW36444   2.266   1.940   2.751 -0.5612 -0.2541  0.0210
11825SOL    HW136445   2.181   1.983   2.761 -0.2171  0.4544 -0.0335
11825SOL    HW236446   2.299   1.930   2.840 -0.1590  0.5972 -0.0248
11826SOL     OW36447   5.068   3.770   5.971  0.5568  0.4035  0.0657
11826SOL    HW136448   5.046   3.863   5.974  1.0040  0.4811  1.8019
11826SOL    HW236449   5.159   3.766   6.001  0.1378 -0.6929  1.2633
11827SOL     OW36450   3.647   4.346   6.789 -0.4542  0.3170  0.0207
11827SOL    HW136451   3.636   4.259   6.751 -1.7764  0.5985 -0.2987
11827SOL    HW236452   3.622   4.406   6.719 -1.8118  0.8682  0.9259
11828SOL     OW36453   3.808   6.393   1.288  0.7566 -0.0224  0.5319
11828SOL    HW136454   3.799   6.325   1.222 -2.1009  0.5868  0.1668
11828SOL    HW236455   3.865   6.458   1.247  0.4220 -0.4503 -0.6614
11829SOL     OW36456   4.693   5.325   5.253  0.0085  0.0418  0.0701
11829SOL    HW136457   4.728   5.262   5.190 -0.3000 -1.2940  1.2023
11829SOL    HW236458   4.603   5.295   5.270 -0.6275  1.5877 -0.3910
11830SOL     OW36459   3.742   2.316   0.760 -0.7223  0.2194  0.1371
11830SOL    HW136460   3.711   2.363   0.683  0.6686  1.1378  0.0987
11830SOL    HW236461   3.803   2.377   0.802  1.0206 -1.4476  0.1739
11831SOL     OW36462   0.058   3.197   5.629  0.1292  0.0835  0.4655
11831SOL    HW136463   0.013   3.119   5.596  1.2324 -0.2984 -0.1782
11831SOL    HW236464   0.059   3.257   5.554  0.3064  0.2617  0.6118
11832SOL     OW36465   0.087   4.481   3.796 -0.2309  0.3418  0.5348
11832SOL    HW136466   0.021   4.469   3.865 -1.1229  1.2771 -0.1224
11832SOL    HW236467   0.039   4.463   3.715  0.4214  0.6680  0.0735
11833SOL     OW36468   3.683   0.462   1.712 -0.2944 -0.3429 -0.2874
11833SOL    HW136469   3.625   0.469   1.636 -1.7912 -1.3830  0.6942
11833SOL    HW236470   3.759   0.412   1.681  0.8842  2.3150 -1.9940
11834SOL     OW36471   2.915   0.474   5.515 -0.2574 -1.2327 -0.2186
11834SOL    HW136472   2.903   0.379   5.516  0.2676 -1.2985 -0.1862
11834SOL    HW236473   2.938   0.494   5.424 -0.2103 -1.1576 -0.1898
11835SOL     OW36474   1.488   6.611   6.809 -0.6015 -0.2787 -0.1431
11835SOL    HW136475   1.445   6.526   6.821  1.4098 -1.1949  0.9364
11835SOL    HW236476   1.541   6.599   6.730  0.8446 -0.5648  0.8406
11836SOL     OW36477   2.750   0.151   2.311  0.2656  0.1515 -0.4840
11836SOL    HW136478   2.739   0.066   2.355 -0.1963  0.0762 -0.7415
11836SOL    HW236479   2.759   0.129   2.219 -1.7689  0.4749 -0.8139
11837SOL     OW36480   2.196   4.248   7.207  0.6093 -0.2332  0.4544
11837SOL    HW136481   2.242   4.209   7.282  0.4353 -2.4286 -0.5020
11837SOL    HW236482   2.226   4.197   7.132 -2.3288 -0.8589 -0.4016
11838SOL     OW36483   0.351   2.139   3.356 -0.1546 -0.2254 -0.0415
11838SOL    HW136484   0.398   2.177   3.431 -1.3604  0.7618  0.2389
11838SOL    HW236485   0.376   2.194   3.282  0.0734 -0.4532 -0.1373
11839SOL     OW36486   3.555   6.916   0.520 -0.5092  0.1295 -0.2311
11839SOL    HW136487   3.614   6.992   0.522 -3.1051  2.2924 -0.2649
11839SOL    HW236488   3.523   6.908   0.610  0.8287 -1.9552  0.1282
11840SOL     OW36489   3.377   3.138   2.461  0.7242  0.0487  0.3302
11840SOL    HW136490   3.438   3.096   2.399  2.5909  1.6794  0.9320
11840SOL    HW236491   3.434   3.179   2.526 -1.0659  1.4279  1.1151
11841SOL     OW36492   5.358   2.519   7.292 -0.2816  0.0790  0.0313
11841SOL    HW136493   5.321   2.547   7.209  0.2004  1.3620  0.2121
11841SOL    HW236494   5.283   2.491   7.344 -0.6500 -0.1705 -0.6211
11842SOL     OW36495   2.873   3.016   2.134 -0.5710 -0.2075  0.5487
11842SOL    HW136496   2.933   3.066   2.189 -1.3021 -0.0993  1.2597
11842SOL    HW236497   2.895   2.924   2.151  0.0058 -0.1568  0.1036
11843SOL     OW36498   4.209   3.509   3.491 -0.3288 -0.4034 -0.0947
11843SOL    HW136499   4.182   3.577   3.552  0.9366  0.3024 -0.2904
11843SOL    HW236500   4.196   3.548   3.404  0.9707 -0.1470 -0.1984
11844SOL     OW36501   2.752   0.860   4.224  0.7121 -0.3119 -0.8249
11844SOL    HW136502   2.762   0.839   4.317 -0.7619 -0.9312 -0.7732
11844SOL    HW236503   2.741   0.955   4.222  1.9549 -0.1443 -0.5042
11845SOL     OW36504   1.844   0.973   3.812 -0.1815 -0.0275 -0.1390
11845SOL    HW136505   1.822   0.970   3.719  1.7037 -0.4722 -0.6112
11845SOL    HW236506   1.844   1.067   3.833 -2.1584  0.0142 -0.1460
11846SOL     OW36507   2.759   1.764   6.763 -0.2180 -0.5770 -0.1609
11846SOL    HW136508   2.697   1.834   6.740  0.3757  0.1857  0.5119
11846SOL    HW236509   2.767   1.713   6.683 -0.6408  0.1432 -0.6826
11847SOL     OW36510   0.516   7.359   0.852 -0.1650 -0.3504  0.1400
11847SOL    HW136511   0.499   7.331   0.762  0.5034 -0.5728  0.0767
11847SOL    HW236512   0.592   7.307   0.880  1.6677  1.9429 -0.2680
11848SOL     OW36513   7.052   2.544   4.749 -0.2029 -0.8689  0.0050
11848SOL    HW136514   7.031   2.630   4.783  3.0902 -0.0370  0.2286
11848SOL    HW236515   7.038   2.551   4.654  2.1046  0.6891 -0.2864
11849SOL     OW36516   1.791   2.579   5.847 -0.0055  0.5780 -0.0883
11849SOL    HW136517   1.704   2.606   5.819 -0.3869 -1.6197 -1.2086
11849SOL    HW236518   1.846   2.591   5.769  0.0984 -0.5614 -0.2004
11850SOL     OW36519   0.572   2.428   5.286 -0.4486 -0.3671  0.1548
11850SOL    HW136520   0.477   2.428   5.296 -0.3392 -0.3080  1.3066
11850SOL    HW236521   0.588   2.379   5.205 -1.4433 -0.5766  0.0801
11851SOL     OW36522   3.946   0.931   2.130 -0.2634 -0.1206 -0.0582
11851SOL    HW136523   3.932   1.011   2.182 -0.6969 -0.3593  0.1990
11851SOL    HW236524   3.945   0.961   2.039  1.6932  0.4967  0.0701
11852SOL     OW36525   4.072   3.692   0.205  0.6318  0.1951 -0.1646
11852SOL    HW136526   4.012   3.700   0.279  1.0172  0.2901  0.1394
11852SOL    HW236527   4.069   3.777   0.162 -1.1789 -0.4834 -1.4973
11853SOL     OW36528   1.074   0.025   2.129  0.2149  0.5370  0.5247
11853SOL    HW136529   1.142   0.011   2.063  0.7221  2.0406  0.6980
11853SOL    HW236530   1.018   0.093   2.091 -2.1781 -1.7428 -0.3285
11854SOL     OW36531   6.212   4.262   0.876 -0.7653 -0.4090  0.4528
11854SOL    HW136532   6.222   4.225   0.789 -0.8048  0.6176 -0.0000
11854SOL    HW236533   6.121   4.244   0.900 -1.2326  0.6945 -0.3954
11855SOL     OW36534   1.024   2.269   0.317  0.5185  0.0634  0.4379
11855SOL    HW136535   1.029   2.343   0.257 -0.9430 -0.4883 -0.4311
11855SOL    HW236536   0.987   2.305   0.397 -2.7164 -0.0912 -0.8326
11856SOL     OW36537   5.428   4.970   0.321 -0.4270 -0.0276 -0.2684
11856SOL    HW136538   5.357   5.033   0.328 -0.5819 -0.0998 -1.0329
11856SOL    HW236539   5.459   4.979   0.230 -0.2798 -0.8583 -0.3111
11857SOL     OW36540   3.593   4.717   5.116 -0.2307 -0.0732 -0.2487
11857SOL    HW136541   3.551   4.717   5.202  0.0867  0.7306 -0.0811
11857SOL    HW236542   3.542   4.780   5.065 -0.3589 -0.4781 -0.6229
11858SOL     OW36543   1.125   4.333   5.011  0.1323  0.1462 -0.0268
11858SOL    HW136544   1.180   4.259   4.987  0.9762  0.4652  0.8111
11858SOL    HW236545   1.180   4.385   5.071 -0.3589  1.5401 -0.7293
11859SOL     OW36546   3.281   3.121   3.688 -0.0683 -0.4548  0.3217
11859SOL    HW136547   3.349   3.123   3.622  1.0552  0.9503  1.4542
11859SOL    HW236548   3.321   3.159   3.766 -2.3676  1.2559  0.7932
11860SOL     OW36549   7.245   0.880   5.134 -0.5480 -0.1629  1.0203
11860SOL    HW136550   7.173   0.844   5.082 -0.4348 -0.3965  1.0214
11860SOL    HW236551   7.260   0.814   5.202 -2.3868  1.2453  2.9560
11861SOL     OW36552   0.079   3.070   4.468  0.0167 -0.5689 -0.7038
11861SOL    HW136553   0.004   3.037   4.418  0.0725 -1.2738 -0.3403
11861SOL    HW236554   0.155   3.027   4.429  0.1384 -0.5444 -0.4951
11862SOL     OW36555   6.010   1.625   3.880 -0.5851  0.0226  0.2741
11862SOL    HW136556   5.971   1.710   3.858 -1.6401 -0.9656 -2.0417
11862SOL    HW236557   6.104   1.640   3.874 -0.6231  1.5824  2.4048
11863SOL     OW36558   2.199   5.088   0.083  0.5554 -0.0417  0.8231
11863SOL    HW136559   2.233   5.086   0.172 -0.7707 -0.1220  1.3533
11863SOL    HW236560   2.139   5.013   0.079 -1.2420  1.3416  0.6523
11864SOL     OW36561   6.271   4.261   6.117  0.0121  0.3856  0.0374
11864SOL    HW136562   6.179   4.259   6.146  0.1041  0.6904  0.3578
11864SOL    HW236563   6.278   4.189   6.054 -0.4407  0.3432  0.0322
11865SOL     OW36564   2.462   5.082   5.433 -0.5721  0.0835 -0.2191
11865SOL    HW136565   2.395   5.014   5.429 -0.1357 -0.5053  1.5933
11865SOL    HW236566   2.501   5.083   5.346 -0.5054 -2.0772 -0.2485
11866SOL     OW36567   0.262   2.219   6.169  0.2822  0.0347 -0.0622
11866SOL    HW136568   0.296   2.162   6.237 -0.3884 -0.1470  0.1312
11866SOL    HW236569   0.339   2.257   6.128  0.8125 -2.0545 -1.1312
11867SOL     OW36570   4.459   0.969   4.518  0.2688  0.5258  0.0014
11867SOL    HW136571   4.400   0.987   4.591  0.5994 -0.6262  0.5646
11867SOL    HW236572   4.430   0.885   4.483  0.0984  1.0750 -1.2181
11868SOL     OW36573   0.232   5.490   1.266 -0.5400 -0.2910  0.4357
11868SOL    HW136574   0.139   5.472   1.255 -0.7743  1.5534 -1.1367
11868SOL    HW236575   0.238   5.585   1.274  1.1654 -0.4159  1.0630
11869SOL     OW36576   2.712   6.374   0.051  0.6216  0.5182  0.3713
11869SOL    HW136577   2.704   6.388  -0.043  0.6797  0.0460  0.2935
11869SOL    HW236578   2.804   6.350   0.065 -0.0355 -2.5421  0.1041
11870SOL     OW36579   0.085   7.067   2.554  0.1875 -0.4202  0.2602
11870SOL    HW136580   0.127   7.116   2.484  0.8414 -1.0412  0.2132
11870SOL    HW236581   0.150   7.003   2.582 -0.4450 -0.8886  0.7063
11871SOL     OW36582   5.072   3.306   6.943 -0.5426 -0.1691  0.1753
11871SOL    HW136583   5.095   3.231   6.888 -0.4672 -0.1241  0.1455
11871SOL    HW236584   5.121   3.291   7.024 -0.1991  0.0652  0.0100
11872SOL     OW36585   0.301   1.901   1.808  0.0649 -0.1910 -0.0921
11872SOL    HW136586   0.358   1.922   1.734  0.9615  1.0896  0.8873
11872SOL    HW236587   0.248   1.828   1.778  1.2083 -0.4754 -1.5797
11873SOL     OW36588   2.618   5.082   4.973  0.0653 -0.6749  0.1361
11873SOL    HW136589   2.537   5.097   5.022  0.2510 -0.3734  0.3520
11873SOL    HW236590   2.603   5.126   4.889 -0.6431 -2.0291 -0.4815
11874SOL     OW36591   4.804   1.151   0.295 -0.1231 -0.1751 -0.1179
11874SOL    HW136592   4.758   1.113   0.220  0.4854 -1.3019  0.0478
11874SOL    HW236593   4.756   1.230   0.316 -0.4440  0.0313 -1.5522
11875SOL     OW36594   0.919   0.654   6.839  0.3574  0.0401 -0.1209
11875SOL    HW136595   0.845   0.607   6.802  0.2068 -0.3939  0.7071
11875SOL    HW236596   0.958   0.700   6.764 -0.6804  0.2035 -0.5755
11876SOL     OW36597   1.448   5.219   5.274  0.1467  0.2993 -0.2417
11876SOL    HW136598   1.472   5.304   5.313 -1.8466 -0.1779  2.2374
11876SOL    HW236599   1.503   5.156   5.320  0.3330  0.0528 -0.7965
11877SOL     OW36600   0.723   1.169   1.104 -0.1701  0.0220  0.3373
11877SOL    HW136601   0.817   1.183   1.100  0.1089 -1.5996  0.5456
11877SOL    HW236602   0.687   1.252   1.135  0.8309  1.7751 -2.7152
11878SOL     OW36603   7.113   0.811   7.011  0.2457  0.4310  0.3475
11878SOL    HW136604   7.146   0.895   7.045  1.9040  0.2487 -0.6536
11878SOL    HW236605   7.068   0.834   6.930 -0.1381  0.4544  0.5682
11879SOL     OW36606   6.069   3.784   3.361 -0.6395  0.2559  0.2753
11879SOL    HW136607   6.015   3.730   3.304  1.9129 -0.6468 -1.4929
11879SOL    HW236608   6.036   3.873   3.347 -1.5530 -0.2295 -0.8573
11880SOL     OW36609   0.266   5.741   7.039 -0.1337  0.1354  0.4086
11880SOL    HW136610   0.172   5.741   7.052 -0.0076  1.7472  1.7959
11880SOL    HW236611   0.295   5.825   7.076  1.8230 -0.2783 -0.0601
11881SOL     OW36612   4.514   0.634   3.747  0.2215  0.2861 -0.2412
11881SOL    HW136613   4.487   0.544   3.729  1.6372 -0.2939  0.3604
11881SOL    HW236614   4.452   0.688   3.698 -2.3904 -0.8757  1.5160
11882SOL     OW36615   7.084   4.554   0.079 -0.4269 -0.0406  0.1547
11882SOL    HW136616   7.133   4.636   0.087 -1.3088  0.4807  0.2772
11882SOL    HW236617   7.152   4.487   0.070  0.3079  0.9080 -2.1558
11883SOL     OW36618   2.617   3.819   4.773  0.0534 -0.3757  0.1730
11883SOL    HW136619   2.689   3.863   4.819  1.3742 -0.1834 -1.9372
11883SOL    HW236620   2.661   3.763   4.709 -1.6931 -1.1816 -0.3706
11884SOL     OW36621   3.818   0.700   0.061  0.5827  0.3015  0.0265
11884SOL    HW136622   3.886   0.721  -0.003  1.1154 -0.2310  0.4033
11884SOL    HW236623   3.866   0.677   0.140 -0.0928  1.7962  0.8944
11885SOL     OW36624   7.316   5.010   1.460 -0.1782  0.3931  0.3733
11885SOL    HW136625   7.317   4.973   1.548  1.1873 -0.1305  0.1718
11885SOL    HW236626   7.336   4.935   1.403  0.4976  1.0184 -0.2298
11886SOL     OW36627   4.672   6.940   2.050  0.2589  0.0506  0.2532
11886SOL    HW136628   4.577   6.936   2.048  0.2990 -1.3652 -0.4679
11886SOL    HW236629   4.694   6.942   2.143 -0.4651 -2.4013  0.5664
11887SOL     OW36630   4.362   5.702   6.537  0.0814 -0.4295 -0.2458
11887SOL    HW136631   4.374   5.644   6.612  1.4728 -0.6003 -0.5703
11887SOL    HW236632   4.298   5.658   6.482 -1.8147  0.2253  1.3417
11888SOL     OW36633   7.132   0.844   5.845 -0.0963  0.1018  0.2440
11888SOL    HW136634   7.170   0.872   5.928 -1.2705 -0.1219  0.8765
11888SOL    HW236635   7.079   0.919   5.816 -0.9260 -0.3761  0.4882
11889SOL     OW36636   5.068   1.627   5.366 -0.4497 -0.0591  0.3822
11889SOL    HW136637   5.044   1.719   5.376  0.4884  0.1216  1.0790
11889SOL    HW236638   4.984   1.581   5.363 -0.9574  0.8637 -0.6173
11890SOL     OW36639   2.286   0.523   2.617 -0.2209  0.1298  0.4142
11890SOL    HW136640   2.223   0.543   2.547 -0.1040 -1.2317 -0.1216
11890SOL    HW236641   2.239   0.539   2.698 -0.8204  0.4095  0.0151
11891SOL     OW36642   0.322   3.192   6.418  0.0119  0.3617 -0.3416
11891SOL    HW136643   0.325   3.125   6.349 -0.8184  0.3362 -0.3631
11891SOL    HW236644   0.282   3.268   6.376 -0.4306  0.3717  0.0912
11892SOL     OW36645   5.264   6.657   0.081  0.5645  0.0073  0.7123
11892SOL    HW136646   5.315   6.577   0.093  2.6184  1.3120  1.2141
11892SOL    HW236647   5.270   6.702   0.165  0.2496  1.1132  0.1563
11893SOL     OW36648   6.241   6.296   3.681  0.7991  0.5566 -0.3608
11893SOL    HW136649   6.190   6.343   3.746  1.9650 -1.1965  1.9402
11893SOL    HW236650   6.175   6.250   3.628 -0.1300 -0.2569  1.4205
11894SOL     OW36651   2.875   3.243   5.486 -0.0841  0.2059 -0.4984
11894SOL    HW136652   2.813   3.172   5.472  0.3121 -0.3682  0.5458
11894SOL    HW236653   2.917   3.222   5.569 -0.1665  1.8292 -0.0214
11895SOL     OW36654   3.012   6.525   2.121 -0.0360 -0.7681  0.0504
11895SOL    HW136655   3.025   6.592   2.188  0.9204 -0.9594  0.0623
11895SOL    HW236656   3.013   6.574   2.038  2.5825 -0.9274 -0.0997
11896SOL     OW36657   0.685   1.101   6.113  0.3119 -0.1914  0.2992
11896SOL    HW136658   0.716   1.149   6.036 -2.8623  1.3500 -0.1633
11896SOL    HW236659   0.644   1.168   6.168  0.4911 -1.6283  2.2904
11897SOL     OW36660   4.620   7.121   5.877 -0.1173  0.0431  0.3458
11897SOL    HW136661   4.712   7.146   5.871 -0.2245  0.1767 -1.0839
11897SOL    HW236662   4.603   7.114   5.971  2.0333 -2.5886  0.6705
11898SOL     OW36663   7.362   6.257   0.332 -0.0204  0.3458 -0.0890
11898SOL    HW136664   7.301   6.227   0.264  0.8581 -0.8277 -0.3957
11898SOL    HW236665   7.448   6.255   0.290  0.3193  1.3461  0.5300
11899SOL     OW36666   4.116   0.643   5.124  0.1458  0.4644 -0.1556
11899SOL    HW136667   4.050   0.665   5.190 -1.3039  0.4566 -1.5255
11899SOL    HW236668   4.199   0.643   5.171 -1.0260 -1.5068  2.0970
11900SOL     OW36669   3.320   2.018   1.177 -0.4238  0.4408  0.1791
11900SOL    HW136670   3.242   1.981   1.138 -0.6594 -0.6875  1.6321
11900SOL    HW236671   3.367   1.943   1.214  0.3089  1.3242  1.1102
11901SOL     OW36672   2.448   4.661   1.775 -0.1635  1.0042  0.5304
11901SOL    HW136673   2.483   4.596   1.715 -0.4581  0.3681  1.0326
11901SOL    HW236674   2.522   4.720   1.793  1.1946 -1.1889  2.7778
11902SOL     OW36675   5.097   7.205   5.681  0.2234  0.4412 -0.1942
11902SOL    HW136676   5.152   7.135   5.646 -1.1668 -0.8156  0.0570
11902SOL    HW236677   5.115   7.206   5.775 -0.2901 -0.0927 -0.0838
11903SOL     OW36678   0.680   2.428   4.401 -0.2647  0.0474 -0.0387
11903SOL    HW136679   0.605   2.368   4.402  1.0652 -1.7247 -1.1997
11903SOL    HW236680   0.724   2.410   4.319  0.6605  2.1043 -0.0515
11904SOL     OW36681   7.129   1.409   6.478 -0.1031 -1.0283  0.8668
11904SOL    HW136682   7.138   1.329   6.531  1.8286 -2.4199 -1.3596
11904SOL    HW236683   7.216   1.422   6.440 -0.9245  0.9985 -0.4605
11905SOL     OW36684   3.416   1.525   2.589  0.1252  0.2645 -0.5291
11905SOL    HW136685   3.340   1.553   2.639  0.4523  0.7859 -0.3133
11905SOL    HW236686   3.460   1.461   2.644  0.0519  0.2492 -0.4888
11906SOL     OW36687   5.649   6.344   0.310  0.5351 -0.3887 -0.8037
11906SOL    HW136688   5.698   6.273   0.269 -0.6566 -2.4454  1.0929
11906SOL    HW236689   5.557   6.323   0.293  0.1683  1.7499 -1.7495
11907SOL     OW36690   7.201   5.952   7.006 -0.1865 -0.8373 -0.0737
11907SOL    HW136691   7.222   6.018   6.940 -0.4385 -1.1495 -0.4721
11907SOL    HW236692   7.164   5.879   6.956 -0.6201 -0.9766  0.4362
11908SOL     OW36693   6.313   7.315   0.885  0.6380  0.0590  0.0409
11908SOL    HW136694   6.306   7.357   0.970  0.1151  0.7478 -0.3396
11908SOL    HW236695   6.400   7.339   0.853  0.0648  1.5012 -0.5036
11909SOL     OW36696   3.846   4.730   4.421  0.0990 -0.2999  0.0530
11909SOL    HW136697   3.847   4.810   4.369  2.2094 -1.0103 -1.1068
11909SOL    HW236698   3.753   4.714   4.437 -0.5895  0.7290 -2.3288
11910SOL     OW36699   2.077   0.789   3.884 -0.2929  0.4868  0.4273
11910SOL    HW136700   1.992   0.825   3.910 -0.9034 -0.5828 -0.0074
11910SOL    HW236701   2.108   0.744   3.962 -1.2081 -1.0499 -0.0539
11911SOL     OW36702   6.505   3.934   4.862 -0.4168 -0.1557  0.6015
11911SOL    HW136703   6.497   4.026   4.887 -0.3423  0.4563 -1.4350
11911SOL    HW236704   6.415   3.900   4.865 -0.4899  0.0608  1.0069
11912SOL     OW36705   6.944   1.974   2.200  0.0498  0.3187  0.6891
11912SOL    HW136706   6.914   2.039   2.263 -1.3177 -1.5425  2.0886
11912SOL    HW236707   6.873   1.909   2.197  0.4720 -0.1715 -2.0999
11913SOL     OW36708   4.913   0.462   5.565 -1.3785  0.6087 -0.3556
11913SOL    HW136709   4.907   0.499   5.477  0.8670  1.5910 -0.1569
11913SOL    HW236710   4.956   0.530   5.617 -1.0491 -0.6327  1.0695
11914SOL     OW36711   0.829   6.922   1.461  0.3801  0.1077  0.3934
11914SOL    HW136712   0.867   7.003   1.495  0.2072  0.8251 -1.0297
11914SOL    HW236713   0.901   6.880   1.413  0.0839  0.1540 -0.0968
11915SOL     OW36714   4.010   1.791   3.353  0.7002 -0.1407 -0.1710
11915SOL    HW136715   4.004   1.882   3.382  0.4036 -0.6481  1.4442
11915SOL    HW236716   3.952   1.786   3.277  1.1085  1.1249 -0.5907
11916SOL     OW36717   6.277   1.438   6.214  0.0354  0.4156  0.1677
11916SOL    HW136718   6.240   1.518   6.176  0.2223  0.2892 -0.2835
11916SOL    HW236719   6.348   1.414   6.154 -1.3932 -1.3157 -0.9253
11917SOL     OW36720   2.949   6.514   6.877 -0.1858  0.3288 -0.6474
11917SOL    HW136721   2.964   6.430   6.836  1.6562  0.4215 -0.2363
11917SOL    HW236722   2.884   6.496   6.946 -0.0142 -0.6936 -0.7388
11918SOL     OW36723   0.386   2.167   2.311 -0.5527  0.1790  0.0742
11918SOL    HW136724   0.331   2.226   2.362 -2.5247 -2.2392  0.9412
11918SOL    HW236725   0.333   2.143   2.235  0.2556 -0.4154 -0.3227
11919SOL     OW36726   2.139   6.151   7.192 -0.4982  0.5143 -0.4011
11919SOL    HW136727   2.211   6.212   7.174  0.9370 -1.4065 -1.4469
11919SOL    HW236728   2.145   6.134   7.286 -0.2703  1.1629 -0.2912
11920SOL     OW36729   4.408   5.516   6.735 -0.4534  0.5360  0.3135
11920SOL    HW136730   4.379   5.433   6.772 -0.5804  1.0595  1.4116
11920SOL    HW236731   4.468   5.491   6.664 -2.4041 -0.5368 -1.0702
11921SOL     OW36732   0.991   4.985   0.236 -0.1037 -0.6321 -0.8273
11921SOL    HW136733   0.976   4.891   0.247  0.9562 -0.9655 -1.9502
11921SOL    HW236734   0.937   5.010   0.161 -0.3880 -0.3438 -0.5283
11922SOL     OW36735   0.165   5.462   0.936  0.4779  0.0131 -0.4707
11922SOL    HW136736   0.070   5.461   0.930  0.5106  1.3372 -2.0662
11922SOL    HW236737   0.195   5.393   0.877  0.5307 -0.6618  0.3204
11923SOL     OW36738   4.938   0.077   0.089  0.4666 -0.5040 -0.0773
11923SOL    HW136739   5.032   0.077   0.069  0.3649  1.8886 -0.8900
11923SOL    HW236740   4.904   0.151   0.041 -1.6377 -0.5377  1.2465
11924SOL     OW36741   0.383   3.314   2.930 -0.1424  0.1096  0.1712
11924SOL    HW136742   0.312   3.340   2.990 -0.3384 -0.2077  0.0778
11924SOL    HW236743   0.339   3.296   2.848 -0.0268 -0.6803  0.2806
11925SOL     OW36744   1.090   5.874   4.574  0.0191 -0.5417 -0.1295
11925SOL    HW136745   1.059   5.964   4.560 -0.4105 -0.1568  2.7338
11925SOL    HW236746   1.171   5.885   4.625 -0.7617 -1.7408  1.4595
11926SOL     OW36747   6.210   3.995   2.352 -0.2195  0.1395 -1.0813
11926SOL    HW136748   6.198   3.923   2.290 -0.2731 -0.5495 -0.2889
11926SOL    HW236749   6.134   4.052   2.339 -0.8541 -0.6364 -0.8026
11927SOL     OW36750   4.193   7.376   5.168  0.3968  0.0242 -0.4117
11927SOL    HW136751   4.162   7.328   5.091  3.3436  0.3864 -1.9806
11927SOL    HW236752   4.287   7.358   5.171  0.5757  0.8805  2.5445
11928SOL     OW36753   5.015   7.322   2.091  0.1495  0.1356  0.2782
11928SOL    HW136754   4.982   7.318   2.181  1.2832 -0.4489  0.6808
11928SOL    HW236755   4.973   7.247   2.048  1.1286 -0.7815  0.8660
11929SOL     OW36756   1.239   0.269   2.167  0.0000  0.5257 -0.2251
11929SOL    HW136757   1.243   0.187   2.117  3.5459 -1.2284  2.4770
11929SOL    HW236758   1.148   0.274   2.197 -0.6669 -1.6629 -1.6114
11930SOL     OW36759   4.497   0.888   0.840  0.0440  0.4164  0.5864
11930SOL    HW136760   4.463   0.947   0.908 -0.2474 -1.9429  2.6171
11930SOL    HW236761   4.591   0.883   0.858  0.2363  0.9809 -0.2064
11931SOL     OW36762   2.190   0.187   4.562 -0.5322  0.3615  0.6314
11931SOL    HW136763   2.194   0.097   4.595  0.0915  0.0310 -0.3142
11931SOL    HW236764   2.108   0.222   4.598  0.5305  0.3428  3.3139
11932SOL     OW36765   4.062   5.894   1.640 -0.3427  0.5704  0.1193
11932SOL    HW136766   4.087   5.980   1.674  0.0202 -0.1719  1.8222
11932SOL    HW236767   4.105   5.889   1.554  0.4877  1.6584  0.4474
11933SOL     OW36768   6.948   4.265   5.652 -0.2609 -0.1052 -0.1443
11933SOL    HW136769   6.912   4.346   5.616 -2.4735 -1.0749 -0.3288
11933SOL    HW236770   6.973   4.213   5.576  0.4529  0.0993 -0.0542
11934SOL     OW36771   3.857   4.306   1.781 -0.5019 -0.5334  0.0755
11934SOL    HW136772   3.876   4.254   1.703  0.2915  1.1374 -0.9190
11934SOL    HW236773   3.831   4.392   1.747 -1.8159 -0.2515  1.6379
11935SOL     OW36774   1.438   6.807   2.357  0.5471  0.1078  0.5204
11935SOL    HW136775   1.476   6.885   2.397 -1.7136  1.8152 -0.4318
11935SOL    HW236776   1.509   6.770   2.304  2.4969 -0.1477  3.1098
11936SOL     OW36777   1.000   3.597   1.920  0.1512 -0.0202 -0.7282
11936SOL    HW136778   1.035   3.661   1.982  1.6234 -0.7222 -0.7838
11936SOL    HW236779   0.913   3.576   1.953 -0.4274  2.0792 -0.7808
11937SOL     OW36780   4.366   2.033   5.917  0.2455 -0.0212 -0.1461
11937SOL    HW136781   4.350   1.951   5.963  1.3015 -0.9283 -1.3092
11937SOL    HW236782   4.341   2.102   5.979  1.5305 -1.1786  1.7436
11938SOL     OW36783   2.206   1.970   1.986 -0.3932 -0.2135  0.4165
11938SOL    HW136784   2.255   1.888   1.995  1.3101  0.9783  4.2853
11938SOL    HW236785   2.258   2.022   1.925 -1.4741 -1.8315 -2.0589
11939SOL     OW36786   2.666   5.869   6.944  0.1160 -0.0099  0.3666
11939SOL    HW136787   2.700   5.800   7.000  0.1380  0.0500  0.4269
11939SOL    HW236788   2.603   5.825   6.887  1.2041 -0.3618 -0.5883
11940SOL     OW36789   1.836   6.629   6.191 -0.5287  0.1369  0.2045
11940SOL    HW136790   1.755   6.605   6.146 -0.4949 -0.6141  0.5388
11940SOL    HW236791   1.843   6.724   6.177 -1.0389  0.0827 -0.5150
11941SOL     OW36792   7.354   6.994   1.042 -0.0090 -0.0989 -0.3859
11941SOL    HW136793   7.371   6.900   1.040  0.7013 -0.0215  1.0678
11941SOL    HW236794   7.389   7.023   1.126 -0.5645  1.4048 -0.6485
11942SOL     OW36795   4.800   0.655   3.774  0.1555  0.0480  0.1621
11942SOL    HW136796   4.706   0.662   3.754  0.2998  0.9199 -0.2501
11942SOL    HW236797   4.806   0.685   3.865  0.2803  2.0355 -0.4514
11943SOL     OW36798   1.746   2.697   0.070 -0.6359 -0.0173 -0.5286
11943SOL    HW136799   1.692   2.698  -0.009 -1.6558 -1.1101  0.1188
11943SOL    HW236800   1.684   2.720   0.140  0.4902  2.1481 -0.1485
11944SOL     OW36801   4.784   6.951   6.713 -0.3068 -0.5096 -0.1312
11944SOL    HW136802   4.809   6.860   6.697  0.4161 -0.7408  1.9407
11944SOL    HW236803   4.867   6.999   6.715 -0.4794 -0.2197  0.9145
11945SOL     OW36804   0.430   5.950   0.477 -0.5452  0.3400  0.2571
11945SOL    HW136805   0.398   5.893   0.407 -0.3902 -0.0400  0.4971
11945SOL    HW236806   0.352   5.992   0.511 -0.4713  1.8329 -1.2764
11946SOL     OW36807   0.168   2.393   5.749  0.6508 -0.3449 -0.8283
11946SOL    HW136808   0.077   2.367   5.760  0.5172  0.6595  0.7285
11946SOL    HW236809   0.165   2.487   5.733  1.2935 -0.7087 -3.5972
11947SOL     OW36810   6.465   1.729   1.824  0.6051  0.0786  0.0499
11947SOL    HW136811   6.504   1.761   1.742  0.8762  0.9689  0.5163
11947SOL    HW236812   6.377   1.702   1.799  0.8219 -0.0276 -0.6166
11948SOL     OW36813   2.241   3.314   1.950 -0.6971 -0.6518 -0.3346
11948SOL    HW136814   2.279   3.261   2.019  0.5062 -0.2718 -0.6850
11948SOL    HW236815   2.299   3.390   1.943 -1.3314 -0.2242 -1.1181
11949SOL     OW36816   6.023   2.758   5.776  0.0869  0.1086  0.1147
11949SOL    HW136817   6.063   2.672   5.765  0.0789 -0.0236  1.0712
11949SOL    HW236818   6.038   2.802   5.692  0.6424 -0.5910 -0.1645
11950SOL     OW36819   0.911   4.936   6.728 -0.2685  0.0120  0.1472
11950SOL    HW136820   0.865   4.877   6.787  0.0172  0.2777  0.6423
11950SOL    HW236821   0.844   4.998   6.699  0.2738  2.1701  3.0797
11951SOL     OW36822   0.723   3.304   0.729 -0.0173  0.3115 -0.3727
11951SOL    HW136823   0.796   3.242   0.733  0.1530  0.5234 -0.2560
11951SOL    HW236824   0.711   3.320   0.635 -2.7336 -3.0987 -0.8568
11952SOL     OW36825   2.739   4.207   4.724 -0.0287  0.0277 -0.0348
11952SOL    HW136826   2.647   4.202   4.697  0.1546  0.4219 -0.7436
11952SOL    HW236827   2.745   4.287   4.775 -0.1427 -0.1667  0.2892
11953SOL     OW36828   1.993   6.569   2.805 -0.3305 -0.1837  0.1491
11953SOL    HW136829   1.940   6.555   2.883 -0.2770 -1.2970  0.0062
11953SOL    HW236830   2.057   6.498   2.807  0.5812  0.6097 -0.1599
11954SOL     OW36831   1.684   4.815   0.271  0.2034  0.4820  0.3371
11954SOL    HW136832   1.633   4.744   0.310 -3.5223  1.7533 -1.7143
11954SOL    HW236833   1.733   4.773   0.200  0.6330 -0.4925  1.1807
11955SOL     OW36834   0.305   2.347   4.277  0.2325  0.2510  0.3904
11955SOL    HW136835   0.327   2.275   4.218 -0.5160 -0.8438  1.3960
11955SOL    HW236836   0.335   2.318   4.363  0.1592  1.2673  0.7746
11956SOL     OW36837   6.801   6.168   5.855 -0.4191  0.1178 -0.3297
11956SOL    HW136838   6.752   6.154   5.936 -1.7234  0.3747 -1.0345
11956SOL    HW236839   6.746   6.130   5.787 -0.0993  1.2775 -1.2717
11957SOL     OW36840   0.404   1.280   0.046 -0.3679  0.6270 -0.3298
11957SOL    HW136841   0.327   1.272   0.102 -0.0727  1.9608  0.3135
11957SOL    HW236842   0.402   1.371   0.016 -1.0169 -0.2674 -3.2639
11958SOL     OW36843   6.281   6.877   2.251 -0.1536 -0.8183 -0.6185
11958SOL    HW136844   6.351   6.895   2.313  1.3717  1.0555 -2.7194
11958SOL    HW236845   6.320   6.820   2.186 -0.5374  0.2033 -1.7924
11959SOL     OW36846   3.955   5.042   5.548  0.2457 -0.4715 -0.5865
11959SOL    HW136847   4.006   5.122   5.534 -1.1674  0.4300 -0.8110
11959SOL    HW236848   3.971   5.019   5.639 -1.4050  1.6682  0.3574
11960SOL     OW36849   4.503   4.208   4.827  0.3278 -0.0260  0.3019
11960SOL    HW136850   4.508   4.288   4.776  0.3315  0.9880  1.8213
11960SOL    HW236851   4.536   4.140   4.769  1.1599  1.2133 -0.7310
11961SOL     OW36852   3.322   3.382   4.846 -0.1728  0.2793  0.1589
11961SOL    HW136853   3.250   3.347   4.794  0.4475  0.5417 -0.9160
11961SOL    HW236854   3.316   3.338   4.930 -0.5923 -0.9233 -0.4905
11962SOL     OW36855   2.214   4.966   1.442  0.1660 -0.8558  0.1092
11962SOL    HW136856   2.220   4.876   1.474  2.8641 -1.4752 -1.8030
11962SOL    HW236857   2.280   5.014   1.493  0.0400 -0.4038 -0.1523
11963SOL     OW36858   4.749   4.097   1.244 -0.7550  0.3662 -0.2774
11963SOL    HW136859   4.755   4.144   1.162  0.9692  0.6490 -0.0290
11963SOL    HW236860   4.802   4.018   1.230 -1.0680  0.0433  0.3166
11964SOL     OW36861   7.140   4.218   4.332  0.5993 -0.4054 -0.2700
11964SOL    HW136862   7.069   4.161   4.300  1.4559 -0.5854 -1.9768
11964SOL    HW236863   7.185   4.165   4.397  0.6118 -1.2114 -0.9196
11965SOL     OW36864   3.261   6.478   5.346  0.3079  0.0648 -0.2434
11965SOL    HW136865   3.278   6.571   5.362 -0.6487  0.2960 -0.4696
11965SOL    HW236866   3.177   6.477   5.300 -0.2713 -0.9652  0.7770
11966SOL     OW36867   6.277   5.777   1.977  0.4249  0.4263  0.8940
11966SOL    HW136868   6.334   5.795   1.902  1.1332 -1.3085  0.9622
11966SOL    HW236869   6.212   5.847   1.976  1.1317  1.0931 -0.6321
11967SOL     OW36870   6.121   7.201   0.698  0.2875 -0.2939  0.0792
11967SOL    HW136871   6.074   7.281   0.676  0.3374 -0.2541  0.1173
11967SOL    HW236872   6.176   7.225   0.772  0.4771 -0.3003 -0.0583
11968SOL     OW36873   3.733   7.110   0.525  0.0369  0.3002  0.3857
11968SOL    HW136874   3.828   7.111   0.534  0.1418 -1.2450 -0.2120
11968SOL    HW236875   3.711   7.196   0.489  1.2739  0.4438 -0.0683
11969SOL     OW36876   3.958   0.246   3.785 -0.1845  0.1804 -0.4729
11969SOL    HW136877   3.878   0.291   3.812  1.0594  2.8842 -1.0679
11969SOL    HW236878   3.995   0.213   3.867 -2.4255 -2.2410 -0.2937
11970SOL     OW36879   6.593   2.734   6.736  0.4936 -0.2373 -0.1636
11970SOL    HW136880   6.684   2.704   6.742  0.1942 -1.0357  0.5560
11970SOL    HW236881   6.542   2.654   6.730 -0.1693  0.2126 -0.6421
11971SOL     OW36882   2.854   3.048   2.514 -0.3929  0.0257 -0.0905
11971SOL    HW136883   2.859   3.142   2.527  2.5644 -0.1214  0.3275
11971SOL    HW236884   2.945   3.018   2.512 -1.1927 -2.6767 -1.4111
11972SOL     OW36885   7.181   0.635   1.637 -0.2227  0.2150  0.0570
11972SOL    HW136886   7.094   0.645   1.676 -0.4830  2.8826 -0.9892
11972SOL    HW236887   7.174   0.557   1.581 -1.6982 -0.0299  0.5398
11973SOL     OW36888   1.943   3.486   3.241  0.0042  0.5691 -1.2147
11973SOL    HW136889   1.972   3.502   3.331  0.2956  1.0974 -1.3966
11973SOL    HW236890   1.885   3.559   3.222 -1.2638 -0.3333 -0.9497
11974SOL     OW36891   3.715   2.970   6.342 -0.0743 -0.4740  0.2326
11974SOL    HW136892   3.657   2.978   6.418  1.2353  0.6466  1.1573
11974SOL    HW236893   3.731   3.060   6.314  1.5194 -0.7184  0.2559
11975SOL     OW36894   1.504   3.002   1.906  0.1885 -0.7383  0.1356
11975SOL    HW136895   1.572   3.014   1.972 -0.3990  1.2171  0.4534
11975SOL    HW236896   1.453   2.927   1.937  1.7958 -1.8682  0.1944
11976SOL     OW36897   2.674   2.580   5.362 -0.1734 -0.2142  0.1054
11976SOL    HW136898   2.629   2.499   5.384  0.1502 -0.5540 -0.4482
11976SOL    HW236899   2.677   2.580   5.266 -1.5366  1.1973  0.0132
11977SOL     OW36900   2.902   1.114   5.253  0.1498 -0.3021 -0.1262
11977SOL    HW136901   2.886   1.120   5.347  0.3428 -0.2692 -0.0941
11977SOL    HW236902   2.957   1.190   5.233  1.0342 -0.9106 -0.0624
11978SOL     OW36903   5.419   6.766   4.585  0.1185  0.2148  0.0050
11978SOL    HW136904   5.461   6.681   4.596  0.5950  0.3808 -0.4811
11978SOL    HW236905   5.336   6.758   4.633  0.3663 -0.3629  0.3537
11979SOL     OW36906   6.081   0.952   6.759 -0.2718 -0.1111  0.2532
11979SOL    HW136907   6.014   0.945   6.827  0.7870 -1.0206  1.2423
11979SOL    HW236908   6.126   1.035   6.778 -0.2812 -0.1338  0.3740
11980SOL     OW36909   0.279   5.702   0.834  0.0634  0.1055 -0.1084
11980SOL    HW136910   0.227   5.741   0.905 -0.4596 -0.5374 -0.1342
11980SOL    HW236911   0.256   5.609   0.835 -0.0215  0.1012 -1.1843
11981SOL     OW36912   3.614   4.465   3.399  0.1923 -0.6240  0.7166
11981SOL    HW136913   3.633   4.371   3.397  0.1764 -0.6394  1.1739
11981SOL    HW236914   3.631   4.491   3.490 -1.0528 -0.4503  0.9219
11982SOL     OW36915   5.741   0.593   3.502  0.1346  0.3256 -0.2095
11982SOL    HW136916   5.817   0.645   3.476  1.2685 -1.5270 -0.8084
11982SOL    HW236917   5.756   0.572   3.594 -0.0438  0.5985 -0.1179
11983SOL     OW36918   0.171   6.974   0.329 -0.1990  0.1834 -0.6750
11983SOL    HW136919   0.198   7.065   0.319 -0.7467  0.4531  0.2014
11983SOL    HW236920   0.155   6.944   0.240  3.3978 -0.1792 -1.3753
11984SOL     OW36921   7.001   3.315   7.278 -0.5302  0.5897 -0.0352
11984SOL    HW136922   7.089   3.277   7.286 -1.3535 -1.1061  2.0361
11984SOL    HW236923   6.982   3.313   7.185  1.0180 -0.5210 -0.3600
11985SOL     OW36924   5.168   0.900   6.771 -0.1869 -0.1864 -0.1801
11985SOL    HW136925   5.164   0.806   6.755 -0.7070 -0.3475  0.8724
11985SOL    HW236926   5.091   0.919   6.824 -0.7888  1.0587 -1.4413
11986SOL     OW36927   1.256   2.709   3.841  0.0128  0.0970  0.9296
11986SOL    HW136928   1.178   2.732   3.791  0.3335 -3.1086 -1.3942
11986SOL    HW236929   1.232   2.628   3.886  1.9044 -0.8954  0.2472
11987SOL     OW36930   3.000   6.093   3.019 -0.1690  0.3610  0.0511
11987SOL    HW136931   3.004   5.999   3.037  0.0236  0.2606 -0.4818
11987SOL    HW236932   2.952   6.130   3.093 -2.7809 -0.5471 -1.0846
11988SOL     OW36933   4.423   1.635   4.710  0.2863 -0.0975 -0.1563
11988SOL    HW136934   4.509   1.594   4.704  0.0164 -0.6725 -0.2948
11988SOL    HW236935   4.363   1.561   4.722  0.0290  0.4509  2.4689
11989SOL     OW36936   0.846   1.498   1.211  0.2789 -0.2881  0.3611
11989SOL    HW136937   0.844   1.562   1.282 -0.4569 -0.1106  0.1878
11989SOL    HW236938   0.891   1.422   1.249  0.6138  0.1002  0.7545
11990SOL     OW36939   0.003   4.216   2.425 -0.1269 -0.2084  0.9550
11990SOL    HW136940  -0.056   4.248   2.493  0.3071 -1.8862  2.1774
11990SOL    HW236941  -0.051   4.157   2.373  0.2183 -1.0185  1.5045
11991SOL     OW36942   0.122   1.480   2.629 -0.3046 -0.1269 -0.2226
11991SOL    HW136943   0.211   1.448   2.646 -0.5474  0.0798  1.5351
11991SOL    HW236944   0.127   1.574   2.645 -0.9806 -0.2064  0.4627
11992SOL     OW36945   2.010   7.184   0.643  0.1974 -0.5113  0.3344
11992SOL    HW136946   1.934   7.146   0.687  1.0833 -1.9485  0.6925
11992SOL    HW236947   2.058   7.228   0.713 -0.8224  1.3694 -0.0784
11993SOL     OW36948   2.738   4.584   7.090  0.2255  0.0639  0.3807
11993SOL    HW136949   2.726   4.500   7.045  1.6967 -0.2797  0.5967
11993SOL    HW236950   2.655   4.598   7.137  0.5079 -2.0564  1.6357
11994SOL     OW36951   3.664   0.005   0.450  0.0662 -0.2932 -0.5630
11994SOL    HW136952   3.605  -0.041   0.391 -0.8741  0.1598  0.0102
11994SOL    HW236953   3.705   0.072   0.395  1.2642 -1.6090 -1.3433
11995SOL     OW36954   4.342   1.635   5.635 -0.3319  0.6772  0.1368
11995SOL    HW136955   4.269   1.665   5.580  0.1688  1.7190  0.0270
11995SOL    HW236956   4.415   1.623   5.574 -1.1276 -3.3142 -0.2967
11996SOL     OW36957   6.838   2.782   5.608  0.2131 -0.3889  0.3915
11996SOL    HW136958   6.888   2.817   5.682 -2.4831  0.7403  1.8099
11996SOL    HW236959   6.762   2.740   5.648 -0.4535 -1.2715 -1.6825
11997SOL     OW36960   5.455   1.601   2.713  0.3760  0.0533 -0.0296
11997SOL    HW136961   5.438   1.554   2.631  0.1534  2.0380 -1.1737
11997SOL    HW236962   5.432   1.538   2.781 -1.7341 -0.8720 -1.4872
11998SOL     OW36963   0.114   0.849   5.876  0.1486 -0.1840 -0.0372
11998SOL    HW136964   0.032   0.828   5.831  0.7576 -3.2384  0.0761
11998SOL    HW236965   0.182   0.804   5.825  1.6286  1.1924  0.6243
11999SOL     OW36966   2.710   4.017   0.872  0.8473  0.0261 -0.1845
11999SOL    HW136967   2.736   4.109   0.869  2.2494 -0.3427 -0.2543
11999SOL    HW236968   2.654   4.010   0.949  1.0954  0.8567  0.0801
12000SOL     OW36969   0.760   2.248   1.298 -0.2043  0.4846 -0.3362
12000SOL    HW136970   0.795   2.333   1.325 -0.5175  0.5503 -0.1268
12000SOL    HW236971   0.686   2.270   1.241 -0.5812  0.3555  0.1039
12001SOL     OW36972   2.581   2.278   3.187  0.1134  0.0574 -0.4931
12001SOL    HW136973   2.637   2.355   3.180  0.4563 -0.2860 -1.8021
12001SOL    HW236974   2.496   2.306   3.154  0.2507 -0.1224 -1.0134
12002SOL     OW36975   7.049   4.899   0.985 -0.4643 -0.0558  0.0464
12002SOL    HW136976   7.079   4.812   1.011 -1.4596 -0.7586 -1.0106
12002SOL    HW236977   7.090   4.914   0.900 -0.8367  0.1976 -0.0920
12003SOL     OW36978   5.219   0.523   0.176  0.3152 -0.2716 -0.1105
12003SOL    HW136979   5.278   0.455   0.210  2.1774  0.9989 -0.6233
12003SOL    HW236980   5.238   0.600   0.230 -0.0711  0.4760 -1.0075
12004SOL     OW36981   3.441   2.890   4.308  0.4611 -0.0056 -0.8766
12004SOL    HW136982   3.533   2.891   4.282  0.6372  1.8900 -0.2932
12004SOL    HW236983   3.393   2.906   4.227  0.6478 -0.6175 -1.1162
12005SOL     OW36984   3.610   4.997   3.426 -0.6633 -1.0016  0.0067
12005SOL    HW136985   3.584   5.044   3.347 -3.4443 -1.6147  0.4693
12005SOL    HW236986   3.641   4.912   3.394 -1.6978 -1.2204 -0.4636
12006SOL     OW36987   2.367   3.190   2.590 -0.0404 -0.0507 -0.4805
12006SOL    HW136988   2.284   3.196   2.637 -0.1538 -0.9549 -0.5612
12006SOL    HW236989   2.343   3.202   2.498  0.0253  0.4986 -0.4276
12007SOL     OW36990   1.854   5.243   1.645 -0.2125  0.1894  0.7090
12007SOL    HW136991   1.855   5.338   1.653  0.8215  0.3348 -0.6952
12007SOL    HW236992   1.887   5.211   1.729  1.3640  1.1688  0.5043
12008SOL     OW36993   6.202   3.327   0.874  0.5901  0.9516  0.6607
12008SOL    HW136994   6.263   3.258   0.846  1.9188  1.3203  2.4147
12008SOL    HW236995   6.238   3.356   0.958 -0.5758  3.0102  0.4930
12009SOL     OW36996   2.232   3.829   5.999 -0.4363  0.0403  0.2240
12009SOL    HW136997   2.259   3.847   5.909 -0.9216 -1.9577 -0.3725
12009SOL    HW236998   2.256   3.908   6.047  3.1814 -0.1953 -0.9293
12010SOL     OW36999   2.826   1.214   4.003  0.0458  0.2260  0.9021
12010SOL    HW137000   2.814   1.304   4.031 -0.5741  0.1970  0.7476
12010SOL    HW237001   2.792   1.212   3.913  0.9539  0.0594  0.5444
12011SOL     OW37002   0.616   5.636   2.444 -0.2620 -0.0520  0.1179
12011SOL    HW137003   0.528   5.627   2.481  0.0985 -3.4451  0.3762
12011SOL    HW237004   0.662   5.692   2.506 -1.6377  0.0998  1.0573
12012SOL     OW37005   5.134   6.427   7.312 -0.2697  0.3867 -0.7742
12012SOL    HW137006   5.214   6.399   7.269 -0.1861  2.9397 -2.4790
12012SOL    HW237007   5.162   6.499   7.370 -1.4775  2.8252 -3.0165
12013SOL     OW37008   5.436   2.111   3.909  0.2160 -0.2084 -0.4290
12013SOL    HW137009   5.491   2.101   3.987  1.8120  0.7912 -1.3694
12013SOL    HW237010   5.467   2.042   3.850 -0.5727 -0.5796 -0.4183
12014SOL     OW37011   5.481   3.159   3.236  0.2850  0.3379  0.3831
12014SOL    HW137012   5.521   3.242   3.211  0.0338  0.3706  0.0905
12014SOL    HW237013   5.457   3.117   3.154  0.7896 -0.2179  0.5127
12015SOL     OW37014   5.902   1.530   4.322 -0.2945  0.0103 -0.5054
12015SOL    HW137015   5.857   1.457   4.280 -0.7646  0.2835 -0.4776
12015SOL    HW237016   5.949   1.573   4.250 -1.5852  0.8438 -0.8853
12016SOL     OW37017   3.256   2.242   5.957 -0.2271  0.2172 -0.5165
12016SOL    HW137018   3.295   2.329   5.947  1.9443 -0.5227  0.8489
12016SOL    HW237019   3.190   2.253   6.025 -1.2319  1.1157 -1.5805
12017SOL     OW37020   6.704   1.467   2.421 -0.3061  0.0273 -0.6624
12017SOL    HW137021   6.719   1.551   2.464  0.4816 -0.2607 -0.3590
12017SOL    HW237022   6.704   1.487   2.327 -0.2136  0.3786 -0.5863
12018SOL     OW37023   1.082   6.224   2.797 -0.3106 -0.0274 -0.0282
12018SOL    HW137024   1.096   6.260   2.884  0.4026 -1.3526  0.4213
12018SOL    HW237025   1.046   6.298   2.747 -1.2026  0.6206  1.4932
12019SOL     OW37026   0.020   6.214   0.770  0.1060 -0.2536  0.0002
12019SOL    HW137027  -0.010   6.166   0.693 -2.8685 -0.7325  1.3163
12019SOL    HW237028  -0.002   6.305   0.752  0.5988 -0.1697 -0.2056
12020SOL     OW37029   6.127   5.813   0.530 -0.1533 -0.2759  0.3123
12020SOL    HW137030   6.090   5.876   0.469 -1.7540 -0.0506  1.4601
12020SOL    HW237031   6.058   5.748   0.543  1.1281 -1.7838 -0.1246
12021SOL     OW37032   6.149   3.157   6.302 -0.1367 -0.4257 -0.5167
12021SOL    HW137033   6.054   3.169   6.313  0.1061  0.6776  0.6297
12021SOL    HW237034   6.168   3.073   6.342 -0.5134 -0.2524  0.0287
12022SOL     OW37035   2.540   6.224   0.581  0.4541  0.3003 -0.3323
12022SOL    HW137036   2.512   6.142   0.540 -1.2364 -0.8449  2.7599
12022SOL    HW237037   2.462   6.280   0.578  1.1376  1.2430 -1.0544
12023SOL     OW37038   2.772   3.148   2.862 -0.0416 -0.6419  0.0713
12023SOL    HW137039   2.678   3.168   2.865 -0.0952 -0.8383 -0.2293
12023SOL    HW237040   2.814   3.234   2.868 -0.2646 -0.4459 -0.9523
12024SOL     OW37041   6.051   6.489   4.389  0.0345 -0.4490 -0.1037
12024SOL    HW137042   5.970   6.447   4.416 -0.3187 -0.6319 -1.4188
12024SOL    HW237043   6.024   6.569   4.346  0.5474 -0.5536 -0.6342
12025SOL     OW37044   1.789   3.857   6.381 -0.0171 -0.5125 -0.0310
12025SOL    HW137045   1.794   3.765   6.353  0.0705 -0.6449  0.4136
12025SOL    HW237046   1.811   3.855   6.474 -1.8820 -0.2896  0.4550
12026SOL     OW37047   5.710   1.990   0.223 -0.2378 -0.2753  0.1467
12026SOL    HW137048   5.715   1.942   0.140 -1.0232  0.5133 -0.3783
12026SOL    HW237049   5.618   2.015   0.230  0.0717  0.7643  0.6381
12027SOL     OW37050   2.350   4.824   6.198  0.2738 -0.1405 -0.1151
12027SOL    HW137051   2.422   4.805   6.137 -1.3662 -1.8084 -1.6769
12027SOL    HW237052   2.354   4.753   6.262  1.2013  0.8935  1.0166
12028SOL     OW37053   1.399   5.649   5.238 -0.2601 -0.2688  0.3335
12028SOL    HW137054   1.436   5.689   5.317  0.1563  1.0280 -0.4932
12028SOL    HW237055   1.383   5.722   5.179  0.3680 -1.2985 -1.1847
12029SOL     OW37056   4.332   6.267   6.347  0.5108  0.0983  0.1967
12029SOL    HW137057   4.299   6.313   6.270  0.8801 -1.4252 -0.9351
12029SOL    HW237058   4.387   6.331   6.392  2.9874  0.1842 -2.6003
12030SOL     OW37059   5.164   2.829   2.666 -0.0369 -0.1414 -0.0828
12030SOL    HW137060   5.068   2.828   2.658 -0.1886 -0.1408  1.5194
12030SOL    HW237061   5.181   2.792   2.752  1.4232 -0.1986 -0.3781
12031SOL     OW37062   7.337   0.544   6.347  0.1132 -0.1355  0.2746
12031SOL    HW137063   7.404   0.606   6.318  0.8108 -0.4685  1.1539
12031SOL    HW237064   7.371   0.458   6.324 -0.3443 -0.2710  0.0828
12032SOL     OW37065   2.626   1.071   0.967 -0.7536 -0.0937 -0.0821
12032SOL    HW137066   2.626   1.128   0.891 -0.1439 -2.3385 -1.8932
12032SOL    HW237067   2.534   1.061   0.990 -0.9137  0.9335 -0.2635
12033SOL     OW37068   3.954   1.530   2.313 -0.2800 -0.0463 -0.3083
12033SOL    HW137069   3.863   1.507   2.295 -0.3707 -0.8057  1.0606
12033SOL    HW237070   3.991   1.454   2.357  1.3573 -0.2034 -1.8198
12034SOL     OW37071   2.522   0.078   1.658 -0.0135 -0.1286  0.6057
12034SOL    HW137072   2.503   0.051   1.568 -0.0880 -0.0097  0.5847
12034SOL    HW237073   2.616   0.067   1.667 -0.1269 -0.9819  0.7987
12035SOL     OW37074   7.028   3.844   4.927 -0.4389  0.4349  0.1794
12035SOL    HW137075   7.079   3.902   4.984 -0.7594  0.6564  0.2434
12035SOL    HW237076   6.994   3.777   4.986 -1.4754  1.1419  0.4057
12036SOL     OW37077   3.614   4.934   1.196 -0.3503 -0.0207  0.6465
12036SOL    HW137078   3.663   4.917   1.277  0.8879  0.7403  0.0897
12036SOL    HW237079   3.559   5.009   1.217 -1.0322 -0.6487  1.1655
12037SOL     OW37080   4.585   0.452   1.032 -0.2815 -0.3797 -0.0101
12037SOL    HW137081   4.680   0.444   1.027 -0.0502  2.0763 -1.7989
12037SOL    HW237082   4.552   0.390   0.967  0.3007  0.4257 -1.1193
12038SOL     OW37083   6.823   7.098   1.260 -0.4028  0.3527  0.0540
12038SOL    HW137084   6.775   7.021   1.291 -1.6911  0.9722 -0.3684
12038SOL    HW237085   6.781   7.121   1.177 -1.0216  2.4272  0.9128
12039SOL     OW37086   0.023   2.554   4.811  0.0162 -0.5401 -0.5045
12039SOL    HW137087  -0.025   2.514   4.738 -0.1203 -1.3738  0.0266
12039SOL    HW237088  -0.023   2.636   4.829 -0.9339 -1.1013 -0.3119
12040SOL     OW37089   2.828   4.707   5.604  0.3064  0.0862  0.1363
12040SOL    HW137090   2.758   4.662   5.652 -0.1734  1.0618  0.3803
12040SOL    HW237091   2.850   4.648   5.532  0.5636 -1.0880  1.1645
12041SOL     OW37092   4.706   4.084   3.606 -0.6775 -0.0779 -0.1730
12041SOL    HW137093   4.778   4.043   3.653 -1.1669  0.0910  0.7540
12041SOL    HW237094   4.701   4.037   3.523  0.0148 -0.5877  0.0690
12042SOL     OW37095   4.361   6.701   4.678 -0.0658 -0.2983  0.1870
12042SOL    HW137096   4.434   6.672   4.623  1.4179  1.7987  0.8945
12042SOL    HW237097   4.386   6.675   4.767  0.3399  1.2542  0.5591
12043SOL     OW37098   0.872   4.297   2.443  0.6384  0.4924 -0.1360
12043SOL    HW137099   0.803   4.272   2.382  0.6800  3.0026 -1.3747
12043SOL    HW237100   0.870   4.393   2.443  1.3908  0.6417  3.0152
12044SOL     OW37101   1.564   2.717   5.349  0.5668  0.2117  0.8396
12044SOL    HW137102   1.513   2.658   5.404  4.1227 -1.5128  2.6200
12044SOL    HW237103   1.534   2.805   5.373  0.5215 -0.5897  4.1323
12045SOL     OW37104   1.460   6.770   5.670  0.1707 -0.3306 -0.2384
12045SOL    HW137105   1.457   6.854   5.625  1.2916 -0.4203 -0.5196
12045SOL    HW237106   1.532   6.723   5.628  0.6197 -0.8018  0.9990
12046SOL     OW37107   4.334   0.095   6.856 -0.5563 -0.3403  0.4314
12046SOL    HW137108   4.296   0.012   6.886 -0.6730 -0.1701  0.7568
12046SOL    HW237109   4.302   0.160   6.918 -1.4305  0.1521 -0.4994
12047SOL     OW37110   1.867   0.626   3.806  0.3811  0.6354  0.6388
12047SOL    HW137111   1.935   0.693   3.809 -0.4976  1.5430  0.7263
12047SOL    HW237112   1.815   0.648   3.729  0.1789 -0.0603  0.5656
12048SOL     OW37113   4.242   6.967   2.757  0.1885 -0.1295  0.0849
12048SOL    HW137114   4.224   7.057   2.731 -1.8616 -0.0998  1.3365
12048SOL    HW237115   4.187   6.914   2.698  1.4613 -0.6090 -0.7158
12049SOL     OW37116   3.487   4.396   5.258  0.6409  0.0537 -0.4135
12049SOL    HW137117   3.459   4.471   5.311  0.9732 -1.1962  1.6279
12049SOL    HW237118   3.467   4.422   5.168 -1.9424  1.4441  0.4469
12050SOL     OW37119   3.755   0.032   0.718 -0.1224  0.0783 -0.2528
12050SOL    HW137120   3.718   0.027   0.630  1.0835 -0.4731 -0.7532
12050SOL    HW237121   3.681   0.016   0.776 -0.4666 -2.4897 -1.2535
12051SOL     OW37122   6.552   4.309   5.835 -0.1807  0.1930  0.0739
12051SOL    HW137123   6.486   4.365   5.794 -0.6529 -0.0412  0.5105
12051SOL    HW237124   6.509   4.225   5.847  0.3054 -0.0645  0.0641
12052SOL     OW37125   1.011   2.219   4.951  0.4486 -0.0146  0.0177
12052SOL    HW137126   0.954   2.268   4.892  1.2400  1.5892  0.5104
12052SOL    HW237127   1.027   2.278   5.024 -0.5605 -1.9824  1.9292
12053SOL     OW37128   6.603   2.974   1.746  0.0192 -0.0440 -0.4380
12053SOL    HW137129   6.517   2.932   1.754 -0.0954  0.3199  0.2943
12053SOL    HW237130   6.591   3.042   1.681 -0.1465 -0.2416 -0.6170
12054SOL     OW37131   5.489   1.377   3.314  0.5394 -0.1953 -0.0068
12054SOL    HW137132   5.499   1.285   3.292 -0.4727 -0.2914 -0.1264
12054SOL    HW237133   5.454   1.377   3.403  4.8831  0.1962  1.9778
12055SOL     OW37134   5.021   1.645   6.551 -0.3549  0.7861  0.2261
12055SOL    HW137135   5.020   1.737   6.525  1.1689  0.3740 -1.4989
12055SOL    HW237136   5.044   1.646   6.645  1.3866  2.1402 -0.1592
12056SOL     OW37137   4.085   2.517   6.605  0.6276  0.0486 -0.0483
12056SOL    HW137138   4.126   2.603   6.594  0.9644  0.2461  2.2441
12056SOL    HW237139   4.142   2.471   6.667  0.3719 -1.8004 -1.1201
12057SOL     OW37140   1.673   3.760   1.417  0.3204 -0.1474  0.4284
12057SOL    HW137141   1.577   3.765   1.409  0.4192  1.4673 -0.2806
12057SOL    HW237142   1.691   3.669   1.437 -1.3599 -0.5262  0.3840
12058SOL     OW37143   2.791   2.401   6.100 -0.0608 -0.2238 -0.4282
12058SOL    HW137144   2.760   2.440   6.182 -0.0477 -1.5186  0.2082
12058SOL    HW237145   2.711   2.370   6.057 -0.2183  1.5673 -1.5486
12059SOL     OW37146   1.374   0.751   3.270  0.2389 -0.9924 -0.4367
12059SOL    HW137147   1.345   0.710   3.189 -1.6781  0.9740 -0.8704
12059SOL    HW237148   1.386   0.843   3.247 -1.2648 -0.1874  1.6575
12060SOL     OW37149   2.677   6.871   5.130 -0.4037 -0.1989  0.3144
12060SOL    HW137150   2.663   6.791   5.078  1.1905 -0.3312  0.0414
12060SOL    HW237151   2.629   6.939   5.082 -2.1131 -1.0308  0.7591
12061SOL     OW37152   6.769   5.334   5.334 -0.2955  0.1799  0.4774
12061SOL    HW137153   6.752   5.305   5.244 -1.5017 -1.2984  1.1193
12061SOL    HW237154   6.762   5.429   5.330  2.1036  0.3881 -1.4296
12062SOL     OW37155   2.378   0.010   3.669 -0.1031  0.2649 -0.0611
12062SOL    HW137156   2.335   0.073   3.727  1.0011 -0.2400  1.3456
12062SOL    HW237157   2.469   0.039   3.667  0.0612 -0.2973 -0.7894
12063SOL     OW37158   2.003   4.241   3.462 -0.1842  0.4720  0.8324
12063SOL    HW137159   2.061   4.300   3.414  0.7970 -1.2125 -0.1748
12063SOL    HW237160   1.993   4.165   3.405 -3.4791  0.6715  0.9598
12064SOL     OW37161   3.478   7.089   6.317  0.4834 -0.0372  0.0933
12064SOL    HW137162   3.528   7.164   6.350 -0.6251  0.7538  0.0425
12064SOL    HW237163   3.479   7.026   6.389 -0.4977  0.9837  1.0516
12065SOL     OW37164   2.475   3.271   0.842 -0.4710  0.5534 -0.2272
12065SOL    HW137165   2.561   3.229   0.847  0.3049  2.1890  1.3992
12065SOL    HW237166   2.483   3.332   0.769 -0.3627  0.4552 -0.2974
12066SOL     OW37167   3.090   1.870   5.762 -0.0519  0.3564 -0.2868
12066SOL    HW137168   3.090   1.876   5.857  0.7114 -0.9058 -0.1842
12066SOL    HW237169   3.098   1.777   5.744  1.2167  0.6826 -1.5757
12067SOL     OW37170   2.216   4.529   3.954  0.2790  0.0810 -0.6515
12067SOL    HW137171   2.259   4.499   4.035  0.2788 -0.2146 -0.7584
12067SOL    HW237172   2.175   4.450   3.919 -1.5648  0.5996  0.1873
12068SOL     OW37173   7.002   6.240   2.529 -0.2822  0.3920  0.7090
12068SOL    HW137174   7.017   6.272   2.440  1.0025  0.3079  0.8734
12068SOL    HW237175   7.070   6.282   2.581  0.2985 -1.1710  1.2637
12069SOL     OW37176   3.754   5.587   3.832 -0.0099 -0.4328 -0.2473
12069SOL    HW137177   3.845   5.614   3.820 -0.1534  0.1981  0.0262
12069SOL    HW237178   3.759   5.493   3.850  0.3795 -1.0568 -3.0505
12070SOL     OW37179   0.084   3.514   1.172 -0.3621 -0.1624 -0.6246
12070SOL    HW137180   0.100   3.423   1.197  0.7507  0.2476  0.2679
12070SOL    HW237181   0.172   3.550   1.155 -0.6989  0.9845 -0.0570
12071SOL     OW37182   2.367   4.663   2.634 -0.1069  0.4288  0.1568
12071SOL    HW137183   2.365   4.574   2.670 -1.5827  0.3721  0.0049
12071SOL    HW237184   2.326   4.717   2.701 -2.6303  0.3701 -1.1922
12072SOL     OW37185   5.284   3.962   4.463 -0.0985  0.3312 -0.2501
12072SOL    HW137186   5.265   4.053   4.442 -1.7393 -0.0870 -0.7840
12072SOL    HW237187   5.220   3.939   4.530  0.5682 -0.3109  0.1822
12073SOL     OW37188   6.155   6.159   1.727 -0.6229 -0.1343 -0.1717
12073SOL    HW137189   6.116   6.137   1.643  0.2342 -0.5785 -0.4723
12073SOL    HW237190   6.171   6.253   1.723  0.7539 -0.3704 -1.1209
12074SOL     OW37191   5.739   0.838   0.988  0.3568  0.1443  0.8508
12074SOL    HW137192   5.805   0.825   0.920  0.2529  0.2753  0.7251
12074SOL    HW237193   5.699   0.751   0.999  0.0146  0.2393  0.3729
12075SOL     OW37194   6.661   7.040   3.352  0.2766  0.1237  0.0578
12075SOL    HW137195   6.690   7.080   3.270 -1.6458  1.3639 -0.0928
12075SOL    HW237196   6.606   6.966   3.324 -1.0278  1.0235  0.1658
12076SOL     OW37197   6.742   1.532   3.682 -0.2693 -0.9792 -0.2984
12076SOL    HW137198   6.650   1.557   3.671  0.1348  0.8199 -0.0285
12076SOL    HW237199   6.791   1.612   3.660  1.1645 -1.4219  1.0783
12077SOL     OW37200   4.271   3.361   1.350  0.4467 -0.1517 -0.4008
12077SOL    HW137201   4.292   3.309   1.273  2.1136  0.4509 -0.3968
12077SOL    HW237202   4.300   3.307   1.424 -1.0691 -0.6934 -0.1739
12078SOL     OW37203   3.332   5.567   7.304  0.1571 -0.5029 -0.4152
12078SOL    HW137204   3.335   5.473   7.323 -0.8329 -0.3937  0.3413
12078SOL    HW237205   3.273   5.603   7.370  0.1422  0.5821 -1.0005
12079SOL     OW37206   1.684   1.963   5.194  0.1438 -0.0473 -0.5804
12079SOL    HW137207   1.660   1.971   5.102  2.2572 -1.0931 -1.2822
12079SOL    HW237208   1.751   2.029   5.208  1.0670 -1.0171 -0.2781
12080SOL     OW37209   0.429   2.780   1.394  0.2242 -0.4818  0.1803
12080SOL    HW137210   0.431   2.820   1.481  0.0189  1.6546 -0.7261
12080SOL    HW237211   0.520   2.780   1.365  0.1855 -0.4079  0.0584
12081SOL     OW37212   3.711   5.101   6.896 -0.3615  0.3346 -0.2855
12081SOL    HW137213   3.762   5.048   6.834 -0.8058 -0.3463 -0.0830
12081SOL    HW237214   3.762   5.098   6.977  0.4064  1.5286 -0.6995
12082SOL     OW37215   2.523   5.139   0.301 -0.0741  0.6820  0.1532
12082SOL    HW137216   2.492   5.229   0.290 -0.0618  0.8044  1.0089
12082SOL    HW237217   2.596   5.147   0.362 -1.5657 -0.1518  2.1611
12083SOL     OW37218   2.319   5.669   6.992 -0.0215 -0.2388 -0.5966
12083SOL    HW137219   2.365   5.706   6.916  0.5092  1.6775  0.5635
12083SOL    HW237220   2.342   5.577   6.992  1.9889  0.2060 -1.3867
12084SOL     OW37221   6.920   6.298   1.448 -0.2388 -0.1806  0.0983
12084SOL    HW137222   6.930   6.362   1.519  0.1203 -0.7015  0.5304
12084SOL    HW237223   6.947   6.215   1.488  0.7997 -0.3416 -0.8941
12085SOL     OW37224   4.052   6.271   2.192 -0.4301  0.3810 -0.3056
12085SOL    HW137225   4.070   6.210   2.263 -1.8202  1.0574  0.6686
12085SOL    HW237226   4.048   6.216   2.113 -1.5695 -0.8015  0.5283
12086SOL     OW37227   1.501   5.098   0.027 -0.1017 -0.0303 -0.2913
12086SOL    HW137228   1.486   5.192   0.012  0.3444  0.2099  0.7156
12086SOL    HW237229   1.480   5.085   0.119 -2.3962 -1.3998 -0.9295
12087SOL     OW37230   1.605   6.807   0.986 -0.0429  0.5489  0.2510
12087SOL    HW137231   1.682   6.773   0.941  0.8857  2.3345  0.4009
12087SOL    HW237232   1.585   6.741   1.052  1.0334 -0.1961 -0.1344
12088SOL     OW37233   5.554   7.110   0.372 -0.4974 -0.4116 -0.0048
12088SOL    HW137234   5.559   7.129   0.278 -0.2629  0.1581  0.1174
12088SOL    HW237235   5.645   7.096   0.399 -0.3428  1.2931  0.4975
12089SOL     OW37236   4.796   0.382   6.083 -0.5785  0.4363  0.3202
12089SOL    HW137237   4.809   0.325   6.007  0.5288 -0.4271  1.1257
12089SOL    HW237238   4.727   0.339   6.133 -0.3757  0.2803  0.4689
12090SOL     OW37239   1.273   0.077   1.181  0.3067 -0.3020  0.2060
12090SOL    HW137240   1.303   0.162   1.210  0.9441  0.0043 -1.2327
12090SOL    HW237241   1.181   0.090   1.160 -0.0242 -0.4023  1.5224
12091SOL     OW37242   6.005   5.468   3.680 -0.3840  0.0740  0.3080
12091SOL    HW137243   6.094   5.480   3.647 -0.8752  0.7195 -0.8370
12091SOL    HW237244   5.956   5.433   3.606 -2.1491  4.0995 -0.6757
12092SOL     OW37245   4.544   5.699   1.994  0.6713  0.3251  0.5415
12092SOL    HW137246   4.496   5.701   1.911 -1.4828  2.6228  1.7296
12092SOL    HW237247   4.529   5.610   2.027 -0.7331  0.2249 -0.2755
12093SOL     OW37248   3.347   1.648   3.423 -0.1361 -0.6212 -0.1306
12093SOL    HW137249   3.282   1.604   3.478 -0.3526  0.4570  0.5124
12093SOL    HW237250   3.307   1.732   3.401  1.4377  0.5639  1.2262
12094SOL     OW37251   7.156   3.038   5.369  0.2839 -0.1570 -0.1337
12094SOL    HW137252   7.071   3.045   5.326  0.6098  0.9828 -0.6163
12094SOL    HW237253   7.177   3.128   5.394  1.9578 -0.2093 -1.2319
12095SOL     OW37254   6.331   4.174   3.654  0.1476  0.0362  0.5553
12095SOL    HW137255   6.354   4.201   3.565 -2.2510  0.5950  0.0435
12095SOL    HW237256   6.343   4.253   3.706 -1.3627  0.5636  0.1324
12096SOL     OW37257   6.421   6.886   4.003 -0.0773 -0.0670 -0.0715
12096SOL    HW137258   6.413   6.981   4.004  3.8136  0.4496 -0.6924
12096SOL    HW237259   6.371   6.858   3.927  1.0383  1.8945 -1.6341
12097SOL     OW37260   3.186   4.395   0.578  0.4866  0.1693  0.3808
12097SOL    HW137261   3.174   4.490   0.581 -1.6723 -0.0275  0.0967
12097SOL    HW237262   3.107   4.363   0.533  0.2997 -1.8759  2.0151
12098SOL     OW37263   1.106   3.118   2.007  0.2762  0.0683  0.1075
12098SOL    HW137264   1.190   3.125   2.053 -0.4168  1.6411  1.2592
12098SOL    HW237265   1.096   3.202   1.962  0.0033 -0.6877 -1.2937
12099SOL     OW37266   4.043   0.546   4.537 -0.2152  0.0288 -0.0985
12099SOL    HW137267   4.077   0.613   4.478  0.1566  0.3444  0.4623
12099SOL    HW237268   3.962   0.583   4.572 -1.0930 -0.6690 -1.3348
12100SOL     OW37269   0.905   3.323   6.132 -0.0466  0.3485  0.4398
12100SOL    HW137270   0.811   3.305   6.143 -0.8610  2.6499 -1.7894
12100SOL    HW237271   0.909   3.389   6.064  3.2857  0.0635  0.1942
12101SOL     OW37272   2.118   7.337   0.297  0.2587  0.5575  0.3884
12101SOL    HW137273   2.149   7.398   0.230 -0.7331 -0.5077 -1.1118
12101SOL    HW237274   2.028   7.365   0.316  0.0677  0.0382  0.2642
12102SOL     OW37275   3.535   2.143   6.450 -0.3248  0.2820  0.1341
12102SOL    HW137276   3.440   2.142   6.437 -0.3145  0.7920 -0.0374
12102SOL    HW237277   3.571   2.140   6.361 -0.1778 -0.0737  0.2056
12103SOL     OW37278   2.210   3.620   5.720  0.8756 -0.4434  0.6373
12103SOL    HW137279   2.118   3.635   5.740  0.4283 -1.3956 -0.5852
12103SOL    HW237280   2.237   3.698   5.672 -0.1043 -1.3104 -1.4610
12104SOL     OW37281   6.378   2.140   5.980  0.5061 -0.4526 -0.1181
12104SOL    HW137282   6.416   2.223   6.010 -1.0135  0.3956 -0.4419
12104SOL    HW237283   6.436   2.073   6.015  0.0757  0.5792  2.8117
12105SOL     OW37284   0.962   0.235   4.237 -0.0428  0.6923 -0.4112
12105SOL    HW137285   0.983   0.262   4.148  0.1976  0.1423 -0.5222
12105SOL    HW237286   0.875   0.196   4.230 -0.0391  0.6815 -0.3965
12106SOL     OW37287   6.606   5.103   5.614 -0.6386 -0.0993  0.2333
12106SOL    HW137288   6.556   5.087   5.535 -0.5514 -0.1853  0.1953
12106SOL    HW237289   6.543   5.093   5.685 -0.5071 -0.9967  0.2382
12107SOL     OW37290   3.353   4.346   4.160  0.0025 -0.5910  0.5361
12107SOL    HW137291   3.444   4.320   4.150 -0.1364 -1.4557  1.3355
12107SOL    HW237292   3.336   4.338   4.254 -0.9717 -0.7202  0.3607
12108SOL     OW37293   5.815   0.929   3.401 -0.0316 -0.0268 -0.6223
12108SOL    HW137294   5.796   0.914   3.494  1.6412  1.2736 -0.0315
12108SOL    HW237295   5.910   0.923   3.394 -0.1276 -0.1266 -2.2685
12109SOL     OW37296   0.303   3.476   6.413  0.0205  0.0407 -0.4107
12109SOL    HW137297   0.322   3.549   6.354  3.3151  0.9118  1.4092
12109SOL    HW237298   0.283   3.518   6.497 -0.4144 -1.1520  0.1118
12110SOL     OW37299   0.563   3.806   4.683  0.0515  0.4750  0.3721
12110SOL    HW137300   0.650   3.841   4.665 -0.4481  0.8319 -1.6009
12110SOL    HW237301   0.542   3.754   4.605 -1.2692 -0.0501  1.0566
12111SOL     OW37302   1.391   3.001   5.383  0.6183  0.0734  0.2242
12111SOL    HW137303   1.386   3.031   5.292  0.4312  0.2289  0.2848
12111SOL    HW237304   1.301   2.979   5.406  0.1771  2.5011  1.1975
12112SOL     OW37305   1.977   4.067   5.792  0.4229 -0.1200  0.3207
12112SOL    HW137306   1.940   4.136   5.847 -0.9241 -0.8399  0.3421
12112SOL    HW237307   1.981   3.990   5.848  0.0937 -0.5662 -0.2541
12113SOL     OW37308   6.029   2.679   3.747  0.0560  0.1367 -0.0092
12113SOL    HW137309   6.004   2.765   3.781 -1.7636  0.3482 -1.6906
12113SOL    HW237310   5.953   2.624   3.765  0.8961 -0.9322  0.3343
12114SOL     OW37311   6.116   1.915   4.043  0.6495  0.1993 -0.2711
12114SOL    HW137312   6.027   1.905   4.010  0.9663  2.0143 -1.8432
12114SOL    HW237313   6.167   1.941   3.967  2.0129  1.7364  1.0954
12115SOL     OW37314   4.367   0.303   2.547 -0.0042 -0.5745  0.3721
12115SOL    HW137315   4.435   0.239   2.526  1.4696  0.3230  2.1450
12115SOL    HW237316   4.414   0.377   2.585 -1.7800  1.0495 -0.3987
12116SOL     OW37317   1.943   1.117   3.538  0.7128 -0.4990  0.6273
12116SOL    HW137318   2.033   1.101   3.509  0.1975 -1.8887 -0.2833
12116SOL    HW237319   1.951   1.190   3.600  2.2422  0.5812 -0.7332
12117SOL     OW37320   6.972   1.817   6.882  0.1597  0.6488 -0.0745
12117SOL    HW137321   6.934   1.734   6.854 -0.9553  1.5411 -1.2968
12117SOL    HW237322   6.984   1.807   6.977 -0.1066 -0.8339 -0.1834
12118SOL     OW37323   5.003   1.214   6.055 -0.4687 -0.7079 -0.0350
12118SOL    HW137324   4.996   1.237   6.148  0.5873  1.2313 -0.3821
12118SOL    HW237325   4.922   1.166   6.036 -0.5953 -1.3603  1.9280
12119SOL     OW37326   5.092   4.470   2.180  0.3683 -0.3462 -0.3992
12119SOL    HW137327   5.175   4.510   2.157  1.1810 -0.8076  1.5628
12119SOL    HW237328   5.069   4.417   2.104  0.4605  1.8662 -2.0788
12120SOL     OW37329   6.619   6.941   7.104  0.0590 -0.1315  0.3082
12120SOL    HW137330   6.631   7.023   7.151  1.3194 -0.2199  0.1608
12120SOL    HW237331   6.694   6.935   7.045 -0.0156 -1.3746  0.3079
12121SOL     OW37332   5.999   4.079   3.445 -0.2755 -0.5227 -0.9352
12121SOL    HW137333   6.010   4.172   3.461  0.3185 -0.3688 -2.1497
12121SOL    HW237334   6.071   4.037   3.492 -2.4512 -0.7757  2.6262
12122SOL     OW37335   1.052   6.225   5.096  0.1111  0.1901  0.0860
12122SOL    HW137336   1.023   6.180   5.176  2.3005 -0.6793  0.4689
12122SOL    HW237337   1.113   6.163   5.055 -0.6239  0.8092 -2.0597
12123SOL     OW37338   6.291   3.775   4.245  0.0896 -0.1776  0.0961
12123SOL    HW137339   6.200   3.772   4.277 -0.1377  2.0602 -0.1555
12123SOL    HW237340   6.340   3.814   4.317  0.5062  0.2947 -0.4342
12124SOL     OW37341   2.751   4.477   3.062 -0.3724 -0.0744  0.2331
12124SOL    HW137342   2.809   4.407   3.031  1.7900  1.3940  0.7434
12124SOL    HW237343   2.693   4.434   3.125 -0.3493 -1.7417 -0.8213
12125SOL     OW37344   3.146   0.160   3.439  0.1539  0.1069  0.1506
12125SOL    HW137345   3.113   0.249   3.430 -0.1969 -0.1682 -1.7899
12125SOL    HW237346   3.088   0.119   3.504 -2.3201  0.1510 -1.8980
12126SOL     OW37347   7.217   5.473   4.237  0.0347 -0.3593  0.7408
12126SOL    HW137348   7.177   5.472   4.324 -1.4046 -1.0489  0.1055
12126SOL    HW237349   7.241   5.565   4.223 -1.3987  0.1042  1.1481
12127SOL     OW37350   4.758   7.095   7.172  0.0059  0.3726 -0.4811
12127SOL    HW137351   4.810   7.017   7.189  0.1145  0.6746  0.6738
12127SOL    HW237352   4.717   7.079   7.087  0.6571 -0.5875 -0.6270
12128SOL     OW37353   0.378   2.983   6.670  0.1345  0.0370  0.4841
12128SOL    HW137354   0.292   2.964   6.633  0.5921 -0.1150 -0.5318
12128SOL    HW237355   0.388   3.078   6.661  0.1097  0.0445  0.5339
12129SOL     OW37356   5.992   2.906   5.539  0.0812  0.5174  0.2638
12129SOL    HW137357   6.023   2.990   5.505  0.3919  0.0796 -0.5663
12129SOL    HW237358   5.903   2.924   5.570 -0.8073  0.6465 -2.1234
12130SOL     OW37359   4.607   6.433   0.860 -0.6641  0.0510 -0.2685
12130SOL    HW137360   4.675   6.393   0.914  0.8964  0.6663 -1.7007
12130SOL    HW237361   4.525   6.397   0.895  0.3117 -0.1996  1.9382
12131SOL     OW37362   2.017   5.913   1.989  0.3302 -0.2449  0.1303
12131SOL    HW137363   1.980   5.996   2.019  1.2337  1.0006 -1.9689
12131SOL    HW237364   2.110   5.918   2.013  0.3965 -0.6361 -0.0384
12132SOL     OW37365   2.637   3.774   0.471  0.0506  0.2122  0.3630
12132SOL    HW137366   2.716   3.820   0.441 -1.3266  1.0064 -2.3500
12132SOL    HW237367   2.578   3.844   0.500  0.0685 -0.3316  1.7949
12133SOL     OW37368   5.778   2.687   0.842  0.0345 -0.1542  0.6780
12133SOL    HW137369   5.767   2.647   0.756 -0.2900 -0.8333  1.0262
12133SOL    HW237370   5.797   2.779   0.824 -2.2838  0.2395 -0.0880
12134SOL     OW37371   6.997   1.971   6.542  0.2768  0.0881  0.3905
12134SOL    HW137372   7.038   1.936   6.621 -0.1874  0.4065  0.7756
12134SOL    HW237373   6.977   1.893   6.490  0.3707 -0.1396  0.6877
12135SOL     OW37374   2.942   1.765   0.939  0.2267  0.2175 -0.6894
12135SOL    HW137375   2.857   1.722   0.933  1.7058 -3.6778  2.1304
12135SOL    HW237376   2.980   1.758   0.852 -1.1675 -0.7640 -1.2422
12136SOL     OW37377   1.847   1.101   6.025  0.2836  0.0235 -0.3543
12136SOL    HW137378   1.782   1.122   5.957 -0.4423 -2.2997 -0.4795
12136SOL    HW237379   1.817   1.149   6.102 -2.7412 -2.2452  0.1013
12137SOL     OW37380   4.674   3.378   3.732 -0.5359  0.2171  0.4773
12137SOL    HW137381   4.607   3.394   3.666 -0.8229  1.7343  1.0926
12137SOL    HW237382   4.627   3.377   3.815  0.0676  0.3218  0.8341
12138SOL     OW37383   1.056   2.391   1.916 -0.6704  0.2484 -0.6284
12138SOL    HW137384   1.126   2.334   1.947  1.0005  1.1872 -2.4286
12138SOL    HW237385   0.976   2.354   1.955  0.8291 -0.5015  2.0107
12139SOL     OW37386   5.160   6.107   0.576 -0.8871  0.0111 -0.3143
12139SOL    HW137387   5.198   6.028   0.613 -0.2931  0.5175  0.1794
12139SOL    HW237388   5.227   6.175   0.589 -1.0875  0.4357 -1.3791
12140SOL     OW37389   1.749   4.256   1.614 -0.0414  0.0744 -0.2859
12140SOL    HW137390   1.797   4.174   1.606  1.0790  0.7540 -1.0020
12140SOL    HW237391   1.815   4.324   1.598 -1.0172  1.0980 -0.1521
12141SOL     OW37392   1.657   1.395   2.182  0.1339  0.3241 -0.0026
12141SOL    HW137393   1.719   1.331   2.217  1.5433  1.1526 -0.8778
12141SOL    HW237394   1.712   1.459   2.136 -1.2727  1.8142  0.3001
12142SOL     OW37395   0.805   2.189   5.188 -0.3294 -0.3894 -0.3771
12142SOL    HW137396   0.875   2.126   5.170  0.1117  0.2259 -0.8565
12142SOL    HW237397   0.845   2.274   5.172 -1.5352 -0.0576 -1.9375
12143SOL     OW37398   0.381   0.354   6.599 -0.0386 -0.1213 -0.1314
12143SOL    HW137399   0.311   0.418   6.610  0.2305  0.2166 -0.3481
12143SOL    HW237400   0.428   0.354   6.682  0.1203  0.1625 -0.2177
12144SOL     OW37401   0.384   6.448   1.595  0.4218 -0.1279  0.4640
12144SOL    HW137402   0.474   6.421   1.614  0.6359  0.4183  0.2603
12144SOL    HW237403   0.340   6.368   1.569  0.7984 -0.4349  0.7643
12145SOL     OW37404   7.142   3.099   6.589 -0.1873  0.4978 -0.5828
12145SOL    HW137405   7.167   3.170   6.529 -0.2857 -0.1988 -1.4761
12145SOL    HW237406   7.097   3.142   6.661 -1.0009  1.2728 -1.5278
12146SOL     OW37407   3.645   0.348   4.966 -0.0696 -0.6725 -0.0192
12146SOL    HW137408   3.731   0.356   4.924 -0.7823 -0.0971 -1.4189
12146SOL    HW237409   3.583   0.348   4.894 -1.6131  3.4208  1.0064
12147SOL     OW37410   1.763   7.166   2.221 -0.3433 -0.2290 -0.0822
12147SOL    HW137411   1.778   7.099   2.155 -1.3017 -1.3947  0.8433
12147SOL    HW237412   1.847   7.175   2.266 -0.0156 -0.2716 -0.6709
12148SOL     OW37413   1.717   4.576   4.730 -0.3286  0.1810 -0.0339
12148SOL    HW137414   1.736   4.557   4.638  1.1499 -0.6290  0.3972
12148SOL    HW237415   1.688   4.667   4.730  1.8189  0.9356 -1.0790
12149SOL     OW37416   3.021   6.479   4.798 -0.1896  0.3634 -0.2043
12149SOL    HW137417   2.941   6.457   4.751 -0.5820  0.9862  0.1440
12149SOL    HW237418   3.087   6.491   4.730 -0.4364  0.0053 -0.5068
12150SOL     OW37419   0.167   4.590   5.970 -0.3707 -0.0545 -0.2033
12150SOL    HW137420   0.115   4.586   6.050  1.5983  2.4950  1.3621
12150SOL    HW237421   0.129   4.662   5.920 -1.9829 -2.0228 -2.0017
12151SOL     OW37422   0.090   0.742   6.239  0.0279 -0.2279  0.1010
12151SOL    HW137423   0.130   0.682   6.176 -0.2398 -0.4092  0.1033
12151SOL    HW237424   0.163   0.799   6.268  0.2131 -0.3417 -0.1396
12152SOL     OW37425   6.692   5.113   2.020 -0.5248  0.3866  0.3375
12152SOL    HW137426   6.657   5.119   1.932  0.2005  1.5749  0.1095
12152SOL    HW237427   6.620   5.078   2.073 -0.6604 -1.2734 -0.8720
12153SOL     OW37428   6.793   5.219   5.909 -0.5532  0.1949  0.4000
12153SOL    HW137429   6.855   5.169   5.962 -1.5624 -1.2275  0.3044
12153SOL    HW237430   6.843   5.245   5.832  0.4548  0.8120  1.2404
12154SOL     OW37431   4.143   6.152   6.535 -0.2803  0.0862  0.9762
12154SOL    HW137432   4.229   6.174   6.499  0.3664 -2.4487  0.7924
12154SOL    HW237433   4.158   6.139   6.628 -0.6498  0.3531  1.0788
12155SOL     OW37434   1.097   0.849   6.241 -0.2936 -0.6309  0.2004
12155SOL    HW137435   1.046   0.927   6.221 -0.2060 -0.1489  1.7568
12155SOL    HW237436   1.085   0.836   6.335  0.9057 -1.6242  0.2348
12156SOL     OW37437   4.810   0.175   1.264  0.0922 -0.3159 -0.0257
12156SOL    HW137438   4.822   0.233   1.189  0.3774 -1.9402 -1.3004
12156SOL    HW237439   4.739   0.116   1.237 -0.6641 -0.1442  1.5025
12157SOL     OW37440   0.059   3.692   3.475 -0.2207  0.7017 -0.1862
12157SOL    HW137441   0.118   3.713   3.547 -2.0361  2.1082  0.9780
12157SOL    HW237442  -0.022   3.664   3.517 -0.3849 -1.4214 -1.7374
12158SOL     OW37443   7.367   3.603   0.127 -0.1110  0.2605 -0.1285
12158SOL    HW137444   7.318   3.532   0.170  0.9894 -1.2346 -1.2081
12158SOL    HW237445   7.324   3.615   0.043  0.3127  0.1293 -0.3715
12159SOL     OW37446   5.861   6.659   2.861  0.2514 -0.4474  0.0146
12159SOL    HW137447   5.868   6.632   2.769 -1.3226 -0.4942 -0.1176
12159SOL    HW237448   5.777   6.704   2.866  0.7811  0.4495  1.2299
12160SOL     OW37449   4.204   5.689   0.952  0.2082  0.0447 -0.3050
12160SOL    HW137450   4.232   5.605   0.916 -0.8763  0.0406 -1.1989
12160SOL    HW237451   4.156   5.730   0.881  0.1726  1.1503  0.3404
12161SOL     OW37452   3.043   1.982   0.664 -0.5275  0.0020 -0.1761
12161SOL    HW137453   3.105   1.942   0.725 -2.2571 -2.0308  0.4072
12161SOL    HW237454   3.033   2.072   0.695  3.0498  0.8956 -1.1355
12162SOL     OW37455   0.814   4.218   3.880  0.1458  0.4325  0.1415
12162SOL    HW137456   0.722   4.211   3.904  0.1035  1.2854  0.2803
12162SOL    HW237457   0.825   4.160   3.805 -1.1116  2.2207 -1.5298
12163SOL     OW37458   2.579   6.919   5.668  0.1276  0.0958 -0.2196
12163SOL    HW137459   2.603   6.971   5.591 -0.9931 -0.5125 -1.0077
12163SOL    HW237460   2.632   6.840   5.662  1.4080  0.8339  0.6713
12164SOL     OW37461   0.409   6.414   4.749  0.1531 -0.2862  0.1339
12164SOL    HW137462   0.425   6.354   4.821  1.2119 -0.2964 -0.0987
12164SOL    HW237463   0.430   6.500   4.784  0.6914 -0.2941 -0.1696
12165SOL     OW37464   1.031   0.646   5.770 -0.7911 -0.5120  0.0615
12165SOL    HW137465   1.106   0.656   5.711 -0.2783  0.6656  0.8717
12165SOL    HW237466   0.954   0.648   5.712 -0.2011 -2.7856 -0.8851
12166SOL     OW37467   4.005   3.232   6.283 -0.1893  1.0771 -0.1043
12166SOL    HW137468   4.050   3.149   6.276  1.4864  2.0017 -0.9184
12166SOL    HW237469   3.962   3.230   6.369  3.3480  1.0209  1.8365
12167SOL     OW37470   6.095   0.864   1.508  0.3747 -0.5949 -0.5837
12167SOL    HW137471   6.072   0.864   1.601  2.4315  1.7582  0.0441
12167SOL    HW237472   6.032   0.803   1.467 -1.8778 -0.1937  1.9956
12168SOL     OW37473   0.104   0.808   2.195 -0.2326  0.1102 -0.3745
12168SOL    HW137474   0.016   0.835   2.168  0.0151  0.5263 -0.7870
12168SOL    HW237475   0.152   0.800   2.112  0.3709  0.7771 -0.0926
12169SOL     OW37476   6.466   6.640   3.420 -0.2607 -0.4938  0.0464
12169SOL    HW137477   6.401   6.656   3.488 -0.2344 -1.9954  0.4721
12169SOL    HW237478   6.537   6.593   3.465  3.7168  5.3155  0.8958
12170SOL     OW37479   1.338   1.113   6.563  0.1378  0.0296 -0.1278
12170SOL    HW137480   1.367   1.039   6.510  3.5041  1.1373 -0.1136
12170SOL    HW237481   1.327   1.184   6.500 -1.4165 -0.0181  0.0595
12171SOL     OW37482   3.098   5.532   6.339 -0.4118 -0.4632  0.4084
12171SOL    HW137483   3.164   5.462   6.342  2.4913  2.0126 -0.3706
12171SOL    HW237484   3.095   5.566   6.429  0.1102 -0.0201  0.2696
12172SOL     OW37485   5.030   7.053   4.670 -0.1176  0.4949 -0.0197
12172SOL    HW137486   5.096   7.110   4.633  0.2867  1.2024  1.7146
12172SOL    HW237487   4.948   7.083   4.631  0.1144  2.1342  0.6827
12173SOL     OW37488   1.779   6.865   5.464 -0.0411  0.0959 -0.5721
12173SOL    HW137489   1.855   6.901   5.509  0.8526 -2.7258  0.3752
12173SOL    HW237490   1.768   6.777   5.501 -2.4377 -0.4181 -2.2427
12174SOL     OW37491   6.259   0.660   1.168  0.0730  0.0272 -0.5102
12174SOL    HW137492   6.271   0.568   1.191  0.7053 -0.4079 -2.4239
12174SOL    HW237493   6.320   0.707   1.226  0.1684 -0.7944  0.0747
12175SOL     OW37494   2.182   1.408   0.299 -0.0341 -0.1207 -0.0220
12175SOL    HW137495   2.272   1.390   0.272  0.2479  1.6165 -0.3485
12175SOL    HW237496   2.167   1.349   0.373  0.8803 -1.4201 -0.8273
12176SOL     OW37497   0.599   3.029   4.446 -0.4041 -0.2900 -0.3345
12176SOL    HW137498   0.589   3.031   4.541  3.1579  0.4249  0.1567
12176SOL    HW237499   0.590   2.937   4.422 -1.4839 -0.4558  0.6563
12177SOL     OW37500   3.098   7.010   3.874  0.1261 -0.0953 -0.1585
12177SOL    HW137501   3.062   7.094   3.844 -1.9130 -1.3639 -1.5295
12177SOL    HW237502   3.021   6.959   3.900  1.0771 -2.2956 -1.3811
12178SOL     OW37503   6.985   3.478   2.855  0.4200  0.0228  0.1642
12178SOL    HW137504   6.967   3.545   2.790  0.1583  0.7110  0.9276
12178SOL    HW237505   7.031   3.524   2.925 -2.3672  0.1120  2.0946
12179SOL     OW37506   2.832   2.402   7.360 -0.5185 -0.0211  0.0713
12179SOL    HW137507   2.783   2.465   7.308  0.6621 -0.5285 -1.7414
12179SOL    HW237508   2.850   2.447   7.443 -3.3262  0.4384  0.5277
12180SOL     OW37509   4.380   6.035   2.896 -0.4458 -0.0818  0.2062
12180SOL    HW137510   4.386   6.087   2.976  0.3219 -0.3857  0.3588
12180SOL    HW237511   4.362   5.946   2.926  0.0183 -0.2315  0.0623
12181SOL     OW37512   2.489   7.208   0.346  0.1216 -0.2764 -0.2668
12181SOL    HW137513   2.409   7.176   0.387  0.7358 -1.8092 -0.2191
12181SOL    HW237514   2.551   7.215   0.418 -0.0522  1.2731 -0.2398
12182SOL     OW37515   0.337   0.959   4.006  0.3186 -0.2269 -0.4273
12182SOL    HW137516   0.245   0.970   4.029 -0.0393  0.0209 -1.8830
12182SOL    HW237517   0.371   1.048   3.996  0.7889 -0.3105  0.2904
12183SOL     OW37518   6.781   0.611   4.935  0.0973 -0.2462 -0.1932
12183SOL    HW137519   6.694   0.616   4.976  0.6482  2.8848  0.9167
12183SOL    HW237520   6.770   0.655   4.851  0.6018  0.2773  0.0074
12184SOL     OW37521   5.570   7.369   1.167  1.3647  0.0378  0.6462
12184SOL    HW137522   5.664   7.384   1.159  1.4916 -1.6828 -2.5258
12184SOL    HW237523   5.533   7.413   1.090  0.1320 -2.7981 -0.4898
12185SOL     OW37524   4.604   2.170   2.351 -0.4653  0.4180 -0.2785
12185SOL    HW137525   4.658   2.099   2.385  0.2187  1.4278  0.8311
12185SOL    HW237526   4.594   2.151   2.258 -0.2320 -1.0690 -0.0240
12186SOL     OW37527   4.428   2.329   6.182 -0.0713 -0.3455  0.1432
12186SOL    HW137528   4.379   2.246   6.180 -1.4457  0.4353  0.3288
12186SOL    HW237529   4.396   2.374   6.260  0.1979  0.6280 -0.2932
12187SOL     OW37530   3.125   3.784   2.480 -0.3274 -0.3785 -0.0470
12187SOL    HW137531   3.035   3.785   2.448 -1.2676  2.2662  2.2637
12187SOL    HW237532   3.135   3.697   2.520 -1.2700 -1.2565 -1.6137
12188SOL     OW37533   3.944   2.008   6.841 -0.5679 -0.4782 -0.4130
12188SOL    HW137534   4.034   2.040   6.853 -0.6853 -0.2407 -0.1300
12188SOL    HW237535   3.925   1.959   6.921 -0.9967  0.2227 -0.0717
12189SOL     OW37536   4.477   6.389   0.510 -0.0748 -0.2081 -0.0427
12189SOL    HW137537   4.391   6.353   0.534 -1.2668  0.8168 -2.4832
12189SOL    HW237538   4.504   6.337   0.434  0.8084  0.3958 -0.1539
12190SOL     OW37539   4.910   3.427   2.608 -0.1863  0.1951  0.4462
12190SOL    HW137540   4.994   3.464   2.636  0.7872 -2.2210  0.9780
12190SOL    HW237541   4.844   3.490   2.639  1.3640  1.7985  0.6385
12191SOL     OW37542   3.489   0.655   6.858 -0.1089  0.3327  0.4016
12191SOL    HW137543   3.431   0.612   6.795  1.0288  0.1893 -0.5807
12191SOL    HW237544   3.464   0.748   6.853 -0.0251  0.3254 -0.2732
12192SOL     OW37545   2.612   4.144   4.243  0.0562 -0.1153  0.5418
12192SOL    HW137546   2.665   4.209   4.289 -0.0981  0.0915  0.4267
12192SOL    HW237547   2.659   4.127   4.162  0.2726 -0.4002  0.7262
12193SOL     OW37548   4.316   2.268   0.705  0.3522  0.0377 -0.1380
12193SOL    HW137549   4.307   2.173   0.713 -0.3324  0.1312  0.3037
12193SOL    HW237550   4.338   2.282   0.613  0.5924 -0.5576 -0.1768
12194SOL     OW37551   4.835   5.737   2.320 -0.3057 -0.3278 -0.0352
12194SOL    HW137552   4.744   5.724   2.294 -0.5427 -1.4165  1.2280
12194SOL    HW237553   4.843   5.691   2.404  1.5119 -0.5753 -0.3066
12195SOL     OW37554   3.798   7.151   6.907 -0.4793 -0.3270  0.5307
12195SOL    HW137555   3.855   7.216   6.867  1.4954 -2.0540  0.3495
12195SOL    HW237556   3.773   7.093   6.835 -3.0433  0.6982  0.4833
12196SOL     OW37557   5.638   4.397   6.350 -0.2765 -0.0898  0.3419
12196SOL    HW137558   5.571   4.461   6.324 -1.1162 -0.8262  0.6317
12196SOL    HW237559   5.589   4.330   6.398  0.4281 -1.4505 -0.7761
12197SOL     OW37560   7.177   4.262   3.584 -0.1507 -0.2392 -0.2545
12197SOL    HW137561   7.229   4.182   3.591 -0.0724 -0.0895  1.3655
12197SOL    HW237562   7.134   4.256   3.499  0.8195 -1.4073 -0.6826
12198SOL     OW37563   2.034   1.424   6.913  0.5061 -0.2831  0.2331
12198SOL    HW137564   2.036   1.515   6.943  1.3302  0.1170 -0.9219
12198SOL    HW237565   1.942   1.399   6.917  0.2169  0.7347  0.2199
12199SOL     OW37566   5.300   3.900   6.796 -0.1633 -0.4567 -0.2835
12199SOL    HW137567   5.209   3.882   6.772  0.2500 -2.1441 -0.7098
12199SOL    HW237568   5.300   3.901   6.892 -0.5985 -0.5357 -0.2817
12200SOL     OW37569   4.558   5.098   3.362 -0.1147 -0.0549 -0.1130
12200SOL    HW137570   4.644   5.069   3.393 -0.2847  1.2916  1.7674
12200SOL    HW237571   4.578   5.145   3.281  1.2574  1.9413  1.2732
12201SOL     OW37572   0.919   0.438   5.543 -0.0918  0.0554 -0.2652
12201SOL    HW137573   0.985   0.453   5.475  1.7440  0.1569  1.4273
12201SOL    HW237574   0.871   0.520   5.549 -0.9138 -0.2645 -2.0329
12202SOL     OW37575   3.332   0.766   5.248 -0.2158  0.1466 -0.0446
12202SOL    HW137576   3.256   0.810   5.287 -1.0730 -2.0029  0.8505
12202SOL    HW237577   3.308   0.755   5.156  0.7251  2.9359 -0.7102
12203SOL     OW37578   0.888   1.125   4.234  0.5356 -0.2953  0.3744
12203SOL    HW137579   0.880   1.138   4.140 -1.4337 -1.8213  0.2425
12203SOL    HW237580   0.798   1.106   4.263  0.9924  0.6435  2.6532
12204SOL     OW37581   2.567   3.302   0.416  0.5656 -0.2664  0.7071
12204SOL    HW137582   2.543   3.390   0.387 -0.1604 -0.1090  1.7331
12204SOL    HW237583   2.485   3.253   0.415  1.2312 -1.4970 -1.6257
12205SOL     OW37584   6.827   0.342   0.569  0.4868  0.3642  0.4441
12205SOL    HW137585   6.780   0.297   0.639 -0.6593 -0.1258 -0.5893
12205SOL    HW237586   6.902   0.286   0.551 -0.5962 -0.8919 -0.4184
12206SOL     OW37587   5.471   5.444   6.630  0.1847  0.0204  0.0256
12206SOL    HW137588   5.516   5.361   6.648  0.5448 -0.0618 -1.1591
12206SOL    HW237589   5.417   5.459   6.707  0.7621 -0.8845  0.6310
12207SOL     OW37590   7.226   3.985   5.027 -0.3095 -0.2217  0.0365
12207SOL    HW137591   7.186   4.071   5.027  0.7187  0.3187 -2.2621
12207SOL    HW237592   7.314   3.999   5.061 -0.8197 -0.7973  1.7139
12208SOL     OW37593   0.305   5.415   2.168 -0.1960  0.0951 -0.0743
12208SOL    HW137594   0.293   5.392   2.260 -0.5045 -1.1571 -0.4069
12208SOL    HW237595   0.216   5.415   2.132 -0.0351  0.0905 -0.4761
12209SOL     OW37596   3.446   4.871   0.476  0.6596  0.3251  0.0475
12209SOL    HW137597   3.526   4.890   0.525  0.7600  1.0890 -0.3938
12209SOL    HW237598   3.440   4.942   0.412 -0.7292  0.6768  0.5352
12210SOL     OW37599   5.147   5.344   5.917 -0.3174  0.2417 -0.2345
12210SOL    HW137600   5.106   5.263   5.949  0.9155  0.5372  2.3228
12210SOL    HW237601   5.076   5.391   5.874 -1.5017 -1.3713 -0.1525
12211SOL     OW37602   6.511   4.322   5.341  0.1739  0.4097 -0.2150
12211SOL    HW137603   6.486   4.371   5.262 -2.1178  1.3533  0.9776
12211SOL    HW237604   6.431   4.275   5.366  1.0117 -0.3141  1.2248
12212SOL     OW37605   5.202   4.627   0.319 -0.1253 -0.2055 -0.1691
12212SOL    HW137606   5.161   4.542   0.333 -0.2664 -0.2165 -0.6521
12212SOL    HW237607   5.223   4.658   0.407 -0.5284 -0.5166  0.0392
12213SOL     OW37608   4.553   1.820   2.066 -0.0892 -0.1901  0.4984
12213SOL    HW137609   4.473   1.770   2.048 -1.8546  1.8871  2.0157
12213SOL    HW237610   4.574   1.861   1.982 -1.8409  0.8090  0.4986
12214SOL     OW37611   2.287   4.520   1.064  0.0649  0.8224 -0.1845
12214SOL    HW137612   2.343   4.521   0.986  0.8218 -0.3028  0.3056
12214SOL    HW237613   2.332   4.576   1.126 -0.3165  1.3817 -0.4130
12215SOL     OW37614   4.553   4.380   2.371 -0.4764 -0.1133 -0.8830
12215SOL    HW137615   4.522   4.443   2.305 -0.1176 -0.4221 -1.3517
12215SOL    HW237616   4.595   4.311   2.320 -0.8397 -0.7220 -0.3650
12216SOL     OW37617   2.356   5.342   1.910  0.4556 -0.0623 -0.0073
12216SOL    HW137618   2.312   5.425   1.924  1.1179  0.1313  1.0290
12216SOL    HW237619   2.390   5.347   1.821 -0.9082  0.0978 -0.5465
12217SOL     OW37620   0.024   7.261   4.651  0.0748  0.2745 -0.6783
12217SOL    HW137621   0.095   7.264   4.588  0.6597 -1.6700 -0.1909
12217SOL    HW237622   0.030   7.173   4.690 -0.7684  1.1032  1.4879
12218SOL     OW37623   2.978   1.831   6.913  0.2481  0.0326  0.3769
12218SOL    HW137624   3.067   1.812   6.883  1.2847  2.8340  1.3718
12218SOL    HW237625   2.922   1.807   6.838  2.1377  1.1929 -1.5187
12219SOL     OW37626   3.870   4.162   4.965 -1.0338  0.2447  0.3514
12219SOL    HW137627   3.886   4.165   4.870 -3.1120  1.8264 -0.0172
12219SOL    HW237628   3.935   4.222   5.001 -1.5064  1.1784 -0.3088
12220SOL     OW37629   6.940   6.373   0.176  0.3431 -0.7022  0.6453
12220SOL    HW137630   6.998   6.408   0.244  0.7164 -0.4037  0.1863
12220SOL    HW237631   6.983   6.397   0.094 -0.1968 -0.8924  0.3006
12221SOL     OW37632   2.298   5.019   0.352 -0.8125 -0.1876  0.0439
12221SOL    HW137633   2.315   4.943   0.408  0.2634  1.6708  2.4293
12221SOL    HW237634   2.384   5.044   0.319 -1.2698 -0.4736 -1.4208
12222SOL     OW37635   3.307   4.581   4.030 -0.6830 -0.5443 -0.0238
12222SOL    HW137636   3.304   4.503   4.086 -1.4951  0.0152  0.7501
12222SOL    HW237637   3.347   4.648   4.086 -0.2281 -0.3321 -0.5965
12223SOL     OW37638   3.672   6.339   5.114  0.2655 -0.2283 -0.3828
12223SOL    HW137639   3.676   6.377   5.202  1.1841 -0.8577 -0.1452
12223SOL    HW237640   3.632   6.253   5.127 -1.2235  0.3487 -0.8370
12224SOL     OW37641   0.951   1.381   3.539 -0.5187 -0.6764 -0.3171
12224SOL    HW137642   0.960   1.435   3.461  1.4439  0.5368  0.6776
12224SOL    HW237643   0.971   1.292   3.509  0.6780 -0.1541 -1.1201
12225SOL     OW37644   6.867   6.038   2.037  0.1715  0.1934 -0.4448
12225SOL    HW137645   6.831   5.971   2.096  1.5797  0.7402  1.1329
12225SOL    HW237646   6.822   6.118   2.063 -1.7485 -0.1099 -2.5491
12226SOL     OW37647   0.251   1.495   5.886 -0.0945 -0.0641 -0.6736
12226SOL    HW137648   0.339   1.531   5.874  0.5062 -0.9299  0.8175
12226SOL    HW237649   0.215   1.490   5.798  1.8846 -0.9641 -1.4960
12227SOL     OW37650   6.488   2.850   1.187  0.2362 -0.3297  0.0301
12227SOL    HW137651   6.495   2.762   1.224 -0.5607 -0.6078 -0.4638
12227SOL    HW237652   6.426   2.842   1.115 -1.4148  1.0213  1.1987
12228SOL     OW37653   0.571   2.404   0.191 -0.3561 -0.0263  0.4042
12228SOL    HW137654   0.570   2.418   0.286 -1.9435  0.0694  0.3845
12228SOL    HW237655   0.491   2.444   0.159  0.1892 -0.0075 -1.0035
12229SOL     OW37656   5.513   0.382   5.077 -0.0006  0.0740  0.1906
12229SOL    HW137657   5.457   0.443   5.030  0.2337 -0.2097 -0.4744
12229SOL    HW237658   5.483   0.296   5.049 -0.2656 -0.1193  1.0506
12230SOL     OW37659   6.903   7.251   4.272  0.3794 -0.5983 -0.2259
12230SOL    HW137660   6.887   7.254   4.177 -0.9044 -2.7190 -0.1413
12230SOL    HW237661   6.890   7.160   4.295  1.2168 -0.2142  1.9439
12231SOL     OW37662   0.812   1.369   0.889 -0.2347  0.0498  0.1109
12231SOL    HW137663   0.904   1.382   0.911  0.2511  0.0546 -1.7268
12231SOL    HW237664   0.770   1.451   0.916  0.8265  1.1954 -1.4615
12232SOL     OW37665   0.503   4.619   2.170 -0.6346 -0.2920 -0.2657
12232SOL    HW137666   0.528   4.709   2.151 -1.5697 -0.3333 -1.8971
12232SOL    HW237667   0.533   4.569   2.094  2.5839 -1.9598  1.9072
12233SOL     OW37668   6.459   2.450   4.876 -0.4777 -0.3653  0.2882
12233SOL    HW137669   6.554   2.436   4.870 -0.5823 -1.5357  0.9696
12233SOL    HW237670   6.425   2.414   4.794 -0.1761  2.1643 -1.0492
12234SOL     OW37671   3.401   6.396   2.448  0.1607  0.1084 -0.4576
12234SOL    HW137672   3.441   6.319   2.407  0.2433 -0.1777  0.1440
12234SOL    HW237673   3.410   6.380   2.542 -0.7759  0.3561 -0.3188
12235SOL     OW37674   4.041   3.677   4.805  0.2597 -0.1507  0.4703
12235SOL    HW137675   4.024   3.583   4.798  1.9699 -0.3835 -1.3777
12235SOL    HW237676   3.975   3.709   4.867 -1.1561 -2.3437  0.1942
12236SOL     OW37677   2.716   7.145   3.690  0.2773  0.0921 -0.0517
12236SOL    HW137678   2.676   7.231   3.683  2.2943  1.1171  0.2289
12236SOL    HW237679   2.714   7.124   3.783  0.5001  0.1977 -0.0233
12237SOL     OW37680   3.104   1.711   4.099 -0.2476 -0.3256 -0.4096
12237SOL    HW137681   3.027   1.751   4.138  0.6397  0.9400  0.0934
12237SOL    HW237682   3.174   1.725   4.163  0.9597  0.7349 -1.8701
12238SOL     OW37683   6.957   6.998   5.120 -0.1696 -0.2845  0.5020
12238SOL    HW137684   7.025   6.998   5.187  0.7438  0.1234 -0.3962
12238SOL    HW237685   6.985   6.933   5.057 -0.2935  0.3056 -0.1796
12239SOL     OW37686   2.586   5.855   6.023 -0.2963 -0.5464  0.6717
12239SOL    HW137687   2.674   5.856   5.984 -0.4587 -2.6075  0.1177
12239SOL    HW237688   2.599   5.889   6.112  1.1784 -1.2366  0.7638
12240SOL     OW37689   5.405   1.682   0.209 -0.6928  0.1750 -0.2354
12240SOL    HW137690   5.321   1.718   0.237 -1.2646 -1.2371 -0.0300
12240SOL    HW237691   5.403   1.592   0.240  0.6893 -0.0264 -0.6856
12241SOL     OW37692   0.284   1.736   2.559  0.2624  0.2873  0.0469
12241SOL    HW137693   0.368   1.729   2.603 -0.4122  0.9256  1.5141
12241SOL    HW237694   0.258   1.828   2.571 -0.5098  0.1691 -0.6237
12242SOL     OW37695   0.400   2.684   3.157  0.1539  0.4791  0.1441
12242SOL    HW137696   0.468   2.748   3.135  0.0147  0.1975 -1.2194
12242SOL    HW237697   0.434   2.637   3.234  1.0105  1.0609  0.1286
12243SOL     OW37698   5.970   0.109   2.138  0.2087  0.1670 -0.3104
12243SOL    HW137699   6.064   0.105   2.119  0.1243 -0.8687 -0.5955
12243SOL    HW237700   5.949   0.021   2.171 -0.6328  0.4352 -0.1139
12244SOL     OW37701   6.111   3.084   2.398  0.5661  0.0023 -0.3659
12244SOL    HW137702   6.141   3.044   2.480 -1.3858  0.3442  0.5844
12244SOL    HW237703   6.161   3.165   2.390  0.6033  0.0859  0.6364
12245SOL     OW37704   2.978   0.748   2.815 -0.5047 -0.2695 -0.1328
12245SOL    HW137705   2.925   0.723   2.739  1.4551  1.1863 -2.1025
12245SOL    HW237706   3.024   0.667   2.840 -0.9545 -0.7010 -0.6691
12246SOL     OW37707   6.926   3.554   4.471  0.4109  0.1308  0.4145
12246SOL    HW137708   6.876   3.510   4.540  1.7567  1.3152  2.2300
12246SOL    HW237709   6.970   3.626   4.515  0.9387  1.2605 -1.8154
12247SOL     OW37710   1.135   4.607   0.450  0.5829 -0.0801  0.0151
12247SOL    HW137711   1.049   4.612   0.493  0.1300  0.9028 -0.9577
12247SOL    HW237712   1.170   4.522   0.477 -0.1842 -0.0025  1.3630
12248SOL     OW37713   0.382   0.658   3.385 -0.0380 -0.3292 -0.1234
12248SOL    HW137714   0.317   0.679   3.452 -1.3205 -1.2534 -1.0347
12248SOL    HW237715   0.444   0.731   3.388 -0.3819 -0.0797  1.6638
12249SOL     OW37716   2.331   5.211   6.716 -0.8545  0.1244  0.0120
12249SOL    HW137717   2.342   5.147   6.787 -1.6704  1.1496  1.1093
12249SOL    HW237718   2.236   5.222   6.709 -0.7557  0.4692 -0.8434
12250SOL     OW37719   4.699   7.239   3.306 -0.0196  0.3896 -0.1341
12250SOL    HW137720   4.715   7.226   3.213  0.6138 -0.6217  0.0955
12250SOL    HW237721   4.645   7.164   3.332  1.9798 -0.8097  0.8108
12251SOL     OW37722   0.854   3.121   7.010 -0.0026  0.0981  0.1042
12251SOL    HW137723   0.900   3.105   7.093 -0.8844 -1.9459  0.2474
12251SOL    HW237724   0.819   3.210   7.020  2.4235  1.0832  0.6543
12252SOL     OW37725   1.275   3.313   1.585 -0.2172  0.1661 -0.4675
12252SOL    HW137726   1.229   3.377   1.530 -1.5587 -1.1447 -0.9161
12252SOL    HW237727   1.220   3.235   1.583  1.7841 -1.3166 -0.6214
12253SOL     OW37728   7.122   3.793   2.127 -0.0204 -0.3825 -0.2315
12253SOL    HW137729   7.117   3.873   2.075  0.4985  0.1161  0.4687
12253SOL    HW237730   7.047   3.741   2.099 -0.5880  0.5184 -0.4047
12254SOL     OW37731   5.381   0.536   3.270  0.6426 -0.5355 -0.3218
12254SOL    HW137732   5.466   0.556   3.309 -0.0219 -0.1718  1.0163
12254SOL    HW237733   5.379   0.440   3.263  0.3455 -0.7303  1.7039
12255SOL     OW37734   6.167   1.795   6.450 -0.2149 -0.4791 -0.5618
12255SOL    HW137735   6.219   1.846   6.512  0.9031 -0.8915 -1.1400
12255SOL    HW237736   6.140   1.857   6.383 -0.4440 -0.2747 -0.2843
12256SOL     OW37737   4.590   5.022   6.186 -0.0274  0.2193  0.4384
12256SOL    HW137738   4.589   5.046   6.094 -0.8393 -0.8181  0.1507
12256SOL    HW237739   4.649   5.085   6.227 -0.9359  1.7427 -0.5016
12257SOL     OW37740   0.243   4.205   6.075  0.1752 -0.1520  0.0446
12257SOL    HW137741   0.163   4.220   6.024  0.3809  2.4502  0.3196
12257SOL    HW237742   0.307   4.175   6.010  0.2493  2.4381 -1.2142
12258SOL     OW37743   0.281   0.724   0.665 -0.0567  0.1120  0.1256
12258SOL    HW137744   0.261   0.800   0.720  0.7113  0.1719  0.3395
12258SOL    HW237745   0.214   0.660   0.688  0.7255 -0.1803  1.7874
12259SOL     OW37746   2.819   0.462   4.950 -0.2528  0.2823 -0.4124
12259SOL    HW137747   2.822   0.403   5.025 -1.0533  1.7460  0.8244
12259SOL    HW237748   2.726   0.470   4.928 -0.2466  1.6865 -0.0265
12260SOL     OW37749   1.781   1.027   6.663  0.1660  0.5218  0.0643
12260SOL    HW137750   1.807   1.047   6.573  0.7474  1.6390  0.4670
12260SOL    HW237751   1.698   1.074   6.675 -0.1566 -0.0138 -0.0307
12261SOL     OW37752   2.599   3.591   3.956 -0.5839  1.1628  0.0039
12261SOL    HW137753   2.620   3.581   3.863 -0.0553 -0.9258  0.3043
12261SOL    HW237754   2.517   3.544   3.968 -0.7635  1.6097  0.5556
12262SOL     OW37755   4.160   6.999   5.695  0.6983 -0.1609 -0.3726
12262SOL    HW137756   4.069   7.008   5.669  0.5124 -2.5773 -0.8161
12262SOL    HW237757   4.172   7.064   5.764 -1.5918 -0.2967  0.2330
12263SOL     OW37758   1.421   0.575   3.042 -0.5159 -0.1995 -0.3061
12263SOL    HW137759   1.460   0.528   2.968 -1.8525 -1.1236 -0.4634
12263SOL    HW237760   1.400   0.662   3.007 -3.5406 -1.4128 -1.9205
12264SOL     OW37761   2.720   7.356   2.936  0.3329 -0.0602 -0.4493
12264SOL    HW137762   2.626   7.352   2.953  0.4664 -1.2260  0.1001
12264SOL    HW237763   2.733   7.298   2.860  0.5543  0.4407 -0.7993
12265SOL     OW37764   3.492   5.720   5.927  0.1016  0.0551  0.0914
12265SOL    HW137765   3.490   5.744   5.834  0.7765  0.0711  0.0746
12265SOL    HW237766   3.421   5.657   5.937  0.2963 -0.2807 -0.5338
12266SOL     OW37767   4.515   0.048   1.698 -0.3420 -0.0884 -0.2343
12266SOL    HW137768   4.474   0.109   1.760 -0.7599 -0.8426  0.2398
12266SOL    HW237769   4.449  -0.020   1.684  0.5385 -1.0392  0.1190
12267SOL     OW37770   4.930   5.086   6.562  0.2793 -0.3843 -0.4656
12267SOL    HW137771   4.955   5.049   6.477  1.6888 -1.4633  0.3609
12267SOL    HW237772   4.853   5.036   6.588  0.6187 -0.9581 -0.5385
12268SOL     OW37773   4.885   2.722   2.293 -0.3294  0.4173 -0.1900
12268SOL    HW137774   4.880   2.652   2.359 -2.4549 -1.9051 -2.5610
12268SOL    HW237775   4.970   2.710   2.251 -0.9816 -1.3848 -1.0988
12269SOL     OW37776   5.532   1.873   5.066 -0.2405 -0.4331 -0.1026
12269SOL    HW137777   5.596   1.901   5.001 -0.5737 -0.8347 -0.6130
12269SOL    HW237778   5.469   1.945   5.070  0.2375 -0.0334  0.4075
12270SOL     OW37779   0.436   0.776   4.184 -0.6410  0.4230 -0.2992
12270SOL    HW137780   0.381   0.815   4.117  0.2326  1.2995 -0.5230
12270SOL    HW237781   0.520   0.761   4.141 -0.4342 -0.1150  0.2713
12271SOL     OW37782   1.089   6.411   5.556  0.2349 -0.2528  0.3016
12271SOL    HW137783   1.042   6.336   5.594  0.2956 -0.1062  0.6728
12271SOL    HW237784   1.166   6.421   5.612  0.1943  0.1282  0.2887
12272SOL     OW37785   3.682   1.964   5.793  0.4503 -0.0891  0.3417
12272SOL    HW137786   3.693   2.040   5.852 -0.1211 -0.5682  1.0947
12272SOL    HW237787   3.671   2.003   5.706 -0.9155  0.7783  0.8555
12273SOL     OW37788   0.531   3.714   4.416 -0.1346 -0.0822  0.2496
12273SOL    HW137789   0.522   3.704   4.321  0.5111  1.4489 -0.0035
12273SOL    HW237790   0.574   3.799   4.427  0.6109 -0.6337  1.8841
12274SOL     OW37791   3.632   1.736   3.665  0.5200  0.2217  0.1168
12274SOL    HW137792   3.578   1.814   3.654 -1.4367 -0.9327  1.0105
12274SOL    HW237793   3.630   1.719   3.759  1.0517 -0.8022 -0.0494
12275SOL     OW37794   2.244   3.427   3.183  0.0136  0.6975 -0.0303
12275SOL    HW137795   2.175   3.490   3.203  1.2935  1.7000  1.3444
12275SOL    HW237796   2.256   3.435   3.088 -0.8299  1.4635 -0.0864
12276SOL     OW37797   4.918   2.950   1.278  0.2995 -0.5683 -0.2590
12276SOL    HW137798   4.988   2.937   1.214  0.2031  0.0613 -0.5026
12276SOL    HW237799   4.839   2.961   1.226 -0.1357 -2.0867  0.0407
12277SOL     OW37800   3.210   3.767   0.975  0.7143  0.6386  0.2338
12277SOL    HW137801   3.278   3.781   1.041  0.4556  0.7895  0.4667
12277SOL    HW237802   3.132   3.743   1.025  0.4813  0.8830 -0.0099
12278SOL     OW37803   5.072   0.722   4.557 -0.2105 -0.6931  0.1868
12278SOL    HW137804   5.063   0.810   4.521 -0.4718 -0.9174 -0.2990
12278SOL    HW237805   5.117   0.673   4.488 -1.6170 -1.3841 -0.2544
12279SOL     OW37806   0.594   6.116   4.528  0.5527  0.1951  0.3752
12279SOL    HW137807   0.648   6.182   4.483  1.2750 -0.8351 -0.3111
12279SOL    HW237808   0.633   6.108   4.615  0.3004  0.8447  0.5576
12280SOL     OW37809   1.146   0.802   1.152 -0.6970 -0.1137 -0.3921
12280SOL    HW137810   1.064   0.779   1.108 -1.9635  0.7738  1.3467
12280SOL    HW237811   1.210   0.810   1.082 -1.6436 -2.6203 -1.6361
12281SOL     OW37812   2.360   7.039   3.381  0.0143 -0.0284 -0.5871
12281SOL    HW137813   2.319   7.125   3.378  0.9617  0.4165 -1.8779
12281SOL    HW237814   2.446   7.055   3.421  1.2949  0.1800 -3.2127
12282SOL     OW37815   7.194   6.897   1.917  0.0988  0.2766 -0.3614
12282SOL    HW137816   7.114   6.915   1.868 -0.2737 -0.3362 -0.0001
12282SOL    HW237817   7.165   6.840   1.988  1.2440 -1.8682 -1.5510
12283SOL     OW37818   4.067   2.515   2.938  0.1061 -0.2294  0.1785
12283SOL    HW137819   3.998   2.465   2.894 -0.7004 -2.0977  3.2859
12283SOL    HW237820   4.023   2.594   2.970  0.3025  0.2965 -0.7919
12284SOL     OW37821   3.439   6.871   7.162 -0.5246  0.1052 -0.1065
12284SOL    HW137822   3.357   6.871   7.211  0.1400 -0.1859  1.0474
12284SOL    HW237823   3.504   6.907   7.223 -0.0548  1.7440 -1.4972
12285SOL     OW37824   5.899   4.213   0.696  0.1350 -0.2004  0.0248
12285SOL    HW137825   5.840   4.141   0.676  0.6676 -0.7273  0.2996
12285SOL    HW237826   5.940   4.235   0.612  1.4239 -1.5513  0.2555
12286SOL     OW37827   3.917   7.195   2.770 -0.4148 -0.3679  0.2544
12286SOL    HW137828   3.886   7.273   2.723 -0.6734  0.0933  1.1529
12286SOL    HW237829   4.013   7.203   2.769 -0.4448  0.8379  1.6794
12287SOL     OW37830   6.870   3.069   0.453  0.1685 -0.0644  0.6510
12287SOL    HW137831   6.801   3.001   0.455  0.0994 -0.1492 -1.8195
12287SOL    HW237832   6.952   3.020   0.453  0.1290 -0.1564 -0.3586
12288SOL     OW37833   3.119   1.061   0.049  0.2013 -0.1224  0.2679
12288SOL    HW137834   3.186   1.123   0.021 -0.1093 -0.1756 -0.6105
12288SOL    HW237835   3.131   1.055   0.144  1.2667  0.0574  0.1593
12289SOL     OW37836   3.007   5.288   5.684  0.0158 -0.1745 -0.3394
12289SOL    HW137837   3.045   5.294   5.597  0.9603  1.5059  0.1571
12289SOL    HW237838   3.039   5.204   5.718  2.0023  0.4407 -0.5600
12290SOL     OW37839   0.995   1.893   3.204 -0.1363 -0.6774  0.6792
12290SOL    HW137840   1.014   1.864   3.115  1.3099 -0.1172  0.7781
12290SOL    HW237841   0.951   1.977   3.194 -1.5440 -1.4242  0.4665
12291SOL     OW37842   3.964   3.169   1.582  0.3657 -0.0017 -0.0567
12291SOL    HW137843   3.892   3.115   1.550 -0.8297  2.0397 -1.0497
12291SOL    HW237844   3.970   3.149   1.675 -0.3969 -1.3809 -0.2836
12292SOL     OW37845   3.147   4.950   6.439  0.2089 -0.3465  0.1723
12292SOL    HW137846   3.239   4.939   6.463 -0.0325  0.3208  1.5074
12292SOL    HW237847   3.117   5.026   6.490 -1.3303 -1.1553  0.5590
12293SOL     OW37848   4.680   3.860   6.151  0.2267  0.6369 -1.4347
12293SOL    HW137849   4.589   3.843   6.174  0.6978 -1.2033 -0.7495
12293SOL    HW237850   4.699   3.797   6.082  1.3588  0.0569 -0.6160
12294SOL     OW37851   4.786   0.919   6.352  0.1551  0.8666  0.0928
12294SOL    HW137852   4.732   0.840   6.342  1.2539  0.1955 -0.6768
12294SOL    HW237853   4.777   0.941   6.445 -0.8568  0.3528  0.1403
12295SOL     OW37854   5.646   2.176   5.130  0.1650  0.2488  0.1484
12295SOL    HW137855   5.673   2.114   5.061 -1.4706 -1.0632  0.6274
12295SOL    HW237856   5.703   2.154   5.204 -1.2153 -1.6323  0.7353
12296SOL     OW37857   0.733   0.844   3.141 -0.2897  0.1991  0.9466
12296SOL    HW137858   0.725   0.939   3.133  0.3468  0.4897  3.2943
12296SOL    HW237859   0.821   0.825   3.109 -1.0709  0.0676 -1.3939
12297SOL     OW37860   6.868   5.514   5.791  0.2062 -0.1480  1.2131
12297SOL    HW137861   6.872   5.428   5.748 -1.1339 -0.2472  1.2627
12297SOL    HW237862   6.946   5.560   5.758  0.4548 -1.0441  0.4782
12298SOL     OW37863   2.452   5.929   0.446  0.3555  0.0022  0.0290
12298SOL    HW137864   2.374   5.985   0.453  0.5040  0.3327 -0.8741
12298SOL    HW237865   2.451   5.878   0.527  0.9032  2.1863  1.5316
12299SOL     OW37866   2.457   4.157   5.709 -0.0956  0.0188  0.3602
12299SOL    HW137867   2.378   4.155   5.655  0.0328 -0.7513  0.1889
12299SOL    HW237868   2.456   4.243   5.751  0.2048  0.9655 -1.4671
12300SOL     OW37869   6.221   6.681   3.605  0.1896 -0.1008 -0.0580
12300SOL    HW137870   6.199   6.766   3.567 -0.6923  0.2336  1.1377
12300SOL    HW237871   6.178   6.617   3.549 -1.3824  0.3996  0.5284
12301SOL     OW37872   1.140   4.608   0.174 -0.1798 -0.0239 -0.0717
12301SOL    HW137873   1.114   4.620   0.266 -1.7546 -0.9598 -0.3600
12301SOL    HW237874   1.152   4.697   0.141  1.5220  0.3215  1.3114
12302SOL     OW37875   0.655   3.096   1.155 -0.4581  0.3167  0.4821
12302SOL    HW137876   0.599   3.118   1.230  0.9891  1.4025  1.3061
12302SOL    HW237877   0.727   3.046   1.194 -0.7821 -1.0328 -0.5567
12303SOL     OW37878   5.958   3.982   0.963  0.4606 -0.8185  0.4560
12303SOL    HW137879   5.917   4.033   1.033  0.9310  0.1093  0.0800
12303SOL    HW237880   5.886   3.935   0.922 -0.0883 -0.0203  0.4705
12304SOL     OW37881   6.780   4.186   5.854 -0.1614 -0.4438  0.6543
12304SOL    HW137882   6.694   4.217   5.825 -0.5147 -2.6613 -0.9496
12304SOL    HW237883   6.837   4.198   5.778  0.5697 -0.4288  1.1913
12305SOL     OW37884   4.027   3.277   3.819  0.4305  0.0601  0.9603
12305SOL    HW137885   4.029   3.183   3.805 -0.0296  0.1726  0.0499
12305SOL    HW237886   4.114   3.298   3.852  0.4819 -0.7018  1.3360
12306SOL     OW37887   0.030   1.263   2.451  0.1919  0.2741 -0.1036
12306SOL    HW137888   0.114   1.235   2.416  0.1032  0.6414 -0.6317
12306SOL    HW237889  -0.023   1.282   2.373 -0.2694  0.3524  0.2251
12307SOL     OW37890   2.231   1.926   2.429 -0.1590  0.1274 -0.1642
12307SOL    HW137891   2.289   1.896   2.499 -2.1758 -0.8567  1.2044
12307SOL    HW237892   2.154   1.870   2.437 -2.0840  2.5305 -0.6599
12308SOL     OW37893   1.711   4.926   6.344  0.4173 -0.0066 -0.7152
12308SOL    HW137894   1.776   4.886   6.403 -0.2834  0.1979  0.2134
12308SOL    HW237895   1.627   4.891   6.374 -0.0707  1.0617 -0.8062
12309SOL     OW37896   6.389   6.694   2.115  0.0834  0.2006 -0.0887
12309SOL    HW137897   6.426   6.689   2.027 -1.6438  0.2689 -0.8488
12309SOL    HW237898   6.353   6.606   2.131 -0.4553  0.4639  0.1612
12310SOL     OW37899   5.178   4.994   5.652 -0.0931  0.0868  0.2726
12310SOL    HW137900   5.089   4.967   5.673 -0.6950  0.8849 -1.1798
12310SOL    HW237901   5.175   5.022   5.561  2.1973 -2.2562 -0.6686
12311SOL     OW37902   2.584   2.450   2.091  0.1113 -0.2496  0.6606
12311SOL    HW137903   2.525   2.496   2.031  0.9501 -0.5422 -0.4259
12311SOL    HW237904   2.601   2.513   2.161 -0.2855  0.3843  0.1975
12312SOL     OW37905   0.953   2.397   0.552 -0.2555  0.4947  0.2295
12312SOL    HW137906   0.894   2.458   0.597 -0.3022 -0.7323  1.9235
12312SOL    HW237907   1.026   2.385   0.613  0.3297 -0.2223 -0.6005
12313SOL     OW37908   5.899   4.494   5.446  0.0032 -0.2250 -0.5578
12313SOL    HW137909   5.955   4.557   5.491 -1.2929  0.0017  0.8080
12313SOL    HW237910   5.904   4.415   5.499 -0.1745 -0.5320 -0.9886
12314SOL     OW37911   7.239   3.189   7.296 -0.2451  0.1221 -0.9887
12314SOL    HW137912   7.207   3.105   7.261  1.5449 -1.2312  0.4035
12314SOL    HW237913   7.306   3.164   7.360  0.6757  2.6584 -0.8520
12315SOL     OW37914   5.994   3.372   5.213 -0.1598  0.0296 -0.6349
12315SOL    HW137915   5.969   3.329   5.131 -0.5642 -0.2114 -0.3896
12315SOL    HW237916   5.928   3.439   5.226 -0.0096  0.1691 -0.5802
12316SOL     OW37917   6.951   0.018   5.164  0.3227  0.0117 -0.2255
12316SOL    HW137918   6.904   0.033   5.246 -2.5936  0.1085 -1.7734
12316SOL    HW237919   6.959   0.105   5.124 -0.6895 -0.3161 -1.1993
12317SOL     OW37920   5.530   4.473   7.185  0.4585  0.6416  0.3318
12317SOL    HW137921   5.616   4.515   7.180  0.7622  0.0239  0.2258
12317SOL    HW237922   5.516   4.458   7.279 -0.0047  1.6805  0.4383
12318SOL     OW37923   6.905   4.393   4.414  0.3752  0.2183 -0.4270
12318SOL    HW137924   6.881   4.312   4.460  0.7439  1.1405  1.4608
12318SOL    HW237925   6.983   4.369   4.364  0.9143 -0.4332  0.6821
12319SOL     OW37926   7.124   5.117   2.434  0.0336  0.1129  0.1586
12319SOL    HW137927   7.193   5.170   2.395  0.4735  0.0564  0.8360
12319SOL    HW237928   7.073   5.178   2.486 -2.1221  0.7071 -2.4371
12320SOL     OW37929   2.867   0.041   3.168 -0.9050 -0.0705  0.0342
12320SOL    HW137930   2.787   0.031   3.117 -0.1501 -2.6114 -0.7819
12320SOL    HW237931   2.937   0.049   3.103 -0.1279 -1.5455  0.6537
12321SOL     OW37932   6.746   1.625   5.920  0.0776  0.2598  0.1695
12321SOL    HW137933   6.837   1.656   5.916  0.0629  0.5112  1.5139
12321SOL    HW237934   6.714   1.636   5.830  1.7233 -0.9583 -0.6159
12322SOL     OW37935   3.474   6.779   6.521  0.1909 -0.0189 -0.4073
12322SOL    HW137936   3.382   6.753   6.510  0.2347 -0.1127 -0.5600
12322SOL    HW237937   3.524   6.699   6.501  0.2287 -0.9182  2.7913
12323SOL     OW37938   2.419   3.909   4.920 -0.0617  0.1768 -0.1811
12323SOL    HW137939   2.498   3.877   4.876 -0.8590  0.5072 -1.9015
12323SOL    HW237940   2.442   3.998   4.948  1.3771 -0.9163  2.6282
12324SOL     OW37941   2.788   2.507   6.384  0.5862  0.2638  0.0841
12324SOL    HW137942   2.777   2.416   6.413  0.8027  0.1193 -0.2794
12324SOL    HW237943   2.865   2.538   6.432  1.5600 -0.2941 -1.0609
12325SOL     OW37944   7.298   2.904   5.104  0.6097  0.0548 -0.0741
12325SOL    HW137945   7.212   2.883   5.141 -0.2024  0.9111 -1.3841
12325SOL    HW237946   7.359   2.896   5.178 -0.3955 -1.7263  0.6239
12326SOL     OW37947   6.037   4.213   2.309 -0.2047 -0.3156  0.1353
12326SOL    HW137948   5.944   4.224   2.327  0.2497  1.0801  1.9203
12326SOL    HW237949   6.056   4.280   2.244 -0.5066 -0.8856 -0.5564
12327SOL     OW37950   0.709   2.776   1.311  0.0463 -0.5750  0.2211
12327SOL    HW137951   0.727   2.819   1.395 -1.5583 -0.8096  0.7118
12327SOL    HW237952   0.764   2.698   1.312  1.7172  0.5372  0.0542
12328SOL     OW37953   0.861   1.335   0.467 -0.5250 -0.1786 -0.4498
12328SOL    HW137954   0.941   1.354   0.417  0.2271  0.6704  1.0219
12328SOL    HW237955   0.885   1.262   0.524 -1.1344 -0.6207 -0.7522
12329SOL     OW37956   1.339   5.376   0.775  0.2257 -0.1887 -0.3373
12329SOL    HW137957   1.379   5.325   0.846  0.7046  1.4114  0.5945
12329SOL    HW237958   1.245   5.355   0.780 -0.0439  1.2806  2.0237
12330SOL     OW37959   3.095   0.418   6.031  0.1700 -0.2061 -0.1135
12330SOL    HW137960   3.187   0.391   6.028  1.0601  2.4004  1.0649
12330SOL    HW237961   3.066   0.392   6.118  0.7711  1.6437  0.6906
12331SOL     OW37962   3.914   3.922   3.460 -0.2380  0.0172 -0.0037
12331SOL    HW137963   3.911   4.011   3.424 -0.4576  0.0363  0.0619
12331SOL    HW237964   3.861   3.870   3.400 -0.4461  0.0113  0.1845
12332SOL     OW37965   3.085   3.121   4.893  0.2129 -0.2240 -0.4187
12332SOL    HW137966   3.083   3.165   4.808  1.2036  1.1726  0.2471
12332SOL    HW237967   3.012   3.058   4.889 -0.1868  0.2925 -2.0277
12333SOL     OW37968   0.368   5.545   5.099  0.3825 -0.3558 -0.1020
12333SOL    HW137969   0.396   5.574   5.013 -0.4769 -1.4065 -0.7502
12333SOL    HW237970   0.401   5.456   5.107  0.7761 -0.1445  0.8197
12334SOL     OW37971   5.815   1.452   1.204  0.1347 -0.4409 -0.4053
12334SOL    HW137972   5.826   1.408   1.120 -0.6497 -0.5059 -0.4834
12334SOL    HW237973   5.821   1.545   1.184  0.8104 -0.4783 -0.3941
12335SOL     OW37974   6.970   3.814   1.495  0.3042 -0.7586  0.2197
12335SOL    HW137975   6.898   3.764   1.455 -1.4581  1.2793  0.6582
12335SOL    HW237976   7.023   3.842   1.420 -0.6029 -0.4839 -0.3472
12336SOL     OW37977   0.320   1.460   5.599  0.2987 -0.2090 -0.6093
12336SOL    HW137978   0.278   1.503   5.525  0.7280 -0.6639 -1.1285
12336SOL    HW237979   0.253   1.403   5.636 -0.6349  1.6730  0.7703
12337SOL     OW37980   0.735   0.639   7.249  0.4838  0.3600 -0.3517
12337SOL    HW137981   0.682   0.596   7.181  0.7139 -1.3897  0.5299
12337SOL    HW237982   0.825   0.627   7.220  0.7747 -2.7158  1.4281
12338SOL     OW37983   1.816   2.079   7.093 -0.3416  0.5579  0.0587
12338SOL    HW137984   1.780   2.163   7.119 -2.2951 -0.1953  0.0180
12338SOL    HW237985   1.791   2.070   7.001 -0.7543 -0.3457  0.2488
12339SOL     OW37986   6.718   3.203   1.875  0.1290 -0.2916 -0.0909
12339SOL    HW137987   6.790   3.142   1.861  1.5061  0.6985  2.1176
12339SOL    HW237988   6.676   3.173   1.956 -0.0269  0.8499  0.2720
12340SOL     OW37989   7.133   0.149   2.942  0.1382 -0.6442 -0.1266
12340SOL    HW137990   7.181   0.181   2.866  2.6487  0.2721  1.7225
12340SOL    HW237991   7.064   0.214   2.956  0.7361  0.1195 -0.6235
12341SOL     OW37992   2.400   1.865   4.604 -0.4603  0.0589  0.1964
12341SOL    HW137993   2.350   1.801   4.655  1.2317 -1.5842 -0.1214
12341SOL    HW237994   2.369   1.854   4.514  0.5065 -1.0451 -0.0209
12342SOL     OW37995   1.313   6.223   1.713 -0.0472 -0.0757  0.0988
12342SOL    HW137996   1.298   6.233   1.807 -1.0168  0.3245 -0.0874
12342SOL    HW237997   1.303   6.128   1.698 -1.5754  0.0452  0.1515
12343SOL     OW37998   2.677   2.573   1.365 -0.5311  0.0921  0.7049
12343SOL    HW137999   2.668   2.512   1.439 -1.0659 -0.6330  0.0463
12343SOL    HW238000   2.659   2.659   1.403  1.0988 -0.0056  1.8534
12344SOL     OW38001   3.293   4.954   1.884  0.3052 -0.0857 -0.2410
12344SOL    HW138002   3.253   4.921   1.803  0.6964  1.1028 -0.9574
12344SOL    HW238003   3.369   4.898   1.898  0.2733 -0.2630 -0.7408
12345SOL     OW38004   6.677   3.315   6.766  0.7190 -0.6947  0.0032
12345SOL    HW138005   6.726   3.260   6.828  1.3433 -0.6774 -0.4600
12345SOL    HW238006   6.596   3.336   6.812  0.9794 -1.0427  0.6461
12346SOL     OW38007   5.187   3.449   3.209  0.3435  0.1942 -0.3910
12346SOL    HW138008   5.265   3.426   3.158 -0.6707  0.0872 -1.9788
12346SOL    HW238009   5.166   3.370   3.259  1.3162  0.2714  0.1600
12347SOL     OW38010   0.904   0.205   0.223  0.5103 -0.6499 -0.5515
12347SOL    HW138011   0.873   0.147   0.293  1.2997 -0.8054 -0.3192
12347SOL    HW238012   0.879   0.293   0.251 -0.7182 -0.8648 -0.9151
12348SOL     OW38013   3.579   7.344   1.541  0.6561  0.0134 -0.2184
12348SOL    HW138014   3.519   7.418   1.535 -0.3537 -0.7108  0.4634
12348SOL    HW238015   3.647   7.372   1.602 -0.1241  0.1319  0.6184
12349SOL     OW38016   1.156   2.671   3.406 -0.3530  0.0302  0.1211
12349SOL    HW138017   1.132   2.654   3.315 -0.2444  0.2910  0.0438
12349SOL    HW238018   1.112   2.602   3.455  1.6291 -1.6712 -0.3695
12350SOL     OW38019   4.537   2.930   2.068  0.3143 -0.5054  0.3947
12350SOL    HW138020   4.593   2.860   2.102 -0.0338 -1.1507 -0.3349
12350SOL    HW238021   4.545   3.001   2.133  2.2768 -0.4236  0.1043
12351SOL     OW38022   6.065   1.642   2.075 -0.4135 -0.5152  0.0945
12351SOL    HW138023   5.979   1.660   2.111 -0.7630 -0.9988 -0.4850
12351SOL    HW238024   6.097   1.728   2.045 -0.7785 -0.3652  0.1307
12352SOL     OW38025   4.887   1.814   1.835 -0.4042 -0.1540  0.0157
12352SOL    HW138026   4.912   1.803   1.927 -1.5218  2.3466  0.7255
12352SOL    HW238027   4.950   1.878   1.801 -0.4398 -0.5142 -0.7423
12353SOL     OW38028   5.488   1.669   3.276 -0.2497  0.4770  0.0393
12353SOL    HW138029   5.577   1.689   3.246 -1.0834  0.0802 -3.0929
12353SOL    HW238030   5.489   1.575   3.294 -0.0100  0.4931  0.1092
12354SOL     OW38031   1.790   0.036   3.931  0.3352  0.5506  0.2528
12354SOL    HW138032   1.706   0.037   3.884 -0.5262  2.4735  1.7017
12354SOL    HW238033   1.792   0.118   3.980  2.8769  0.3413  0.6601
12355SOL     OW38034   3.935   2.887   1.039 -0.4460  0.2313  0.2734
12355SOL    HW138035   3.849   2.922   1.015  0.2760  1.3561 -0.8507
12355SOL    HW238036   3.925   2.857   1.129 -1.8536  0.9205  0.3724
12356SOL     OW38037   6.736   4.863   0.920  0.5230  0.1132  0.0684
12356SOL    HW138038   6.821   4.827   0.893 -0.0865 -0.9689 -0.4722
12356SOL    HW238039   6.739   4.954   0.891  1.2449 -0.0919 -0.5533
12357SOL     OW38040   2.965   2.341   4.230 -0.0056  0.2966 -0.1758
12357SOL    HW138041   2.879   2.355   4.190  0.1401 -0.4639 -0.7948
12357SOL    HW238042   2.953   2.263   4.285 -0.3626  1.6805  1.8113
12358SOL     OW38043   5.159   6.926   6.385 -0.0931 -0.5832 -0.2447
12358SOL    HW138044   5.187   6.888   6.301  1.1418  0.9040 -0.5550
12358SOL    HW238045   5.078   6.971   6.364  1.2219  1.4926 -1.1896
12359SOL     OW38046   0.994   4.096   5.219  0.3658 -0.1981  0.4452
12359SOL    HW138047   0.965   4.010   5.189 -0.4045  0.5459 -1.0686
12359SOL    HW238048   1.088   4.098   5.201  0.6938 -1.2303  1.8514
12360SOL     OW38049   5.761   0.901   0.284 -0.1472  0.1862 -0.1479
12360SOL    HW138050   5.682   0.892   0.230 -0.7904  1.0305  0.6222
12360SOL    HW238051   5.833   0.884   0.223 -0.9434 -1.8204 -0.5858
12361SOL     OW38052   4.995   1.187   2.066  0.4846  0.1702  0.0761
12361SOL    HW138053   5.024   1.178   2.157 -0.9024 -1.2848  0.4036
12361SOL    HW238054   4.921   1.247   2.071 -1.3331 -1.9883  0.3453
12362SOL     OW38055   1.938   4.355   4.336  0.2410 -0.6065  0.2129
12362SOL    HW138056   1.966   4.269   4.305 -0.5845 -0.2601 -1.6478
12362SOL    HW238057   2.017   4.410   4.330  0.2001 -0.6580 -0.9248
12363SOL     OW38058   3.935   0.090   2.044  0.8486 -0.1037  0.6304
12363SOL    HW138059   3.883   0.090   1.964 -0.0480  0.4099  1.1860
12363SOL    HW238060   3.923   0.178   2.080 -0.6751 -0.9864  2.4886
12364SOL     OW38061   3.108   5.405   2.530  0.7737 -0.5207  0.2205
12364SOL    HW138062   3.095   5.497   2.550 -1.5946 -0.9935  1.2277
12364SOL    HW238063   3.123   5.402   2.436 -0.1681  0.7975  0.0072
12365SOL     OW38064   2.924   4.025   3.709 -0.1882  0.1670 -0.3376
12365SOL    HW138065   3.005   4.076   3.705  0.5234 -0.9926 -1.6395
12365SOL    HW238066   2.927   3.968   3.631 -1.8913 -0.4435 -0.0126
12366SOL     OW38067   3.911   0.537   3.618  0.5777 -0.0992 -0.2516
12366SOL    HW138068   3.914   0.514   3.711 -0.9377  0.6634  0.0171
12366SOL    HW238069   3.865   0.464   3.576  2.0797 -0.8949 -0.5932
12367SOL     OW38070   4.222   5.608   4.099  0.2526  0.0952  0.1689
12367SOL    HW138071   4.182   5.551   4.033  0.8294 -1.1504  0.8650
12367SOL    HW238072   4.310   5.626   4.066  0.2365  0.1979  0.1805
12368SOL     OW38073   7.109   6.413   2.075 -0.4087  0.4808  0.5149
12368SOL    HW138074   7.200   6.435   2.057 -0.2230  0.2030  1.0673
12368SOL    HW238075   7.059   6.454   2.005  0.1456  0.6095  0.1929
12369SOL     OW38076   2.687   3.543   6.587 -0.1047 -0.2814  0.0868
12369SOL    HW138077   2.640   3.463   6.563  2.6926 -1.4639 -2.1041
12369SOL    HW238078   2.772   3.512   6.617  0.7612  1.8544  0.0099
12370SOL     OW38079   3.392   4.081   4.690  0.7071  0.8238  0.7232
12370SOL    HW138080   3.466   4.070   4.631 -0.3554  0.2533 -0.5740
12370SOL    HW238081   3.341   4.152   4.650 -1.2938 -1.1642 -0.4932
12371SOL     OW38082   3.627   7.357   4.318  0.3183 -0.0405  0.0218
12371SOL    HW138083   3.609   7.265   4.297 -0.1768 -0.1654  0.9462
12371SOL    HW238084   3.540   7.396   4.332  0.5052  0.6542 -0.6787
12372SOL     OW38085   2.890   5.609   6.811  0.2197  0.3469 -0.0415
12372SOL    HW138086   2.955   5.572   6.871  0.3065 -1.4034 -1.1272
12372SOL    HW238087   2.829   5.537   6.795 -0.7857  1.3116 -0.7034
12373SOL     OW38088   4.194   3.168   4.228 -0.1162  0.4674 -0.2129
12373SOL    HW138089   4.262   3.103   4.242  0.7089  0.8879 -1.9410
12373SOL    HW238090   4.122   3.120   4.186 -0.7777  0.1064  1.2509
12374SOL     OW38091   1.313   0.601   5.647  0.0584 -0.1537 -0.4602
12374SOL    HW138092   1.334   0.586   5.739  0.6658 -0.9469 -0.7113
12374SOL    HW238093   1.352   0.686   5.627  1.1422 -0.6082 -0.3393
12375SOL     OW38094   3.683   7.139   4.749  0.0422 -0.3332 -0.2513
12375SOL    HW138095   3.724   7.216   4.789 -2.0162 -0.3498  2.1755
12375SOL    HW238096   3.744   7.111   4.681 -0.0435  4.7491 -2.9131
12376SOL     OW38097   6.148   0.729   5.547  0.1972 -0.9285  0.0279
12376SOL    HW138098   6.136   0.786   5.471 -1.0325 -0.7396  0.3392
12376SOL    HW238099   6.077   0.753   5.606  0.2464 -2.1040  0.5893
12377SOL     OW38100   2.717   5.206   0.494  0.2658 -0.5122 -0.4176
12377SOL    HW138101   2.757   5.229   0.577  0.8374  0.2438 -0.8836
12377SOL    HW238102   2.787   5.215   0.430 -0.9603  2.5755 -1.5281
12378SOL     OW38103   3.184   0.935   2.704 -0.3340 -0.2763 -0.3235
12378SOL    HW138104   3.130   0.899   2.774  1.2439 -0.7261  0.7298
12378SOL    HW238105   3.133   1.008   2.669 -1.0618  0.1392  1.4946
12379SOL     OW38106   2.566   7.082   6.983  0.1008  0.0009 -0.3639
12379SOL    HW138107   2.602   7.157   7.028 -1.5164 -0.0557  1.1377
12379SOL    HW238108   2.478   7.110   6.956  0.4257 -0.5087 -2.1058
12380SOL     OW38109   2.022   4.136   5.342  0.6054 -0.2909 -0.2012
12380SOL    HW138110   1.988   4.225   5.333 -1.0939 -1.0798 -2.3671
12380SOL    HW238111   2.089   4.129   5.275  0.0148 -0.9409 -0.7331
12381SOL     OW38112   5.583   6.877   0.090 -0.3298  0.1502  0.2341
12381SOL    HW138113   5.671   6.916   0.094  0.4424 -1.5711  1.0509
12381SOL    HW238114   5.591   6.795   0.138 -2.4637  0.0399  0.4871
12382SOL     OW38115   3.641   6.520   0.339 -0.1063  0.3091 -0.0464
12382SOL    HW138116   3.629   6.612   0.365  0.3573  0.1703  0.7005
12382SOL    HW238117   3.725   6.496   0.377 -0.3278 -0.4955 -0.0541
12383SOL     OW38118   6.829   7.021   5.551 -0.5144 -0.5337  0.2256
12383SOL    HW138119   6.850   6.941   5.503  0.1014 -0.2817  0.0614
12383SOL    HW238120   6.905   7.035   5.608 -1.1135 -0.6812  1.0839
12384SOL     OW38121   1.506   2.319   2.946 -0.1161 -0.0339  0.3846
12384SOL    HW138122   1.413   2.302   2.966 -0.1959 -0.2415 -0.1474
12384SOL    HW238123   1.524   2.404   2.986 -0.3117 -0.3704  1.2052
12385SOL     OW38124   5.292   6.213   0.285 -0.1955 -0.4533  0.5084
12385SOL    HW138125   5.225   6.177   0.227  2.8965 -2.7476 -1.9777
12385SOL    HW238126   5.320   6.138   0.338  1.2514  0.0761  0.5436
12386SOL     OW38127   5.351   5.964   5.481 -0.5235  0.0046 -0.1810
12386SOL    HW138128   5.285   6.028   5.504  0.0213 -0.1103  1.8817
12386SOL    HW238129   5.411   5.962   5.556  0.9425 -1.0217 -1.2992
12387SOL     OW38130   6.153   2.643   3.227 -0.3143  0.4488 -0.1011
12387SOL    HW138131   6.151   2.576   3.159  0.7482 -0.0327  0.3241
12387SOL    HW238132   6.242   2.639   3.262 -1.2166 -0.3022  2.2822
12388SOL     OW38133   7.330   5.231   2.739 -0.1344 -0.3984 -0.1837
12388SOL    HW138134   7.290   5.196   2.659  0.4477 -0.6815 -0.3583
12388SOL    HW238135   7.337   5.325   2.723 -0.5175 -0.3768 -0.2414
12389SOL     OW38136   6.879   1.046   5.091  0.3672  0.2133 -0.2499
12389SOL    HW138137   6.851   1.062   5.001 -0.4409  1.2354  0.1720
12389SOL    HW238138   6.950   0.982   5.083 -0.4039 -0.5269 -1.5323
12390SOL     OW38139   4.999   1.671   4.125 -0.0886  0.4051 -0.5328
12390SOL    HW138140   4.915   1.666   4.079 -1.1319 -2.6912  1.4031
12390SOL    HW238141   4.982   1.730   4.198 -0.1940  0.7178 -0.8048
12391SOL     OW38142   6.436   0.707   5.630  0.3451  0.1941  0.0876
12391SOL    HW138143   6.460   0.798   5.613 -0.1711  0.2515 -0.3567
12391SOL    HW238144   6.345   0.700   5.599  0.4021 -0.4839  0.0671
12392SOL     OW38145   2.433   5.267   3.224  0.4675 -0.1703  0.2146
12392SOL    HW138146   2.471   5.312   3.148  1.1065 -0.4973  0.3263
12392SOL    HW238147   2.422   5.177   3.194  0.0876 -0.1501  0.2952
12393SOL     OW38148   3.976   6.328   1.508 -0.3837 -0.0430  0.0510
12393SOL    HW138149   3.986   6.285   1.423 -0.7153  0.9153 -0.4963
12393SOL    HW238150   3.913   6.398   1.492  0.3447  0.8270  0.8278
12394SOL     OW38151   1.381   0.453   6.682 -0.0937 -0.3631  0.0091
12394SOL    HW138152   1.402   0.518   6.615  1.8843 -0.1710  0.7409
12394SOL    HW238153   1.285   0.448   6.682 -0.2146  1.1860 -1.3402
12395SOL     OW38154   1.877   5.917   3.656 -0.3840 -0.0983 -0.3463
12395SOL    HW138155   1.912   5.832   3.682 -1.2165 -0.1690  0.6122
12395SOL    HW238156   1.788   5.918   3.691  0.4010  2.1244  1.8732
12396SOL     OW38157   5.745   5.883   6.667 -0.2328 -0.1406  0.2032
12396SOL    HW138158   5.782   5.950   6.609  0.2978 -0.3114  0.3400
12396SOL    HW238159   5.821   5.833   6.698 -0.4826  0.0451  1.1603
12397SOL     OW38160   6.400   6.320   5.070  0.2766 -0.4480  0.1096
12397SOL    HW138161   6.314   6.347   5.104  0.1847 -1.7094  0.9397
12397SOL    HW238162   6.395   6.225   5.065  1.8509 -0.6027  0.8096
12398SOL     OW38163   5.942   6.153   4.627 -0.1096  0.0441  0.0781
12398SOL    HW138164   5.892   6.120   4.553 -0.3389  1.3389 -0.3776
12398SOL    HW238165   5.893   6.229   4.657  1.4668  1.2656 -0.2857
12399SOL     OW38166   0.946   5.062   3.505  0.3435 -0.4955 -0.1519
12399SOL    HW138167   0.948   4.996   3.435 -0.8183 -0.1976 -0.4826
12399SOL    HW238168   0.964   5.144   3.460 -1.9151 -0.0805 -0.4084
12400SOL     OW38169   6.563   3.119   3.164  0.4472 -0.4386 -0.3191
12400SOL    HW138170   6.628   3.050   3.155 -0.1124 -0.9159 -0.7778
12400SOL    HW238171   6.490   3.090   3.110 -0.4850 -0.3027  0.8262
12401SOL     OW38172   2.736   3.292   0.164  0.4515 -0.2888 -0.1369
12401SOL    HW138173   2.824   3.326   0.178  0.7778 -0.0816 -2.2693
12401SOL    HW238174   2.702   3.275   0.251  3.0134 -1.4480  0.7289
12402SOL     OW38175   7.138   1.687   1.443 -0.5217 -0.2079  0.2970
12402SOL    HW138176   7.108   1.639   1.366 -0.5195  0.2584  0.0011
12402SOL    HW238177   7.123   1.779   1.422 -2.1908 -0.1336  1.5494
12403SOL     OW38178   5.473   3.051   7.148 -0.5629 -0.3344 -0.0204
12403SOL    HW138179   5.548   3.092   7.191 -0.8466  1.5663 -1.2204
12403SOL    HW238180   5.468   2.963   7.187  0.9035  0.2753  1.6906
12404SOL     OW38181   6.113   0.918   3.405  0.1569  0.1241 -0.5042
12404SOL    HW138182   6.152   0.903   3.319 -0.2092  1.7009 -0.9744
12404SOL    HW238183   6.159   0.995   3.439 -2.4548  2.0902 -1.0936
12405SOL     OW38184   4.477   2.611   6.047 -0.3141  0.3239 -0.2502
12405SOL    HW138185   4.461   2.526   6.088  1.0127 -0.6273 -1.5943
12405SOL    HW238186   4.492   2.591   5.955  1.2018  1.8679 -0.3928
12406SOL     OW38187   2.476   3.229   2.956  0.2247  0.4886  0.0791
12406SOL    HW138188   2.418   3.305   2.962  0.3544  0.5436  0.6882
12406SOL    HW238189   2.417   3.153   2.954  0.1040  0.5891 -0.3018
12407SOL     OW38190   7.329   4.017   1.130 -0.4977  0.6544  0.1653
12407SOL    HW138191   7.418   3.995   1.104 -0.1690 -0.1551  1.8860
12407SOL    HW238192   7.305   4.091   1.074  1.5311  1.3965  0.2224
12408SOL     OW38193   1.205   3.803   5.821 -0.5221  0.0142  0.2785
12408SOL    HW138194   1.284   3.852   5.844 -0.3764 -0.2441  0.3260
12408SOL    HW238195   1.237   3.728   5.771 -0.8680  0.8677 -1.3045
12409SOL     OW38196   7.218   7.054   4.528  0.0394  0.5592  0.2177
12409SOL    HW138197   7.293   7.001   4.502  1.3180  1.3521  2.1315
12409SOL    HW238198   7.191   7.017   4.612 -0.7189  1.2861  0.3091
12410SOL     OW38199   0.683   5.451   3.920 -0.4526  0.4322  0.0919
12410SOL    HW138200   0.751   5.449   3.853 -0.3775 -1.5873  0.1730
12410SOL    HW238201   0.606   5.485   3.874  0.0963  0.9546 -0.4788
12411SOL     OW38202   4.404   3.187   5.706  0.3269 -0.1546  0.5581
12411SOL    HW138203   4.476   3.164   5.765  1.0507 -3.1422 -1.2749
12411SOL    HW238204   4.327   3.148   5.747  0.4603 -0.3990  0.5791
12412SOL     OW38205   3.497   3.935   6.897  0.3459  0.2331  0.6461
12412SOL    HW138206   3.514   3.845   6.871  0.5086  0.1494  1.0275
12412SOL    HW238207   3.411   3.932   6.939  0.4924  0.1932  0.9473
12413SOL     OW38208   4.109   0.507   1.962  0.2368  0.1894  0.4771
12413SOL    HW138209   4.138   0.434   1.907 -0.2775 -0.1534  0.6614
12413SOL    HW238210   4.187   0.530   2.013  0.2371 -0.6294  0.8608
12414SOL     OW38211   0.515   6.977   2.966 -0.0546 -0.2637 -0.6659
12414SOL    HW138212   0.425   7.007   2.956 -0.2315  0.6291  2.4907
12414SOL    HW238213   0.510   6.882   2.950 -1.5048 -0.2115 -0.7096
12415SOL     OW38214   1.724   4.477   4.464 -0.3284  0.1495 -0.2735
12415SOL    HW138215   1.804   4.424   4.464 -0.7681 -0.5315  0.1917
12415SOL    HW238216   1.737   4.539   4.393  1.0378  0.6825  0.3904
12416SOL     OW38217   1.221   7.265   0.115 -0.2374 -0.1862  0.4389
12416SOL    HW138218   1.259   7.293   0.032 -1.4040  2.4768  0.7176
12416SOL    HW238219   1.143   7.215   0.091  0.4667 -1.0949 -0.0377
12417SOL     OW38220   5.488   2.953   1.141 -0.3591  0.4989 -0.3059
12417SOL    HW138221   5.556   3.019   1.127  1.7755 -1.5884 -0.3909
12417SOL    HW238222   5.464   2.924   1.053 -0.0448  0.0154 -0.2405
12418SOL     OW38223   2.802   4.216   7.049 -0.7232  0.3193  0.2715
12418SOL    HW138224   2.837   4.189   6.964 -1.8265  0.2323 -0.1744
12418SOL    HW238225   2.714   4.247   7.030 -1.6970 -1.4091  1.6061
12419SOL     OW38226   5.535   6.377   6.882  0.1937  0.0288  0.2190
12419SOL    HW138227   5.495   6.357   6.966  0.2897 -0.7255  0.0903
12419SOL    HW238228   5.604   6.311   6.871 -1.0391 -1.0825 -1.2986
12420SOL     OW38229   2.557   6.185   1.597 -0.2572  0.2934 -0.6453
12420SOL    HW138230   2.591   6.252   1.656  0.3887 -0.7114  0.1738
12420SOL    HW238231   2.634   6.134   1.572 -0.9419 -1.2278  0.1997
12421SOL     OW38232   2.258   3.944   1.204  0.3066 -0.2625  0.3176
12421SOL    HW138233   2.275   4.037   1.220 -0.6313  0.0781 -0.6026
12421SOL    HW238234   2.196   3.919   1.274  1.5852 -0.5618  1.3859
12422SOL     OW38235   5.963   6.682   0.519 -0.1947  0.2667 -0.4853
12422SOL    HW138236   5.961   6.773   0.551 -1.7469  0.9487 -2.3010
12422SOL    HW238237   5.910   6.634   0.583 -1.4971  1.1764 -0.8308
12423SOL     OW38238   4.705   1.703   4.653 -0.1777  0.1892  0.2972
12423SOL    HW138239   4.678   1.791   4.626 -1.3960 -0.4492 -0.6963
12423SOL    HW238240   4.701   1.651   4.572  0.9373 -0.6939  0.7772
12424SOL     OW38241   0.576   2.764   1.060 -0.0319 -0.0776  0.2774
12424SOL    HW138242   0.519   2.694   1.089 -0.6152 -0.3925 -1.4818
12424SOL    HW238243   0.650   2.763   1.121  0.1686 -2.4811  0.0819
12425SOL     OW38244   1.996   2.992   1.266 -0.3115  0.0892 -0.0854
12425SOL    HW138245   2.052   3.063   1.237 -0.5779  0.2048 -0.3236
12425SOL    HW238246   1.972   2.946   1.186  1.1752 -1.2708  0.1921
12426SOL     OW38247   3.412   4.495   0.908  0.0402  0.9140  0.1081
12426SOL    HW138248   3.483   4.521   0.967  1.0378 -0.4144 -0.4499
12426SOL    HW238249   3.435   4.534   0.824  0.3055  0.1976 -0.1573
12427SOL     OW38250   5.163   5.415   7.027  0.5849 -0.0700 -0.6782
12427SOL    HW138251   5.102   5.453   7.091  0.1333  0.2951 -1.3157
12427SOL    HW238252   5.219   5.357   7.079  0.8631  0.9587  0.2147
12428SOL     OW38253   5.019   5.863   1.342 -0.2862  0.2136 -0.7538
12428SOL    HW138254   5.112   5.868   1.320  0.6191 -2.5432  1.7759
12428SOL    HW238255   4.976   5.847   1.258  1.8406 -0.8838 -1.7298
12429SOL     OW38256   6.337   4.762   7.363 -0.2602 -0.2682  0.1127
12429SOL    HW138257   6.429   4.748   7.384  0.3041  1.4477 -0.9535
12429SOL    HW238258   6.330   4.740   7.270 -0.9858 -0.5531  0.2223
12430SOL     OW38259   6.796   4.082   6.901  0.5340 -0.2016  0.1928
12430SOL    HW138260   6.725   4.146   6.904  0.0972 -0.5393 -1.9158
12430SOL    HW238261   6.757   4.003   6.863  2.1791 -0.1202 -1.8299
12431SOL     OW38262   6.931   2.289   2.088  0.0395  0.0231 -0.5003
12431SOL    HW138263   6.969   2.206   2.058  1.2303  0.2701  0.2552
12431SOL    HW238264   6.850   2.264   2.131  0.5902 -0.8081  0.0911
12432SOL     OW38265   6.997   6.992   1.732 -0.0824  0.2699 -0.6516
12432SOL    HW138266   6.918   7.021   1.688 -0.5634 -1.6202 -1.1599
12432SOL    HW238267   7.060   6.978   1.662 -0.4919 -1.6700 -0.7062
12433SOL     OW38268   1.720   1.599   6.896 -0.3199 -0.1239  0.3783
12433SOL    HW138269   1.633   1.619   6.928 -0.6700  0.1337 -0.6834
12433SOL    HW238270   1.722   1.503   6.891  0.8727 -0.4284  4.1343
12434SOL     OW38271   1.037   3.699   6.536 -0.4430 -0.3651  0.0798
12434SOL    HW138272   1.120   3.728   6.498  1.5237 -2.4696  2.3781
12434SOL    HW238273   1.014   3.621   6.486 -1.5155  0.6411 -1.0497
12435SOL     OW38274   4.300   0.298   1.806 -0.2711 -0.1896  0.5906
12435SOL    HW138275   4.219   0.266   1.765  0.1761 -1.0511  0.3579
12435SOL    HW238276   4.354   0.326   1.732 -0.1268 -0.1558  0.7095
12436SOL     OW38277   0.437   2.532   2.507  0.0789  0.0461  0.5352
12436SOL    HW138278   0.515   2.487   2.475  0.0214 -0.3260  0.9096
12436SOL    HW238279   0.443   2.620   2.470 -0.9598 -0.8885 -2.0675
12437SOL     OW38280   6.362   6.921   4.671 -0.2769 -0.0162  0.1391
12437SOL    HW138281   6.378   6.980   4.598  2.4714 -1.2469 -0.3870
12437SOL    HW238282   6.288   6.868   4.644 -1.8931  2.1529  0.0382
12438SOL     OW38283   1.390   5.371   7.361 -0.4593 -0.0490 -0.2344
12438SOL    HW138284   1.420   5.391   7.273 -0.6603  0.9376 -0.0917
12438SOL    HW238285   1.319   5.434   7.378  0.3299  0.5375  1.0385
12439SOL     OW38286   0.744   1.246   2.614 -0.1892 -0.1504  0.0279
12439SOL    HW138287   0.772   1.247   2.522  2.0633  0.0101  0.6743
12439SOL    HW238288   0.757   1.155   2.642  0.0677  0.0173  0.4545
12440SOL     OW38289   3.407   3.370   5.900 -0.5913 -0.4458 -0.3455
12440SOL    HW138290   3.474   3.302   5.903 -1.0165 -0.8466  0.2235
12440SOL    HW238291   3.354   3.346   5.824 -1.2016 -1.2094  0.2976
12441SOL     OW38292   4.130   0.025   2.915  0.1697  0.1161 -0.5044
12441SOL    HW138293   4.057   0.086   2.927 -0.2071 -0.2794 -0.7451
12441SOL    HW238294   4.150  -0.006   3.003 -1.1584 -1.1460 -0.6104
12442SOL     OW38295   2.834   0.926   3.966  0.4118 -0.6772 -0.3142
12442SOL    HW138296   2.866   1.012   3.992  0.8488 -0.6300 -0.9961
12442SOL    HW238297   2.804   0.886   4.048 -0.9033  0.5708 -0.1579
12443SOL     OW38298   5.485   0.379   0.412  0.2007 -0.0879 -0.2307
12443SOL    HW138299   5.425   0.306   0.399  0.1651 -0.3320  1.1744
12443SOL    HW238300   5.571   0.343   0.395  0.0195  0.2182 -2.0752
12444SOL     OW38301   2.989   3.614   3.688 -0.4379  0.0352  0.3612
12444SOL    HW138302   3.074   3.644   3.721 -0.1162  0.0320 -0.4454
12444SOL    HW238303   3.011   3.542   3.629 -0.8429  1.1542 -1.2245
12445SOL     OW38304   6.756   1.770   2.133  0.3200  0.2479  0.1790
12445SOL    HW138305   6.713   1.687   2.151  0.3103  0.3628  0.7214
12445SOL    HW238306   6.813   1.752   2.058 -0.1211 -0.0901 -0.0766
12446SOL     OW38307   5.068   4.777   0.777  0.7515  0.5014 -0.5581
12446SOL    HW138308   4.979   4.756   0.750  1.1040  1.6829 -2.8377
12446SOL    HW238309   5.069   4.873   0.785  1.6644  0.4530  0.1161
12447SOL     OW38310   3.318   3.831   1.826 -0.0674 -0.1331  0.1606
12447SOL    HW138311   3.300   3.920   1.858  2.6970  0.8876 -0.8274
12447SOL    HW238312   3.352   3.785   1.903 -2.3787 -0.6957  0.9097
12448SOL     OW38313   6.699   6.720   7.253 -0.5811  0.2628  0.2049
12448SOL    HW138314   6.688   6.803   7.206 -0.4014  0.4756  0.5316
12448SOL    HW238315   6.793   6.701   7.245 -0.2980  0.9610  1.5562
12449SOL     OW38316   4.638   5.119   0.184 -0.1653  0.0058  0.3008
12449SOL    HW138317   4.644   5.124   0.280  0.3980  1.2261  0.2242
12449SOL    HW238318   4.705   5.179   0.153 -0.1436 -0.6014 -0.8798
12450SOL     OW38319   7.245   0.624   0.030 -0.1554 -0.4567  0.0247
12450SOL    HW138320   7.228   0.552   0.090  0.2380  0.9333  1.9005
12450SOL    HW238321   7.338   0.619   0.012 -0.1237 -0.4015  0.1732
12451SOL     OW38322   6.570   0.308   5.273  0.1651 -0.2954  0.2638
12451SOL    HW138323   6.510   0.260   5.330 -1.1056  0.4613 -0.3900
12451SOL    HW238324   6.525   0.391   5.256  1.5504  0.4195 -0.0037
12452SOL     OW38325   0.442   1.324   0.418  0.2596 -0.3376  0.5635
12452SOL    HW138326   0.415   1.416   0.428 -0.7418 -0.2586 -2.0929
12452SOL    HW238327   0.359   1.276   0.410  0.7621 -0.9788 -1.3282
12453SOL     OW38328   3.917   1.371   6.359  0.1648  0.2896 -0.2395
12453SOL    HW138329   3.881   1.455   6.332 -1.4618 -0.9116 -2.1392
12453SOL    HW238330   3.965   1.339   6.283  1.7052 -0.0387  0.8286
12454SOL     OW38331   1.848   0.807   1.173 -0.0957 -0.0372  0.0081
12454SOL    HW138332   1.847   0.902   1.184 -0.5472 -0.2524  2.3180
12454SOL    HW238333   1.929   0.779   1.215  0.4212 -0.6371 -1.3470
12455SOL     OW38334   6.458   4.729   5.209 -0.0701 -0.2665  0.1864
12455SOL    HW138335   6.414   4.739   5.293  1.7931  2.1058  1.0239
12455SOL    HW238336   6.523   4.800   5.208  0.4549 -0.6498 -2.9653
12456SOL     OW38337   6.838   0.598   0.537  0.5078 -0.4800 -0.8811
12456SOL    HW138338   6.826   0.503   0.539  0.0507 -0.4208 -0.2557
12456SOL    HW238339   6.776   0.631   0.603  1.5922  0.1483 -0.1415
12457SOL     OW38340   2.172   1.274   6.175  0.3339  0.6281 -0.2879
12457SOL    HW138341   2.160   1.236   6.262  0.1908  0.3278 -0.4379
12457SOL    HW238342   2.148   1.366   6.186  1.8575  0.9667  0.3607
12458SOL     OW38343   2.578   1.015   6.914  0.0551 -0.0848 -0.3352
12458SOL    HW138344   2.650   1.062   6.956  1.0476 -1.3173 -0.5876
12458SOL    HW238345   2.516   0.997   6.985 -0.4411  1.7368 -0.2758
12459SOL     OW38346   5.845   0.230   0.144  0.2126  0.2313 -1.2082
12459SOL    HW138347   5.778   0.298   0.152 -1.1639 -1.1936  0.0273
12459SOL    HW238348   5.854   0.216   0.050 -1.0171  0.6372 -1.4015
12460SOL     OW38349   3.535   7.051   5.087 -0.2637  0.2309  0.7766
12460SOL    HW138350   3.627   7.027   5.081 -0.5089 -0.3503 -1.4565
12460SOL    HW238351   3.531   7.115   5.158  1.7677 -0.0973  1.2267
12461SOL     OW38352   2.173   7.253   3.407  0.1295 -0.2154 -0.2403
12461SOL    HW138353   2.166   7.339   3.365  2.4121 -0.0357 -0.3984
12461SOL    HW238354   2.159   7.271   3.500 -0.8350  0.0813 -0.4356
12462SOL     OW38355   1.608   3.194   0.817 -0.0086 -0.1944  0.2105
12462SOL    HW138356   1.590   3.276   0.771 -1.6591 -0.9505 -0.5839
12462SOL    HW238357   1.584   3.211   0.908  1.3451  0.7006  0.4296
12463SOL     OW38358   5.909   4.275   0.961  0.3572 -0.2312  0.6566
12463SOL    HW138359   5.920   4.250   0.869 -1.0765  0.4778  0.2613
12463SOL    HW238360   5.815   4.292   0.970  0.8856  2.9473  1.3773
12464SOL     OW38361   5.197   4.829   4.814 -0.5991 -1.0773 -0.4931
12464SOL    HW138362   5.247   4.908   4.797  0.0815 -1.3789  0.0534
12464SOL    HW238363   5.123   4.857   4.868 -1.3506 -0.5395 -1.7577
12465SOL     OW38364   6.774   7.350   0.450 -0.0584  0.0214 -0.1192
12465SOL    HW138365   6.746   7.272   0.401 -0.5200 -1.2477  2.0253
12465SOL    HW238366   6.726   7.422   0.410 -0.3993 -0.9358 -1.5118
12466SOL     OW38367   0.830   2.602   4.129 -0.6471  0.2633 -0.5978
12466SOL    HW138368   0.747   2.640   4.156 -1.5574 -0.5901 -2.0375
12466SOL    HW238369   0.875   2.673   4.082 -0.8632  0.5307 -0.3996
12467SOL     OW38370   6.865   1.397   1.741  0.3905 -0.4782  0.1314
12467SOL    HW138371   6.931   1.376   1.676  0.1361  0.4669 -0.4583
12467SOL    HW238372   6.809   1.462   1.699 -0.9285 -1.2542  0.6149
12468SOL     OW38373   3.490   6.877   5.341  0.2245 -0.0247  0.2777
12468SOL    HW138374   3.440   6.796   5.357  1.8698 -0.6602  2.7880
12468SOL    HW238375   3.456   6.910   5.258 -2.1000 -2.0850  0.2899
12469SOL     OW38376   1.749   6.335   6.955 -0.3115  0.2514  0.2948
12469SOL    HW138377   1.735   6.244   6.932 -1.6065  0.4365  0.2652
12469SOL    HW238378   1.837   6.337   6.994 -0.3039 -1.0060  0.3790
12470SOL     OW38379   1.508   6.882   0.272  0.5164  0.1209  0.1719
12470SOL    HW138380   1.573   6.865   0.203 -1.6365 -0.4088 -1.8760
12470SOL    HW238381   1.473   6.969   0.250  0.9474  0.6844  1.6301
12471SOL     OW38382   4.283   5.477   4.337 -0.0791  0.2479  0.4514
12471SOL    HW138383   4.313   5.387   4.329  1.4992  0.8214 -0.6447
12471SOL    HW238384   4.269   5.506   4.246 -0.5232  1.1195  0.7850
12472SOL     OW38385   5.384   1.080   1.022  0.2691 -0.6898  0.3651
12472SOL    HW138386   5.363   1.172   1.031 -0.1066 -0.8733  1.4953
12472SOL    HW238387   5.475   1.073   1.051  0.4731 -0.6043 -0.2318
12473SOL     OW38388   1.624   1.545   0.405 -0.4084  0.8019  0.3315
12473SOL    HW138389   1.650   1.539   0.313 -2.6973  0.7752 -0.3680
12473SOL    HW238390   1.592   1.635   0.414 -0.5721  0.6753  1.0199
12474SOL     OW38391   2.124   5.850   5.124 -0.2773 -0.6470  0.7084
12474SOL    HW138392   2.109   5.883   5.035 -2.6287 -0.7356  1.0095
12474SOL    HW238393   2.158   5.761   5.110  0.9347 -0.0897 -0.0729
12475SOL     OW38394   1.073   3.519   7.123 -0.2196  0.0905 -0.8340
12475SOL    HW138395   1.152   3.548   7.169  0.1527 -0.9680 -0.7825
12475SOL    HW238396   1.010   3.501   7.193 -1.0802  2.4214 -0.9208
12476SOL     OW38397   6.772   1.249   7.308  0.3017 -0.1147 -0.0739
12476SOL    HW138398   6.697   1.305   7.329  0.1777  0.1257 -1.1101
12476SOL    HW238399   6.748   1.163   7.343 -0.8300 -0.2383 -1.0798
12477SOL     OW38400   4.718   3.521   0.051 -0.8858  0.0891 -0.1330
12477SOL    HW138401   4.736   3.572  -0.028 -1.8180 -1.3863 -1.3743
12477SOL    HW238402   4.650   3.570   0.096  0.1026  1.2766  0.1124
12478SOL     OW38403   0.558   3.135   4.172 -0.2481 -0.3388 -0.9424
12478SOL    HW138404   0.621   3.083   4.122  1.9429  1.3584 -0.1243
12478SOL    HW238405   0.563   3.098   4.261 -1.5137 -1.1030 -1.1690
12479SOL     OW38406   5.179   1.213   7.345  0.2187 -0.0473 -0.1248
12479SOL    HW138407   5.183   1.157   7.423  0.8299 -0.4313 -0.4256
12479SOL    HW238408   5.198   1.154   7.272 -0.8302  0.2063 -0.6210
12480SOL     OW38409   0.990   4.646   3.964 -0.1609  0.1634 -0.5223
12480SOL    HW138410   1.016   4.575   3.905  2.3984  0.1956  0.4150
12480SOL    HW238411   0.943   4.708   3.908 -0.1065 -1.0117 -1.9311
12481SOL     OW38412   6.174   4.913   5.793 -0.2649 -0.2063 -0.4662
12481SOL    HW138413   6.187   4.999   5.833  3.2883  0.3545 -2.3997
12481SOL    HW238414   6.187   4.851   5.865 -1.0742  0.8141  0.5986
12482SOL     OW38415   2.222   2.914   6.344 -0.0147  0.1830 -0.0371
12482SOL    HW138416   2.187   2.963   6.418 -3.0230 -0.0314 -1.1935
12482SOL    HW238417   2.197   2.823   6.362  0.2331 -0.0374 -0.7852
12483SOL     OW38418   6.661   2.794   4.738 -0.1239  0.1229  0.1648
12483SOL    HW138419   6.712   2.731   4.688 -0.6631  0.0153 -0.2635
12483SOL    HW238420   6.570   2.771   4.719 -0.3380  1.3619 -0.4354
12484SOL     OW38421   2.643   4.652   6.476  0.1736 -0.5679 -0.0222
12484SOL    HW138422   2.644   4.724   6.413  1.5395 -0.0803  0.5049
12484SOL    HW238423   2.714   4.594   6.447  2.0124  0.5349  1.9576
12485SOL     OW38424   3.257   1.663   5.923 -0.0687  0.2449 -0.6505
12485SOL    HW138425   3.213   1.676   6.007  1.7939 -0.4474  0.4913
12485SOL    HW238426   3.310   1.742   5.910  0.2526  0.0142 -0.7723
12486SOL     OW38427   3.091   6.935   6.151 -0.1592  0.1013 -0.1535
12486SOL    HW138428   3.107   7.020   6.110 -1.6205 -0.2835 -1.6233
12486SOL    HW238429   3.011   6.948   6.202  0.3240 -0.0670  0.6635
12487SOL     OW38430   1.734   3.785   0.027 -0.7299  0.1107 -0.0960
12487SOL    HW138431   1.769   3.823  -0.053 -1.3632  0.4474 -0.2185
12487SOL    HW238432   1.646   3.821   0.035 -0.4546  0.5848  1.0914
12488SOL     OW38433   4.687   4.637   5.832  0.0307 -0.1572  0.1213
12488SOL    HW138434   4.776   4.614   5.855 -0.4077 -0.1088  2.0044
12488SOL    HW238435   4.635   4.559   5.854 -0.4068 -0.1906 -0.9586
12489SOL     OW38436   4.176   6.057   6.274  0.0066 -0.7148  0.0833
12489SOL    HW138437   4.263   6.092   6.292 -0.5566  0.2996  0.9430
12489SOL    HW238438   4.122   6.086   6.348 -1.5321  0.4331 -1.3801
12490SOL     OW38439   5.761   1.663   5.524  0.5205 -0.0385  0.5049
12490SOL    HW138440   5.723   1.650   5.438  0.0783  0.0002  0.6907
12490SOL    HW238441   5.793   1.576   5.549  0.3901 -0.1121  0.4201
12491SOL     OW38442   0.543   0.845   0.673  0.1396 -0.5661 -0.0205
12491SOL    HW138443   0.457   0.807   0.695  0.7451 -1.4005  1.0008
12491SOL    HW238444   0.531   0.882   0.585 -1.7914  1.0160  0.8258
12492SOL     OW38445   2.400   4.599   6.630  0.3212 -1.0181  0.4073
12492SOL    HW138446   2.371   4.674   6.682  0.2373 -0.3992 -0.5270
12492SOL    HW238447   2.494   4.614   6.616  0.1414 -0.6882 -0.4442
12493SOL     OW38448   0.171   5.002   7.376  0.0839  0.0342  0.8976
12493SOL    HW138449   0.095   4.948   7.352 -0.9242  1.4886  0.7032
12493SOL    HW238450   0.149   5.089   7.344  2.6182  0.1562 -0.7643
12494SOL     OW38451   2.031   6.318   5.583  0.5778  0.3259  0.7034
12494SOL    HW138452   2.103   6.285   5.637  0.2593  1.0036  1.5580
12494SOL    HW238453   2.061   6.404   5.553  0.1606  0.5736  0.9924
12495SOL     OW38454   3.437   4.847   5.776 -0.9031 -0.3738  0.1550
12495SOL    HW138455   3.413   4.937   5.756 -1.2397 -0.1132  1.5870
12495SOL    HW238456   3.356   4.797   5.764 -0.6619 -0.5357 -0.8571
12496SOL     OW38457   5.090   3.243   2.369 -0.2240 -0.1301  0.1155
12496SOL    HW138458   5.118   3.264   2.458  2.1428  1.5701 -0.9430
12496SOL    HW238459   5.068   3.327   2.330  2.3960 -0.2991 -1.9972
12497SOL     OW38460   5.668   3.570   0.937 -0.1343 -0.0224  0.6949
12497SOL    HW138461   5.678   3.654   0.893 -0.5814 -0.2893  0.0541
12497SOL    HW238462   5.654   3.508   0.866  2.0421 -0.9636  1.0063
12498SOL     OW38463   3.685   2.593   5.675  0.2844 -0.1900 -0.5208
12498SOL    HW138464   3.677   2.685   5.700  0.8892 -0.4710  0.8129
12498SOL    HW238465   3.769   2.588   5.628  0.4751 -0.1435 -0.1854
12499SOL     OW38466   0.204   1.919   1.489 -0.1041 -0.6803 -0.4505
12499SOL    HW138467   0.279   1.956   1.534 -0.0366 -1.9722  0.5627
12499SOL    HW238468   0.128   1.967   1.523  0.2271  0.5768 -1.4252
12500SOL     OW38469   4.201   2.322   7.123 -0.1880  0.2215  0.4881
12500SOL    HW138470   4.216   2.415   7.111 -0.6681  0.0737 -1.9245
12500SOL    HW238471   4.229   2.282   7.040 -1.4574 -1.5616  0.8369
12501SOL     OW38472   4.054   0.217   1.688 -0.2486  0.0523  0.4898
12501SOL    HW138473   4.005   0.270   1.625 -0.7563  1.9796  2.3787
12501SOL    HW238474   3.993   0.148   1.713 -0.5549  0.1090 -0.0723
12502SOL     OW38475   5.939   6.869   5.811  0.3701 -0.1272 -0.5175
12502SOL    HW138476   5.869   6.934   5.818  1.0676  0.5520  0.4892
12502SOL    HW238477   5.902   6.789   5.849  0.1300  0.2190 -0.0175
12503SOL     OW38478   3.685   5.374   6.903  0.2698  0.1215  0.0097
12503SOL    HW138479   3.717   5.284   6.901  1.1909  0.3522  2.1312
12503SOL    HW238480   3.762   5.428   6.886 -0.6099  0.5554 -3.2243
12504SOL     OW38481   0.944   3.751   3.470  0.4210 -0.1383 -0.0881
12504SOL    HW138482   1.030   3.709   3.464  0.2000 -0.4103 -1.6069
12504SOL    HW238483   0.962   3.845   3.462  0.8851  0.1710  3.0357
12505SOL     OW38484   5.202   4.152   3.883 -0.0421 -0.0846 -0.0886
12505SOL    HW138485   5.210   4.170   3.790 -1.3443 -0.5558 -0.3179
12505SOL    HW238486   5.109   4.132   3.896  0.4535 -2.0101  0.9368
12506SOL     OW38487   4.318   1.799   6.026  0.2231  0.3339 -0.0032
12506SOL    HW138488   4.233   1.795   5.983  0.6557 -0.3768 -0.8050
12506SOL    HW238489   4.321   1.722   6.083 -0.0967  0.9393  0.8529
12507SOL     OW38490   6.203   1.723   0.146  0.1293  0.2996  0.0323
12507SOL    HW138491   6.256   1.798   0.120  2.2163 -1.2566 -0.5031
12507SOL    HW238492   6.221   1.711   0.239 -0.9475  0.9868  0.3483
12508SOL     OW38493   4.537   1.236   0.548 -0.4780  0.2792  0.5580
12508SOL    HW138494   4.596   1.177   0.594 -1.0582 -1.1938 -0.5123
12508SOL    HW238495   4.478   1.270   0.615  1.8423  2.2370  1.7687
12509SOL     OW38496   5.401   5.521   5.100 -0.2575  0.0626 -0.4871
12509SOL    HW138497   5.414   5.578   5.175  0.5168 -0.2152 -0.3966
12509SOL    HW238498   5.310   5.534   5.075  0.1240  2.0507 -1.0522
12510SOL     OW38499   2.910   2.569   3.410  0.8369 -0.0091  1.1475
12510SOL    HW138500   2.980   2.565   3.345 -1.1525  1.4326 -1.3123
12510SOL    HW238501   2.899   2.663   3.427 -1.1801 -0.0858  0.5450
12511SOL     OW38502   2.793   6.565   3.035 -0.5336 -0.0662  0.2396
12511SOL    HW138503   2.793   6.659   3.053  1.1804  0.3713 -1.6369
12511SOL    HW238504   2.731   6.554   2.963  0.1120 -0.1543 -0.3218
12512SOL     OW38505   5.785   6.621   1.884  0.7229  0.3912  0.4701
12512SOL    HW138506   5.728   6.688   1.847  1.2050  0.3507 -0.3698
12512SOL    HW238507   5.738   6.539   1.870  0.8705  0.3838  0.0024
12513SOL     OW38508   4.767   2.442   2.898  0.3962  0.5318  0.1778
12513SOL    HW138509   4.799   2.513   2.842  0.5325  2.4608  2.5705
12513SOL    HW238510   4.684   2.415   2.858  0.4311  1.9026 -0.8832
12514SOL     OW38511   5.099   4.939   1.402  0.3282  0.5969 -0.0522
12514SOL    HW138512   5.178   4.918   1.452  0.7298 -0.6561 -1.1779
12514SOL    HW238513   5.090   4.868   1.339 -1.8288  0.5883  0.1827
12515SOL     OW38514   6.287   5.569   2.552 -0.3344 -0.2615 -0.1382
12515SOL    HW138515   6.333   5.630   2.609  1.6684 -1.3569 -0.4991
12515SOL    HW238516   6.194   5.591   2.563  0.2609  2.3242  0.2948
12516SOL     OW38517   4.148   2.905   7.225 -0.0708  0.2320  0.5435
12516SOL    HW138518   4.215   2.966   7.194 -0.8204  1.2577  0.8977
12516SOL    HW238519   4.066   2.940   7.190 -0.5722 -0.2651  1.2063
12517SOL     OW38520   2.366   7.186   0.760 -0.6166  0.1684 -0.1369
12517SOL    HW138521   2.392   7.107   0.712 -0.1300  0.3290 -0.1479
12517SOL    HW238522   2.333   7.245   0.693 -0.1909  0.2899 -0.2426
12518SOL     OW38523   4.806   0.142   5.918  0.5200  0.0800  0.1146
12518SOL    HW138524   4.830   0.084   5.991  1.0224 -1.7014 -1.3939
12518SOL    HW238525   4.821   0.089   5.840 -2.6317  0.9584 -1.2174
12519SOL     OW38526   4.872   0.362   1.084  0.4099  0.7666  0.5916
12519SOL    HW138527   4.858   0.302   1.011 -2.3516  1.6370  0.2810
12519SOL    HW238528   4.956   0.404   1.064  0.2532  0.2054 -1.5233
12520SOL     OW38529   2.866   3.618   6.385  0.1704  0.2193 -0.0827
12520SOL    HW138530   2.828   3.586   6.303  0.2835 -0.2333  0.0368
12520SOL    HW238531   2.793   3.659   6.431 -0.3057 -1.0591  0.3525
12521SOL     OW38532   0.852   5.067   2.654  0.1551  0.1131  0.4073
12521SOL    HW138533   0.804   5.136   2.607  0.8244  0.5891  0.4024
12521SOL    HW238534   0.902   5.021   2.586 -1.1228 -1.0979  0.2537
12522SOL     OW38535   5.046   0.581   2.849  0.4027  0.5452  0.6662
12522SOL    HW138536   5.038   0.676   2.847  0.5973  0.5561 -1.2897
12522SOL    HW238537   4.969   0.551   2.897 -0.0639  1.6432  0.6213
12523SOL     OW38538   4.943   1.133   2.811 -0.0102 -0.3747 -0.2675
12523SOL    HW138539   4.928   1.103   2.900  1.3304  0.7423  0.3923
12523SOL    HW238540   4.962   1.227   2.820 -2.2784  0.3560 -2.0160
12524SOL     OW38541   3.007   0.546   6.583 -0.1992 -0.2392 -0.1929
12524SOL    HW138542   2.983   0.623   6.635  3.0432  1.4666 -0.9605
12524SOL    HW238543   2.971   0.565   6.496 -1.3751 -0.7466  0.1606
12525SOL     OW38544   0.770   4.408   1.446  0.1150  0.3522 -0.1831
12525SOL    HW138545   0.760   4.441   1.357 -2.7363 -0.2018 -0.1613
12525SOL    HW238546   0.819   4.327   1.436  0.1881  0.5068 -1.2015
12526SOL     OW38547   1.985   3.650   6.278  0.1731 -0.3739 -0.3090
12526SOL    HW138548   2.037   3.633   6.357  1.0427 -1.9591 -1.1694
12526SOL    HW238549   2.050   3.656   6.208 -0.6822 -0.4283 -1.1208
12527SOL     OW38550   0.970   1.686   6.046 -0.6263  0.2607  0.1831
12527SOL    HW138551   1.056   1.646   6.029 -1.4310 -0.9334 -1.3096
12527SOL    HW238552   0.927   1.623   6.104  0.2076  1.8600  2.6843
12528SOL     OW38553   4.283   5.551   0.348 -0.2793 -0.1992  0.0001
12528SOL    HW138554   4.333   5.478   0.309  0.6036 -0.5269  1.6766
12528SOL    HW238555   4.200   5.511   0.374 -0.3338 -0.2819 -0.2862
12529SOL     OW38556   2.170   2.762   3.628 -0.3360 -1.0911 -0.5267
12529SOL    HW138557   2.213   2.718   3.702  0.0492  1.2169  0.7163
12529SOL    HW238558   2.097   2.810   3.668  0.9413  1.6691 -1.2532
12530SOL     OW38559   0.843   2.456   5.386  0.3390 -0.4422 -0.0047
12530SOL    HW138560   0.753   2.434   5.362  0.3246  1.0709 -1.5551
12530SOL    HW238561   0.894   2.439   5.306  0.8722  1.6331 -0.1713
12531SOL     OW38562   2.927   0.807   3.489 -0.1769  0.4370  0.0564
12531SOL    HW138563   2.871   0.806   3.566  0.6281  1.5165  0.6813
12531SOL    HW238564   2.946   0.714   3.472 -0.7426  0.1611  0.8670
12532SOL     OW38565   0.236   4.194   0.334 -0.0415 -0.1836 -0.1518
12532SOL    HW138566   0.258   4.123   0.273 -1.9933 -0.0868 -1.0404
12532SOL    HW238567   0.143   4.182   0.353  0.1498  0.7189  1.6343
12533SOL     OW38568   2.160   3.711   3.905  0.3536 -0.2246 -0.1772
12533SOL    HW138569   2.168   3.709   4.000 -0.3770  1.9212 -0.0194
12533SOL    HW238570   2.080   3.662   3.886  0.2376 -0.2467  0.3646
12534SOL     OW38571   5.683   2.506   6.521 -0.2488  0.1287 -0.1078
12534SOL    HW138572   5.604   2.477   6.475 -0.0467  0.8557 -0.9358
12534SOL    HW238573   5.742   2.431   6.516 -0.8496 -0.3924  0.4506
12535SOL     OW38574   5.555   6.933   3.706  0.8590  0.1347 -1.0993
12535SOL    HW138575   5.573   6.839   3.711  0.7344  0.1635  0.3426
12535SOL    HW238576   5.481   6.940   3.646 -0.0764 -0.8645 -0.1221
12536SOL     OW38577   4.245   1.307   6.388 -0.1748  0.3777  0.5943
12536SOL    HW138578   4.240   1.267   6.475  0.9270  0.1782  0.5738
12536SOL    HW238579   4.276   1.396   6.405 -2.4907  1.2479  0.6298
12537SOL     OW38580   2.362   3.650   3.717  0.3563  0.1954  0.0598
12537SOL    HW138581   2.413   3.717   3.671 -0.8464  0.6197 -0.7024
12537SOL    HW238582   2.292   3.699   3.760 -0.2325 -0.5239 -0.0790
12538SOL     OW38583   3.076   1.142   0.673 -0.5675  0.2231  0.0953
12538SOL    HW138584   3.112   1.231   0.670 -0.7696  0.2994 -0.0809
12538SOL    HW238585   3.100   1.110   0.760  0.2059  0.1513 -0.1457
12539SOL     OW38586   4.346   1.181   3.180 -0.2897  0.4657  0.0154
12539SOL    HW138587   4.401   1.179   3.259 -0.3431 -0.0278  0.0380
12539SOL    HW238588   4.355   1.271   3.148 -0.1988  0.6459  0.5345
12540SOL     OW38589   5.623   5.368   7.307  0.6209  0.4628  0.1728
12540SOL    HW138590   5.554   5.433   7.298  0.1710  0.1935  1.5346
12540SOL    HW238591   5.625   5.324   7.221 -0.4248  0.9297 -0.1079
12541SOL     OW38592   1.228   1.637   2.260 -0.1776  0.5519 -0.4823
12541SOL    HW138593   1.233   1.554   2.308  0.0169  0.1945 -1.1136
12541SOL    HW238594   1.314   1.677   2.272  0.5059 -0.3773 -2.0096
12542SOL     OW38595   5.749   0.162   1.361  0.5979 -0.2458  0.1092
12542SOL    HW138596   5.683   0.103   1.398 -1.0381  0.8329 -0.9545
12542SOL    HW238597   5.787   0.206   1.437 -1.9238  1.1400  0.6845
12543SOL     OW38598   2.707   1.241   5.811  0.3083 -0.3250 -0.6363
12543SOL    HW138599   2.765   1.299   5.760  0.9951 -2.4158 -2.4106
12543SOL    HW238600   2.660   1.190   5.745 -1.2886 -0.8439  0.8326
12544SOL     OW38601   1.793   4.520   2.503 -0.1967  0.1461  0.3330
12544SOL    HW138602   1.760   4.483   2.585  1.7787 -1.3235  0.5604
12544SOL    HW238603   1.747   4.472   2.434 -3.8389  3.1615  0.3446
12545SOL     OW38604   5.132   0.342   2.147  0.0827  0.3661  0.4466
12545SOL    HW138605   5.065   0.284   2.185  2.1958 -2.0008  0.8178
12545SOL    HW238606   5.120   0.333   2.053  0.3853 -0.6999  0.5029
12546SOL     OW38607   4.858   5.024   2.495  0.0090 -0.4311 -0.2675
12546SOL    HW138608   4.826   4.968   2.566 -3.2155  0.7564 -0.6072
12546SOL    HW238609   4.838   4.975   2.415 -0.0847 -0.0663 -0.4690
12547SOL     OW38610   1.392   2.739   1.931 -0.4393 -0.2439 -0.2086
12547SOL    HW138611   1.408   2.662   1.985 -0.3051 -0.3687 -0.4264
12547SOL    HW238612   1.451   2.729   1.856 -0.0297  0.3365  0.0288
12548SOL     OW38613   3.742   3.597   0.012 -0.4949  0.0545 -0.0095
12548SOL    HW138614   3.773   3.562  -0.071 -0.6149  0.3502 -0.1818
12548SOL    HW238615   3.793   3.677   0.025 -0.0310 -0.3183  0.5136
12549SOL     OW38616   3.321   4.805   4.188  0.3872 -0.3068  0.7158
12549SOL    HW138617   3.311   4.900   4.193 -0.8175 -0.4340  1.0279
12549SOL    HW238618   3.231   4.771   4.186  0.7654 -1.3604 -1.0235
12550SOL     OW38619   0.860   0.663   1.695 -0.3736 -0.3456  0.8125
12550SOL    HW138620   0.845   0.721   1.620 -1.3334  0.1150  1.3381
12550SOL    HW238621   0.923   0.710   1.750 -0.0931 -0.4338  0.5684
12551SOL     OW38622   2.155   0.627   4.071 -0.4177  0.0257  0.0671
12551SOL    HW138623   2.074   0.594   4.108 -0.0115 -0.3059  0.6677
12551SOL    HW238624   2.209   0.650   4.146  0.5771 -1.0434 -0.2861
12552SOL     OW38625   5.953   3.092   2.066 -0.8076  0.0634  0.0483
12552SOL    HW138626   6.037   3.052   2.087 -1.0394 -0.5486 -0.1560
12552SOL    HW238627   5.971   3.186   2.065  0.3408 -0.1084 -1.8911
12553SOL     OW38628   5.320   1.375   4.596  0.6055  0.2237 -0.5620
12553SOL    HW138629   5.398   1.417   4.559  1.0334  0.1369  0.2248
12553SOL    HW238630   5.262   1.448   4.617  1.0478  0.3884  0.1263
12554SOL     OW38631   0.996   4.968   5.610 -0.0897  0.7528  0.1788
12554SOL    HW138632   1.045   5.033   5.660  0.8507 -0.3688  0.7797
12554SOL    HW238633   0.990   4.892   5.669  0.3639 -0.3191 -1.1079
12555SOL     OW38634   3.447   4.334   1.343  0.4110 -0.4489 -0.1394
12555SOL    HW138635   3.523   4.276   1.348  0.5007 -0.2795  0.5768
12555SOL    HW238636   3.385   4.288   1.286  0.7132 -0.9784 -0.0417
12556SOL     OW38637   1.657   6.570   1.695  0.2821  0.0038  0.0630
12556SOL    HW138638   1.739   6.523   1.708  0.6420  0.0145 -1.8719
12556SOL    HW238639   1.595   6.526   1.754  1.2405 -1.1553  0.2468
12557SOL     OW38640   3.079   5.476   5.858 -0.1939  0.8298 -0.1191
12557SOL    HW138641   3.055   5.422   5.782  1.9613  0.2670 -0.4663
12557SOL    HW238642   3.071   5.417   5.933 -0.5242  0.8547 -0.1310
12558SOL     OW38643   1.600   5.733   0.181 -0.2009 -0.1241  0.3633
12558SOL    HW138644   1.664   5.765   0.245 -1.0021  0.1447  1.0471
12558SOL    HW238645   1.551   5.665   0.228 -0.2500 -0.5241 -0.2448
12559SOL     OW38646   5.725   6.956   6.101  0.2684 -0.2752  0.2966
12559SOL    HW138647   5.805   6.926   6.144  0.7866  0.8307  0.1561
12559SOL    HW238648   5.675   6.999   6.170 -0.0859 -0.7440  0.3308
12560SOL     OW38649   2.792   4.619   4.120 -0.3602  0.3070 -0.0027
12560SOL    HW138650   2.796   4.707   4.081 -3.5291  0.6658  0.1950
12560SOL    HW238651   2.805   4.560   4.046 -2.0021  1.0027 -0.9186
12561SOL     OW38652   1.778   0.500   2.320 -0.1806 -0.5939 -0.6504
12561SOL    HW138653   1.726   0.431   2.279 -0.8904 -0.2733 -0.3018
12561SOL    HW238654   1.841   0.526   2.252 -1.7636  0.3993 -1.8223
12562SOL     OW38655   2.336   6.517   2.501  0.2110  0.6417 -0.5413
12562SOL    HW138656   2.369   6.593   2.550 -2.1240  0.5556  1.3576
12562SOL    HW238657   2.415   6.469   2.476  1.7108  3.1486 -0.9525
12563SOL     OW38658   5.212   0.729   6.436  0.0022  0.0615  0.1494
12563SOL    HW138659   5.205   0.753   6.528  0.9686  1.0543 -0.0047
12563SOL    HW238660   5.160   0.796   6.390 -2.4850 -1.7711  0.0780
12564SOL     OW38661   6.479   7.270   6.671  0.3210 -0.2827 -0.6586
12564SOL    HW138662   6.497   7.281   6.577 -1.7602  2.0726 -0.8992
12564SOL    HW238663   6.383   7.269   6.677  0.4125 -0.3058  1.4547
12565SOL     OW38664   3.276   2.935   4.031  0.4201  0.3173  0.1553
12565SOL    HW138665   3.181   2.930   4.023  0.3111  0.5386  1.1841
12565SOL    HW238666   3.309   2.890   3.953 -0.5179 -1.4665  0.7518
12566SOL     OW38667   1.541   1.902   3.955 -0.0159 -0.5194 -0.0199
12566SOL    HW138668   1.456   1.892   3.997  0.1816 -1.4404  0.1721
12566SOL    HW238669   1.565   1.814   3.926  0.3622 -0.0854 -1.0776
12567SOL     OW38670   3.907   2.565   0.173  0.7666  0.0218  0.0624
12567SOL    HW138671   3.910   2.655   0.205  2.6284  0.0304 -0.0318
12567SOL    HW238672   3.817   2.537   0.191  0.5813  1.3729  1.5521
12568SOL     OW38673   5.751   5.311   3.775  0.0393  0.2700 -0.3664
12568SOL    HW138674   5.761   5.260   3.695 -1.4145 -0.1481 -0.3132
12568SOL    HW238675   5.684   5.264   3.825 -1.7133  2.4260 -0.5274
12569SOL     OW38676   5.336   3.522   1.032 -0.1781 -0.5826 -0.4599
12569SOL    HW138677   5.398   3.535   1.103 -0.2762  1.0709 -0.6236
12569SOL    HW238678   5.349   3.432   1.004  2.0910 -0.3244 -0.4255
12570SOL     OW38679   1.586   7.025   1.922 -0.0447  0.4938  0.4620
12570SOL    HW138680   1.651   6.983   1.865  0.5377  0.1360  1.3633
12570SOL    HW238681   1.506   6.975   1.909  0.1056  0.3692  0.0146
12571SOL     OW38682   2.700   5.837   3.840  0.2869 -0.6328  0.2511
12571SOL    HW138683   2.702   5.845   3.935 -0.3566 -1.0494  0.3087
12571SOL    HW238684   2.681   5.744   3.825 -1.8538 -0.1602 -0.2411
12572SOL     OW38685   7.167   0.562   4.072 -0.1823  0.9574 -0.1441
12572SOL    HW138686   7.188   0.637   4.016  0.1687 -0.7615 -2.4530
12572SOL    HW238687   7.235   0.497   4.052 -0.3587  0.0555  1.9377
12573SOL     OW38688   4.990   2.119   0.620 -0.4236  0.3196  0.0186
12573SOL    HW138689   4.902   2.156   0.621 -0.3621  0.4927 -0.5481
12573SOL    HW238690   5.023   2.137   0.531  0.5730  1.2026  0.5371
12574SOL     OW38691   1.292   0.322   6.188  0.6137 -0.1737  0.2912
12574SOL    HW138692   1.259   0.243   6.230 -1.4068  1.0669  1.2177
12574SOL    HW238693   1.296   0.301   6.095  2.5851 -2.1173  0.7185
12575SOL     OW38694   6.109   1.127   3.736 -0.1419 -1.0403 -0.8899
12575SOL    HW138695   6.154   1.042   3.738  0.8538 -0.5563  1.5420
12575SOL    HW238696   6.017   1.105   3.748  0.2875 -1.8110  1.8360
12576SOL     OW38697   6.997   6.245   5.212  0.1138  0.3907 -0.0831
12576SOL    HW138698   6.930   6.298   5.257  1.1340  1.2026  0.5418
12576SOL    HW238699   6.984   6.157   5.245 -1.1135  0.3843 -0.5315
12577SOL     OW38700   1.079   5.996   1.548 -0.1777 -0.3169  0.1772
12577SOL    HW138701   1.174   5.990   1.558 -0.1599 -0.2888  0.0270
12577SOL    HW238702   1.060   5.952   1.465 -0.3825 -1.0201  0.5860
12578SOL     OW38703   2.895   2.752   0.894 -0.6095  0.3131  0.0166
12578SOL    HW138704   2.914   2.831   0.844 -0.2122  0.0379 -0.2716
12578SOL    HW238705   2.825   2.778   0.954 -0.3220  0.9468  0.0860
12579SOL     OW38706   2.749   2.027   6.972  0.1570  0.0693 -0.7014
12579SOL    HW138707   2.781   2.081   7.045 -0.0602 -1.5853  0.6997
12579SOL    HW238708   2.816   1.960   6.962 -1.0548 -1.2617 -0.2176
12580SOL     OW38709   1.395   2.812   2.612  0.5900  0.0603  0.5482
12580SOL    HW138710   1.335   2.821   2.538  0.0854  1.6951  1.1093
12580SOL    HW238711   1.472   2.864   2.588  0.5301  0.3906  1.0364
12581SOL     OW38712   3.233   1.172   3.063  1.0628 -0.2571  0.2006
12581SOL    HW138713   3.163   1.172   3.129 -0.3839 -1.0742 -1.2575
12581SOL    HW238714   3.267   1.082   3.065  0.3536 -0.5635 -0.7935
12582SOL     OW38715   3.856   6.062   3.429 -0.1946 -0.5971 -0.0894
12582SOL    HW138716   3.884   6.037   3.517 -0.7357 -0.5112  0.1090
12582SOL    HW238717   3.812   5.983   3.396 -2.0657  0.1144  0.6020
12583SOL     OW38718   4.682   3.454   0.643 -1.1149 -0.4882 -0.3479
12583SOL    HW138719   4.615   3.511   0.681 -1.3422 -0.7235 -0.3901
12583SOL    HW238720   4.765   3.495   0.667 -1.2426 -0.8009  0.6762
12584SOL     OW38721   4.142   2.290   5.354 -0.2849 -0.4526  0.3597
12584SOL    HW138722   4.191   2.371   5.355 -1.1355  0.0839  0.0325
12584SOL    HW238723   4.106   2.285   5.265 -1.7684 -0.2244  0.9192
12585SOL     OW38724   2.001   1.681   4.460  0.2163  0.0737 -0.0870
12585SOL    HW138725   1.977   1.631   4.538 -0.4980  0.6821  0.0963
12585SOL    HW238726   1.963   1.631   4.388 -0.9291  0.5816  0.1333
12586SOL     OW38727   4.181   0.537   3.743 -0.0228 -0.1715  0.0963
12586SOL    HW138728   4.112   0.585   3.790 -0.4627 -0.1627 -0.5452
12586SOL    HW238729   4.208   0.469   3.804 -0.0376  0.3265  0.6660
12587SOL     OW38730   5.130   2.435   7.372 -0.0560  0.3554 -0.2303
12587SOL    HW138731   5.063   2.479   7.319 -1.0698 -1.6767 -0.7537
12587SOL    HW238732   5.142   2.350   7.330  0.6282 -0.5239  1.6075
12588SOL     OW38733   1.883   0.242   1.517 -0.4137 -0.3868 -0.6691
12588SOL    HW138734   1.893   0.160   1.565 -0.6495  0.0248  0.1071
12588SOL    HW238735   1.792   0.268   1.533  0.1658  0.9539  0.6483
12589SOL     OW38736   0.324   1.567   0.511  0.2347  0.0415 -0.6835
12589SOL    HW138737   0.409   1.579   0.554  0.3644  2.0881 -1.4111
12589SOL    HW238738   0.275   1.647   0.532 -1.0002 -0.4877 -1.4297
12590SOL     OW38739   4.076   6.628   1.776 -0.0992 -0.0147 -0.1986
12590SOL    HW138740   4.083   6.723   1.769 -0.8653  0.1414  0.8723
12590SOL    HW238741   4.052   6.613   1.868 -0.1047 -1.2322 -0.3855
12591SOL     OW38742   1.642   3.000   1.061 -0.5622 -0.1208 -0.2093
12591SOL    HW138743   1.705   3.045   1.006 -1.1452 -0.4422 -1.1570
12591SOL    HW238744   1.691   2.975   1.139  0.5776 -0.7289 -1.1029
12592SOL     OW38745   3.436   5.793   0.457  0.2103  0.6435  0.3861
12592SOL    HW138746   3.433   5.715   0.402  0.5902  1.8196 -1.3664
12592SOL    HW238747   3.346   5.808   0.483  0.0023  0.1438 -0.0247
12593SOL     OW38748   4.791   1.657   5.141 -0.3223 -0.9613 -0.2689
12593SOL    HW138749   4.766   1.579   5.190  0.7332 -0.0196  1.8766
12593SOL    HW238750   4.797   1.627   5.050  0.3358 -3.4493  0.5228
12594SOL     OW38751   5.741   2.950   4.343  0.2309 -0.1323 -0.0555
12594SOL    HW138752   5.788   2.883   4.392 -0.1552 -0.8141 -0.6096
12594SOL    HW238753   5.766   2.935   4.252  0.1787  0.5098 -0.1812
12595SOL     OW38754   2.445   0.875   1.769 -0.3369 -0.8324  0.0952
12595SOL    HW138755   2.415   0.804   1.713  0.9769 -0.6903 -0.8544
12595SOL    HW238756   2.375   0.940   1.766 -1.4412 -1.9428  0.7787
12596SOL     OW38757   5.882   2.074   2.872 -0.3198  0.3015  0.6959
12596SOL    HW138758   5.798   2.071   2.825 -0.7539  1.8215  1.3042
12596SOL    HW238759   5.917   1.985   2.863 -1.8146 -0.2767  0.1137
12597SOL     OW38760   1.748   5.389   3.677  0.8570  0.2039 -0.3916
12597SOL    HW138761   1.842   5.397   3.689  1.0419 -0.1965 -1.4675
12597SOL    HW238762   1.729   5.436   3.596 -0.2050  2.0979  0.8893
12598SOL     OW38763   6.718   2.894   6.014  0.1447  0.1787 -0.1016
12598SOL    HW138764   6.781   2.937   6.071 -2.0095  0.8167  1.9610
12598SOL    HW238765   6.731   2.800   6.030  0.4552  0.3098  0.4175
12599SOL     OW38766   5.436   3.516   6.653  0.6331  0.2246  0.3415
12599SOL    HW138767   5.506   3.459   6.623  1.7539  1.1136  1.1508
12599SOL    HW238768   5.463   3.542   6.742 -0.2075  1.4046  0.2780
12600SOL     OW38769   6.879   5.790   5.023  0.1009 -0.0943 -0.2080
12600SOL    HW138770   6.938   5.865   5.023 -0.5725  0.4932 -1.9906
12600SOL    HW238771   6.791   5.829   5.025 -0.2478 -0.8406 -0.5704
12601SOL     OW38772   2.079   3.099   4.474 -0.0385 -0.4466 -0.1912
12601SOL    HW138773   2.130   3.062   4.401  0.3144  2.0268 -1.3053
12601SOL    HW238774   2.008   3.036   4.487 -0.7842 -0.4776 -3.4956
12602SOL     OW38775   2.879   3.343   3.393 -0.2186  0.2967 -0.0824
12602SOL    HW138776   2.789   3.329   3.422 -0.1046 -1.1091 -0.3314
12602SOL    HW238777   2.932   3.329   3.471 -0.1718  0.5064 -0.0757
12603SOL     OW38778   5.094   1.651   0.118  0.2979 -0.3516  0.4692
12603SOL    HW138779   5.060   1.574   0.164 -1.4577  0.2513  0.2698
12603SOL    HW238780   5.034   1.722   0.141  0.7981  0.5321 -0.7978
12604SOL     OW38781   3.753   4.898   2.613  0.2175  0.2337 -0.4617
12604SOL    HW138782   3.715   4.981   2.584  0.5602  0.7126  0.4353
12604SOL    HW238783   3.685   4.833   2.594 -0.6506  0.9253  0.1875
12605SOL     OW38784   4.076   2.981   6.825 -0.1365  0.3760 -0.2033
12605SOL    HW138785   4.025   3.036   6.884  0.8654  0.6656  0.4270
12605SOL    HW238786   4.166   3.010   6.838  0.1491  0.1551 -1.5828
12606SOL     OW38787   1.814   5.638   5.290 -0.0994  0.0176 -0.2588
12606SOL    HW138788   1.897   5.603   5.323  0.5418  1.1873 -0.5878
12606SOL    HW238789   1.790   5.706   5.353 -0.0692  0.6681 -0.9429
12607SOL     OW38790   2.841   0.582   0.587 -0.0573 -0.8161  0.4256
12607SOL    HW138791   2.889   0.500   0.596  1.6397  0.2687  1.9272
12607SOL    HW238792   2.755   0.564   0.625  0.3927 -1.8100  1.0069
12608SOL     OW38793   6.207   6.307   4.034  0.1234  0.0283 -0.1716
12608SOL    HW138794   6.140   6.330   3.970  0.4548  0.7251 -0.2787
12608SOL    HW238795   6.197   6.213   4.046  0.3831 -0.2054 -1.6217
12609SOL     OW38796   2.390   6.501   4.148  0.3568 -0.2493  0.0214
12609SOL    HW138797   2.326   6.477   4.081  0.8844 -0.3296 -0.4570
12609SOL    HW238798   2.337   6.532   4.221 -0.1967  2.0886 -1.2638
12610SOL     OW38799   7.120   6.097   3.087  0.2722  0.0681 -0.9771
12610SOL    HW138800   7.109   6.118   2.994 -1.3585  1.1661 -0.5836
12610SOL    HW238801   7.100   6.180   3.132 -1.5825 -1.0912  0.4632
12611SOL     OW38802   2.328   3.930   0.948  0.0864 -0.5364 -0.1692
12611SOL    HW138803   2.276   3.882   0.884 -0.8490 -0.6393  0.6595
12611SOL    HW238804   2.290   3.908   1.032  2.2770 -1.6615  0.6139
12612SOL     OW38805   5.054   5.878   6.314  0.1720 -0.2363 -0.7039
12612SOL    HW138806   5.044   5.783   6.307 -0.4034 -0.0715 -2.5286
12612SOL    HW238807   5.043   5.911   6.225  1.1866  1.4878 -0.2478
12613SOL     OW38808   0.198   3.831   4.983 -0.0936  0.2039 -0.6230
12613SOL    HW138809   0.242   3.759   4.937  0.1005 -0.3494  0.4170
12613SOL    HW238810   0.107   3.823   4.957  0.2719  1.0062 -2.3344
12614SOL     OW38811   0.735   4.866   6.959  0.3140 -0.4831 -0.0657
12614SOL    HW138812   0.783   4.922   7.021 -0.1374  0.2500 -0.3626
12614SOL    HW238813   0.661   4.920   6.932  0.0516 -1.1156 -0.6137
12615SOL     OW38814   6.165   5.609   2.842  0.5609  1.1848  0.6450
12615SOL    HW138815   6.134   5.679   2.898  0.4814  0.1296  1.9710
12615SOL    HW238816   6.094   5.594   2.779  0.2073  1.6686  0.9320
12616SOL     OW38817   0.247   6.916   6.777 -0.0610 -0.2478 -0.1003
12616SOL    HW138818   0.324   6.972   6.763  0.1694 -0.7928 -1.1628
12616SOL    HW238819   0.263   6.873   6.861  0.4961  0.1108 -0.0179
12617SOL     OW38820   5.562   5.220   1.846  0.5402 -0.0143  0.1180
12617SOL    HW138821   5.527   5.271   1.773 -0.5533 -0.9987 -0.0718
12617SOL    HW238822   5.516   5.254   1.923  1.1375  0.5028  0.2563
12618SOL     OW38823   1.072   6.399   0.174 -0.2001 -0.7745 -0.3894
12618SOL    HW138824   0.985   6.387   0.136 -0.6614 -0.1708  0.4583
12618SOL    HW238825   1.106   6.479   0.133 -0.9335  0.2064  0.8449
12619SOL     OW38826   5.281   1.617   7.286 -0.6382 -0.4325 -0.2666
12619SOL    HW138827   5.228   1.645   7.360  1.0141  2.0441  0.0938
12619SOL    HW238828   5.371   1.642   7.310  0.2093 -1.3194 -2.2883
12620SOL     OW38829   4.882   7.040   1.434 -0.0914  0.2359  0.2581
12620SOL    HW138830   4.901   6.981   1.361  0.6686 -1.4183  1.7193
12620SOL    HW238831   4.801   7.084   1.409 -1.6278 -2.6108 -0.2594
12621SOL     OW38832   3.564   2.382   5.260  0.2964 -0.3679  0.1402
12621SOL    HW138833   3.505   2.318   5.300 -1.2640  1.1449  0.3903
12621SOL    HW238834   3.549   2.462   5.311  0.7438  0.7116 -1.3720
12622SOL     OW38835   4.645   0.697   3.044  0.0790 -0.1720  0.2033
12622SOL    HW138836   4.611   0.622   2.996  0.0381  0.5256 -0.8871
12622SOL    HW238837   4.618   0.773   2.992  1.3025  0.5240  0.5433
12623SOL     OW38838   5.843   6.093   2.070 -0.2584 -0.9324  0.5778
12623SOL    HW138839   5.788   6.016   2.052 -1.1633  0.0125 -0.8101
12623SOL    HW238840   5.787   6.150   2.123 -0.6298  0.0053 -0.7888
12624SOL     OW38841   6.717   3.613   5.242  0.2203  0.0599  0.6414
12624SOL    HW138842   6.695   3.655   5.158  1.7840  0.4252  0.3802
12624SOL    HW238843   6.645   3.637   5.300 -2.1765 -2.1421 -1.1530
12625SOL     OW38844   3.120   3.727   1.391  0.7110 -0.5435 -0.1426
12625SOL    HW138845   3.101   3.670   1.316  2.1012 -2.4378  0.8834
12625SOL    HW238846   3.143   3.668   1.462  1.7170  1.2851  1.1417
12626SOL     OW38847   1.562   0.867   2.116  0.1745  0.3445  0.2816
12626SOL    HW138848   1.588   0.926   2.045 -0.8768  0.3008 -0.1592
12626SOL    HW238849   1.536   0.786   2.071 -1.6587  0.7147  0.5647
12627SOL     OW38850   0.946   5.572   0.063 -0.0919 -0.4072 -0.3471
12627SOL    HW138851   1.004   5.564   0.139  1.1985 -1.3305 -1.3753
12627SOL    HW238852   0.865   5.609   0.098  1.3510  1.6682  1.0429
12628SOL     OW38853   5.073   2.961   4.096 -0.1247 -0.1694  0.5146
12628SOL    HW138854   5.130   3.001   4.161 -0.6665  1.6483 -0.0858
12628SOL    HW238855   5.133   2.913   4.038  0.6147  0.3532  0.8343
12629SOL     OW38856   0.818   6.584   4.294  0.0380  0.6505  0.1759
12629SOL    HW138857   0.830   6.668   4.250  0.7588 -0.1145 -1.1433
12629SOL    HW238858   0.852   6.519   4.232 -0.3909 -0.6090  1.2152
12630SOL     OW38859   1.556   0.851   1.326 -0.4959  0.0560  0.1342
12630SOL    HW138860   1.545   0.756   1.331 -0.6027 -0.0010 -0.8772
12630SOL    HW238861   1.589   0.866   1.237  1.2930  0.8091  0.8864
12631SOL     OW38862   2.290   0.570   0.217  0.4890 -0.2433 -0.4976
12631SOL    HW138863   2.354   0.522   0.165 -0.1411 -2.0825  0.3517
12631SOL    HW238864   2.342   0.614   0.285  1.0872  0.4192 -1.3633
12632SOL     OW38865   6.094   2.842   6.631  0.0713 -0.3093  0.0612
12632SOL    HW138866   6.005   2.859   6.598 -0.0033 -1.4509 -0.3847
12632SOL    HW238867   6.097   2.884   6.717 -0.4778  0.8249 -0.4564
12633SOL     OW38868   5.604   0.741   1.447  0.0011 -0.1490  0.6433
12633SOL    HW138869   5.529   0.725   1.504  0.9341 -1.5416  1.5712
12633SOL    HW238870   5.680   0.717   1.501  1.0216  0.0447 -0.6581
12634SOL     OW38871   2.217   2.220   1.265 -0.3422  0.9232  0.7295
12634SOL    HW138872   2.140   2.238   1.212  1.3101  0.3437 -2.1006
12634SOL    HW238873   2.229   2.125   1.258  0.5038  0.9773  1.2772
12635SOL     OW38874   6.950   6.803   2.335 -0.4316 -0.2928 -0.8396
12635SOL    HW138875   7.013   6.815   2.406 -1.1717  0.1292 -0.2350
12635SOL    HW238876   6.937   6.708   2.330  1.1911 -0.4970 -1.8318
12636SOL     OW38877   0.457   6.627   7.232  0.0935 -0.5713 -0.0474
12636SOL    HW138878   0.418   6.692   7.173  0.2571 -0.8188 -0.4376
12636SOL    HW238879   0.451   6.666   7.319 -0.2341 -0.2371 -0.2184
12637SOL     OW38880   1.461   6.933   4.216  0.4187 -0.1183  0.5940
12637SOL    HW138881   1.550   6.912   4.188  0.1507  0.5771 -0.8685
12637SOL    HW238882   1.406   6.867   4.173 -0.1541  1.8526 -1.9003
12638SOL     OW38883   5.789   1.993   2.437  0.4662 -0.3024  0.3805
12638SOL    HW138884   5.809   2.077   2.478  1.1311  0.4423 -1.3822
12638SOL    HW238885   5.696   1.978   2.455  0.3359  0.8200  0.6691
12639SOL     OW38886   6.861   2.085   6.865  0.4150 -0.0812 -0.3334
12639SOL    HW138887   6.861   2.106   6.772  0.5836 -1.7836 -0.7504
12639SOL    HW238888   6.897   1.996   6.870  0.5739  0.0417  1.3727
12640SOL     OW38889   6.118   0.384   6.546  0.3749  0.3398  0.4989
12640SOL    HW138890   6.044   0.337   6.584 -0.0580  0.7869  0.2234
12640SOL    HW238891   6.186   0.318   6.535 -0.2372 -0.2252  0.0758
12641SOL     OW38892   7.049   1.794   4.908  0.1243  0.1054  0.0627
12641SOL    HW138893   7.042   1.716   4.853  0.6202 -0.1091  0.3005
12641SOL    HW238894   7.045   1.867   4.846 -0.2346 -0.1084 -0.1721
12642SOL     OW38895   3.108   2.197   3.229  0.4469 -0.1071 -0.0003
12642SOL    HW138896   3.054   2.203   3.150  1.1057  1.6826 -0.3679
12642SOL    HW238897   3.198   2.204   3.197  0.8620 -1.7109  0.7239
12643SOL     OW38898   6.964   5.533   4.983 -0.5837 -0.4511  0.2856
12643SOL    HW138899   6.905   5.467   5.017  0.6715 -1.5323  0.4404
12643SOL    HW238900   6.936   5.614   5.026 -1.5556 -1.0408  0.8059
12644SOL     OW38901   5.047   6.119   2.565 -0.0400 -0.1754  0.0539
12644SOL    HW138902   5.051   6.051   2.632 -1.7150 -2.0176 -1.5835
12644SOL    HW238903   5.019   6.074   2.486 -1.1129  2.4126 -1.1732
12645SOL     OW38904   2.836   4.436   4.855 -0.4055 -0.0176 -0.6175
12645SOL    HW138905   2.820   4.437   4.949 -0.7984  0.1583 -0.6851
12645SOL    HW238906   2.922   4.394   4.845 -0.6672 -0.6543 -0.2280
12646SOL     OW38907   3.488   5.613   2.623  0.0877 -0.3285  0.6162
12646SOL    HW138908   3.436   5.691   2.601 -0.8377 -0.9415  0.5989
12646SOL    HW238909   3.532   5.590   2.541  1.1924  0.7685  0.8680
12647SOL     OW38910   4.847   0.626   5.937  0.0306  0.2515 -0.1019
12647SOL    HW138911   4.866   0.690   6.005  0.1744 -0.3867  0.4554
12647SOL    HW238912   4.814   0.549   5.983  1.5953 -0.7706 -0.6096
12648SOL     OW38913   4.040   3.290   5.244  0.0740 -0.4973 -0.4134
12648SOL    HW138914   3.990   3.265   5.166 -0.2393 -1.5803  0.1150
12648SOL    HW238915   4.131   3.279   5.218  0.2239  3.1564 -1.9607
12649SOL     OW38916   4.118   4.769   4.927  0.3935  0.3727  0.3964
12649SOL    HW138917   4.070   4.786   4.845  1.7809 -0.3638 -0.6232
12649SOL    HW238918   4.062   4.708   4.975  0.3937 -0.6847 -0.8802
12650SOL     OW38919   5.949   2.501   6.438  0.3453  0.0261 -0.0990
12650SOL    HW138920   5.933   2.562   6.366 -1.6621 -1.9691 -1.4611
12650SOL    HW238921   6.001   2.431   6.399  2.4211  0.6450  1.3818
12651SOL     OW38922   3.269   6.981   0.532 -0.0103  0.2367  0.1043
12651SOL    HW138923   3.243   6.902   0.485 -0.3219 -0.7178  1.8088
12651SOL    HW238924   3.365   6.980   0.530  0.0405 -1.0566  1.4249
12652SOL     OW38925   1.973   6.162   2.462 -0.3202  0.3253  0.0688
12652SOL    HW138926   1.920   6.084   2.473 -0.3111  0.4993  1.6334
12652SOL    HW238927   1.910   6.235   2.467 -0.0013  0.5273  1.8301
12653SOL     OW38928   1.153   2.193   2.102  0.1067  0.0722  0.1613
12653SOL    HW138929   1.177   2.110   2.061 -0.1796  1.5052 -3.2414
12653SOL    HW238930   1.081   2.170   2.162 -1.3072 -1.9195 -2.1293
12654SOL     OW38931   2.192   1.789   3.847  0.3398 -0.2342 -0.0442
12654SOL    HW138932   2.207   1.868   3.899 -1.3935  0.3137 -0.3044
12654SOL    HW238933   2.161   1.725   3.911  1.5621 -0.6826  0.1340
12655SOL     OW38934   3.579   1.309   5.000  0.2784  0.2276  0.4068
12655SOL    HW138935   3.623   1.393   4.991  0.4712  0.0275 -0.6176
12655SOL    HW238936   3.650   1.248   5.021  0.4525 -0.0192 -0.8233
12656SOL     OW38937   6.024   0.870   2.854  0.0188  0.2125  0.0605
12656SOL    HW138938   5.954   0.834   2.909  1.6967 -2.6857  0.5563
12656SOL    HW238939   6.001   0.843   2.765 -0.6366  1.2888 -0.1002
12657SOL     OW38940   2.417   1.222   3.829  0.1142  0.1346 -0.0833
12657SOL    HW138941   2.378   1.261   3.908  0.8083 -1.5921  1.1766
12657SOL    HW238942   2.379   1.135   3.824  1.1436 -0.2943 -0.8385
12658SOL     OW38943   1.287   1.128   5.629  0.3355  0.1080  0.6140
12658SOL    HW138944   1.268   1.197   5.566  0.2045 -0.5531 -0.0854
12658SOL    HW238945   1.292   1.173   5.714 -1.5009  0.7297  0.4355
12659SOL     OW38946   4.449   5.835   1.009 -0.5550 -0.2756  0.0451
12659SOL    HW138947   4.521   5.772   1.006 -0.3059  0.0261 -0.5068
12659SOL    HW238948   4.370   5.781   1.010 -0.4724 -0.6768 -3.0885
12660SOL     OW38949   6.055   2.288   3.143  0.3169  0.0669 -0.3812
12660SOL    HW138950   5.978   2.332   3.180  1.3869  2.2446 -0.5606
12660SOL    HW238951   6.101   2.253   3.219  0.1529  0.4794 -0.0877
12661SOL     OW38952   7.207   3.520   2.317 -0.1430  0.0594 -0.1959
12661SOL    HW138953   7.219   3.444   2.374  0.0930 -0.4953 -0.9663
12661SOL    HW238954   7.237   3.490   2.231 -1.1303  0.6671 -0.7700
12662SOL     OW38955   2.834   6.104   3.831  0.0114  0.2977 -0.3929
12662SOL    HW138956   2.758   6.050   3.809 -0.2722  1.1098 -1.4762
12662SOL    HW238957   2.797   6.177   3.881  0.1543  0.4004 -0.4385
12663SOL     OW38958   0.734   4.010   0.924 -0.5990 -0.4486  0.1225
12663SOL    HW138959   0.666   3.991   0.988 -1.2113 -1.4786 -0.7810
12663SOL    HW238960   0.799   4.062   0.971 -1.2995 -0.7009  1.4007
12664SOL     OW38961   3.436   1.037   4.104 -0.1977  0.0990  1.0983
12664SOL    HW138962   3.402   1.125   4.085 -0.0922  0.4239  2.3686
12664SOL    HW238963   3.402   1.016   4.191 -1.1533 -1.5937  0.3866
12665SOL     OW38964   0.329   4.817   3.012  0.5311 -0.4460  0.1159
12665SOL    HW138965   0.267   4.797   2.941 -0.4514  0.2536  0.7549
12665SOL    HW238966   0.307   4.906   3.039 -0.0491 -1.1828  2.2303
12666SOL     OW38967   2.695   3.707   0.753  0.0350 -0.8706  0.1130
12666SOL    HW138968   2.603   3.733   0.744  0.1001 -0.8582 -0.5272
12666SOL    HW238969   2.738   3.743   0.676  0.8006  0.0760  0.9498
12667SOL     OW38970   2.301   4.405   5.239  0.3625  0.1065  0.2266
12667SOL    HW138971   2.299   4.320   5.195 -1.8215  0.0295  0.3439
12667SOL    HW238972   2.227   4.402   5.300  0.1167  2.1620  0.1008
12668SOL     OW38973   4.517   4.335   7.325 -0.0031 -0.3478  0.2232
12668SOL    HW138974   4.451   4.280   7.282  0.1948 -1.0784  0.8492
12668SOL    HW238975   4.468   4.413   7.353  0.1964  1.0973 -2.9635
12669SOL     OW38976   6.043   3.801   1.308 -0.6720  0.4174 -0.0633
12669SOL    HW138977   6.095   3.877   1.279  1.2087 -0.9597 -0.4935
12669SOL    HW238978   6.094   3.764   1.379 -1.8121 -0.2113  0.4491
12670SOL     OW38979   2.376   3.335   5.007  0.7700  0.0986  0.0087
12670SOL    HW138980   2.422   3.310   4.927  2.3562 -0.2724  0.9834
12670SOL    HW238981   2.434   3.307   5.078  0.6038  2.6164  1.2552
12671SOL     OW38982   4.901   5.619   5.112 -0.3944  0.6481  0.4539
12671SOL    HW138983   4.832   5.554   5.096  0.3482  0.0161 -0.2306
12671SOL    HW238984   4.853   5.702   5.120 -1.5961 -0.2110  3.6029
12672SOL     OW38985   4.949   7.067   6.313  0.0078  0.2442 -0.4285
12672SOL    HW138986   4.878   7.118   6.350  1.0089  1.1457  0.3277
12672SOL    HW238987   4.911   7.022   6.238 -0.9718  1.9247 -0.9696
12673SOL     OW38988   2.376   1.316   4.729  0.0731 -0.5015 -0.3130
12673SOL    HW138989   2.295   1.335   4.777  0.1725  1.7721 -0.9385
12673SOL    HW238990   2.442   1.372   4.769  1.1428 -1.5958 -0.4731
12674SOL     OW38991   5.070   3.659   0.878 -0.4438  0.0284 -0.2188
12674SOL    HW138992   5.113   3.574   0.867 -0.6982 -0.0594 -0.5388
12674SOL    HW238993   5.070   3.674   0.973  0.3467  0.0600 -0.2138
12675SOL     OW38994   4.399   6.862   2.099  0.1167 -0.0682 -0.7562
12675SOL    HW138995   4.307   6.887   2.104  0.0480 -0.5418  0.6637
12675SOL    HW238996   4.410   6.795   2.165  1.6685  0.5671 -0.3161
12676SOL     OW38997   1.804   3.640   4.493  0.0402  0.2957 -0.1109
12676SOL    HW138998   1.751   3.562   4.483  0.4742  0.1558 -1.5610
12676SOL    HW238999   1.752   3.697   4.549 -1.4828  0.0026 -1.1466
12677SOL     OW39000   0.846   6.404   0.633  0.1719 -0.7093 -0.1099
12677SOL    HW139001   0.919   6.358   0.674  0.5561  0.0144  0.0304
12677SOL    HW239002   0.803   6.338   0.579  0.7351 -1.2201  0.0617
12678SOL     OW39003   7.062   1.762   7.128  0.1275 -0.1514  0.0284
12678SOL    HW139004   7.057   1.670   7.101  0.4629 -0.2590  0.3314
12678SOL    HW239005   6.987   1.774   7.186  0.2798 -0.3261  0.2630
12679SOL     OW39006   6.308   6.871   1.885  0.4869 -0.2160 -0.9403
12679SOL    HW139007   6.388   6.881   1.938  0.0409 -0.9188 -0.1175
12679SOL    HW239008   6.253   6.945   1.912 -0.2815 -1.2886  0.5974
12680SOL     OW39009   2.112   4.053   4.926 -0.2681 -0.3907  0.0231
12680SOL    HW139010   2.026   4.019   4.899  0.0555  0.4295 -2.3073
12680SOL    HW239011   2.167   4.041   4.848  0.7326  2.4115  0.2070
12681SOL     OW39012   0.188   6.256   1.550  0.0174 -0.1020 -0.4812
12681SOL    HW139013   0.189   6.198   1.626 -0.1794 -0.8126 -1.0064
12681SOL    HW239014   0.151   6.203   1.479 -1.9260  1.1992 -0.5458
12682SOL     OW39015   0.213   6.602   1.405 -0.4254 -0.1064 -0.0972
12682SOL    HW139016   0.269   6.577   1.478 -0.7072 -0.3823  0.0312
12682SOL    HW239017   0.273   6.629   1.336 -0.1629  2.6153  1.0615
12683SOL     OW39018   1.965   5.600   2.228 -0.7569 -0.2984  0.4989
12683SOL    HW139019   1.968   5.505   2.241 -1.0490 -0.2329  1.0974
12683SOL    HW239020   1.924   5.611   2.142 -0.1532 -0.7239  0.1510
12684SOL     OW39021   5.062   2.976   1.602  0.3396 -0.4253  0.2332
12684SOL    HW139022   4.972   2.989   1.575  0.0483 -0.1198  1.2918
12684SOL    HW239023   5.098   3.064   1.609  0.2576 -0.4607  1.2798
12685SOL     OW39024   0.427   6.008   2.147  0.1125  0.0991 -0.0435
12685SOL    HW139025   0.505   5.969   2.186  2.3195  2.8806 -1.3386
12685SOL    HW239026   0.399   5.945   2.081  0.7578 -1.2885  0.9483
12686SOL     OW39027   4.131   1.721   5.365  0.2112  0.0192 -0.2344
12686SOL    HW139028   4.202   1.669   5.325  0.6310 -0.3602  0.9484
12686SOL    HW239029   4.057   1.661   5.369  0.4897 -0.2879  0.5028
12687SOL     OW39030   0.887   2.586   1.263 -0.2532 -0.3044 -0.1914
12687SOL    HW139031   0.963   2.573   1.320 -0.3468 -3.6222 -0.6561
12687SOL    HW239032   0.915   2.556   1.177 -2.0298 -1.5092 -0.3962
12688SOL     OW39033   2.773   5.358   6.761  1.0564 -0.2420  0.8520
12688SOL    HW139034   2.699   5.359   6.822 -0.9933 -1.0458 -1.4580
12688SOL    HW239035   2.820   5.278   6.782  0.6421 -0.2889  1.6426
12689SOL     OW39036   6.440   0.096   0.541 -0.5993 -0.6589 -0.3366
12689SOL    HW139037   6.535   0.102   0.550 -0.4340 -2.1511 -0.8048
12689SOL    HW239038   6.426   0.054   0.456 -1.6454 -1.5059  0.2261
12690SOL     OW39039   4.621   4.281   1.661  0.0106 -0.2453 -0.4555
12690SOL    HW139040   4.572   4.363   1.661  1.2643  0.5303  0.2235
12690SOL    HW239041   4.677   4.287   1.738 -0.3777 -2.0598  0.0032
12691SOL     OW39042   3.068   4.752   2.856  0.4223 -0.7714  0.0826
12691SOL    HW139043   3.043   4.693   2.784 -0.2771 -0.0537 -0.2847
12691SOL    HW239044   3.008   4.730   2.927  0.4028 -0.7575  0.0706
12692SOL     OW39045   6.383   4.103   5.882 -0.9633 -0.1215  0.2340
12692SOL    HW139046   6.287   4.110   5.884 -0.9302  0.2934  0.5414
12692SOL    HW239047   6.400   4.031   5.822 -1.5211 -1.1385  1.2601
12693SOL     OW39048   5.619   1.048   1.124 -0.7342  0.1673  0.5578
12693SOL    HW139049   5.599   0.995   1.201 -2.1700 -0.0619  0.0462
12693SOL    HW239050   5.655   0.987   1.060  0.8250  0.4200  1.1363
12694SOL     OW39051   4.253   1.377   6.709  0.3115  0.8818 -0.2389
12694SOL    HW139052   4.339   1.356   6.745 -0.5480 -1.7601  0.5145
12694SOL    HW239053   4.194   1.311   6.746 -2.0568  2.5473 -0.7682
12695SOL     OW39054   4.422   6.218   5.335 -0.3032 -0.1120 -0.1043
12695SOL    HW139055   4.353   6.241   5.273 -0.9313 -0.2284  0.5418
12695SOL    HW239056   4.376   6.187   5.412  0.4788 -1.9418 -0.3106
12696SOL     OW39057   2.596   1.771   2.405 -0.3285  0.0110  0.3925
12696SOL    HW139058   2.691   1.782   2.398 -0.3466 -0.2488 -0.2846
12696SOL    HW239059   2.576   1.793   2.496  0.1160  2.1186  0.0526
12697SOL     OW39060   0.759   7.347   7.312  0.6208  0.2306  0.5993
12697SOL    HW139061   0.808   7.304   7.382 -0.9445 -0.5569  1.2581
12697SOL    HW239062   0.682   7.293   7.299 -0.2249  1.5589 -0.2278
12698SOL     OW39063   6.224   0.249   1.797 -0.6022  0.2807  0.0296
12698SOL    HW139064   6.247   0.319   1.858  1.1780  0.3422 -0.6631
12698SOL    HW239065   6.294   0.185   1.806 -0.5440  0.0699 -1.6118
12699SOL     OW39066   3.759   2.930   2.956  0.4853  0.4248 -0.8692
12699SOL    HW139067   3.700   2.934   2.881  0.4174  0.3575 -0.8193
12699SOL    HW239068   3.825   2.997   2.938 -0.4632  1.6037 -0.1803
12700SOL     OW39069   3.064   3.172   2.293  0.7040  0.3627 -0.0481
12700SOL    HW139070   3.147   3.159   2.248  0.8670  1.6218 -0.1307
12700SOL    HW239071   3.082   3.151   2.385  1.0654  0.4628 -0.0967
12701SOL     OW39072   5.258   5.533   6.820 -0.3846  0.2228  0.2992
12701SOL    HW139073   5.210   5.466   6.869 -0.0766 -0.1339  0.1191
12701SOL    HW239074   5.200   5.609   6.821 -0.7542 -0.0552  0.4828
12702SOL     OW39075   4.636   2.495   4.823  0.1981  0.2380 -0.4132
12702SOL    HW139076   4.540   2.487   4.826  0.0677  1.7759  0.4706
12702SOL    HW239077   4.665   2.461   4.908  0.3524  0.7641 -0.2570
12703SOL     OW39078   2.405   2.142   4.964 -0.0520 -0.1427 -0.3164
12703SOL    HW139079   2.455   2.115   5.041  2.0541 -1.1196 -1.9274
12703SOL    HW239080   2.315   2.151   4.996  1.0607  1.7243  2.7327
12704SOL     OW39081   1.988   4.042   1.079 -0.5459  0.0998 -0.3160
12704SOL    HW139082   1.966   3.967   1.134 -0.1039  0.1998  0.0075
12704SOL    HW239083   2.084   4.045   1.080 -0.5327  0.1106 -1.0892
12705SOL     OW39084   0.356   0.889   6.270 -0.2120 -0.1681  0.6319
12705SOL    HW139085   0.339   0.930   6.355 -1.4756  3.4150 -1.1322
12705SOL    HW239086   0.450   0.876   6.269  0.1450  1.7770  1.8123
12706SOL     OW39087   1.607   1.156   1.144  0.5852 -0.1831 -0.3287
12706SOL    HW139088   1.623   1.103   1.066  1.6039 -1.5920  0.7862
12706SOL    HW239089   1.650   1.108   1.215 -1.6866  0.2099  1.4176
12707SOL     OW39090   6.733   4.790   3.481 -0.0474  0.4500 -0.7491
12707SOL    HW139091   6.731   4.773   3.387  0.6809  0.3220 -0.7505
12707SOL    HW239092   6.716   4.884   3.489  1.7995  0.8614 -1.1596
12708SOL     OW39093   4.377   3.961   0.809 -0.1752  0.0844  0.6456
12708SOL    HW139094   4.325   3.936   0.732  0.4144  0.7579  0.0183
12708SOL    HW239095   4.468   3.948   0.781  0.1395  2.3735  0.4805
12709SOL     OW39096   5.073   6.684   3.201  0.5689 -0.1462  0.0545
12709SOL    HW139097   5.004   6.737   3.161  0.8839  0.6703  0.5690
12709SOL    HW239098   5.112   6.636   3.128  0.8892  1.0432 -0.5895
12710SOL     OW39099   1.549   0.591   1.640  0.0227 -0.3045  0.6320
12710SOL    HW139100   1.474   0.533   1.652  1.3913 -1.9123  2.0223
12710SOL    HW239101   1.595   0.588   1.724  1.2000  1.3024  0.0972
12711SOL     OW39102   1.273   6.467   4.704  0.5770  0.4746  0.0292
12711SOL    HW139103   1.333   6.511   4.644  0.2625 -0.9477 -1.3801
12711SOL    HW239104   1.283   6.515   4.787  0.5225  2.9703 -1.2895
12712SOL     OW39105   6.740   2.659   1.914  0.2582 -0.1409 -0.2802
12712SOL    HW139106   6.790   2.726   1.867  0.2791 -0.5163 -0.7999
12712SOL    HW239107   6.680   2.623   1.848 -0.2478 -0.1403  0.1778
12713SOL     OW39108   3.172   5.640   2.881 -0.2083 -0.5133  0.0986
12713SOL    HW139109   3.217   5.557   2.897  0.0620 -0.8407 -2.0605
12713SOL    HW239110   3.091   5.614   2.837  1.2451  0.4104 -3.4546
12714SOL     OW39111   2.732   1.575   0.954 -0.2806 -0.1279 -0.0847
12714SOL    HW139112   2.757   1.535   1.037 -0.1624  1.1104  0.5108
12714SOL    HW239113   2.724   1.502   0.893  0.8064 -0.9413  0.7140
12715SOL     OW39114   7.219   2.278   2.162 -0.4179 -0.3287  0.0223
12715SOL    HW139115   7.247   2.369   2.155  0.1877 -0.5950 -1.3110
12715SOL    HW239116   7.227   2.243   2.073 -1.3563 -1.4822  0.3585
12716SOL     OW39117   2.197   2.029   6.895 -0.1899  0.4405 -0.0387
12716SOL    HW139118   2.264   1.984   6.946 -0.4577 -0.0798 -0.1471
12716SOL    HW239119   2.115   1.987   6.920 -0.4331  0.8142 -0.1981
12717SOL     OW39120   0.417   3.342   1.006  0.2284 -0.1366  0.0738
12717SOL    HW139121   0.393   3.251   1.024 -0.4355  0.2568  1.3014
12717SOL    HW239122   0.513   3.342   1.007  0.2436 -0.9154 -0.4652
12718SOL     OW39123   5.464   5.409   5.368 -0.0286  0.3225 -0.5178
12718SOL    HW139124   5.382   5.411   5.418 -0.3059 -0.5422 -0.9163
12718SOL    HW239125   5.479   5.501   5.344 -1.1152  0.4497 -0.7922
12719SOL     OW39126   4.862   3.865   1.205  0.1606  0.0815 -0.7663
12719SOL    HW139127   4.953   3.842   1.225 -0.0824  0.3116  0.7510
12719SOL    HW239128   4.811   3.811   1.265 -0.6604  0.6141 -0.9773
12720SOL     OW39129   0.813   4.034   4.194 -0.4328  0.4944  0.2215
12720SOL    HW139130   0.882   3.975   4.223 -1.0777 -1.0060 -1.1224
12720SOL    HW239131   0.850   4.078   4.118 -0.3398  1.0424  0.5768
12721SOL     OW39132   7.263   6.364   4.184 -0.3399  0.3192  0.7476
12721SOL    HW139133   7.357   6.348   4.182 -0.5277 -0.8590 -0.7632
12721SOL    HW239134   7.226   6.283   4.220 -0.8567  0.2206  0.0065
12722SOL     OW39135   5.889   1.964   6.791  0.1191  0.5918 -0.5151
12722SOL    HW139136   5.929   2.050   6.805 -1.1730  1.2210 -0.5645
12722SOL    HW239137   5.813   1.963   6.849  0.9604 -1.1404  0.6580
12723SOL     OW39138   5.468   2.955   1.598  0.6549  0.0240  0.0074
12723SOL    HW139139   5.429   2.942   1.512 -0.0313 -0.2845  0.3588
12723SOL    HW239140   5.499   3.046   1.597 -1.2408  0.7268  0.1539
12724SOL     OW39141   4.433   1.376   4.336  0.0711 -0.2302 -0.1002
12724SOL    HW139142   4.526   1.356   4.348  0.1254  0.5103  0.8462
12724SOL    HW239143   4.427   1.408   4.246  1.0995  1.4766  0.3838
12725SOL     OW39144   4.235   4.947   0.508 -0.2987 -0.1724 -0.0829
12725SOL    HW139145   4.182   4.928   0.430  1.5073  1.6717 -1.8796
12725SOL    HW239146   4.250   5.041   0.505  2.7706 -0.5192  0.4523
12726SOL     OW39147   3.191   3.373   2.512  0.3815  0.5159 -0.8043
12726SOL    HW139148   3.198   3.440   2.580 -0.7781  0.9716 -1.1274
12726SOL    HW239149   3.271   3.321   2.522  0.1031  0.3826  1.1085
12727SOL     OW39150   2.394   5.021   3.115 -0.2690 -0.1222 -0.6027
12727SOL    HW139151   2.334   4.946   3.117  0.7673 -0.9867 -1.3288
12727SOL    HW239152   2.481   4.983   3.122  0.3380  0.9406 -1.9793
12728SOL     OW39153   2.085   0.463   4.350  0.1447 -0.0573  0.5803
12728SOL    HW139154   1.994   0.451   4.324 -0.1369  1.7014  0.6358
12728SOL    HW239155   2.132   0.391   4.309 -1.2830 -1.0598  0.6489
12729SOL     OW39156   1.323   6.752   1.585 -0.1438  0.5560  0.2402
12729SOL    HW139157   1.299   6.666   1.621 -0.8016 -0.0673 -1.5580
12729SOL    HW239158   1.325   6.738   1.490  0.0948  2.4568 -0.0658
12730SOL     OW39159   0.328   3.594   0.774 -0.2789 -0.7027 -0.0849
12730SOL    HW139160   0.419   3.617   0.756 -0.3188 -1.7586 -1.8099
12730SOL    HW239161   0.334   3.521   0.836  0.0936 -1.3109 -0.8193
12731SOL     OW39162   3.182   1.733   2.413  0.1773  0.7172  0.2124
12731SOL    HW139163   3.277   1.736   2.418  0.2881 -1.1408  0.0684
12731SOL    HW239164   3.160   1.644   2.440 -1.3957  0.5520 -1.4505
12732SOL     OW39165   0.234   1.628   6.584 -0.4075  0.1283  0.1805
12732SOL    HW139166   0.279   1.576   6.518 -0.1426  0.9276 -0.2855
12732SOL    HW239167   0.211   1.565   6.653  1.0902 -0.3696  0.2603
12733SOL     OW39168   0.324   0.497   2.098 -0.0049 -0.8987 -0.2605
12733SOL    HW139169   0.378   0.420   2.079 -0.9772 -1.3039 -1.4560
12733SOL    HW239170   0.271   0.510   2.020 -1.8857 -0.7027  0.9893
12734SOL     OW39171   0.433   6.013   6.097  0.1145 -0.2703 -0.6778
12734SOL    HW139172   0.450   6.047   6.184  0.2476 -0.3851 -0.6578
12734SOL    HW239173   0.517   5.975   6.069  0.0259 -0.3896 -0.7837
12735SOL     OW39174   4.165   1.548   1.669  0.2836  0.5963  0.1877
12735SOL    HW139175   4.170   1.644   1.670  2.1237  0.5533 -0.4196
12735SOL    HW239176   4.090   1.527   1.724 -0.1685  2.3924  0.3078
12736SOL     OW39177   1.374   4.378   1.331  0.5307 -0.0225 -0.1155
12736SOL    HW139178   1.366   4.287   1.358  0.9987  0.6600  2.5536
12736SOL    HW239179   1.440   4.416   1.389  2.0225  1.5307 -2.5925
12737SOL     OW39180   6.359   2.653   2.218 -0.7252  0.2650  0.0761
12737SOL    HW139181   6.324   2.631   2.304 -0.1696  1.9500  0.7517
12737SOL    HW239182   6.415   2.578   2.195 -1.4597 -0.5370  0.8147
12738SOL     OW39183   2.327   1.496   6.190 -0.8096 -0.0606 -0.2369
12738SOL    HW139184   2.397   1.527   6.133 -1.6375 -0.2636 -1.4011
12738SOL    HW239185   2.364   1.420   6.234 -1.1100 -1.8520 -2.8694
12739SOL     OW39186   2.753   4.424   2.364  1.0509  0.2416 -0.4132
12739SOL    HW139187   2.847   4.441   2.357  0.6961  2.3346 -0.7278
12739SOL    HW239188   2.726   4.470   2.444  0.3241 -0.5562 -0.1805
12740SOL     OW39189   1.418   3.561   4.651  0.3454  0.1133  0.0982
12740SOL    HW139190   1.457   3.576   4.565  1.4878  2.1886  0.8945
12740SOL    HW239191   1.350   3.627   4.659  0.2474 -0.0597  0.7745
12741SOL     OW39192   2.835   3.870   1.465 -0.1428  0.5757 -0.4181
12741SOL    HW139193   2.800   3.798   1.517 -1.0592 -0.0919 -1.8936
12741SOL    HW239194   2.760   3.907   1.419  0.7367  0.4218 -2.0986
12742SOL     OW39195   0.132   0.987   6.518 -0.1688  0.1899 -0.4127
12742SOL    HW139196   0.095   1.050   6.579  0.8842  0.6731 -0.2649
12742SOL    HW239197   0.189   0.932   6.571 -1.7961 -1.5554 -0.3445
12743SOL     OW39198   0.498   6.380   1.978  0.2666  0.1247  0.2936
12743SOL    HW139199   0.491   6.469   1.944 -0.0710  0.4154  1.0980
12743SOL    HW239200   0.535   6.330   1.906 -0.4224  0.7186 -0.5033
12744SOL     OW39201   0.411   7.380   2.470 -0.3310  0.4446  0.1710
12744SOL    HW139202   0.458   7.448   2.519  3.3838 -0.3130 -1.9842
12744SOL    HW239203   0.330   7.423   2.443  0.1435  2.7388  1.9953
12745SOL     OW39204   3.164   3.363   4.406 -0.1530  0.5619  0.6884
12745SOL    HW139205   3.204   3.432   4.458 -1.2923 -0.7332  3.5125
12745SOL    HW239206   3.093   3.405   4.359  1.0983  1.8460 -0.1083
12746SOL     OW39207   5.999   4.525   3.111  0.1038 -0.1896 -0.2652
12746SOL    HW139208   5.916   4.499   3.070  0.4094 -0.5917 -0.6333
12746SOL    HW239209   5.977   4.533   3.204 -0.0873 -1.4460 -0.1819
12747SOL     OW39210   7.196   2.107   4.448  0.4245  0.1253 -0.0905
12747SOL    HW139211   7.196   2.011   4.452  1.2070  0.0463 -1.4352
12747SOL    HW239212   7.112   2.133   4.487 -0.3319 -1.1574 -0.8160
12748SOL     OW39213   1.488   0.950   6.405  0.4435 -0.2699  0.0053
12748SOL    HW139214   1.466   1.001   6.327  0.7221 -1.9004 -1.1997
12748SOL    HW239215   1.582   0.933   6.397  0.2139 -1.6246 -0.0605
12749SOL     OW39216   4.991   3.755   5.470  0.2747 -0.6803 -0.6608
12749SOL    HW139217   4.986   3.806   5.551  0.4259 -1.9364  0.1620
12749SOL    HW239218   4.902   3.721   5.457  0.2217 -0.3863 -1.0932
12750SOL     OW39219   1.460   7.211   6.082 -0.0277 -0.2030  0.8733
12750SOL    HW139220   1.505   7.144   6.032  0.3616  1.3989 -1.0420
12750SOL    HW239221   1.367   7.197   6.064  0.1303  0.6686 -0.8157
12751SOL     OW39222   1.681   4.553   2.981 -0.3946 -0.0956 -0.3332
12751SOL    HW139223   1.705   4.539   3.073 -0.0627  0.6916 -0.2905
12751SOL    HW239224   1.704   4.644   2.964  2.1283 -0.9340 -1.9756
12752SOL     OW39225   4.525   6.954   1.183  0.0461 -0.5779  0.7754
12752SOL    HW139226   4.497   6.874   1.226  0.3947 -1.8094 -1.1599
12752SOL    HW239227   4.444   7.001   1.164 -0.3177 -1.3732  0.3047
12753SOL     OW39228   1.119   2.720   6.884  0.2057  0.5336  0.1292
12753SOL    HW139229   1.117   2.697   6.791  1.6696  0.4126  0.1078
12753SOL    HW239230   1.185   2.789   6.890  0.6317  0.0586  1.1768
12754SOL     OW39231   2.010   6.181   6.026  0.2254  0.1411  0.3391
12754SOL    HW139232   1.935   6.124   6.045  2.1085 -2.4533  0.5365
12754SOL    HW239233   2.076   6.156   6.090  1.6938  1.5029 -0.5673
12755SOL     OW39234   7.277   5.300   5.865  0.1953  0.5368 -0.3505
12755SOL    HW139235   7.209   5.299   5.932  0.1314 -1.2811 -0.4122
12755SOL    HW239236   7.231   5.281   5.783  0.9967 -3.5476 -0.0558
12756SOL     OW39237   2.890   1.717   1.308  0.0542  0.2032  0.2325
12756SOL    HW139238   2.830   1.770   1.256 -2.3814 -0.5612  2.0755
12756SOL    HW239239   2.897   1.763   1.392  1.6180 -0.0328  0.2584
12757SOL     OW39240   0.650   5.492   1.828 -0.2042 -0.0991 -0.1630
12757SOL    HW139241   0.585   5.489   1.898 -1.0780  0.6831 -0.9023
12757SOL    HW239242   0.723   5.541   1.866 -0.2815 -0.4741  0.4903
12758SOL     OW39243   7.159   7.040   6.610  0.5741 -0.2484 -0.1730
12758SOL    HW139244   7.234   7.010   6.661 -0.0427  0.6356  1.3054
12758SOL    HW239245   7.184   7.127   6.579 -0.8627  1.3535  2.7931
12759SOL     OW39246   1.820   0.830   4.374 -0.4638  0.0645  0.1568
12759SOL    HW139247   1.753   0.782   4.325  0.6971  1.3286 -2.9546
12759SOL    HW239248   1.851   0.767   4.440 -1.0950 -2.3927 -1.7189
12760SOL     OW39249   2.106   4.901   4.726 -0.5040 -0.0470  0.0401
12760SOL    HW139250   2.167   4.887   4.653  1.7030 -0.9679  1.8997
12760SOL    HW239251   2.103   4.816   4.771 -2.4285  0.2670  0.5975
12761SOL     OW39252   1.830   1.738   0.898 -0.0959 -0.2431 -0.4938
12761SOL    HW139253   1.912   1.688   0.904  0.3523  0.4817 -0.4831
12761SOL    HW239254   1.773   1.697   0.963  1.0700  0.7322  1.2485
12762SOL     OW39255   6.349   7.182   2.682 -0.1537 -0.1568  0.3700
12762SOL    HW139256   6.314   7.111   2.735 -1.7609  0.1419 -0.2517
12762SOL    HW239257   6.292   7.187   2.606  1.5166  0.0762 -0.9372
12763SOL     OW39258   6.152   1.555   5.310  0.5997  0.2713  0.7172
12763SOL    HW139259   6.146   1.459   5.311 -0.4172  0.3230  0.7545
12763SOL    HW239260   6.125   1.582   5.398 -3.3514  0.7492 -0.4496
12764SOL     OW39261   3.583   1.865   4.756 -0.2254 -0.0632  0.0341
12764SOL    HW139262   3.641   1.793   4.734  1.0164  1.0373 -0.4731
12764SOL    HW239263   3.579   1.865   4.852 -0.8749 -1.2701  0.0123
12765SOL     OW39264   2.707   7.270   2.390 -0.3381  0.2673 -0.0365
12765SOL    HW139265   2.762   7.240   2.462 -0.7474  1.2500  0.6915
12765SOL    HW239266   2.628   7.216   2.396 -0.5036  0.5645  0.4391
12766SOL     OW39267   4.562   1.970   6.704  0.5573  0.4919  0.3956
12766SOL    HW139268   4.505   2.038   6.667 -0.7562 -1.8867 -2.3543
12766SOL    HW239269   4.529   1.956   6.792  0.2354  2.6459  0.6824
12767SOL     OW39270   7.266   5.044   5.949  0.3334  0.2731  0.0968
12767SOL    HW139271   7.323   5.039   6.026 -0.4464  1.4900  0.7873
12767SOL    HW239272   7.277   5.133   5.916 -0.5898  0.2922 -0.2016
12768SOL     OW39273   5.579   3.562   1.646  0.2259  0.0951  0.2076
12768SOL    HW139274   5.618   3.570   1.733  0.2188  1.4883  0.1008
12768SOL    HW239275   5.508   3.627   1.645  0.7102  0.6456 -1.0807
12769SOL     OW39276   4.133   1.599   2.140 -0.0550 -0.3236 -0.2110
12769SOL    HW139277   4.165   1.509   2.128  0.0941 -0.3117  0.1025
12769SOL    HW239278   4.075   1.594   2.215  1.1829  0.1484  0.8109
12770SOL     OW39279   5.882   2.701   2.257 -0.3519 -0.1697 -0.5542
12770SOL    HW139280   5.966   2.670   2.222 -0.5193 -0.7424 -0.4501
12770SOL    HW239281   5.879   2.667   2.346  0.6119  2.2645  0.4912
12771SOL     OW39282   5.744   3.609   7.011 -0.0901  0.0980  0.1536
12771SOL    HW139283   5.777   3.690   6.973  0.7630 -0.0342  0.5986
12771SOL    HW239284   5.810   3.544   6.991 -1.1570 -0.7042 -0.9309
12772SOL     OW39285   3.386   6.459   5.042 -0.1547 -0.3865 -0.3847
12772SOL    HW139286   3.433   6.431   5.121 -0.7294 -0.0165  0.1083
12772SOL    HW239287   3.450   6.508   4.992  0.1985 -0.5562 -0.1031
12773SOL     OW39288   1.264   1.571   1.808  0.1112  0.1122 -0.3402
12773SOL    HW139289   1.310   1.598   1.729 -0.5806  3.0105  0.1462
12773SOL    HW239290   1.173   1.597   1.793 -0.8100 -2.5625  0.0240
12774SOL     OW39291   2.899   2.922   4.908  0.0184  0.1078  0.2075
12774SOL    HW139292   2.906   2.857   4.978  2.2698  0.3305  0.2621
12774SOL    HW239293   2.911   2.872   4.827 -0.2259  0.1687  0.1343
12775SOL     OW39294   6.994   3.845   0.094  0.3184  0.1447 -0.4193
12775SOL    HW139295   6.971   3.752   0.085 -0.2276  0.2316  0.0100
12775SOL    HW239296   7.066   3.846   0.157  0.0146  0.0475 -0.0661
12776SOL     OW39297   0.771   2.333   3.208  0.2585  0.1866  0.2322
12776SOL    HW139298   0.845   2.322   3.268  1.4282  2.5709 -0.6159
12776SOL    HW239299   0.749   2.245   3.180  1.2337 -0.7900  2.2973
12777SOL     OW39300   7.366   6.694   2.681  0.1369  0.1254 -0.2165
12777SOL    HW139301   7.351   6.642   2.760 -0.2625 -0.5115 -0.7082
12777SOL    HW239302   7.456   6.675   2.656  0.5575  0.9882  0.5523
12778SOL     OW39303   7.349   0.632   4.297  0.0565 -0.3677  0.5178
12778SOL    HW139304   7.356   0.586   4.213  1.4331  0.6046  0.0474
12778SOL    HW239305   7.436   0.669   4.311 -0.6889  1.1606  1.3971
12779SOL     OW39306   6.139   2.945   0.791 -0.1365  0.1182 -0.2942
12779SOL    HW139307   6.070   3.010   0.798 -1.3108 -1.1871  0.9413
12779SOL    HW239308   6.178   2.940   0.878 -0.8586 -1.6140 -0.0270
12780SOL     OW39309   3.019   7.269   6.896  0.3166  0.8083 -0.1287
12780SOL    HW139310   3.091   7.299   6.840  0.1290 -0.8572 -1.3576
12780SOL    HW239311   3.062   7.226   6.970  0.5841  0.6241 -0.3898
12781SOL     OW39312   6.612   6.119   5.480 -0.2692  0.3706  0.8545
12781SOL    HW139313   6.662   6.198   5.458  0.1974  0.6289  2.6764
12781SOL    HW239314   6.669   6.046   5.458  0.8606  0.6579  2.6251
12782SOL     OW39315   0.976   0.847   5.928  0.3677  0.1349 -0.7196
12782SOL    HW139316   1.057   0.878   5.969 -0.7999 -0.3836  2.2111
12782SOL    HW239317   1.000   0.762   5.889  1.3589  0.2395 -0.3752
12783SOL     OW39318   1.141   4.109   3.292  0.4722  0.3348  0.2653
12783SOL    HW139319   1.095   4.070   3.218  1.0079  0.9108 -0.3849
12783SOL    HW239320   1.231   4.119   3.261  0.6535  0.7819  0.9251
12784SOL     OW39321   3.999   5.789   5.478 -0.4323  0.9572  0.6167
12784SOL    HW139322   3.923   5.823   5.525  0.0043  2.5261  0.2476
12784SOL    HW239323   4.068   5.783   5.544 -0.5523  0.6125  0.7147
12785SOL     OW39324   0.584   5.281   4.649 -0.6009  0.2628 -0.0218
12785SOL    HW139325   0.619   5.366   4.676  2.0554 -0.3617 -1.2148
12785SOL    HW239326   0.608   5.221   4.719 -1.3278  0.2337  0.2102
12786SOL     OW39327   3.067   6.126   0.387 -0.1159  0.4872 -0.3753
12786SOL    HW139328   3.117   6.114   0.306  1.0848  0.6667  0.3173
12786SOL    HW239329   2.977   6.138   0.357  0.2387  0.1709 -1.6623
12787SOL     OW39330   5.202   0.952   5.455 -0.1711 -0.3391  0.1133
12787SOL    HW139331   5.269   0.913   5.511  0.9521  0.5384 -0.5862
12787SOL    HW239332   5.120   0.913   5.486  0.6116 -1.2085  1.1850
12788SOL     OW39333   0.035   2.542   3.037 -0.0648  0.0086 -0.3394
12788SOL    HW139334   0.066   2.523   2.948  1.6052 -0.1134  0.2336
12788SOL    HW239335   0.038   2.458   3.083  0.6459  0.3402  0.2559
12789SOL     OW39336   5.741   1.284   1.964 -0.0515 -0.0351  0.0560
12789SOL    HW139337   5.659   1.260   2.008  2.3438 -0.0238  5.2388
12789SOL    HW239338   5.725   1.373   1.931 -1.9266  0.2943  1.6572
12790SOL     OW39339   4.936   6.537   3.386  0.3312  0.0623 -0.5440
12790SOL    HW139340   4.886   6.472   3.335 -0.3997  0.6093 -0.5433
12790SOL    HW239341   4.981   6.589   3.320  0.1141  0.1914 -0.5913
12791SOL     OW39342   2.642   6.482   3.508 -0.3660  0.2381 -0.0150
12791SOL    HW139343   2.592   6.437   3.441 -0.3731  0.6839 -0.3154
12791SOL    HW239344   2.690   6.413   3.554  0.7555  0.0653 -1.4035
12792SOL     OW39345   7.168   0.854   2.711 -0.1956  0.1598 -0.6190
12792SOL    HW139346   7.255   0.815   2.701 -0.1976  0.4857 -2.1579
12792SOL    HW239347   7.150   0.895   2.627 -1.6364  0.5421 -0.1600
12793SOL     OW39348   5.021   2.968   2.423 -0.5602  0.4712 -0.4945
12793SOL    HW139349   5.045   2.921   2.343 -1.9365 -0.5033 -0.3673
12793SOL    HW239350   5.045   3.059   2.405 -0.2236  0.1542 -1.7580
12794SOL     OW39351   6.156   1.637   7.125  0.1700 -0.5206 -0.4876
12794SOL    HW139352   6.166   1.704   7.057  1.3679  1.8162  1.7963
12794SOL    HW239353   6.071   1.658   7.166  0.1207 -0.9803 -0.3530
12795SOL     OW39354   4.301   2.980   2.939 -0.4274 -0.1812  0.2014
12795SOL    HW139355   4.369   3.043   2.914 -0.8948  0.8635  1.4080
12795SOL    HW239356   4.346   2.896   2.941  0.3658  0.1942 -0.8859
12796SOL     OW39357   3.594   6.445   5.919  0.2605  0.4081  0.0850
12796SOL    HW139358   3.627   6.535   5.910  0.7672  0.3187  0.9845
12796SOL    HW239359   3.669   6.390   5.897 -0.3670  0.1706 -1.6399
12797SOL     OW39360   3.288   2.207   4.753 -0.3129 -0.0749  0.1803
12797SOL    HW139361   3.238   2.152   4.813  0.6795 -1.4215 -0.1992
12797SOL    HW239362   3.370   2.225   4.799 -0.0496 -0.0913 -0.2740
12798SOL     OW39363   6.618   0.589   3.057  0.2419  0.3042  0.4333
12798SOL    HW139364   6.611   0.581   2.962 -0.1326  2.3366  0.2331
12798SOL    HW239365   6.605   0.501   3.091  0.0913 -0.3961 -1.3860
12799SOL     OW39366   1.749   5.207   6.420  0.1921  0.2117 -0.1844
12799SOL    HW139367   1.736   5.119   6.383 -2.4466 -0.4195  1.9221
12799SOL    HW239368   1.803   5.193   6.497 -0.5788  0.3496  0.3890
12800SOL     OW39369   7.285   5.845   1.657 -1.1091  0.6899  0.0652
12800SOL    HW139370   7.295   5.846   1.562  0.4702  0.2752  0.1909
12800SOL    HW239371   7.312   5.933   1.685  3.1295 -0.5289  0.4342
12801SOL     OW39372   5.533   4.320   3.007  0.1747 -0.1610 -0.2144
12801SOL    HW139373   5.496   4.267   3.078  0.5012 -1.5733 -1.0496
12801SOL    HW239374   5.628   4.309   3.016  0.2259 -0.1620 -0.7143
12802SOL     OW39375   3.154   5.638   4.815 -0.5984  0.1482 -0.8711
12802SOL    HW139376   3.062   5.649   4.790 -0.9786 -1.1053 -0.0990
12802SOL    HW239377   3.174   5.547   4.793 -0.7093 -0.8086  2.4263
12803SOL     OW39378   3.477   1.895   3.017 -0.2549  0.2839  0.2160
12803SOL    HW139379   3.441   1.984   3.023 -1.1158 -0.0435  0.0784
12803SOL    HW239380   3.566   1.907   2.984 -1.0533  0.9668 -1.8408
12804SOL     OW39381   2.076   6.304   1.428  0.6425  0.2481 -0.6727
12804SOL    HW139382   2.034   6.225   1.393 -1.2387  0.2746  1.3305
12804SOL    HW239383   2.139   6.329   1.360 -1.6920 -0.5180 -3.3322
12805SOL     OW39384   5.297   2.745   5.952 -0.5721  0.2149 -0.0866
12805SOL    HW139385   5.360   2.673   5.960 -0.3224  0.4852  0.4173
12805SOL    HW239386   5.346   2.823   5.976 -0.9126  0.5230 -0.3817
12806SOL     OW39387   0.188   6.455   1.060  0.2733  0.0402  0.2892
12806SOL    HW139388   0.238   6.455   1.142  0.2011 -1.2603  0.3576
12806SOL    HW239389   0.164   6.363   1.046  1.0998  0.0663 -1.6909
12807SOL     OW39390   0.420   2.659   5.474  0.0562 -0.3574  0.2107
12807SOL    HW139391   0.398   2.738   5.523  0.1781  0.1336 -0.5125
12807SOL    HW239392   0.456   2.599   5.540  1.5413  0.8058  0.4926
12808SOL     OW39393   5.659   6.600   0.204 -0.4797 -0.2335  0.3518
12808SOL    HW139394   5.666   6.522   0.259 -2.1183  0.0899  1.0845
12808SOL    HW239395   5.600   6.576   0.134  0.9513 -0.3794 -0.8534
12809SOL     OW39396   3.526   1.040   4.789  0.3211 -0.5036  0.1722
12809SOL    HW139397   3.462   1.106   4.816  0.4299 -0.8643  1.3879
12809SOL    HW239398   3.532   0.981   4.864  2.3784 -0.2495  0.2622
12810SOL     OW39399   0.721   6.579   3.177  0.3386  0.1228  0.4929
12810SOL    HW139400   0.649   6.632   3.211 -0.7923  0.5736 -2.3396
12810SOL    HW239401   0.797   6.637   3.181  0.6494 -0.3076  3.3689
12811SOL     OW39402   4.301   3.316   3.879 -0.1187  0.7766  0.5180
12811SOL    HW139403   4.339   3.352   3.959  1.3681  1.1495 -0.3049
12811SOL    HW239404   4.358   3.349   3.809 -0.7203 -0.4386 -0.5851
12812SOL     OW39405   5.733   0.214   6.949  0.0399  0.1217 -0.0182
12812SOL    HW139406   5.823   0.187   6.933  0.3000  1.1487 -0.3901
12812SOL    HW239407   5.681   0.136   6.931  0.8891 -0.6427  0.7631
12813SOL     OW39408   0.364   7.000   3.927  0.4849 -0.1712 -0.4411
12813SOL    HW139409   0.371   6.941   4.002 -0.7219 -0.0968 -0.2487
12813SOL    HW239410   0.270   7.006   3.910  0.7205  0.0973 -1.7430
12814SOL     OW39411   3.304   5.261   6.743 -0.3264  0.0570  0.5129
12814SOL    HW139412   3.360   5.235   6.816  0.5415 -1.1705 -0.5508
12814SOL    HW239413   3.259   5.181   6.717 -1.9440  0.8356  0.7606
12815SOL     OW39414   3.641   0.395   1.090  0.0059 -0.1733 -0.4071
12815SOL    HW139415   3.657   0.434   1.004  1.8376  1.6521  0.6803
12815SOL    HW239416   3.720   0.346   1.110  0.1227  0.4456  0.7470
12816SOL     OW39417   3.432   5.051   1.381 -0.1664 -1.0424  0.4432
12816SOL    HW139418   3.385   5.093   1.453  0.9628  3.1226 -0.9369
12816SOL    HW239419   3.366   5.038   1.313 -0.2364  0.3604  0.2177
12817SOL     OW39420   1.640   6.183   0.267  0.6520 -0.5341  0.1174
12817SOL    HW139421   1.640   6.248   0.338 -0.3269  1.1490 -1.3438
12817SOL    HW239422   1.667   6.101   0.310 -2.3271 -0.2345  2.9850
12818SOL     OW39423   1.293   0.438   0.864 -0.4810  0.0455 -0.0572
12818SOL    HW139424   1.249   0.358   0.836 -1.9115  0.3865  1.1244
12818SOL    HW239425   1.280   0.499   0.791 -1.2207 -0.1485 -0.0988
12819SOL     OW39426   5.367   5.404   2.379  0.5117  0.0989  0.8285
12819SOL    HW139427   5.438   5.450   2.424  0.7433  0.0650  0.4990
12819SOL    HW239428   5.392   5.311   2.384  0.6048  0.1068  0.5141
12820SOL     OW39429   1.469   5.976   2.989 -0.0822  0.2030 -0.1037
12820SOL    HW139430   1.460   5.894   2.940  0.3952 -0.3300  0.6847
12820SOL    HW239431   1.388   5.982   3.040 -0.2513  0.3786 -0.3921
12821SOL     OW39432   2.309   5.781   0.218 -0.0817  0.3383 -0.6487
12821SOL    HW139433   2.278   5.699   0.179 -0.0962  0.2780 -0.5116
12821SOL    HW239434   2.271   5.782   0.306 -1.5897  1.3562 -1.2703
12822SOL     OW39435   2.056   3.985   3.928  0.3577 -0.1948  0.0397
12822SOL    HW139436   2.124   3.918   3.924  0.1427 -0.4920  1.0264
12822SOL    HW239437   2.032   4.001   3.837 -0.1039 -1.9938 -0.1955
12823SOL     OW39438   6.025   2.877   1.207 -0.2364 -0.4863 -0.5094
12823SOL    HW139439   5.966   2.930   1.154 -0.9267 -1.4657 -0.7518
12823SOL    HW239440   5.972   2.849   1.282  0.5058  0.2468  0.3100
12824SOL     OW39441   4.144   4.926   2.549 -0.1237 -0.1512  0.2710
12824SOL    HW139442   4.085   4.998   2.571  0.3043  0.4945 -0.5891
12824SOL    HW239443   4.100   4.847   2.580 -0.7179  0.4624  1.0080
12825SOL     OW39444   4.825   2.180   1.901  0.2517 -0.3567 -0.4828
12825SOL    HW139445   4.885   2.132   1.845  2.5059  1.7173 -0.0059
12825SOL    HW239446   4.788   2.248   1.844 -0.7503 -0.8623 -0.4615
12826SOL     OW39447   2.812   4.209   2.929  0.0905  0.6796 -0.3950
12826SOL    HW139448   2.883   4.146   2.932  0.5031  1.1635  0.8930
12826SOL    HW239449   2.828   4.261   2.850 -0.4366 -0.9911 -1.6449
12827SOL     OW39450   1.034   1.955   2.738 -0.1417 -0.3607 -0.3452
12827SOL    HW139451   1.080   1.907   2.807 -0.0848 -1.4520 -1.1295
12827SOL    HW239452   0.961   1.899   2.714 -1.0055  0.6625 -0.2028
12828SOL     OW39453   6.726   5.802   2.552 -0.3807 -0.2822  0.1100
12828SOL    HW139454   6.641   5.791   2.594  0.0173  2.2929  1.8404
12828SOL    HW239455   6.783   5.739   2.596 -1.0033 -0.8224  0.1511
12829SOL     OW39456   5.385   1.301   5.034  0.1594 -0.6604 -0.1400
12829SOL    HW139457   5.372   1.329   5.124 -3.3949 -0.9990 -0.3932
12829SOL    HW239458   5.306   1.251   5.013  1.0772 -1.0242 -3.2919
12830SOL     OW39459   1.558   5.477   2.212 -0.3022  0.5089 -0.4932
12830SOL    HW139460   1.576   5.458   2.120 -1.0884 -0.2797 -0.4918
12830SOL    HW239461   1.504   5.404   2.242  1.1308 -0.0003  0.9987
12831SOL     OW39462   2.923   3.238   3.147 -0.2318  0.4994 -0.5978
12831SOL    HW139463   2.830   3.261   3.145 -0.5892 -0.7618  0.3355
12831SOL    HW239464   2.954   3.270   3.232  0.0841  0.5610 -0.7356
12832SOL     OW39465   4.051   6.458   2.828 -0.2000 -0.6661 -0.5977
12832SOL    HW139466   4.105   6.489   2.755 -0.3982 -0.8340 -0.8183
12832SOL    HW239467   4.035   6.365   2.808  0.5898 -0.9855  0.1731
12833SOL     OW39468   4.626   4.260   5.926  0.0370  0.1608  0.1363
12833SOL    HW139469   4.608   4.234   6.016  0.6124  1.1145  0.5447
12833SOL    HW239470   4.586   4.192   5.873 -0.9814 -0.0181  1.0959
12834SOL     OW39471   6.382   5.449   2.943  0.2275  0.1242  0.1428
12834SOL    HW139472   6.340   5.367   2.967  0.4372 -0.8165 -2.4100
12834SOL    HW239473   6.309   5.506   2.917  0.2151  0.1879  0.3102
12835SOL     OW39474   2.065   6.970   4.783  0.2715 -0.1322  0.1725
12835SOL    HW139475   1.985   7.020   4.769  0.6286  1.1946  2.4030
12835SOL    HW239476   2.038   6.878   4.778 -1.3145  0.3012  0.5064
12836SOL     OW39477   1.480   2.018   2.733 -0.4464  0.2853  0.0147
12836SOL    HW139478   1.450   1.935   2.698  0.8854  0.2170 -1.0123
12836SOL    HW239479   1.414   2.081   2.704 -1.7927 -0.4542  1.3073
12837SOL     OW39480   2.989   2.232   2.125 -0.0166 -0.2996  0.1137
12837SOL    HW139481   3.074   2.247   2.165 -1.0901 -0.6044  2.7460
12837SOL    HW239482   2.978   2.304   2.063 -0.0969  3.2104  3.7854
12838SOL     OW39483   3.012   2.028   2.773  0.1858 -0.4471 -0.5374
12838SOL    HW139484   2.931   2.017   2.723 -0.5039 -3.4503  0.9905
12838SOL    HW239485   3.080   1.990   2.716  0.3900  1.0925 -1.3680
12839SOL     OW39486   5.109   4.886   2.598 -0.3650  0.6956  0.2671
12839SOL    HW139487   5.028   4.867   2.644  0.7631 -0.9061  1.7317
12839SOL    HW239488   5.108   4.828   2.522 -1.0484  1.4707 -0.3381
12840SOL     OW39489   2.045   0.932   6.283 -0.4925  0.2194  0.1960
12840SOL    HW139490   2.140   0.934   6.267 -0.3990 -0.4517  0.6522
12840SOL    HW239491   2.036   0.907   6.374 -1.0929  1.7329  0.5927
12841SOL     OW39492   3.500   4.138   6.233  0.1957 -0.0269 -0.5610
12841SOL    HW139493   3.563   4.076   6.270  0.1614  1.0241  1.4095
12841SOL    HW239494   3.434   4.148   6.301 -1.8142 -0.5950 -2.3225
12842SOL     OW39495   2.341   4.805   0.111 -0.1544 -0.9993  0.2957
12842SOL    HW139496   2.322   4.791   0.204 -0.1503 -0.5350  0.3653
12842SOL    HW239497   2.256   4.791   0.068 -0.9227  1.8758  0.6844
12843SOL     OW39498   7.241   1.913   1.211  0.0124  0.2697 -0.0794
12843SOL    HW139499   7.235   1.954   1.125  1.9721 -0.7499 -0.7656
12843SOL    HW239500   7.178   1.960   1.265 -0.4246  1.7020 -1.7609
12844SOL     OW39501   0.301   3.480   6.847  0.1707 -0.0841  0.4850
12844SOL    HW139502   0.371   3.464   6.910  0.1281 -3.0297 -0.0770
12844SOL    HW239503   0.341   3.534   6.780  1.8752 -1.5043  0.3053
12845SOL     OW39504   3.156   4.551   1.102  0.3000  0.1848  0.3724
12845SOL    HW139505   3.190   4.601   1.176 -0.7411  1.9186 -0.2511
12845SOL    HW239506   3.221   4.562   1.033  0.5957 -0.2546  0.5770
12846SOL     OW39507   1.534   4.750   4.458 -0.0102 -0.4660 -0.1139
12846SOL    HW139508   1.559   4.786   4.373 -0.4514 -3.7640 -1.7656
12846SOL    HW239509   1.441   4.730   4.450  0.1589 -1.7260  0.7893
12847SOL     OW39510   4.225   1.461   2.793 -0.2553  0.1957 -0.1841
12847SOL    HW139511   4.284   1.449   2.718  1.2421  0.1915  0.9395
12847SOL    HW239512   4.138   1.440   2.759  0.2340  1.1574 -2.1637
12848SOL     OW39513   1.661   7.111   6.798 -0.0622 -0.2605  0.0437
12848SOL    HW139514   1.711   7.039   6.761  0.2029 -0.3764  0.6177
12848SOL    HW239515   1.600   7.069   6.859 -1.2797 -0.1820 -1.0792
12849SOL     OW39516   3.261   2.521   3.209 -0.1785  0.2748 -0.0864
12849SOL    HW139517   3.355   2.543   3.214 -0.0683  0.1176 -1.2980
12849SOL    HW239518   3.221   2.599   3.169 -0.1111 -0.7547 -2.3036
12850SOL     OW39519   2.643   5.547   6.323 -0.0059 -0.5434  0.3769
12850SOL    HW139520   2.672   5.476   6.380 -3.1275 -0.7285  1.9549
12850SOL    HW239521   2.704   5.619   6.340  0.4378 -1.3326  2.3179
12851SOL     OW39522   1.574   5.988   4.416  0.1760 -0.4358 -0.1903
12851SOL    HW139523   1.566   5.948   4.329  0.2582 -0.3600 -0.2320
12851SOL    HW239524   1.502   5.949   4.466 -1.4580  1.3730 -1.0106
12852SOL     OW39525   1.921   3.692   5.688  0.2741 -0.3660 -0.4193
12852SOL    HW139526   1.886   3.612   5.650 -0.2711 -0.0156 -0.6702
12852SOL    HW239527   1.924   3.754   5.615 -1.7005  0.6225  0.2713
12853SOL     OW39528   5.313   4.013   4.080  0.3198  0.0612  0.0562
12853SOL    HW139529   5.313   4.074   4.006  1.3969  0.3183  0.2541
12853SOL    HW239530   5.229   4.027   4.122  0.2892  0.9582 -0.2739
12854SOL     OW39531   5.697   1.518   0.114 -0.9719  0.5788  0.5920
12854SOL    HW139532   5.670   1.508   0.206 -0.5508  2.9307  1.0315
12854SOL    HW239533   5.776   1.572   0.118 -0.6485  0.2838 -1.1440
12855SOL     OW39534   2.766   1.339   3.208 -0.5000  0.2228  0.3421
12855SOL    HW139535   2.823   1.317   3.281 -0.3898  1.1962  0.5536
12855SOL    HW239536   2.712   1.411   3.239  0.8810  1.9963 -1.1450
12856SOL     OW39537   4.294   1.512   3.545 -0.1928  0.2063  0.0362
12856SOL    HW139538   4.323   1.577   3.482 -1.5089 -0.8750 -1.7647
12856SOL    HW239539   4.199   1.524   3.550 -0.4944 -1.6572 -0.4866
12857SOL     OW39540   6.301   1.077   0.123  0.0514  0.2536 -0.0907
12857SOL    HW139541   6.225   1.064   0.065 -1.1860 -1.0237  1.7111
12857SOL    HW239542   6.263   1.110   0.204  1.6724  1.2632  0.3019
12858SOL     OW39543   4.014   6.465   4.529 -0.1050 -0.2402 -0.2500
12858SOL    HW139544   3.996   6.482   4.436 -1.4247 -0.4889 -0.0723
12858SOL    HW239545   4.031   6.551   4.567 -1.1592  0.0721 -0.4326
12859SOL     OW39546   4.161   4.502   1.602  0.2642 -0.4275  0.1799
12859SOL    HW139547   4.158   4.419   1.555 -0.9247 -0.8091  0.9029
12859SOL    HW239548   4.077   4.507   1.648 -0.6859  2.2203 -1.6028
12860SOL     OW39549   6.965   6.416   2.748 -0.4163  0.1739  0.0874
12860SOL    HW139550   6.915   6.410   2.667 -0.5150  2.9988 -0.1685
12860SOL    HW239551   6.912   6.471   2.805  0.3698 -0.4873  1.5099
12861SOL     OW39552   5.291   5.178   5.086  0.3003  0.2676  0.1585
12861SOL    HW139553   5.266   5.104   5.141  0.2766 -0.4813 -0.8214
12861SOL    HW239554   5.385   5.188   5.101  1.6763 -3.5863 -3.6547
12862SOL     OW39555   4.345   6.261   4.138 -0.3700  0.0294  0.3823
12862SOL    HW139556   4.310   6.267   4.049 -0.0828 -0.3644  0.2407
12862SOL    HW239557   4.294   6.324   4.188 -0.1346  0.6851 -0.1900
12863SOL     OW39558   0.101   2.471   0.122 -0.0434  0.3501 -0.3099
12863SOL    HW139559   0.078   2.382   0.148 -1.5180  0.8485  0.1805
12863SOL    HW239560   0.137   2.510   0.201  1.4887 -0.0696 -0.7701
12864SOL     OW39561   4.973   5.980   3.043  0.7443 -0.2210  0.1786
12864SOL    HW139562   4.893   5.999   2.995  0.3048 -0.9382  0.6029
12864SOL    HW239563   4.951   5.905   3.099  1.7045 -0.4363  0.3024
12865SOL     OW39564   0.467   1.925   2.905 -0.4777 -0.5318  0.0717
12865SOL    HW139565   0.489   1.937   2.997 -0.3962  1.1003 -0.1358
12865SOL    HW239566   0.543   1.882   2.867 -0.2779 -0.6846  0.6357
12866SOL     OW39567   0.592   7.149   7.279  0.2299 -0.2319 -0.0096
12866SOL    HW139568   0.500   7.157   7.302  0.3042 -1.1537  0.6699
12866SOL    HW239569   0.595   7.075   7.218  0.6461 -0.9237  0.8299
12867SOL     OW39570   4.329   4.808   1.872  0.2884 -0.3265 -0.1781
12867SOL    HW139571   4.292   4.808   1.783 -0.9853  0.1021  0.3318
12867SOL    HW239572   4.353   4.717   1.887 -2.3069 -1.0552  0.1288
12868SOL     OW39573   2.342   6.069   5.524  0.6982 -0.5033  0.7133
12868SOL    HW139574   2.382   6.007   5.585 -0.2164 -0.6086  1.2250
12868SOL    HW239575   2.268   6.106   5.572  1.0748  0.8125  0.3295
12869SOL     OW39576   4.013   5.691   5.763 -1.0793 -0.3718  0.1973
12869SOL    HW139577   3.954   5.618   5.745 -0.0774 -1.7978  2.2999
12869SOL    HW239578   3.987   5.723   5.850  0.5681 -0.3776  0.7249
12870SOL     OW39579   3.312   2.309   1.205  0.3954  0.2082  0.5100
12870SOL    HW139580   3.259   2.358   1.142  1.2674  0.8807  0.2838
12870SOL    HW239581   3.319   2.222   1.167  4.0784  1.5163 -2.3853
12871SOL     OW39582   7.008   1.128   2.856  0.8731  0.0524  0.4564
12871SOL    HW139583   6.929   1.095   2.811  0.4494 -0.2980  1.4336
12871SOL    HW239584   6.977   1.202   2.906  1.4386  0.7219 -0.1637
12872SOL     OW39585   4.106   2.532   1.069  0.2428  0.1765 -0.3286
12872SOL    HW139586   4.135   2.467   1.005 -0.4145 -0.1340 -0.3140
12872SOL    HW239587   4.186   2.555   1.117  0.8995  0.9486 -1.7168
12873SOL     OW39588   5.761   6.486   1.316  0.5733  0.8273 -0.2973
12873SOL    HW139589   5.848   6.520   1.337  0.9048  0.3502 -0.8825
12873SOL    HW239590   5.701   6.540   1.368  1.3131  0.1741  1.3116
12874SOL     OW39591   1.827   3.941   2.218  0.5499  0.2473 -0.2704
12874SOL    HW139592   1.922   3.946   2.220  0.6238 -0.8216  1.7547
12874SOL    HW239593   1.808   3.874   2.152  1.3224 -0.8523  0.5810
12875SOL     OW39594   1.950   1.594   1.733  0.1154 -0.0075 -0.0072
12875SOL    HW139595   2.004   1.662   1.773  0.0904  0.0757 -0.1160
12875SOL    HW239596   1.945   1.618   1.640  1.7246 -1.1991 -0.4497
12876SOL     OW39597   6.916   0.787   0.920 -0.0173 -0.5320  0.0889
12876SOL    HW139598   6.889   0.696   0.905 -0.7762 -0.1111 -1.1958
12876SOL    HW239599   7.009   0.780   0.941  0.4446 -1.4784 -1.9590
12877SOL     OW39600   4.873   6.857   2.264  0.3419  0.1599  0.3280
12877SOL    HW139601   4.882   6.794   2.193  1.3352 -0.7124  1.1814
12877SOL    HW239602   4.936   6.926   2.244  0.2062  0.2097  0.0708
12878SOL     OW39603   0.416   6.363   3.380 -0.5073 -0.2187 -0.5775
12878SOL    HW139604   0.486   6.381   3.317  0.1536 -0.4290  0.0928
12878SOL    HW239605   0.389   6.449   3.411 -0.1666 -0.1608 -0.4342
12879SOL     OW39606   0.019   3.733   1.345  0.0132  0.3176  0.7038
12879SOL    HW139607   0.097   3.779   1.313 -0.7537  1.0231 -0.2284
12879SOL    HW239608   0.005   3.663   1.282  0.2420 -0.2036  1.2229
12880SOL     OW39609   4.713   4.721   7.124 -0.0333 -0.0513  0.1950
12880SOL    HW139610   4.788   4.693   7.176  1.7669 -0.5847 -2.4661
12880SOL    HW239611   4.746   4.796   7.074 -2.0322  1.1838  0.6390
12881SOL     OW39612   6.187   4.985   7.182  0.1364 -0.4147 -0.1531
12881SOL    HW139613   6.268   4.947   7.147  0.0426 -0.9570  0.1959
12881SOL    HW239614   6.208   5.004   7.274  0.3860  0.9981 -0.4779
12882SOL     OW39615   0.704   5.411   5.269  0.3294 -0.0655  0.4396
12882SOL    HW139616   0.721   5.317   5.278  0.8537 -0.1562 -1.1798
12882SOL    HW239617   0.787   5.448   5.242 -0.0782  0.7570  0.2830
12883SOL     OW39618   2.234   2.378   6.422  0.3971  0.2378 -0.3026
12883SOL    HW139619   2.319   2.348   6.454  0.8977  0.2507 -1.5593
12883SOL    HW239620   2.174   2.362   6.495  1.6791  1.3953  1.0699
12884SOL     OW39621   0.245   1.337   4.155  0.1253  0.3386  0.2789
12884SOL    HW139622   0.269   1.283   4.230  1.1281 -0.1262 -0.3563
12884SOL    HW239623   0.219   1.421   4.193  0.3060  0.0051  1.1576
12885SOL     OW39624   2.797   6.286   3.622  0.1592 -0.0949  0.3020
12885SOL    HW139625   2.814   6.211   3.679 -0.1707  0.3331  0.9740
12885SOL    HW239626   2.871   6.345   3.636  1.8687 -1.4475 -2.2612
12886SOL     OW39627   5.033   1.862   6.734  0.4809  0.1352 -0.2521
12886SOL    HW139628   5.098   1.851   6.804 -0.2609 -1.7312  0.2130
12886SOL    HW239629   4.950   1.845   6.777 -0.0751 -0.0615 -1.3769
12887SOL     OW39630   4.529   1.495   5.478 -0.5154  0.6685  0.3551
12887SOL    HW139631   4.600   1.550   5.511  0.8060  1.2320 -2.9791
12887SOL    HW239632   4.543   1.410   5.519  0.9674  1.2694  1.1834
12888SOL     OW39633   2.465   2.334   0.514  0.2584 -0.2792 -0.0089
12888SOL    HW139634   2.542   2.381   0.544  0.3996  0.0957 -0.9328
12888SOL    HW239635   2.400   2.402   0.495 -0.3221 -0.5902  0.7863
12889SOL     OW39636   4.031   6.047   4.169  0.0679 -0.3351  0.2468
12889SOL    HW139637   3.983   5.968   4.144  0.8584 -1.4179  2.0176
12889SOL    HW239638   4.015   6.057   4.263  0.2977  1.4271  0.1429
12890SOL     OW39639   3.957   2.080   6.062  0.4203 -0.5740 -0.1987
12890SOL    HW139640   3.906   2.033   6.128 -0.4533 -1.1092 -1.2282
12890SOL    HW239641   3.892   2.111   5.998  1.1271  0.8250 -0.2902
12891SOL     OW39642   1.555   2.552   6.616  0.3893 -0.1748 -0.5519
12891SOL    HW139643   1.462   2.529   6.615  0.0622  0.9781  0.6874
12891SOL    HW239644   1.597   2.483   6.564 -0.8506 -2.0084  0.7280
12892SOL     OW39645   0.263   0.874   0.958  0.4260  0.0298  0.0607
12892SOL    HW139646   0.204   0.946   0.980  0.2690 -0.2978  0.7470
12892SOL    HW239647   0.348   0.915   0.946  0.4051  0.2981  0.7788
12893SOL     OW39648   4.435   3.271   1.597  0.2117 -0.1134 -0.1746
12893SOL    HW139649   4.453   3.178   1.607  0.4135 -0.0309  0.2606
12893SOL    HW239650   4.399   3.298   1.681  0.4214  0.2621 -0.2018
12894SOL     OW39651   1.373   3.774   7.033 -0.2367  0.1061  0.4205
12894SOL    HW139652   1.328   3.777   7.118 -1.1486 -1.4959  0.0335
12894SOL    HW239653   1.466   3.778   7.055 -0.4856  1.7135  1.3508
12895SOL     OW39654   2.993   5.247   6.348 -0.1547 -0.5111  0.1396
12895SOL    HW139655   2.995   5.159   6.309 -1.8526 -0.1879 -0.7838
12895SOL    HW239656   3.083   5.263   6.375  0.0448 -2.9043  1.2018
12896SOL     OW39657   2.100   5.242   6.322 -1.2172 -0.1322  0.3200
12896SOL    HW139658   2.116   5.157   6.281  1.9939 -0.3764  1.7542
12896SOL    HW239659   2.059   5.294   6.253 -3.1107 -2.7073 -0.6753
12897SOL     OW39660   5.780   5.811   2.108 -0.0579  0.0420 -0.4600
12897SOL    HW139661   5.820   5.816   2.194 -3.1375  0.5171  1.0729
12897SOL    HW239662   5.702   5.757   2.120 -0.6735  0.2457 -2.9188
12898SOL     OW39663   6.592   3.990   6.246 -0.9111  0.0141 -0.1145
12898SOL    HW139664   6.626   3.958   6.329 -0.4836  0.0433 -0.2777
12898SOL    HW239665   6.498   3.969   6.249 -1.1639  1.2209  0.9359
12899SOL     OW39666   1.832   4.323   3.985 -0.5795 -0.4592  0.3079
12899SOL    HW139667   1.749   4.276   3.990 -0.9818  0.1078 -0.6605
12899SOL    HW239668   1.812   4.410   4.020 -0.2525 -0.4885  0.5702
12900SOL     OW39669   0.450   1.864   5.410  0.3454  0.1073 -0.7412
12900SOL    HW139670   0.525   1.836   5.358  0.0424 -1.9182 -0.1590
12900SOL    HW239671   0.488   1.891   5.494  0.4652 -0.6538 -0.5437
12901SOL     OW39672   2.007   5.380   2.533  0.1083 -0.2959 -1.0812
12901SOL    HW139673   2.067   5.399   2.461  2.2877  0.8584  0.9372
12901SOL    HW239674   2.033   5.439   2.603 -2.0818 -1.2049  0.6346
12902SOL     OW39675   3.960   3.535   2.847 -0.5449 -0.1155  0.3344
12902SOL    HW139676   3.969   3.482   2.926  0.4729 -0.2986  0.1081
12902SOL    HW239677   3.869   3.567   2.850 -1.7953 -3.2546 -0.4193
12903SOL     OW39678   0.297   7.170   3.635 -0.4071  0.4061  0.3683
12903SOL    HW139679   0.298   7.099   3.698 -0.1523 -0.7819 -0.9250
12903SOL    HW239680   0.384   7.210   3.641 -0.2604  0.0642  0.5063
12904SOL     OW39681   3.700   2.689   5.303  0.4195  0.1542 -0.5892
12904SOL    HW139682   3.615   2.676   5.343  0.3713 -1.2527 -1.1167
12904SOL    HW239683   3.763   2.664   5.371  0.4645  1.8891  0.0558
12905SOL     OW39684   0.237   7.314   6.839 -0.3025  0.0981 -0.6829
12905SOL    HW139685   0.290   7.258   6.896 -1.4583 -0.6618 -0.3172
12905SOL    HW239686   0.237   7.399   6.884  2.6898  0.9241 -1.9864
12906SOL     OW39687   7.234   0.624   0.416  0.0044 -1.0748  0.3560
12906SOL    HW139688   7.146   0.659   0.404 -0.6582 -2.6584  0.2902
12906SOL    HW239689   7.253   0.641   0.508 -0.5037 -1.0030  0.4542
12907SOL     OW39690   7.221   3.451   1.786 -0.4395 -0.4468 -0.4484
12907SOL    HW139691   7.254   3.420   1.702  0.3826 -0.0657 -0.2783
12907SOL    HW239692   7.177   3.533   1.766 -0.3229 -0.4015 -0.5196
12908SOL     OW39693   6.492   6.859   3.270 -0.4167 -0.2362  0.2986
12908SOL    HW139694   6.469   6.834   3.180 -1.3855 -0.0940  0.5020
12908SOL    HW239695   6.483   6.778   3.320  0.0502 -0.2972  0.2926
12909SOL     OW39696   3.871   1.970   1.732  0.1360  0.3770 -0.1103
12909SOL    HW139697   3.876   2.061   1.760 -2.1632  0.2101  1.1244
12909SOL    HW239698   3.798   1.967   1.671  1.1346 -0.4050 -1.3110
12910SOL     OW39699   2.789   4.625   2.065 -0.3399  0.5048  0.5450
12910SOL    HW139700   2.751   4.539   2.049 -1.1802  0.7810  1.0174
12910SOL    HW239701   2.722   4.672   2.114  0.5936  1.0189  1.3506
12911SOL     OW39702   2.222   7.139   4.934  0.0637  0.2725  0.6165
12911SOL    HW139703   2.148   7.189   4.968  0.5621  1.5162 -0.0579
12911SOL    HW239704   2.183   7.060   4.896 -0.7457  0.1598  1.6420
12912SOL     OW39705   3.449   1.682   2.387 -0.4833  0.2708  0.4500
12912SOL    HW139706   3.489   1.648   2.307 -1.3065  0.7997 -0.2058
12912SOL    HW239707   3.478   1.622   2.456  2.8906  1.5889  0.3537
12913SOL     OW39708   3.347   6.923   3.906 -0.2495 -0.0288  0.5218
12913SOL    HW139709   3.329   6.831   3.890 -0.2330  0.3492 -2.0677
12913SOL    HW239710   3.260   6.964   3.911 -0.2845 -0.2782  2.6506
12914SOL     OW39711   3.821   2.236   1.781  0.5200 -0.7184  0.5474
12914SOL    HW139712   3.776   2.245   1.865 -0.0725  0.1765  0.1526
12914SOL    HW239713   3.909   2.268   1.798  0.8800 -1.9766  1.1925
12915SOL     OW39714   3.217   4.990   4.450 -0.3692  0.4083  0.1261
12915SOL    HW139715   3.264   5.072   4.436  0.5035 -0.1110 -0.0624
12915SOL    HW239716   3.129   5.007   4.416 -0.0582  1.1155 -0.3464
12916SOL     OW39717   5.525   2.424   5.064 -0.4995  0.2854 -0.2643
12916SOL    HW139718   5.479   2.372   4.997 -1.6367  0.3081  0.4809
12916SOL    HW239719   5.584   2.361   5.105  0.1716  0.2538 -1.2371
12917SOL     OW39720   6.040   2.003   0.513 -0.6263  0.9053  0.0962
12917SOL    HW139721   5.956   1.963   0.493  0.2105 -0.4587 -0.8984
12917SOL    HW239722   6.063   2.051   0.433  0.2691 -0.0930 -0.2705
12918SOL     OW39723   5.102   7.234   3.235  0.0645 -0.1670 -0.0903
12918SOL    HW139724   5.046   7.299   3.277  0.9887  0.9240 -0.4868
12918SOL    HW239725   5.050   7.200   3.162 -0.0510  0.9354 -0.5420
12919SOL     OW39726   4.088   1.256   5.498 -0.3205  0.3229 -0.2099
12919SOL    HW139727   4.064   1.342   5.532  1.3897  1.1979 -1.1179
12919SOL    HW239728   4.171   1.235   5.541 -1.0748 -1.2592  0.5814
12920SOL     OW39729   0.571   1.144   7.035  0.4226  0.5290  0.4889
12920SOL    HW139730   0.654   1.132   7.080  0.4731  1.1925  0.5861
12920SOL    HW239731   0.577   1.231   6.996  0.5414 -0.1875 -1.1546
12921SOL     OW39732   4.623   3.282   6.342 -0.4779 -0.1788  0.3636
12921SOL    HW139733   4.595   3.197   6.373  1.2082 -1.5731 -1.6455
12921SOL    HW239734   4.562   3.305   6.272 -1.2901  0.5935  1.2954
12922SOL     OW39735   4.023   3.357   7.084 -0.1067 -0.2293 -0.3808
12922SOL    HW139736   4.116   3.349   7.107 -0.1348 -0.1732 -0.2460
12922SOL    HW239737   4.022   3.364   6.989  0.1536  1.5715 -0.2787
12923SOL     OW39738   1.315   6.118   5.727  0.0753 -0.8709  0.7335
12923SOL    HW139739   1.400   6.089   5.761  0.7329  1.1038  0.9551
12923SOL    HW239740   1.313   6.212   5.746 -1.8608 -0.7267  0.0591
12924SOL     OW39741   3.003   4.484   6.446  0.1618 -0.2503  0.1007
12924SOL    HW139742   2.953   4.505   6.368 -1.3700 -0.0613  1.0927
12924SOL    HW239743   3.078   4.433   6.414 -1.1656 -1.3813 -1.3452
12925SOL     OW39744   4.441   0.480   5.874 -0.3244  0.4152  0.0248
12925SOL    HW139745   4.471   0.389   5.864  0.5263  0.7305 -0.3157
12925SOL    HW239746   4.452   0.497   5.968 -0.7173  0.0913  0.1346
12926SOL     OW39747   4.200   6.226   5.178  0.2813  0.1031 -0.4481
12926SOL    HW139748   4.181   6.226   5.084 -1.8413 -2.4863 -0.1307
12926SOL    HW239749   4.121   6.263   5.218  0.3189 -0.7006  0.3992
12927SOL     OW39750   3.936   2.188   2.661  0.2266  0.0721  0.5096
12927SOL    HW139751   3.897   2.150   2.582 -0.5558 -0.5656  1.1771
12927SOL    HW239752   4.018   2.227   2.632 -0.1017 -0.0693 -0.6334
12928SOL     OW39753   5.009   0.158   3.913  0.1465  0.0291 -0.3197
12928SOL    HW139754   5.067   0.226   3.880  1.8983 -0.8783  0.7629
12928SOL    HW239755   4.924   0.202   3.921  1.0857  1.9424 -0.1532
12929SOL     OW39756   2.963   4.077   5.544 -0.1939  1.0040  0.3513
12929SOL    HW139757   2.878   4.109   5.575  0.0269  0.3378  1.7136
12929SOL    HW239758   2.944   3.992   5.505 -0.3311  1.4340 -0.5478
12930SOL     OW39759   5.714   3.461   4.497  0.2211 -0.8393  0.4650
12930SOL    HW139760   5.748   3.531   4.442 -0.7069 -0.4195  0.4191
12930SOL    HW239761   5.716   3.383   4.440 -0.7420 -0.4084 -0.1747
12931SOL     OW39762   0.178   6.288   4.324 -0.6438 -0.6016  0.5442
12931SOL    HW139763   0.249   6.343   4.356 -1.4251  0.1432  1.0683
12931SOL    HW239764   0.154   6.234   4.399 -2.4497  1.1148  1.3009
12932SOL     OW39765   3.588   2.274   1.657 -0.2121 -0.0371  0.1411
12932SOL    HW139766   3.594   2.259   1.562 -0.7418 -2.2876  0.3891
12932SOL    HW239767   3.673   2.248   1.690 -0.8246 -1.7240  0.4949
12933SOL     OW39768   6.384   3.901   2.667  0.3138 -0.2843  0.1922
12933SOL    HW139769   6.462   3.953   2.645  1.1597 -1.3447  0.6039
12933SOL    HW239770   6.311   3.953   2.633  1.1755  0.8378 -0.0264
12934SOL     OW39771   3.243   0.715   4.189 -0.0570 -0.2810  0.0566
12934SOL    HW139772   3.292   0.789   4.226 -2.4552  1.6999 -0.4682
12934SOL    HW239773   3.216   0.664   4.265  2.1099 -1.0353  0.3951
12935SOL     OW39774   6.979   1.652   2.820  0.1085 -0.1739  0.0864
12935SOL    HW139775   6.889   1.646   2.852 -0.4243 -0.8210 -1.4036
12935SOL    HW239776   7.007   1.740   2.841 -1.1212  0.2563  0.0005
12936SOL     OW39777   2.547   2.527   2.974  0.0077 -0.1212 -0.1813
12936SOL    HW139778   2.598   2.533   3.055 -1.2520 -0.5001  0.6699
12936SOL    HW239779   2.493   2.606   2.973  0.9440  0.5405 -1.3443
12937SOL     OW39780   4.191   3.687   2.872 -0.2950  0.3405  0.0685
12937SOL    HW139781   4.104   3.650   2.859 -0.1550 -0.5199  1.3073
12937SOL    HW239782   4.177   3.781   2.881 -0.8282  0.4666 -1.7859
12938SOL     OW39783   5.467   0.025   0.559 -0.1183  0.2002 -0.1305
12938SOL    HW139784   5.552   0.046   0.597 -0.5423 -0.8061  1.4620
12938SOL    HW239785   5.435  -0.049   0.610 -1.5914  0.0161 -1.2430
12939SOL     OW39786   5.843   0.307   6.330  0.1834  0.1384 -0.9288
12939SOL    HW139787   5.829   0.274   6.419  1.1959  3.7628  0.7654
12939SOL    HW239788   5.767   0.277   6.281 -1.3430 -0.4932  1.6325
12940SOL     OW39789   6.049   4.110   2.720 -0.4053  0.3275 -0.1519
12940SOL    HW139790   6.028   4.055   2.643  1.4450 -2.8087  1.3865
12940SOL    HW239791   5.965   4.120   2.765 -0.9748 -0.4233 -1.0002
12941SOL     OW39792   6.306   5.783   1.335  0.1560  0.2418  0.8076
12941SOL    HW139793   6.332   5.698   1.372  2.3536  0.9320  0.9748
12941SOL    HW239794   6.350   5.787   1.250 -0.6634  0.8720  0.3909
12942SOL     OW39795   2.718   2.103   2.913  0.3010 -0.8034 -0.2861
12942SOL    HW139796   2.681   2.073   2.996  2.4101 -2.5752  0.1231
12942SOL    HW239797   2.649   2.087   2.849 -0.6794 -1.2358  0.8485
12943SOL     OW39798   2.126   7.067   0.273  0.1041  0.5172  0.4077
12943SOL    HW139799   2.120   7.163   0.278  0.4379  0.5498  0.2227
12943SOL    HW239800   2.040   7.040   0.239  1.0556  1.0040 -2.6959
12944SOL     OW39801   4.277   2.504   0.180  0.4760  0.2973  0.5744
12944SOL    HW139802   4.366   2.540   0.188  0.1833  1.1402  0.0815
12944SOL    HW239803   4.230   2.568   0.127  0.5434 -1.8980 -2.3766
12945SOL     OW39804   3.287   2.662   2.139  0.0040  0.9769  0.2731
12945SOL    HW139805   3.321   2.749   2.122 -0.4691  1.0507 -0.3357
12945SOL    HW239806   3.336   2.631   2.215 -0.2588  2.0111  0.8821
12946SOL     OW39807   6.251   3.487   3.773 -0.2465 -0.1471 -0.0366
12946SOL    HW139808   6.226   3.395   3.763 -0.0771 -0.3942  1.6128
12946SOL    HW239809   6.173   3.536   3.745 -0.4274 -0.7744 -0.6823
12947SOL     OW39810   7.111   5.547   3.660  0.4208 -0.4710  0.1780
12947SOL    HW139811   7.057   5.615   3.619 -0.2427  0.5281  2.5635
12947SOL    HW239812   7.199   5.563   3.626  0.1842  1.2831  0.2794
12948SOL     OW39813   4.767   1.516   4.889 -0.5963 -0.2918  0.3547
12948SOL    HW139814   4.673   1.518   4.874 -0.7996  1.9542  1.6002
12948SOL    HW239815   4.805   1.493   4.804 -2.2495 -1.9575  0.0052
12949SOL     OW39816   4.462   6.207   1.308 -0.4518 -0.0058  0.0383
12949SOL    HW139817   4.533   6.223   1.371 -1.0386  0.9281  0.5001
12949SOL    HW239818   4.458   6.112   1.299 -1.5846 -0.3302  2.9257
12950SOL     OW39819   5.272   0.497   4.554  0.3103  0.2943 -0.1695
12950SOL    HW139820   5.219   0.499   4.474 -0.0109  0.7721  0.0465
12950SOL    HW239821   5.361   0.511   4.524  0.1878  0.4991 -0.4433
12951SOL     OW39822   6.995   1.623   2.528 -0.0880  0.0435 -0.7975
12951SOL    HW139823   6.966   1.599   2.616  1.0683  0.8856 -0.1531
12951SOL    HW239824   7.040   1.544   2.496  2.4510  0.7491  0.7491
12952SOL     OW39825   1.569   3.195   4.609 -0.5161  0.1327  0.2424
12952SOL    HW139826   1.617   3.133   4.663 -0.2459  1.1836  1.2334
12952SOL    HW239827   1.631   3.219   4.540 -0.4547 -0.3181  0.1352
12953SOL     OW39828   5.970   3.486   6.278 -0.2158 -0.1897  0.4242
12953SOL    HW139829   6.033   3.537   6.329 -0.8867  2.0090 -0.7718
12953SOL    HW239830   6.022   3.444   6.210  0.1793  0.2146  0.4731
12954SOL     OW39831   4.024   2.728   2.453  0.3395  0.1482  0.6656
12954SOL    HW139832   4.053   2.811   2.414  1.1496  0.5628  2.1076
12954SOL    HW239833   4.014   2.747   2.546 -1.3545 -0.8872  0.7413
12955SOL     OW39834   4.858   4.642   7.355  0.0579 -0.9357  0.6752
12955SOL    HW139835   4.827   4.695   7.429  1.4590 -0.2025  0.7904
12955SOL    HW239836   4.816   4.557   7.365 -1.8893 -0.0052  0.7683
12956SOL     OW39837   4.439   5.028   2.962  0.2525 -0.6902 -0.2465
12956SOL    HW139838   4.406   5.084   3.032 -1.3676 -1.1721 -0.5692
12956SOL    HW239839   4.381   5.045   2.888 -0.2509 -2.6783 -0.3830
12957SOL     OW39840   6.226   3.326   2.347  0.1559  0.1731 -0.2285
12957SOL    HW139841   6.316   3.358   2.358 -0.1143  0.5742  1.0063
12957SOL    HW239842   6.179   3.400   2.310  0.1624  0.2289 -0.1259
12958SOL     OW39843   4.331   1.276   1.436  0.1197 -0.1673 -0.5668
12958SOL    HW139844   4.398   1.316   1.492 -1.3920 -0.0073  1.2275
12958SOL    HW239845   4.320   1.188   1.472 -2.2458  0.5730  0.7240
12959SOL     OW39846   1.024   4.524   4.480  0.1107  0.4455 -0.4185
12959SOL    HW139847   1.119   4.532   4.491  0.5973 -0.0840 -3.3100
12959SOL    HW239848   0.994   4.614   4.467  0.3221  0.5510 -0.1853
12960SOL     OW39849   0.717   4.677   6.185  0.3121  0.4157  0.1656
12960SOL    HW139850   0.782   4.738   6.221  1.4062  0.3543 -1.5776
12960SOL    HW239851   0.656   4.732   6.137 -0.1949  0.3413  0.7033
12961SOL     OW39852   3.101   4.822   5.498 -0.1355  0.2961  0.2776
12961SOL    HW139853   3.152   4.759   5.549 -0.7434  0.0043  0.5280
12961SOL    HW239854   3.055   4.768   5.433 -0.6713  0.4729  0.5042
12962SOL     OW39855   3.314   2.371   5.574  0.2802  0.0675  0.1097
12962SOL    HW139856   3.312   2.297   5.634  1.1299  0.7888  1.0668
12962SOL    HW239857   3.277   2.444   5.625  2.1234  0.9823  0.2132
12963SOL     OW39858   4.322   1.703   1.966  0.0608 -0.3136 -0.6207
12963SOL    HW139859   4.245   1.677   2.016 -0.6018  1.9213 -0.4025
12963SOL    HW239860   4.287   1.748   1.889  1.1374 -0.9250 -1.5013
12964SOL     OW39861   4.052   2.859   5.705 -0.1378 -0.2089  0.5995
12964SOL    HW139862   4.050   2.801   5.781 -0.9427 -0.8517  0.1019
12964SOL    HW239863   3.961   2.884   5.691 -0.0415 -0.3230 -0.3141
12965NA      NA39864   3.237   0.783   2.556 -0.4182  0.1575  0.6884
12966NA      NA39865   6.103   2.130   0.995 -0.8609  0.1740  0.3326
12967NA      NA39866   3.831   2.808   5.173 -0.2277 -0.1375  0.3464
12968NA      NA39867   1.481   1.339   2.064 -0.3985 -0.2428 -0.0730
12969NA      NA39868   2.827   5.709   7.231 -0.0175  0.4581 -0.5745
12970NA      NA39869   5.796   2.308   5.797 -0.1558  0.0401 -0.5675
12971NA      NA39870   3.276   2.659   1.131  0.0951 -0.0141  0.1878
12972NA      NA39871   2.277   3.203   5.633  0.0995  0.3385  0.1503
12973NA      NA39872   6.760   4.750   2.342  0.1482 -0.1334 -0.5188
12974NA      NA39873   5.559   0.522   1.086 -0.0211 -0.3230  0.1411
12975NA      NA39874   3.758   3.274   4.434  0.2819 -0.3589  0.0236
12976NA      NA39875   5.753   7.104   1.915  0.4209 -0.0929 -0.1768
12977NA      NA39876   5.214   6.782   1.504 -0.0830 -0.1845  0.9690
12978NA      NA39877   3.403   2.617   3.886  0.2322  0.2403 -0.2040
12979NA      NA39878   1.519   6.201   0.094  0.5857 -0.1217  0.1177
12980NA      NA39879   3.819   4.038   0.116 -0.1153 -0.1656  0.0537
12981NA      NA39880   3.488   3.758   0.628 -0.1092 -0.2489  0.3655
12982NA      NA39881   2.066   4.925   2.239 -0.1653 -0.0194 -0.1343
12983NA      NA39882   2.998   0.360   5.862 -0.4582  0.0768  0.3245
12984NA      NA39883   3.672   4.283   5.319 -0.1636  0.5117 -0.3912
12985NA      NA39884   3.995   2.043   3.691  0.4333  0.0136  0.4424
12986NA      NA39885   6.742   0.642   5.281  0.8689  0.1975 -0.3710
12987NA      NA39886   2.413   2.308   2.498  0.4728 -0.6561  0.2390
12988NA      NA39887   2.050   6.763   3.720  0.1074  0.0696 -0.0824
12989NA      NA39888   3.634   7.001   1.893 -0.2021 -0.5779  0.0113
12990NA      NA39889   2.723   3.894   1.815  0.0017 -0.3625  0.2683
12991NA      NA39890   0.603   1.244   3.178  0.0257 -0.0412 -0.6799
12992NA      NA39891   0.652   2.592   6.673 -0.4217 -0.3976 -0.1507
12993NA      NA39892   6.638   2.295   5.274  0.4129 -0.1169 -0.4178
12994NA      NA39893   5.240   6.499   2.714  0.1152 -0.3346 -0.5353
12995NA      NA39894   3.036   3.925   1.415 -0.0771 -0.2583 -0.0083
12996NA      NA39895   7.313   1.377   2.602  0.3079  0.0686 -0.0876
12997NA      NA39896   4.232   2.092   5.445  0.1374  0.2450 -0.0052
12998NA      NA39897   3.056   7.147   3.437 -0.0993 -0.1226  0.2957
12999NA      NA39898   1.233   5.201   5.217 -0.0091 -0.2261  0.1467
13000NA      NA39899   2.322   5.338   5.797 -0.0041  0.2809  0.2381
13001NA      NA39900   1.270   1.139   6.758 -0.1919 -0.2743  0.3613
13002CL      CL39901   3.366   4.050   0.321  0.0947  0.1199  0.2399
13003CL      CL39902   2.807   3.691   3.065 -0.0863 -0.2656 -0.0775
13004CL      CL39903   4.857   6.707   4.011  0.2176  0.1718 -0.2502
13005CL      CL39904   6.418   3.387   5.885 -0.2002 -0.2592 -0.3786
13006CL      CL39905   5.954   2.997   3.823 -0.0073 -0.1690 -0.1689
13007CL      CL39906   6.479   5.320   6.621 -0.0618  0.3555 -0.3426
13008CL      CL39907   1.537   4.976   4.065 -0.1727  0.1033  0.2994
13009CL      CL39908   4.320   3.197   1.099 -0.2038  0.3185 -0.2386
13010CL      CL39909   6.678   4.802   4.368  0.3068  0.3169  0.0892
13011CL      CL39910   5.596   5.904   5.720 -0.1305 -0.1378 -0.2949
13012CL      CL39911   6.561   0.670   5.133  0.2228  0.6493 -0.0711
13013CL      CL39912   3.905   6.312   0.459 -0.3266  0.0380 -0.3554
13014CL      CL39913   0.731   6.036   4.819  0.0903 -0.3367  0.2973
13015CL      CL39914   1.082   4.755   5.105 -0.0043 -0.0945  0.4183
13016CL      CL39915   0.002   5.022   4.131 -0.0957  0.5159 -0.3496
13017CL      CL39916   5.686   6.904   1.555  0.4676 -0.0086  0.1892
13018CL      CL39917   0.683   5.490   2.826  0.3363 -0.4137 -0.0387
13019CL      CL39918   6.566   6.175   6.085  0.4046  0.2638 -0.0796
13020CL      CL39919   7.252   6.159   6.717 -0.0419  0.0660 -0.3681
13021CL      CL39920   7.343   0.643   0.702  0.1660 -0.2795  0.2566
13022CL      CL39921   3.961   4.571   5.063 -0.1853 -0.1540  0.2427
13023CL      CL39922   5.403   6.355   7.156  0.2935 -0.0049 -0.2006
13024CL      CL39923   5.455   6.892   5.390 -0.1829 -0.0595 -0.1027
13025CL      CL39924   1.945   5.264   4.631 -0.6416 -0.1615  0.1648
13026CL      CL39925   2.161   2.749   5.235 -0.0661  0.0455 -0.0416
13027CL      CL39926   2.924   6.519   0.498 -0.0272 -0.1867  0.1546
13028CL      CL39927   5.510   4.748   6.225 -0.0706  0.4735  0.5816
13029CL      CL39928   2.052   6.447   4.040  0.2121  0.1128 -0.0531
13030CL      CL39929   5.484   3.296   6.093  0.0137  0.1149 -0.5496
13031CL      CL39930   1.007   1.955   5.295 -0.1262  0.5069  0.1316
13032CL      CL39931   5.110   4.466   5.582 -0.2311  0.0968 -0.8908
13033CL      CL39932   4.875   2.454   5.722 -0.1168  0.0919  0.3111
13034CL      CL39933   6.829   5.902   5.440  0.0282 -0.0319 -0.1457
13035CL      CL39934   0.373   6.808   4.182  0.0957  0.0163  0.2440
13036CL      CL39935   6.683   5.544   3.907  0.0483  0.1507 -0.3550
13037CL      CL39936   2.779   6.470   7.146 -0.4126 -0.0085  0.5152
13038CL      CL39937   0.383   7.181   5.540  0.2266 -0.7728 -0.3530
13039CL      CL39938   6.164   3.804   2.107  0.3939 -0.0364  0.0612
13040CL      CL39939   3.790   0.067   1.752 -0.3126 -0.0754  0.3367
13041CL      CL39940   0.046   5.305   7.250  0.2788  0.1030  0.1234
13042CL      CL39941   5.737   0.642   3.828 -0.2349 -0.1662  0.1918
13043CL      CL39942   0.052   1.210   7.047 -0.0460  0.3316 -0.1229
13044CL      CL39943   0.914   5.385   5.600 -0.2134  0.3285  0.1609
13045CL      CL39944   3.697   2.893   5.719  0.1254  0.0745 -0.5981
13046CL      CL39945   1.743   1.341   2.648 -0.2158  0.1099  0.1672
13047CL      CL39946   2.858   2.524   4.727 -0.0247 -0.1262 -0.0907
13048CL      CL39947   1.149   7.212   5.972 -0.0671 -0.3459 -0.3501
13049CL      CL39948   3.620   4.826   6.573 -0.2615 -0.0914  0.1798
13050CL      CL39949   0.440   5.364   6.823  0.5887 -0.0688  0.2980
13051CL      CL39950   5.113   5.286   3.383 -0.0507 -0.1625 -0.3762
13052CL      CL39951   5.145   1.676   4.577 -0.1624 -0.2150 -0.0576
13053CL      CL39952   0.647   6.124   3.996 -0.5034 -0.4994 -0.1562
13054CL      CL39953   1.688   2.751   1.566 -0.3393  0.1466 -0.5668
13055CL      CL39954   6.200   2.605   2.511  0.0496  0.1611  0.2978
13056CL      CL39955   4.509   4.430   4.621 -0.6199 -0.3232  0.1309
13057CL      CL39956   0.491   2.742   4.224 -0.0745  0.3163 -0.5097
13058CL      CL39957   1.598   1.498   6.391 -0.0978 -0.4781  0.0754
13059CL      CL39958   4.916   5.255   4.796 -0.6886  0.0023  0.0364
13060CL      CL39959   0.717   4.460   3.499 -0.0203  0.0692 -0.3015
13061CL      CL39960   6.952   2.574   4.360  0.0806 -0.3921  0.0738
13062CL      CL39961   6.948   1.810   4.455  0.1516  0.1788  0.1180
13063CL      CL39962   4.340   4.116   7.241 -0.0705  0.1186  0.0586
13064CL      CL39963   5.014   1.208   2.373  0.4115 -0.2918 -0.1302
13065CL      CL39964   0.593   7.226   3.742  0.3872  0.3627 -0.0538
13066CL      CL39965   5.847   3.859   0.367 -0.1919  0.3291 -0.1929
13067CL      CL39966   7.224   4.725   4.524 -0.2450 -0.1009  0.0071
13068CL      CL39967   0.660   3.705   1.237  0.1884 -0.3005 -0.7599
13069CL      CL39968   1.406   1.041   3.178  0.1408  0.2207 -0.3500
13070CL      CL39969   6.917   3.381   4.794  0.0823  0.2804 -0.2167
13071CL      CL39970   7.021   2.057   1.390  0.2919  0.0716 -0.1265
13072CL      CL39971   5.935   5.543   2.640 -0.4904  0.2753  0.4479
13073CL      CL39972   1.562   5.866   3.689  0.3929  0.1653 -0.1894
13074CL      CL39973   3.211   3.472   1.538 -0.0301 -0.0538  0.2692
13075CL      CL39974   3.989   2.696   4.205 -0.1172  0.0796 -0.4778
13076CL      CL39975   4.335   5.712   3.702 -0.3206  0.0460 -0.2775
13077CL      CL39976   2.916   0.489   3.450 -0.4895 -0.0406 -0.0864
13078CL      CL39977   6.703   6.217   3.553  0.0563  0.3680 -0.3531
13079CL      CL39978   6.389   7.181   3.969  0.2273  0.3194 -0.0949
13080CL      CL39979   3.684   2.462   0.500  0.0354  0.2659  0.3250
13081CL      CL39980   2.587   5.097   0.901 -0.0772  0.0950  0.3306
13082CL      CL39981   1.822   6.649   0.843 -0.4807 -0.0241  0.0081
13083CL      CL39982   0.069   0.661   5.561  0.3160  0.0508  0.0642
13084CL      CL39983   7.205   4.420   2.866 -0.0947  0.0439  0.3013
13085CL      CL39984   4.867   5.995   3.511 -0.1396  0.3562 -0.1640
13086CL      CL39985   3.743   6.336   6.513  0.0399 -0.0683 -0.4661
13087CL      CL39986   5.676   6.304   2.210 -0.0789 -0.0458  0.1963
13088CL      CL39987   2.376   3.857   2.088  0.0105 -0.0888 -0.1636
13089CL      CL39988   3.215   0.586   4.740  0.0686 -0.0075  0.1051
13090CL      CL39989   5.799   6.430   4.647 -0.2204  0.0571  0.1271
13091CL      CL39990   3.695   5.498   4.763 -0.2071 -0.0918 -0.2421
13092CL      CL39991   4.176   3.957   2.945  0.0035 -0.2381 -0.0733
13093CL      CL39992   5.686   4.555   2.724  0.1578  0.6278 -0.0358
13094CL      CL39993   6.771   6.351   5.390 -0.1502 -0.3165  0.4210
13095CL      CL39994   2.205   6.262   3.583 -0.5475  0.2879 -0.2118
13096CL      CL39995   3.788   5.277   3.899  0.1143  0.6494  0.5645
13097CL      CL39996   1.720   0.170   2.081 -0.0101  0.4517  0.4669
13098CL      CL39997   0.322   6.832   7.048  0.1425  0.0913  0.3140
13099CL      CL39998   0.234   3.798   3.691 -0.3094 -0.1181  0.2581
13100CL      CL39999   1.145   2.307   2.981  0.1574  0.2089  0.4948
   7.38075   7.38075   7.38075
